<?xml version="1.0"?>
<VTKFile type="UnstructuredGrid"  version="0.1"  >
<UnstructuredGrid>
<Piece  NumberOfPoints="707" NumberOfCells="2949">
<Points>
<DataArray  type="Float64"  NumberOfComponents="3"  format="ascii">1.172385935605329 1.170670877000794 2.905345123783204  1.271849439395478 1.174956311546243 2.973464673323903  1.18023292466334 1.232557268707721 3.038812381478023  1.165732663522265 1.174772031878601 3.071509572301723  1.254726696761689 1.115654816675656 3.002931065135053  1.15525607548159 1.109438733277689 2.930586268385722  1.151938330554966 1.116281270094662 3.104195701983873  1.238073336925504 1.05573301406014 3.032267133935827  1.138671316885248 1.047589816305495 2.955514927561357  1.138352532351596 1.057321335044054 3.137107759623058  1.221556397154211 0.995397371092731 3.061736026647288  1.122202713036928 0.9852790285018542 2.980528286379398  1.124551126598522 0.9980951454386839 3.170380361273938  1.204928437534281 0.9348238470391277 3.091480288163515  1.105580704640234 0.9226792131971665 3.00581103845043  1.110221675898035 0.9386383759090567 3.203906779182197  1.188002697624563 0.8741060088450991 3.121497408174275  1.08862903896784 0.8598994266924436 3.031432006441643  1.095156693015072 0.8790275479970618 3.237682918716423  1.1704895830192 0.8133061422657917 3.151712246620922  1.071009444133891 0.7970310107013453 3.057372222065397  1.286745977136369 1.086958188607365 2.757468878113427  1.395986083816539 1.082896059300845 2.863073018215926  1.289256374512996 1.120918791944385 2.878719788752428  1.270494390578224 1.058953520010066 2.903314570088726  1.376398192961301 1.020700276886789 2.888902314631355  1.265347853682901 1.023077771204127 2.773944353579074  1.244122514814403 0.9588114759641211 2.7899227430327  1.357012186883102 0.9580266690392925 2.914469953403314  1.252054802291811 0.9964219969520027 2.927626468902266  1.222874660258519 0.8942609243888213 2.80580396452046  1.33763998089659 0.8951126037590899 2.940065096603997  1.233643790355381 0.9335725884726367 2.951989535038719  1.201522806626513 0.8295192493074467 2.821798665794628  1.318179463518638 0.8320376505043345 2.96582395821567  1.215109789133948 0.8705193926276555 2.976551210067986  1.180013349519232 0.7646734985268326 2.838032487605521  1.298545809113206 0.7688828484729173 2.991813459717194  1.196312769206272 0.8073398296437484 3.001392402004728  1.158267098621772 0.699844408859239 2.854633844850459  1.278667023606723 0.705725832451539 3.018100799685278  1.177085167294428 0.7441203298128893 3.026539325597577  1.172202451008214 1.127480651587068 2.781500017361628  1.153451271066647 1.063477345425582 2.798059431012324  1.135085626939196 0.9989288070939482 2.814067615563263  1.116765703642842 0.9340110085630203 2.830015357132446  1.098288682422198 0.8688509976841374 2.846123939664991  1.07951593528997 0.8035465183575506 2.862504660012583  1.060273144815015 0.7382247515245516 2.879284542880646  1.036081449490681 1.222281990555086 2.942837426191763  1.022140756920883 1.160764614550337 2.96871544789733  1.009066296418526 1.098319078310881 2.994376536474536  0.9961742595414551 1.035314683337766 3.020209418403755  0.9830842468126147 0.9719591241478682 3.046450929654814  0.9694362798068319 0.9083102809077368 3.073058284414779  0.9548254038871711 0.844371193236198 3.099992133451416  1.050455865240103 1.168892313541996 2.807486224506995  1.034344601790945 1.104782271764936 2.825354806727028  1.018841284119608 1.039983468511589 2.842666747051185  1.003405080395515 0.9747035688983916 2.859986180582521  0.9877706794470464 0.9090844185656158 2.877522324028039  0.9717226307964868 0.8432439020166315 2.89538486454699  0.9550354668392473 0.7773165235199224 2.913677926970816  1.514210999790892 1.037364388431739 2.847380302184158  1.516748129128759 1.111531396133201 2.986713686716622  1.495359642081493 0.9749951952533851 2.876240288398205  1.502333633397684 1.05249577850762 3.021445371123732  1.476622054677772 0.912234696688124 2.904861708889612  1.488191213100017 0.99311148149533 3.056128678614226  1.457864105420991 0.8492818828793789 2.933521012137318  1.474109248828635 0.9335150355269326 3.090918735960112  1.439056392366691 0.786222839751338 2.962310075926135  1.459965007975611 0.8737922748439684 3.125873615131454  1.420144493966311 0.7231356115891758 2.991299241804172  1.445677574310834 0.8140168976815445 3.161017463835732  1.401084967718234 0.6601071548548272 3.020563703102035  1.431117702663647 0.7542209556897475 3.196303852823607  1.048270621048583 1.129972740848121 2.55755577397371  1.054831053723138 1.12720904357844 2.429158330535988  1.155430473753206 1.094612100618359 2.527103438546151  1.133293880402022 1.029680896930252 2.52955064555073  1.036025700979586 1.06179023369951 2.4262810395489  1.029575227672266 1.064316952946096 2.560321117475585  1.111302845582198 0.9646298492666225 2.531214677296662  1.017616458789072 0.9962822438485968 2.422534748124882  1.011254960384294 0.9983956628016863 2.562229518774654  1.089202327607151 0.8994719770736057 2.532650561667712  0.999151765600278 0.9306962737075439 2.418523569257556  0.9928811047009742 0.9322755658298213 2.56391618112737  1.066963668864303 0.8341977146872206 2.534090434438818  0.9804201658846469 0.865067226962994 2.414572586674182  0.9743180997452696 0.8659769755473667 2.565637302684532  1.044577232271364 0.7688447737086868 2.535730310307505  0.9614182644318263 0.7994044667454825 2.410811268133811  0.9554696182547719 0.7995438752377002 2.567569221910833  1.022116749362832 0.7035013852652501 2.537846566663309  0.9421098588125876 0.7338358762168937 2.407501397357322  0.9362114814050098 0.7330804257565668 2.570005156356637  1.163264063576085 1.103041983971921 2.650854919005676  1.143128165522261 1.037961532245939 2.660169876523371  1.123265463422524 0.9725027886017569 2.668793104697075  1.103371643815789 0.9068096476883296 2.677238541764491  1.083329983176126 0.8409311303770894 2.6857532561822  1.063067796558315 0.7749365586010474 2.694516351485807  1.042513094201525 0.7089313713954026 2.703759854507119  1.397764280491128 1.038941069428259 2.743352333517587  1.373007156957919 0.9753612925147309 2.762084015666503  1.348160219783392 0.9114624040801725 2.780348858362677  1.323247736813251 0.8473717711002826 2.798565871448283  1.298290773416824 0.7831418686056413 2.816893579275105  1.273278314901877 0.7188360188009991 2.835454304462923  1.248216953204321 0.6545216768953053 2.854391460822874  0.9319877963211072 1.166655645639617 2.325366815369136  0.9345492173603493 1.159063437954047 2.450629280644265  0.9187329273393605 1.092714649844461 2.448381957107489  0.9164196537898632 1.100917849367932 2.316270587344619  0.9035167180092142 1.026156765319465 2.44514912811233  0.9014381073747401 1.035147778337327 2.306310605233546  0.8882478812956411 0.9594431450275269 2.441711000487712  0.8864022777187709 0.9693154745055392 2.296163217293159  0.8726562042825646 0.8925999455324223 2.438375197307434  0.8709991601175731 0.9034527516500865 2.28614419124424  0.8566477617847358 0.8256163190640765 2.435231753454828  0.8550782023200052 0.8376407993793424 2.276388212923047  0.8400360208998358 0.7585986930071867 2.432529009184066  0.83857064975422 0.7719364880564695 2.267010993250676  0.4146711187901624 1.260096045703877 2.724624104373178  0.4136338090158215 1.239530499924915 2.596060801950013  0.548942844589221 1.244761493340314 2.711438342737354  0.4113215113668712 1.165872475671769 2.602781330892186  0.4107576932703415 1.188257178826782 2.743160996449883  0.5425549433298897 1.174232903853278 2.725296047309754  0.4096017546185031 1.09149742089185 2.609857483942255  0.4074848616626112 1.115640474674251 2.762268668531518  0.5369542379088409 1.102824901884726 2.739029779056144  0.4078143590301613 1.016334964023782 2.617127087176712  0.4040234801647205 1.042189580361062 2.781673322241696  0.5313201437898907 1.030693286753529 2.753035586943176  0.4057793105691754 0.9402976140555345 2.624272414290866  0.4002908041725157 0.9677887469964606 2.801059598269154  0.5254204680819219 0.9577598800437219 2.767201092782225  0.4032745767389654 0.8632716940071976 2.631190737723074  0.3962844099324109 0.8922861105764146 2.820299171219635  0.519007565998501 0.8839345651877524 2.781507503930507  0.40024439679055 0.7850356693693153 2.637837671790094  0.3918260230488489 0.8153171290966758 2.839507454426809  0.5119450526453261 0.809026124989115 2.795994654740556  1.048841905823493 1.142068261291389 2.680208133175361  1.031443669486462 1.076565703513615 2.68942849083161  1.014523617379341 1.010487587304569 2.697885981452619  0.997610956603599 0.9440605361155103 2.706204384728396  0.9805107892176759 0.8773648760006674 2.71462399760369  0.9630613040387868 0.8104819740431968 2.723307554346418  0.9450898664651486 0.7434881981906627 2.732460171778891  0.9255392316917839 1.203613653304899 2.81815247660927  0.9121113658968515 1.13874780567757 2.836056064502928  0.8994634966288378 1.07289736756298 2.853436429423991  0.8868962538871565 1.006474319975909 2.870890388454134  0.8740624215975302 0.9396164813313637 2.888636573982531  0.8607208328722196 0.8724005253262145 2.906783336429479  0.8465257438735618 0.8048204948203765 2.925449493639356  0.5487025067604029 1.223214580540095 2.486996401543993  0.5397483899519973 1.229792791741336 2.598713415724888  0.5338711909249274 1.158078316997445 2.603974633140995  0.5435214958146304 1.151467624865489 2.487373911769825  0.5286671849391346 1.085739056286762 2.6088420024646  0.5390653999438809 1.07929093874584 2.48730954721238  0.5233721981311437 1.012796509118308 2.61397604047146  0.5344659653907523 1.006642834140055 2.48748777786888  0.5178217318492008 0.9391306045725343 2.619204778114301  0.5294851626231156 0.9333825594067398 2.487824336324069  0.5117590895179643 0.8646700471266877 2.624438188607587  0.5239397680806666 0.8593994980075146 2.488155704585649  0.5049711959363874 0.7893080962774519 2.62971290050671  0.5174956513544962 0.7845108289651135 2.48851106603459  1.293995581268036 1.211816672067509
[...]
<PointData  Vectors="f_24"> 
<DataArray  type="Float64"  Name="f_24"  NumberOfComponents="3" format="ascii">3.6924247405575747e-02 6.7155255745307248e-04 -4.5082547524149891e-02  3.5512571931050139e-02 9.8377275193936315e-04 -3.9976555535405245e-02  3.6674923508662201e-02 4.8285986881073826e-03 -3.9861602169014521e-02  3.5124826053603141e-02 7.0590511536071038e-03 -4.0662517552983959e-02  3.4068527338558141e-02 3.4090027385032359e-03 -4.0544533395428024e-02  3.5701703422555700e-02 3.3417559496984337e-03 -4.5063023279284582e-02  3.3481629031677750e-02 8.8948764152672159e-03 -4.1101407257702650e-02  3.2505546157685833e-02 5.4462224052819344e-03 -4.0771032590200075e-02  3.4328458429931721e-02 5.5543955809290021e-03 -4.4745315272385337e-02  3.1738246086991731e-02 1.0421761287269930e-02 -4.1287826687229169e-02  3.0828534682008975e-02 7.1434926222279128e-03 -4.0748740701681080e-02  3.2815008321363866e-02 7.3781537018870712e-03 -4.4232448896547358e-02  2.9886634167454327e-02 1.1667425235424302e-02 -4.1313992700670245e-02  2.9028165840547987e-02 8.5327052766630170e-03 -4.0560443487738893e-02  3.1170576476407110e-02 8.8627715878508966e-03 -4.3574326353053257e-02  2.7915585235084198e-02 1.2631809495384930e-02 -4.1252302831388976e-02  2.7092307667228560e-02 9.6286826058905334e-03 -4.0271132958729805e-02  2.9396126412790515e-02 1.0032008021553462e-02 -4.2813254031805137e-02  2.5803612127593026e-02 1.3295157059378669e-02 -4.1145972396751079e-02  2.4998925626704357e-02 1.0441090875224561e-02 -3.9935739529660730e-02  2.7485921697216757e-02 1.0887333387297362e-02 -4.1980285845783095e-02  3.5568974324973641e-02 -6.7960941231562620e-03 -4.7575807542954242e-02  3.3895193464672034e-02 -4.7899547776895646e-03 -4.0443438888211919e-02  3.5243030428712588e-02 -2.2949258873033620e-03 -4.3034402813250272e-02  3.4040397808656489e-02 4.5047010013546965e-04 -4.2960055499425658e-02  3.2611938184278245e-02 -2.0742229849210576e-03 -4.0537004556729608e-02  3.4744420663315526e-02 -3.9631660206462986e-03 -4.6636385636855626e-02  3.3699519543695586e-02 -1.6364417982989361e-03 -4.5568604518479522e-02  3.1136384548838464e-02 1.5808581576805654e-04 -4.0271988511707012e-02  3.2646859092519041e-02 2.6451796819376970e-03 -4.2617233113357772e-02  3.2465340305927598e-02 2.6555064220864930e-04 -4.4343316530403465e-02  2.9503957104085342e-02 1.9985519300616955e-03 -3.9777792492871847e-02  3.1106103347277331e-02 4.4633639693810057e-03 -4.2071706705366287e-02  3.1068341938001329e-02 1.7992605271408820e-03 -4.2986706796391050e-02  2.7723170487261074e-02 3.4957649421027306e-03 -3.9139446493057527e-02  2.9418253886898775e-02 5.9451860190099862e-03 -4.1381757140030916e-02  2.9512981143915169e-02 3.0061546769246266e-03 -4.1529541109943030e-02  2.5786642855170565e-02 4.6844361709530366e-03 -3.8421910256256749e-02  2.7576713455463482e-02 7.1146885365887527e-03 -4.0597711098884708e-02  2.7775496498923635e-02 3.8968882073046052e-03 -3.9998998004016836e-02  2.3673385368652222e-02 5.5808850925445465e-03 -3.7674943461688114e-02  2.5570460072374859e-02 7.9958293406291372e-03 -3.9759633391298899e-02  3.7093073295626458e-02 -3.9945448029406220e-03 -4.9846080143160346e-02  3.6204194701359452e-02 -1.2143361224394333e-03 -4.8873111926649872e-02  3.5122247806287608e-02 1.0564937057672618e-03 -4.7740774945449885e-02  3.3875125746418079e-02 2.9154086471305032e-03 -4.6462240836501967e-02  3.2481170778944732e-02 4.4166242784138554e-03 -4.5054158747110655e-02  3.0955765664963331e-02 5.5861117084598606e-03 -4.3535858311414703e-02  2.9311032923402296e-02 6.4288751431235275e-03 -4.1924057246447655e-02  3.8785215053871044e-02 4.4614925316749784e-03 -4.6946274172951642e-02  3.7493520510012514e-02 7.0509481733026114e-03 -4.6979332248114396e-02  3.6057018997114963e-02 9.1496555407151996e-03 -4.6750913076035419e-02  3.4480080478076575e-02 1.0871322955128424e-02 -4.6302750619314804e-02  3.2787519909035466e-02 1.2265847550217273e-02 -4.5692159323535660e-02  3.1000567480654696e-02 1.3348757432802524e-02 -4.4965918597665425e-02  2.9146551900093017e-02 1.4110566398792676e-02 -4.4151213551664487e-02  3.8830525447368570e-02 -1.0414332250048446e-03 -5.1911794897851887e-02  3.7826299049749330e-02 1.7617771204203653e-03 -5.0952910520855911e-02  3.6656663324657772e-02 4.0363161285131531e-03 -4.9798920487154910e-02  3.5338002367021677e-02 5.8944844161748578e-03 -4.8501694249671753e-02  3.3894471558574356e-02 7.3962882233601533e-03 -4.7075587576500467e-02  3.2349052962421396e-02 8.5694124923958795e-03 -4.5533079094214439e-02  3.0725241441301735e-02 9.4146459953159626e-03 -4.3884343326377945e-02  3.2500928686725571e-02 -7.5355612608243487e-03 -3.7357423574679534e-02  3.2504789920096082e-02 -3.9764806791494755e-03 -3.2761153716746184e-02  3.0979251293225353e-02 -4.8390170281885176e-03 -3.7634587330508555e-02  3.0559156786411554e-02 -1.8084489759300965e-03 -3.3646305953633153e-02  2.9295112575527676e-02 -2.6051843917841745e-03 -3.7405796449839247e-02  2.8589788083499400e-02 4.5645853797377485e-05 -3.4105414189358710e-02  2.7474370557080956e-02 -7.8104369809798950e-04 -3.6923557435053024e-02  2.6542063961214571e-02 1.6104804104188856e-03 -3.4281394996803327e-02  2.5519026159263308e-02 6.9239597571063615e-04 -3.6315205821681976e-02  2.4390790656797286e-02 2.8911410043563597e-03 -3.4300386341713361e-02  2.3418667912124977e-02 1.8561900584281163e-03 -3.5656828396739337e-02  2.2108116360180806e-02 3.8948467148622766e-03 -3.4256189881805704e-02  2.1156055245373808e-02 2.7445618544178294e-03 -3.5000472227273365e-02  1.9665591166413161e-02 4.6383276033732535e-03 -3.4212664448661369e-02  3.9561948425406487e-02 -1.3306839409810055e-02 -6.2383275577216950e-02  3.9914838485134156e-02 -2.0860406372880121e-02 -6.7932241319585987e-02  3.8088053273767387e-02 -1.5953453100308067e-02 -6.0648258201855113e-02  3.7815502791146864e-02 -1.3521771637676969e-02 -5.7705073488775890e-02  3.9680725555982330e-02 -1.8871742464313702e-02 -6.4138784486788614e-02  3.9130481269549114e-02 -1.0904148369203023e-02 -5.9426062274118931e-02  3.7289729816354054e-02 -1.1591045356123172e-02 -5.4830877421746534e-02  3.9220896101548809e-02 -1.7319759264604898e-02 -6.0449465484700635e-02  3.8470829334464642e-02 -8.9779898315638842e-03 -5.6548941994938748e-02  3.6568668772318742e-02 -1.0065051598549741e-02 -5.1941492281256746e-02  3.8592226768020710e-02 -1.6131510471050072e-02 -5.6805036427628484e-02  3.7651225215064255e-02 -7.4471440562744106e-03 -5.3656077443756424e-02  3.5702327243090026e-02 -8.8938497366613228e-03 -4.8999737819717178e-02  3.7851750399512260e-02 -1.5259404489507234e-02 -5.3141876233140928e-02  3.6711039218011846e-02 -6.2640781902686933e-03 -5.0692944250245765e-02  3.4724018088861060e-02 -8.0459344196725791e-03 -4.5975748635709510e-02  3.7048607577790584e-02 -1.4686519812584318e-02 -4.9404172272872464e-02  3.5689581458534472e-02 -5.4029238745767162e-03 -4.7619929442269102e-02  3.3645545982844444e-02 -7.5114614852792028e-03 -4.2850418047059559e-02  3.6240090663438584e-02 -1.4408897198414641e-02 -4.5549205383880499e-02  3.4626424278953974e-02 -4.8532614208088801e-03 -4.4402024949313015e-02  3.7560719238749374e-02 -9.6895147706090746e-03 -5.5213407945948423e-02  3.6995648198547705e-02 -6.9750970757431179e-03 -5.3195662319745061e-02  3.6208090549457228e-02 -4.7810788577499997e-03 -5.1137526446133258e-02  3.5234679605479352e-02 -3.0095673990755416e-03 -4.9009488752378455e-02  3.4107841540219105e-02 -1.6042635069650662e-03 -4.6793209756666961e-02  3.2853390866818266e-02 -5.3420976905092310e-04 -4.4480648444714638e-02  3.1494006587213512e-02 2.0976978274012939e-04 -4.2065063712617812e-02  3.4059388857160894e-02 -8.8696758318093753e-03 -4.4560442164039732e-02  3.3209582086294022e-02 -5.9378458802497643e-03 -4.3880793567030632e-02  3.2068125510300839e-02 -3.5572099684810666e-03 -4.2920839550673315e-02  3.0737728538875582e-02 -1.6190367629613093e-03 -4.1781762475539004e-02  2.9246675217041759e-02 -5.3285250293426443e-05 -4.0524693543100725e-02  2.7587045664585037e-02 1.1942076961376775e-03 -3.9192516020577918e-02  2.5712094640000252e-02 2.1675713431717238e-03 -3.7828286574743998e-02  4.2170953679461359e-02 -2.6762118987594993e-02 -7.5903325016031045e-02  4.1659856838050513e-02 -1.8612896812292501e-02 -6.9975138293946096e-02  4.1225073940804199e-02 -1.6615497593545098e-02 -6.6111874044834359e-02  4.1864291814687926e-02 -2.5398404881728391e-02 -7.1298107915403905e-02  4.0600102675867333e-02 -1.5045991189682481e-02 -6.2367351667478657e-02  4.1359445702432829e-02 -2.4431758996911340e-02 -6.6915238583692457e-02  3.9840652108640885e-02 -1.3824058651298467e-02 -5.8659326001158800e-02  4.0741132207008542e-02 -2.3749745156716958e-02 -6.2621890853055695e-02  3.8997699537327998e-02 -1.2906297824887518e-02 -5.4914627451713126e-02  4.0064041615309597e-02 -2.3312132477152213e-02 -5.8312148360221645e-02  3.8124075662247923e-02 -1.2276689975316732e-02 -5.1066235028822377e-02  3.9381976725367210e-02 -2.3113730985908628e-02 -5.3899701408795686e-02  3.7280645628245478e-02 -1.1921460915707394e-02 -4.7055634637139139e-02  3.8751397683020043e-02 -2.3173923594734292e-02 -4.9311327269419676e-02  5.0328653596800964e-02 6.7715433177594382e-03 -6.7305364420744196e-02  5.0357784217571457e-02 -1.2178185038735326e-03 -7.2825731791599249e-02  4.7604622075750176e-02 2.7985521583242640e-03 -6.5769146013864896e-02  4.8421747698738381e-02 1.1765696946764686e-03 -6.9103844257821165e-02  4.8133492729730484e-02 9.6788270182940356e-03 -6.4914074493752166e-02  4.5943119922566202e-02 5.5899750006498184e-03 -6.3405444374581718e-02  4.6411854137096357e-02 3.1231787616563369e-03 -6.5473905597642879e-02  4.5849113313407817e-02 1.2051315595263354e-02 -6.2393300408635208e-02  4.4142546955417035e-02 7.8198467244725428e-03 -6.0930449757695737e-02  4.4372027134144322e-02 4.7040232325333562e-03 -6.1815389595829419e-02  4.3504777895363000e-02 1.4031338986189657e-02 -5.9782156550604197e-02  4.2250974155367223e-02 9.6607595989234487e-03 -5.8341521450986235e-02  4.2333890849266177e-02 5.9735430641667704e-03 -5.8036220889475687e-02  4.1138160145052650e-02 1.5679810020751229e-02 -5.7057189682465648e-02  4.0315814155796617e-02 1.1175805112180652e-02 -5.5614420242074997e-02  4.0333226875563691e-02 6.9796817495376357e-03 -5.4043783097755753e-02  3.8791348738598234e-02 1.7036480664302658e-02 -5.4173529149530796e-02  3.8388806984469538e-02 1.2405829366436144e-02 -5.2713646182112023e-02  3.8405747868543033e-02 7.7620927708322209e-03 -4.9736640880371476e-02  3.6504458548112115e-02 1.8139092697250191e-02 -5.1078007890319597e-02  3.6537058585629084e-02 1.3376233708747388e-02 -4.9599799494643756e-02  3.9161637702906586e-02 -6.8782221375126816e-03 -5.7180675756955082e-02  3.8467872227723451e-02 -4.1866736401078635e-03 -5.5139006151806856e-02  3.7582354552556409e-02 -2.0263400527246135e-03 -5.3088097229106200e-02  3.6532792527309316e-02 -2.8621926504362604e-04 -5.0957382406296194e-02  3.5357941529692523e-02 1.0948473915239059e-03 -4.8719579780059377e-02  3.4091905502250643e-02 2.1453867745892864e-03 -4.6359367862503283e-02  3.2768712737365722e-02 2.8694792062650435e-03 -4.3860546195037861e-02  4.0730180075050172e-02 1.3735930671316056e-03 -5.4399321272101210e-02  3.9627063462765004e-02 4.1792873679593933e-03 -5.3312655887025433e-02  3.8356013299891321e-02 6.4381637412579207e-03 -5.2080154861945845e-02  3.6943706607425859e-02 8.2738490708010714e-03 -5.0693843991221753e-02  3.5425829615338793e-02 9.7566827905397422e-03 -4.9167152646476281e-02  3.3836175566723838e-02 1.0918368341207046e-02 -4.7509502432535794e-02  3.2213709963656065e-02 1.1771024922438578e-02 -4.5720572222808363e-02  4.7903855148355608e-02 -1.1408736084907570e-02 -7.5568717058101559e-02  4.7945301445959605e-02 -3.8552512158874859e-03 -7.0869447776244640e-02  4.6445858040547579e-02 -1.4194393378722621e-03 -6.7386415211666106e-02  4.6600397571530131e-02 -9.3410532615578485e-03 -7.1189712629813814e-02  4.4835350940738816e-02 4.9843081676116869e-04 -6.3995741376292339e-02  4.5203911426863051e-02 -7.7048601225032688e-03 -6.6999551703510088e-02  4.3160868124880340e-02 2.0523529190199616e-03 -6.0556619681820925e-02  4.3757774762449804e-02 -6.3825943342442834e-03 -6.2841499021461106e-02  4.1460837196550041e-02 3.2988719651946205e-03 -5.6990639973108201e-02  4.2295784391986044e-02 -5.3301371699549151e-03 -5.8604182372963234e-02  3.9781182106420572e-02 4.2790794769050977e-03 -5.3225686138545676e-02  4.0859638414696142e-02 -4.5229183870406295e-03 -5.4187911848160158e-02  3.8174760402281516e-02 5.0302553626301707e-03 -4.9180519704667233e-02  3.9500827496547229e-02 -3.9233512844907481e-03 -4.9487961840700208e-02  3.5107013419261181e-02 3.0460006003018014e-03 -3.6323100090117071e-02  3.4226880588690174e-02 -1.0633393159205002e-03 -3.7360949107305239e-02  3.2588178370793155e-02 1.2569326085225215e-03 -3.7979405606372030e-02  3.3409297166403826e-02 5.1538903756609992e-03 -3.7316502349295767e-02  3.0891262577544123e-02 3.2521455276009331e-03 -3.8271674090029371e-02  3.1629135739205026e-02 6.9034713900234289e-03 -3.7885363596870621e-02  2.9087399062683917e-02 4.9130061986969904e-03 -3.8306593851384421e-02  2.9770475924748539e-02 8.3757908665255485e-03 -3.8204425377017383e-02  2.7159475443093578e-02 6.2709302159102229e-03 -3.8178156079845961e-02  2.7809025729766738e-02 9.5829458955219680e-03 -3.8380566022381109e-02  2.5088496131794587e-02 7.3413520324165796e-03 -3.7960294681007013e-02  2.5717940406249785e-02 1.0520572547931614e-02 -3.8492715614655171e-02  2.2851399296113673e-02 8.1396573110713438e-03 -3.7707515870600013e-02  2.3462698132462708e-02 1.1173911519505756e-02 -3.8596808161143574e-02  4.1031567919154924e-02 -4.4479869127153288e-03 -5.9552646396952909e-02  4.0173532765769231e-02 -1.7483062837096717e-03 -5.7397853058400977e-02  3.9138637517197331e-02 3.6962173319989510e-04 -5.5226356757040636e-02  3.7964796767806792e-02 2.0758218819681372e-03 -5.2975717862038488e-02  3.6692099650613409e-02 3.4341986457891490e-03 -5.0608422512434435e-02  3.5362631850916870e-02 4.4740577008910874e-03 -4.8098474498758682e-02  3.4022033468718522e-02 5.2031512803311399e-03 -4.5421788606483708e-02  3.5413561575470667e-02 -2.5900518557364804e-02 -5.9355286354098674e-02  3.5999491202712897e-02 -3.3343632362569688e-02 -6.5896501042761166e-02  3.4228056364616483e-02 -2.8521129808565384e-02 -5.6447146204771308e-02  3.6152949782808030e-02 -3.2329880538657103e-02 -6.1241771755506137e-02  3.5339158643450698e-02 -2.4120697428554251e-02 -5.5484728902453505e-02  3.4070536988021552e-02 -2.6714200304422283e-02 -5.2592992542725467e-02  3.6057035028692140e-02 -3.1742302130712163e-02 -5.6904765353140270e-02  3.5017410764333290e-02 -2.2914864255956898e-02 -5.1865912168935352e-02  3.3679964183438271e-02 -2.5518435468512686e-02 -4.8895275487846113e-02  3.5776953547919856e-02 -3.1535456495834564e-02 -5.2726106330916525e-02  3.4507070807541805e-02 -2.2162098069904910e-02 -4.8328637307953566e-02  3.3120493509226807e-02 -2.4795641968665655e-02 -4.5278734497270712e-02  3.5369687834095796e-02 -3.1659704925754879e-02 -4.8597271361076111e-02  3.3853571719692582e-02 -2.1779350803076636e-02 -4.4792688709377672e-02  3.2428256899020950e-02 -2.4461486483904612e-02 -4.1686780021350053e-02  3.4870592286536016e-02 -3.2085585925622981e-02 -4.4444007991417234e-02  3.3082329175269841e-02 -2.1713518987875879e-02 -4.1211317359523644e-02  3.1628684307090031e-02 -2.4455602565194801e-02 -3.8082219532781784e-02  3.4295427643275957e-02 -3.2795508110857005e-02 -4.0216776095314467e-02  3.2199244749894523e-02 -2.1918520215340076e-02 -3.7552006590466716e-02  3.0740670356884943e-02 -2.4722697433136116e-02 -3.4440011443477615e-02  4.4154809262767103e-02 -2.4568561099849912e-02 -7.8053021884824533e-02  4.3592171241483478e-02 -2.3169453435334615e-02 -7.3302830624456985e-02  4.2884833016500458e-02 -2.2128848204256431e-02 -6.8799866353089809e-02  4.2090017034552771e-02 -2.1358776956452951e-02 -6.4380703771287684e-02  4.1257012687220762e-02 -2.0816462708722699e-02 -5.9934963868844685e-02  4.0435364360268344e-02 -2.0496959190256174e-02 -5.5366445990694908e-02  3.9687358652606600e-02 -2.0401668309854428e-02 -5.0575639755062234e-02  4.3612690737694575e-02 -1.6847593896517681e-02 -7.2410162304000242e-02  4.2957806280592196e-02 -1.4868443206697501e-02 -6.8322510912576295e-02  4.2137918729497285e-02 -1.3330566019339400e-02 -6.4413604411170694e-02  4.1213107392361559e-02 -1.2124331645516830e-02 -6.0548231741575878e-02  4.0231332814183916e-02 -1.1204142528186441e-02 -5.6630731670235746e-02  3.9245321992525270e-02 -1.0549622162439914e-02 -5.2579127579084811e-02  3.8317884818232797e-02 -1.0142262666470746e-02 -4.8314966752435719e-02  5.0177714464743693e-02 -9.7639156247407294e-03 -7.7806350514763631e-02  4.8051644042990171e-02 -2.0396754124093346e-02 -8.1205985491993760e-02  4.6926777522932180e-02 -1.9013721998410133e-02 -7.6074845720766560e-02  4.8477709355029618e-02 -7.8241571912466348e-03 -7.3094764509855650e-02  4.5737121614684594e-02 -1.7952471411062688e-02 -7.1183484383194995e-02  4.6742968568427891e-02 -6.2734759708791736e-03 -6.8537700221909567e-02  4.4521945830807264e-02 -1.7120484448383589e-02 -6.6366181347874337e-02  4.4995615619680351e-02 -5.0243338024212776e-03 -6.4028745476325408e-02  4.3310510107849198e-02 -1.6486053978916001e-02 -6.1497940470921927e-02  4.3259767444759151e-02 -4.0406484302072023e-03 -5.9437075075205903e-02  4.2134285085665378e-02 -1.6051162348972171e-02 -5.6460316863478528e-02  4.1566554201786940e-02 -3.2988182883394736e-03 -5.4637676913679517e-02  4.1031237878867644e-02 -1.5801999323358667e-02 -5.1129652669551114e-02  3.9949239220541242e-02 -2.7738908728003435e-03 -4.9516926229825918e-02  5.2816033662610250e-02 2.6325047209413066e-03 -7.4275922986288115e-02  5.2466151275798560e-02 -6.4848084971075078e-03 -7.9328698991921659e-02  5.0357279187964343e-02 -4.2872738754118431e-03 -7.4176422360259661e-02  5.0345793462024974e-02 5.3075388576596504e-03 -7.0250386485258706e-02  4.8227256880148166e-02 -2.4336486035387702e-03 -6.9346523208935570e-02  4.7845262989578877e-02 7.4787217678345197e-03 -6.6441633273474798e-02  4.6084758384129502e-02 -9.2089519096724356e-04 -6.4666920693233668e-02  4.5335198958048911e-02 9.2391803110288082e-03 -6.2688914538477289e-02  4.3957116768932547e-02 2.7634175706782584e-04 -5.9941209466296538e-02  4.2845286840610071e-02 1.0651002671852858e-02 -5.8847683929530277e-02  4.1867755847434907e-02 1.2033518938662183e-03 -5.4980705854260986e-02  4.0400583867244023e-02 1.1782701743508674e-02 -5.4781001966109487e-02  3.9833402652262116e-02 1.8487670589372308e-03 -4.9620288096687976e-02  3.8016921853398854e-02 1.2676594064084777e-02 -5.0360563254933190e-02  4.5650591102357661e-02 -1.4786888559033448e-02 -7.4296252407396721e-02  4.4705991858637134e-02 -1.2864340671588089e-02 -7.0067731388910579e-02  4.3641063783612120e-02 -1.1380605114546674e-02 -6.6006866447736179e-02  4.2503461383745819e-02 -1.0214052365537787e-02 -6.1972880524015769e-02  4.1335102953151327e-02 -9.3173269487294066e-03 -5.7866246540033028e-02  4.0183157722282446e-02 -8.6704373175796566e-03 -5.3597080706168282e-02  3.9112863340372367e-02 -8.2442238305744323e-03 -4.9086989038279231e-02  3.8225330867175958e-02 -2.2731616267662805e-02 -6.5373693572458827e-02  3.6666965087325844e-02 -2.4095491920470245e-02 -6.2303431817827049e-02  3.6435992747666492e-02 -1.7290831254506915e-02 -5.7326908117254279e-02  3.6299847061536571e-02 -1.4791991632516198e-02 -5.4583648411347059e-02  3.6702505243569022e-02 -2.2202151812435664e-02 -5.8567427742225099e-02  3.8173995033121653e-02 -2.0747124233052187e-02 -6.1663083349735144e-02  3.5807689021024602e-02 -1.2870690911221758e-02 -5.1845491825120008e-02  3.6431212171201315e-02 -2.0830535266085751e-02 -5.5021734918041416e-02  3.7850073271485610e-02 -1.9224482402226416e-02 -5.8061206115178454e-02  3.5100421168666962e-02 -1.1374017294228567e-02 -4.9087560801306121e-02  3.5951030268650784e-02 -1.9879175330359461e-02 -5.1541961751948598e-02  3.7328507396159741e-02 -1.8091394391852492e-02 -5.4508969702090210e-02  3.42