<?xml version="1.0"?>
<VTKFile type="UnstructuredGrid"  version="0.1"  >
<UnstructuredGrid>
<Piece  NumberOfPoints="111" NumberOfCells="303">
<Points>
<DataArray  type="Float64"  NumberOfComponents="3"  format="ascii">-1.126481124092755 -0.9473283376278889 2.074233125962432  -1.664006297246322 -1.10914411354164 1.875888952633512  -1.294582432735519 -0.820629184485212 1.551364336100787  -1.312762776967178 -1.497472070268641 1.943469646961802  -0.7740713825566979 -0.6255101783274258 3  -0.9807852804032304 -0.1950903220161286 3  -0.8836349378529437 -0.457975773256652 2.310914062613334  -1.344567555190213 -0.6983284766763056 2.512258555473228  -1.988366544844581 0.1181164523892848 1.985795232067481  -1.43886208970591 0.5149695080182193 1.569797912004486  -1.36936675165574 0.5445791180649255 2.094601113017113  -1.441353532002964 -0.002342185071706054 1.686018115577875  -1.973204015961851 0.2720641916429689 1.04935599125763  -1.973811255843297 0.2658987816605045 1.52516799132508  -1.873357740944297 0.6809793394824694 1.315280730417338  -1.188860511984403 1.060117160508811 2.563049150981436  -0.6181448518038473 1.361670697378814 2.257069987665449  -0.5260672980891882 0.8472392595660831 2.417582874741109  -1.033679646116655 1.024275855209801 2.145813876738128  -1.514674703827641 0.3918295191835702 2.521219115594658  -1.9147265257177 0.5446047324439067 2.31369071979841  -1.987182279842392 0.1301404967408785 2.419469863729676  -1.961570560806461 0.3901806440322567 3  -1.423509350166563 1.402886612173637 2.399036955962143  -1.245839619965377 1.552394485835316 3  -1.059542960476273 1.69051866591576 2.444231285366565  -1.704258405401222 1.033837715886708 2.209211779154401  -1.813533168648966 0.8293990131207396 3  -1.57081860896361 1.223389760977683 3  -1.438480770485098 -0.07050119218872986 2.438185635059182  -1.513914009740071 -0.2001832623755173 3  -1.479465319414609 0.08365730523362372 3  -1.973204015961851 0.2720641916429692 0.585554881990308  -1.981971206824973 -0.1830494089890101 0.817455436623969  -1.442538962714197 0.1702583109259658 0.9778387525341716  -1.851925440117959 0.7516321667079673 1.81593851648282  -1.493079834035256 -0.02565043060049582 0.4708275303802578  -1.940494357883519 -0.4596595737911316 0  -1.873203290925756 -0.6814884929589626 0.7907882208455987  -0.9408192553364747 -0.3268406500285767 1.845715925535895  -1.441806623388049 -0.4387237814713535 2.034006661436112  -1.429512709177072 -0.3562124671024821 1.118349919785871  -0.7378844931157909 0.6696040306912336 1.328661823726752  -0.9726455044974873 1.137273922375865 1.073924182966422  -0.4172064841849356 0.905426576866573 1.472187054373984  -0.5041753880756408 0.8589407292555569 0.7961323206085094  -0.8598386698837637 0.5024954593186663 2.384476326122496  -1.415649600564344 1.412463744774179 1.124111047366489  -1.669846618080803 1.098217641777694 1.495259244783022  -1.669846618080803 1.098217641777694 0.7844479410434644  -1.302506330247836 0.7314384720123622 1.10539181245277  -0.8836349378529436 -0.457975773256652 0.6404787520590902  -0.9967945349396865 0.03254563292889093 0.6355050416165856  -0.9916319741441293 0.08496199232257164 1.271933936467721  -1.98098155916357 -0.1930974703189275 1.399842543598607  -0.8598386698837638 0.5024954593186663 0.7531117329128125  -1.174791349590177 -0.9094291444928995 0.8802318284181406  -0.8667404926794215 -0.4895830570665023 1.393053778537582  -1.392669400495818 0.5227178203765839 0.5650798974098937  -1.524758301142871 1.279514408446921 0  -1.779307272275358 0.8934311615112988 0  -1.875730638840034 0.6731569434453054 0.8174554366239695  -1.243735389814646 0.8172777781496896 0  -0.9545210890684874 0.2816717575618023 3  -1.111645100464135 1.018766509541888 1.580900689761718  -1.409798914277625 -0.6679439708724926 0.4913454550270371  -1.499159133557997 -0.26036097865709 0  -0.9916319741441293 0.08496199232257141 2.100102294688029  -1.434732313424208 -0.4628894804516224 3  -1.970162024484521 -0.3029500494299536 2.400428960428948  -1.992883437186382 -0.07225567482078839 3  -0.7166731528108555 0.6954501236352435 3  -1.265003737098992 0.7632387132791041 3  -1.104015886163718 1.02369849247725 3  -0.7796355259073547 1.24842396803037 3  -1.437186197165314 0.3522306454019957 3  -0.7166731528108555 0.6954501236352435 0  -0.9977775476289963 1.021262425809429 0.5636198601213275  -1.403479473420796 0.5382534053513881 0  -1.94049435788352 0.4596595737911281 0  -0.602090661247396 -0.793291283515728 2.439227975407248  -0.8745423771869449 0.4749867577889477 1.785209320231045  -0.5290376234122415 0.8456515876035146 1.875878641463117  -1.962326862664805 -0.3825017824000226 1.876344533459156  -1.85201261692297 -0.751344783295784 1.504740755216978  -1.852012616922969 -0.751344783295784 2.215552058956535  -1.46329451150738 -1.354408252813766 1.485647995083955  -1.699069305881103 -1.043545838264532 1.110902756623406  -2 -2.449293598294706e-16 0  -0.9375070007058002 -1.21441520490972 1.304121182405259  -1.669846618080803 -1.098217641777695 0.6009630440378566  -1.265262896562099 -0.8023424832773869 0  -1.779307272275357 -0.8934311615113006 0  -1.428608400118959 -0.5162795287156496 0  -1.745081375901749 -0.9574633099018606 3  -1.201608529887587 -0.9059336294454787 3  -0.9545210890684874 0.2816717575618023 0  -1.476768933596948 0.2085715875331664 0  -1.30970718391028 -1.49997973068384 2.410467318031572  -1.62582354055034 -1.156366057914528 2.400340978867071  -0.6020906612473962 -0.7932912835157279 1.83812870703057  -0.9807852804032304 -0.1950903220161286 0  -0.980070800056786 -1.125754826208231 3  -1.059542960476273 1.69051866591576 1.998542381954114  -1.462836471967497 1.354966375607965 1.889097243376593  -1.064364284067658 1.06544759500601 0  -1.47869799332213 -1.335639055916161 3  -0.3105322360770285 0.9457663586235725 3  -1.52475830114287 -1.279514408446922 0  -1.170945775598536 1.613858275470806 1.514352004916045  -1.919418154960577 -0.5291385035500061 3  </DataArray>
</Points>
<Cells>
<DataArray  type="UInt32"  Name="connectivity"  format="ascii">0 1 2 3  4 5 6 7  8 9 10 11  9 12 13 14  15 16 17 18  19 20 21 22  15 23 24 25  15 26 27 28  5 29 30 31  12 32 33 34  8 10 20 35  33 36 37 38  2 11 39 40  10 19 20 26  33 36 38 41  42 43 44 45  8 9 10 35  10 15 19 46  47 48 49 50  51 41 52 53  12 13 34 54  42 50 53 55  51 41 56 57  15 19 26 27  34 41 52 53  49 58 59 60  49 58 60 61  58 59 60 62  5 29 31 63  64 43 47 50  36 37 65 66  15 17 18 46  32 34 58 61  2 11 39 57  10 15 18 46  10 19 46 67  10 19 29 67  4 5 7 68  7 29 40 69  21 22 29 70  22 29 31 70  15 71 72 73  15 17 74 71  19 31 63 75  58 76 62 77  14 49 50 61  10 15 19 26  15 18 23 26  8 9 11 13  58 60 78 79  0 6 7 80  11 53 67 81  16 17 18 82  40 83 84 85  2 86 84 87  55 58 76 77  0 2 39 40  33 36 37 88  15 17 46 71  2 11 40 84  8 11 29 40  11 29 40 67  2 3 89 86  19 22 29 31  38 41 84 87  38 56 90 87  49 50 58 61  15 46 63 71  65 91 92 93  1 40 84 85  7 68 94 95  36 52 58 96  34 50 53 55  34 36 52 58  2 56 89 87  34 52 55 58  15 16 18 25  8 11 54 83  9 13 14 35  14 48 49 50  38 41 54 84  6 29 40 67  15 19 27 72  36 58 96 97  19 20 26 27  0 3 98 99  9 14 34 50  0 2 39 100  12 32 34 61  12 14 34 61  65 91 101 93  64 9 48 50  19 29 46 67  0 2 3 89  32 36 58 79  14 34 50 61  8 19 20 21  0 7 85 99  0 7 102 80  103 18 23 104  0 2 100 89  0 7 102 98  64 18 82 81  59 62 77 105  15 18 23 25  34 52 53 55  15 24 25 74  38 41 56 65  58 62 78 96  9 14 35 48  8 10 19 20  5 29 63 67  7 102 95 106  7 98 99 106  64 9 10 81  36 101 96 97  36 52 101 96  58 60 62 78  32 33 34 36  51 36 65 101  10 18 46 81  15 16 17 74  17 74 71 107  19 29 46 63  10 18 26 104  65 91 108 92  33 38 41 54  10 15 18 26  36 37 66 88  36 66 101 97  32 36 79 88  16 17 74 107  18 23 26 104  11 34 41 54  36 38 41 65  38 41 56 87  15 23 26 28  1 2 3 86  49 58 59 77  29 30 31 70  19 46 63 72  19 21 22 29  64 103 18 104  64 109 48 104  19 22 31 75  8 11 13 54  11 40 83 84  5 6 29 67  37 65 92 93  65 90 108 92  7 29 68 110  5 7 29 68  0 1 40 85  2 41 56 57  58 59 62 77  19 63 72 75  26 35 48 104  37 65 66 93  65 66 101 93  51 41 56 65  11 39 53 67  52 55 58 96  55 58 76 96  58 76 62 96  0 6 100 80  58 78 96 97  10 26 35 104  36 66 88 97  32 33 36 88  51 36 52 101  76 62 77 105  37 38 65 92  0 6 7 40  1 2 40 84  6 7 29 40  15 24 28 73  49 50 58 77  9 11 13 34  9 12 14 34  50 55 58 77  64 9 10 35  9 12 13 34  19 22 27 75  9 42 53 81  11 34 41 53  34 36 41 52  32 34 36 58  15 28 72 73  15 23 24 28  15 74 71 73  15 24 74 73  15 27 28 72  7 85 94 99  7 85 94 110  15 63 71 72  15 46 63 72  0 7 98 99  15 19 46 72  2 41 84 87  64 103 109 104  0 1 2 40  0 6 39 40  64 10 18 81  19 20 22 27  0 1 85 99  51 41 53 57  0 1 3 99  8 19 21 29  7 94 95 106  7 94 99 106  18 46 82 81  4 7 102 95  7 102 98 106  19 27 72 75  19 29 31 63  33 34 41 54  7 69 85 110  12 33 34 54  4 6 7 80  5 6 7 29  7 29 69 110  4 7 102 80  7 68 94 110  8 10 19 29  8 21 29 69  21 29 69 70  29 69 70 110  29 30 70 110  29 30 68 110  5 29 30 68  29 46 63 67  11 39 40 67  103 16 18 25  36 79 88 97  51 36 41 52  4 7 68 95  38 56 65 90  36 37 38 65  38 65 90 92  11 13 34 54  11 54 83 84  11 41 54 84  11 39 53 57  11 41 53 57  2 11 41 84  8 40 69 83  40 69 83 85  8 11 40 83  8 29 40 69  7 40 69 85  0 7 40 85  1 2 86 84  33 34 36 41  103 18 23 25  17 18 46 82  34 50 58 61  64 109 47 48  58 78 79 97  58 60 61 79  0 6 39 100  9 11 34 53  64 47 48 50  64 42 82 81  51 36 41 65  36 65 66 101  45 55 76 77  36 58 79 97  64 10 18 104  10 11 67 81  10 11 29 67  8 10 11 29  10 20 26 35  10 46 67 81  8 9 13 35  9 10 11 81  2 57 100 89  43 49 50 77  42 43 45 55  43 45 55 77  2 39 57 100  34 50 55 58  64 42 44 82  64 35 48 104  64 10 35 104  32 58 61 79  6 39 40 67  2 11 41 57  2 41 56 87  2 56 57 89  2 89 86 87  43 47 49 50  64 9 42 50  64 9 42 81  15 16 25 74  9 14 48 50  9 42 50 53  64 9 35 48  9 11 53 81  9 34 50 53  64 42 43 44  64 42 43 50  42 43 50 55  43 50 55 77  </DataArray>
<DataArray  type="UInt32"  Name="offsets"  format="ascii">4 8 12 16 20 24 28 32 36 40 44 48 52 56 60 64 68 72 76 80 84 88 92 96 100 104 108 112 116 120 124 128 132 136 140 144 148 152 156 160 164 168 172 176 180 184 188 192 196 200 204 208 212 216 220 224 228 232 236 240 244 248 252 256 260 264 268 272 276 280 284 288 292 296 300 304 308 312 316 320 324 328 332 336 340 344 348 352 356 360 364 368 372 376 380 384 388 392 396 400 404 408 412 416 420 424 428 432 436 440 444 448 452 456 460 464 468 472 476 480 484 488 492 496 500 504 508 512 516 520 524 528 532 536 540 544 548 552 556 560 564 568 572 576 580 584 588 592 596 600 604 608 612 616 620 624 628 632 636 640 644 648 652 656 660 664 668 672 676 680 684 688 692 696 700 704 708 712 716 720 724 728 732 736 740 744 748 752 756 760 764 768 772 776 780 784 788 792 796 800 804 808 812 816 820 824 828 832 836 840 844 848 852 856 860 864 868 872 876 880 884 888 892 896 900 904 908 912 916 920 924 928 932 936 940 944 948 952 956 960 964 968 972 976 980 984 988 992 996 1000 1004 1008 1012 1016 1020 1024 1028 1032 1036 1040 1044 1048 1052 1056 1060 1064 1068 1072 1076 1080 1084 1088 1092 1096 1100 1104 1108 1112 1116 1120 1124 1128 1132 1136 1140 1144 1148 1152 1156 1160 1164 1168 1172 1176 1180 1184 1188 1192 1196 1200 1204 1208 1212 </DataArray>
<DataArray  type="UInt8"  Name="types"  format="ascii">10 10 10 10 10 10 10 10 10 10 10 10 10 10 10 10 10 10 10 10 10 10 10 10 10 10 10 10 10 10 10 10 10 10 10 10 10 10 10 10 10 10 10 10 10 10 10 10 10 10 10 10 10 10 10 10 10 10 10 10 10 10 10 10 10 10 10 10 10 10 10 10 10 10 10 10 10 10 10 10 10 10 10 10 10 10 10 10 10 10 10 10 10 10 10 10 10 10 10 10 10 10 10 10 10 10 10 10 10 10 10 10 10 10 10 10 10 10 10 10 10 10 10 10 10 10 10 10 10 10 10 10 10 10 10 10 10 10 10 10 10 10 10 10 10 10 10 10 10 10 10 10 10 10 10 10 10 10 10 10 10 10 10 10 10 10 10 10 10 10 10 10 10 10 10 10 10 10 10 10 10 10 10 10 10 10 10 10 10 10 10 10 10 10 10 10 10 10 10 10 10 10 10 10 10 10 10 10 10 10 10 10 10 10 10 10 10 10 10 10 10 10 10 10 10 10 10 10 10 10 10 10 10 10 10 10 10 10 10 10 10 10 10 10 10 10 10 10 10 10 10 10 10 10 10 10 10 10 10 10 10 10 10 10 10 10 10 10 10 10 10 10 10 10 10 10 10 10 10 10 10 10 10 10 10 10 10 10 10 10 10 10 10 10 10 10 10 10 10 10 10 10 10 </DataArray>
</Cells>
<PointData  Vectors="f_18"> 
<DataArray  type="Float64"  Name="f_18"  NumberOfComponents="3" format="ascii">-6.5775485786562248e-05 -5.5178889384067592e-05 -9.9409096381943598e-06  -6.0079605498240948e-05 -3.9272725043214885e-05 -7.1816725919846601e-06  -7.0282323697894880e-05 -4.3377264182892578e-05 -1.8177332655921822e-06  -4.7639065003035753e-05 -5.3484301445020921e-05 -8.2500868470013318e-06  -8.8756019348952564e-05 -6.9649748096924316e-05 -2.6386628474902069e-05  -1.1054878782300471e-04 -2.2261793595905885e-05 -2.5076648983877650e-05  -1.0189289701567380e-04 -5.2708970964332337e-05 -1.3610698055357440e-05  -7.4569970207150673e-05 -3.7622702069522567e-05 -1.7705551701155247e-05  -7.1281909106168367e-05 4.1496773694312768e-06 -7.5707678894558133e-06  -7.8479128198682605e-05 2.8784202806955685e-05 4.1815940504258549e-08  -7.8264234756459140e-05 3.2155017014700168e-05 -9.4534855671171464e-06  -8.7160128277208150e-05 3.2291727150843342e-07 -2.7800235785033005e-06  -7.1247002496682525e-05 1.1024237866746219e-05 8.6730715164991621e-06  -7.1566436968116177e-05 9.4649032475683636e-06 4.3415246854463150e-07  -6.7998990275878234e-05 2.4998850064653068e-05 4.5206137082750965e-06  -6.0606282462474040e-05 5.3406052006202381e-05 -1.7246225703461238e-05  -3.5337905186708314e-05 7.7118699883357272e-05 -1.2348958095561551e-05  -5.9106503708936865e-05 9.5497010867858978e-05 -1.5608178709575726e-05  -6.1506501019261035e-05 6.0758059234701871e-05 -1.0604265786013243e-05  -7.9108274396660005e-05 2.0583121677106639e-05 -1.6780444350718976e-05  -6.8529877715280062e-05 1.9946963439288796e-05 -1.3047191787224012e-05  -7.1105943147408660e-05 4.2816099347430584e-06 -1.5290600143436846e-05  -6.9350686123408650e-05 1.3249949063965620e-05 -2.4161233762681725e-05  -5.0728709975233050e-05 4.9717609182819449e-05 -1.4140656559830893e-05  -4.4732534198960083e-05 5.5224196085029228e-05 -2.4503947263971783e-05  -3.8498050621860270e-05 6.0558357919294224e-05 -1.5002905703178618e-05  -6.0794283251886763e-05 3.7270922432133905e-05 -1.0856492626564234e-05  -6.4330536205534186e-05 2.8823555687399166e-05 -2.3834627589095099e-05  -5.6101675963045863e-05 4.2993759955930257e-05 -2.4592040351000330e-05  -8.6477470430283574e-05 -4.8272010218999000e-06 -1.5748106984922558e-05  -8.1911280056558357e-05 -1.0955352990958979e-05 -2.5570207168509003e-05  -8.4589563114995374e-05 4.6335425734259957e-06 -2.4917254100235585e-05  -7.2073046121936415e-05 1.0916800562393582e-05 1.6882099728293510e-05  -7.2407419726767489e-05 -5.9193258552545204e-06 1.2092919534346599e-05  -8.6173599496433523e-05 1.0272174197278592e-05 9.9466574025129600e-06  -6.5964321705424975e-05 2.7500696145983826e-05 -4.0176873935233927e-06  -8.5095308585994429e-05 5.3159848890945033e-08 1.8725603962655520e-05  -7.0405653704035280e-05 -1.4721894715659125e-05 2.5791737735905467e-05  -6.8372140171794272e-05 -2.3669676380394615e-05 1.2277548745125617e-05  -1.0621970349036977e-04 -3.8654468973987058e-05 -4.3793966577774289e-06  -8.0211981270444059e-05 -2.5233315588223869e-05 -9.5252889467674487e-06  -8.3840460661956033e-05 -1.9721408221770345e-05 6.6577010254283950e-06  -8.5143356546456958e-05 7.5033077604447186e-05 4.0340597955467488e-06  -5.5003164637891057e-05 6.4469388620075338e-05 8.5175164557916000e-06  -4.6921802530393038e-05 1.0353860819202918e-04 1.1072107695825140e-06  -5.6842308262343097e-05 9.7282708242062282e-05 1.3670908490301298e-05  -9.8144613072104423e-05 5.7626403607722256e-05 -1.5956893473873982e-05  -5.1091308910623368e-05 5.0828960303347233e-05 7.8031352966219009e-06  -6.0377569888761671e-05 3.9248150230839251e-05 1.0142239739326845e-06  -6.0234402291959524e-05 4.0273908452699302e-05 1.3277554657910572e-05  -7.3833552857248096e-05 4.2032230015404571e-05 6.9175028976100281e-06  -1.0179414632320962e-04 -4.9371784122508357e-05 1.5993398676175109e-05  -1.1448364638915400e-04 3.9429332409695244e-06 1.5474865308186132e-05  -1.1285698202713485e-04 1.0965123958670223e-05 4.4379416929583173e-06  -7.2221097947329906e-05 -6.1343754947910275e-06 2.5487845375816653e-06  -9.7872746456551058e-05 5.6497934570061074e-05 1.3946456605253229e-05  -6.7972912801606198e-05 -5.0256990931016009e-05 1.0609402144581879e-05  -9.9975020377140680e-05 -5.5188823998414234e-05 1.6087316753505668e-06  -8.0052667381086089e-05 3.0790266052967690e-05 1.7251454482982208e-05  -5.5158693353390899e-05 4.7305034161356214e-05 2.6608323714715325e-05  -6.4851601223614750e-05 3.3449681504825051e-05 2.7204710560248196e-05  -6.8162128535091210e-05 2.5616529024658671e-05 1.2506968178176170e-05  -7.1269197280886354e-05 4.7558818832646328e-05 2.6440573133743780e-05  -1.0751798578509318e-04 3.0621171799931422e-05 -2.5714288188947049e-05  -6.2204332265221849e-05 5.6362733498701915e-05 -1.0183062614517506e-06  -7.4414939382501510e-05 -3.3369650885110443e-05 1.7930343544604896e-05  -8.2892029940730103e-05 -1.2953814126769427e-05 2.6429209449174978e-05  -1.1222035043424887e-04 9.7061004685732445e-06 -9.9722367430622188e-06  -7.9663422564144062e-05 -2.5813445499999313e-05 -2.5407238416693796e-05  -7.0541230651359558e-05 -1.0646225354717005e-05 -1.5016808153433850e-05  -7.1247314077017368e-05 -2.6252452757180585e-06 -2.5593072161443904e-05  -8.1420300676052012e-05 7.7295376947286452e-05 -2.6946279146781664e-05  -7.1412887336696836e-05 4.3210514932919527e-05 -2.5341719965765201e-05  -6.0518541138192503e-05 5.6203045842607187e-05 -2.5184164823304417e-05  -4.5335414296279492e-05 7.2143362527592287e-05 -2.5331804216014267e-05  -8.1384425992641192e-05 1.9866059530493981e-05 -2.5633473277998376e-05  -8.3272111499243688e-05 7.9202550348874564e-05 2.5521686099789814e-05  -6.1546802232416046e-05 6.2960084770909903e-05 1.6622183378047527e-05  -7.9403062861234269e-05 3.1187072552126441e-05 2.6631546917332192e-05  -7.0979582875221666e-05 1.7866357766981528e-05 2.6604489644239330e-05  -6.7593610777204666e-05 -8.9983956114346071e-05 -1.7029284258500672e-05  -1.0020770827996400e-04 5.5759740494039146e-05 -3.5126587387348497e-06  -5.9784251617019248e-05 9.6372274493418777e-05 -6.2487873065808390e-06  -7.0486162560410353e-05 -1.3362497410877861e-05 -5.7607657794605475e-06  -6.7442876905867915e-05 -2.6246475022552044e-05 -1.9066349978357718e-07  -6.6684844586446191e-05 -2.6850276721956034e-05 -1.1807089412588774e-05  -5.3246276313346855e-05 -4.8059093310164847e-05 -2.0911251494701006e-07  -6.1652453485249052e-05 -3.6611160339259548e-05 6.6342757222896725e-06  -7.2826845353457886e-05 1.3215942841993157e-06 2.7196708357545884e-05  -5.1186464603410107e-05 -6.5101425584277779e-05 2.9653315911122324e-06  -5.9708994707043877e-05 -3.8503942260459762e-05 1.5541222961608542e-05  -7.1283635823192628e-05 -4.3439696207379550e-05 2.5033040373561522e-05  -6.4825831785567334e-05 -3.0769573333620667e-05 2.5856927695836909e-05  -7.8663865250451747e-05 -2.6914755636231541e-05 2.6014784541279315e-05  -6.3127380575484220e-05 -3.4707208129550397e-05 -2.6361481589267634e-05  -6.6432357510053303e-05 -5.1012220212529336e-05 -2.6324163083512993e-05  -1.0934990335395514e-04 3.2921863114971258e-05 2.5942770879447383e-05  -8.4860037097675095e-05 1.3456356397404059e-05 2.5687122903483462e-05  -4.7507565677549566e-05 -5.3813665163955865e-05 -1.6395778711964883e-05  -5.8547466517772418e-05 -4.1110346856402295e-05 -1.5398347422867436e-05  -6.9220494988652339e-05 -8.8235561795191867e-05 -7.0889744362338737e-06  -1.1230629930874988e-04 -2.1165599946260472e-05 2.5893229286068929e-05  -5.5616975032473554e-05 -6.4360556432617417e-05 -2.6441365730273184e-05  -3.8585850805240554e-05 6.0501006696190825e-05 -7.6527345124246094e-06  -5.2471710674467028e-05 4.8496694180566116e-05 -5.9447330477383579e-06  -5.9613829085167375e-05 5.9807141547074129e-05 2.7095737522096211e-05  -5.3707045844243257e-05 -4.8038975036801071e-05 -2.5795652384692318e-05  -3.3720534962656620e-05 1.0704304409386746e-04 -2.5562163313586789e-05  -5.4798662548193053e-05 -4.4681279122996446e-05 2.5633363743426096e-05  -4.2232732919584145e-05 5.8160843168495316e-05 4.7933061833016096e-07  -6.9103374410619254e-05 -1.8927701087757205e-05 -2.4885198290093627e-05  </DataArray> 
</PointData> 
</Piece>
</UnstructuredGrid>
</VTKFile>