<?xml version="1.0"?>
<VTKFile type="UnstructuredGrid"  version="0.1"  >
<UnstructuredGrid>
<Piece  NumberOfPoints="729" NumberOfCells="3092">
<Points>
<DataArray  type="Float64"  NumberOfComponents="3"  format="ascii">2.84484057281759 3.883302610757409 1.417791590697213  2.962801942149008 3.909921285352783 1.500148120422462  2.953389082321891 3.85185893576661 1.359735449164441  2.959171783424984 3.926401429032143 1.321370357601274  2.968447746223973 3.987958802619286 1.473545423592708  2.84941513470772 3.959594218084547 1.385481614695927  2.854055145285535 4.03585764948037 1.353216851474268  2.97414925049575 4.065932658645056 1.446992721008866  2.965014391448857 4.000885257872757 1.283082843530934  2.858729192586292 4.11207999337672 1.320966008385811  2.979865646867853 4.143847175019324 1.420459349549184  2.97087965412462 4.075317846600126 1.24480226589905  2.863385810602272 4.188266319099243 1.28871139089611  2.985561335130149 4.221714070366069 1.39392998275468  2.976731368284527 4.149702130978914 1.206519961929826  2.867984940713338 4.264415520523269 1.256445627412893  2.991205945318364 4.299530499159883 1.367398011659721  2.982539413873081 4.224038353191673 1.168226396800125  2.872476795220495 4.340521981420987 1.22414197041561  2.99674461700831 4.37727787191493 1.340829888874677  2.988241322681104 4.298309033719353 1.129900897969816  2.415496698209911 3.978765562570008 1.614341330471688  2.398680058404701 4.003260424359119 1.757805539415065  2.525476660868341 3.987489221245567 1.716882274147504  2.532099561818627 4.063477344871993 1.705150954460259  2.406127577013462 4.077961162981383 1.74703079316369  2.422017179463774 4.054381667232915 1.596346527236592  2.538676906071279 4.139461626135249 1.693460057342382  2.41348707188387 4.152645806826512 1.736305738422641  2.428472378064098 4.129999211725467 1.578390950432533  2.545220038527195 4.215423158122945 1.681785852230832  2.420783334760751 4.22729710622944 1.72560012765237  2.434877897926245 4.205601633835453 1.560446309844156  2.551731052423547 4.2913571109378 1.670103693190745  2.428046503811087 4.301909833181452 1.714884052508647  2.441252470861249 4.281182636020658 1.542486848108856  2.558204519847453 4.367274079183931 1.658387168746991  2.435305256556608 4.376490024725643 1.704129541174972  2.44761431382495 4.356751826946055 1.524486944407695  2.564641734074663 4.443205098148505 1.646604836038597  2.442581026184136 4.451059385679192 1.693306405075739  2.453966414004886 4.432322165533386 1.506424254347919  2.853165369381441 3.937830702911942 1.561331494545815  2.857466638957343 4.01620937781802 1.539231266046828  2.86184284532017 4.094538069734263 1.5171735104903  2.866229848615792 4.172830949023171 1.495131354696916  2.870593634842177 4.251086105992298 1.473090602853354  2.874899578541553 4.329305704004459 1.451041825013243  2.879080296033925 4.407479437435927 1.428946289737187  2.864564592805471 3.983786077582186 1.962525380141928  2.981070972564694 3.971069817371417 1.848813711037325  2.868097409021487 3.976153565168493 1.803897990011077  2.872579490647001 4.054011886579885 1.796879267626464  2.986856388489704 4.048938602775813 1.844600467288868  2.869773036284994 4.05969424015738 1.960926186363981  2.875001402701627 4.135540089211154 1.959358535289073  2.992658443659546 4.126711699389924 1.840412353500269  2.877104305606198 4.131799146549015 1.789901319012361  2.998448521594462 4.204418010764718 1.836238685922174  2.880221433032035 4.211312613575131 1.957805703971461  2.881627978460566 4.209528662885406 1.782940260044779  2.885404874456313 4.287033672488752 1.956254772900098  3.004208830699988 4.282058435997408 1.832070972203836  2.886121056579593 4.287209968958924 1.775982217067293  2.89052843969836 4.362701347499975 1.954688223384395  3.00992466052021 4.359645646229322 1.827899591176827  2.890555840855737 4.364844100106271 1.769017634670078  2.895548290436364 4.438316547485576 1.953066875891606  3.015539341101328 4.437162143963235 1.82367626934011  2.89486612054244 4.442433205258567 1.76199107574657  2.283021603990135 3.96096962292933 1.513887819470633  2.272035887914794 4.000913156606151 1.663724800412715  2.279737738146166 4.07525372963166 1.647825388261515  2.290302763375482 4.035269360474468 1.489849900776532  2.287315344563661 4.149583988162409 1.631977199321231  2.297482426833231 4.109576160337097 1.465846752726537  2.294816697914024 4.223876015947027 1.616146997615975  2.304595630964064 4.183865634928198 1.441855162550786  2.302285841541003 4.298124469841355 1.600305260459891  2.311678423194969 4.258127686284997 1.417847594311979  2.309760770825546 4.372334199873141 1.584426149333631  2.318763340897528 4.332366364685004 1.393799225435426  2.317283206911457 4.446521033020494 1.568482632695256  2.325886357374689 4.406598595105878 1.369686141480405  3.440518031842536 3.895490105062311 2.097041909318316  3.517686720162485 3.83837158348426 2.249628066161571  3.557211426267371 3.862622668756731 2.105172343210145  3.577471580906989 3.932300214384088 2.121132251722707  3.540570466831999 3.9034556902278 2.270138469820083  3.45903326085027 3.96734919039476 2.108693556881911  3.597396646864176 4.002326451313481 2.13689507957544  3.563074426496447 3.968935839181432 2.290475565005275  3.477227870540579 4.039374363655999 2.120185853244946  3.092470891929891 3.921416429222536 1.585830086590383  3.082542910746165 3.879604579349708 1.435593730477143  3.090470552318378 3.956264304882251 1.402676053452444  3.100041380191451 4.000462966461861 1.565535497835198  3.098411825943014 4.032821839190577 1.369820639769062  3.107616908355263 4.079404082070946 1.545271841455199  3.106355163735554 4.10931047200398 1.33698175541838  3.115184973812625 4.158266309946673 1.525025272369176  3.11427958210338 4.185742844702918 1.30414491742269  3.122731781608628 4.237064851095996 1.50478711479744  3.122172426170517 4.262121646579479 1.271304573248436  3.130247723831832 4.315799435946941 1.484554378795844  3.129989131529634 4.338429653487758 1.23842413135667  3.137682460343204 4.394450878657817 1.464288770327177  3.207958267387788 3.930489510507605 1.676291477571344  3.234490431236319 3.895185419929818 1.52693704219477  3.245106761635908 3.973444561686672 1.501087841191332  3.217876050032126 4.009593441300937 1.66104177524973  3.255681007865786 4.051589106732084 1.475264213358139  3.22773726378738 4.088602764730705 1.645805517392539  3.266224566645272 4.129647987768003 1.449445677332711  3.237552243845318 4.167526875225911 1.630572690463463  3.276743445883217 4.207645560346077 1.423628806974789  3.247336967131659 4.246391257613315 1.615340256228778  3.287243703677127 4.285588761662095 1.397816639299647  3.257107388638673 4.325197100868761 1.600115629380667  3.297718769788592 4.363477088365837 1.371985978582611  3.266840395799467 4.403938592179665 1.584874586903703  3.206455162194794 3.828742982083761 1.374968799702225  3.217115192640915 3.903050541792991 1.336992837385459  3.227721341470412 3.977279991277272 1.299071821948381  3.238316064314796 4.051419900908597 1.261173307001114  3.248892733005365 4.125495441352816 1.223281370303021  3.259451264229858 4.199511992752002 1.185388262330873  3.269988531976586 4.273465109847903 1.147481448967839  3.570641451665336 4.034146766414137 1.653757959941074  3.530477197918085 4.011066258970951 1.522798649125683  3.6535179445737 4.003777333563609 1.578454232348073  3.516240454620919 3.93330025175322 1.544456968293553  3.555264915891965 3.955881878704288 1.666839521673783  3.667579526322116 4.082019567141954 1.561436471234803  3.585916414810144 4.112396002344799 1.640618294045712  3.544629879104967 4.088767106051707 1.501108295979954  3.681634509652163 4.160251895603279 1.544404892723639  3.601172386995776 4.190632918635522 1.627468312438435  3.558760744357234 4.166424122434756 1.479410810376797  3.695744508464145 4.238470823197447 1.527392067216418  3.616478046570558 4.268851503746511 1.614344041886083  3.57292367568381 4.244032531270317 1.457732137745441  3.70995381935548 4.316659303394578 1.51042578865504  3.631911899638645 4.347043980444314 1.601278720628271  3.587151191898007 4.321582874326304 1.43609968288924  2.151645821237697 3.989185801141555 1.564612938214981  2.156003467843872 4.024195088835892 1.709778278901941  2.163330723581689 4.097762125893322 1.695385089259567  2.158769911349415 4.062971225597811 1.543480783921342  2.170515095918109 4.171274624236339 1.681062013243044  2.165754346610068 4.136729466712679 1.522400333188365  2.177620537101686 4.244731000331335 1.666758108245929  2.172658922660547 4.21044486562228 1.501336474009267  2.184697908893618 4.318122613690353 1.652440844541133  2.179534315060716 4.284109289661574 1.480258700169515  2.191799379401616 4.39145296962655 1.638082402875186  2.1864289788456 4.357728173970825 1.459140284222463  2.1989754457113 4.464721155923155 1.623650474043642  2.193401919416072 4.431317509058744 1.437960489546042  2.740106083406544 3.914742735934754 1.479983271225744  2.744367524903426 3.991739596354897 1.452636088200109  2.748698754246756 4.068718354529603 1.425321282806913  2.753046253143746 4.145673617904007 1.398014510501888  2.757373090719562 4.222603458623694 1.370700586025978  2.761640426034002 4.299510093420585 1.343364188674406  2.765788764075602 4.376390034182993 1.315987612327424  2.733104158344953 3.98675761469591 1.854035662223041  2.737459917963218 4.063176450242465 1.848899532769714  2.741857517238241 4.139549067011845 1.843808947457095  2.746247742143499 4.215877606951461 1.838738221735833  2.750608661004463 4.292162823411574 1.833668805199038  2.754910239877245 4.368415013556969 1.828580342710035  2.759079777281801 4.444639045634671 1.823433624302074  3.501841348219151 3.855434378488336 1.566056084783814  3.441507496290532 3.885404952359897 1.634096461024671  3.539687544942828 3.8775960692543 1.679799118500567  3.456261834708252 3.963672900082851 1.616562147392606  3.470835307401757 4.041850280783658 1.598960998478989  3.485315337654176 4.119970389127785 1.581323144282376 
[...]
<PointData  Vectors="f_24"> 
<DataArray  type="Float64"  Name="f_24"  NumberOfComponents="3" format="ascii">1.9631048275558664e-02 2.4217972449725685e-02 3.8911182980172376e-02  1.8361445969188265e-02 3.4550349772515483e-02 4.0152604944322538e-02  1.9111715631451399e-02 1.8482185429855680e-02 3.9289722281206689e-02  1.8518149407490778e-02 1.2863724023357385e-02 3.4945415959724314e-02  1.7501360286026547e-02 2.9631192916486089e-02 3.3864614996113304e-02  1.9084092049198260e-02 1.8980815578777691e-02 3.3759494550434449e-02  1.8522419747059277e-02 1.4741843307268345e-02 2.8581638812625657e-02  1.6624617393392254e-02 2.5717475632222504e-02 2.7697498789474660e-02  1.7942647725638680e-02 8.3867007560753416e-03 3.0372928848862737e-02  1.7982580859435483e-02 1.1254286840169440e-02 2.3189943382414788e-02  1.5776138779700528e-02 2.2464959247596662e-02 2.1396777362483351e-02  1.7417045694342458e-02 4.6952953805783591e-03 2.5507823726697146e-02  1.7470750983532252e-02 8.3189437115318930e-03 1.7458698638230893e-02  1.4966659669263358e-02 1.9703343962235314e-02 1.4823890934639124e-02  1.6944469594153407e-02 1.5915998707200969e-03 2.0246751197071054e-02  1.6984477436378438e-02 5.7863206514305963e-03 1.1295233102494780e-02  1.4186874204909274e-02 1.7296455426130321e-02 7.8622021653749416e-03  1.6517667869762165e-02 -1.0868716777991314e-03 1.4511806987129417e-02  1.6514870336382596e-02 3.5603062887527574e-03 4.6237715421405673e-03  1.3421205449171776e-02 1.5139379092714131e-02 4.4553272836104883e-04  1.6111750239166528e-02 -3.4771484589877703e-03 8.2442001479294518e-03  2.2461471264458396e-02 4.3524459709070998e-02 3.6561776892446697e-02  2.2467774227836933e-02 5.8903223411752775e-02 3.8051033958837070e-02  2.1438805592931449e-02 5.5256912802467528e-02 3.8892400210760909e-02  2.0862126979096986e-02 5.2337576989963025e-02 3.1833637056093836e-02  2.2016534467626234e-02 5.6268324957028229e-02 3.1165682362064087e-02  2.2154999191256276e-02 3.9887414867070058e-02 3.0143835835269722e-02  2.0235823359181112e-02 4.9873225883778481e-02 2.5175405536616763e-02  2.1505176686696648e-02 5.3973200697611752e-02 2.4667586652220859e-02  2.1782683163516638e-02 3.6850423212209431e-02 2.4003874138242186e-02  1.9586377708374111e-02 4.7744970089135787e-02 1.8614334048501772e-02  2.0965105183758999e-02 5.1947113435185287e-02 1.8288217338654555e-02  2.1390601591557777e-02 3.4244046956002978e-02 1.7890554529392672e-02  1.8943260346159022e-02 4.5867623669817538e-02 1.1930045810009608e-02  2.0433404788990008e-02 5.0118889104739051e-02 1.1814695927464624e-02  2.1018015604598782e-02 3.1959740605197032e-02 1.1610478630964607e-02  1.8336850163769226e-02 4.4184710185140641e-02 4.9418602447153237e-03  1.9950422533189429e-02 4.8438428440617555e-02 5.0695934341128922e-03  2.0703768812009995e-02 2.9923824023013530e-02 5.0057062522585313e-03  1.7795811560570959e-02 4.2668658797295034e-02 -2.5070672790681089e-03  1.9554888303974987e-02 4.6874641966827023e-02 -2.1024180445048013e-03  2.0487594744599637e-02 2.8084177109702155e-02 -2.0488090037486164e-03  1.8994122528081320e-02 4.0393917699014147e-02 3.9567670196288880e-02  1.8177311953796026e-02 3.6013132048242323e-02 3.2870011222270734e-02  1.7368682187199728e-02 3.2434814251320131e-02 2.6324040118049355e-02  1.6558246653186500e-02 2.9456644737803978e-02 1.9745780684651465e-02  1.5769189458579427e-02 2.6911345487234742e-02 1.2940919307784276e-02  1.5001318262575194e-02 2.4692123531399081e-02 5.7703645789067438e-03  1.4235617208221654e-02 2.2708954376958638e-02 -1.8503865352978417e-03  1.9093911090833981e-02 8.6235239734327618e-02 4.4643883293912924e-02  1.7967713583367705e-02 7.5714750943179629e-02 4.3952408972291197e-02  1.8734477876667415e-02 6.8651973811932332e-02 4.2505764003675429e-02  1.7541066676417073e-02 6.6208794114988423e-02 3.4578801561839442e-02  1.6474302067150334e-02 7.3711048469408180e-02 3.5733225021357590e-02  1.7659032775052201e-02 8.4845916389511694e-02 3.6891850229985999e-02  1.6201050277867553e-02 8.3586471040360835e-02 2.9576412762792506e-02  1.4994130785481501e-02 7.2020013977564024e-02 2.8003032337032947e-02  1.6318795194381140e-02 6.4177090404393955e-02 2.7090472172833314e-02  1.3514197532529070e-02 7.0554620642762633e-02 2.0435859406435709e-02  1.4738623333538228e-02 8.2398381549828328e-02 2.2416646967263910e-02  1.5088596493398915e-02 6.2421514747503445e-02 1.9753953668032505e-02  1.3283309238681573e-02 8.1278027174399844e-02 1.5204578932731461e-02  1.2045562262151189e-02 6.9269736166884463e-02 1.2791717037150898e-02  1.3869625519665179e-02 6.0876942465194483e-02 1.2323453172769189e-02  1.1842942456422792e-02 8.0201705424517031e-02 7.7504962688075586e-03  1.0589498995703731e-02 6.8112035000563315e-02 4.8746042659214847e-03  1.2668577913207415e-02 5.9491456399307779e-02 4.6047553085807411e-03  1.0419370826976441e-02 7.9149920925215986e-02 -1.0406196870482259e-04  9.1583737782710527e-03 6.7033946437315167e-02 -3.4761636701855559e-03  1.1491763717163197e-02 5.8234477620932805e-02 -3.5648861694027143e-03  2.3893927214367418e-02 3.2713700172048228e-02 3.4477455932961601e-02  2.3656357675378197e-02 4.8455579975358334e-02 3.5483700037783915e-02  2.3446759712593843e-02 4.5216823589301805e-02 2.9102922500123359e-02  2.3818476890425624e-02 2.8542306432742637e-02 2.8896934361810303e-02  2.3163132605869614e-02 4.2437530296915091e-02 2.3007147454241650e-02  2.3675824562918061e-02 2.5044774072105803e-02 2.3483318401366502e-02  2.2853841052148941e-02 4.0003672003439877e-02 1.6977513639204734e-02  2.3518736259664875e-02 2.2059511886450882e-02 1.8038034918478319e-02  2.2562393557817254e-02 3.7826450646531187e-02 1.0825392897262002e-02  2.3394209309323837e-02 1.9462182853758916e-02 1.2396313829252714e-02  2.2332208535999949e-02 3.5839656762466754e-02 4.3960484905200747e-03  2.3343712793122733e-02 1.7161861821449347e-02 6.4163971952988742e-03  2.2214327534207868e-02 3.3995552941305261e-02 -2.4408592899270590e-03  2.3413238474060460e-02 1.5093023112865644e-02 -2.3304226935659991e-05  1.5638462284342278e-02 1.1738904124643847e-01 5.4273254060938768e-02  1.6104032459053900e-02 1.3779307180051817e-01 6.0643903218515413e-02  1.5164567812562440e-02 1.2276329261103572e-01 5.7130660490903783e-02  1.2856226802875671e-02 1.2465760025096195e-01 4.8860536981237677e-02  1.3975622851857942e-02 1.4059060460224626e-01 5.3811279434614924e-02  1.3299576727473233e-02 1.1850432606791163e-01 4.5903663521229217e-02  1.0545417831560823e-02 1.2621244077300625e-01 4.1034652951230724e-02  1.1740332322158140e-02 1.4282132511131315e-01 4.7249023041986839e-02  1.0982002358184102e-02 1.1938174210994588e-01 3.8015876034991486e-02  1.7240365531848916e-02 4.6481759634544623e-02 4.2066699217149020e-02  1.7752063662721005e-02 2.8347391347405045e-02 4.0584964172008936e-02  1.6771474920405555e-02 2.2889540709228464e-02 3.5022000290798737e-02  1.5975348007636794e-02 4.2106567093753579e-02 3.4701299116372021e-02  1.5860533374822797e-02 1.8570391183746357e-02 2.9389708389593230e-02  1.4738296643777354e-02 3.8599490649504076e-02 2.7660068939218754e-02  1.5015331245443539e-02 1.4996527059808289e-02 2.3540270579300752e-02  1.3553975207826646e-02 3.5706111579582395e-02 2.0597737556293932e-02  1.4231931576240959e-02 1.1952555582844700e-02 1.7351218044942249e-02  1.2414219415802553e-02 3.3240990610479929e-02 1.3321234231748367e-02  1.3501701987861858e-02 9.2849493674516063e-03 1.0725121345994825e-02  1.1309336457460170e-02 3.1082475209770758e-02 5.6985882081329710e-03  1.2811665215934707e-02 6.8488671341305858e-03 3.6111509792222727e-03  1.0227695659951323e-02 2.9171428307028725e-02 -2.3668038594917792e-03  1.6292321515790031e-02 5.9427324169456126e-02 4.3649315426930936e-02  1.6406652540444149e-02 4.1422258005684588e-02 4.2516911063198458e-02  1.4965189160769268e-02 3.6476278801643378e-02 3.5673957896435786e-02  1.4663237017263166e-02 5.5736367320153753e-02 3.5502605300647916e-02  1.3624241407226676e-02 3.2541538841229366e-02 2.8932537493044606e-02  1.3089342053996493e-02 5.2708398902941378e-02 2.7732819927014443e-02  1.2392109671510172e-02 2.9272705930705349e-02 2.2073701080336044e-02  1.1582998717860612e-02 5.0182803805575389e-02 2.0032755248434207e-02  1.1236442094655043e-02 2.6465476632370470e-02 1.4947473572197790e-02  1.0130596608008592e-02 4.8015214773949412e-02 1.2180496285892519e-02  1.0139440466217063e-02 2.3988360288939314e-02 7.4332624476840387e-03  8.7171115097892000e-03 4.6105376489489182e-02 4.0142435255400800e-03  9.0922613004704323e-03 2.1741118898123090e-02 -5.4393165775667811e-04  7.3211510637713187e-03 4.4381682930147687e-02 -4.5836256998403845e-03  1.7420335173222268e-02 2.2951502634359716e-02 4.2224277093113882e-02  1.6327736138783942e-02 1.7269584184969836e-02 3.7560998070839693e-02  1.5377529544597828e-02 1.2622747739818734e-02 3.2695521396370025e-02  1.4542576442991525e-02 8.7924502392605630e-03 2.7525155301591785e-02  1.3801460957392150e-02 5.5533140485643905e-03 2.1946753511015358e-02  1.3139716994812532e-02 2.7282870538109425e-03 1.5891446046219622e-02  1.2560397640731845e-02 1.8761024647977564e-04 9.3020275881820422e-03  1.0309718985906519e-02 6.1369039134946339e-02 3.1372818647227622e-02  1.1294508165139959e-02 4.3586297177030990e-02 3.2348303008305788e-02  1.0125329213179504e-02 5.3533636721618330e-02 3.3227589761032378e-02  1.3000819953196402e-02 4.7309633784306526e-02 3.9817702041800969e-02  1.2265182981124797e-02 6.4096472556032930e-02 3.9753653210866088e-02  8.3876073584768941e-03 5.0785573159437589e-02 2.5115253816243726e-02  8.4731529428981461e-03 5.9077174459972404e-02 2.3061114647388251e-02  9.7251281049038924e-03 4.0478837307940593e-02 2.4840489000690358e-02  6.7385468886800868e-03 4.8420137402252275e-02 1.6806097169278948e-02  6.7116053442232782e-03 5.7103865617565377e-02 1.4588237904397687e-02  8.2522747563723783e-03 3.7805293861255952e-02 1.7106473705430735e-02  5.1412167914538344e-03 4.6336053322315406e-02 8.1362039539101157e-03  5.0011519930824129e-03 5.5370373793534780e-02 5.7805087367772019e-03  6.8523518342895554e-03 3.5439568516804888e-02 9.0082211044683076e-03  3.5685007953532764e-03 4.4464424077780479e-02 -1.0187806249950444e-03  3.3395056312537637e-03 5.3826211295199794e-02 -3.4901156267311585e-03  5.5047863160867802e-03 3.3329306684562472e-02 4.3097183788223266e-04  2.4952258305520097e-02 3.8091380263315266e-02 3.3293075055816884e-02  2.4660150738321666e-02 5.3011945215626514e-02 3.4213530936957184e-02  2.4525762982916841e-02 5.0119685311580300e-02 2.7871344781881597e-02  2.4943828051721125e-02 3.4326818253403710e-02 2.7512002370842656e-02  2.4309210655046477e-02 4.7556027455586208e-02 2.1820422458837505e-02  2.4864734490261733e-02 3.1104636733630953e-02 2.1942592418008246e-02  2.4068132193514592e-02 4.5261507972950844e-02 1.5850954451701836e-02  2.4766768686891677e-02 2.8306488608763999e-02 1.6387786554947673e-02  2.3845593627559666e-02 4.3161024807422378e-02 9.7806675057866173e-03  2.4699750415175251e-02 2.5828649833805735e-02 1.0680531479630759e-02  2.3685742546595692e-02 4.1197240833922802e-02 3.4606354751197206e-03  2.4708095847967970e-02 2.3589333673665648e-02 4.6772743930460804e-03  2.3634416555634710e-02 3.9319200349656525e-02 -3.2266306050797006e-03  2.4833162680163109e-02 2.1514314492295572e-02 -1.7450689974116153e-03  2.0142581662765124e-02 3.0400893789104443e-02 3.8480589717062495e-02  1.9635160189323330e-02 2.5566270090287911e-02 3.2700736897479182e-02  1.9114584352288876e-02 2.1637449305145554e-02 2.6994548954873861e-02  1.8582139020844640e-02 1.8377946671413264e-02 2.1168646407968984e-02  1.8066227824735253e-02 1.5611067072199726e-02 1.5067427724467999e-02  1.7571139604025350e-02 1.3216508998017223e-02 8.5661381353850305e-03  1.7085815257956261e-02 1.1109846367552485e-02 1.5644628478139748e-03  1.9870895414318357e-02 7.2353704722270026e-02 4.2383996831268617e-02  1.8835711807040280e-02 7.0337494088268074e-02 3.4730098454088469e-02  1.7757027718092844e-02 6.8578404975790888e-02 2.7545024065132640e-02  1.6665015910344964e-02 6.7021564544114509e-02 2.0517804866942047e-02  1.5578510628378960e-02 6.5617081645885172e-02 1.3415464455297399e-02  1.4513829479112620e-02 6.4328614593459621e-02 6.0401986978795936e-03  1.3474613450606814e-02 6.3120465666910111e-02 -1.7811426989194049e-03  1.4904880313547779e-02 5.1894881209810735e-02 4.7522130710477589e-02  1.5051592541221901e-02 5.9159507349084581e-02 4.6610265538685858e-02  1.4393293585885442e-02 6.7433051000767755e-02 4.8508143202927130e-02  1.3067538348624792e-02 5.5146155173322088e-02 3.8389151742656002e-02  1.1280544979049574e-02 5.1892179424012065e-02 3.0495263325952423e-02  9.6044201010209614e-03 4.9162700200287741e-02 2.2634496916115975e-02  8.0120668931644330e-03 4.6811311052930564e-02 1.4594114172795006e-02  6.4807423983405960e-03 4.4732993330243831e-02 6.2225081949114228e-03  5.0020464704885453e-03 4.2867815837112043e-02 -2.5903099175564629e-03  1.6606290931727885e-02 1.3003709093124871e-01 5.6515627647974340e-02  1.4254910234999680e-02 1.3190101066926468e-01 4.9273893135794458e-02  1.1902944237549357e-02 1.3331714987679461e-01 4.2354579501511273e-02  9.4908354974080015e-03 1.3445959518735845e-01 3.5494214054412020e-02  2.1649312958120514e-02 6.8885373480472675e-02 4.0021161403910571e-02  2.1966111243041066e-02 8.3960490489201275e-02 4.1801482150960120e-02  2.0956676927275514e-02 8.1154079254581610e-02 4.2774315468736272e-02  1.9973861845518852e-02 7.9717879751154450e-02 3.5605524066099743e-02  2.1116432111938019e-02 8.2839769921937145e-02 3.5045415805319842e-02  2.0970940478082609e-02 6.6899502466395394e-02 3.2924233688458496e-02  1.8936657313367512e-02 7.8362656680908374e-02 2.8831580341341003e-02  2.0198813965468132e-02 8.1736049611873737e-02 2.8667952800646684e-02  2.0226964483152730e-02 6.5129550885632215e-02 2.6229013106144183e-02  1.7875535556355827e-02 7.7081267263209755e-02 2.2219898306422983e-02  1.9247800322189153e-02 8.0645013938917098e-02 2.2441016508891427e-02  1.9450562679574859e-02 6.3531631994567073e-02 1.9677612091125972e-02  1.6815283487832986e-02 7.5854651047092145e-02 1.5560975244268124e-02  1.8292842361954713e-02 7.9556518050695205e-02 1.6169750478690487e-02  1.8675838691822648e-02 6.2061830708953672e-02 1.3049623032240413e-02  1.5779872368508974e-02 7.4662997693875827e-02 8.6654020137706469e-03  1.7366016112302440e-02 7.8454113322209085e-02 9.6748732576076614e-03  1.7939866336865940e-02 6.0687203093773005e-02 6.1514374747120111e-03  1.4795543774752699e-02 7.3494094747040578e-02 1.3462713644494160e-03  1.6509401672085929e-02 7.7318014525981527e-02 2.7866713262697357e-03  1.7292832402129185e-02 5.9390627561293395e-02 -1.1917694038895560e-03  2.5967103952301562e-02 4.3358589621473237e-02 3.2227014785854706e-02  2.6009196737994230e-02 3.9984153311157601e-02 2.6318228090081029e-02  2.5971713186678749e-02 3.7047790003707712e-02 2.0637795779986614e-02  2.5912937528549815e-02 3.4442880968476225e-02 1.5006950312343434e-02  2.5882724539495458e-02 3.2085853153342753e-02 9.2625113100488210e-03  2.5921282259527757e-02 2.9905630228778075e-02 3.2566384866252957e-03  2.6067163869683510e-02 2.7848305423618384e-02 -3.1352279849982670e-03  1.8867327816847284e-02 1.0268351994869751e-01 4.7460879310421755e-02  1.7738886507549251e-02 1.0219415947574806e-01 4.8131604570836796e-02  1.8212594501350904e-02 8.8665020231208855e-02 4.5386943897588322e-02  1.6555158667985768e-02 8.7453018218613912e-02 3.7386547424935149e-02  1.5731843148527436e-02 1.0168652141068782e-01 4.0172553261488157e-02  1.7035633367488982e-02 1.0221836214016077e-01 4.0046339866561857e-02  1.4895249972735456e-02 8.6356024411402540e-02 2.9814024500658017e-02  1.3753475215104928e-02 1.0113628842282242e-01 3.2646263941735421e-02  1.5204971996481544e-02 1.0167018961188733e-01 3.2994956380128712e-02  1.1794088831676007e-02 1.0056071957818513e-01 2.5272901340639243e-02  1.3375027109457803e-02 1.0107101477210598e-01 2.6078665286217044e-02  1.3245998739186636e-02 8.5368430891183719e-02 2.2412662010207876e-02  9.8345998314265087e-03 9.9963724728892381e-02 1.7853245149831359e-02  1.1548339059407007e-02 1.0041973183073895e-01 1.9110414004974641e-02  1.1599956045312701e-02 8.4437922422457790e-02 1.4953988031702271e-02  7.8672243832903031e-03 9.9350299907407125e-02 1.0207492696672933e-02  9.7268886393914247e-03 9.9725486988362144e-02 1.1931189093324517e-02  9.9610818579380991e-03 8.3548430282599701e-02 7.2525551121222342e-03  5.8914446508649479e-03 9.8713460863338098e-02 2.1807515562261323e-03  7.9149576846258857e-03 9.8975639592321793e-02 4.4209454649043328e-03  8.3371677188705251e-03 8.2689725634477504e-02 -8.6427551528781943e-04  7.6599750765662224e-03 1.0706924963347723e-01 2.7288594700454714e-02  7.9125425852901981e-03 8.3093057169482121e-02 2.3898012714178213e-02  7.1175599951879857e-03 9.1974564264174177e-02 2.5847170427336426e-02  1.0007006161004967e-02 8.4290764907515234e-02 3.2579985879025282e-02  9.9345594791299379e-03 1.0682978127586154e-01 3.5754049701749419e-02  4.9705915575762758e-03 9.1555696975332682e-02 1.6832973151314393e-02  5.3758689928852356e-03 1.0732600476265751e-01 1.8714065723797153e-02  5.8598166350472495e-03 8.2065246996275557e-02 1.5122034852843184e-02  2.1348749350137926e-02 9.4946088158655240e-02 3.6973373277102053e-02  2.0433229920698546e-02 1.0574495461842229e-01 4.0089549949691591e-02  2.0224007147856587e-02 9.4106606043107610e-02 3.7751019267763988e-02  1.8998163545995209e-02 9.3312211619186458e-02 3.1491720059009416e-02  1.9011678856338480e-02 1.0535151141081686e-01 3.4461043206563909e-02  2.0286057348732831e-02 9.4271801359550864e-02 3.1118950136102962e-02  1.7747345417088341e-02 9.2459342250011206e-02 2.5362894423911007e-02  1.7565602322284261e-02 1.0481143752134946e-01 2.8920710484070775e-02  1.9185652364637474e-02 9.3503706242665185e-02 2.5385976338589085e-02  1.6494201296248488e-02 9.1548455279828564e-02 1.9198406988148457e-02  1.6111975659554779e-02 1.0414071830919923e-01 2.3344891557160859e-02  1.8076719579653341e-02 9.2649673929679918e-02 1.9622741282267295e-02  1.5262443697589582e-02 9.0571234731724598e-02 1.2839597015408301e-02  1.4667656111987282e-02 1.0333644707816772e-01 1.7618093329457834e-02  1.6987000793923485e-02 9.1696669386587409e-02 1.3682490449411873e-02  1.4073661043409878e-02 8.9514578273984513e-02 6.1220865894676514e-03  1.3257376813132781e-02 1.0237189486450650e-01 1.1626729619950102e-02  1.5951101776590898e-02 9.0619549369956851e-02 7.4018747303656474e-03  2.5160101651510565e-02 4.6966264394440529e-02 9.2263073447322076e-03  2.7194326014050089e-02 3.8841067561520712e-02 8.0085506970177748e-03  2.5327629046290281e-02 4.8990150982985904e-02 1.5166673509817905e-02  2.7236134550519452e-02 3.6761555694461476e-02 2.0445208763991353e-03  2.5048462944560146e-02 4.5037941924377385e-02 3.0668990378380353e-03  2.5029499103831381e-02 4.3160352893453713e-02 -3.4296061556942188e-03  2.2631339561599677e-02 7.1950276431856794e-02 3.8987979309892486e-02  2.2062093921621562e-02 7.0186967424818475e-02 3.2163242466855022e-02  2.1420378203787272e-02 6.8628571157273804e-02 2.5728893163130078e-02  2.0748477455913145e-02 6.7181265390702266e-02 1.9440306888359325e-02  2.0078516234308938e-02 6.5807042840527075e-02 1.3085909619106275e-02  1.9450894451166736e-02 6.4477548800840223e-02 6.4813303367654137e-03  1.8913502426945207e-02 6.3194080252975821e-02 -5.4462464555989521e-04  1.8991514509909994e-02 -1.5284297216455463e-02 1.6351361728348470e-02  1.6050218035718232e-02 -9.0811667981312988e-03 1.3288449827776525e-02  2.5506907020360695e-02 5.1160308381184724e-02 2.1031886036055332e-02  2.1568354896547313e-02 4.5239275504462155e-02 3.7909501305329753e-02  2.1810327153232334e-02 3.6142533929569627e-02 3.7031695342980592e-02  2.1444535115755153e-02 3.1941278205448509e-02 3.0952810043772372e-02  2.1095200128535069e-02 4.1645775815411616e-02 3.1280635612894743e-02  2.1046164331373986e-02 2.8493880992545486e-02 2.5072357079329699e-02  2.0573749911052895e-02 3.8677235734979214e-02 2.4948118158234205e-02  2.0636895419168164e-02 2.5587500016669103e-02 1.9152268