<?xml version="1.0"?>
<VTKFile type="UnstructuredGrid"  version="0.1"  >
<UnstructuredGrid>
<Piece  NumberOfPoints="723" NumberOfCells="3045">
<Points>
<DataArray  type="Float64"  NumberOfComponents="3"  format="ascii">3.991541217480066 3.698556371658856 1.338207427536615  4.060714809303454 3.728606006988149 1.41515125202811  4.080048611877761 3.664302473949722 1.281925884378632  4.068574280932948 3.803880642204564 1.388777533080252  3.998485250475829 3.771287279839985 1.302273199381589  4.085126691681688 3.736092660097749 1.244824380231953  4.090196836218716 3.80770264771449 1.207595249243451  4.076379752410499 3.87904807206725 1.362223893017007  4.005390843172163 3.843844935978267 1.266234846768009  4.095265813690426 3.879179223265395 1.170305369885368  4.084173728449354 3.954173149286275 1.335573267985906  4.012278852909829 3.916298426332924 1.230125258313313  4.100348991048904 3.95058672782868 1.132997327357653  4.092002784165613 4.029292952809569 1.308900840828561  4.019171912743835 3.988695077793561 1.193989442292742  4.105460013727268 4.021962323985676 1.095711099570032  4.09990701194763 4.104426596647175 1.282263795677475  4.026086927496404 4.061063344925469 1.157865609609095  4.110600760888282 4.093339944131435 1.058468460267769  4.107922957487274 4.17957420511393 1.255703355068646  4.033069475306254 4.133414894587321 1.121786892770985  4.190893101958958 3.696714739879053 1.365050046211961  4.169529763305832 3.628124615009745 1.220226622475653  4.172520951722637 3.698366950060533 1.180664768001333  4.196800930119218 3.770082972776359 1.335807466422174  4.202670818676204 3.843301296671298 1.306379396143864  4.175527689470416 3.768377143626642 1.14097337892361  4.208541518404242 3.91645779930616 1.276843895840576  4.1785488760881 3.838249765218564 1.101223174002235  4.214446975961749 3.98959523820072 1.247278437066202  4.181589531719256 3.908041434438896 1.061460649187771  4.220416465104409 4.062734897487825 1.217743710522166  4.184656564226708 3.977794606646579 1.021725522928574  4.226480739844852 4.135884431190777 1.188313377416915  4.187717879216183 4.04754450228771 0.9820448504324897  3.931412379326278 3.577081442199834 1.129995577669352  3.966455845632824 3.648367204503438 1.232128213160263  4.054502654668797 3.592713683634576 1.157694394965241  4.05742208541257 3.660772380766883 1.111844130110373  3.971893192211119 3.719049608669608 1.189940469883077  3.934875404591823 3.643267991264837 1.079766260815741  4.060382816045188 3.728578408963903 1.065946502349653  3.977325330580149 3.78953416868051 1.147688442168531  3.938375014839333 3.709230423925003 1.029526123411727  4.063362408433351 3.796216509048264 1.020033998130984  3.982754745937776 3.859892640190606 1.105408098682956  3.941884822456843 3.775027366646086 0.9793021135572931  4.066345602210845 3.863747834220761 0.974130170672052  3.988185798351529 3.930169540811651 1.063126334183889  3.945386218938568 3.840716094466235 0.9290998177645479  4.069317617527465 3.931213373514891 0.9282502549365373  3.993622789497401 4.000402773556885 1.020863538509163  3.948860932595968 3.906331897206754 0.8789243917472892  4.072278385642289 3.998663017951587 0.8824048374789772  3.999082999559012 4.070619609823418 0.9786474328484638  3.952302194647454 3.971891868749494 0.8287874394634251  3.511517512117915 3.322787742548778 0.8999018652337446  3.588560958859979 3.42594012214533 0.9650718213152492  3.646918929858691 3.33001940675391 0.9004691850861948  3.647040596742558 3.368426197089497 0.8258154306616122  3.590181783458994 3.475062424138547 0.8964795986506564  3.510398687848614 3.359176286199274 0.8243143809239407  3.509448877178209 3.395402847067939 0.7487838395477394  3.591953688158991 3.523993605002844 0.8279674512333594  3.647322881677399 3.406628153438631 0.7512835989696642  3.647647647309975 3.44468633057993 0.6768185146595115  3.593762929102924 3.572790224754173 0.7595279994241251  3.508556777366187 3.431495288797144 0.6733501999861553  3.595542509637744 3.621489012764939 0.6911396453792104  3.507631233729533 3.467491076198367 0.5979684371340185  3.647942731551888 3.482620944566297 0.6024364831313659  3.597230214744755 3.670117706393692 0.6227957372601054  3.506602754394577 3.503424110372953 0.5226341338548032  3.648138196172595 3.520472902351038 0.5281130505875464  3.598768046097824 3.71869386395531 0.5544811658464326  3.505399101686442 3.539334628729083 0.4473313983107071  3.64817914804955 3.55828150023294 0.4538532727949677  3.722150852668974 3.025328029388652 0.8162656323410604  3.825497730722695 3.170559946372454 0.830524936866567  3.855976599379781 3.042696080718812 0.8087432398391544  3.845184779579091 3.052093179773321 0.7299172408399719  3.819694539218697 3.193127185184028 0.7517648164465378  3.717385575816528 3.03136733852616 0.7367612734449445  3.834474024867039 3.061436868657389 0.6513024694563077  3.814001527133627 3.21558721435092 0.6731698539744165  3.712692393589652 3.037321700532373 0.6574393264470378  3.823803577156641 3.070685881123105 0.5728731881528679  3.808367856621188 3.237908244736189 0.5947318971638968  3.708039097034201 3.043178682832513 0.5782840791996033  3.813154866962269 3.079859545839802 0.494566055722708  3.802733957204932 3.260104526630825 0.516403241612171  3.703425520406717 3.048977531395446 0.4992388214497565  3.80251017659085 3.089005134860646 0.4163419765803373  3.797060590219882 3.282241537300454 0.4381609908706087  3.698801969886401 3.054751946766937 0.4202857295767784  3.791810095424464 3.098125269887166 0.3382018200612978  3.791277474873271 3.304350378947188 0.3599972154496439  3.694048339761023 3.060522073309135 0.3414431730927923  3.692477864614612 3.618227034307833 1.15938709504195  3.830496660259865 3.630525602130526 1.190727329277817  3.791202834654334 3.545393849999184 1.079275782092797  3.794945857606941 3.607547525234301 1.022623476334862  3.836124684937444 3.69914451340782 1.143247697548408  3.69914801365655 3.684524647212672 1.107904095818776  3.798745583471922 3.669483412717658 0.9659907226962552  3.841772607943631 3.767556490987258 1.095763523028808  3.705845320659209 3.750631011442995 1.056423121561937  3.802544811375585 3.731264581136482 0.9094139283895938  3.847411744600024 3.835832646551498 1.048285434563335  3.712524441506969 3.816604228116699 1.004982232804214  3.806320730417269 3.792938061390375 0.8528735990905361  3.853038578404292 3.904015565911011 1.000817785367405  3.719182439393344 3.882485428565706 0.9535631061284778  3.810049069139841 3.854537927992062 0.7963613739180102  3.858647282501265 3.972137301583453 0.9533636549129701  3.725808486819928 3.948301218014351 0.9021547405299291  3.81370790530106 3.916087262142919 0.7398583325655452  3.864222336607093 4.040233055435963 0.9059313819757229  3.732383134400222 4.014074537921222 0.8507567345323257  3.739834660808588 3.690161040573626 1.268867674987203  3.748488310007684 3.761473443459082 1.225959936328856  3.757106998644006 3.832617976191251 1.183030744711913  3.765696714849381 3.903645583811699 1.140100862940664  3.774271179934011 3.974596110559133 1.097176030359337  3.782841877116125 4.045500654368438 1.054263045430152  3.791416149370916 4.116384806366124 1.011366646359243  4.527220422294955 3.682988558526347 0.8996503002146006  4.382683484342874 3.653845689331687 0.84612249642743  4.471533304277458 3.581021700859688 0.777174683504491  4.381053097060618 3.594138060406081 0.8996527263474765  4.474422417677233 3.633612415498395 0.7174514836386342  4.529393858979014 3.744549664911509 0.8506146747443049  4.384305872024428 3.713411408262448 0.7926354316246005  4.477289655085895 3.68608981595069 0.6577974253880969  4.531574233368245 3.806029400991768 0.8016394988952265  4.385916393750235 3.772884310506581 0.7392073086913797  4.480138562014515 3.738496151639822 0.5982077896515059  4.533762810044854 3.867459385874229 0.752767685220836  4.387514775982454 3.832280234733123 0.6858573515403308  3.501841348219151 3.855434378488336 1.566056084783814  3.539687544942828 3.8775960692543 1.679799118500567  3.625069751179117 3.847187753636887 1.612234357127062  3.639375124600928 3.925512660901514 1.595407304177248  3.555264915891965 3.955881878704288 1.666839521673783  3.516240454620919 3.93330025175322 1.544456968293553  3.6535179445737 4.003777333563609 1.578454232348073  3.263255724843749 3.225376329506217 0.541695067250479  3.153114093005012 3.223400514020298 0.53818831737998  3.179210633050573 3.048753534937278 0.5369925316448753  3.148834269327297 3.210739799693883 0.6184374349268236  3.259455795527118 3.239276840710881 0.4618747065386433  3.157322423823767 3.23603679064496 0.4579790727244445  3.179265274461393 3.051756441736649 0.458180046726125  3.255515279679896 3.253211069252856 0.3820969109535029  4.415991106003391 3.740709766479607 0.9660849628820627  4.412836494138562 3.675465204125989 1.011051398294802  4.419149250820088 3.805841987275986 0.9211299909125907  4.422320542106334 3.870912434809146 0.876225500629457  4.425519581987579 3.935937297092852 0.8314093467479701  3.239263910231541 3.349088519194785 0.7368114742815228  3.144532497910007 3.198003884562981 0.6987417223092661  3.270709358430306 3.197427649178184 0.7014940657473254  3.140281639679571 3.185164003270518 0.7791043981805464  3.236750285246073 3.323709396974636 0.8159203892989484  3.266989047819271 3.211445226513176 0.6215611611213063  3.241830005024206 3.374359412885346 0.6577650955905606  3.24437305934494 3.399550670860496 0.5787688684179455  3.246833344762238 3.424693996730288 0.4998094084132753  3.249149941308713 3.449838700551068 0.420857994676729  3.94446122709132 3.224939362297433 0.8440949654676873  4.01383987976542 3.32801234816812 0.8828398576782185  4.074724468402888 3.194064592361367 0.820421932406972  4.068116051338829 3.22525692362304 0.7450956609487668  4.010055026216699 3.37241461101251 0.812644762923654  3.938553427753323 3.256232043937028 0.7680531085193224  3.932795919891823 3.287367341424658 0.6922416014065642  4.006417711011585 3.416621162608326 0.742605005560574 
[...]
<PointData  Vectors="f_24"> 
<DataArray  type="Float64"  Name="f_24"  NumberOfComponents="3" format="ascii">1.2262582448541089e-02 3.3616920179183586e-02 5.6318769270190694e-02  1.1419142793410390e-02 4.5207342010403453e-02 5.7406033591386497e-02  1.1774302566488239e-02 2.8305675567890338e-02 5.7951933368744935e-02  1.0000752695779644e-02 3.9774484877528604e-02 5.0400222346241329e-02  1.1095421212141680e-02 2.7385539093913686e-02 5.0785117439321861e-02  1.0884035333776895e-02 2.2164850574451497e-02 5.3080329265469399e-02  1.0086290690760877e-02 1.7071048008637558e-02 4.8009699851926865e-02  8.7334477118627216e-03 3.5264852293986605e-02 4.3374525001740431e-02  1.0072256946450470e-02 2.2201100232385793e-02 4.5131823946605684e-02  9.3712713668431622e-03 1.2798163803564798e-02 4.2659844112378345e-02  7.5633544277032422e-03 3.1449161146764722e-02 3.6223743292063862e-02  9.1622380475190127e-03 1.7824985412537638e-02 3.9268627526222059e-02  8.7164217517089089e-03 9.1506622786746167e-03 3.6924585959545522e-02  6.4607435981169220e-03 2.8136727636687293e-02 2.8779473633022225e-02  8.3298577569871878e-03 1.4056054075547244e-02 3.3076734761103961e-02  8.1037032693849452e-03 5.9633396924083414e-03 3.0718827264808238e-02  5.4005454127543095e-03 2.5194674891468122e-02 2.0913244069269147e-02  7.5481313076051753e-03 1.0736298216126278e-02 2.6449150462001334e-02  7.5193047423792372e-03 3.1110628033106003e-03 2.3960857776628201e-02  4.3683155038137331e-03 2.2505897095994463e-02 1.2543525804083090e-02  6.8003475287902486e-03 7.7516139618826439e-03 1.9274439992451969e-02  1.0563269786618659e-02 4.1457650369723993e-02 6.0045031429700323e-02  1.1363025961743061e-02 2.2350323249121895e-02 5.9547206786622689e-02  1.0776020658879610e-02 1.6222338911321001e-02 5.5426378024820977e-02  9.4370404386763512e-03 3.5632225988840499e-02 5.3493097188116130e-02  8.4005473933931353e-03 3.0805190728607115e-02 4.6914928991637350e-02  1.0241554596386707e-02 1.1217378912484791e-02 5.1070333584948106e-02  7.4627478554011584e-03 2.6711863258778966e-02 4.0199456610949355e-02  9.7589073635702493e-03 7.0673578245579816e-03 4.6361542015167366e-02  6.5861437819617003e-03 2.3162923339269170e-02 3.3192752329500426e-02  9.3236949580435997e-03 3.5609270531692366e-03 4.1216579580192612e-02  5.7481192871707294e-03 2.0016588579168076e-02 2.5773692394744346e-02  8.9278672757551504e-03 5.3414747095489727e-04 3.5572648844556715e-02  4.9220186398128132e-03 1.7146615322613423e-02 1.7844942323080534e-02  8.5555697851780327e-03 -2.1378456969564632e-03 2.9395379466400879e-02  1.3839553617791269e-02 7.0631953133527487e-03 5.4039827994057654e-02  1.2889351027302797e-02 1.9753761431672512e-02 5.5390916832159284e-02  1.2653333353020773e-02 1.2644970792701916e-02 5.6906555560057921e-02  1.2263254369675203e-02 6.6899921662256102e-03 5.4326538148213303e-02  1.2099288354178365e-02 1.3619169729056101e-02 5.1700053490837998e-02  1.3534295587743458e-02 1.2892149047300085e-03 5.2430590007687544e-02  1.1944772621852029e-02 1.9301717080343862e-03 5.1353545420597210e-02  1.1447206528060810e-02 8.6506318135339128e-03 4.7656005176678902e-02  1.3308590098511163e-02 -3.2557030152928746e-03 5.0309695222562789e-02  1.1670972613663467e-02 -1.9474023528915703e-03 4.7877527584799871e-02  1.0870627941527747e-02 4.5243832978647648e-03 4.3210180511957068e-02  1.3140142950707309e-02 -6.8973444695220017e-03 4.7610845577752532e-02  1.1434047366281305e-02 -5.1600278223064124e-03 4.3865829685353235e-02  1.0354478552253681e-02 1.0377264949718292e-03 3.8286524935810209e-02  1.3013009153354137e-02 -9.8714152407954978e-03 4.4310142403598145e-02  1.1226931391074505e-02 -7.8764452794841504e-03 3.9291825532284885e-02  9.8834569965810491e-03 -1.9691255570786605e-03 3.2823552886871381e-02  1.2916664264816323e-02 -1.2348298871060988e-02 4.0400524543005925e-02  1.1051584047237472e-02 -1.0214764303136857e-02 3.4124019885616017e-02  9.4507040581533561e-03 -4.6565597564813032e-03 2.6803466062766405e-02  1.2849846873998021e-02 -1.4429644633505524e-02 3.5851208394175584e-02  1.9631959531393624e-02 -2.7179125185966616e-02 3.3424700019544111e-02  1.8106234873896922e-02 -1.7958275887201447e-02 4.0889492617140456e-02  1.8529743911570314e-02 -2.4318413817922574e-02 3.7551260150997953e-02  1.9818220813969424e-02 -2.5114748137655712e-02 4.1755752616130910e-02  1.8823501240203086e-02 -2.0620092386575958e-02 4.3978893363621215e-02  2.0997396232005711e-02 -2.7379906663052265e-02 3.7845905130825357e-02  2.2285153222998691e-02 -2.6773417726103661e-02 4.0795472858426704e-02  1.9526286256795249e-02 -2.2257804506958669e-02 4.5861397866836462e-02  2.1053438951763908e-02 -2.5000489079827343e-02 4.4428944922842703e-02  2.2271913305383660e-02 -2.4277553680024707e-02 4.5992872070511788e-02  2.0279343080894741e-02 -2.3142634184788669e-02 4.6708795566642779e-02  2.3542344865436451e-02 -2.5623865065567610e-02 4.2600854795465139e-02  2.1040035238937653e-02 -2.3497494193325107e-02 4.6668127648292562e-02  2.4791417243210000e-02 -2.4049124403355864e-02 4.3475670111127539e-02  2.3457820112570697e-02 -2.3074105573981540e-02 4.6650905585041529e-02  2.1817537380088358e-02 -2.3443439961252369e-02 4.5847283550631134e-02  2.6040093778356036e-02 -2.2114247424339321e-02 4.3564002408354903e-02  2.4639124466410641e-02 -2.1481890341435005e-02 4.6544689658554496e-02  2.2580301842638810e-02 -2.3037373385525989e-02 4.4330333334278736e-02  2.7246736980229561e-02 -1.9866953263883637e-02 4.3001137291261204e-02  2.5857556630689182e-02 -1.9627833526119739e-02 4.5874519937498484e-02  1.9829440699438244e-02 -4.1960527613377131e-02 1.5873239500345169e-02  1.8247055016943316e-02 -3.1437652772900587e-02 3.1809736444027521e-02  1.8551642145256685e-02 -3.8518364278608809e-02 2.1935730625227936e-02  2.1281507386415786e-02 -3.3409399374450373e-02 2.5877830143120114e-02  2.0405438190346417e-02 -2.8847448503653665e-02 3.6493112745297311e-02  2.2319657729832281e-02 -3.6031348147701925e-02 1.9913110155460018e-02  2.3715513266504701e-02 -2.8595464415664542e-02 2.8529080807761946e-02  2.2395236173556758e-02 -2.6124357172287296e-02 3.9529777382938308e-02  2.4761063451244895e-02 -3.0571709921295997e-02 2.2608705339572356e-02  2.5999053617754501e-02 -2.3762487054280683e-02 3.0128461983351965e-02  2.4264026744988960e-02 -2.3096444357019737e-02 4.1408111492759372e-02  2.7061507907817049e-02 -2.5151036541202501e-02 2.4268890931927398e-02  2.8173523420823025e-02 -1.8737715008092508e-02 3.0897574253077570e-02  2.6046910157234437e-02 -1.9735426812097060e-02 4.2399849468078864e-02  2.9266207327986123e-02 -1.9577851556242747e-02 2.5112757033108619e-02  3.0250739727358401e-02 -1.3436428155820371e-02 3.1002685308973890e-02  2.7760148942847715e-02 -1.6038337887180697e-02 4.2675055209533505e-02  3.1410865707167314e-02 -1.3740991564225110e-02 2.5268929815052767e-02  3.2178293139276913e-02 -7.8139107407597472e-03 3.0482882995535501e-02  2.9425099990138724e-02 -1.1998301058958749e-02 4.2332074386535558e-02  3.3557656492560754e-02 -7.5476588115745190e-03 2.4764295206093113e-02  1.5545544501810341e-02 5.8740535306786501e-03 4.9448392210730600e-02  1.4220643456324801e-02 1.2137482323623499e-02 5.2509707547631713e-02  1.5354010200761957e-02 -1.4067499255004216e-03 5.0034924584063681e-02  1.5250091287271611e-02 -6.6110495618486361e-03 5.0008162995750650e-02  1.3557172865198351e-02 6.1158249631099526e-03 4.9981422302429544e-02  1.4950706631798162e-02 9.2238447065009585e-05 4.7925477721764538e-02  1.5255536618653675e-02 -1.0551002364897012e-02 4.9190236901880360e-02  1.3033351776274011e-02 1.2809782969411881e-03 4.7018402745796085e-02  1.4550364916150119e-02 -4.4430361186561232e-03 4.5902896096426393e-02  1.5326077565841697e-02 -1.3597829071001316e-02 4.7652486258880807e-02  1.2608725813635591e-02 -2.6604246651422254e-03 4.3553736101223886e-02  1.4258105019608105e-02 -8.0882198121182015e-03 4.3277578826278910e-02  1.5440723007811023e-02 -1.5994027537091952e-02 4.5415895349917960e-02  1.2255178082219468e-02 -5.9407644116293845e-03 3.9533525031616119e-02  1.4044867161310674e-02 -1.1080243175653785e-02 4.0023695269924116e-02  1.5585267209234137e-02 -1.7902885799293874e-02 4.2498550767284607e-02  1.1948847995554821e-02 -8.7313527416089266e-03 3.4919969354972491e-02  1.3888864855453285e-02 -1.3589778458648043e-02 3.6130673058052301e-02  1.5751013624260107e-02 -1.9443239219666276e-02 3.8926109941499566e-02  1.1654252167123059e-02 -1.1167156542473156e-02 2.9675193605780255e-02  1.3766694869367343e-02 -1.5729443739997080e-02 3.1559170940264059e-02  1.4477058005953298e-02 1.9578613646331421e-02 5.1111452648347995e-02  1.3420519218327218e-02 1.3498284040239479e-02 4.7388932826792553e-02  1.2556455888083953e-02 8.5276629563849661e-03 4.3339328338199139e-02  1.1825673803663188e-02 4.3998576901969517e-03 3.8881224560857991e-02  1.1190682130206594e-02 9.0277272891713838e-04 3.3935726127840612e-02  1.0621689059416068e-02 -2.1288150501014968e-03 2.8436565858208258e-02  1.0094591865515430e-02 -4.8278981416936036e-03 2.2336593854835791e-02  1.0697076924208359e-02 -6.4610201467606466e-03 5.9972521108977654e-02  1.2580133144413128e-02 -1.0924949453588706e-02 5.8874469879835252e-02  1.3283520192371241e-02 -1.3840007579923937e-02 6.2494776665224135e-02  1.2229275348804939e-02 -8.1572094414355048e-03 6.0571447662906563e-02  1.3979320322285724e-02 -1.5334143127682038e-02 6.1043509059518906e-02  1.0984891735952797e-02 -9.0703403737608674e-03 5.6945706902750769e-02  1.2974607445526892e-02 -1.3058791768539153e-02 5.6523063257011008e-02  1.4769084600733815e-02 -1.6359043007599824e-02 5.9010061470740179e-02  1.1351228589227385e-02 -1.1199639453295853e-02 5.3360910684856454e-02  1.3431534546161032e-02 -1.4711642464734958e-02 5.3590519666460619e-02  1.5673954680091733e-02 -1.7018820637257518e-02 5.6491217400515353e-02  1.1807438900452140e-02 -1.2929436920693118e-02 4.9233651969239504e-02  1.3967300743636144e-02 -1.5993715611142781e-02 5.0173163331241478e-02  1.4904880313547779e-02 5.1894881209810735e-02 4.7522130710477589e-02  1.4393293585885442e-02 6.7433051000767755e-02 4.8508143202927130e-02  1.4065523489617626e-02 6.0871998590701207e-02 4.9860822546985914e-02  1.2002872310903311e-02 5.6820920787242740e-02 4.1366638134338600e-02  1.2265182981124797e-02 6.4096472556032930e-02 3.9753653210866088e-02  1.3000819953196402e-02 4.7309633784306526e-02 3.9817702041800969e-02  1.0125329213179504e-02 5.3533636721618330e-02 3.3227589761032378e-02  2.9959523058482398e-02 -2.3941523912910875e-02 2.6208375292600481e-02  3.0765791830564198e-02 -2.4288131541609595e-02 2.3143235062203213e-02  3.2315433390441982e-02 -2.4797516518730030e-02 8.9245644459615987e-03  2.9037214718599092e-02 -2.9102334854532241e-02 2.1610806739262377e-02  3.1796680420336051e-02 -1.9092899768927730e-02 2.6785492944914471e-02  3.2596565154570482e-02 -1.9189661576130286e-02 2.3912850166951796e-02  3.4366776881010801e-02 -1.8177382118549055e-02 9.4760753878883868e-03  3.3623599803278260e-02 -1.3885496079508217e-02 2.6636866398675740e-02  1.0330821281409960e-02 -2.2721717463740684e-03 5.5353790699267519e-02  1.0342757780127498e-02 1.3547020333172569e-03 5.8628633525029304e-02  1.0360582139608821e-02 -5.2397750398693746e-03 5.1532281769962815e-02  1.0451217539841315e-02 -7.7121169363934417e-03 4.7170215716479010e-02  1.0652434887669241e-02 -9.8037110354650923e-03 4.2291135365594805e-02  2.4862560810821957e-02 -3.0387352141179987e-02 3.1937552394421989e-02  2.7367171215878564e-02 -3.3715388396880611e-02 1.9202975392091683e-02  2.6358776472457074e-02 -3.2780632832304070e-02 2.2689571030427035e-02  2.5725376181894084e-02 -3.8255893343878820e-02 1.5728228790577906e-02  2.3493713584215904e-02 -3.2367251609267650e-02 2.8494716280890561e-02  2.8156191137100148e-02 -2.8483720717453559e-02 2.4887064133590112e-02  2.6252782479457878e-02 -2.8025022351864902e-02 3.4222229043788063e-02  2.7696801612377385e-02 -2.5296654458456341e-02 3.5577562339985346e-02  2.9214178341967930e-02 -2.2219348248204977e-02 3.6137925878449238e-02  3.0849336706912103e-02 -1.8810162599060973e-02 3.5935294148978031e-02  1.6891612811096159e-02 -2.5893782332738580e-02 3.9208318467893764e-02  1.5695739673727754e-02 -1.8462243610469446e-02 4.7507906473136227e-02  1.6454307437228043e-02 -2.5531568913963583e-02 4.1112829912487631e-02  1.8392855285547391e-02 -2.4420199263848266e-02 4.5496287819403673e-02  1.7088601043569324e-02 -2.0009717057966916e-02 5.0927176223634844e-02  1.8833197365673994e-02 -2.5139152608002958e-02 4.3627166892596075e-02  2.0555239278741821e-02 -2.3835552637833619e-02 4.6522634845130265e-02  1.8298737301010639e-02 -2.0701228352812982e-02 5.2854825723908053e-02  2.0137789082424036e-02 -2.2807556362360756e-02 4.8358414839026795e-02  1.9451166117547530e-02 -2.0728745752667654e-02 5.3762143657519544e-02  2.2186796947868341e-02 -2.2058727450980607e-02 4.8239464220778058e-02  2.1794604661511431e-02 -2.0780123399087969e-02 5.0043633438667828e-02  2.3725955153105872e-02 -1.9884258209339239e-02 4.9079689920757015e-02  2.0538843989079587e-02 -2.0263023032006302e-02 5.3827824190560349e-02  2.3385139664400159e-02 -1.8414264470593140e-02 5.0866158906976801e-02  2.5192312503502182e-02 -1.7339189771454794e-02 4.9216876319703604e-02  2.1578607997505040e-02 -1.9380665983129798e-02 5.3211314289913769e-02  2.4899507513155249e-02 -1.5711219873631915e-02 5.1016025015428221e-02  2.6570333372937693e-02 -1.4442752433827468e-02 4.8705886957534264e-02  2.2562882002219561e-02 -1.8195363476476521e-02 5.2113207656272240e-02  2.6280161116963203e-02 -1.2632211215044591e-02 5.0509490363524666e-02  2.0672578954439410e-02 -2.7432390334284688e-02 3.0981322006444656e-02  1.9147070410779992e-02 -2.0970129814039944e-02 3.7405372922951270e-02  1.9941917967991427e-02 -2.3077194909788452e-02 4.0884985477194762e-02  2.1798297920336565e-02 -2.7885403972375048e-02 3.5482138405911592e-02  2.0740812372845419e-02 -2.4241974129506110e-02 4.3140977451732294e-02  2.2815067477445689e-02 -2.7563784214777572e-02 3.8546735633910298e-02  2.1559890093584722e-02 -2.4719348739731379e-02 4.4319233542430975e-02  2.3881548209909568e-02 -2.6780352122265934e-02 4.0449745382562713e-02  2.2413627407040539e-02 -2.4704216131608035e-02 4.4586084852882131e-02  2.4995136690799731e-02 -2.5602922555169036e-02 4.1398458830183664e-02  2.3301598787019859e-02 -2.4307580304641856e-02 4.4042437653897162e-02  2.6162639094615910e-02 -2.4089255012410812e-02 4.1519602679189742e-02  2.4162568737541929e-02 -2.3542027637060363e-02 4.2749664282123616e-02  2.7354695160843566e-02 -2.2237700192640226e-02 4.0872101473658586e-02  1.4635877508456015e-02 -3.5570102140002713e-03 5.1995411446287394e-02  1.3432888028373705e-02 2.0074441934475767e-03 5.5367535976017089e-02  1.4394914337480249e-02 -7.9878225033681582e-03 5.2561120199921263e-02  1.5052329013510973e-02 -1.2067676556417719e-02 5.3890084037930511e-02  1.3523083905085876e-02 -3.3366375549159963e-03 5.4692058685698972e-02  1.4886378105759070e-02 -8.5364634032207322e-03 5.2362662931468226e-02  1.5139705562333036e-02 -1.2161969104192800e-02 5.1929502581767283e-02  1.3609975218778200e-02 -7.3866389322345353e-03 5.3363906550307601e-02  1.5651187435675642e-02 -1.5035011793840690e-02 5.4331334349532051e-02  1.5423242225416165e-02 -1.4906976278516467e-02 5.0761410714597034e-02  1.3711285775436736e-02 -1.0560630633076761e-02 5.1362927914410404e-02  1.6218234353608606e-02 -1.7088474208760127e-02 5.3926688128517794e-02  1.5726383637256057e-02 -1.6990713429582610e-02 4.8893835906443965e-02  1.3825878778689096e-02 -1.3086460554702089e-02 4.8709353004442055e-02  1.6775662400436046e-02 -1.8512937147404211e-02 5.2770716841874746e-02  1.6039050408579555e-02 -1.8570695682552166e-02 4.6361723467970815e-02  1.3953781823278064e-02 -1.5121336802536660e-02 4.5430418803854906e-02  1.7320273723768962e-02 -1.9452171958653376e-02 5.0945370031660740e-02  1.6345515213830181e-02 -1.9808368909111279e-02 4.3233340858460791e-02  1.4084607547649302e-02 -1.6752135090911242e-02 4.1554047705523282e-02  1.7835975427850030e-02 -1.9976045864304865e-02 4.8446411213241294e-02  1.9593894450165180e-02 -3.4454307389645514e-02 2.6783727240460832e-02  2.1632798315550355e-02 -3.1147644810855558e-02 3.1742344798572873e-02  2.3600821942646795e-02 -2.7757494137726924e-02 3.4884902884041571e-02  2.5480657243702555e-02 -2.4162602492510780e-02 3.6890313409857066e-02  2.7294869669724400e-02 -2.0308806142164196e-02 3.8004103154382060e-02  2.9069497009649007e-02 -1.6157896785128037e-02 3.8380903473838594e-02  3.0856233509591904e-02 -1.1730846827632920e-02 3.8241701833932919e-02  1.9119455693916071e-02 -1.5998033273650254e-02 3.8952740128185379e-02  1.9446251519492461e-02 -1.9340135214887734e-02 4.1503528915290862e-02  1.9886647955855215e-02 -2.1678824156581289e-02 4.2948379607387226e-02  2.0425552850355085e-02 -2.3225861408425245e-02 4.3428439856348047e-02  2.1048415105008152e-02 -2.4178349728688379e-02 4.3067924410018950e-02  2.1744155962557642e-02 -2.4689670571288166e-02 4.1946859868650502e-02  2.2511922574042432e-02 -2.4874711879562184e-02 4.0041535279090927e-02  1.7012407927320911e-02 -2.1519911193227090e-02 4.2275609643438274e-02  1.5881475974123097e-02 -1.0511656927758623e-02 4.7969898993005571e-02  1.5504997073669568e-02 -1.3322918007464700e-02 4.8648761677791523e-02  1.6410185402691454e-02 -1.6454579231515793e-02 5.0905326742454710e-02  1.6407661176912870e-02 -1.4416355125251048e-02 4.9785952273972728e-02  1.8367603273455407e-02 -2.2591249816247432e-02 4.6230400256846077e-02  1.6965431474638505e-02 -1.7224530206269014e-02 5.0642124250765988e-02  1.9632329369208751e-02 -2.2852402055359385e-02 4.8650194997142231e-02  1.7198260457958740e-02 -1.8515080909195510e-02 5.2268599844321938e-02  1.7529825906825398e-02 -1.9140700293929180e-02 5.0604729902203008e-02  2.0857683025811743e-02 -2.2461046471257785e-02 4.9993421415730419e-02  1.7954492232757441e-02 -1.9806386544925489e-02 5.2607241069981568e-02  2.2044041741825469e-02 -2.1597003570916606e-02 5.0443240735310590e-02  1.8115180052862598e-02 -2.0417374886725726e-02 4.9777968884557343e-02  1.8696134359655229e-02 -2.0533067434842966e-02 5.2113037606676509e-02  2.3182654737724056e-02 -2.0332311806803970e-02 5.0158477341265072e-02  1.8693056571558862e-02 -2.1206058680932408e-02 4.8242984578482133e-02  1.9405815524616871e-02 -2.0825003945417832e-02 5.0901346984281420e-02  2.4261209958831756e-02 -1.8743856196816424e-02 4.9229005587184634e-02  1.9278364683763333e-02 -2.1589986888943393e-02 4.6001886549645647e-02  2.0055576621213496e-02 -2.0727170238649811e-02 4.9039674247122016e-02  1.7956766729622604e-02 -1.2311555602570589e-02 4.2543308869335959e-02  1.6713065792756884e-02 7.6216695450370003e-04 4.6324075423118678e-02  1.6734361209679222e-02 -6.0382385455841261e-03 4.6241232143240295e-02  1.6689027660945689e-02 -1.0899139768201074e-02 4.6984957469687311e-02  1.6273619063689421e-02 -4.6932354139429724e-03 4.5687353862451499e-02  1.8190315575503692e-02 -1.6265200628464715e-02 4.4388063749617693e-02  1.5986561953392459e-02 -8.9745329843770021e-03 4.4425688374062230e-02  1.8508647046709684e-02 -1.8997223536129395e-02 4.5203411949803964e-02  1.6776100859040036e-02 -1.4418891520290345e-02 4.6804466902827968e-02  1.5821321307850491e-02 -1.2343469089858996e-02 4.2488828017850443e-02  1.8905104979727326e-02 -2.0941590654535297e-02 4.5095393624486835e-02  1.6944543175285414e-02 -1.7077944494414524e-02 4.5828750575812455e-02  1.9358120096220510e-02 -2.2313379967427667e-02 4.4157389188130600e-02  1.5755996230592161e-02 -1.5066367394547113e-02 3.9866929496304625e-02  1.7180076369580105e-02 -1.9109343506203833e-02 4.4104107289628054e-02  1.9856726837211486e-02 -2.3251761028809038e-02 4.2448156847489815e-02  1.5758293829936782e-02 -1.7310900404869337e-02 3.6569190127108533e-02  1.7458896199283855e-02 -2.0673115741461249e-02 4.1658846432977431e-02  2.0357087501839195e-02 -2.3872964671588223e-02 4.0050518198474883e-02  1.5823303253635481e-02 -1.9169259474000694e-02 3.2553806363376181e-02  1.7753729770019318e-02 -2.1925413484644777e-02 3.8592725859399699e-02  2.099