<?xml version="1.0"?>
<VTKFile type="UnstructuredGrid"  version="0.1"  >
<UnstructuredGrid>
<Piece  NumberOfPoints="735" NumberOfCells="3101">
<Points>
<DataArray  type="Float64"  NumberOfComponents="3"  format="ascii">4.175382251215987 1.89066375862255 1.144366198394927  4.313284334003245 1.95468364794356 1.106753064570696  4.287614506885986 1.829307452007339 1.165007799849791  4.284912375386953 1.805585176997481 1.112407859812531  4.311323540088407 1.930539169255838 1.053571194242713  4.171890653569598 1.866609157204545 1.091800203606474  4.168364479207303 1.842544222456423 1.039252785929369  4.309371829710147 1.906404750164555 1.000392487616996  4.282192576205251 1.78186608842668 1.059823247876976  4.16482307413039 1.81848097355563 0.9867364924676982  4.307424935169019 1.882281016172825 0.9472370215204715  4.279467639224284 1.758152344116575 1.007264227228767  4.161283360985188 1.794415780014712 0.9342539410393367  4.305478056876718 1.858155126212672 0.8941157115568364  4.276749072752347 1.73443750465004 0.9547367328162232  4.274047902031289 1.710709729549123 0.9022383728245272  4.303527175555101 1.834007721261991 0.8410319034833015  4.15776291719644 1.770342048045877 0.8818051377582298  4.27137484032178 1.686959915350061 0.849761111743159  4.301565867489618 1.809818242556465 0.7879790960280576  4.154286378044515 1.746253364326318 0.8293729132263149  4.188180891407814 2.014385291188322 1.085720962555146  4.184952370527328 1.989495563592784 1.032372570798143  4.18170423350564 1.964608741176338 0.9790364919870546  4.178445376738425 1.939730825804205 0.9257257894549836  4.175183227995509 1.914851264505092 0.8724505589401018  4.171926502057516 1.889950586115682 0.8192138501450428  4.168686688428177 1.865004070754936 0.766008072549753  3.889196771455666 2.429817746526651 0.9168041119062502  4.009979877976614 2.539324876406854 0.8506611535304324  4.024546835361051 2.399958985081481 0.9127232670111758  4.017865423969321 2.371828261720735 0.8529495698804811  4.002484037568657 2.513962682106721 0.7858152364855281  3.880408277124418 2.402552812243542 0.856223942373469  4.011140640514372 2.343760007280813 0.7931911044012412  3.994962555855104 2.488668938732329 0.7210090798086518  3.871573818584828 2.375333489240692 0.7956941760756397  4.004379002071939 2.315748295473622 0.7334632534375121  3.987408951817756 2.463443167766464 0.6562560149988848  3.862695812267338 2.348173330967778 0.7352141193753393  3.997605383888107 2.28774995111154 0.6737879384488289  3.979848346736107 2.438233953929716 0.5915687171051813  3.853806355374683 2.321035106629362 0.6747948375061561  3.990841804651547 2.259715987443957 0.6141813765250402  3.972296772987649 2.412989219278312 0.5269577269117294  3.844941035992138 2.293876469393893 0.6144519743960768  3.984126657207476 2.231585840564439 0.5546556512160238  4.38853744187291 2.426156435544905 0.8865530472082751  4.393545286871927 2.573654749748284 0.8300678393413992  4.506103329340281 2.463048783749543 0.8806729050420987  4.511400237478399 2.438780279493171 0.81945646105428  4.397873331625642 2.551121362766317 0.7647198882152438  4.391317298279108 2.400107341994399 0.8260143930921933  4.51681371126633 2.414601995763615 0.7582724677685134  4.402292402799242 2.52868228799264 0.6994243435298292  4.394187966869479 2.374147298662178 0.7654802559528673  4.522276096308402 2.390503149748616 0.6971373577354718  4.406747463199887 2.506320968917198 0.634187471357393  4.397082825882157 2.348247647210023 0.7049799396154256  4.527720008563594 2.366431217217489 0.6360694760455742  4.411189026126294 2.483986722171002 0.5690215766019178  4.399955521386781 2.322363858654221 0.6445379345268188  4.533079805474897 2.342324694687852 0.5750838146660519  4.415558821083992 2.46161325624182 0.5039401485621138  4.402758195673483 2.296440227063772 0.5841754451583261  4.538287288746044 2.318112823829341 0.5141861675731786  4.419791549735211 2.439133486514415 0.4389483580676237  4.405436691305242 2.270415086103693 0.5239071869034657  3.68422890083767 2.21604337823327 1.041538996904296  3.802249177754729 2.246259520028435 1.014798859737778  3.821032046325574 2.137800910146742 1.061363168695634  3.815074387350271 2.112885909938997 1.006402622112045  3.795229880025774 2.220122032713872 0.9584134776115585  3.67812992576827 2.19098249996088 0.9852933282247315  3.80907314049061 2.087974150959856 0.9514840123998786  3.788170464831659 2.194001073860056 0.9020729192770331  3.910440066608796 2.766822875670182 0.7970906728574483  4.028803323536591 2.82020968875207 0.7695571735939716  4.030399465765532 2.686521714652442 0.8009631230390306  4.022918596592762 2.66723164601748 0.7303945385526197  4.020581163463466 2.812226201619986 0.6937874479839734  3.898892955286708 2.754031429861648 0.7236893894640636  4.015424020965329 2.64803708919117 0.6599307038554009  4.012353373937184 2.80426549898097 0.6181804502058688  3.887318224576136 2.741257931072743 0.6504451676916531  4.007938112192291 2.628903288624252 0.5895532494902581  4.004147806898046 2.796329974296385 0.5426975058527067  3.692523524596595 2.105751402063437 1.089595604993796  3.830615732682101 2.008693106768876 1.11869360717204  3.825561855411017 1.984612427160333 1.065178070237026  3.687159240396786 2.08185603130618 1.034748597837746  3.820465316114964 1.960522872576986 1.011711963937458  4.12509404424174 2.594050488010336 0.8204428841562328  4.147044570921853 2.720210414957314 0.7828190090472295  4.251684784106125 2.64697643801361 0.7989585081305701  4.252344559798495 2.627125021170759 0.7298418066435106  4.144300005948113 2.703954127891047 0.7106274882722377  4.121079041233517 2.571223024659433 0.7531641978715862  4.117078078219815 2.548478563117352 0.6859315470746443  4.141577389539635 2.687784455678855 0.6385670253176217  4.253062965415054 2.607366693859548 0.6607998306688034  4.11306741376513 2.525806956154203 0.6187484884269654  4.138869564778576 2.671674557508081 0.5665870154502056  4.253795665417316 2.587681878746967 0.591822717009896  4.109045835143018 2.503151424975075 0.5516324360261942  4.136162342130195 2.655584320560156 0.49468812963039  4.254518564635604 2.568017968665683 0.522919720842177  4.1050063923526 2.480455060994775 0.4845934448178809  4.133430284128532 2.63945334842906 0.4228721874344218  4.255193163157045 2.548311468011308 0.4541032026666169  4.100949475409069 2.457655237871305 0.417635756660329  4.130646709334458 2.623223257599005 0.3511399276368023  4.255779392433951 2.528503574510679 0.3853740087713396  4.157270809633245 2.253032849469797 0.9733073368015432  4.283944403628754 2.302813431351082 0.9425943210457987  4.300129579457895 2.196758518500936 0.9946817540427992  4.299164414965728 2.170172534600516 0.9392686634639342  4.283455266321806 2.275311332423289 0.8851927012167865  4.153632764049177 2.225335837956407 0.9170623593624309  4.283009725035512 2.24786975840924 0.8277747770462005  4.149982277075199 2.197681060834904 0.8608066396384852  4.298234130433654 2.143628549340646 0.8838434168442068  4.146317313163805 2.170057343416478 0.8045690006196781  4.282572152932168 2.220469813001637 0.7703813482054774  4.29731126715906 2.117111735031918 0.8284347974703935  4.142640077316231 2.14243860030084 0.7483726171640523  4.282116580178214 2.193074131736783 0.7130313011276634  4.296376033320735 2.090598082629641 0.7730670859189821  4.138952992125851 2.114782964629299 0.6922325885476455  4.281620358345024 2.16563823203322 0.6557465045506792  4.295409671788637 2.064046756463824 0.7177533035635354  4.135265212313808 2.087033741215078 0.6361601458215584  4.281059222333025 2.138099133496222 0.5985394755008135  4.294391659865945 2.037400788998611 0.66250363678878  4.553126423219736 1.978124203782479 1.093942150893964  4.671305420851776 1.935823748440096 1.114061357399178  4.545958308307686 1.838286747008111 1.153623612966995  4.545538662276956 1.815654063594681 1.100280431217855  4.672329811725517 1.914199555664368 1.0598704216899  4.553963869687109 1.955559356466814 1.04007417289765  4.545160806535909 1.79306284401024 1.046935640535787  4.554875209352629 1.93304573856936 0.9862035767341764  4.676816008203601 1.828080876226316 0.8433213679669948  4.55767479148659 1.865562564855907 0.8247791113846872  4.544107126595929 1.725325898550949 0.8870328304456183  4.675698409941736 1.849623465236483 0.8973979651511019  4.556760332623768 1.888076777998107 0.8785405633245522  4.543736708203984 1.702680472814293 0.8338041174850047  4.677875023709423 1.806464214700371 0.7893057407840383  4.558515568162045 1.84298301758724 0.7710791071547554  4.615240319780339 1.693851978698373 1.152615381052736  4.486834784825286 1.623434667613688 1.188363542036655  4.594372898710026 1.564665876213539 1.213216783957643  4.488420425721456 1.649057836744851 1.240669277372399  4.615769914066123 1.71811236162083 1.20560513771792  4.485248352015858 1.597837201314162 1.136055937198293  4.614742784512052 1.669634469689307 1.099617027326446  4.593546204276381 1.537417888039034 1.161009876382457  4.483667657804163 1.572253454706814 1.083761654076373  4.614266646327613 1.645436799518613 1.046627619799009  4.592731243157037 1.510186961860857 1.1088145591331  4.613805832912224 1.621237650836471 0.9936564314848761  4.482102725275703 1.546671665525076 1.031489509485633  3.772216234053265 1.78464237809274 1.222427929752079  3.909941565368353 1.80134118326845 1.205216736397037  3.879911983791691 1.693009300663115 1.257680573880072  3.876091763112589 1.668570655528784 1.205831375328916  3.905690599954012 1.777651496946229 1.15300093496204  3.768754945573423 1.761048538997195 1.170047253910697  3.765275670356658 1.73742992166969 1.117736908390859  3.901385306175412 1.753938614095191 1.10085262357456  3.872216470672256 1.644117719715147 1.154080360116898  3.761788271379834 1.713810953006724 1.065486468979468  3.897055725724497 1.730223089299819 1.048754323903086  3.868317182006574 1.619665587203199 1.102385198036219  3.758296800255274 1.690199126144188 1.013287689711134  3.892725055756764 1.706512450234766 0.9967
[...]
<PointData  Vectors="f_24"> 
<DataArray  type="Float64"  Name="f_24"  NumberOfComponents="3" format="ascii">1.6414014134473669e-02 -8.7763639227920506e-02 -7.9243996608836451e-02  1.5574125015984399e-02 -8.5127133707543268e-02 -7.0403706447120545e-02  1.5641916053066106e-02 -8.5703941943723397e-02 -7.4579887751496127e-02  1.8638712914409286e-02 -8.5541857522758558e-02 -7.5176882862466821e-02  1.8562693728040928e-02 -8.3408556709394815e-02 -7.1688067672701944e-02  1.9414239954260840e-02 -8.6921007326180577e-02 -8.0341716674296945e-02  2.2314979928958541e-02 -8.5747180950253132e-02 -8.0896485302716523e-02  2.1455216600642289e-02 -8.1441373529287167e-02 -7.2416225285557356e-02  2.1523350623376184e-02 -8.4976632644939973e-02 -7.5316089312210885e-02  2.5165021599883795e-02 -8.4286893860414519e-02 -8.0959829503937791e-02  2.4282345129827458e-02 -7.9235818259471055e-02 -7.2655815762780129e-02  2.4341897102307591e-02 -8.4103389297572911e-02 -7.5028272307886654e-02  2.8010847757383748e-02 -8.2569051972846266e-02 -8.0553199226367653e-02  2.7085740843386604e-02 -7.6780705935636892e-02 -7.2443432521543116e-02  2.7147368572020911e-02 -8.3006650545403904e-02 -7.4307760679565432e-02  3.0000363410446589e-02 -8.1743049921690500e-02 -7.3113054546832090e-02  2.9909694586896823e-02 -7.4052351872940556e-02 -7.1770574290251452e-02  3.0907460885997072e-02 -8.0605271663944517e-02 -7.9647758074126468e-02  3.2955571071987197e-02 -8.0372777661304295e-02 -7.1355816565478083e-02  3.2788045376737740e-02 -7.0997717698539867e-02 -7.0612563597566819e-02  3.3897289337838220e-02 -7.8385873918206783e-02 -7.8160418744286794e-02  1.6532996105120174e-02 -8.6745194957579305e-02 -7.3700285468318902e-02  1.9526581758312820e-02 -8.4255872889418215e-02 -7.5455275496230087e-02  2.2428459836745913e-02 -8.1606003349617928e-02 -7.6595195473470809e-02  2.5289145101369263e-02 -7.8759323026088485e-02 -7.7208106827410208e-02  2.8144178693254883e-02 -7.5641847741583570e-02 -7.7358606345205166e-02  3.1028185680103761e-02 -7.2157642651097115e-02 -7.7078003056049851e-02  3.3971461394247032e-02 -6.8180322642607288e-02 -7.6367719353708979e-02  1.9453414733998375e-02 -7.6270730121509020e-02 -4.7277003144130532e-02  1.9587341099538368e-02 -6.5442221225583935e-02 -2.7864423945771946e-02  1.8888848696560056e-02 -7.4867376236684546e-02 -4.4687195314254663e-02  2.1860819558761260e-02 -6.7557043070024053e-02 -4.7404792908645466e-02  2.2562195610123067e-02 -5.7017271464360843e-02 -2.9605299647483554e-02  2.2450483681023731e-02 -6.8573416628216907e-02 -4.9944788369956354e-02  2.4765667283211803e-02 -6.0803637290667067e-02 -4.9674170377513947e-02  2.5484497594673059e-02 -4.9382364276422272e-02 -3.1310292270020836e-02  2.5382425999389311e-02 -6.1536941937031180e-02 -5.2224587841735913e-02  2.7641686815424022e-02 -5.4238528207564231e-02 -5.1663109586823630e-02  2.8349860931273840e-02 -4.2032442517996121e-02 -3.3024943660116865e-02  2.8264512165010112e-02 -5.4710626545970455e-02 -5.4261317860219274e-02  3.0504004183308210e-02 -4.7530979851524775e-02 -5.3528477112603494e-02  3.1179936019676561e-02 -3.4602595394930179e-02 -3.4851513316475131e-02  3.1129420376871764e-02 -4.7751132721427919e-02 -5.6198221152401938e-02  3.3370585895466973e-02 -4.0380269304348744e-02 -5.5426836259151568e-02  3.3990785070228402e-02 -2.6819926695626183e-02 -3.6903292678070888e-02  3.4007780638025127e-02 -4.0347655029128231e-02 -5.8187803574481944e-02  3.6253857627159013e-02 -3.2516581089909423e-02 -5.7536970641375529e-02  1.6835860282785553e-02 -6.7224617153767430e-02 -2.6455074698749897e-02  1.7122843069530026e-02 -5.7970695763169135e-02 -8.8966875756276084e-03  1.5708411995601860e-02 -6.4250902457760870e-02 -1.7845455603015391e-02  1.8266506382301765e-02 -5.6949501006287678e-02 -1.9172123768010162e-02  1.9653826112452505e-02 -4.9910088286746021e-02 -9.5455542861282525e-03  1.9532111726934434e-02 -5.9976732250906099e-02 -2.8179342257782160e-02  2.0803514502153328e-02 -5.0246183514209959e-02 -2.0277518546244690e-02  2.2204795093363622e-02 -4.2602281347013833e-02 -1.0260892468820910e-02  2.2209776227067376e-02 -5.3311991640193679e-02 -2.9604693581297789e-02  2.3319379545693932e-02 -4.3780283693310204e-02 -2.1260814440045791e-02  2.4752379247052547e-02 -3.5606179771321286e-02 -1.1105422712569918e-02  2.4851720699817881e-02 -4.6859143901746628e-02 -3.0860879197573056e-02  2.5814290590866637e-02 -3.7247334983253194e-02 -2.2245641287259615e-02  2.7300224378624827e-02 -2.8588498907343204e-02 -1.2138951848863452e-02  2.7466839555455074e-02 -4.0301449257049753e-02 -3.2073816956919320e-02  2.8286150290544120e-02 -3.0381555598794914e-02 -2.3349087258781698e-02  2.9852159756774382e-02 -2.1298784213832349e-02 -1.3435877853141175e-02  3.0055302702303228e-02 -3.3367200515023378e-02 -3.3376207484514836e-02  3.0732068308232420e-02 -2.2949715646097137e-02 -2.4701709881795014e-02  3.2418049978760716e-02 -1.3550467935813869e-02 -1.5085706286796018e-02  3.2615139651768495e-02 -2.5838335438578552e-02 -3.4931065427495932e-02  1.9883101052056804e-02 -9.1822290626012215e-02 -8.1952457798647765e-02  1.9159398230605907e-02 -8.8274468243815310e-02 -7.3141647748404370e-02  1.8926749801446510e-02 -9.1391977001467825e-02 -8.2770024827732505e-02  2.1817458392919872e-02 -8.7203439367515317e-02 -8.5363229006692659e-02  2.2072397490872715e-02 -8.2635966026703450e-02 -7.6022547235877785e-02  2.2733627512783381e-02 -8.6554894018180478e-02 -8.4764400301842832e-02  2.4657675360718646e-02 -8.3089278878246839e-02 -8.7250008074556518e-02  2.4929664062179072e-02 -7.7285842033255892e-02 -7.8269168577313294e-02  1.9917791311157916e-02 -5.2216354367449105e-02 -4.0402606925300242e-03  1.9527994765308181e-02 -4.6020932249403616e-02 6.7297067521178882e-03  1.9571090093869228e-02 -5.5141973946314010e-02 -8.7940710807131468e-03  2.2562233722442544e-02 -4.6473225106233425e-02 -8.9815063742482281e-03  2.2438289375776709e-02 -3.8178668802526169e-02 8.5066501305283738e-03  2.3031748964716291e-02 -4.3885611937323446e-02 -3.1327799740990870e-03  2.5431504591077358e-02 -3.8698961006499243e-02 -9.5735193602824974e-03  2.5182526015291095e-02 -3.0997253281644536e-02 9.3287926470259006e-03  2.5917805723164471e-02 -3.6281100298448020e-02 -2.9499599380537929e-03  2.8221800857963591e-02 -3.1239656715075895e-02 -1.0544991734615074e-02  2.7816709150932050e-02 -2.4043337766977230e-02 9.4679458295748690e-03  1.9795397479255353e-02 -9.4621959687927262e-02 -9.1609761654347130e-02  1.8839067256694823e-02 -9.3430189200334898e-02 -9.1572438718700244e-02  2.1709794234968584e-02 -9.1091472066568174e-02 -9.3614662054443687e-02  2.2611840810683962e-02 -9.0905110145617210e-02 -9.4114142582689048e-02  2.4529511736776727e-02 -8.8602318078649669e-02 -9.4950630424074645e-02  1.9167887522378337e-02 -5.9451501893215464e-02 -1.6280568039360906e-02  1.9062611976855864e-02 -5.0769293232088508e-02 -4.1614182211586424e-04  1.8472135977665855e-02 -5.3999355216416779e-02 -5.1165482206466601e-03  2.1137811753455197e-02 -4.5619782266658186e-02 -5.2221051748607764e-03  2.1840953957523754e-02 -4.2355013324569299e-02 1.9595037834171824e-04  2.2067637618772402e-02 -5.0910260222270007e-02 -1.7226685476696871e-02  2.4881096811211662e-02 -4.3178106666651651e-02 -1.8316990140240751e-02  2.4539067225401608e-02 -3.4749444567324796e-02 1.9777818095827163e-04  2.3785965303357352e-02 -3.8021298384319772e-02 -5.6487775071955284e-03  2.7662489788590285e-02 -3.5757216463751892e-02 -1.9564294855405267e-02  2.7212205356641296e-02 -2.7451078443525196e-02 -2.6967261559935024e-04  2.6421051198161502e-02 -3.0738586062502519e-02 -6.3676977939846145e-03  3.0416484729171151e-02 -2.8302291193701000e-02 -2.1034244810420221e-02  2.9858256674863113e-02 -2.0141330457789444e-02 -1.1591769009874891e-03  2.9054275114283323e-02 -2.3440050087711845e-02 -7.3984183285193588e-03  3.3150672488340485e-02 -2.0567017659142893e-02 -2.2795504830419897e-02  3.2487121056065549e-02 -1.2614353771315739e-02 -2.4553641558652190e-03  3.1688782817395164e-02 -1.5900829442572439e-02 -8.7730391838450224e-03  3.5865347314197271e-02 -1.2392203122019937e-02 -2.4918765663263509e-02  3.5106455527700219e-02 -4.7442386518675612e-03 -4.1577464974764710e-03  3.4328745280053086e-02 -7.9739362443464485e-03 -1.0533295217828498e-02  1.7569828233761690e-02 -8.0378690350059234e-02 -5.5581244906220531e-02  1.7115996842232077e-02 -7.5614528635149530e-02 -4.4653227370606556e-02  1.6436004426839675e-02 -8.0199347065702767e-02 -5.4692453629615188e-02  1.9354083527104087e-02 -7.5328490189993283e-02 -5.6947837660529840e-02  1.9978983764966124e-02 -6.9456156060582058e-02 -4.6988091700654391e-02  2.0507896480979278e-02 -7.4729901105317187e-02 -5.8197262215843190e-02  2.2789577421795857e-02 -6.3683225633252391e-02 -4.8775928626817885e-02  2.3391027548452115e-02 -6.9389618191708663e-02 -6.0195321602752656e-02  2.2188864690923724e-02 -7.0628443440759150e-02 -5.8571732805026262e-02  2.6235774046761830e-02 -6.4079382834558773e-02 -6.1768217742862931e-02  2.5555000882555377e-02 -5.7994858322337327e-02 -5.0236210424641096e-02  2.4983063743414944e-02 -6.5915047085552264e-02 -5.9754658584554095e-02  2.9066792369230841e-02 -5.8562052126137319e-02 -6.3044580638127706e-02  2.8295595560625612e-02 -5.2128108533739489e-02 -5.1460462533013070e-02  2.7738417098035317e-02 -6.0969447778224127e-02 -6.0589071468311953e-02  3.1900723969814943e-02 -5.2567086312703841e-02 -6.4151265229952945e-02  3.1010459205627932e-02 -4.5805785611886994e-02 -5.2597173845808427e-02  3.0475900863747272e-02 -5.5578210608239281e-02 -6.1187111134352365e-02  3.4746152116790288e-02 -4.5796713245794041e-02 -6.5218720556707618e-02  3.3698075499086447e-02 -3.8769653750031746e-02 -5.3808221244657284e-02  3.3196695931419891e-02 -4.9473278537723993e-02 -6.1634397329397766e-02  1.3633983766444122e-02 -8.1056661044384568e-02 -5.7918892940490414e-02  1.2522697221309874e-02 -7.9600284233137128e-02 -5.3820386254758990e-02  1.3623818497419241e-02 -8.1641338476561798e-02 -6.1663127138375233e-02  1.6578107348215132e-02 -8.1255132682972839e-02 -6.2057399232554634e-02  1.5413620643155768e-02 -7.8124850616015151e-02 -5.4596116560133731e-02  1.6567475577374050e-02 -7.9049598683832947e-02 -5.8986404944795387e-02  1.9370228839777924e-02 -8.0479426726322134e-02 -6.2061413621160182e-02  1.9350452819462859e-02 -7.6831429538059132e-02 -5.9543929634330896e-02  2.5934053639638296e-02 -7.0002129192745940e-02 -5.3507464227206279e-02  2.7314896356063496e-02 -6.8964589469751286e-02 -5.8658803221358885e-02  2.7414850871992396e-02 -7.6884115073475340e-02 -5.9795315522274343e-02  2.3346832972480892e-02 -7.2264050777117755e-02 -5.4387910705617291e-02  2.4686275175213740e-02 -7.1795687949357437e-02 -5.9373842619242626e-02  3.0161180203353920e-02 -7.5587139190422481e-02 -5.8104178806795199e-02  2.8555078579101823e-02 -6.7650840902281822e-02 -5.2128831801827771e-02  2.9968480922108725e-02 -6.5909968851186440e-02 -5.7487830214467191e-02  1.6147440338059670e-02 -8.0859095320407554e-02 -5.7146726807857644e-02  1.7280288756033345e-02 -8.2555438625183428e-02 -6.1143616644340211e-02  1.6613345588752566e-02 -8.0895417939248246e-02 -5.3302796344224204e-02  1.4422766721450061e-02 -8.1186008009460159e-02 -6.1967043819573298e-02  1.3299520272242890e-02 -8.0147966859626787e-02 -5.7558215475731901e-02  1.9979873212657370e-02 -8.3419238609642565e-02 -6.0196605716930598e-02  1.8841577138130259e-02 -8.1110144536536463e-02 -5.6537163434858199e-02  1.9160289626711426e-02 -8.1929280774917651e-02 -5.2023830381689160e-02  2.2600675258125688e-02 -8.3992585476230355e-02 -5.9055568483076151e-02  2.1440440927832666e-02 -8.1079699818443735e-02 -5.5686504806605794e-02  2.1634085448032567e-02 -8.2720014680371823e-02 -5.0649697110845014e-02  2.4013761030864236e-02 -8.0930507191911291e-02 -5.4543264987771616e-02  2.5201035261226620e-02 -8.4454568459614715e-02 -5.7655880739814390e-02  1.9744960184486175e-02 -9.3463338644855370e-02 -1.0010907965363644e-01  1.8464438353834871e-02 -9.1626367507230230e-02 -9.3557099476085981e-02  1.8966752273509618e-02 -9.0285815519909191e-02 -9.3425008022193723e-02  2.1774884467221554e-02 -9.2021002163350477e-02 -9.3249759665839579e-02  2.1347567122433658e-02 -9.2095196071620630e-02 -9.4231426656259096e-02  2.2529678130426511e-02 -9.4249568433882103e-02 -1.0068903620394534e-01  2.5235510398540457e-02 -9.4545978053890450e-02 -1.0072428397565293e-01  2.4147914799646238e-02 -9.2112243778154551e-02 -9.4381221513396257e-02  2.4502006502949557e-02 -9.3198190175354412e-02 -9.2694723466044140e-02  2.7903779413174599e-02 -9.4487086457263128e-02 -1.0023947768410978e-01  2.6912503965534226e-02 -9.1779760326181292e-02 -9.4038168446895651e-02  2.7181457581736894e-02 -9.4006463719198519e-02 -9.1742064025682607e-02  3.0571562945610246e-02 -9.4170863040413028e-02 -9.9221019767696234e-02  2.9689528432453958e-02 -9.1185093878192777e-02 -9.3192785949363560e-02  2.9866091172628857e-02 -9.4596249060083612e-02 -9.0343889790042625e-02  3.3280279694030697e-02 -9.3671339861804148e-02 -9.7623573768100325e-02  3.2527951498796982e-02 -9.0394256948151272e-02 -9.1801778287283767e-02  3.2605277062351612e-02 -9.5101096207156316e-02 -8.8422949127389655e-02  3.5451464001025605e-02 -9.5625173673462738e-02 -8.5875794414593268e-02  3.5481879483116041e-02 -8.9481683691398917e-02 -8.9784079862446825e-02  3.6065568251302783e-02 -9.3064560039898298e-02 -9.5406360014359648e-02  1.7186638676681874e-02 -8.9584486165022514e-02 -8.3056649431286780e-02  2.0172649234825188e-02 -8.8108246287301073e-02 -8.4566729001800359e-02  2.3068937188480420e-02 -8.6363988889740881e-02 -8.5450407746955087e-02  2.5932194757829239e-02 -8.4360776982850105e-02 -8.5795833845984742e-02  2.8804398487964591e-02 -8.2080937834307990e-02 -8.5643171960726044e-02  3.1729048108439274e-02 -7.9485690361172423e-02 -8.4991291241939992e-02  3.4737834858909508e-02 -7.6506555495924639e-02 -8.3805480588565601e-02  1.9982720718320308e-02 -9.6059091261976856e-02 -1.0000550440319259e-01  2.2774022913619078e-02 -9.4234806909889196e-02 -1.0188881211318854e-01  1.7002653180424893e-02 -8.4317541550146521e-02 -6.5580511159209459e-02  1.5800069980767502e-02 -8.3467200745526993e-02 -6.3682426203936215e-02  1.8753041659570594e-02 -8.0162318010284742e-02 -6.5522851413208308e-02  1.9962356917241578e-02 -8.0137152387314628e-02 -6.7876093962077194e-02  2.2856430076829696e-02 -7.6014804612912365e-02 -6.9510130343702778e-02  2.1622927222581956e-02 -7.6804456687656467e-02 -6.6751946144358407e-02  2.5707755070184048e-02 -7.1805661939451912e-02 -7.0642553228060692e-02  2.4434132660656544e-02 -7.3312469909415312e-02 -6.7484738242533981e-02  2.8549505178086184e-02 -6.7338229170835373e-02 -7.1377696416403874e-02  2.7211383053598354e-02 -6.9575137164697237e-02 -6.7801255356384760e-02  3.1404344497254454e-02 -6.2418245324466382e-02 -7.1797807414758927e-02  2.9982179579652084e-02 -6.5458670645632419e-02 -6.7745422973098032e-02  3.4295191334526791e-02 -5.6828262587548181e-02 -7.1968044470332657e-02  3.2765602323881871e-02 -6.0787764575903395e-02 -6.7295269649121192e-02  1.8126792253272090e-02 -6.2287347667676171e-02 -1.9413525004111042e-02  2.0875375889480543e-02 -5.4244248194707335e-02 -2.0862095736536784e-02  2.3599546968534377e-02 -4.6909989472327877e-02 -2.2155699859960392e-02  2.6301678548762621e-02 -3.9863254305190117e-02 -2.3465639456583028e-02  2.8989543500692678e-02 -3.2754819564656881e-02 -2.4887792124295684e-02  3.1667898652325839e-02 -2.5327894045733584e-02 -2.6526755825110361e-02  3.4341749763952059e-02 -1.7399888944210101e-02 -2.8491006450132982e-02  1.3889994318190073e-02 -7.9217967075743370e-02 -5.0737361941301899e-02  1.4627630448229659e-02 -7.5421211696808016e-02 -4.0871103519623607e-02  1.3307087899015758e-02 -7.5384735830716976e-02 -3.9256507145941082e-02  1.6049199389857025e-02 -7.0719130870402880e-02 -4.0883481339830545e-02  1.7408337041751328e-02 -7.0261740987010796e-02 -4.2694617411285760e-02  1.6754332317319598e-02 -7.5588778352863956e-02 -5.2283484031946270e-02  1.8682590253184243e-02 -6.6223858731600430e-02 -4.2001407016132170e-02  2.0089884423424527e-02 -6.5336081321155093e-02 -4.4007760469151683e-02  1.9492248353951788e-02 -7.1975206984439669e-02 -5.3277140478232517e-02  2.1239487652504892e-02 -6.1736551182078936e-02 -4.2727705553210718e-02  2.2704537450587592e-02 -6.0447105828205686e-02 -4.4932806632779355e-02  2.2146367903615762e-02 -6.8273618164225724e-02 -5.3831060888905137e-02  2.3736853033512917e-02 -5.7087440921140660e-02 -4.3150584837117971e-02  2.5264804405987367e-02 -5.5390045396849066e-02 -4.5575666757895372e-02  2.4743681269936868e-02 -6.4376990387379499e-02 -5.4014012672406103e-02  2.6180119657394793e-02 -5.2080786772626342e-02 -4.3331878609933254e-02  2.7768830173620036e-02 -4.9933805725450801e-02 -4.6028422525093517e-02  2.7298696705357301e-02 -6.0154217952251551e-02 -5.3852559154724942e-02  2.8571732380675525e-02 -4.6486517668777656e-02 -4.3320963380475745e-02  3.0193832503115640e-02 -4.3782120869661517e-02 -4.6393238028187990e-02  2.9808181815216134e-02 -5.5420466878218062e-02 -5.3319195747180421e-02  1.4198634163342393e-02 -8.1870595752314909e-02 -6.3527478401971454e-02  1.7135997730740878e-02 -8.2506940735754680e-02 -6.3331954308838451e-02  1.9908797561767579e-02 -8.2673644724437140e-02 -6.2847747751181182e-02  2.2597061815898926e-02 -8.2548951095426717e-02 -6.2065890675802100e-02  2.5266496188551257e-02 -8.2284567743435746e-02 -6.0945204359351655e-02  2.7977275439069787e-02 -8.2011916579531483e-02 -5.9422127799175148e-02  2.7850084044690974e-02 -8.4971244201361845e-02 -5.5922763440802006e-02  2.6636509422500166e-02 -8.0825136182582705e-02 -5.3048663336715964e-02  3.0786062795267317e-02 -8.1883435339696442e-02 -5.7452705908362073e-02  3.0599771060584237e-02 -8.5677334001148797e-02 -5.3763509898669709e-02  2.9362758175362592e-02 -8.0881236101859752e-02 -5.1136389061006718e-02  1.2858038835905411e-02 -5.4052404935008874e-02 7.8087681430919010e-03  1.1528084243848666e-02 -5.0365581538996673e-02 1.7296018764618948e-02  1.1564263362519308e-02 -5.8722393511380179e-02 1.6075697994716559e-03  1.4945449696164438e-02 -4.6609142832148044e-02 7.8095523254653040e-03  1.3470039827077630e-02 -4.3105251404564761e-02 1.7732770029766230e-02  1.3743766321958006e-02 -5.1728875369821611e-02 9.9462253041330694e-04  1.7074838022460431e-02 -3.9915649020184567e-02 7.6873436670940511e-03  1.5460417032179180e-02 -3.6598354193569813e-02 1.7964989550504511e-02  1.5918832467034606e-02 -4.5322319551457164e-02 5.1904747649284639e-04  1.9240810597945131e-02 -3.3542340066383347e-02 7.3901268959731779e-03  3.0957679396541312e-02 -2.3748500484136147e-02 -1.1873527689436376e-02  3.3650372194119198e-02 -1.6002065904244585e-02 -1.3567723235609204e-02  3.6302547010834775e-02 -7.8572740668388062e-03 -1.5657988057532563e-02  2.0475346654518767e-02 -9.1249790662660452e-02 -9.8963748394954087e-02  2.5757790096966226e-02 -9.5219548386476019e-02 -9.7572864991382319e-02  2.8292386505044745e-02 -9.6531436636258419e-02 -9.6304649305634274e-02  3.0815213031239064e-02 -9.7626783510592577e-02 -9.4594771218754023e-02  3.3363580218512774e-02 -9.8654686991209911e-02 -9.2363192237589736e-02  3.5967505931411521e-02 -9.9765102488631685e-02 -8.9481713901799140e-02  1.4575631945052708e-02 -8.3519267571434574e-02 -6.6580322405301248e-02  1.7566080850089868e-02 -8.2467386339799983e-02 -6.7450094710975697e-02  2.0422251543707633e-02 -8.1093102693350599e-02 -6.7832711349375588e-02  2.3196358685394654e-02 -7.9458956330924702e-02 -6.7775879072853873e-02  2.2042809170892842e-02 -7.4414440212966920e-02 -5.9663842204458355e-02  2.2069990783494017e-02 -7.9428328333932013e-02 -6.1697947741975512e-02  2.5938292565702004e-02 -7.7610774336548005e-02 -6.7295367823038049e-02  2.4736420479626760e-02 -7.8198750014921492e-02 -6.0955392233956615e-02  2.8691256047064146e-02 -7.5581453479267702e-02 -6.6362279678196689e-02  3.1485513521311508e-02 -7.3384741928407576e-02 -6.4884794983964558e-02  2.3329324971990088e-02 -6.5430737650133797e-02 -5.0512780808624202e-02  2.1922480722726796e-02 -5.9513819075