<?xml version="1.0"?>
<VTKFile type="UnstructuredGrid"  version="0.1"  >
<UnstructuredGrid>
<Piece  NumberOfPoints="734" NumberOfCells="3079">
<Points>
<DataArray  type="Float64"  NumberOfComponents="3"  format="ascii">6.459577792625137 1.352155949482453 2.900788914255584  6.361210316713238 1.384655763802969 2.984114067413468  6.36697995706405 1.312636968810692 2.860978311603914  6.37679725240938 1.260399001652022 2.889875911290594  6.369920431328125 1.333906897440869 3.014325003085697  6.46944780553941 1.300172910644662 2.93009987976981  6.386741444523509 1.208154381977455 2.918721938214331  6.378715232082034 1.283145568083951 3.044495315603618  6.479425929070207 1.248191724544279 2.959351843095224  6.396741268743714 1.155910002064756 2.94754124245251  6.387554114191564 1.232379141552277 3.074641504694096  6.489454088384795 1.196215481148303 2.988573776607004  6.406746144192767 1.103670520176358 2.976354196504694  6.396402853624259 1.18161199857406 3.104777585410097  6.49949151210294 1.1442476707045 3.017785268414666  6.416706557182025 1.051442889900132 3.005184326198589  6.405227677041173 1.130848152026196 3.134922412052431  6.509497742357547 1.092297866279601 3.047006523669568  6.426556945557763 0.9992371396151714 3.03406409162169  6.413989183034466 1.080096511673598 3.165111378252042  6.519411052905534 1.040381732206743 3.076269296723384  5.956264720926042 1.472949405977624 3.935845236467785  5.88485078876374 1.544481546744635 4.078055817762854  6.036321074466398 1.538701974678178 4.027264416277768  5.949496815846076 1.530397554681618 3.897874038445355  6.028584578108152 1.595761822616687 3.985857443502706  6.044071669248696 1.481615009436955 4.068598104826235  5.963062898158789 1.415474354128609 3.973734765353975  5.891666615830775 1.487240270126887 4.121530930786935  6.321362527528118 1.561302213547224 3.303806253407728  6.449853108288336 1.581762958838957 3.3043838166643  6.374156570794263 1.613929746845121 3.386785482137611  6.382249021711664 1.559622873464085 3.415904999684106  6.458212421751402 1.528332902431789 3.333146680843542  6.329376184613571 1.508316519702199 3.332694504947002  6.390376280517171 1.505313957518104 3.445013926608245  6.466620847828684 1.474902024005605 3.361890688894516  6.337432342311951 1.455327886848613 3.361573978836609  6.398525349334524 1.45100335730397 3.474106786580562  6.475059287850861 1.421470824890193 3.390616314088268  6.345513797003895 1.402336524149643 3.390440045482062  6.406684628145925 1.396687574876348 3.503177077298248  6.48351061091283 1.368037154457677 3.419321992161381  6.353605565565657 1.349339355031755 3.41928752859132  6.414843141653083 1.342359023055849 3.532216070459258  6.491958072732421 1.314594250642228 3.448004489731125  6.361692887051135 1.296328138178847 3.448110033032607  6.422988749955247 1.288003390881992 3.561208984928423  6.500379763706051 1.261128822790245 3.476655166662879  6.369756070508913 1.243285896466731 3.476895877337953  6.701215934827885 1.506326944381693 3.09048242728125  6.621241254051949 1.536320208894643 3.170347868008209  6.602493066954372 1.459003276443078 3.038362961872296  6.611627705544473 1.407338873868859 3.068189647978773  6.630010937794522 1.483636263139645 3.199177300612288  6.7103360118106 1.453827981312601 3.119695430846401  6.620830415758601 1.355668733152867 3.097966725104373  6.638836764279573 1.430948544126064 3.227969002955318  6.719519857008538 1.40132512648945 3.148860505514656  6.630073922015664 1.304001458642186 3.127711317491729  6.647697591127049 1.378263794187946 3.256730979464025  6.728741111833766 1.348825706088097 3.177990183482887  6.639331593589816 1.252341215190803 3.157440173606721  6.656574377646432 1.325584787393846 3.285473827757358  6.363119855548221 1.523276782065372 3.222251293253062  6.371401333564713 1.470979686199462 3.25083116444414  6.379738289079952 1.418681683371962 3.279398280221402  6.388106329506138 1.366381934039319 3.307949950507545  6.396485882059767 1.314078610872663 3.33648594804651  6.404857193591674 1.261765842897956 3.365006201702085  6.413196146139818 1.209426484173562 3.393505280570055  6.17210466851094 1.547849066662069 3.318692275248747  6.259615385426875 1.609545896202661 3.408871475161344  6.267314070868967 1.55526261719289 3.438272505097238  6.179585845018213 1.495003363447398 3.347753525745847  6.187094503209609 1.442153423708277 3.376818863062596  6.275035988976533 1.500975973776648 3.467671958963731  6.194619616629196 1.389297444866679 3.405875833349251  6.282774372849139 1.446684648618763 3.49706010861231  6.202151571968299 1.336431054772579 3.43491515307444  6.290520794324482 1.392384372410205 3.526426317730551  6.209680316527566 1.28354411012943 3.463927129233169  6.298267588742632 1.338066374182174 3.555757724471385  6.217192722951055 1.230617126604444 3.492895114674816  6.30600883511296 1.283716698433052 3.585034303995973  6.755979634133197 1.720516645470522 3.472960851723151  6.665308605699218 1.673728433410707 3.412903214577237  6.774640884423053 1.643437565701409 3.325026362984295  6.674223758415772 1.618392130984562 3.442652575324438  6.764982585255471 1.664476040624427 3.50412782346661  6.783237683439181 1.58851841230229 3.354206937947657  6.683183266128516 1.563057761623374 3.472365512081603  6.774017176661497 1.608432742029222 3.535253743442545  6.791875312796977 1.533598810987243 3.383342243258619  6.692169786331167 1.507724576420681 3.502048076407704  6.783072786523706 1.552390512893722 3.566345828666686  6.800539659777367 1.478684862846354 3.412441623388902  6.701168486022461 1.452392452621891 3.531704680712071  6.792136486827943 1.496350121491264 3.597409654397752  6.809217470306116 1.423777819257498 3.441515301256769  6.710165718262607 1.397059473983185 3.561337052245103  6.215093762790944 1.402160808657236 3.053973640517095  6.317154988904082 1.440214978279999 3.08951931108112  6.243110732546473 1.486390039579789 3.189456126856945  6.251089727427882 1.435019376507324 3.218723060594584  6.325681732139365 1.389599191014129 3.119481717727015  6.223284105728119 1.351813741850272 3.084053940305547  6.259120436368073 1.3836426192128 3.247983972131542  6.334285270006911 1.338972950755333 3.149422167819588  6.231547819250595 1.301457613495483 3.114119459657616  6.267180472432862 1.332259710667477 3.277233395169682  6.342928551442156 1.288341646294224 3.179345011897859  6.239848338099917 1.251091662198113 3.14417133470054  6.275249339743457 1.280869693103648 3.306469317375325  6.351582690872796 1.237706688177539 3.209256058531629  6.248156270859763 1.2007180592945 3.174215200805738  6.283305762747389 1.22946665969968 3.335692029652995  6.360217642257907 1.187066554700812 3.239164919124111  6.256441009192516 1.150335150476222 3.204262854372572  6.291322721346304 1.178036286001069 3.364898072853428  6.368789223425897 1.136412947353095 3.269089966207176  6.264660300181083 1.099933435324963 3.234331084195167  6.246696068696068 1.335532964249343 2.935114877912545  6.255278442365648 1.284880779597994 2.965482880927227  6.263952907414935 1.234211135684648 2.995816848728356  6.272672148367122 1.18353079694459 3.026132884532855  6.281397950157879 1.132844796811144 3.056444515166843  6.290092334395446 1.082157933196691 3.0867714717579  6.298707145272796 1.031480414454328 3.117145590286563  6.44909319504476 1.531410282554043 3.212282909124827  6.457433298362147 1.47889693703663 3.240897090449736  6.465826566608652 1.426382867224774 3.269489819984573  6.474252484433899 1.373869395568374 3.298062525780508  6.482691544069414 1.321355703924101 3.32661829270987  6.491124204308864 1.268838556900267 3.355159600454006  6.499531852209993 1.216306123987526 3.383684972207047  6.048061329061011 1.753526424669786 3.714016225825756  6.105928912024901 1.823114331185758 3.800407844263256  5.997656242676632 1.823932438374408 3.81991614114697  6.112752058556755 1.766377722970102 3.841570603501824  6.055126256088657 1.696645493668303 3.751326408263537  6.005414436611709 1.766878528104446 3.861406524194102  6.013147918614445 1.709839928361012 3.902907213378675  6.119528774654186 1.709646897383211 3.882736365401819  6.062161716734385 1.639773781939122 3.788639940659084  6.020865175797112 1.652804469127748 3.94439807551985  6.126287935566375 1.652913482148348 3.923889788860631  6.069185435336496 1.5829032989408 3.82593942041193  6.133049069580767 1.596170048884591 3.965011954104689  6.076211938026614 1.52602585024463 3.863205326178504  6.139829974601218 1.539409774766126 4.006085243974685  6.083255059377777 1.469135115486201 3.900415735887752  6.146656454041683 1.482634296072807 4.047088853017373  6.090322767573616 1.412229506395721 3.937551040330928  6.228342536235769 2.171244106902373 4.147402785959907  6.301208919250128 2.25779974508619 4.198463223556109  6.191065991678955 2.315850509123879 4.22369735165187  6.188824671976296 2.283837697878706 4.299091102025976  6.303855104162398 2.21680818085367 4.268586464680295  6.232993975330031 2.127940411572662 4.214332842715202  6.23755508138111 2.084669063872317 4.281270590537416  6.306396086366243 2.175861883366913 4.338721603244143  6.186451421354532 2.251875008037295 4.374470439341573  6.308903013866527 2.134919525893834 4.408837426436418  6.242088175371863 2.041405225666955 4.348187779857594  6.184026183836025 2.2199186227757 4.449823722132669  6.246635467948951 1.998126546253588 4.415070008517396  6.502954108293921 1.492498880836823 3.124976425009508  6.511517782677865 1.440788215676878 3.15427074313404  6.520137043691937 1.389073030482936 3.183532207929407  6.528793250811447 1.337356283288224 3.212769300277931  6.537464142034955 1.285640747928209 3.241991171193713  6.64857748400157 1.2006919942942 3.187172109013833  6.665449757064536 1.272911952072019 3.314209032868822  6.546128935295528 1.233925713016898 3.27120887611279  6.657782175906089 1.149059785840874 3.216935875255573  6.674303689852258 1.220242736194854 3.342948901218341  6.554766286483844 1.182208449204568 3.300439571377571  6.114140310191507 1.595222423045626 3.420215762385
[...]
<PointData  Vectors="f_24"> 
<DataArray  type="Float64"  Name="f_24"  NumberOfComponents="3" format="ascii">1.3232825498827030e-02 -1.5186977250299544e-01 4.7668428685492238e-02  1.4347970430811709e-02 -1.5347076367716014e-01 4.8601731303742894e-02  1.3031734886712394e-02 -1.4932832036784191e-01 4.6908169181684188e-02  1.2669222786068697e-02 -1.5038370445813090e-01 4.4802860832809675e-02  1.4033466652169112e-02 -1.5428132069295228e-01 4.7965299227135015e-02  1.2968771968298751e-02 -1.5288856018921343e-01 4.6061823725270332e-02  1.2235907704481295e-02 -1.5082664685394603e-01 4.2929433504626330e-02  1.3632822243600110e-02 -1.5438353586170914e-01 4.7344089155033138e-02  1.2628811692196191e-02 -1.5323683248549416e-01 4.4613762717523528e-02  1.1749396992200987e-02 -1.5082305881089611e-01 4.1062795591969126e-02  1.3155631445744918e-02 -1.5393287756033944e-01 4.6610281939107004e-02  1.2225411499550518e-02 -1.5308786003087707e-01 4.3125998650257943e-02  1.1211817545127123e-02 -1.5050632328696784e-01 3.8994572040571787e-02  1.2609391329086094e-02 -1.5304122770504350e-01 4.5620317357525135e-02  1.1765243660642031e-02 -1.5257186758271823e-01 4.1410495611340158e-02  1.0620384896753373e-02 -1.5000385240712891e-01 3.6524717474484492e-02  1.1996978690276343e-02 -1.5179730841296157e-01 4.4197442264783796e-02  1.1249543986817266e-02 -1.5180813307258981e-01 3.9276558198550179e-02  9.9741448456475354e-03 -1.4945215840269405e-01 3.3456241847557751e-02  1.1319911519952338e-02 -1.5028463807289780e-01 4.2125338498323686e-02  1.0666356487364574e-02 -1.5094853676508202e-01 3.6538605253504587e-02  7.5826181861361856e-03 -7.5985997550886669e-02 4.0913280019323914e-02  6.2350566569833238e-03 -5.6858882265154058e-02 3.1524856134456804e-02  6.9775449653345220e-03 -6.5222697367372670e-02 3.4929029253681715e-02  9.0164999229446034e-03 -8.1346088206222383e-02 3.5512009043709880e-02  8.3060385548783915e-03 -7.0719631189968421e-02 2.9518799709485420e-02  5.5682423528167317e-03 -5.9457059698859796e-02 4.0842025662222586e-02  6.0722497792875226e-03 -7.0284663525840563e-02 4.6818507208340542e-02  4.6871701796343890e-03 -5.1156315040450054e-02 3.7469419330259393e-02  1.5792606326633415e-02 -1.4903250217724179e-01 4.0936020803910171e-02  1.5265486295367963e-02 -1.4976990921055114e-01 4.0460779097410783e-02  1.5418347803355947e-02 -1.4423102560757342e-01 3.6689672482206809e-02  1.4933387140068359e-02 -1.4220786646148853e-01 4.0980068597910292e-02  1.4956477405060908e-02 -1.4842837607937004e-01 4.3913461296397442e-02  1.5318968739698346e-02 -1.4772976372577695e-01 4.4324602562035575e-02  1.4383099890033465e-02 -1.3981154393003267e-01 4.4683954208368161e-02  1.4555378046541591e-02 -1.4661631810828807e-01 4.6846081801087090e-02  1.4759085883536287e-02 -1.4595309852910782e-01 4.7187793721109011e-02  1.3767491940235724e-02 -1.3699701680210194e-01 4.7985054588370192e-02  1.4075378657025728e-02 -1.4431327288876861e-01 4.9400229077932435e-02  1.4126954383445262e-02 -1.4368171167492874e-01 4.9681142884334027e-02  1.3088891320307610e-02 -1.3368766958057471e-01 5.1066256170773656e-02  1.3524657738651056e-02 -1.4147588988862320e-01 5.1703215944611185e-02  1.3426664893389754e-02 -1.4087361141753368e-01 5.1923442166056870e-02  1.2346687799866545e-02 -1.2977301236251063e-01 5.4106273717646661e-02  1.2908087729879952e-02 -1.3801488360847325e-01 5.3876695407077950e-02  1.2656016243778307e-02 -1.3743983029960335e-01 5.4027980405798537e-02  1.1544049469399287e-02 -1.2510502002257071e-01 5.7303937784645910e-02  1.2233764112836413e-02 -1.3378672963585839e-01 5.6043901278973594e-02  1.1808441922707752e-02 -1.3324819058805973e-01 5.6114470506820779e-02  1.3749010770451974e-02 -1.5682089722615991e-01 4.6292561326503258e-02  1.4379907748841623e-02 -1.5548636580176431e-01 4.4794316332889300e-02  1.3882544316153350e-02 -1.5627710648839269e-01 4.7642616483571855e-02  1.3848105188430564e-02 -1.5672898247450034e-01 4.7880114959590971e-02  1.4366726623785709e-02 -1.5511246276088966e-01 4.6718662433847813e-02  1.3812431354545738e-02 -1.5692766049462931e-01 4.7272796974147498e-02  1.3684938532390863e-02 -1.5649461931657574e-01 4.7995261994339400e-02  1.4218511080502167e-02 -1.5412419155302509e-01 4.8301112629239265e-02  1.3752771369228063e-02 -1.5637564208786917e-01 4.8030943046674553e-02  1.3435801437694579e-02 -1.5568866968638209e-01 4.7928491630288936e-02  1.3974225456764815e-02 -1.5258305310498246e-01 4.9578422966696664e-02  1.3595855620829938e-02 -1.5525632733652814e-01 4.8548107463428976e-02  1.3115925469368548e-02 -1.5438512758200928e-01 4.7592165246642261e-02  1.3654036123328793e-02 -1.5049854817489705e-01 5.0571585983035100e-02  1.5597765401784012e-02 -1.5275436078663127e-01 4.4199862379911928e-02  1.5236102487576947e-02 -1.5212703753092457e-01 4.6626646239350936e-02  1.4775387693024207e-02 -1.5091372997033001e-01 4.8640986878974717e-02  1.4232800263830947e-02 -1.4916936772844888e-01 5.0319294886764558e-02  1.3616844308415855e-02 -1.4688305938517959e-01 5.1715434106213098e-02  1.2926960630229450e-02 -1.4398835289188405e-01 5.2868952447287614e-02  1.2163098182342650e-02 -1.4035992528125113e-01 5.3854835479946302e-02  1.6350355719019345e-02 -1.4693290163237691e-01 4.0399669142357847e-02  1.5817246767681564e-02 -1.4180952267721644e-01 3.5698092401468755e-02  1.5152791789525057e-02 -1.3960153727938868e-01 4.0163530561149491e-02  1.5661319116102385e-02 -1.4553307099972443e-01 4.3909834537446520e-02  1.4907374134098501e-02 -1.4367242925773288e-01 4.6887757964125885e-02  1.4435383762606089e-02 -1.3706554945000921e-01 4.4041704218981542e-02  1.4095120860900289e-02 -1.4133006985027396e-01 4.9485805515828610e-02  1.3666524596939605e-02 -1.3413464797748981e-01 4.7513156565907134e-02  1.3218883831751550e-02 -1.3846001881351558e-01 5.1833897048272258e-02  1.2839090497181205e-02 -1.3072241174813343e-01 5.0774521069180741e-02  1.2268882450788606e-02 -1.3497004753915917e-01 5.4054797261981404e-02  1.1948452416979156e-02 -1.2671751740535375e-01 5.4017549952859047e-02  1.1233863573349084e-02 -1.3073214073905323e-01 5.6274892497696037e-02  1.1001795251320192e-02 -1.2196467584970842e-01 5.7446601809416978e-02  1.3145996703890812e-02 -1.3763377960926998e-01 2.9606372424873430e-02  1.3927928205370558e-02 -1.4298952276720661e-01 3.3715965912479301e-02  1.3619780353364056e-02 -1.4902272978093406e-01 3.7492403296193147e-02  1.3845461096975233e-02 -1.4056061034201336e-01 3.8382573663028045e-02  1.3131862860433061e-02 -1.3454899456654251e-01 3.4765804664768613e-02  1.3730043461015660e-02 -1.4731023903938723e-01 4.1359648094716324e-02  1.3654351089316686e-02 -1.3782660557946805e-01 4.2417154205425620e-02  1.3021005423919931e-02 -1.3126183812867112e-01 3.9278488160881635e-02  1.3711794605784625e-02 -1.4516566857432042e-01 4.4658419618934596e-02  1.3384682959292791e-02 -1.3471958062733438e-01 4.6045816680944644e-02  1.2837482569332623e-02 -1.2767514533425764e-01 4.3396156144119263e-02  1.3594517465147962e-02 -1.4256492637051610e-01 4.7563850634245751e-02  1.3053972145450893e-02 -1.3115268996009921e-01 4.9463980208321899e-02  1.2599598466955927e-02 -1.2368511833554889e-01 4.7334886843328219e-02  1.3406526364502232e-02 -1.3945434194670003e-01 5.0225787607314214e-02  1.2677006164338275e-02 -1.2701916687726938e-01 5.2859074262269858e-02  1.5328454217916553e-02 -1.5314025801029765e-01 4.8426807232494942e-02  1.5265661852358735e-02 -1.5439585768219249e-01 4.7890041044603163e-02  1.5963746091885368e-02 -1.5262383158977527e-01 4.5534011358173261e-02  1.5472422980130560e-02 -1.5225282691532413e-01 4.7494017619263813e-02  1.4906166574620964e-02 -1.5467334136269803e-01 4.8592164992017114e-02  1.4866944105655609e-02 -1.5364134886913078e-01 4.8609824194802288e-02  1.4891175709333791e-02 -1.5127223048771690e-01 4.9103221150886750e-02  1.4450603034980157e-02 -1.5426982577441789e-01 4.9109908157244662e-02  1.4314196484140564e-02 -1.5345042830873545e-01 4.8687273878708394e-02  1.4236257150865574e-02 -1.4973647982608848e-01 5.0407167790699307e-02  1.3914792771854962e-02 -1.5329165498035574e-01 4.9413862141053658e-02  1.3692026582606341e-02 -1.5269202719057717e-01 4.8580589026862499e-02  1.3509903782089097e-02 -1.4765944819422261e-01 5.1429527726478373e-02  1.3306407893863477e-02 -1.5180078327291416e-01 4.9443037950507848e-02  1.3001769733686002e-02 -1.5144988451648650e-01 4.8196983060177973e-02  1.2705898371033274e-02 -1.4500234746322671e-01 5.2170124380106146e-02  1.2623947905400888e-02 -1.4981633149763865e-01 4.9099603274980072e-02  1.2241033785951719e-02 -1.4977138811741125e-01 4.7405179661245009e-02  1.1807117993087712e-02 -1.4165798216202907e-01 5.2621279397337753e-02  1.1844167917114963e-02 -1.4733251819863555e-01 4.8237581322394175e-02  1.1403801296430101e-02 -1.4767120374162337e-01 4.6036597241842482e-02  1.4145694648651237e-02 -1.5081780215459759e-01 4.8218920092347607e-02  1.3724990970987722e-02 -1.5180161104377160e-01 4.6934893923033343e-02  1.3221395807022914e-02 -1.5212174204861839e-01 4.5757680058529530e-02  1.2656059757512795e-02 -1.5191966678032640e-01 4.4533759080435470e-02  1.2031835329697937e-02 -1.5132895899447513e-01 4.3083018263562270e-02  1.1348123714479354e-02 -1.5046592334782913e-01 4.1206424396999536e-02  1.0601280928247679e-02 -1.4945578383154570e-01 3.8646224478935252e-02  1.5242291901957217e-02 -1.5361711300183431e-01 4.4267286262917253e-02  1.4984912195296192e-02 -1.5302525820741014e-01 4.6614413082393197e-02  1.4630057939232922e-02 -1.5184917943846013e-01 4.8560845281486173e-02  1.4186114092292501e-02 -1.5013536186844573e-01 5.0177790243977449e-02  1.3666785547669065e-02 -1.4787725755699080e-01 5.1512589749809982e-02  1.3078941222327488e-02 -1.4501416389307961e-01 5.2597515847562705e-02  1.2427069726096742e-02 -1.4141997533778952e-01 5.3495147438568612e-02  1.4521259606029209e-02 -1.0781717374336558e-01 1.6704251728850698e-02  1.3486026181345163e-02 -9.7192215011804611e-02 1.0229475850752503e-02  1.3718880127588101e-02 -9.3237045497920418e-02 8.6762566330709709e-03  1.2165862212075046e-02 -9.1148738154468695e-02 1.5865629624191378e-02  1.3213743055738636e-02 -1.0259327854225916e-01 2.2572035311475586e-02  1.2255125066045742e-02 -8.7115011469626483e-02 1.4276468954970208e-02  1.0903166969341873e-02 -8.1476390315565139e-02 1.9412532007874864e-02  1.0936890431274358e-02 -8.5526006780939981e-02 2.1058899639953145e-02  1.1956561648128363e-02 -9.7613414440921711e-02 2.7892304759695279e-02  9.6002717300901416e-03 -7.6083534889288512e-02 2.4415503437702390e-02  9.7539285958112287e-03 -8.0099324552018430e-02 2.6077191790630422e-02  1.0725346895186076e-02 -9.2664866131296514e-02 3.2947075175142920e-02  8.5734345987637916e-03 -7.4671323020663330e-02 3.1169620637774457e-02  9.4806275619877672e-03 -8.7573611822273495e-02 3.8008970013194726e-02  7.3598845251671716e-03 -6.9088639447455649e-02 3.6550043211023973e-02  8.1920654345440137e-03 -8.2201141683777318e-02 4.3318520417321156e-02  6.0794665530241911e-03 -6.3219291459779517e-02 4.2388337138874632e-02  6.8332185855669442e-03 -7.6479030570219486e-02 4.9108846938187921e-02  8.9933328370477156e-03 -4.7590000333173378e-02 -1.5552254574356904e-02  8.1206759477231300e-03 -4.0312259794980251e-02 -1.9699411694757290e-02  8.2081738896257802e-03 -3.3296916194494056e-02 -2.1474507874481803e-02  7.9748207893556699e-03 -2.8243661570976460e-02 -2.3076637934273656e-02  7.5152659398764546e-03 -3.4255227172450151e-02 -1.9887187239517004e-02  8.1085176635957486e-03 -4.0736014214531470e-02 -1.4846806577791418e-02  7.4024609925531564e-03 -3.4891322347437491e-02 -1.3472657555095422e-02  7.0364364998369800e-03 -2.9147201303370420e-02 -1.9177144223063245e-02  7.7054566793805668e-03 -2.3931921161084866e-02 -2.3522150722444051e-02  6.6061758487784214e-03 -2.4557092664335929e-02 -1.7738592548940127e-02  6.7598847276672275e-03 -2.9610781217401988e-02 -1.1506800741477070e-02  7.4117333550771675e-03 -2.0042290266291143e-02 -2.3074708743104966e-02  6.1122255120426815e-03 -2.4653820716366643e-02 -8.9894509936299574e-03  1.4761682515595918e-02 -1.5567374204502413e-01 4.6604045738615339e-02  1.4613670454748229e-02 -1.5566730223736269e-01 4.7888006852671819e-02  1.4345685028695916e-02 -1.5500826476658239e-01 4.8904908784140798e-02  1.3986381900867555e-02 -1.5378140969832119e-01 4.9663832779272485e-02  1.3551203379321924e-02 -1.5202475963611181e-01 5.0141141616845630e-02  1.2736208950834665e-02 -1.5262325419903888e-01 4.6857210865055163e-02  1.3269752165087498e-02 -1.4782782464371394e-01 5.1279997304947159e-02  1.3048010617954738e-02 -1.4972297460127254e-01 5.0280669577117840e-02  1.2298025699170958e-02 -1.5040354937490719e-01 4.5531204633495984e-02  1.2822984364502164e-02 -1.4447191802666662e-01 5.1687955890964969e-02  1.2472082892799956e-02 -1.4675872921437566e-01 4.9974586026717720e-02  1.6326735002367799e-02 -1.3958084683319272e-01 3.5127188780223716e-02  1.5456134331742036e-02 -1.3727595259445316e-01 3.9677218606619574e-02  1.4542037144311289e-02 -1.3465294450172460e-01 4.3609073755057459e-02  1.3589574992763757e-02 -1.3164815268833732e-01 4.7135211378260516e-02  1.2584156347471672e-02 -1.2817084653308822e-01 5.0458294502695310e-02  1.1508552633341633e-02 -1.2410449983892632e-01 5.3772956743776280e-02  1.0339669895275929e-02 -1.1930899790296491e-01 5.7288665807469982e-02  1.4826437193724585e-02 -1.5516030785932911e-01 4.7998817910473855e-02  1.4577505650311925e-02 -1.5552286618738961e-01 4.8497710530719509e-02  1.4222327923141724e-02 -1.5519674267165298e-01 4.8844601636172574e-02  1.3781432013587435e-02 -1.5429408637710360e-01 4.8993627309090355e-02  1.3266759843911353e-02 -1.5288253389918816e-01 4.8871641828476253e-02  1.2682098505990357e-02 -1.5099026459531104e-01 4.8362022043161874e-02  1.2027480426559529e-02 -1.4863107340334114e-01 4.7275248071099056e-02  1.6098568103522171e-02 -1.5226139858830823e-01 4.7013909102198909e-02  1.5508339980640624e-02 -1.5225292091140330e-01 4.8251586666261052e-02  1.4830901687287361e-02 -1.5158875984102782e-01 4.9232317793174545e-02  1.4088555665771919e-02 -1.5035691095583409e-01 4.9962151947633621e-02  1.3278176765220785e-02 -1.4859893906453792e-01 5.0414326761486890e-02  1.2391380475223809e-02 -1.4631202559514114e-01 5.0527765694910395e-02  1.1411803344334641e-02 -1.4345670297341784e-01 5.0189394307556846e-02  1.3941027093993997e-02 -1.5492505075802163e-01 4.8304664116093514e-02  1.3782668829641459e-02 -1.5564927125793490e-01 4.7866044891438773e-02  1.3516450853284397e-02 -1.5566816972309142e-01 4.7410946449046587e-02  1.3167430843484965e-02 -1.5512444037023898e-01 4.6825623519996397e-02  1.2750492970210555e-02 -1.5411727684232937e-01 4.5978965022700297e-02  1.2271221215482592e-02 -1.5272014378825874e-01 4.4706949412729846e-02  1.1725245931610668e-02 -1.5101466335922692e-01 4.2794562354052976e-02  1.5118069611254214e-02 -1.2047224244680864e-01 2.3008209273321981e-02  1.4482119297253090e-02 -1.2034742207296577e-01 2.2506569681699434e-02  1.3819009314706933e-02 -1.0767036296884144e-01 1.5742075416923518e-02  1.2689510256886027e-02 -1.0229901830713295e-01 2.1608101644248940e-02  1.3548792801118533e-02 -1.1604966802552254e-01 2.8426814581434021e-02  1.4022404161970214e-02 -1.1630429530487631e-01 2.8897862748094909e-02  1.1617122429858391e-02 -9.7201437745169775e-02 2.6963465432354394e-02  1.2636217294238973e-02 -1.1182449758295411e-01 3.3683615710659059e-02  1.2942172047237098e-02 -1.1217368810077408e-01 3.4108154136250998e-02  1.0563438555563210e-02 -9.2156643859507698e-02 3.2062254079477652e-02  1.1715475344388663e-02 -1.0748702830784689e-01 3.8606003321131288e-02  1.1863040703693350e-02 -1.0793117165700877e-01 3.8962876589195325e-02  9.4964125083433163e-03 -8.6986743453187354e-02 3.7164675373002491e-02  1.0764024481897744e-02 -1.0288221478491673e-01 4.3454724882086085e-02  1.0756062220068785e-02 -1.0341938348100022e-01 4.3730369153008791e-02  8.3914689120585077e-03 -8.1553300151600033e-02 4.2507711987862538e-02  9.7657810749490516e-03 -9.7877638191606608e-02 4.8478041990602697e-02  9.5994374682803838e-03 -9.8500003253648646e-02 4.8663874036990580e-02  7.2313981061647116e-03 -7.5748833222579470e-02 4.8305736290258888e-02  8.7208559539710805e-03 -9.2382670824927127e-02 5.3909298109660692e-02  8.3733457392070037e-03 -9.3037933225067648e-02 5.4021188180841756e-02  1.0408413143924275e-02 -8.6473446638451898e-02 3.0385681742771269e-02  1.0965383495739176e-02 -5.9928385176679151e-02 -8.1491756776026630e-03  9.9329896287288517e-03 -5.8851528858459949e-02 -1.0012829667553725e-02  9.7265808395449582e-03 -4.9217847804380203e-02 -1.3429283936433155e-02  8.8216019298151989e-03 -4.2290518627102154e-02 -1.2528268743157843e-02  8.8052498008073746e-03 -5.1661731578412820e-02 -7.5345849817674481e-03  9.6821530015868944e-03 -5.2707022445170525e-02 -5.5255660649275781e-03  7.9652269654597024e-03 -3.6394516782980342e-02 -1.0877713582934731e-02  7.8703151317782351e-03 -4.5410759683903630e-02 -4.7697486542047458e-03  8.5603366899947003e-03 -4.6506201281536895e-02 -2.6332616064204803e-03  7.1495557003190329e-03 -3.1027923435592866e-02 -8.6474127693101418e-03  7.0113881754747896e-03 -3.9708800821205995e-02 -1.6173878655559428e-03  7.4988599091551211e-03 -4.0828436083238634e-02 6.4282209498384070e-04  6.3258194942468994e-03 -2.5946632293533955e-02 -5.8751545705848568e-03  6.1700520812424465e-03 -3.4288102846270624e-02 1.9712132170360656e-03  6.4445643028894486e-03 -3.5403469371036750e-02 4.3504874483954858e-03  5.4674194828320038e-03 -2.1003407896604844e-02 -2.5736709607220216e-03  5.3071726656122092e-03 -2.8982315648148762e-02 6.0390202717999098e-03  5.3647280510107148e-03 -3.0068116550934224e-02 8.5375968494782236e-03  4.5473830528187783e-03 -1.6108302427068920e-02 1.2370251392245961e-03  4.3970194551456844e-03 -2.3696015768903379e-02 1.0630366235173360e-02  4.2412112622056287e-03 -2.4748098946245623e-02 1.3255851553282783e-02  1.1069412947542188e-02 -6.9497332590495009e-02 -4.0665874566624873e-03  9.8047567023664788e-03 -6.2412668118117347e-02 -2.2468712619463785e-04  8.6841343151511045e-03 -5.6137496397459373e-02 3.6101420205004934e-03  7.6437541811830356e-03 -5.0335826409519668e-02 7.6267408554223622e-03  6.6192918490506165e-03 -4.4749605768639747e-02 1.1965675044110727e-02  5.5686132772349304e-03 -3.9207500815397638e-02 1.6738017311797936e-02  4.4579630278570766e-03 -3.3602461423681389e-02 2.2041466211733030e-02  8.9784992188928735e-03 -3.9654644463811936e-02 -1.7999063549614037e-02  8.3865694588504246e-03 -3.3575678612965870e-02 -1.8758575934638741e-02  7.8425422198847884e-03 -2.8342080712607812e-02 -1.8427293503940519e-02  7.2945684484479918e-03 -2.3613896585578126e-02 -1.7372906129856102e-02  6.7289988542524968e-03 -1.9201928669116502e-02 -1.5687066963385711e-02  1.6665136268758353e-02 -1.4963875458281164e-01 4.4220998741534207e-02  1.5916106008463736e-02 -1.4899629889254251e-01 4.6580899086954543e-02  1.5101743521879124e-02 -1.4778394546982693e-01 4.8542373399759794e-02  1.4228835466562464e-02 -1.4603514717911062e-01 5.0180238914042559e-02  1.3291713181945355e-02 -1.4374761917100712e-01 5.1545760973857505e-02  1.2275605612042951e-02 -1.4086669562054133e-01 5.2668930313181282e-02  1.1141968394164424e-02 -1.3726250597674200e-01 5.3559622301332398e-02  1.5154402493510116e-02 -1.5126425898604290e-01 4.8536225458814253e-02  1.4603547371073292e-02 -1.5200571367645571e-01 4.8070418493035477e-02  1.3979335419267052e-02 -1.5205206433519605e-01 4.7590661956887305e-02  1.3293375798757310e-02 -1.5154446606841379e-01 4.6986886720042281e-02  1.2547805766053194e-02 -1.5059409768299875e-01 4.6123235995165698e-02  1.1737262794600743e-02 -1.4928400996701163e-01 4.4833055188969413e-02  9.6962429864889104e-03 -4.2568189439088494e-02 -1.1168760222098452e-02  8.6613228088771154e-03 -3.6553443793829375e-02 -9.6224876789053095e-03  7.6686429369754719e-03 -3.1061333950465460e-02 -7.5088646899131983e-03  6.6814317068273942e-03 -2.5865674093680492e-02 -4.8635559020646195e-03  5.6733045240364172e-03 -2.0818174708414083e-02 -1.6897955084228642e-03  4.6210388255522568e-03 -1.5805802384042635e-0