<?xml version="1.0"?>
<VTKFile type="UnstructuredGrid"  version="0.1"  >
<UnstructuredGrid>
<Piece  NumberOfPoints="370" NumberOfCells="1211">
<Points>
<DataArray  type="Float64"  NumberOfComponents="3"  format="ascii">0.6305366219362482 1.461672021701259 2.573137157518678  0.3505506524007391 1.439119323266543 2.229124975212371  0.7233515360664949 1.860504275633375 2.143566592013062  1.16929327003969 1.615214451734676 2.02523850809439  1.962734657692562 0.3783613699999914 1.846559366820982  1.91926574085063 0.5296409455353088 2.339697577168066  1.745217422811993 0.9572087840349652 2.004132439917261  1.399310647126385 0.4861101870387526 1.965101941806065  1.491481428815471 -0.04246098436356954 1.192857642755402  1.240992448073932 -0.7277991002123511 1.504890969845327  1.451841918673485 -0.4160870690660196 0.8124817833527678  1.957241061154269 -0.4044530916512841 1.130662055155801  0.850549934291718 1.02575904982513 0.5353204991820871  0.9958825989361937 1.724545838077586 0  0.79119686240752 1.833952643622452 0.6008470958115142  1.190141907336148 1.598104417287793 0.790786027167462  0.1466855526147347 -1.464880016853866 2.2297974104337  0.03653064831300958 -1.996402045182105 2.459535282061257  0.4182078247438861 -1.953068608486724 2.399152904188485  0.3606546971297125 -1.571158736162652 2.586357545217903  0.9545290653659886 -0.2816454632327977 0.6694471130563237  1.285895848641168 -0.9157810167207565 0.4484794291144768  1.191933442830757 -0.8743164676129442 0.903733845483468  -0.04369448314686741 -1.9956964690359 2.079055695557334  -0.08831675386205026 -1.592209287680673 2.5786718043508  -0.4597234839101871 -1.940474970960854 2.365577208844509  0.8599034339052349 -0.5023742943566752 3  1.339634282624336 -0.7964456803802702 2.547452680787598  1.468057415404991 -0.2920147759474656 3  1.371659700543215 -0.6077316139648379 3  1.512588052516405 -0.2740719184538642 1.754192008279186  0.9893257645081893 0.1083773317058151 1.785271323260748  0.9756404903825265 -0.2120504217921436 1.431575385960868  0.9545290653659886 -0.2816454632327976 2.01543266745928  -0.6813513412608918 1.373329703138566 1.700767684044582  -1.111645100464135 1.018766509541888 1.580900689761718  -1.059542960476273 1.69051866591576 1.998542381954114  -1.170945775598536 1.613858275470806 1.514352004916045  1.52494138948322 -1.279291314658712 0.6173649490931152  1.669784403879814 -1.098334036361089 0  1.779059765191092 -0.8938942146969459 0.5606628110678626  0.1821743391565473 1.595435930750562 2.5903667231274  -0.1879604925798806 1.981487507310104 2.257437501874302  -0.4179722159358051 1.953140079637284 3  0.04335340489247286 1.995730062311829 3  0.708221843788238 -1.311703949689869 1.769051025256928  0.7911968624075247 -1.83395264362245 1.495263286014477  0.477219149204427 -1.935167718916343 1.889112662052278  0.2683758495222019 -1.490673620404064 1.475667784107566  0.9025541663092692 0.4225803863622857 0  1.135486067825821 0.947534454009326 0  0.6021968632248157 0.7932041258053155 0  0.9827995192597104 0.1746394117049448 2.234570310665951  1.323841507958512 0.4889974985894576 2.488428520580235  0.9025541663092692 0.4225803863622857 3  0.9955658339392071 -0.04502084354218341 3  -1.126481124092755 -0.9473283376278889 2.074233125962432  -1.664006297246322 -1.10914411354164 1.875888952633512  -1.294582432735519 -0.820629184485212 1.551364336100787  -1.312762776967178 -1.497472070268641 1.943469646961802  0.9807852804032303 0.1950903220161286 1.006853791166158  0.8534608015375593 0.5144276117421314 1.633723584493013  1.430264222105482 0.4050405554365119 1.451769552081978  -0.7740713825566979 -0.6255101783274258 3  -0.9807852804032304 -0.1950903220161286 3  -0.8836349378529437 -0.457975773256652 2.310914062613334  -1.344567555190213 -0.6983284766763056 2.512258555473228  -0.5131581223052614 1.382860631703773 1.129235146161471  -0.02829600397680024 0.9972130868589251 1.611363293353632  0.06779261740588695 1.516765368192542 1.298023978812301  -1.988366544844581 0.1181164523892848 1.985795232067481  -1.43886208970591 0.5149695080182193 1.569797912004486  -1.36936675165574 0.5445791180649255 2.094601113017113  -1.441353532002964 -0.002342185071706054 1.686018115577875  -1.973204015961851 0.2720641916429689 1.04935599125763  -1.973811255843297 0.2658987816605045 1.52516799132508  -1.873357740944297 0.6809793394824694 1.315280730417338  -1.188860511984403 1.060117160508811 2.563049150981436  -0.6181448518038473 1.361670697378814 2.257069987665449  -0.5260672980891882 0.8472392595660831 2.417582874741109  -1.033679646116655 1.024275855209801 2.145813876738128  -1.514674703827641 0.3918295191835702 2.521219115594658  -1.9147265257177 0.5446047324439067 2.31369071979841  -1.987182279842392 0.1301404967408785 2.419469863729676  -1.961570560806461 0.3901806440322567 3  -1.423509350166563 1.402886612173637 2.399036955962143  -1.245839619965377 1.552394485835316 3  -1.059542960476273 1.69051866591576 2.444231285366565  0.3959736871192822 0.9167757433455479 2.450393920867024  0.3959736871192823 0.9167757433455478 2.007856029557719  1.014116663803043 1.091301493651112 2.474767832486639  -0.6397769089613947 1.885856361599427 2.410835427716981  -0.1396511336192156 1.472791285825262 3  -0.5135625025850592 1.416926151553228 3  0.2171273278454561 1.452231135633227 0.7206241776988639  0.5838681171949094 1.350343322085466 0  0.570825861405329 1.906772433206812 0  0.07503473923697349 -0.9926097232320116 3  0.5289722636881395 -0.8456865231038897 3  0.3150958902771757 -1.466099679343499 3  -0.7388634075939597 -1.312816839320978 0  -0.5715818319253561 -1.466126416576961 0.4872632822601926  -0.790979724086402 -1.834068706473131 0  -0.4336968377143349 -1.444224541082522 0  -1.704258405401222 1.033837715886708 2.209211779154401  -1.813533168648966 0.8293990131207396 3  -1.57081860896361 1.223389760977683 3  0.5942163908489371 -1.374481420233743 0  0.7270811635437457 -1.27490888061952 0.5462966671918753  0.9958825989361997 -1.724545838077583 0  0.8720618164091423 -1.226870877129539 0  1.52814208573423 0.1613137918978926 0.5102072734156454  1.931628784137607 0.4888854537001639 0.8268342758254814  1.873050508530103 0.6819921490195341 0  1.779059765191089 0.8938942146969522 0.5856441150032816  -1.438480770485098 -0.07050119218872986 2.438185635059182  -1.513914009740071 -0.2001832623755173 3  -1.479465319414609 0.08365730523362372 3  -1.973204015961851 0.2720641916429692 0.585554881990308  -1.981971206824973 -0.1830494089890101 0.817455436623969  -1.442538962714197 0.1702583109259658 0.9778387525341716  0.5916715253007025 1.35922078290025 1.616040581602528  1.13378064835715 1.644358907156259 1.504736713985521  0.9802837104947404 1.015623498320987 1.932926185769896  -0.6020906612473962 -0.7932912835157278 0.5300545641521022  -0.8836349378529436 -0.457975773256652 0.6404787520590902  -1.023790947274213 -0.8542189253140726 0.4828357610848663  -0.602090661247396 -0.793291283515728 0.9479788500445958  0.6403047911642088 -1.885696230283868 3  0.1878647545340524 -1.981496936684592 3  -0.07495270366908996 0.9926178030302176 2.335678285116733  -0.1633239734712831 1.457514625388545 1.969260541812861  0.1736639328492305 1.982895595541155 1.940581159545814  -1.851925440117959 0.7516321667079673 1.81593851648282  0.9314397286268589 1.185469520867052 0  -1.493079834035256 -0.02565043060049582 0.4708275303802578  -1.940494357883519 -0.4596595737911316 0  -1.873203290925756 -0.6814884929589626 0.7907882208455987  -0.9408192553364747 -0.3268406500285767 1.845715925535895  -1.441806623388049 -0.4387237814713535 2.034006661436112  -0.2308620053190963 -1.551539094294586 1.717794458136412  0.6612847082440421 -1.340114905463987 1.108893916461269  0.3402362675669802 -0.9367557391813275 1.488714204061065  0.5360331878793529 1.383554395144927 3  0.5013469316464557 1.927848636129754 3  0.9318504505456354 1.758771734451193 3  -1.429512709177072 -0.3562124671024821 1.118349919785871  0.7623538123515461 -1.256718477748746 2.327019461856683  0.3106111190640441 -0.9457424297310684 2.455385688454125  1.442193373962851 0.348801655142766 0  1.28393644087122 0.6551747871608027 0.5464156047922772  -0.7378844931157909 0.6696040306912336 1.328661823726752  -0.9726455044974873 1.137273922375865 1.073924182966422  -0.4172064841849356 0.905426576866573 1.472187054373984  -0.5041753880756408 0.8589407292555569 0.7961323206085094  -0.4857392175468291 -1.371645797971567 0.9777955730243429  -0.08925624373007968 -0.9912090272966354 1.19456677684017  -0.4903859489869041 -0.8663113380070018 1.393053778537583  -0.1244862568658107 -0.9877391738626058 1.721971119438714  0.4218757816223546 1.951955945932026 1.52996483538921  0.06424814067857221 -1.462513542149503 0.8252938567089958  -0.2165167111830255 -1.978674965265306 1.059418840454187  0.08389629142111744 -1.655366426983338 0.4668966795233791  0.791196862407529 -1.833952643622447 0.6178951048582574  0.5289722636881395 -0.8456865231038897 0  -0.8598386698837637 0.5024954593186663 2.384476326122496  -1.415649600564344 1.412463744774179 1.124111047366489  -1.669846618080803 1.098217641777694 1.495259244783022  -1.669846618080803 1.098217641777694 0.7844479410434644  -1.302506330247836 0.7314384720123622 1.10539181245277  -0.9967945349396865 0.03254563292889093 0.6355050416165856  -0.9916319741441293 0.08496199232257164 1.271933936467721  -1.98098155916357 -0.1930974703189275 1.399842543598607  0.03296184272064258 -1.996753541853206 1.470035164610787  -0.8598386698837638 0.5024954593186663 0.7531117329128125  -0.1161671093212523 -1.988558538379005 0.5893077665132739  -0.5709179202917509 -1.906744507448919 0.7425624981256993  0.7876799948882367 0.6089280362230858 0.7814979844598379  -1.174791349590177 -0.9094291444928995 0.8802318284181406  -0.8667404926794215 -0.4895830570665023 1.393053778537582  -1.392669400495818 0.5227178203765839 0.5650798974098937  -1.524758301142871 1.279514408446921 0  -1.779307272275358 0.8934311615112988 0  1.779059765191092 -0.8938942146969457 1.01238676768993 
[...]
<PointData  Vectors="f_17"> 
<DataArray  type="Float64"  Name="f_17"  NumberOfComponents="3" format="ascii">3.1372357967828777e-05 7.4728552195015130e-05 -1.8559313781562385e-05  2.0210347076895105e-05 8.2935697312809143e-05 -1.2529696377636560e-05  2.5658568874400739e-05 6.7236052251006207e-05 -1.0746840075604617e-05  4.1813135509076651e-05 5.8476760232891363e-05 -8.7333647993860192e-06  6.9605242401471056e-05 1.3793763689824254e-05 -5.6785887787402855e-06  6.7926131517967591e-05 2.0066865857416270e-05 -1.4432887897620535e-05  6.2708409682894146e-05 3.4878341883079505e-05 -8.5139558662779665e-06  7.9355702339479708e-05 2.8638213925498548e-05 -7.9684617611209975e-06  8.3428162656071082e-05 -2.0241584648134817e-06 5.6998049965742917e-06  7.5110133520190554e-05 -4.4145084095344591e-05 1.3484660299677493e-07  7.9606956500460511e-05 -2.2015613113834193e-05 1.1357276613248691e-05  7.0196253815339680e-05 -1.3900409514744056e-05 6.2948637237451267e-06  5.8179962735762930e-05 7.0851544521279713e-05 1.7042011963085267e-05  3.5764135388322290e-05 6.2767966460274241e-05 2.6512593966843391e-05  2.8367217619332407e-05 6.6959888830064922e-05 1.5607707506246601e-05  4.1623212085580405e-05 5.7732262770750765e-05 1.2497808089409989e-05  8.1671608348442203e-06 -8.5080122346301024e-05 -1.3347582705057196e-05  1.0069755070155374e-06 -7.1282549201847234e-05 -1.7850205263315954e-05  1.4287765918593741e-05 -6.9849478473515530e-05 -1.6656922002693355e-05  1.7369998362739108e-05 -7.7964515656501766e-05 -1.9929173370697208e-05  1.1027836398692292e-04 -3.2076341506669002e-05 1.4701004206906308e-05  6.6430137083740802e-05 -4.6492217044448123e-05 1.8021323830776521e-05  6.7539714293830144e-05 -4.9206614686914924e-05 9.9309158804541258e-06  -2.0413149817782427e-06 -7.1085349782768628e-05 -1.1235592592861248e-05  -5.1316402410062349e-06 -8.0607637079473197e-05 -1.9773289475583808e-05  -1.7002229859008323e-05 -6.9671863542675901e-05 -1.6098406969753965e-05  9.6701262580738560e-05 -5.8515448391640262e-05 -2.7050392947297365e-05  6.9787872821686171e-05 -4.1789567557136416e-05 -1.8479906157381004e-05  8.1961275211610171e-05 -1.6622685005051913e-05 -2.6356474775618512e-05  7.5847663870343227e-05 -3.4030965968569684e-05 -2.6227678730106591e-05  8.0299842503597416e-05 -1.4771889836828462e-05 -4.4211589194658146e-06  1.0964499445658927e-04 1.1605053618269809e-05 -5.2984785665997617e-06  1.1087409791408962e-04 -2.5899910760720679e-05 1.2720732699020198e-06  1.0713555071277634e-04 -3.1192116278287985e-05 -9.8879948950549782e-06  -3.7568531388772079e-05 7.3576193048239166e-05 -2.8767698005300591e-06  -6.2204332265290940e-05 5.6362733498677744e-05 -1.0183062613389754e-06  -3.8585850805187638e-05 6.0501006695944020e-05 -7.6527345120182945e-06  -4.2232732919615208e-05 5.8160843168804489e-05 4.7933061875481637e-07  5.4415939476462940e-05 -4.5401384974999688e-05 1.5193263400285160e-05  5.9633398158633630e-05 -3.8515568637502590e-05 2.5854371484828200e-05  6.4101323597271919e-05 -3.1509753264959488e-05 1.6159841381701736e-05  9.2734395877955136e-06 8.0724993946036799e-05 -1.8117480112512927e-05  -7.2734359876542558e-06 7.1517678030134980e-05 -1.2549944949950364e-05  -1.5813271877906120e-05 6.9799917238137101e-05 -2.4242867653810438e-05  1.0389926292686043e-06 7.1978893189949921e-05 -2.5233792155626634e-05  3.9564736600770297e-05 -7.4198993074272023e-05 -5.3915806807064411e-06  2.8652976131513086e-05 -6.5058258017183153e-05 -7.1700484009196222e-07  1.7014746248576937e-05 -6.8997841704949748e-05 -7.7258383748924359e-06  1.4400892451183297e-05 -8.1705719887711364e-05 -1.6671801277617312e-07  1.0294782217355359e-04 4.8170985436440444e-05 2.5242297676582633e-05  6.3872967026681551e-05 5.5048745599190412e-05 2.5893287216575685e-05  6.7699804904510939e-05 9.0811273857975978e-05 2.7463509072937120e-05  1.0908717801576097e-04 2.1205037427552381e-05 -1.2980937773370404e-05  8.1770137142503230e-05 3.0870869563211774e-05 -1.7305261542788452e-05  1.0140511384215109e-04 4.8433755185006708e-05 -2.5741060163655551e-05  1.1224828889212989e-04 -4.8424548878720146e-06 -2.6392099968066208e-05  -6.5775485786457189e-05 -5.5178889383912667e-05 -9.9409096383734581e-06  -6.0079605498370727e-05 -3.9272725043169850e-05 -7.1816725922717382e-06  -7.0282323697967020e-05 -4.3377264182959622e-05 -1.8177332656726137e-06  -4.7639065003058718e-05 -5.3484301444792547e-05 -8.2500868470687217e-06  1.1161035731054785e-04 2.1589748953979963e-05 8.1960304270151326e-06  9.4463531226441708e-05 5.9159891869213533e-05 -2.0776662437127088e-06  8.0396470495200302e-05 2.3501953164141928e-05 4.7837078357298258e-07  -8.8756019348625473e-05 -6.9649748096452322e-05 -2.6386628475516239e-05  -1.1054878782294058e-04 -2.2261793595711111e-05 -2.5076648984255210e-05  -1.0189289701573725e-04 -5.2708970964145868e-05 -1.3610698055614755e-05  -7.4569970207130412e-05 -3.7622702069538810e-05 -1.7705551701205446e-05  -3.0235257998975585e-05 7.9615704143168052e-05 7.3169569673198192e-06  -3.2866870622104293e-06 1.1374451828214221e-04 -1.7906295951723421e-06  2.9777651470764909e-06 8.4131753439458350e-05 4.3498111577341073e-06  -7.1281909106711349e-05 4.1496773691646596e-06 -7.5707678896144041e-06  -7.8479128199045406e-05 2.8784202807052403e-05 4.1815940321134201e-08  -7.8264234756765115e-05 3.2155017014720084e-05 -9.4534855672930768e-06  -8.7160128277552384e-05 3.2291727165761206e-07 -2.7800235788350938e-06  -7.1247002496845440e-05 1.1024237866295090e-05 8.6730715163352324e-06  -7.1566436968468569e-05 9.4649032475771084e-06 4.3415246846789789e-07  -6.7998990276246646e-05 2.4998850064707356e-05 4.5206137081835018e-06  -6.0606282462571279e-05 5.3406052006008295e-05 -1.7246225703476393e-05  -3.5337905186779865e-05 7.7118699883378943e-05 -1.2348958095396176e-05  -5.9106503709025790e-05 9.5497010867627447e-05 -1.5608178709505362e-05  -6.1506501019390787e-05 6.0758059234671147e-05 -1.0604265785975921e-05  -7.9108274397021356e-05 2.0583121677021624e-05 -1.6780444350776540e-05  -6.8529877715608602e-05 1.9946963439209798e-05 -1.3047191787222565e-05  -7.1105943147733067e-05 4.2816099345686831e-06 -1.5290600143664285e-05  -6.9350686123994959e-05 1.3249949063894681e-05 -2.4161233762825209e-05  -5.0728709975513756e-05 4.9717609182749870e-05 -1.4140656559728897e-05  -4.4732534198716612e-05 5.5224196084733010e-05 -2.4503947263719791e-05  -3.8498050621861286e-05 6.0558357919085143e-05 -1.5002905702834870e-05  4.3197435443886562e-05 1.0573547717206281e-04 -1.7170259265075222e-05  4.4652311771029145e-05 1.0478911942416537e-04 -8.3570304462649802e-06  5.7285447727719101e-05 6.2887362596878598e-05 -1.6846142389275891e-05  -2.3593108242566209e-05 6.7385154816523092e-05 -1.4975202117431742e-05  -7.4408390489490066e-06 8.5034203073475095e-05 -2.4839256605698293e-05  -2.8306512457506205e-05 7.8239839006335294e-05 -2.5533804738671525e-05  1.2129268611650906e-05 8.5788081704008548e-05 1.3782470633019634e-05  3.2974368179406104e-05 7.8708827838335472e-05 2.5968220227493806e-05  1.9435201152703072e-05 6.9650149395335864e-05 2.6310520039935895e-05  8.3173402933001812e-06 -1.1263433819277972e-04 -2.8254369371481725e-05  5.8628128479061301e-05 -9.6467450996848451e-05 -2.6564416706509893e-05  1.6977572546642221e-05 -8.2575218866472812e-05 -2.5642164118122009e-05  -4.1019748163760282e-05 -7.0661363387030936e-05 2.5324873682553601e-05  -2.9772734408904864e-05 -7.4390977993256120e-05 1.7114710671604446e-05  -2.8687713452737168e-05 -6.3541553728698046e-05 2.5019956738580794e-05  -2.4801923988452386e-05 -7.8397130633452625e-05 2.4884177268645866e-05  -6.0794283252024850e-05 3.7270922432126546e-05 -1.0856492626459140e-05  -6.4330536205843414e-05 2.8823555687598676e-05 -2.3834627589089945e-05  -5.6101675963092233e-05 4.2993759955928190e-05 -2.4592040351006822e-05  3.3031610157442254e-05 -7.5773745902881583e-05 2.4863166902932151e-05  4.1826374068276336e-05 -7.3479139850285492e-05 1.6104311777214702e-05  3.5233329040684117e-05 -6.0606756421376655e-05 2.5837430658372658e-05  4.7662102382282386e-05 -6.6875449319247850e-05 2.5570362135298654e-05  8.1591092975806211e-05 9.7717203258019800e-06 1.7417507057454441e-05  6.8598219266091079e-05 1.8082140545481602e-05 1.1997134372987362e-05  6.5940219755197731e-05 2.5823757300859646e-05 2.5479780114333349e-05  6.2419997668410897e-05 3.2574101535155700e-05 1.6108356965720762e-05  -8.6477470430604389e-05 -4.8272010218468935e-06 -1.5748106985223258e-05  -8.1911280056844085e-05 -1.0955352990925907e-05 -2.5570207168642014e-05  -8.4589563115405948e-05 4.6335425732866045e-06 -2.4917254100369786e-05  -7.2073046122186568e-05 1.0916800562345284e-05 1.6882099728428747e-05  -7.2407419726912853e-05 -5.9193258551811190e-06 1.2092919534111705e-05  -8.6173599496566880e-05 1.0272174197454639e-05 9.9466574024530172e-06  3.3551484957631234e-05 7.7962450526977741e-05 -1.6335297104178785e-06  4.1111091299697870e-05 5.9542166629362428e-05 3.2514881203404178e-07  6.1002143776497852e-05 6.4458681351990397e-05 -7.1537667769173788e-06  -6.6345082482999939e-05 -8.8555687664818353e-05 1.7552276808399875e-05  -1.0179414632294957e-04 -4.9371784122224845e-05 1.5993398676142989e-05  -7.0057828146187026e-05 -5.7484043069134665e-05 1.7876886587968239e-05  -6.8144805407819515e-05 -8.7524059372972045e-05 1.0659112884926034e-05  2.3187968188170631e-05 -6.8122352232697730e-05 -2.7146880265595832e-05  6.2627261475772642e-06 -7.1827166027320637e-05 -2.6699553885097377e-05  -7.7975504051414707e-06 1.1319672302910143e-04 -1.4172468448640275e-05  -9.8069933713955958e-06 8.5277273004263717e-05 -7.5574784889160347e-06  5.2833240040625306e-06 7.2498565654556109e-05 -6.9357014109355803e-06  -6.5964321705696513e-05 2.7500696146009701e-05 -4.0176873935028707e-06  5.0686143048667952e-05 6.6627710450979619e-05 2.6370779518521123e-05  -8.5095308586098512e-05 5.3159849117763781e-08 1.8725603962372804e-05  -7.0405653704036920e-05 -1.4721894715378671e-05 2.5791737735848479e-05  -6.8372140171707509e-05 -2.3669676380243152e-05 1.2277548744863022e-05  -1.0621970349049480e-04 -3.8654468973756591e-05 -4.3793966580404385e-06  -8.0211981270454793e-05 -2.5233315588111369e-05 -9.5252889469821326e-06  -1.2237235402452763e-05 -8.0106056806937404e-05 -4.3471727808653013e-06  3.7188560894704174e-05 -7.4824710394356893e-05 6.0946804802717796e-06  3.9273739730191017e-05 -1.0556630018704601e-04 -6.1441237730300719e-07  3.0481409867784516e-05 7.9685488523430984e-05 -2.4690792116899016e-05  1.8033223145480814e-05 6.9919187011052239e-05 -2.5089273499139856e-05  3.3834072160593576e-05 6.3990188147777390e-05 -2.5410972010824740e-05  -8.3840460661963284e-05 -1.9721408221713821e-05 6.6577010253019491e-06  4.4014641992414595e-05 -7.3127931489159304e-05 -1.4753134091341821e-05  3.4118479080116013e-05 -1.0779086999819449e-04 -1.6623925364828448e-05  8.1636833899551546e-05 2.1232758037115692e-05 2.5504891377122439e-05  7.6609876674490419e-05 3.9303621918787803e-05 1.6015452431687551e-05  -8.5143356546627978e-05 7.5033077604461538e-05 4.0340597954138544e-06  -5.5003164638239912e-05 6.4469388620217775e-05 8.5175164558790883e-06  -4.6921802530623865e-05 1.0353860819202196e-04 1.1072107696597675e-06  -5.6842308262735741e-05 9.7282708242186491e-05 1.3670908490368774e-05  -2.9562301623076876e-05 -8.0723111228573301e-05 8.2842955144519616e-06  -1.2827337015099385e-05 -1.1188928192918803e-04 5.6646726318854989e-06  -5.6654904237639020e-05 -9.6003342266666109e-05 1.9178834955766150e-06  -1.4982366830677882e-05 -1.1153420874968691e-04 -4.6873731108987183e-06  1.4761002488381247e-05 7.1491094212273749e-05 1.4508262310829487e-07  2.9107392010306784e-06 -8.4196342678103035e-05 1.1606238755328030e-05  -8.8412689373456553e-06 -7.0313541850423989e-05 6.7327097261573049e-06  3.3602968496243930e-06 -7.7475166205302043e-05 1.7187558489417920e-05  2.7062334894642761e-05 -6.4209721005938108e-05 1.4184092544079691e-05  5.9432525983694001e-05 -9.3463208989101032e-05 2.6196267762412179e-05  -9.8144613072278573e-05 5.7626403607630519e-05 -1.5956893473902774e-05  -5.1091308910845691e-05 5.0828960303564460e-05 7.8031352970398354e-06  -6.0377569888920439e-05 3.9248150230937324e-05 1.0142239739454675e-06  -6.0234402292074639e-05 4.0273908453110513e-05 1.3277554658057353e-05  -7.3833552857575959e-05 4.2032230015574214e-05 6.9175028977422610e-06  -1.1448364638932457e-04 3.9429332412845130e-06 1.5474865308101673e-05  -1.1285698202736380e-04 1.0965123958823670e-05 4.4379416927017883e-06  -7.2221097947422971e-05 -6.1343754950598850e-06 2.5487845373429460e-06  5.6998167301333892e-07 -7.0885808502997471e-05 -6.3306036894686228e-07  -9.7872746456911257e-05 5.6497934570503585e-05 1.3946456605258828e-05  -4.5974906653212626e-06 -7.0199453203033475e-05 1.5145502209593988e-05  -2.1440379172913680e-05 -6.7275903380442726e-05 1.2171360725248579e-05  8.8140741085403825e-05 6.9030374093111179e-05 1.2993203538669637e-05  -6.7972912801471310e-05 -5.0256990930768764e-05 1.0609402144433584e-05  -9.9975020377292509e-05 -5.5188823998256191e-05 1.6087316751817089e-06  -8.0052667381403327e-05 3.0790266053327408e-05 1.7251454482947195e-05  -5.5158693353867264e-05 4.7305034162252402e-05 2.6608323714851816e-05  -6.4851601224146646e-05 3.3449681505531639e-05 2.7204710560753309e-05  6.4249657599243330e-05 -3.1137586050842305e-05 8.6088195946964671e-06  -5.5616975032016678e-05 -6.4360556432308623e-05 -2.6441365730300330e-05  -3.4344177001047447e-05 -7.3662658694539871e-05 -1.8207472955442687e-05  -4.3579090601724518e-05 -1.0464931754757636e-04 -2.6796292336332237e-05  -4.0058261184142783e-05 -7.3433504288488653e-05 -2.6596323113784603e-05  -6.8162128535410196e-05 2.5616529024885063e-05 1.2506968178272309e-05  -3.6822882558264461e-05 1.0770257221115204e-04 2.7493000658464419e-05  -3.2831345461437910e-05 7.9815563333427941e-05 1.7681653611915885e-05  -8.3272111500088864e-05 7.9202550349422629e-05 2.5521686099605825e-05  -1.3202111369049579e-05 -6.8555146955366533e-05 2.4565788631817723e-05  7.7771863966286654e-05 -1.7081654046205177e-05 1.9202807123081403e-05  7.1133087564391771e-05 1.2716065305856214e-06 1.2700125333384081e-05  -7.1269197281585678e-05 4.7558818833378185e-05 2.6440573133869229e-05  -1.0751798578551810e-04 3.0621171799824784e-05 -2.5714288188801692e-05  6.7234505137558193e-05 9.0479142015560064e-05 -2.6457426046283896e-05  4.9535867857067710e-05 6.7829890951706282e-05 -2.5407380427494861e-05  6.2664802062255840e-05 5.6926852915278996e-05 -2.5097743554167673e-05  1.8044123801938694e-05 1.1425318521650600e-04 2.6396586313326475e-05  -6.1629324881129231e-06 8.6229861493322552e-05 2.6883518202812417e-05  -8.4187359928378465e-06 1.1329759285185184e-04 1.6484154898931365e-05  4.1733981566824493e-05 -5.6183787378952857e-05 1.6997558981777854e-05  4.1624508658200195e-05 -5.7045501245092240e-05 1.0319476126107223e-05  -7.4414939382261698e-05 -3.3369650884749654e-05 1.7930343544450394e-05  -5.9708994706776621e-05 -3.8503942260274614e-05 1.5541222961375012e-05  -6.9220494988650957e-05 -8.8235561794891326e-05 -7.0889744362877077e-06  -3.6214934028593438e-05 -7.8952082127305877e-05 -1.1312028466404262e-05  7.0944611431412896e-05 8.4740313084871521e-07 8.6393918979006798e-09  -8.2892029940787729e-05 -1.2953814126303506e-05 2.6429209449008586e-05  5.6361970276639976e-05 9.8759466786971592e-05 4.4985301524740457e-06  4.2389800231337863e-05 7.4053411224597510e-05 1.0370625682857459e-05  6.2263024571128698e-05 3.4399292970928347e-05 -1.6125689456815816e-05  4.8779502913920654e-05 5.1286092007101627e-05 1.6457458414328275e-05  4.8286255024544815e-05 5.2764424306499331e-05 2.6533227409865598e-05  5.7095489288957130e-05 4.3051547822077054e-05 1.7088483402980503e-05  -1.8564328226448256e-05 -1.0881224374456949e-04 1.5739411364936373e-05  3.4833092228013262e-05 -1.0443248371420413e-04 1.3153863604677507e-05  -3.7492677820335775e-05 -6.0677666544737111e-05 -2.1269086734095255e-06  -5.1186464603344038e-05 -6.5101425584295411e-05 2.9653315910762412e-06  -2.0705875940458648e-05 -6.7631353074294834e-05 7.0655378139003134e-07  -3.6406444185818705e-05 6.2560888903288362e-05 1.7136532513287789e-05  -4.9564471104684399e-05 5.2329717794686888e-05 1.6608858982070177e-05  -3.6247093230434624e-05 6.2424562350772391e-05 8.4575343662715218e-06  8.0296758105039294e-05 2.3776334948220463e-05 -2.5455197868673533e-05  -4.5157342956373717e-05 -1.0239986810788585e-04 2.6371592181933819e-05  7.9238460197107644e-06 -1.1185408131103259e-04 2.5396980151314246e-05  -3.3624539399055209e-05 -6.3080984560435945e-05 -1.4618086618346984e-05  -2.6316178332547463e-05 -6.6777121194799396e-05 -2.6852107935953862e-05  -4.0585358695158704e-05 -5.9353590840527883e-05 -2.6462983158419130e-05  -4.5335414296414163e-05 7.2143362526971513e-05 -2.5331804215997665e-05  -3.0685680945139476e-05 6.4662121407424111e-05 -2.5539037012921205e-05  5.8421172542701408e-05 4.1338792242653062e-05 -2.5048874566678464e-05  6.5505601233011745e-05 2.6721579736824682e-05 -2.6147483874786693e-05  -1.0164027407657317e-05 -7.1261304963123230e-05 -2.6707977805278356e-05  2.1388376071576000e-05 6.8977583590309596e-05 -1.6555125661892757e-05  8.6435427221725995e-05 7.2060225559573811e-05 -1.4806466725844179e-05  9.5975148102659516e-06 7.1397449965092524e-05 -1.5239998385937639e-05  -1.1222035043439066e-04 9.7061004685879795e-06 -9.9722367432859625e-06  7.0407015082819439e-05 1.1296535932719900e-05 -2.5822599033665212e-05  8.4770910669106669e-05 -5.9258353057293213e-06 -1.3525150787363158e-05  -4.9652536553857563e-05 -5.0762390787932429e-05 7.9193321952411720e-06  -7.9663422564152587e-05 -2.5813445499894568e-05 -2.5407238416802071e-05  -7.0541230651417387e-05 -1.0646225355015594e-05 -1.5016808153837860e-05  6.4182317423094336e-05 -2.9370312814250765e-05 -1.6963336572690674e-05  6.4492902322826963e-05 -3.0150567789916142e-05 -1.0060839575171298e-05  5.5765580395782920e-05 -4.3751552369951464e-05 -1.5730416268321130e-05  -7.1247314077383707e-05 -2.6252452760439180e-06 -2.5593072161666051e-05  3.0549817855725067e-05 -6.4454704996314761e-05 -1.3163042655931964e-05  -2.3488600536281019e-05 8.1162398089667953e-05 2.6931497246619738e-05  -4.2876346486545056e-05 7.4193203510331511e-05 2.6254545120551820e-05  -3.3035008099959232e-06 7.2484388832015216e-05 1.5668537769935922e-05  -5.9784251617332664e-05 9.6372274493288293e-05 -6.2487873065455397e-06  3.0564857453155740e-05 6.5647341044285630e-05 7.2688241302824980e-06  -2.4961430443885217e-05 -6.6991510907564976e-05 -7.8132089833185124e-06  -8.1420300676299684e-05 7.7295376946797111e-05 -2.6946279146815003e-05  -7.1412887336905979e-05 4.3210514932697259e-05 -2.5341719965762975e-05  -6.0518541138357606e-05 5.6203045842164886e-05 -2.5184164823309753e-05  2.0187842707034378e-05 -6.6776661718606273e-05 2.4351760515957997e-05  1.1918884353736456e-05 -6.9241970450209623e-05 1.0740364695278944e-05  7.1931859803842909e-05 4.8893316216355863e-05 5.4311000385697304e-06  7.1210570543615517e-05 -4.6861691918295409e-05 -1.0095451500437090e-05  -8.1384425993096232e-05 1.9866059530307742e-05 -2.5633473277955065e-05  8.1814965402000488e-05 -7.5953609294542265e-05 5.2590790174329259e-06  3.3867768759596007e-06 7.2490792442609625e-05 2.6818605815058485e-05  -4.3356550425186776e-05 -5.5116471441792179e-05 2.4526381133856872e-05  -6.1546802232702303e-05 6.2960084771264749e-05 1.6622183378113717e-05  6.8804177846084458e-05 -1.7769462577168250e-05 -1.6727546493846840e-05  6.7214246267978704e-05 -2.2061228409693436e-05 -2.5828212006939305e-05  1.1666282217821735e-05 7.1385131025819977e-05 1.0544130896272497e-05  4.3721562628033434e-05 1.0404803319681127e-04 1.5103839050118705e-05  1.1252620145730453e-04 -5.5407302051494415e-06 2.6254902086394210e-05  8.3493083887713543e-05 -1.3067918144835267e-06 2.5731571748759636e-05  7.9537059380253841e-05 -7.6444264890978051e-05 -4.3268306604994323e-06  7.9786873021479854e-05 2.2516445538309926e-05 1.0052690243547907e-05  6.3378638022445615e-05 3.3034654316821146e-05 7.5442457568237549e-06  7.9678854956820080e-05 -7.6487635641059307e-05 1.5790474267196194e-05  -7.1283635822593836e-05 