<?xml version="1.0"?>
<VTKFile type="UnstructuredGrid"  version="0.1"  >
<UnstructuredGrid>
<Piece  NumberOfPoints="692" NumberOfCells="2862">
<Points>
<DataArray  type="Float64"  NumberOfComponents="3"  format="ascii">8.012256321013862 1.557331764620685 2.883399768510336  7.909690654241443 1.572431076726343 2.924486961336409  7.953959780203164 1.513293336318582 2.81017847784722  7.958426166725816 1.462420280870411 2.837432570456956  7.914357830519021 1.52330878949829 2.953920864236319  8.01762482243779 1.508019037529038 2.912213497277862  7.918904925045229 1.47418357528477 2.983354999374136  8.022891477249509 1.458706435546555 2.941044398686539  7.96275063449369 1.411531809070797 2.864680620877128  7.92339115869385 1.425062540660339 3.012775228449422  8.028104844381057 1.409397781612538 2.969869216657686  7.96700994948139 1.360637824115142 2.891923915589775  8.033303902212472 1.360096428987297 2.998685491605567  7.927857768532501 1.375951563228968 3.042180478012046  7.971257435373692 1.309745986437087 2.9191624431162  8.038530018298218 1.310804615759781 3.027497422790229  7.932348945302095 1.326854043830829 3.07157563320191  7.975544600003882 1.258862915768494 2.946403937938087  8.043837510166744 1.261510323328546 3.056308505915081  7.936941803491762 1.277771034129902 3.100962195659024  7.979946876803911 1.207999961559264 2.973658326359116  7.829517056791027 1.50763393961998 2.819826390950272  7.833686514532054 1.4563965976307 2.847318218185246  7.837706542110764 1.405148578894544 2.874767239641004  7.841652633241948 1.353904081575252 2.902195239771091  7.845584389514293 1.302672653632374 2.929608888691566  7.849561114373917 1.251468045132896 2.957018302932148  7.853650765922052 1.200311379920549 2.984447229684125  8.469229416326661 1.545929018066075 2.742010186627864  8.421284804575246 1.587098483850096 2.832680099919801  8.321506308380593 1.551522874088562 2.794741295730565  8.328926205306141 1.50234314720833 2.821634409379361  8.428611598417186 1.539094093509953 2.86012045841001  8.477528623834552 1.496541036350521 2.76817754245482  8.336302891509243 1.453162898592946 2.848568327490784  8.43590408705445 1.491099655100014 2.887602377241027  8.485819223817614 1.447140151570201 2.794366912279699  8.34365720603747 1.40397415767306 2.875520005723423  8.443180305344949 1.443106075133024 2.915090924304023  8.494106483005254 1.397726820172653 2.820564555645108  8.350996627750893 1.354777279366846 2.902481936629661  8.450441065289992 1.395112703641789 2.94258092906222  8.502381186906963 1.348308497061434 2.846768865374171  8.358330144333852 1.305572658436876 2.92945709958713  8.457684289693445 1.347119723786431 2.97007723494619  8.510632657288854 1.298885294469124 2.872991068190598  8.365679947146875 1.256359194327674 2.956444268814836  8.464933987652202 1.299119617330535 2.997583428440791  8.518858633733618 1.249450444224711 2.899265873227358  8.008002053772012 2.060149854809876 3.644488715697743  7.895116652487554 2.078780127099489 3.694657388924841  7.94551889811093 1.997170204060221 3.57861109564214  7.955251356233482 1.946971708984285 3.615561916170724  7.906281482466446 2.029912853331896 3.737615666823526  8.01715304618275 2.011999151558558 3.685506783065582  7.965034534938471 1.896800598745926 3.652460311712574  7.917513491642423 1.981065132997495 3.7805166090582  8.026338787977446 1.963870489449208 3.726465362425405  7.97481661125133 1.84664852413077 3.689315963374016  7.928751620504087 1.932231233034682 3.823367173824131  8.035521636159263 1.915758152159342 3.767375562403623  7.984565297046545 1.796511144125564 3.726132780655822  7.939955832204015 1.8834091778955 3.866173104882109  8.044671908195705 1.867658284985938 3.808242552895867  7.99424442610298 1.746386360854811 3.762912378466916  7.951080551058793 1.83459866216173 3.90893732072967  8.05375323602364 1.819572938638051 3.849065379818211  8.003784013314453 1.696266267611691 3.799654934902754  7.962045473223767 1.785782814477189 3.951671723364677  8.062708867742087 1.77152323577468 3.889828318826535  7.742082267964967 1.917215448008957 3.518468773769284  7.636034779419287 1.931083200563851 3.56654747501805  7.665953029902002 1.852861716919157 3.442728222964846  7.675030094082932 1.800129600447671 3.476292238313418  7.64586754498023 1.877634803100795 3.603504707081264  7.751492987871456 1.865212926372606 3.554052781845039  7.684127545483059 1.747405003417761 3.509811960551261  7.655733614963444 1.824188977875972 3.640419580473355  7.760939205064258 1.813221458582301 3.589594963325337  7.693217170877008 1.694690348542483 3.543295943786206  7.665599400010707 1.770748197618117 3.677297455831034  7.770384081678187 1.761240469857994 3.625100593060615  7.702276343657399 1.641982251024489 3.576748170453147  7.675437802602953 1.717309860962769 3.714142738604407  7.779797511570593 1.709264968851375 3.660573520692325  7.711283265512547 1.589273679056479 3.610169956258809  7.685221410192434 1.663866615091115 3.750958821035821  7.789148066709857 1.657284814869401 3.696016632697388  7.720219050426297 1.536549546889653 3.643563844421366  7.694918120039408 1.610403296444545 3.787747297520468  7.798390908334775 1.6052879625209 3.731432411598961  7.840442537412945 2.009737045548689 3.625250799591033  7.850433141928551 1.958681250465602 3.664296351939608  7.860475247253741 1.907649198852249 3.703291266546357  7.870516378774208 1.856633794852889 3.742241167176963  7.880520547899497 1.805629673890904 3.781152246484713  7.890447906881499 1.75463236031874 3.820027440186157  7.900251942284462 1.703625398145725 3.858867387009232  8.184995739573857 2.165262640049897 3.729287691365926  8.150339806172594 2.065586718152151 3.622352100440412  8.251627551325614 2.111482526735255 3.655143816486818  8.257593163836129 2.063834970693778 3.694908425923204  8.158023263408076 2.017663911330475 3.661595729269422  8.191624380050163 2.119994464595904 3.774715806789155  8.263522041145942 2.01621662805529 3.734614648455193  8.165706859993751 1.969769627871958 3.700780659459114  8.198231142235585 2.074740542070054 3.820078601102156  8.269421251180072 1.968613400640821 3.774273630620872  8.173373987238472 1.921896371421262 3.739915643889131  8.204815025782572 2.029499593025982 3.865382466061621  8.275296529261439 1.921025391983314 3.813886934261014  8.181010938553925 1.874043794260011 3.779004237138389  8.211373936152382 1.984273427555671 3.910629222688013  8.281151920375155 1.873458395458127 3.85345312450303  8.188598317591675 1.8262212283352 3.818043309714667  8.217902482411274 1.939075224683767 3.955812908451191  8.286980930211541 1.825931406153428 3.892960185445887  8.196100142203715 1.778437867223521 3.857022130938724  8.224393734471548 1.89392551970469 4.00092397706386  7.748039767906868 2.035479965583437 3.677037336911431  7.758033839424993 1.98429079769034 3.71909704307313  7.768066247871623 1.933110910835276 3.76111428103659  7.77810121302026 1.881937561365961 3.803089704027087  7.788102942425678 1.830766307987824 3.845029035586196  7.798036590326902 1.779587050475569 3.886938994758258  7.807870815432105 1.728387445538302 3.928824803711649  7.817539954512595 1.87936954905731 3.443121160248075  7.749426576419842 1.820953171806828 3.366078626498906  7.758149272729834 1.76929169736686 3.397310960882014  7.826840201782471 1.828187524276756 3.476354250119089  7.76689661469805 1.717643952067591 3.42851202515044  7.836181752244938 1.777027215643632 3.509549632991356  7.775635397713908 1.666008872217703 3.459681997014782  7.845519215157359 1.72588458079914 3.5427092643821  7.784342719121875 1.614381559104311 3.49082329621462  7.854822369568604 1.674753099706066 3.575835699337442  7.792994542119564 1.562753433881526 3.521936167347751  7.864056891104604 1.623626359623453 3.608928120479697  7.801551775091795 1.511106347758652 3.553017380770492  7.873168748595252 1.572488501121442 3.641988531415457  7.604735667133558 1.610579370211089 3.688667338678492  7.614171672172728 1.55694042112861 3.72404716800198  7.785503090052012 2.105514145275134 3.752021029112458  7.796429304382096 2.056519647023861 3.798484725677115  7.807407731361856 2.007533241943816 3.844894708787397  7.818390565240366 1.958554696360964 3.891254721310311  7.829336072686844 1.909579785600219 3.937572815890502  7.840201988000611 1.860602458595126 3.983858332803808  7.850952796628427 1.811606872343928 4.030121606751155  8.488763689977626 1.786519558890205 3.134538460968499  8.386404930996568 1.752541492975068 3.102214790887583  8.461982765634321 1.711579446023816 3.021911355744448  8.392440491276668 1.706980954728017 3.131332344064827  8.494532447891064 1.741276121586772 3.163338323237591  8.468102346288472 1.666230227930651 3.050839742049168  8.39843228234778 1.661459634666004 3.160476133079326  8.500250957635201 1.696068082899137 3.192154440438455  8.474178935614013 1.620916384590111 3.079799747445805  8.40439107781002 1.615957987615412 3.189618002845811  8.505935878214123 1.650875612984096 3.220965631538289  8.480228506036761 1.575615127297332 3.10876364721221  8.410329940246529 1.570467436193196 3.218742235242562  8.511602454245498 1.605691928922738 3.24975883350057  8.48626330221966 1.530319471554256 3.137715711706342  8.41626203460487 1.524981183482592 3.247834623606332  8.517264897065498 1.56051241408751 3.278521158718145  8.492294551365443 1.485022340979167 3.166644983847872  8.422194789812197 1.479480708579064 3.27686702562006  8.522935054843741 1.515329490723597 3.307220357959245  8.498326669654256 1.439711560380615 3.195530064726643  8.153846591840184 1.866176186443709 3.332176402748789  8.092940636118181 1.920217187649334 3.431082100399225  8.043756801010952 1.835584738149032 3.309673158475131  8.051469833634687 1.787006115055152 3.340084266326163  8.100698592997807 1.871181068789841 3.463330377935971  8.160842409264344 1.818165969732057 3.362742357442176  8.059189722340287 1.738464788932488 3.370476655522303  8.108463004828383 1.82217756237299 3.495545466699  8.167821813609944 1.770191594154177 3.393289395963058  8.0668911
[...]
<PointData  Vectors="f_24"> 
<DataArray  type="Float64"  Name="f_24"  NumberOfComponents="3" format="ascii">3.7171258565124620e-03 -1.5039446507248425e-01 3.3716224668186225e-02  4.9027615128988426e-03 -1.5229332811232127e-01 3.5646806856466644e-02  3.3019546769496536e-03 -1.4909465678882464e-01 3.3482900155020479e-02  4.3702918583244741e-03 -1.4966213485706675e-01 3.1808654181262802e-02  5.9453314700519174e-03 -1.5265319792978885e-01 3.5213811087847859e-02  4.8214980936388463e-03 -1.5083236829489274e-01 3.2765176912081938e-02  6.8722470111994985e-03 -1.5241288167265463e-01 3.4791132830588441e-02  5.8102060969919172e-03 -1.5068997381736432e-01 3.1898072924839586e-02  5.3123127692266559e-03 -1.4975267604036768e-01 3.0314609717515071e-02  7.7043477007726433e-03 -1.5170081933612301e-01 3.4250933589462941e-02  6.7085889054813580e-03 -1.5012444103201486e-01 3.0940959605232136e-02  6.1721053211999119e-03 -1.4947081519463101e-01 2.8815760687081641e-02  7.5463305491626238e-03 -1.4925102539195820e-01 2.9751301241158271e-02  8.4717403194913415e-03 -1.5061377734654244e-01 3.3462816986260968e-02  6.9842644971421612e-03 -1.4891859384465764e-01 2.7143329146506027e-02  8.3550639948317129e-03 -1.4818183901669330e-01 2.8192439870680330e-02  9.2051008578575566e-03 -1.4925474338800923e-01 3.2310828129854106e-02  7.8024092854476019e-03 -1.4820324706138169e-01 2.5151601785220853e-02  9.1791463264970612e-03 -1.4705012370053991e-01 2.6188180969682184e-02  9.9730759576088790e-03 -1.4774576715106744e-01 3.0677858981399336e-02  8.6694849411811398e-03 -1.4736911681183212e-01 2.2679363677302507e-02  4.3641150918363909e-03 -1.5071966419912405e-01 3.5691417374913971e-02  5.3648565147850899e-03 -1.5137197667518767e-01 3.4126124384076299e-02  6.2168152821867372e-03 -1.5149006147109889e-01 3.2724819093268215e-02  6.9867413596487018e-03 -1.5119932079760554e-01 3.1309375631136782e-02  7.7164054166847570e-03 -1.5061047357436205e-01 2.9718941442523714e-02  8.4447404120621006e-03 -1.4981077323868999e-01 2.7798131162271134e-02  9.2187710201605908e-03 -1.4884594933244297e-01 2.5371787564243197e-02  -1.3950964599807366e-03 -1.4042869938336688e-01 2.2694738733276387e-02  -7.2702616966769702e-05 -1.4404580039991915e-01 2.5876557453878971e-02  3.0402532844202529e-04 -1.4412590735786374e-01 2.6905574525693914e-02  1.5087884929347668e-03 -1.4459539205562491e-01 2.5052599205771693e-02  1.1757808171263295e-03 -1.4448182726574146e-01 2.4464916601843849e-02  -2.2937322627701939e-04 -1.4083334534432304e-01 2.0485012251026474e-02  2.6025086546820424e-03 -1.4461925444106810e-01 2.3461650966530842e-02  2.3127568308952324e-03 -1.4441737072973701e-01 2.3218461074246681e-02  8.5664944394192783e-04 -1.4086863366105029e-01 1.8617588630806169e-02  3.6249886151435897e-03 -1.4432451592841053e-01 2.1886955838951849e-02  3.3719539362985539e-03 -1.4400307843514479e-01 2.1959412227809699e-02  1.8807748263112766e-03 -1.4065327919983500e-01 1.6828694637243794e-02  4.5979888908370967e-03 -1.4383535800660316e-01 2.0158308732462191e-02  4.3733357352625244e-03 -1.4336379135821783e-01 2.0518369929426163e-02  2.8661437347511564e-03 -1.4029293560527561e-01 1.4920879973939122e-02  5.5389950474509786e-03 -1.4325998500254322e-01 1.8123152637723353e-02  5.3339195832579371e-03 -1.4261223675634077e-01 1.8736809320975649e-02  3.8330429155508240e-03 -1.3989296615835362e-01 1.2726661525891731e-02  6.4618184517635019e-03 -1.4267029326873393e-01 1.5622801622799444e-02  6.2662040035275984e-03 -1.4184952854472077e-01 1.6477354384214552e-02  4.7982339640074015e-03 -1.3956677358832126e-01 1.0060495172366615e-02  1.2064109138114295e-03 -1.0090919254257590e-01 -2.4684214592348920e-03  1.7263243777639041e-03 -9.5852834208423970e-02 -4.1728450232144483e-03  2.9434747483335156e-03 -1.1125988737524335e-01 4.3523454777932031e-03  3.7367409100091432e-03 -1.0582099217573612e-01 9.4902293444304696e-03  2.4130554149196437e-03 -8.9228007608679327e-02 3.2240270697231257e-04  1.9827490231787426e-03 -9.4616061955212133e-02 2.1906111228479864e-03  4.5235163375254017e-03 -1.0065901154223453e-01 1.4130950824378296e-02  3.1338007719349361e-03 -8.3127983955400331e-02 4.5500607824095476e-03  2.7686226930142125e-03 -8.8747800723114112e-02 6.5134002685714142e-03  5.2853338336877106e-03 -9.5556760004392532e-02 1.8542389839278771e-02  3.8680905706045027e-03 -7.7251963812530244e-02 8.7280067458412082e-03  3.5557068653257664e-03 -8.3049863089434225e-02 1.0721125145241629e-02  6.0118897871464464e-03 -9.0331878019221795e-02 2.2945584914875791e-02  4.6112645635523700e-03 -7.1386968074479987e-02 1.3034936317338496e-02  4.3348420554097664e-03 -7.7323717871533429e-02 1.5007850446044977e-02  6.6941024688662292e-03 -8.4832127502875096e-02 2.7545281491991081e-02  5.3659679261376320e-03 -6.5378075683398415e-02 1.7628813872044652e-02  5.1015160673499827e-03 -7.1417879145139029e-02 1.9547131269830771e-02  7.3268692112462633e-03 -7.8936744085131877e-02 3.2553315841214514e-02  6.1373930337987517e-03 -5.9129157049047906e-02 2.2649916274743026e-02  5.8529371011690800e-03 -6.5239037829004601e-02 2.4494176821334430e-02  5.8050841099709528e-03 -1.2235262184701072e-01 1.3083798231798420e-02  6.2050495123088870e-03 -1.1826218974419170e-01 1.1418244643639859e-02  7.2693888901541213e-03 -1.3181195312162880e-01 1.9912012376823288e-02  8.0072326040740577e-03 -1.2795932268658081e-01 2.4892236761603008e-02  6.9062603017029161e-03 -1.1311562028260838e-01 1.6812136869419441e-02  6.5509562703655148e-03 -1.1759901604139776e-01 1.8306471387039044e-02  8.6846966086087454e-03 -1.2403598902037069e-01 2.9280071199245854e-02  7.5551288571455615e-03 -1.0816312623318199e-01 2.1657814572193373e-02  7.2506289610054396e-03 -1.1295906702275969e-01 2.2961849984904852e-02  9.2923206993917578e-03 -1.1991616510278605e-01 3.3319548760844066e-02  8.1554277162421609e-03 -1.0320416147847541e-01 2.6232006149011451e-02  7.8993122552551923e-03 -1.0825662859254195e-01 2.7317770023341140e-02  9.8198828410999330e-03 -1.1547886582133900e-01 3.7229778784105209e-02  8.7117285281548967e-03 -9.8070656515952023e-02 3.0763733466209354e-02  8.4906708821423076e-03 -1.0334147141586753e-01 3.1604477948341987e-02  1.0258547872947627e-02 -1.1061023883469422e-01 4.1220013862568919e-02  9.2281510954385308e-03 -9.2620809089953876e-02 3.5462803480060458e-02  9.0188807927402449e-03 -9.8082023860270220e-02 3.6029396356711464e-02  1.0605454480511086e-02 -1.0523735519545169e-01 4.5515693874124720e-02  9.7115824538814618e-03 -8.6721986488261155e-02 4.0518535079616669e-02  9.4640684081129904e-03 -9.2347618896038333e-02 4.0749708274976350e-02  3.4689267991199167e-03 -1.0691722731588946e-01 3.0817691477523605e-03  4.2026136866858419e-03 -1.0105423671385851e-01 8.1605114484470317e-03  4.9278049178117806e-03 -9.5549329183929416e-02 1.2811225174416295e-02  5.6371745031957160e-03 -9.0159694523407163e-02 1.7285149809102566e-02  6.3248122972735269e-03 -8.4686722056344893e-02 2.1797385263245136e-02  6.9904392130367091e-03 -7.8974438655047718e-02 2.6544107397264479e-02  7.6501267631854403e-03 -7.2922779299262719e-02 3.1723460465687546e-02  -2.4342832092701682e-03 -8.4318668233457281e-02 -1.4046444562314150e-02  -1.0541208936794451e-04 -1.0139178704305182e-01 -3.6453206095942926e-03  -1.9349971955132216e-03 -9.4695160506901924e-02 -9.1597214322665429e-03  -9.6711133121249861e-04 -8.8473342619854511e-02 -4.4644614626349020e-03  7.7727467028594567e-04 -9.5365998767361571e-02 1.1499936150276854e-03  -1.5895021611459111e-03 -7.7431068671216519e-02 -1.0338690384559252e-02  2.7714984602098583e-06 -8.2728862259003833e-02 -1.3704616836636625e-04  1.6690519684680763e-03 -8.9731740300157736e-02 5.5627055184418800e-03  -6.8543029755815423e-04 -7.1131224131274901e-02 -6.6741039920698419e-03  9.7008074567446945e-04 -7.7204873486641942e-02 4.1069251378668421e-03  2.5530439452390789e-03 -8.4243872189196198e-02 9.8329238449386142e-03  2.3331204742719407e-04 -6.5111056055855168e-02 -2.9396297309289068e-03  1.9244964222453263e-03 -7.1685292696055850e-02 8.4537950869916362e-03  3.4191856687434963e-03 -7.8704378761859650e-02 1.4164982201346533e-02  1.1618747093023621e-03 -5.9164431400562517e-02 9.9878033159085926e-04  2.8628035609192535e-03 -6.6004970306079755e-02 1.3067422320287349e-02  4.2631671155691489e-03 -7.2956815262439842e-02 1.8739427485611693e-02  2.1043687114420803e-03 -5.3134086477053956e-02 5.2689361673566217e-03  3.7875997305719090e-03 -6.0026575056595706e-02 1.8095708912161234e-02  5.0831676578419350e-03 -6.6899318928967832e-02 2.3722632857509154e-02  3.0721103840356846e-03 -4.6915485920555798e-02 9.9955883957212974e-03  3.6121302541472374e-03 -1.0152973519154702e-01 4.1802870862390557e-04  4.3054712169431977e-03 -9.5123703080073965e-02 5.3255040702284290e-03  4.9713911804260174e-03 -8.9194475993660788e-02 9.8712200529117861e-03  5.6303677459166764e-03 -8.3458392029618661e-02 1.4302599276720191e-02  6.2869487010525221e-03 -7.7702854023300072e-02 1.8817543610877448e-02  6.9506032171290011e-03 -7.1770117438430897e-02 2.3594567956590016e-02  7.6370480204698147e-03 -6.5543862539594613e-02 2.8786380405062744e-02  5.9100177332932361e-03 -1.2966793975349061e-01 1.7248991008048681e-02  7.1095267413668374e-03 -1.3804927608777737e-01 2.3296276880333627e-02  7.9032208447224282e-03 -1.3503263198769935e-01 2.7792945434661778e-02  6.7033723263528865e-03 -1.2571352344448480e-01 2.2174675017047452e-02  8.6318960372827880e-03 -1.3181259157648942e-01 3.1702132666894825e-02  7.4471124344426621e-03 -1.2172516076838409e-01 2.6507876493640142e-02  9.2881598269404213e-03 -1.2832319842646150e-01 3.5237027718416372e-02  8.1286076227235857e-03 -1.1756501306274811e-01 3.0502397841477503e-02  9.8508128106962866e-03 -1.2447088745732417e-01 3.8587910655690671e-02  8.7315953615847534e-03 -1.1310884086327171e-01 3.4372971761808986e-02  1.0295350023825239e-02 -1.2014803128621183e-01 4.1939626354336783e-02  9.2369245688009895e-03 -1.0823551262583847e-01 3.8324972611367220e-02  1.0596299145027938e-02 -1.1521360732472399e-01 4.5508282179054116e-02  9.6246609030260655e-03 -1.0286203796999099e-01 4.2575949469609985e-02  1.0249443565473476e-02 -1.0232731782167767e-01 4.0028173653500386e-02  1.0633058409538591e-02 -9.6608663273628215e-02 4.4763335438164936e-02  2.0281417440038345e-03 -8.9644758443940528e-02 -6.5583492821989862e-03  2.6701623394610771e-03 -8.2600804591443713e-02 -2.4666936554387938e-03  3.3269134130072073e-03 -7.6199349873587272e-02 1.5200523395422305e-03  4.0069749694400430e-03 -7.0081288299434982e-02 5.5430696526264532e-03  4.7175007820175769e-03 -6.4022469764073303e-02 9.7497034033215933e-03  5.4710416566544325e-03 -5.7864939247787468e-02 1.4276655856901336e-02  6.2877210651491123e-03 -5.1497601033092436e-02 1.9254890304241223e-02  6.9822059488317879e-04 -1.4291389942604640e-01 2.2072944548426333e-02  1.7081650201115418e-03 -1.4549644197120762e-01 2.5204856779098294e-02  7.9506427219866753e-04 -1.4577199812609906e-01 2.5639447719426677e-02  2.9394952018191884e-03 -1.4471392102520753e-01 2.6967489998522130e-02  1.9674308382593673e-03 -1.4185562997778228e-01 2.4240562924161001e-02  2.0904854359356964e-03 -1.4552389753843215e-01 2.6430303666026334e-02  4.0657288330290600e-03 -1.4341797745533769e-01 2.8451338267161650e-02  3.1382533584860075e-03 -1.4031683871644463e-01 2.6090293576664637e-02  3.2671832093106308e-03 -1.4471422515200164e-01 2.7083246343328309e-02  5.1013271461066295e-03 -1.4167903651588726e-01 2.9669436152769981e-02  4.2238529337653222e-03 -1.3835128488180740e-01 2.7660315908025299e-02  4.3526992748531270e-03 -1.4345736560896255e-01 2.7546370655582363e-02  6.0493486016166527e-03 -1.3953259043012733e-01 3.0609352617684191e-02  5.2285853683293288e-03 -1.3597737631561499e-01 2.8961106993854409e-02  5.3585578930281626e-03 -1.4182881989066273e-01 2.7746746406090251e-02  6.9052619727493743e-03 -1.3697700911604346e-01 3.1231861458122928e-02  6.1506282075790937e-03 -1.3317849373336987e-01 2.9975336302756145e-02  6.2902452892720411e-03 -1.3987705560862232e-01 2.7581958135972067e-02  7.6482898825482801e-03 -1.3397770314611504e-01 3.1478158129252164e-02  6.9804939671984619e-03 -1.2990660347887464e-01 3.0658805700820885e-02  7.1420740840133180e-03 -1.3761038916413842e-01 2.6901002071290300e-02  3.4112920460717617e-03 -1.3565238164769178e-01 1.8176157291834801e-02  3.1778822023234188e-03 -1.2684234477289319e-01 1.2644231708588093e-02  4.6691942504987951e-03 -1.3901137747233269e-01 2.1528470917597669e-02  5.6089218338369155e-03 -1.3641278796801423e-01 2.5545623116451772e-02  4.1050680441904542e-03 -1.2293916061319748e-01 1.7498545222936465e-02  4.3949546383725288e-03 -1.3277856472772367e-01 2.2386314563054916e-02  6.4921080037626533e-03 -1.3357112781525951e-01 2.9010493712816672e-02  4.9910241353645669e-03 -1.1901792528393300e-01 2.1771081351162982e-02  5.3310243340911343e-03 -1.2970155832965899e-01 2.6028863242049137e-02  7.3020235279296544e-03 -1.3041461906148832e-01 3.2102659254476751e-02  5.8260829916003780e-03 -1.1494941500951725e-01 2.5700777566494946e-02  6.2014350965012817e-03 -1.2635063916697278e-01 2.9304451968229412e-02  8.0181260572673562e-03 -1.2687618668566591e-01 3.4977860401150362e-02  6.5896048385610164e-03 -1.1060177261276120e-01 2.9492123132050810e-02  6.9850440481047330e-03 -1.2263800404937497e-01 3.2377289542975744e-02  8.6122143037630060e-03 -1.2285852282182384e-01 3.7783405460195818e-02  7.2579879123750492e-03 -1.0584149312544985e-01 3.3336267301033382e-02  7.6562826337299656e-03 -1.1845624256509650e-01 3.5397296226700729e-02  9.0428109597926083e-03 -1.1823832447086742e-01 4.0664611463883810e-02  7.8015110500768174e-03 -1.0054159468823833e-01 3.7428766029735543e-02  8.1895219697224950e-03 -1.1367329600093144e-01 3.8503278776258615e-02  -6.5233466747954827e-04 -9.1668868908582626e-02 -9.0335086085175688e-03  1.6620269527224671e-04 -8.4944028345341704e-02 -4.8500826111209736e-03  9.9484931382471720e-04 -7.8755945640499522e-02 -8.6460554898929983e-04  1.8399558970122085e-03 -7.2841534057779253e-02 3.1110568144277016e-03  2.6953859200160120e-03 -6.6978077671287078e-02 7.2375198912111357e-03  3.5590811150416862e-03 -6.1001128589933354e-02 1.1658489831003800e-02  4.4353021896672840e-03 -5.4779757936682667e-02 1.6501145823001787e-02  3.8711259307167563e-03 -9.6316335499720560e-02 -1.8466903652685288e-03  4.5001395076662279e-03 -8.9606818130813337e-02 2.9066948320369164e-03  5.1087877041823054e-03 -8.3421950175093809e-02 7.3674779647570753e-03  5.7130400861709722e-03 -7.7482909452953289e-02 1.1771602004065967e-02  6.3325009145139962e-03 -7.1570453101534370e-02 1.6303621687616461e-02  6.9836423011196986e-03 -6.5521604898932662e-02 2.1123066179996864e-02  7.6867770162057040e-03 -5.9210515840373776e-02 2.6379108826783335e-02  1.5331049810624966e-03 -1.1652008450943921e-01 5.3789590608916242e-03  2.3404428752442515e-03 -1.2723576438149481e-01 1.2044288010663731e-02  3.3082405426711572e-03 -1.2350286444871465e-01 1.6807300496886834e-02  2.4491368117268695e-03 -1.1173024391066244e-01 1.0470389596864542e-02  4.2479802366196338e-03 -1.1971980459012339e-01 2.0998580509510159e-02  3.3629745187492115e-03 -1.0709536156191538e-01 1.5018341458242022e-02  5.1389772481181080e-03 -1.1576819836972314e-01 2.4839029974720803e-02  4.2427373211333420e-03 -1.0243792390510113e-01 1.9279824994045461e-02  5.9596827308203565e-03 -1.1152502842134690e-01 2.8529057799913108e-02  5.0715624084685176e-03 -9.7594694471800303e-02 2.3473834975478475e-02  6.6869727011908851e-03 -1.0686085800822423e-01 3.2255711183124008e-02  5.8339201821564690e-03 -9.2417466775649187e-02 2.7804654332472405e-02  7.2967768646701779e-03 -1.0163931538975444e-01 3.6211574820090318e-02  6.5234025752636485e-03 -8.6769881181665148e-02 3.2473280761842117e-02  2.3341107703125810e-03 -8.4648574528534984e-02 -8.7391009129768847e-03  4.6381487621557091e-03 -1.3213825618627598e-01 1.7256042042459313e-02  5.5242581466828835e-03 -1.2862998250405050e-01 2.1889721957976255e-02  6.3531234501756507e-03 -1.2502462864060115e-01 2.5946524887407580e-02  7.1246356198680413e-03 -1.2120809423102263e-01 2.9643544327251994e-02  7.8118262723990495e-03 -1.1706534195015598e-01 3.3180419003504352e-02  8.3874386499514838e-03 -1.1247759933868176e-01 3.6743550601698552e-02  8.8192371906319188e-03 -1.0736213738763015e-01 4.0542032733803524e-02  6.2715057962266663e-03 -1.4742703852010897e-01 2.9264390695495666e-02  5.8541114416180567e-03 -1.4197316598095805e-01 2.4698220483678927e-02  7.0124740709970532e-03 -1.4379781247248857e-01 2.7025227258028070e-02  7.8528086595132211e-03 -1.4151072580914478e-01 3.0788271790149278e-02  6.7446611204646269e-03 -1.3962157173572598e-01 2.8512181418210773e-02  7.1900213574797676e-03 -1.4582814171036940e-01 3.2236715822725227e-02  8.6209539188644383e-03 -1.3890109073516238e-01 3.4022838120281722e-02  7.5778430722140758e-03 -1.3696916930317624e-01 3.1790698990302312e-02  8.0340714638984321e-03 -1.4381586480173383e-01 3.4750012608943281e-02  9.3091815974108549e-03 -1.3593563404008610e-01 3.6895230803911903e-02  8.3314917147385859e-03 -1.3398028031190901e-01 3.4701276675622061e-02  8.7922765563748350e-03 -1.4139359957689768e-01 3.6922663378470000e-02  9.8957298304129492e-03 -1.3255512953526113e-01 3.9552313307316407e-02  8.9829788982792626e-03 -1.3058977665537363e-01 3.7388155986681000e-02  9.4456197658442549e-03 -1.3853387405165554e-01 3.8842524410583570e-02  1.0349687584462199e-02 -1.2867304832162582e-01 4.2128301014208801e-02  9.5007367856551825e-03 -1.2670277800461904e-01 3.9987741102424777e-02  9.9614202948771421e-03 -1.3517233412282925e-01 4.0582666008903243e-02  1.0617867648082476e-02 -1.2416697523122432e-01 4.4748462507542497e-02  9.8413225322246545e-03 -1.2218545303029806e-01 4.2652809573186713e-02  1.0289354773458267e-02 -1.3121523518446984e-01 4.2225264154068062e-02  2.7066841533542004e-03 -1.4773577392945927e-01 2.8088017951382188e-02  3.1411484621027275e-03 -1.4537464296068153e-01 2.5593312387521105e-02  3.6161451477604075e-03 -1.4943313213138754e-01 3.0373114815979541e-02  4.7426654382948614e-03 -1.4903047768793598e-01 3.1547808862602479e-02  4.2630032184183082e-03 -1.4413093618375866e-01 2.8093888806169698e-02  3.8843502931874556e-03 -1.4719844063208576e-01 2.9485143400557922e-02  5.7857186104151061e-03 -1.4807692219582463e-01 3.2513248856103738e-02  5.2943057695173414e-03 -1.4243371453699943e-01 3.0201617193409649e-02  4.9631795101421003e-03 -1.4612061595330672e-01 3.0643057675832766e-02  6.7331504964130854e-03 -1.4666122067865070e-01 3.3253206609870474e-02  6.2412475320752338e-03 -1.4031681521368033e-01 3.1991342375575375e-02  5.9533948280745238e-03 -1.4458833135760477e-01 3.1561122309410605e-02  7.5887704780778897e-03 -1.4484281490433062e-01 3.3720570891340562e-02  7.0941365171918319e-03 -1.3777901249500676e-01 3.3503764801155571e-02  6.8536010489091926e-03 -1.4265205405066891e-01 3.2205062881036271e-02  8.3452459198483913e-03 -1.4264066619102225e-01 3.3829897198255285e-02  7.8388090242372897e-03 -1.3477593064604199e-01 3.4761329508670037e-02  7.6621485757420284e-03 -1.4032260818389380e-01 3.2508878104230927e-02  8.9674655227224478e-03 -1.4000251251757445e-01 3.3424820263341502e-02  8.4519628049757600e-03 -1.3121590422524110e-01 3.5793286063284482e-02  8.3775214843701384e-03 -1.3755278132393547e-01 3.2347264158626772e-02  5.9315470413046096e-03 -1.3640487010913091e-01 2.1070201084239463e-02  6.7708626031907975e-03 -1.3329069907863828e-01 2.5544421988534315e-02  7.5616514142200194e-03 -1.3000086288367058e-01 2.9428627303075269e-02  8.2809279992806534e-03 -1.2645635251077839e-01 3.2942430850629242e-02  8.9062480166135841e-03 -1.2255821317737864e-01 3.6273282008005461e-02  9.4086640363754710e-03 -1.1819432404115825e-01 3.9601370332290428e-02  9.7545364044696534e-03 -1.1323198212516919e-01 4.3134252960319530e-02  2.6293096524004091e-03 -1.4899653537567514e-01 3.0534102900279119e-02  2.9151760685329252e-03 -1.4926968315713923e-01 3.2034095312855192e-02  1.8106957115841559e-03 -1.4743563365298562e-01 2.9764630867852974e-02  3.0219862835780434e-03 -1.4783625710825407e-01 2.8768367