<?xml version="1.0"?>
<VTKFile type="UnstructuredGrid"  version="0.1"  >
<UnstructuredGrid>
<Piece  NumberOfPoints="1063" NumberOfCells="4454">
<Points>
<DataArray  type="Float64"  NumberOfComponents="3"  format="ascii">4.902612084868541 1.468473936384188 3.42062816584029  4.987450543129818 1.528213147709057 3.512544599353532  4.846791063340706 1.531330489665432 3.547134383861237  4.853068316176036 1.47563817048588 3.578937226236635  4.993283683593704 1.472548114457358 3.543505878340805  4.909063684707703 1.414478745310096 3.450508335155616  4.9155248118881 1.36050659706965 3.480374428385462  4.999102514985604 1.416913238540713 3.574449787616349  4.859351300090709 1.41999648301774 3.610721664877022  4.865643574429752 1.36437997671261 3.642495312665719  5.004916998585844 1.361313525184234 3.605371618035668  4.92199292505489 1.306574654451077 3.510216162906475  4.928468762876191 1.252663187744085 3.540027856680713  5.010738345879608 1.305735503617145 3.636259630882622  4.87194410777092 1.308806467172365 3.674225849076081  4.878260012216465 1.253240376118202 3.705899304212136  5.016578052654402 1.250175827139156 3.667090599737562  4.934953891227254 1.198770498909557 3.569787968003235  4.884598880223742 1.19768853631513 3.737484226492301  5.022450006436156 1.194630608855595 3.697844959501749  4.941457475053717 1.144889421628005 3.599476817362736  4.680102075918017 1.051658348921923 2.71859553639236  4.802975734908745 1.08318651267892 2.754090686589028  4.738830191058629 1.124524099431383 2.862993432204408  4.746618232273208 1.073084713777428 2.890257275480963  4.809932958583091 1.029119358074707 2.777671553987671  4.687782692303051 0.9973572700489221 2.741051065854985  4.754476736095483 1.02168411383308 2.917544750416081  4.816915723050887 0.975070367368573 2.801273868867032  4.695535053308907 0.9430599691986752 2.763509227925448  4.762363583659877 0.9703050156166292 2.944825035751215  4.823911546276761 0.9210303555616628 2.82487594553066  4.703312495378058 0.8887648500417146 2.785964952482801  4.770251871723918 0.9189382919576861 2.972087006599022  4.830914772240143 0.8669951873710252 2.848470950943216  5.369710649250088 1.528487488675564 3.581663195552252  5.305418388069705 1.592930139815659 3.706917393400191  5.445451760921396 1.586674469295638 3.673544751231765  5.300223625372677 1.650658735119875 3.672006282837094  5.364755732466444 1.584659857804327 3.549595309492608  5.374604817103725 1.472332571264312 3.613728437340523  5.31056380028965 1.535229905110487 3.741827496888904  5.450652839373535 1.529349530505238 3.707598764190328  5.379472881453724 1.416194347546097 3.645777052811621  5.315686614101891 1.477554030924115 3.776719382342949  5.45582932618354 1.472039276066012 3.741638322700835  5.384343157666537 1.360065616245267 3.677792398540987  4.831136494763791 1.891321263282532 4.02409832430761  4.956296533320759 1.807208560709913 3.93321244455076  4.976695644055694 1.905080337784034 4.030774555801235  4.979962450638258 1.856854442211778 4.090669182711963  4.960587427937094 1.752508535189705 3.983168645038238  4.832259636170821 1.8444177038843 4.084574171904148  4.983163962773374 1.80873616175799 4.150542499110324  4.964832578722372 1.697901701296356 4.033137763494349  4.833302281387864 1.797630892979079 4.145034796380754  4.98635141877436 1.760681548904528 4.21037274508027  4.969067115333534 1.643356217317888 4.083080711799456  4.834325764283654 1.750920072983061 4.205447846991601  4.989555464478743 1.712642314159139 4.270131005011024  4.973314800884469 1.5888353359326 4.132962855279136  4.83537278644879 1.704229596021124 4.265783110915522  4.977597406385909 1.53430591542656 4.182760541123017  4.83648009968689 1.65751132822525 4.326022499706714  4.992807822224806 1.664597379849434 4.329782901788564  4.981920087553079 1.479738342949227 4.232444850838651  4.837676109968289 1.610745243775453 4.386155058150572  4.996126535036341 1.616515242538312 4.389335454811041  5.355087835250101 1.485707127186717 3.371309182754758  5.405190149822639 1.420765017535311 3.246170556434023  5.508055343992956 1.475432542368829 3.328056431514578  5.512746510016086 1.422429312912982 3.357652809612957  5.409433040592582 1.368508151225227 3.275300972755077  5.359710067103734 1.431852201806816 3.400773592089601  5.364263871206574 1.378003842111564 3.430233905497482  5.413595493457856 1.316257990627231 3.304427805973766  5.517368291925361 1.369429418293356 3.387254479255842  5.368786773716559 1.324167798135344 3.459678855678164  5.417720790643353 1.264014734309139 3.333541780897936  5.521958220687521 1.316431015083032 3.41684818357909  5.373308908836392 1.270338572511933 3.489097008603978  5.421842589968976 1.21177497669125 3.362633859089506  5.526546827925221 1.263429907509508 3.446420016289366  5.377860574220583 1.216510707990865 3.518472003932076  5.425996273461631 1.159532532119985 3.391691370087039  5.531166247863347 1.210417790657968 3.475953740017865  5.382481312056941 1.16267495335455 3.547782666559625  5.43022976412536 1.107276311108367 3.420697561160245  5.535858199546478 1.157381631006962 3.505425379696942  4.932984353255196 0.991383876826032 2.316058901283675  5.058146722835554 0.9978618934830064 2.248768543440937  5.056716652649123 1.008595071950822 2.413087748003575  5.061178700670107 0.9466201059440015 2.421135886788293  5.062090765338733 0.9346407686130932 2.247932228597182  4.937200947535636 0.9292158145650143 2.317724882648696  4.941294994203971 0.8670511484484895 2.319388910199712  5.065904858164353 0.8713838717788165 2.247096908093197  5.065530848038268 0.8846265739544152 2.42920981830412  5.069858031534742 0.822632752667396 2.437285711328324  5.069685109401187 0.8081230407645419 2.246261669629565  4.945354081252185 0.8048971097195611 2.321055129501493  5.074196202733721 0.7606432884811583 2.44536745756885  5.073482954113252 0.7448649599899901 2.245434066876752  4.949430338025695 0.74275924518109 2.322730987972412  5.078587923162906 0.6986589152337173 2.453462247396989  5.077354064864689 0.6816039456860024 2.244623269751175  4.953581051882413 0.680648583132361 2.324426225384735  5.083132483812847 0.636662328466717 2.461571222654923  5.081388799153361 0.6183053310267925 2.243841654190033  4.957918838063984 0.6185684920888397 2.32614814339776  4.647122213012714 1.781784227920057 3.931000684098614  4.792717524673092 1.791577731519552 3.93428819870781  4.673589667587787 1.887419889754674 4.022633587923739  4.6725313241435 1.843400391190737 4.084752976614333  4.796312067345836 1.73804634311288 3.985374495963003  4.649840968344114 1.729424126331409 3.982373598755002  4.652504240867977 1.677191265277316 4.033776368063616  4.799858647011806 1.684635462198693 4.036465459858852  4.671373045305248 1.799548597349555 4.146839994495474  4.655170173494651 1.625038264130869 4.085157039583494  4.80340263677106 1.631301795012253 4.087521828311845  4.670194758964044 1.755773350593725 4.208877528058636  4.806969333078184 1.577988685196371 4.138516010107108  4.657865185216171 1.572914282246382 4.136465372690602  4.669047159683084 1.712026601290566 4.270825970054948  4.810581506038329 1.524669579275666 4.189407840785521  4.660616230188422 1.52077363601799 4.187669365243877  4.667978733042442 1.668254356489355 4.332660838216143  4.814246683914056 1.471306044320721 4.240178912007699  4.66345378259075 1.468586080316675 4.238740364383411  4.667028483598727 1.624406000534985 4.394362380144915  5.465322806991656 1.537099652105958 3.44676886193156  5.470340267864888 1.482227101614623 3.476990320271536  5.475293766051038 1.427368828831248 3.507214482672278  5.480219291643729 1.37251751746581 3.537427464104772  5.485145663012442 1.31766850115116 3.567613324593659  5.490102047624378 1.262814365573916 3.597751469432748  5.49512322591737 1.207945300830779 3.627813033575908  4.919681027274324 1.591333621672817 3.636926206684248  5.065975321512891 1.591315603734877 3.610966035385178  5.00656964441204 1.660452823540904 3.738040712456943  5.012539360195545 1.603102140474893 3.776353921610155  5.071815311959484 1.53417768170844 3.643963760770661  4.925554990786289 1.534142583215367 3.670447150726219  5.018493467067957 1.545797314361389 3.814666451996764  5.077632299422318 1.477075893475673 3.676949665110664  4.931415553733339 1.4769941066729 3.703964423886754  5.02444196312905 1.488536237284486 3.852957681679507  5.083440477350132 1.420008310338157 3.709915841947556  4.937272946119226 1.419887061173683 3.737463760689714  5.030400316151702 1.431302639602645 3.891202537459493  5.089255088341233 1.362965214483304 3.742843483368874  4.943139942045488 1.362806888598984 3.770924125505812  5.036379955714995 1.374080448640901 3.929372293368328  5.095090500652608 1.305936583103052 3.775708942362806  4.949029515679785 1.305739264545849 3.804319514396416  5.042378536972093 1.31685561871691 3.967447530998022  5.100952673556055 1.248912003818089 3.808490079356717  4.954952169305904 1.248668376749889 3.837624388786209  4.749793613621895 1.707503437541614 3.835732708246462  4.75404817722641 1.651832551777005 3.879955217077107  4.75827191335163 1.596249207351344 3.924199278210969  4.762495177131938 1.540729762953843 3.968427435535079  4.766736518890696 1.48523969693404 4.012602201144335  4.771012055932987 1.429747519031258 4.056688413307742  4.775346896318733 1.374225838424669 4.100657647386655  4.890454931991977 1.727152920525324 3.843600997669601  5.029354911273415 1.733842127572862 3.833789080004188  5.033668994578558 1.6766095418555 3.876658598748755  4.896159088369723 1.670925248938919 3.887694789135004  5.037944000250499 1.619439686983697 3.919533521265038  4.901845198372588 1.614771771320621 3.931799081664803  5.042203196001859 1.562317238516951 3.962386917837504  4.90752698256267 1.558675117061034 3.97588541546644  5.046470797459179 1.505218140613386 4.005190910779469  4.913224414842045 1.502605403757086 4.019921146471169  5.050766985778258 1.448119800340658 4.047917464073166  4.918954706481157 1.446535269077627 4.063875638800713  5.055126347735795 1.391004439
[...]
<PointData  Scalars="f_14"> 
<DataArray  type="Float64"  Name="f_14"  format="ascii">6.1235048850624629e-01  6.0494721810251173e-01  6.1553266013665386e-01  6.1552471442988022e-01  6.0494536688011658e-01  6.1234251952746122e-01  6.1231760707214333e-01  6.0493707983022138e-01  6.1550082421278263e-01  6.1545756760504666e-01  6.0491747195476564e-01  6.1227490684943686e-01  6.1221406422007452e-01  6.0488288717945538e-01  6.1539244538220439e-01  6.1530098041486203e-01  6.0482858295667830e-01  6.1213442208087443e-01  6.1517454956046203e-01  6.0474981944354322e-01  6.1203151866341732e-01  6.3770283702973152e-01  6.2722355419619247e-01  6.3127116737546596e-01  6.3124175060040777e-01  6.2721852589301030e-01  6.3766870376251095e-01  6.3117781396572215e-01  6.2719871712486919e-01  6.3758129336446612e-01  6.3109033666634207e-01  6.2716022227797030e-01  6.3746783831819620e-01  6.3099278928554003e-01  6.2710514853923516e-01  5.7554155791309658e-01  5.7945880972897346e-01  5.6897879819935260e-01  5.7945063315427303e-01  5.7553299136205793e-01  5.7556298179500853e-01  5.7947824311353813e-01  5.6899638293947341e-01  5.7558798902561248e-01  5.7949898957727064e-01  5.6901677632810288e-01  5.7560950134592748e-01  6.1165648050690979e-01  6.0308012882092421e-01  6.0033750908207062e-01  6.0030276775495062e-01  6.0308146277794317e-01  6.1164654745738911e-01  6.0022345373962416e-01  6.0305190277960641e-01  6.1160902309589793e-01  6.0011703605548150e-01  6.0299963260081291e-01  6.1154360159332066e-01  5.9999825540524332e-01  6.0293287295269093e-01  6.1145372464202008e-01  6.0285865634392077e-01  6.1134033979807911e-01  5.9987693313350654e-01  6.0278229446305931e-01  6.1119822143432723e-01  5.9975991077472335e-01  5.7774806760888331e-01  5.7487851001666768e-01  5.6611076961756102e-01  5.6611686330626376e-01  5.7488748599559558e-01  5.7775544644127774e-01  5.7777453372392285e-01  5.7491016334877731e-01  5.6613356492412859e-01  5.7779843269841957e-01  5.7493935036277277e-01  5.6615491559806308e-01  5.7782083140106955e-01  5.7496819378473085e-01  5.6617488589661880e-01  5.7783590274495134e-01  5.7498978281713964e-01  5.6618767106033174e-01  5.7783760502030579e-01  5.7499676381861220e-01  5.6618823641774518e-01  6.2038354838218057e-01  6.1048812331814128e-01  6.0962545036964222e-01  6.0965203431391901e-01  6.1051947738226009e-01  6.2040190585189681e-01  6.2043819007090051e-01  6.1059294743039971e-01  6.0972362604178199e-01  6.0979773920066993e-01  6.1067009289074181e-01  6.2046542778169267e-01  6.0984746243678967e-01  6.1071858619891695e-01  6.2045822377766646e-01  6.0984398360700021e-01  6.1070846336732032e-01  6.2038929077996652e-01  6.0974165585820406e-01  6.1061704173178322e-01  6.2022695326349331e-01  6.2707089475773092e-01  6.1571559443371005e-01  6.2388763757373278e-01  6.2389672316752631e-01  6.1569334765441419e-01  6.2703747250039132e-01  6.2695496799883699e-01  6.1562676273733030e-01  6.2387452860937165e-01  6.2683317410688921e-01  6.1552917798990825e-01  6.2381728586926133e-01  6.1540750008555067e-01  6.2667534377344392e-01  6.2371817728142354e-01  6.1526853166037876e-01  6.2648157841803098e-01  6.2357218106195411e-01  6.1511780973265917e-01  6.2625020681767518e-01  6.2339077628054285e-01  5.6853146958689704e-01  5.6853537849801217e-01  5.6854779812375400e-01  5.6856326013556702e-01  5.6857654334611940e-01  5.6858260258084847e-01  5.6857643360379051e-01  6.0902938021716302e-01  5.9796310920574081e-01  6.0132473138331355e-01  6.0130646138139876e-01  5.9795906232919360e-01  6.0902455534940991e-01  6.0126212256535638e-01  5.9794494647071750e-01  6.0900836528871993e-01  6.0119933933812042e-01  5.9791946604422597e-01  6.0897661987907026e-01  6.0112328934678816e-01  5.9788268311849013e-01  6.0892670583525732e-01  6.0103982571521919e-01  5.9783529795013302e-01  6.0885563311736612e-01  6.0096022339944510e-01  5.9777978639867835e-01  6.0876134952279437e-01  6.2017102728430196e-01  6.2016090883795771e-01  6.2013166177913193e-01  6.2007364875600779e-01  6.1998647103228688e-01  6.1986878599344419e-01  6.1971019469324229e-01  6.0910325563635381e-01  5.9862958384138054e-01  5.9865692110753299e-01  6.0907455696949619e-01  5.9870225727271920e-01  6.0898848636945935e-01  5.9873828988543198e-01  6.0887254299733939e-01  5.9876056257913557e-01  6.0873840403753254e-01  5.9876467889407037e-01  6.0859785453910997e-01  5.9871250357768024e-01  6.0847730184353443e-01  5.8786055141690108e-01  5.8480456151553395e-01  5.7795158563732729e-01  5.8478593882820717e-01  5.7799964640654933e-01  5.8791480691770182e-01  5.8485379914744562e-01  5.7806160585426847e-01  5.8798572515505854e-01  5.8491887822262001e-01  5.7812663688297583e-01  5.8806183032203629e-01  5.8498632960254338e-01  5.7818522407968875e-01  5.8813295572546487e-01  5.8504360749765871e-01  5.7822523627571731e-01  5.8818863417174261e-01  5.8507799494937551e-01  6.3995058584942233e-01  6.2993140468250575e-01  6.2990374641378277e-01  6.3992888314291185e-01  6.2982400404880190e-01  6.3987767518824246e-01  6.2971448955656739e-01  6.3980580046830726e-01  6.2959420091401619e-01  6.3972581707526721e-01  6.2948259065880641e-01  6.3089672659902918e-01  6.3964883252452809e-01  6.2940376440938683e-01  6.3081290515449973e-01  6.3957910253370964e-01  5.8784105358580507e-01  5.9507823735750476e-01  5.8599380830770176e-01  5.9520805618716688e-01  5.8796252082903033e-01  5.8588945881390253e-01  5.8775590816344503e-01  5.9495543973257303e-01  5.8651413003371644e-01  5.8952468891717502e-01  5.8951365955235069e-01  5.8651336003681431e-01  5.8948258340478377e-01  5.8651162432686499e-01  5.8944075161858012e-01  5.8650641931231440e-01  5.8939134028912554e-01  5.8649581016888286e-01  5.8933799579682566e-01  5.8647888759200828e-01  5.8928929046009659e-01  5.8645874069316561e-01  6.0797562917035064e-01  6.0792224462935918e-01  6.0784452285071655e-01  6.0774210480669522e-01  6.0761617930411782e-01  6.0747119759795831e-01  6.0281495337659030e-01  5.9441790542188078e-01  5.9311867858357470e-01  5.9312448925880790e-01  5.9442960277111312e-01  6.0282014063892297e-01  5.9314264459107613e-01  5.9446519970383005e-01  6.0283480599578643e-01  5.9316628684070849e-01  5.9451014307692907e-01  6.0284947154283219e-01  5.9318924531883155e-01  5.9455582139371166e-01  6.0285543593348601e-01  5.9320705700364751e-01  5.9459484164135312e-01  6.0284216055869477e-01  5.9321950307275262e-01  5.9461426499702208e-01  6.0279295227597018e-01  5.7028171290668928e-01  5.8151355792150927e-01  5.7186158586292979e-01  5.8149840002071285e-01  5.7188972062475663e-01  5.7031869233513510e-01  5.8155197320256624e-01  5.7192626741110331e-01  5.7036577860115434e-01  5.8160239786229517e-01  5.7196266980652777e-01  5.7041229801413762e-01  5.8165390973892395e-01  5.7199055391383369e-01  5.7044728308967774e-01  5.8169590587164299e-01  5.7199945587192835e-01  5.7045616988175740e-01  5.8171539007964657e-01  6.2991690339295014e-01  6.2991427727537141e-01  6.2989222194172267e-01  6.2985247580775450e-01  6.2979258814982619e-01  5.7879346491408457e-01  5.7887385677995196e-01  5.7893332309063228e-01  5.8085839391914507e-01  5.8085701861836825e-01  5.8085230647302366e-01  5.8084164545136496e-01  5.8082444926085508e-01  5.7951455760222037e-01  5.8080018644845899e-01  5.7951933263215993e-01  5.8076748338666317e-01  5.7950290395180448e-01  5.6455048770786964e-01  5.6048864498938278e-01  5.6050657178172048e-01  5.6456311311580598e-01  5.6051813821885166e-01  5.6457072623382021e-01  5.6051767854720558e-01  5.6457242186871004e-01  6.4857739850766050e-01  6.3851061276615073e-01  6.4275715002732969e-01  6.4271906459737216e-01  6.3848189902762420e-01  6.4854377440201805e-01  6.4262906380461027e-01  6.3839825489282076e-01  6.4845250625931017e-01  6.4249811060358786e-01  6.3827440059242524e-01  6.4832176779448236e-01  6.4233508812465612e-01  6.3812222643640282e-01  6.4816720492562618e-01  6.4214723329906664e-01  6.3795238360636120e-01  6.1899091377372251e-01  6.1898666686764214e-01  6.1898336690661904e-01  6.1896529593002414e-01  6.1891741336779094e-01  6.1882088638216104e-01  6.1865630037966546e-01  6.4328211595009233e-01  6.4323408799767590e-01  6.4316923229389833e-01  6.1103398353565996e-01  6.0119062935325174e-01  6.0119079075019022e-01  6.1102585893938688e-01  6.1101387520746386e-01  6.0118851139930451e-01  6.1099112539372613e-01  6.0118140550333865e-01  6.1095429341078356e-01  6.0116588825107786e-01  6.1089741578448631e-01  6.0113747567169373e-01  6.1080254189225880e-01  6.0109087127331884e-01  6.2282731825393645e-01  6.2280351689764080e-01  6.2274161895498337e-01  6.2265027437572629e-01  6.2253578989089586e-01  6.2240234524855109e-01  6.2225173509179765e-01  6.2135407316934399e-01  6.1259784956934116e-01  6.2038244298271528e-01  6.2036389676833303e-01  6.1258821166963895e-01  6.2130914618002830e-01  6.2119032866221369e-01  6.1255696473767829e-01  6.2031210589317298e-01  6.2103272866176251e-01  6.1250770023182910e-01  6.2023733170124995e-01  6.2086240874512533e-01  6.1244550612842485e-01  6.2014803689393738e-01  6.1237375945466599e-01  6.2070627515326482e-01  6.2005275772165369e-01  6.2060691934326573e-01  6.1228729387145986e-01  6.1996189970811266e-01  5.7562038195202825e-01  5.7560985634491424e-01  6.0961178084818901e-01  5.9689403145317943e-01  6.0123590931460524e-01  6.0123678389651658e-01  5.9689207508873587e-01  6.0960395382353072e-01  5.9688709376418114e-01  6.0957964993660629e-01  6.0123573782046880e-01  6.0953981515606048e-01  5.9687778843858530e-01  6.0122756358013763e-01  6.0948489970329967e-01  5.9686070505894107e-01  6.0120731133022642e-01  6.0941492948095743e-01  5.9683310895904162e-01  6.0116921223109909e-01  6.0932759964924688e-01  5.9679192066437226e-01  6.0110345227879469e-01  5.8783759977518835e-01  5.7452103454985726e-01  5.7456576375899138e-01  5.7462253185113055e-01  5.7467953907765223e-01  5.7472437316023461e-01  5.7474127392593621e-01  6.1983597627076692e-01  6.1959341463224193e-01  6.1957102239862671e-01  6.1983378350319474e-01  6.1980524234596135e-01  6.1950270367428695e-01  6.1975515367566103e-01  6.1941086964719083e-01  6.1967877244504876e-01  6.1930192651816796e-01  6.2970979507986524e-01  6.1956909034714391e-01  6.1917923244473116e-01  6.2959766564279684e-01  6.1942554897277835e-01  6.1905011543511734e-01  6.3152663652475727e-01  6.3148304324907512e-01  6.3136364488412489e-01  6.3119512436676650e-01  6.3099158729703020e-01  6.3076405544043179e-01  6.3052592290378018e-01  5.8541218978737486e-01  5.8541967308976417e-01  5.8544348988469896e-01  5.8547337643139208e-01  5.8550172803194400e-01  5.8552162390426221e-01  5.8552410217376682e-01  6.1442012046414007e-01  6.1441114384616546e-01  6.1438064715664287e-01  6.1432748862489173e-01  6.1425104654434792e-01  6.1415188720797831e-01  6.1403878152628699e-01  5.6046927467220109e-01  5.8809936653418637e-01  5.9533135864946474e-01  5.8374387536027528e-01  5.7185199870258674e-01  5.8375356380501509e-01  5.8378016609905703e-01  5.8381473978891152e-01  5.8384960494808902e-01  5.8387757985950539e-01  5.8389090419925516e-01  6.3699959790814398e-01  6.3873798414823935e-01  6.2862549372085896e-01  6.2860933541046837e-01  6.3870563242946832e-01  6.3697325168132735e-01  6.3690171084092762e-01  6.3861328695621444e-01  6.2855532374419620e-01  6.3848888059452913e-01  6.3680132762105479e-01  6.2847648933984246e-01  6.3835418913066511e-01  6.3668731198197004e-01  6.2838342593291530e-01  6.3657431050339097e-01  6.3823219780151275e-01  6.2828709572966768e-01  6.3647900376101396e-01  6.3815540811737470e-01  6.2820286712900519e-01  5.9151897636135342e-01  5.9151462197665872e-01  5.9150281161447404e-01  5.9148219210266784e-01  5.9145199163647422e-01  5.9141143390788253e-01  5.9135668493951299e-01  5.9018352992673928e-01  5.9015910348798473e-01  5.9023086918069045e-01  5.9031166553628522e-01  6.2909124768540636e-01  6.2911262107946397e-01  6.2915363878732167e-01  6.2918188917007567e-01  6.2918224612057738e-01  6.2913732729437888e-01  6.2901290597876680e-01  5.9052211481863193e-01  5.9052814661450648e-01  5.9054285571845477e-01  5.9055859755670981e-01  5.9056970677351583e-01  5.9057180914749086e-01  5.9056115401655518e-01  5.9350676417100501e-01  5.9350744586914939e-01  5.9350997902346159e-01  5.9351243592899061e-01  5.9351150715611301e-01  5.9350497839118310e-01  5.9349457776816850e-01  6.3974775669997297e-01  6.2926688689581223e-01  6.3091410569195960e-01  6.3089051414241581e-01  6.2924833929857049e-01  6.3972429149751542e-01  6.3082057366714384e-01  6.2919447876741386e-01  6.3965748648922316e-01  6.3071785647328771e-01  6.2911401702006087e-01  6.3956145256721730e-01  6.3059375641850857e-01  6.2901530287659579e-01  6.3944826210501182e-01  6.3045896633991272e-01  6.2890647321456916e-01  6.3932942561876382e-01  6.3032515916563892e-01  6.2879533516337760e-01  6.3921734876000280e-01  6.2985527352880977e-01  6.2984456266977318e-01  6.2980955871285649e-01  6.2975313076113992e-01  6.2966797352176185e-01  6.2954772871598030e-01  6.2939672006078962e-01  6.4536784821944615e-01  6.4527275209106949e-01  6.4519924230957237e-01  6.2013302629440903e-01  6.2012557465315654e-01  6.2010700216199088e-01  6.2006747483236324e-01  6.2000097831481249e-01  6.1989939829681073e-01  6.1974647557844154e-01  5.8840387146654849e-01  5.9261773260879647e-01  5.8411587233522511e-01  5.9264822547712270e-01  5.8840278310519190e-01  5.8407906618239813e-01  5.8840946057188537e-01  5.9253918775037118e-01  5.8402537516233299e-01  5.8840885333920512e-01  5.9243968106727563e-01  5.8396572479733733e-01  5.8839852004155102e-01  5.9233238088291196e-01  5.8390951696774596e-01  5.8837565957059001e-01  5.9223025960319586e-01  5.8386205141807446e-01  5.8833524646118163e-01  5.9216362831955971e-01  5.9736525492072701e-01  5.9013849941664598e-01  5.9735556362668818e-01  5.9013944612088665e-01  5.9733441139061616e-01  5.9014629715263411e-01  5.9730760213914424e-01  5.9728182683101960e-01  5.9726406044725511e-01  5.9727170392633733e-01  6.4186612263267417e-01  6.4184455860915390e-01  6.4177974590137765e-01  6.4168203875535335e-01  6.4156270345477318e-01  6.4143167468078000e-01  6.4129513829998741e-01  5.9531587658782992e-01  5.9532581450557942e-01  5.9533721791337169e-01  5.9533890805131384e-01  5.9532758453102341e-01  5.9529956496927561e-01  5.9524674439049396e-01  6.0996199090671444e-01  6.1639855705342494e-01  6.1637232094836614e-01  6.0995054768523638e-01  6.1631883067249860e-01  6.0993525967222173e-01  6.1624259780865653e-01  6.0990613746266575e-01  6.1615099335079093e-01  6.0986319264705924e-01  6.1604639133748640e-01  6.0980112166108569e-01  6.1592438805015770e-01  6.0969694108929140e-01  6.0638512710505432e-01  6.1602117679371848e-01  6.0431955900988954e-01  6.1596662222136800e-01  6.0633345020159490e-01  6.1604436353158076e-01  6.0431885124491613e-01  6.0628535689805652e-01  6.1600971328649645e-01  6.0430918860120242e-01  6.0624718328520399e-01  6.1588605690441811e-01  6.0429119495464112e-01  6.0871274618116389e-01  6.0868852553982677e-01  6.0864922489550111e-01  6.0859716380260132e-01  6.0853239032923501e-01  6.0845358250323556e-01  6.0835718350458090e-01  5.8282734253537805e-01  5.8282935381740308e-01  5.8284052950638199e-01  5.8285367822108780e-01  5.8286365276061580e-01  5.8286607101551846e-01  5.8285747685222034e-01  6.0003134540807646e-01  6.0000350398986790e-01  5.9995162139367875e-01  5.9989150904212429e-01  5.9983152245306615e-01  5.9977902292242535e-01  5.9974265827198303e-01  5.4992426302543729e-01  5.5810253566944668e-01  5.5129953481107696e-01  5.5809089568999104e-01  5.5129983079703382e-01  5.4992726912119860e-01  5.5810756764608183e-01  5.5129617659642971e-01  5.4992943034282860e-01  5.5810019241778097e-01  6.1121773431454685e-01  6.0365783453228339e-01  6.0365965323930071e-01  6.1121349154230920e-01  6.0365844796179402e-01  6.1119467756803536e-01  6.0364896458787409e-01  6.1116144789330085e-01  6.0362833995832477e-01  6.1111348596465331e-01  6.0359280698647144e-01  6.1104931811177621e-01  6.0353488675482869e-01  6.1096588681533703e-01  6.1932146772850616e-01  6.1924974308482772e-01  6.1914410298102640e-01  6.1900339503758339e-01  6.1883078951119175e-01  6.1863698184007387e-01  6.2849647941586206e-01  6.2807417078226957e-01  6.2834745854583451e-01  6.2788300840542910e-01  6.2810937891076279e-01  6.2762963099998459e-01  6.3252826629898540e-01  6.3249515843970538e-01  6.3240749624418369e-01  6.3228338500212933e-01  6.3213429029790524e-01  6.3197112525439092e-01  6.3181168278628896e-01  5.5526654516995544e-01  5.5920908411932557e-01  5.5921812668238824e-01  5.5527251234983011e-01  5.5924138779871102e-01  5.5528381385387460e-01  5.5926871809900236e-01  5.5529614216670697e-01  5.5929388486200760e-01  5.5530701068043054e-01  5.5930982884220826e-01  5.5531300348617207e-01  5.5930373946634160e-01  5.5530289914236186e-01  5.7898479534230718e-01  5.7665072150961039e-01  5.7656657850966464e-01  5.7890499725975697e-01  6.1587672057699683e-01  6.0430067156414036e-01  6.1498244356379261e-01  6.1501706918608567e-01  6.0430359937867473e-01  6.1590513271700442e-01  6.1509235866025480e-01  6.0431345577285323e-01  6.1516764511893929e-01  6.1520806599159561e-01  6.1517848876505199e-01  6.1504124876967270e-01  6.3381303547019618e-01  6.4261700821571133e-01  6.3791516539429149e-01  6.3378121034945456e-01  6.4245042138619302e-01  6.3381258854632594e-01  6.3784407451310043e-01  6.4223170621736470e-01  6.3375862265531391e-01  6.3771524428398496e-01  6.4196291148692908e-01  6.3362967303848095e-01  6.3750285200457180e-01  6.4166151478031885e-01  6.3336406985317273e-01  6.3717167501882843e-01  5.9876225863159571e-01  5.9837427642411711e-01  5.9836646836563601e-01  5.9873943171755550e-01  5.9835842869357903e-01  5.9872332369860271e-01  5.9834956283196361e-01  5.9870464460868222e-01  5.9834297231980382e-01  5.9868901693664323e-01  5.9834178087858836e-01  5.9867979957988138e-01  5.9834801041018904e-01  5.9867221108714519e-01  5.8725411283160123e-01  5.8721109530370341e-01  5.9270297243533110e-01  5.9271268115448705e-01  5.9273564994255434e-01  5.9276166395546259e-01  5.9278641103260432e-01  5.9280764843033218e-01  5.9282307011185320e-01  5.4589788554894492e-01  5.4991480358869460e-01  5.4590765181580492e-01  5.4991973901955282e-01  5.4588713263069399e-01  5.4587659894550178e-01  5.4586834015869212e-01  5.4587160136585544e-01  6.3777859769390177e-01  5.5806524907150368e-01  5.5807709484298906e-01  6.2703261275336442e-01  6.2693111231632204e-01  6.4756145555045685e-01  6.4748477863335319e-01  6.4742515888367969e-01  5.9402354986216421e-01  5.9402528416543066e-01  5.9402561261586828e-01  5.9402156568591635e-01  5.9400936380159608e-01  5.9398641093509452e-01  5.9395294420811739e-01  6.0424937751349272e-01  6.0423902370111637e-01  6.0422015207222068e-01  6.0419384810341148e-01  6.0415956618786248e-01  6.0411500661722806e-01  6.0405193839442561e-01  6.1871062772635521e-01  6.1869401497365006e-01  6.1864893879511285e-01  6.1858228057077869e-01  6.1849865841284768e-01  6.1840253971188563e-01  6.1830114159316141e-01  6.1934215550974758e-01  5.7680425214729747e-01  5.6912950102657478e-01  5.7673962304518867e-01  5.6911810775418270e-01  5.7666011510423321e-01  5.5112772719568470e-01  5.5112142135838249e-01  5.5111458383772216e-01  5.5110992118378455e-01  6.3516445922215981e-01  6.3509871917391003e-01  6.3498060567063852e-01  6.3479664343303843e-01  6.3452407363504282e-01  6.2175302348347672e-01  6.2170843150225508e-01  6.2159576154167950e-01  6.2145157295959796e-01  6.2129661647651513e-01  6.2115217438546089e-01  6.2104969069745330e-01  5.4990874191658212e-01  6.2852037373656222e-01  6.2535871115155961e-01  6.2527961320682079e-01  6.2856674206495400e-01  6.2543652277745598e-01  6.2858119519379119e-01  6.2547523114593895e-01  6.2853439116500609e-01  6.2543334835600284e-01  6.2838619025212938e-01  6.2526224565560506e-01  5.8807816756671905e-01  5.8811816098300973e-01  5.6345816731375631e-01  5.6346591382004418e-01  5.6347513567746499e-01  5.6348149537275249e-01  6.2390759464798273e-01  6.2394681771492078e