<?xml version="1.0"?>
<VTKFile type="UnstructuredGrid"  version="0.1"  >
<UnstructuredGrid>
<Piece  NumberOfPoints="995" NumberOfCells="4290">
<Points>
<DataArray  type="Float64"  NumberOfComponents="3"  format="ascii">9.307314076480086 2.443421084076296 3.873317769538949  9.211205620705499 2.513882102258965 3.931352194485028  9.188035095221403 2.393024355369779 3.872505587948195  9.197883587974498 2.35369293329829 3.924876585074164  9.220006931412243 2.483326921418878 3.990780763548674  9.321484197085958 2.40746483717671 3.926785946490282  9.207755163796767 2.314419840338949 3.977300765598099  9.228801129301869 2.452850260986666 4.050260889087236  9.33573844823419 2.371573537480659 3.980294586854196  9.217635025205309 2.275161541469665 4.029719240024636  9.237609286556086 2.422406763795864 4.109749913089767  9.350032527355518 2.335713675134835 4.033806873332445  9.227509065318403 2.235878379865271 4.082101175352848  9.246424963975985 2.391950887374499 4.169214235160975  9.364325356594707 2.299843275113862 4.087292575257983  9.237361863529365 2.196529992228466 4.134423984258029  9.255238393170513 2.361437192922487 4.22863261272641  9.378574269252992 2.263916876056305 4.140732448481685  9.247183221182187 2.157087673491884 4.186685585015398  9.264039150983233 2.330812976954261 4.287990529548333  9.392727738666061 2.227882380073168 4.194115267766442  9.860926223423379 2.399542671118393 3.670577426892411  9.753287782081907 2.412352291432748 3.717927386640648  9.812664003101373 2.319229053819123 3.605314934820608  9.825946596051663 2.277137080322814 3.645369632254679  9.767318345472921 2.373272969075409 3.764362015340797  9.87489385493191 2.360044658100655 3.715089593824227  9.888862305662483 2.320557090325813 3.759515810624412  9.781362008415993 2.334218973459897 3.810716397559725  9.8392656001897 2.23507438400196 3.685343008899176  9.902835316562998 2.281096979047054 3.803877896718061  9.79541506787672 2.295190965838234 3.857013975215695  9.852621960885728 2.193047483394126 3.72527946786933  9.91681188154115 2.241660062704184 3.848192768251554  9.80946839867709 2.25618568051516 3.903264111677492  9.865977195823961 2.151041514634433 3.7651747677316  9.930754482601676 2.202226954473718 3.892450496417936  9.823477479028027 2.217182871556757 3.949451420232637  9.879282796490338 2.109039247180496 3.805016986929017  9.837408038964872 2.178161254288647 3.995570159266324  9.944606552521146 2.162793815737747 3.93663297028373  9.892471361662672 2.067030952263218 3.84479186883476  9.130862731855672 1.812323189655337 3.494430899852875  9.281044703391631 1.823826399439473 3.472928131310409  9.171758495480761 1.772373226791066 3.399875591281844  9.124696280462558 1.860394154529095 3.46753642684747  9.273493886877311 1.871307967700135 3.446187086311895  9.178091456314691 1.725510489334015 3.425958076046675  9.137020124474551 1.764228320606335 3.521291869864875  9.288564215316438 1.77632289904019 3.499638076144687  9.184397759224769 1.678605335552223 3.452010853027968  9.14316116961408 1.716075242916831 3.548108956761991  9.296012945790935 1.728770618151617 3.526309844853104  9.721811569849029 3.339721837671807 4.249025240401813  9.771944600151537 3.185467299472217 4.277008444654988  9.653015726794335 3.163355577260134 4.30457757173555  9.757948851493779 3.174477026273338 4.210125654364941  9.665732620248773 3.173756017674306 4.37212242392755  9.734843143070149 3.359765526009268 4.31394910807211  9.78607911805925 3.196449934196786 4.343809173190841  9.667394904004649 3.042103713219545 3.958225085765155  9.701875004047123 3.129814460679683 3.942288344804531  9.58974757138742 3.11045185651866 3.965843625218963  9.682107601342093 3.045956795714935 4.025988340993258  9.716065245513725 3.141108461906349 4.009288037263177  9.602554775511519 3.121169966912408 4.033734700644252  9.696675065509018 3.049752982880563 4.093673149791293  9.730082063378381 3.152311578971554 4.076257490106268  9.615222276364156 3.131823270205343 4.101533073149784  9.711170188943575 3.053479193621099 4.161306071197203  9.744020100548909 3.16343401035194 4.143203375628055  9.627817780370139 3.142410227990534 4.169265820107796  9.725649849080751 3.057132963872857 4.228896529537558  9.640396311875234 3.15291748081455 4.236948621514119  9.740175582447698 3.060733148551988 4.296441026751154  9.754808002743054 3.064310653588099 4.363914650348113  9.69097485902242 2.333194727201225 3.659695294227914  9.704177157158149 2.291744570040853 3.70215234346845  9.717422905788466 2.250314241773571 3.744543801105645  9.73071199231088 2.20892323687859 3.786903236435229  9.743997601235174 2.167546245149313 3.829224788189382  9.757230051686422 2.126159929885515 3.871500935499714  9.770357672526439 2.084738185325157 3.913721498469831  9.081235646872845 2.443165310045634 3.910456561656731  9.086609461039266 2.409532876434004 3.968120051311677  9.091946615602838 2.375980602969509 4.025862611881123  9.097276128633581 2.342448788634615 4.083620108232217  9.102608054297026 2.3088960391063 4.141353259239611  9.107945102756501 2.275282164568764 4.199037476155286  9.113291693399333 2.241561669203611 4.25665613834172  9.250918961619394 2.013707376588747 3.365840233982101  9.184474899027624 2.049949990349765 3.447522700162807  9.106173268294368 2.004537289500544 3.3867556080836  9.191690606516159 2.001432323021779 3.475474946902072  9.258402648132513 1.96624775426431 3.392637162809253  9.112348389271085 1.956507159256393 3.413687881250496  9.198940881221477 1.95289812532356 3.503434322344683  9.265938074100212 1.918780662675375 3.41942126143037  9.118523979701466 1.908454745608153 3.440618898484783  9.20620110834372 1.904353177317983 3.531382141844783  9.213453909637144 1.855794266857616 3.559305710324684  9.220680937881308 1.807205465361875 3.587193421985621  9.227853806389467 1.758556961949861 3.615030005399384  10.03984147862216 2.226348394719944 3.421725925985607  10.01193616215183 2.296685405710492 3.520221804026187  9.923518264539888 2.205228622759854 3.434460237061309  9.93490343857925 2.161442049767071 3.467923667333565  10.02395079542228 2.254437363602232 3.558092662096177  10.05001830361192 2.183338746617562 3.456209560147581  9.946356211530489 2.117704904504752 3.501329887556471  10.03596240608238 2.212215437951124 3.59588774419749  10.06019095294298 2.14037309952941 3.490630943499025  9.957843670350931 2.074011954727003 3.534697421672738  10.0479843920236 2.170035489699097 3.633633018059499  10.07036863380568 2.09744440884566 3.52501298968644  9.969324745257886 2.030343701914614 3.568018540993776  10.06000098914388 2.127880157009638 3.671324094070142  10.08054086310018 2.054531669235125 3.559347898230558  9.980757873317923 1.98668991603327 3.601282064052555  10.07198908993941 2.085746288904322 3.708944994392793  10.09070129190978 2.01162981735118 3.593622278351318  9.992069229144667 1.943043128249598 3.634472609780897  10.08388741485013 2.043633208897166 3.746483609852024  10.10080983223401 1.968759282193734 3.627808490168735  9.083825673650713 2.557569604624104 3.968642669060719  9.090110210521345 2.528443384977711 4.030212003046512  9.096377810653188 2.49942552485803 4.091830630423241  9.102643887956894 2.470447669360777 4.153454924512041  9.108914080180902 2.441457225787379 4.215053471456987  9.115185910972986 2.41240178794931 4.276603091362473  9.121459274725883 2.383217792774147 4.338077436706969  9.893284387410402 2.269490201315185 3.527292891471881  9.905102425530107 2.226705061214217 3.564758573513654  9.916935155813444 2.183964045771845 3.602135709126648  9.9287964946756 2.141263798719695 3.639473580837343  9.940649868911843 2.098586465126848 3.676763357882212  9.952457446213048 2.055923480485453 3.713991625259196  9.964190419752516 2.013276344653501 3.751143670433587  9.146523352442443 2.218505176120158 3.70081428615784  9.020471993632029 2.174015401544464 3.66918481776773  9.12098763226237 2.152612581962901 3.619883989419189  9.129241335417753 2.105052833989839 3.655532112896813  9.027030482397306 2.126230750509504 3.706827731174523  9.155848629948746 2.171983210617577 3.740556970558765  9.137533603216708 2.057478826161398 3.691209941715289  9.033570792371851 2.078432281412072 3.744510641590945  9.165216862602405 2.125476934747967 3.780335653193105  9.145832780945836 2.009892571454903 3.726888916309905  9.040099321607343 2.030621720230935 3.782197389747929  9.174595750283382 2.078969877997853 3.820114612762644  9.154122644062932 1.962283582555201 3.762544498155434  9.04662200759636 1.982787171317182 3.81986045478506  9.183965441246444 2.032441580454612 3.859867044070272  9.162384949567471 1.91463034484339 3.798159193724044  9.053141923005963 1.934905880615779 3.857480115169063  9.19330293815649 1.985865697227536 3.899569708356952  9.170595253035733 1.866902117759359 3.833720425249246  9.059662180497101 1.886945730384093 3.89504580437475  9.202576614250416 1.939197702148364 3.939213075155328  9.651089124773495 2.433998183778433 3.763127633461375  9.535988014049337 2.4510012165677 3.808759229575187  9.592144702259112 2.356106690244856 3.712363823585279  9.605691405174515 2.315106251614032 3.756827483300854  9.551199525044623 2.413313355914998 3.858630990728965  9.665007152619332 2.395841433473595 3.811590354828008  9.619287376897629 2.274141206834446 3.801228409829192  9.566445588288444 2.375662763826186 3.908451837797036  9.678925818188842 2.35771849326449 3.859985304463591  9.632928323814683 2.233210450760331 3.845604902033526  9.581726473001376 2.338046284851186 3.958244038108331  9.692861007323986 2.319621110075432 3.908332799367023  9.646568652753013 2.192290143629646 3.889947603849235  9.597014441663044 2.300441973715702 4.00800332486799  9.706800083759148 2.281540585108597 3.956640635808589  9.660154064820661 2.15135491776677 3.934242901933885  9.612253817169888 2.262811233526638 4.057711871717083  9.720696276103917 2.243447591256777 4.004892432059198  9.673612680153266 2.110379967854267 3.978479450891447  9.627372460478524 2.225121319611758 4.107354008057698  9.
[...]
<PointData  Scalars="f_14"> 
<DataArray  type="Float64"  Name="f_14"  format="ascii">2.3885660330820910e-01  2.4889308755351033e-01  2.5163998914168156e-01  2.5162227290514994e-01  2.4893029785798537e-01  2.3878334096049805e-01  2.5161561671236149e-01  2.4901606495828166e-01  2.3863325937330832e-01  2.5162490742274229e-01  2.4912176148420520e-01  2.3847732506182176e-01  2.5165097282500193e-01  2.4923300355553046e-01  2.3835795133156290e-01  2.5169384586842747e-01  2.4933652544094936e-01  2.3831060989156219e-01  2.5174323115853159e-01  2.4942583918619438e-01  2.3836969842790098e-01  1.8059752227790149e-01  1.9224708348090022e-01  1.8584114836282675e-01  1.8583165222128165e-01  1.9224549332526580e-01  1.8057998999263858e-01  1.8054084399618009e-01  1.9224567182747754e-01  1.8580531711930448e-01  1.8050408859655179e-01  1.9226109213594111e-01  1.8578047259345135e-01  1.8049175034870377e-01  1.9230273394566116e-01  1.8577874972184702e-01  1.8052880385445061e-01  1.9238446132573570e-01  1.8582300083658573e-01  1.9251255952504520e-01  1.8064911170749054e-01  1.8593973278532724e-01  2.6007383894627939e-01  2.4512852770313867e-01  2.5587063269557153e-01  2.6003254404977361e-01  2.4510714628730246e-01  2.5591142011249218e-01  2.6011829592770097e-01  2.4516124280420248e-01  2.5595250005058412e-01  2.6016379699138970e-01  2.4521106906124929e-01  1.9712081559894173e-01  1.9331962830746477e-01  2.0595716144692602e-01  1.9324553793369473e-01  2.0611603070020912e-01  1.9731477125491118e-01  1.9346026203911210e-01  1.9784612372526042e-01  1.9333495418522012e-01  2.0555534187899635e-01  1.9780724246717088e-01  1.9330818912255493e-01  2.0557624421247028e-01  1.9774702127923002e-01  1.9326450028788458e-01  2.0562939937645555e-01  1.9770099860740803e-01  1.9323375271682713e-01  2.0570757975312348e-01  1.9769510616216562e-01  2.0581762773493656e-01  1.9775485195384312e-01  1.9789275647043977e-01  1.9893306451404186e-01  1.9893826683899393e-01  1.9895655936502346e-01  1.9898829564492784e-01  1.9904454678341252e-01  1.9913454046937673e-01  1.9925714474005668e-01  2.6247462722945780e-01  2.6252396259672706e-01  2.6265337032485581e-01  2.6280787938542555e-01  2.6296127058344571e-01  2.6309307984813884e-01  2.6318281317990005e-01  2.4508672023173189e-01  2.5199463212129219e-01  2.5997117603098036e-01  2.5200143166810929e-01  2.4508856071988425e-01  2.5997694403727567e-01  2.5202215347066098e-01  2.4509447212768543e-01  2.5999867426467582e-01  2.5205308502048052e-01  2.5209538385056030e-01  2.5215235416500698e-01  2.5222684168962767e-01  1.6156886965726841e-01  1.6446288312194166e-01  1.7398985726286995e-01  1.7397294797522883e-01  1.6443945074167127e-01  1.6156404520730558e-01  1.7391723633922110e-01  1.6437772946709239e-01  1.6153832019341302e-01  1.7385342281341562e-01  1.6430300320032459e-01  1.6150531038534638e-01  1.7380598767493075e-01  1.6424805918695484e-01  1.6148308896948604e-01  1.7380162795185494e-01  1.6424848536234060e-01  1.6149267893339819e-01  1.7387711111720777e-01  1.6435057276446771e-01  1.6156672214664405e-01  2.6168294370031053e-01  2.6170847774808115e-01  2.6175654959398487e-01  2.6182440636484694e-01  2.6190035432786252e-01  2.6197771513146950e-01  2.6205525192002288e-01  1.7730915442982412e-01  1.7731537740912778e-01  1.7733525061470523e-01  1.7736170805693355e-01  1.7740947068879392e-01  1.7748940668534971e-01  1.7758640685999946e-01  2.5582381743335053e-01  2.6874679864673356e-01  2.5845876073295521e-01  2.5844489525810571e-01  2.6874010055725883e-01  2.5580355249259784e-01  2.5841720360393688e-01  2.6873746249417590e-01  2.5576295051814024e-01  2.5839553841500151e-01  2.6874330326362567e-01  2.5572624512532066e-01  2.5839224077702783e-01  2.6876164801691343e-01  2.5571216606709779e-01  2.5841986469412537e-01  2.6879666391501522e-01  2.5573877590443717e-01  2.5849342066159953e-01  2.6885551499836641e-01  2.5581926294547552e-01  2.0305149283991536e-01  2.1493911721052411e-01  2.0935905628680693e-01  2.0936166968348480e-01  2.1491567229581912e-01  2.0306210904121802e-01  2.0937394921856678e-01  2.1487091598517599e-01  2.0310592920603229e-01  2.0940313900109261e-01  2.1483047963473767e-01  2.0317139465687684e-01  2.0946060298640620e-01  2.1482477603737976e-01  2.0326503605357313e-01  2.0956002193313636e-01  2.1488703838196593e-01  2.0339383518506571e-01  2.0972428151320746e-01  2.1505529566397250e-01  2.0354925603525903e-01  1.7520947753817892e-01  1.8547377446745172e-01  1.8546537951481307e-01  1.7520259689035816e-01  1.8545263668514042e-01  1.7519258221879250e-01  1.8545391567399253e-01  1.7518855070884787e-01  1.8548105701278600e-01  1.7520808899495310e-01  1.8554991996349013e-01  1.7527080201738487e-01  1.8567114880783858e-01  1.7537975599485819e-01  2.6592777251177546e-01  2.6592045745831661e-01  2.6590418928852311e-01  2.6589378077739245e-01  2.6589646428675257e-01  2.6591724433215386e-01  2.6596740237495403e-01  2.3662429782632657e-01  2.3665631887414204e-01  2.3670461469815468e-01  2.3675967046973836e-01  2.3683370689441358e-01  2.3693111803717740e-01  2.3702000329333620e-01  1.9607397617703237e-01  1.9608104158333101e-01  1.9609350603368467e-01  1.9612775439812191e-01  1.9618923197311536e-01  1.9628654389620576e-01  1.9643485257310067e-01  1.4945207376880129e-01  1.5082832441017560e-01  1.5081886317942117e-01  1.4945841615761951e-01  1.5077255832457911e-01  1.4945951434349047e-01  1.5071427999494466e-01  1.4946097143466253e-01  1.5066383762364621e-01  1.4946800685551473e-01  1.5064603768936205e-01  1.4948883464881779e-01  1.5070187631591478e-01  1.4953584677268955e-01  2.2042709272896086e-01  2.2041723564214227e-01  2.2036792846076406e-01  2.2031956397410063e-01  2.2030392170257240e-01  2.2035412445788974e-01  2.2051769991500569e-01  2.2017922671233631e-01  2.2573924010331517e-01  2.3528299105707309e-01  2.3527123406299841e-01  2.2571591182507164e-01  2.2016685115807608e-01  2.3526168528214958e-01  2.2565880994026322e-01  2.2014056094664650e-01  2.3526504167116066e-01  2.2560618072727445e-01  2.2012199973427335e-01  2.3529240925226452e-01  2.2558226662426276e-01  2.2012887798026670e-01  2.3535341135567275e-01  2.2561016955466151e-01  2.2017912119513711e-01  2.3545348192391624e-01  2.2572460277756726e-01  2.2029664901428700e-01  2.3100394742001853e-01  2.4573958795380371e-01  2.4573126014905147e-01  2.3100752841720523e-01  2.4571379872070404e-01  2.3101147156467144e-01  2.4570243648776233e-01  2.3102386691931204e-01  2.4571237004062069e-01  2.3105554128967470e-01  2.4575854760430524e-01  2.3111574214481115e-01  2.4585513970508821e-01  2.3121157887560620e-01  1.4114771200993928e-01  1.5575780076774282e-01  1.5188602044447391e-01  1.5177424590421498e-01  1.5570207519182841e-01  1.4108791879194177e-01  1.5164058501412117e-01  1.5563388030730535e-01  1.4100792598607031e-01  1.5151828086579633e-01  1.5558392499962206e-01  1.4092656895209568e-01  1.5145228036035333e-01  1.5558553936177721e-01  1.4086431524989559e-01  1.5153591781403283e-01  1.5567141239177149e-01  1.4085881816368001e-01  2.4099095537302873e-01  2.4097866106909033e-01  2.4094475015257596e-01  2.4091543343045685e-01  2.4090576877791114e-01  2.4092991986667939e-01  2.4100823466656132e-01  2.5213453030895006e-01  2.5212858014542056e-01  2.5211516765500147e-01  2.5210902680632979e-01  2.5212134870291519e-01  2.5216512121187451e-01  2.5225804313445827e-01  1.8738758633912891e-01  1.9889337274064756e-01  1.8557181232131656e-01  1.8555747097619285e-01  1.9888453049983632e-01  1.8738237184291848e-01  1.8551906811883259e-01  1.9885871919347786e-01  1.8736288331325221e-01  1.8547820758350012e-01  1.9883396913884879e-01  1.8734477786639758e-01  1.8545493602966703e-01  1.9882984284360217e-01  1.8734669792332817e-01  1.8546999674042575e-01  1.9886538584819174e-01  1.8738687180945651e-01  1.8554745116484020e-01  1.9895722569542060e-01  1.8749223309755997e-01  2.0899254013701091e-01  2.0896088575409452e-01  2.0888965297911352e-01  2.0882379475843180e-01  2.0879295544801549e-01  2.0883286981901070e-01  2.0899452103981289e-01  1.6553656742177317e-01  1.7217972659351674e-01  1.7216487450005122e-01  1.6551823139114297e-01  1.7212599384791902e-01  1.6546706273681963e-01  1.7208704926942459e-01  1.6541383011754887e-01  1.7206891004056726e-01  1.6538332112899840e-01  1.7209471190791678e-01  1.6540397800268661e-01  1.7218887222451276e-01  1.6550220520903158e-01  1.9748016692309950e-01  1.9746901239631867e-01  1.9743920505154158e-01  1.9740895158522556e-01  1.9739611528067369e-01  1.9741978524440815e-01  1.9749955506291075e-01  2.7547219241657223e-01  2.7874699283688331e-01  2.7874934320924161e-01  2.7548668460818554e-01  2.7877228298885465e-01  2.7549818820947652e-01  2.7881088407845855e-01  2.7551838550036745e-01  2.7885415583698714e-01  2.7554416741358029e-01  2.7889421067490977e-01  2.7557281431503183e-01  2.7893168734802970e-01  2.7560287553212209e-01  2.7107918008424325e-01  2.7383726199273090e-01  2.8224443327750348e-01  2.7378853074012771e-01  2.7103713825690418e-01  2.8222294185118929e-01  2.7112834548022402e-01  2.7389250285201100e-01  2.8221163303371666e-01  2.7118156932466692e-01  2.7395142244099951e-01  2.8222718723542134e-01  2.7124161559523979e-01  2.7400946273443494e-01  2.6173237277744116e-01  2.6817627103772812e-01  2.7204047304095547e-01  2.7206120961608193e-01  2.6818377335705107e-01  2.6174264944884928e-01  2.7211614280192237e-01  2.6820936184877447e-01  2.6178383979869096e-01  2.7218992671597775e-01  2.6824829192222033e-01  2.6184055881117030e-01  2.7226802911721132e-01  2.6829640510199232e-01  2.6190573166427422e-01  2.7233600421288423e-01  2.6835045138642027e-01  2.6197335389094256e-01  2.7237721684838556e-01  2.6841036051256500e-01  2.6203284998012683e-01  2.2482306803998237e-01  2.2478216606228180e-01  2.2467727916261479e-01  2.2456318643192402e-01  2.2448494010181314e-01  2.2448378141738889e-01  2.2459214808523603e-01  2.8053260304031047e-01  2.7040973891335024e-01  2.7035841162349722e-01  2.8057331414618319e-01  2.7044559648435834e-01  1.3958888865282659e-01  1.3316937350139926e-01  1.3956354968942219e-01  1.3306284708535326e-01  1.3951268464022293e-01  1.3294866623615892e-01  2.7440285990116281e-01  2.8427183429959707e-01  2.7435795922501960e-01  1.5192986256204785e-01  1.5577699915750493e-01  2.7373478721920569e-01  2.7375191365863799e-01  2.7899526690853710e-01  2.7891678889627253e-01  2.7907772823947735e-01  2.7915093535858948e-01  2.7920508994177151e-01  1.8390343403189613e-01  1.8538439961017472e-01  1.8521656204236228e-01  2.6435827599185197e-01  2.7418082443226466e-01  2.6439514382627244e-01  2.7419285595264287e-01  2.6448539735150545e-01  2.7422429793540942e-01  2.6459347478677858e-01  2.7426956830049526e-01  2.6470362724888663e-01  2.7431645614791950e-01  2.6479905548823973e-01  2.6484324917936841e-01  1.6067617444303836e-01  1.6065217934236189e-01  1.6058928461877858e-01  1.6051187776700782e-01  1.6045181289182664e-01  1.6044529720631678e-01  1.6052617161871655e-01  1.4147110894355236e-01  1.3961574327747464e-01  1.4146746094555854e-01  1.3960546294907711e-01  1.4146348809886597e-01  1.4146569523500754e-01  1.4147212511452631e-01  2.6367944405784710e-01  2.7099453433406295e-01  2.6372178679903935e-01  2.7100759522081913e-01  2.6379970217282961e-01  2.6389085105500970e-01  2.6398809620574182e-01  2.6408346281249734e-01  2.6416396051101798e-01  2.3365860055262805e-01  2.3363781535552508e-01  2.3358405033842017e-01  2.3352903662604671e-01  2.3350342276196459e-01  2.3353573274987338e-01  2.3366112883171494e-01  2.2904162315093526e-01  2.2899683750977567e-01  2.2888791603098746e-01  2.2877162018710048e-01  2.2869658133425819e-01  2.2870631234477462e-01  2.2883028728859645e-01  1.8256266662298051e-01  1.8362860186663990e-01  1.9306283872672275e-01  1.9308820338335342e-01  1.8360846644019199e-01  1.8253769162615924e-01  1.9315877826764050e-01  1.8356265362000412e-01  1.8247628684931683e-01  1.9325401663504740e-01  1.8352500603908611e-01  1.8241669612312356e-01  1.9338177670206519e-01  1.8352222033991156e-01  1.8238689315667997e-01  1.9354470169347376e-01  1.8358301460353885e-01  1.8241279105315386e-01  1.9370577356946928e-01  1.8373750543063760e-01  1.8253860085592441e-01  2.0355697139083584e-01  2.0608406459602466e-01  2.1519915719205351e-01  2.1516625306853621e-01  2.0608341152702600e-01  2.0356585101261737e-01  2.1507535577131764e-01  2.0609257048681556e-01  2.0360499312623009e-01  2.1497929195254592e-01  2.0612025125659195e-01  2.0366704529923144e-01  2.1491882958330535e-01  2.0618404617891298e-01  2.0376088255762087e-01  2.1493046114166656e-01  2.0629999587016806e-01  2.0389183261885147e-01  2.1507215445875719e-01  2.0646644501325531e-01  2.0405933290113748e-01  1.9497929216542709e-01  1.9497611225169736e-01  1.9498489512948838e-01  1.9501505421674675e-01  1.9507798444365032e-01  1.9518348783707187e-01  1.9533457829872472e-01  1.9769848878900842e-01  1.9768781497187071e-01  1.9765448202054342e-01  1.9762647084546875e-01  1.9762368024847662e-01  1.9766716267935300e-01  1.9778098278051048e-01  2.0007683248976760e-01  2.0154185996047150e-01  2.0994002730097855e-01  2.0989378096595446e-01  2.0156059346863378e-01  2.0012534034481275e-01  2.0978516966723867e-01  2.0162164648404315e-01  2.0024641335155852e-01  2.0967359190938456e-01  2.0170953521232043e-01  2.0040099087787436e-01  2.0959660525033952e-01  2.0183129363692445e-01  2.0058942943095739e-01  2.0959029110030764e-01  2.0199127219556343e-01  2.0081121120401232e-01  2.0974146593495807e-01  2.0217090731450610e-01  2.0099833041502183e-01  2.2679379657962567e-01  2.2885426770351108e-01  2.3838478114882189e-01  2.3842273569849923e-01  2.2886234776405640e-01  2.2675767192103261e-01  2.3852683060254626e-01  2.2889280125874456e-01  2.2668132260402166e-01  2.3865844904142391e-01  2.2894088861785636e-01  2.2661168699230935e-01  2.3880492197818112e-01  2.2901338185584824e-01  2.2657585795618637e-01  2.3895263057169777e-01  2.2911270279906262e-01  2.2659808417964009e-01  2.3907539219549290e-01  2.2924091032426666e-01  2.2670864958736725e-01  1.9070159274232801e-01  1.9067901117913719e-01  1.9063081312115673e-01  1.9059738483917374e-01  1.9059689467713695e-01  1.9064924612472089e-01  1.9079372776972148e-01  2.4446143193918762e-01  2.4708322760668527e-01  2.5519664988421614e-01  2.5519400047676111e-01  2.4713767925450708e-01  2.4447481220158201e-01  2.5519075005363290e-01  2.4728601989026650e-01  2.4452671818582822e-01  2.5520222304646634e-01  2.4746023568561609e-01  2.4459895369096091e-01  2.5523036013230799e-01  2.4764488289726133e-01  2.4468576530857056e-01  2.5528420279997671e-01  2.4782496323515363e-01  2.4478457323082514e-01  2.5539349158055258e-01  2.4796061145101808e-01  2.4488542059861065e-01  1.5998414320037951e-01  1.6646701787825111e-01  1.7262739868227478e-01  1.7258401387769226e-01  1.6648903506655319e-01  1.5998606879188662e-01  1.7247998635111100e-01  1.5999829207165633e-01  1.6655709236494282e-01  1.7236940112060417e-01  1.7228422274671995e-01  1.6662152773106156e-01  1.6002493453615052e-01  1.7225950511372748e-01  1.6673535279696455e-01  1.6008655101985469e-01  1.7235907557201335e-01  1.6688733969748229e-01  1.6017139347149628e-01  2.1680187077151269e-01  2.1678657915282287e-01  2.1676429289134616e-01  2.1675864790537597e-01  2.1678806668546963e-01  2.1687060542718900e-01  2.1703179685510174e-01  2.6979811995157732e-01  2.6601640601159504e-01  2.7786452164369024e-01  2.6613195549446533e-01  2.6985934944348877e-01  2.7794826423199237e-01  2.6974071431427693e-01  2.6589959632680082e-01  2.1628980994413968e-01  2.1629563164781893e-01  2.1631208300652124e-01  2.1633975508961234e-01  2.1639484830078862e-01  2.1649291741911619e-01  2.1663661261814057e-01  2.8591758866964234e-01  2.3565890567207018e-01  2.3567108618656343e-01  2.3569956536651709e-01  2.3574321168651127e-01  2.3580704339591330e-01  2.3588886380657140e-01  2.3597603756319277e-01  2.4130043273830368e-01  2.4129560435802092e-01  2.4128118542799132e-01  2.4127305497319521e-01  2.4127869652305636e-01  2.4130726359851351e-01  2.4137915308154989e-01  2.5041764397429828e-01  2.5210663134929845e-01  2.6126425503890299e-01  2.6122561810798911e-01  2.5210152030630667e-01  2.5040009626050980e-01  2.6113256505263044e-01  2.5208548428416422e-01  2.5035659231320440e-01  2.6104172296362321e-01  2.5207938756324416e-01  2.5032066017977322e-01  2.6097704592014709e-01  2.5209711093808379e-01  2.5030855871150226e-01  2.6096350005194524e-01  2.5214890313928895e-01  2.5033650277796504e-01  2.6103540818522775e-01  2.5224613880434260e-01  2.5043905226487517e-01  2.1233851053516600e-01  2.1230282917591187e-01  2.1222769788876908e-01  2.1215735336357192e-01  2.1212440173128280e-01  2.1216237359484397e-01  2.1232638028073636e-01  1.7492446049734076e-01  1.8745872624059084e-01  1.8742948097809958e-01  1.7489191377373942e-01  1.8739666893220602e-01  1.7480062219814896e-01  1.8737028406385564e-01  1.7470233751882780e-01  1.8738154624142550e-01  1.7463287963807711e-01  1.8746168400006910e-01  1.7462633885600698e-01  1.8762230626124657e-01  1.7472823376806315e-01  1.7980866334629517e-01  1.7967451546525007e-01  1.7966200354241540e-01  1.7985739218403488e-01  1.6635520647738525e-01  1.6633745635265632e-01  1.6631189892460210e-01  1.6629112435889409e-01  1.6629401973402633e-01  1.6634177171675238e-01  1.6645095904941856e-01  1.7118858355121958e-01  1.7118362346404545e-01  1.5999094592915161e-01  1.7118597050714687e-01  1.7119670456803218e-01  1.7123448667145316e-01  1.7131658154971077e-01  1.7144242778214558e-01  2.5829645429338743e-01  2.6988211856255390e-01  2.5823487944197171e-01  2.5809384893973952e-01  2.5794846448200159e-01  2.5783259193833297e-01  2.6969941094820693e-01  2.5777809166334359e-01  2.7025271897401787e-01  2.7030287569317596e-01  2.5297495081679289e-01  2.5301335107339573e-01  2.5310419763568098e-01  2.5321337574921837e-01  2.5333051702143283e-01  2.5344886597393285e-01  2.5355591826690593e-01  2.5783755606630548e-01  2.7539933566386576e-01  2.8322669718108617e-01  2.7540191085584675e-01  2.8321686407667401e-01  2.7541304246612580e-01  2.6617728397104229e-01  2.6580702719040028e-01  2.3195034567491241e-01  2.3195735392136552e-01  2.3198001053387013e-01  2.3201344068884622e-01  2.3205651441762457e-01  2.3210863134187185e-01  2.3216134591537779e-01  2.2375982302847522e-01  2.2369917761845498e-01  2.2355679400690603e-01  2.2341069244926323e-01  2.2330704487645783e-01  2.2329154066901596e-01  2.2341786108852638e-01  1.6623515214846893e-01  1.7772345829756062e-01  1.6624170241481878e-01  1.7772314260139144e-01  1.6625103286402304e-01  1.7778003800808773e-01  1.6630829017678200e-01  2.1844185492699311e-01  2.1833195617949461e-01  2.1810010019216852e-01  2.1785871891208933e-01  2.1766550317275446e-01  2.1759191531090466e-01  2.1774612585529518e-01  1.7402511180354960e-01  1.8519527737284872e-01  1.7415948837000572e-01  2.1952555481751110e-01  2.1953470833897279e-01  2.1956259386289256e-01  2.1961064025830213e-01  2.1968842656499168e-01  2.1980421948299603e-01  2.1995881626362254e-01  1.2809009396156645e-01  1.2143281278911780e-01  1.2819637500833508e-01  1.2126965807112969e-01  1.2793528014996483e-01  2.2970265165015735e-01  2.2968155163483411e-01  2.2963582733576207e-01  2.2959663146420162e-01  2.2958736536241819e-01  2.2962717647439596e-01  2.2972410176892830e-01  1.6875364784414898e-01  1.6892017655960870e-01  2.1094131671679547e-01  2.1092014118189481e-01  2.1086574118595647e-01  2.1081212197977800e-01  2.1078022064932392e-01  2.1079162755121339e-01  2.1087588994434989e-01  2.4043273465656834e-01  2.4043591154943192e-01  2.4044466302966824e-01  2.4046831144915209e-01  2.4051621141799445e-01  2.4059551787595759e-01  2.4070914833007720e-01  2.6361718173727905e-01  2.7363143574455218e-01  2.6363262878335930e-01  2.7364990040151188e-01  2.6366852288926335e-01  1.7992974492237454e-01  1.7990245691057660e-01  1.7984405385245689e-01  1.7978931846528132e-01  1.7976347989511324e-01  1.7979277829408172e-01  1.7992353984626336e-01  1.5486222854281087e