<?xml version="1.0"?>
<VTKFile type="UnstructuredGrid"  version="0.1"  >
<UnstructuredGrid>
<Piece  NumberOfPoints="1000" NumberOfCells="4306">
<Points>
<DataArray  type="Float64"  NumberOfComponents="3"  format="ascii">8.541292689025434 2.261514646558931 3.791633499664518  8.494240142119635 2.332776855592195 3.853210017357002  8.422264715435894 2.228919683852154 3.762151294873227  8.424978922168988 2.185181863795361 3.808572601952006  8.494558807453956 2.293063299167752 3.905926732708491  8.541909487779085 2.217891202471353 3.839078090932127  8.427590411255382 2.141458570792396 3.854948016850549  8.494764008654863 2.253375165567223 3.958611051593284  8.542389099818116 2.174295652378665 3.886494867657374  8.430153334271393 2.097745578897224 3.901279401239226  8.494924298153089 2.213696567986263 4.011249096731681  8.542812431941012 2.130711359144366 3.93387468353731  8.432705256438721 2.054036721170097 3.947561550545328  8.495083018329472 2.17401677239318 4.063829161477321  8.543232290412091 2.08712942117781 3.98120571318026  8.435286010426196 2.010334317827487 3.993785364955876  8.495282710165135 2.134335236770061 4.1163332153925  8.543703526977069 2.043551311699356 4.028472605442658  8.43795933958585 1.966656927568765 4.039932037412235  8.495589682952794 2.094650097700245 4.168749039395498  8.544310683802728 1.999981233964345 4.075662540748199  8.325713921899109 3.116648791980366 4.020909299379096  8.225244119475827 3.17808607726428 4.016075838819716  8.253072845502198 3.036974004990628 4.031584420921045  8.25619827902624 3.043706214550575 4.104081630754037  8.230688658143388 3.194420665390677 4.087773839821865  8.326852051142385 3.128067602166291 4.092779258750998  8.259423744179804 3.050398411894561 4.176502516507352  8.236209094508386 3.210691675213355 4.159419307635977  8.328107399953225 3.139441119382875 4.164571423480452  8.262690172569789 3.057032196618676 4.248855461561353  8.241751511092808 3.22690323405958 4.231009588573166  8.329415025601334 3.150750795043352 4.236299966065707  8.265966822301966 3.063596901598663 4.32115641213493  8.247290179982828 3.243046039308377 4.302562620594901  8.330731675263349 3.161981281174787 4.307980874065416  8.269225275311822 3.070087597493645 4.39342751660425  8.252812537246916 3.259124090204242 4.374111806303409  8.332013259636645 3.173121108148248 4.37963884658442  8.272412063845307 3.076518455827022 4.465711254244579  8.258312954479562 3.275169100182814 4.445704763617877  8.333177668796177 3.184198368309765 4.451313040269603  8.436517625261766 2.467474438410799 3.931537913400861  8.329794259674795 2.540608311269211 3.965027725457277  8.293811954873597 2.42939105983724 3.912961394696489  8.296734025984955 2.397271764637036 3.972764860677907  8.330805097811332 2.516158834121141 4.029664764426455  8.435381814428158 2.436831495826424 3.992146931819044  8.434159684672832 2.406212582290848 4.052707585744317  8.331785879727136 2.491690572955775 4.094224824847983  8.299617183800619 2.365154297999895 4.032482655312813  8.432904257615586 2.37559546783231 4.113214902323998  8.332746972293414 2.467200924991936 4.158718365129295  8.302483130858766 2.333028081261499 4.092141283939047  8.431647158314828 2.34496170130654 4.173666202031229  8.333706412168457 2.44269121374251 4.223150998007534  8.305341741018699 2.300891115805682 4.151738981649318  8.334670005496422 2.418158748845611 4.287516253940644  8.430420013615102 2.314309055746063 4.234043717027367  8.308199820810788 2.268751786670629 4.211259992054046  8.335655944674301 2.393623391486499 4.351786461747206  8.429282012785794 2.283658813365856 4.294327295920096  8.311054140145668 2.236643438958434 4.27067824825956  8.345068972231889 2.293467564613067 3.825890070105666  8.34691435040561 2.2535375911173 3.878009880743325  8.348670896341568 2.213622374284684 3.930061751148589  8.350386699754898 2.173710014713654 3.982059993481351  8.352089497519319 2.133799489138858 4.033998540935075  8.35380878928566 2.093904361177914 4.085861153251615  8.355607215663296 2.054058635159101 4.137616966747413  8.134762720406565 3.061471713269 4.036785809407766  8.143266184248331 3.06941096103151 4.109940610960142  8.151828367475634 3.077308214108008 4.183013653119232  8.16040323900898 3.085147554425864 4.256019226349704  8.168975136852429 3.092924650144127 4.328973068298931  8.177535045290547 3.100636110718977 4.401895271539147  8.186076616135542 3.108311360403864 4.474824637464458  8.502551233860208 3.377192284337621 3.93141123628188  8.387320935264309 3.315195497764793 3.968954116750488  8.497210317520977 3.282283706248716 3.982984949383659  8.495878371106405 3.308348134281785 4.050961899974285  8.38670705520893 3.34438533080741 4.035812947749338  8.50126032021991 3.414561028988412 3.993209218106649  8.494681886467005 3.334299302845963 4.118821847869685  8.386242166955137 3.373461256009351 4.1026269652521  8.500123297232092 3.451746236636643 4.054942843996887  8.493557518120298 3.360155101977457 4.186627684931157  8.385832145057007 3.402457446380497 4.169409382821133  8.499062718903756 3.488825732958579 4.11664486434421  8.492434718539267 3.385927365243758 4.254407215956594  8.385425132020933 3.431388378263818 4.2361827564402  8.498015572845246 3.525843510302845 4.178337675092961  8.491246570419623 3.411625002341058 4.322176153459916  8.384971331423962 3.460273001729864 4.302979009828108  8.496921733013007 3.562826581986043 4.240026927229327  8.489959111205177 3.437245891121245 4.389950740469684  8.384357921673436 3.489136250864811 4.369839425233327  8.495699253718088 3.599798046579254 4.301696427191415  8.862742704881097 2.690054558461799 4.034107164277201  8.796544489451238 2.76799717932442 4.051959378778297  8.771994589301233 2.640799750408463 4.02262238812449  8.770489260915353 2.618835758228375 4.089366365055411  8.793022565456438 2.757155702251908 4.122297849855724  8.864509184068584 2.669835816254001 4.101610494335983  8.768933136062458 2.596974155292689 4.156077882265247  8.789488979257582 2.746394602780817 4.192554120412728  8.866252706867167 2.649734378256363 4.169080306602816  8.767354592952683 2.575150245388748 4.222756449702505  8.785962596535102 2.735650146463779 4.262739745987533  8.867992078237563 2.629673475380188 4.236517853035285  8.765782250919964 2.553307393728542 4.289388161132558  8.782451649819567 2.72488481190111 4.332868114918511  8.869734492482417 2.609600358511758 4.30391564678766  8.764239264576968 2.53139490067865 4.355961499543301  8.778952090139152 2.714053657616375 4.402939456145457  8.871490232628208 2.58945519494929 4.371261225424148  8.762743194791444 2.509360842625611 4.422473797545072  8.775471259783606 2.703091473786774 4.47294589226478  8.873255795007427 2.56916603476007 4.438534173612901  8.387546725086748 3.402371317050431 3.915305791917504  8.389051860322356 3.441496969740765 3.976111243444464  8.390664577872418 3.480443214344273 4.036887046682157  8.392326090552372 3.519298394658314 4.097649424514841  8.393995522261976 3.558108792703699 4.15841410239374  8.395632419772014 3.596908136605704 4.219196068390936  8.397190473912865 3.635728738281788 4.280022058256688  8.442360390786776 2.555870449162553 3.97089843390397  8.440693600802174 2.532023925736064 4.035616141411911  8.438962886586609 2.508196031055999 4.100260333054247  8.437211176592809 2.484363849889185 4.164848526490283  8.435463199731903 2.460511356405624 4.229380668335985  8.433740037085425 2.4366270059467 4.293846043856929  8.432073803413216 2.4127098052953 4.358231477102085  8.994165394544964 3.323734678912614 3.977723939903347  8.872646067390585 3.279122480104538 3.99581341094685  8.990427223869519 3.192860859896217 4.031499680485336  8.871380267280562 3.305795361482294 4.062983184112293  8.994454267453927 3.353867272433668 4.04314149033971  8.992289512074201 3.213051461251274 4.101154501737946  8.870225405103758 3.332359361240268 4.129924558064336  8.994825562452053 3.383866879397264 4.108315277989906  8.994183426202293 3.233190466056591 4.170577032774716  8.869126753753557 3.358813768249671 4.196726305761384  8.9952269766355 3.413743035862753 4.173344134930726  8.996090314952152 3.253255396903956 4.239864556233325  8.868040690760058 3.385164617877096 4.263437398410536  8.995632624533471 3.443509463730231 4.238277776942152  8.998004934222136 3.273229252043518 4.309051135439274  8.86693436863041 3.411411523749977 4.330074198175232  8.194046781479052 2.490549397163909 3.947302720910075  8.198637404913169 2.461984789257691 4.010399073165611  8.203228282271921 2.433393056906554 4.073396650613124  8.207808820477938 2.404774416562749 4.136320301229363  8.212380665296395 2.376138780924061 4.199184300765986  8.216926492232371 2.347492623076246 4.261985445514825  8.221430242723775 2.318864998131019 4.324700167096331  8.657524951409266 2.701294191828273 4.031695020255849  8.6517012771961 2.686090078709307 4.100460502490679  8.645846799793638 2.670946161184078 4.169151634729563  8.639980849818931 2.655813176076557 4.237779027564001  8.634123147006486 2.640660717495731 4.306351799676832  8.62829279666594 2.62544734036836 4.374864092759806  8.62251085378554 2.610133244143109 4.443315241866014  8.187927092078722 2.93706002117474 4.041743160548916  8.194317334686652 2.937419885407257 4.114499962444809  8.200781536586799 2.937718054540313 4.187190612676019  8.207275166436332 2.93796423388198 4.259814107444702  8.213771210904941 2.938151984513675 4.332381756721816  8.22024556559766 2.938278392410214 4.404908529089716  8.226664667963059 2.938364186775867 4.477421575166833  8.749620169674962 3.592703971356865 3.746447403912979  8.661546608722553 3.506052150765874 3.836096524568473  8.777190293866568 3.520134365766359 3.829626219515633  8.773876517989935 3.569963140768279 3.878619560307067  8.659175024794557 3.555886283520222 3.885588457877893  8.74618871513027 3.64865941378235 3.785659115167547  8.770798893263558 3.619558276406967 3.927642958148678  8.657006962555334 3.605500166783687 3.935162457732002  8.743000524584456 3.70443923981576 3.825061918707674  8
[...]
<PointData  Scalars="f_14"> 
<DataArray  type="Float64"  Name="f_14"  format="ascii">3.1581816230592508e-01  3.2017296555215230e-01  3.2683340743005407e-01  3.2686767342952244e-01  3.2020789888186357e-01  3.1586825842890159e-01  3.2694477136168548e-01  3.2031841850870962e-01  3.1599574575669015e-01  3.2705627119513991e-01  3.2047173606025975e-01  3.1616025534723396e-01  3.2718547801993164e-01  3.2062915099357436e-01  3.1632754452816114e-01  3.2730954809212870e-01  3.2075107554872406e-01  3.1645947012464298e-01  3.2740424373585425e-01  3.2080053838153605e-01  3.1650543412757454e-01  3.3158723163235948e-01  3.3979117751858007e-01  3.3843999145081027e-01  3.3849456805400857e-01  3.3980295607623601e-01  3.3162815359613984e-01  3.3864255129420484e-01  3.3985848554737830e-01  3.3176572526615999e-01  3.3886412577487096e-01  3.3997825936668674e-01  3.3197692219461572e-01  3.3915518808317702e-01  3.4016765060844995e-01  3.3223282598564541e-01  3.3951879070007190e-01  3.4045027394102523e-01  3.3249479483389743e-01  3.3993974921901143e-01  3.4089246190885319e-01  3.3272737439008410e-01  3.2532558054515964e-01  3.3463686343264587e-01  3.3818978656813714e-01  3.3822462148385274e-01  3.3469034625007182e-01  3.2538272336755664e-01  3.2555700909444846e-01  3.3483745029957629e-01  3.3832622724027761e-01  3.2579683612666449e-01  3.3505149383415100e-01  3.3848541574632879e-01  3.2604852237231907e-01  3.3530281614476348e-01  3.3868567255400356e-01  3.3556219176701602e-01  3.2625086253597585e-01  3.3891281619609698e-01  3.3580132395328066e-01  3.2633767851329626e-01  3.3917649394924682e-01  3.3395146207908877e-01  3.3404170156030549e-01  3.3422960370231175e-01  3.3447535394596350e-01  3.3475132721969936e-01  3.3502310257603790e-01  3.3522613351444158e-01  3.4825719930922938e-01  3.4826349874160611e-01  3.4829715321954474e-01  3.4838362407716977e-01  3.4855456870405704e-01  3.4885436697346683e-01  3.4937580455378636e-01  3.1302240094305539e-01  3.2442963439685824e-01  3.1457300786001247e-01  3.1462514029678218e-01  3.2453331111977862e-01  3.1308241639034401e-01  3.1473791829117048e-01  3.2477733441015810e-01  3.1323999942713543e-01  3.1490149579668769e-01  3.2510300811661452e-01  3.1345613419391471e-01  3.1507588974332507e-01  3.2546156201680371e-01  3.1369564793674076e-01  3.1522100641717737e-01  3.2579514489667977e-01  3.1392201752248017e-01  3.1536303911461644e-01  3.2600161680297235e-01  3.1407796175814379e-01  2.8327287686667141e-01  2.8980598306519229e-01  2.9265164868707294e-01  2.9269075463534339e-01  2.8990070853977329e-01  2.8324924918836480e-01  2.9279946353877218e-01  2.9012138786467812e-01  2.8322669718108617e-01  2.9293263658792407e-01  2.9037545840570284e-01  2.8321686407667401e-01  2.9305017048422455e-01  2.9060303133225895e-01  2.8321101653676112e-01  2.9311888029726957e-01  2.9075190081191304e-01  2.8320932183694580e-01  2.9311592436332434e-01  2.9077572926210538e-01  2.8320852185157686e-01  3.2327274790658428e-01  3.2330997341980827e-01  3.2343420083614438e-01  3.2362734754093303e-01  3.2385852867013704e-01  3.2409618116753530e-01  3.2432115995666549e-01  3.2447533867108391e-01  3.2453597437035908e-01  3.2469810583245617e-01  3.2492115065556076e-01  3.2515523335967239e-01  3.2534635295091630e-01  3.2543878479120936e-01  2.6562656594716116e-01  2.7832571492652369e-01  2.6716813680289914e-01  2.7836285386770493e-01  2.6568298332035900e-01  2.6719232220232814e-01  2.7846300097334747e-01  2.6583869275097249e-01  2.6726094727510313e-01  2.7859550159842533e-01  2.6602499716859312e-01  2.6735078077161234e-01  2.7873006955052265e-01  2.6621015768891010e-01  2.6744604861602123e-01  2.7884386296137176e-01  3.4674563123857594e-01  3.4681180095175601e-01  3.4698079631171591e-01  3.4722219174085917e-01  3.4753325524415857e-01  3.4792163401811121e-01  3.4836061923599110e-01  3.0385301089895556e-01  3.0397330570210290e-01  3.0426520696367504e-01  3.0461638320572193e-01  3.0494084663792215e-01  3.0515714432166646e-01  3.0518666315054144e-01  3.4462588851199366e-01  3.4463540949041743e-01  3.4468324164716940e-01  3.4479022791841529e-01  3.4497494587207678e-01  3.4526906318980854e-01  3.4575311557964877e-01  2.8629289820549558e-01  2.9625293267245134e-01  2.8487615375787734e-01  2.8493838077447947e-01  2.9629351304144358e-01  2.8635876692518181e-01  2.8510057047175458e-01  2.9641924359715982e-01  2.8653222333848172e-01  2.8531321268970294e-01  2.9659928315045458e-01  2.8676123534741554e-01  2.8553288844902902e-01  2.9679695857456190e-01  2.8700337918142332e-01  2.8571767084156940e-01  2.9698067031133729e-01  2.8721791150806014e-01  2.8583003125347622e-01  2.9714707779160920e-01  2.8735791880308076e-01  3.5426541624982250e-01  3.5423684336622197e-01  3.5418571246422015e-01  3.5417884030933400e-01  3.5426851919559615e-01  3.5453293882122178e-01  3.5510164084723522e-01  3.0791001225369519e-01  3.1657947110475493e-01  3.0676098761591342e-01  3.0680475204932794e-01  3.1664850463980349e-01  3.0796703004466286e-01  3.0691498702047926e-01  3.1681616814883040e-01  3.0810758260337640e-01  3.0707331193636794e-01  3.1704964005747877e-01  3.0830867823813252e-01  3.0725236199374389e-01  3.1731590475845595e-01  3.0854184338558166e-01  3.0743251196569010e-01  3.1757327446471645e-01  3.0877289993162216e-01  3.0761092678497937e-01  3.1776607492210857e-01  3.0894557606019074e-01  3.4151527447907859e-01  3.4157762497117106e-01  3.4172911460573119e-01  3.4193901834039364e-01  3.4219743883050624e-01  3.4249640093334127e-01  3.4279186712927906e-01  3.3584112475524641e-01  3.3596744041959598e-01  3.3613040920425374e-01  3.3632566351665893e-01  3.3655615150908291e-01  3.5185079506793532e-01  3.4885241371372028e-01  3.4277947981681511e-01  3.4867103061287957e-01  3.4297981264545685e-01  3.5205220937127241e-01  3.4908827687219374e-01  3.4323750864645214e-01  3.5234458972105875e-01  3.4938942664551309e-01  3.5132648774319158e-01  3.5135461764718551e-01  3.5144088629783554e-01  3.5158698607958216e-01  3.5180058410407100e-01  3.5209431944946878e-01  3.5250159617036453e-01  2.9752084854821609e-01  2.9762509040320317e-01  2.9790493355872633e-01  2.9825668294919661e-01  2.9863205331285075e-01  2.9896803159980001e-01  2.9911548517138364e-01  3.1944162734089238e-01  3.1946748770791589e-01  3.1956282467590480e-01  3.1972269267321657e-01  3.1992811547613270e-01  3.2015925159631758e-01  3.2040226346012313e-01  2.9638897381660329e-01  3.0187043610219355e-01  3.0592666741923624e-01  3.0601410283708808e-01  3.0193039305494773e-01  2.9648911853173660e-01  3.0622973454104530e-01  3.0210272784556924e-01  2.9672742272242852e-01  3.0650338430527013e-01  3.0232541979590810e-01  2.9701396390621071e-01  3.0677018161249314e-01  3.0254581698080568e-01  2.9728851767594866e-01  3.0696342143691052e-01  3.0271489524722123e-01  2.9749494945989519e-01  3.0703059177548320e-01  3.0280001945567353e-01  2.9753934008798383e-01  3.4504245800496031e-01  3.3662166269451749e-01  3.4373316276791882e-01  3.4377651110455909e-01  3.3665063115354471e-01  3.4506416658047595e-01  3.4388625964235686e-01  3.3674174467066947e-01  3.4516211376082728e-01  3.4406515734316384e-01  3.3690295884318300e-01  3.4532989068338427e-01  3.4431301447416174e-01  3.3711044939807266e-01  3.4556502669498407e-01  3.4463668065501851e-01  3.3733819120580483e-01  3.4587110256131876e-01  3.4504402076089186e-01  3.3760549487148545e-01  3.4625594105896546e-01  3.5389211068177190e-01  3.5396090691583421e-01  3.5408879460550291e-01  3.5430259658849372e-01  3.5463666131961674e-01  3.5514169938391887e-01  2.9503383179757681e-01  3.0819055212155044e-01  2.9728388054088972e-01  2.9734938924535159e-01  3.0821979328817350e-01  2.9509796852031839e-01  2.9754103257925407e-01  3.0829927802945983e-01  2.9526553763098506e-01  2.9777414091490634e-01  3.0841025423722701e-01  2.9546934821310772e-01  2.9799757217678829e-01  3.0851963261356152e-01  2.9566386079070428e-01  2.9816275088246375e-01  3.0859804422349868e-01  2.9580852407029262e-01  2.9820808890913564e-01  3.0862271077823200e-01  2.9586162520245651e-01  3.1150924089125803e-01  3.1084560257150678e-01  3.2167220932818774e-01  3.2177324781005473e-01  3.1089936914738120e-01  3.1156033659048593e-01  3.2204370352712081e-01  3.1104683867800009e-01  3.1168757475158343e-01  3.2239801903343163e-01  3.1125164863095012e-01  3.1186845472419333e-01  3.2277646983802066e-01  3.1146579994482487e-01  3.1204803579530227e-01  3.2310757189204625e-01  3.1164049150633905e-01  3.1217880517878471e-01  3.2323347369444105e-01  3.1173615470130162e-01  3.1227155357842856e-01  3.5556446976211625e-01  3.5562291728690354e-01  3.5573984516579737e-01  3.5593901544988232e-01  3.5625597829036471e-01  3.5677490157786784e-01  3.0494019272546968e-01  3.0498406472960360e-01  3.0510861090331054e-01  3.0526719486569054e-01  3.0541901682586947e-01  3.0552424042589582e-01  3.0553774602794537e-01  3.5224306776348374e-01  3.5223176024609015e-01  3.5226886512570599e-01  3.5238826562064779e-01  3.5264067529427984e-01  3.5316230091190531e-01  3.2062607545799970e-01  3.2073351639236625e-01  3.2100129382622500e-01  3.2134552835321567e-01  3.2171398297393822e-01  3.2204699575392703e-01  3.2221254558805529e-01  3.1532731333715808e-01  3.1540415505191777e-01  3.1558895499952555e-01  3.1582297455612696e-01  3.1604949862345527e-01  3.1620571218449323e-01  3.1620121685956787e-01  3.6964025112526155e-01  3.6328872430771941e-01  3.7115387970952662e-01  3.7116519996098724e-01  3.6320088529193983e-01  3.6968405727544928e-01  3.7120741279471581e-01  3.6304190417116089e-01  3.6980155002520476e-01  3.7131161058833712e-01  3.6291517409054114e-01  3.6998421743579418e-01  3.7152265108069404e-01  3.6289314169615750e-01  3.7027032235916524e-01  3.7187914136203309e-01  3.6307031208645302e-01  3.7069755852451408e-01  3.7237393636176230e-01  3.6358116275495672e-01  3.7125945579106295e-01  3.3191035791245388e-01  3.2796537719381491e-01  3.2805540770272990e-01  2.7373478721920569e-01  2.7099453433406295e-01  2.8232059049398267e-01  2.8230830662296585e-01  2.7100759522081913e-01  2.7375191365863799e-01  2.8227298506678955e-01  2.7103713825690418e-01  2.7378853074012771e-01  2.8224443327750348e-01  3.2912568431619799e-01  3.2919941127332297e-01  3.2938365426949090e-01  3.2963206869190181e-01  3.2990302400944066e-01  3.3015092764037157e-01  3.3030032367643231e-01  3.0551710240496943e-01  3.0560189682872274e-01  3.0584439021886073e-01  3.0614419239285717e-01  3.0642605437380510e-01  3.0661822172578368e-01  3.0664428163635776e-01  3.2392810381938097e-01  3.2141125892024225e-01  3.2982183525968589e-01  3.2986384300943261e-01  3.2149471221757958e-01  3.2396910974297927e-01  3.2998057339230558e-01  3.2170629259101302e-01  3.2409241101026737e-01  3.3016178808651397e-01  3.2198946961520103e-01  3.2427365257276997e-01  3.3037622489739088e-01  3.2228925962617588e-01  3.2446494148724886e-01  3.3058444427531058e-01  3.2254377051867827e-01  3.2461046248727826e-01  3.3077455536832401e-01  3.2264591377457347e-01  3.2469142354913588e-01  2.9004529128092094e-01  2.7918475050020625e-01  2.7926589910754407e-01  2.9008177669952923e-01  2.7945933843572590e-01  2.9016758521968955e-01  2.7968550285823168e-01  2.9028931280115633e-01  2.7990528119794711e-01  2.9040985347980236e-01  2.8008001595445509e-01  2.9049816712966736e-01  2.8015772894316154e-01  2.9055205905133391e-01  3.3397598417185154e-01  3.4160735350816679e-01  3.4165180497758757e-01  3.3406752065312995e-01  3.4177948445616851e-01  3.3429205741747892e-01  3.4198089039134061e-01  3.3459653381694043e-01  3.4225456944169991e-01  3.3494911283322809e-01  3.4261051966258643e-01  3.3531079289622423e-01  3.4305425761655006e-01  3.3556693276299010e-01  3.7864828651851212e-01  3.7870126542788862e-01  3.7885434811470714e-01  3.7915084699916390e-01  3.7967524773131173e-01  3.1506088254299641e-01  3.0968289017375061e-01  3.0979231104094895e-01  3.1514726288139505e-01  3.1007657667995608e-01  3.1539162691669914e-01  3.1043328883906318e-01  3.1570638034772841e-01  3.1078082269362117e-01  3.1601796727868231e-01  3.1103472747518329e-01  3.1625091025015556e-01  3.1108619822352179e-01  3.1630116119338392e-01  2.7169622375759389e-01  2.7173162941404166e-01  2.7182695371297311e-01  2.7195147041512580e-01  2.7207901455273742e-01  2.7218996411527946e-01  2.7418082443226466e-01  2.8398995685459016e-01  2.8400793343871356e-01  2.7419285595264287e-01  2.7422429793540942e-01  2.8405026516178478e-01  2.7383726199273090e-01  2.7426956830049526e-01  2.8410709046664739e-01  2.7389250285201100e-01  2.7431645614791950e-01  2.8416628549946393e-01  2.7395142244099951e-01  2.7435795922501960e-01  2.8422069328387028e-01  2.7400946273443494e-01  2.8427183429959707e-01  3.1558432615545762e-01  3.1566837474539333e-01  3.1589925170800465e-01  3.1619107647502526e-01  3.1647670727950733e-01  3.1668694732070601e-01  3.1672508201694782e-01  2.8563469527220792e-01  2.8563829419891124e-01  2.8564614619701462e-01  2.8566434662249562e-01  2.8222294185118929e-01  2.8568738166562435e-01  2.8221163303371666e-01  2.8571437987097598e-01  2.8222718723542134e-01  2.8575274274809831e-01  3.2828048750725541e-01  3.2858664232199331e-01  3.2894680547418098e-01  3.2932603600256466e-01  3.2963548637711754e-01  3.4263212600078563e-01  3.4269494810103140e-01  3.4285486639148527e-01  3.4308133156003412e-01  3.4335929776686236e-01  3.4367653474864490e-01  3.4399867032061721e-01  2.9409171425978559e-01  2.9411217831677222e-01  2.9419455836019148e-01  2.9429825961031597e-01  2.9439458295067406e-01  2.9445879180431644e-01  2.9446868126891124e-01  3.5225744896013267e-01  3.5222458504696491e-01  3.5220074946886099e-01  3.5216760958635135e-01  3.5217583097795530e-01  3.5226819869100906e-01  3.5250614448524087e-01  3.5302178058593930e-01  3.6206264203842414e-01  3.6238497101164568e-01  3.6293524248799641e-01  3.1467108472823369e-01  3.1475955924015003e-01  3.1498880138128088e-01  3.1528727702872245e-01  3.1558685473419801e-01  3.1581434038690404e-01  3.1589206269572184e-01  2.8901673677340189e-01  2.8907724589142364e-01  2.8920754996430487e-01  2.8937737171450545e-01  2.8954996586626280e-01  2.8969518612684336e-01  2.8979841111457338e-01  3.0469834725273426e-01  3.0475004186256160e-01  3.0489455469302840e-01  3.0507149094347197e-01  3.0523261194638485e-01  3.0532977382090543e-01  3.0531938144108856e-01  3.5067879866177654e-01  3.5068752041446077e-01  3.5075760577965226e-01  3.5089245751861164e-01  3.5112347491957174e-01  3.5149980664758312e-01  3.5205674049078922e-01  2.7363143574455218e-01  2.7527593355159496e-01  2.8501423038333568e-01  2.8508347804197637e-01  2.7532162361165463e-01  2.7364990040151188e-01  2.8526221246887373e-01  2.7541701528243423e-01  2.7370385123510865e-01  2.8547644325317434e-01  2.7553527711209036e-01  2.7377495471108149e-01  2.8567447165217080e-01  2.7565183328160725e-01  2.7384745581710984e-01  2.8581387133828934e-01  2.7574896128068027e-01  2.7390884279814826e-01  2.8585698971806028e-01  2.7581831684186947e-01  2.7395846404552099e-01  2.6617728397104229e-01  2.6988211856255390e-01  2.7776892278871296e-01  2.7779481919056853e-01  2.6985934944348877e-01  2.6613195549446533e-01  2.7786452164369024e-01  2.6589959632680082e-01  2.6974071431427693e-01  2.7794826423199237e-01  2.7802683940540890e-01  2.6969941094820693e-01  2.6580702719040028e-01  2.7808528245380210e-01  2.6968613209473374e-01  2.6576986676403513e-01  2.7811046988690330e-01  2.6971769193673750e-01  2.6582938701930353e-01  2.6753368121343613e-01  2.8526087171755005e-01  2.8532649148439343e-01  2.8545792200697484e-01  2.8560862453443853e-01  2.8575063389336580e-01  2.8585955550883979e-01  2.8591758866964234e-01  3.4559221010909807e-01  3.5523903518584976e-01  3.5514682219471977e-01  3.4567401783762713e-01  3.5500292875743689e-01  3.4590713343012286e-01  3.5489370370197759e-01  3.4623977571739667e-01  3.5487194453289633e-01  3.4667076214615156e-01  3.5500394828100901e-01  3.4721938802313818e-01  3.5553293829402016e-01  3.4782681482986377e-01  3.5295456247132256e-01  3.6094358930779308e-01  3.6083658912271716e-01  3.5302578908253202e-01  3.6059874869707498e-01  3.5319430929268580e-01  3.6037951265810964e-01  3.5343556672991355e-01  3.6025397672661480e-01  3.5377209115209907e-01  3.6032719015701370e-01  3.5424236168723766e-01  3.6087947025931111e-01  3.5496154434061228e-01  2.6096350005194524e-01  2.5777809166334359e-01  2.5783755606630548e-01  2.6103540818522775e-01  2.6706265208890767e-01  2.7863019818080792e-01  2.7868734554972013e-01  2.6710217043075002e-01  2.7882783716056020e-01  2.6720215202705649e-01  2.7901109742795738e-01  2.7540783777824218e-01  2.7540320306575183e-01  2.7539933566386576e-01  2.7541304246612580e-01  2.7543606975892609e-01  2.7547790514112708e-01  3.5034049171436021e-01  3.5036357421097430e-01  3.5041688103163432e-01  3.5052068892083044e-01  3.5068348760495699e-01  3.5091995036876006e-01  3.5126975376973013e-01  2.9783466115974777e-01  2.9790385357665577e-01  2.9808365810408621e-01  2.9830468173381786e-01  2.9852716733792745e-01  2.9870860660190157e-01  2.9878203887765520e-01  2.9675950871436174e-01  2.9683407566297176e-01  2.9706025540208181e-01  2.9734009066789491e-01  2.9760279653841848e-01  2.9777952979093669e-01  2.9781094862491880e-01  3.6021345415689576e-01  3.6017514416171803e-01  3.6010977859634291e-01  3.6008602134251722e-01  3.6016157233757895e-01  3.6040263824401303e-01  3.6091937899013687e-01  3.2465948652087678e-01  3.2884116551850046e-01  3.3487926993087375e-01  3.3493342677443488e-01  3.2889375353767492e-01  3.2471272083046171e-01  3.3508104350408041e-01  3.2904508736503973e-01  3.2486246783627282e-01  3.3529959073015814e-01  3.2927177582221573e-01  3.2507783989008598e-01  3.3557356162665403e-01  3.2953803736173787e-01  3.2531463412678302e-01  3.3588462596732932e-01  3.2980132293450226e-01  3.2552322739323963e-01  3.3618773840202865e-01  3.3001671760338996e-01  3.2565129424494982e-01  2.9003311670127951e-01  3.0096697017980006e-01  2.9440317489414669e-01  2.9446994240393420e-01  3.0099536547865952e-01  2.9009997241460544e-01  2.9464677305334303e-01  3.0108833516568029e-01  2.9027657924148464e-01  2.9487543580944248e-01  3.0122453825964302e-01  2.9050179075269084e-01  2.9511249854218630e-01  3.0137196110899578e-01  2.9073271694242825e-01  2.9531911968983515e-01  3.0149637807212920e-01  2.9092772563899866e-01  2.9545300990204870e-01  3.0158685862513174e-01  2.9102486524923915e-01  3.3567838251249860e-01  3.3572943915460940e-01  3.3588485374632415e-01  3.3612216270779977e-01  3.3641644497475848e-01  3.3673602198721903e-01  3.3708421908088460e-01  2.8132972431195574e-01  2.9270440665544056e-01  2.9278699401637787e-01  2.8141262077498019e-01  2.9299060082587219e-01  2.8162369795576125e-01  2.9324145325349826e-01  2.8186385644956946e-01  2.9347138328698147e-01  2.8208562581623814e-01  2.9362335855529437e-01  2.8224806923787316e-01  2.9366191390927371e-01  2.8231166801170554e-01  2.7341690704112798e-01  2.7346464505835771e-01  2.7358319180487350e-01  3.0018570421520907e-01  3.0028570588893838e-01  3.0053083545805215e-01  3.0082881746855961e-01  3.0110567361734425e-01  3.0129309494291762e-01  3.0132291105441172e-01  3.0364995358205560e-01  3.0373714658358553e-01  3.0395121355700749e-01  3.0422243006525790e-01  3.0447937789915147e-01  3.0465585668772260e-01  3.0470162228945002e-01  2.8314622616652152e-01  2.8323332247645860e-01  2.8343027335443566e-01  2.8367097039824879e-01  2.8390867126087532e-01  2.8409431580544758e-01  2.8417016064869288e-01  3.2987309710872109e-01  3.2995416517857151e-01  3.3015252844316156e-01  3.3043496669275152e-01  3.3076765461492558e-01  3.3111908510871962e-01  3.3145238318209103e-01  2.7373841853390468e-01  2.7919947802849748e-01  2.7390111427864722e-01  2.7936158689507651e-01  2.7404318008708339e-01  2.7948348642177123e-01  2.7414417110326278e-01  2.7547219241657223e-01  2.7548668460818554e-01  2.7549818820947652e-01  2.7551838550036745e-01  2.7554416741358029e-01  2.7557281431503183e-01  2.7560287553212209e-01  3.2792976809474667e-01  3.2801467738999907e