<?xml version="1.0"?>
<VTKFile type="UnstructuredGrid"  version="0.1"  >
<UnstructuredGrid>
<Piece  NumberOfPoints="1043" NumberOfCells="4431">
<Points>
<DataArray  type="Float64"  NumberOfComponents="3"  format="ascii">10.89120664377067 4.113844853993423 0.9923997686974888  10.83845635050178 4.008594166425236 0.9226943936388814  10.77217775176884 4.138345705857528 1.018016856440448  10.76454197213542 4.189073856773939 0.9584616360840722  10.83303960429854 4.049856156087908 0.8552060096616328  10.88265015856132 4.162002603761521 0.9285440981659938  10.75728687263333 4.239697259625288 0.8992439783850347  10.82796489394984 4.091110124504421 0.7880594416845789  10.87451462896663 4.210035839606575 0.8650987932544891  10.75031672766627 4.290121856844523 0.8403215102117338  10.82316189180318 4.132228712982715 0.7212736971349542  10.86667326837487 4.257844462271557 0.8020074874004868  10.7435116626241 4.340290995770124 0.7817006090095578  10.81845662736617 4.173158909723794 0.6548114739225905  10.85897885375239 4.305326735838661 0.7392715409271126  10.73667892496839 4.390190692406029 0.723426970722528  10.81376986975677 4.213961249338126 0.5887133585205394  10.85130076874424 4.352547234629028 0.6769220289782582  10.72941745948475 4.439670574299743 0.6654833615019531  10.80878383757522 4.254413224076732 0.5230271564568912  10.84330174393554 4.399315306573809 0.6149813071581555  10.71151990722335 4.043168749830587 0.9568038549299135  10.70485065318515 4.087477987637863 0.8935187551706726  10.69856243607851 4.131789383440235 0.830539691038461  10.69249085665298 4.175983498573603 0.767869501217339  10.68652832565394 4.22007898589764 0.7054765933464763  10.68049746354168 4.264032223140249 0.6433484553912823  10.67404998811983 4.307649294158229 0.5813909103865424  10.84916142554143 4.422053292325817 1.402302267709014  10.75447552904147 4.396100788972966 1.373131182817375  10.79872559919848 4.441298505133911 1.491013114851897  10.7894549427823 4.513589294552555 1.469669276688572  10.7439161592801 4.465369403680489 1.342800515687846  10.83979349678078 4.494622045867589 1.375745657231893  10.83084428228455 4.566662670599815 1.349390544683882  10.7338542523298 4.534195308973715 1.31269414520654  10.78056066689236 4.585255019718652 1.448550231672677  10.82216070114378 4.63810770041579 1.323177686052635  10.72409688457415 4.60252986420167 1.282725547618957  10.77190692074237 4.656373846416198 1.427571961179853  10.81361830126413 4.708959023449986 1.296987612430951  10.71450895152331 4.670348072871075 1.252800600829284  10.76341063273724 4.726935440462664 1.406613093010523  10.80500849755812 4.779186350863694 1.270800392621534  10.70482010787026 4.737612858432707 1.222906604294286  10.75482200784246 4.796916987582335 1.38561025956432  10.79587943177943 4.848743945994398 1.24467920315663  10.694688007029 4.804301513215048 1.193152904106514  10.74578703424209 4.866215293373743 1.364580607743804  11.47791584296261 4.003118700952301 0.8740228665872284  11.3722953398243 3.978465775270532 0.8699036629768907  11.37904136788859 4.10683860381133 0.9334117247911181  11.37528628875238 4.1526720132861 0.8511586933871362  11.36953123108349 4.011491726594715 0.7837764445868729  11.47260903825902 4.037897842418194 0.7845558416407734  11.46754606756564 4.071995802329653 0.6960328619634885  11.36708257804611 4.044201341101598 0.6984494249086883  11.37174001515175 4.197874731306763 0.7700998364433718  11.4628375154502 4.105473724357366 0.6086859963547535  11.36509354808274 4.076569994247358 0.6140126828547827  11.36854393281642 4.242507034008684 0.6900559006578212  11.45859200985625 4.138690408075821 0.5225211164339574  11.36357280856607 4.10878997325571 0.5305882183890522  11.36574338920296 4.286447716274522 0.6108390209834644  11.36254128186764 4.140948430538304 0.4481108490533293  11.45465764620497 4.171647837808933 0.4374537392430664  11.36343355645199 4.329796211915153 0.5324200805450588  11.36221968321029 4.172896939013537 0.3665379490851193  11.45170814456725 4.204446461136603 0.3533284276933442  11.36174406169745 4.372577176800116 0.4551297104024916  11.1739757583279 4.086802749370673 0.9249134099423838  11.05667738104307 4.058779302425082 0.923279602259885  11.05364143595518 4.173479822643415 1.01310531172084  11.04413388008827 4.226427580768625 0.9478924742150583  11.04822122569639 4.101530002990765 0.8512347724112865  11.16634063633356 4.131224115309663 0.8498921153366548  11.0351199501697 4.279049642606948 0.8832472981298574  11.04026160885514 4.144142461585882 0.7797091384021069  11.1591503828668 4.175378608405638 0.7755265095447773  11.02652093822623 4.331180811166938 0.8190931040913649  11.03258871771954 4.186447410883351 0.7086803100913401  11.15223311926288 4.219102845119864 0.7017749618710556  11.01807722308651 4.382829123241505 0.7553414493087025  11.02498924749939 4.228381641714325 0.6381342031761941  11.14543508448536 4.262375638668021 0.628586884482994  11.00969515330966 4.433998866334234 0.6919968842291558  11.01742817560256 4.269966029996302 0.5680832384103125  11.13873585867922 4.305150927533568 0.5560048097265864  11.00111550818995 4.484745315185254 0.6291329230852437  11.00979786067929 4.311194766490378 0.4985646163938792  11.13208753746154 4.347487935066356 0.4841472698035937  11.28244408013254 4.072668651570045 0.9121103533006284  11.28005277300833 4.113268819575355 0.8310435269247942  11.27785796018345 4.153501268760531 0.7508962357239995  11.27605948433504 4.19334959358532 0.6715336030618015  11.27460014291914 4.232791918291049 0.5929484200368806  11.27356709571348 4.271832234587762 0.5150849193808094  11.2728129842821 4.310514011722198 0.438078819065827  11.27721906570756 4.184638783808762 0.9820824976447833  11.17033155184356 4.189892376151532 1.008577236115099  11.15775682280691 4.244570968988793 0.9407154114983027  11.27101772882739 4.237592122607333 0.9078420797191689  11.14594921821055 4.298715050024126 0.8737157190667207  11.26521741559537 4.289996097780232 0.8345800516839543  11.13445591108228 4.352223478904199 0.8072566422099561  11.25984941644975 4.341687075594322 0.7620040856351173  11.2547268331773 4.392625665186967 0.6899288894723863  11.12305067812137 4.405049370779831 0.7413464193934655  11.2497472200575 4.442719884813129 0.6183508178239663  11.11160410596701 4.457201666467034 0.6758393515782649  11.24495113212394 4.492335028651569 0.5474140401419217  11.10015790007011 4.508770740955078 0.6110375804977806  10.73254841932159 4.203526442396145 1.097004067805446  10.57713041732082 4.203586235022156 1.123850035479796  10.69279138501317 4.275925435914411 1.183273728647052  10.68174135928759 4.337147131989481 1.138273467676821  10.56630673860981 4.26067138454108 1.075565086433737  10.72239847099598 4.259947159881982 1.044719670895101  10.67118523305495 4.398139192094488 1.09355352040499  10.55591556404261 4.317626947904211 1.027534400545151  10.71271299855997 4.316184566024127 0.9927345834675934  10.66094661499174 4.458807336396791 1.049033980314529  10.54577715345657 4.37438530889809 0.9796934195681296  10.70333943246306 4.37216355463818 0.9410158263852878  10.6508387442194 4.519100817505812 1.004678308283305  10.53574146191599 4.430926633926262 0.9320137825115704  10.69411674695456 4.427830170987884 0.8895421747512195  10.64065103564234 4.579027534297078 0.960520216687633  10.52563065339685 4.487216660249923 0.8844881880848765  10.68486330993299 4.483198306165804 0.8383291788630945  10.6300383533633 4.638532337432886 0.9165672846349172  10.51515298806631 4.543126518358564 0.8370977105867931  10.67519628863051 4.538120363994598 0.7873801961968921  10.65899059736529 4.133889350968746 1.037301634745002  10.65029031442195 4.186590446422795 0.9819185385600229  10.64202749920212 4.23914216138953 0.9269156823399169  10.63402060507073 4.291521541710414 0.8721721304237892  10.62614119656561 4.343722761159435 0.8176631016363625  10.6181948201267 4.395701927513326 0.7633823182640216  10.60986300277803 4.44729280978727 0.7092459879010546  10.97578828881896 4.106923400313238 0.9720431130934467  10.96540465201224 4.155665861767723 0.9064421046365325  10.95552626594967 4.20419585781544 0.8413435245726423  10.94594102488847 4.252415407083216 0.7766524152974085  10.93646624528913 4.300257550438884 0.712343352075466  10.92699154073378 4.347755051918853 0.6484706103053173  10.91728026736489 4.394746814027331 0.5851594360832126  10.95217942696491 4.192301450304303 1.040275082292558  10.94145392078651 4.24590878460438 0.9789687063563099  10.93129251939884 4.29927412503986 0.9181873121380515  10.92146405884464 4.352265556293867 0.8577925501090431  10.91180059434234 4.404814543289796 0.7977773821623484  10.90213239896597 4.456933743768851 0.7382050192604359  10.89210054843872 4.508499359487459 0.6791712079704147  11.473496490558 4.581684720815278 2.315043272271982  11.35554628614476 4.58654788798983 2.215560398399691  11.36555238540025 4.56791765630912 2.33217772882838  11.35615872661984 4.649431968757528 2.348354299812817  11.3430596503358 4.669471787712348 2.225732732262429  11.46659868728702 4.667314800053976 2.332348832621216  11.34691948495627 4.729939128095088 2.364091208773528  11.33083581688136 4.751305043735932 2.23557969587024  11.45969962149561 4.751811230147148 2.349093211593317  11.33776379564969 4.809462576476921 2.379664246669696  11.31875049369038 4.832136866080386 2.245441190285718  11.45283223136449 4.835189185827645 2.365554459861302  11.32872429589053 4.888117015210193 2.395325543788882  11.30667575449059 4.912058001792687 2.255390744841099  11.4460504455599 4.917586214570012 2.382058262061889  11.31978315721761 4.965953118223792 2.411194268615275  11.29456686837016 4.991074653230447 2.265561890106608  11.43934910761499 4.999089094091869 2.398831054770207  11.31093164595502 5.042998526396492 2.427361182154339  11.28226409007896 5.069107027091889 2.275981777157865  11.432779315765 5.079653750359737 2.416087783771276  11.583127595826 4.564379653785263 2.423936944602224  11.47287405819688 4.552298927294934 2.43
[...]
<PointData  Scalars="f_14"> 
<DataArray  type="Float64"  Name="f_14"  format="ascii">6.0146530844046378e-02  6.4758346373039830e-02  6.9917673529547100e-02  6.9813479922551297e-02  6.4664166752785329e-02  6.0106916198103204e-02  6.9539011923713132e-02  6.4402792067961914e-02  5.9932633603713550e-02  6.9145101063234279e-02  6.4013852814691491e-02  5.9631567936376778e-02  6.8650765309508144e-02  6.3516361780059649e-02  5.9208857073124246e-02  6.8084724877252173e-02  6.2910079796161714e-02  5.8663866387840706e-02  6.7537813398889895e-02  6.2223784063336618e-02  5.7966337822370907e-02  7.5528152936303772e-02  7.5448478489114790e-02  7.5235650604735707e-02  7.4914651511647237e-02  7.4514870674624312e-02  7.4071096502093689e-02  7.3623283425367836e-02  6.2008625031641430e-02  7.0234610576308171e-02  6.6095181063695094e-02  6.6009645991341487e-02  7.0139480099710397e-02  6.1899460699050543e-02  6.1629551229059894e-02  6.9900826916756156e-02  6.5758696951059376e-02  6.1228608745913127e-02  6.9546022831018114e-02  6.5378985000279707e-02  6.0723809447326346e-02  6.9097397597256333e-02  6.4905868657101157e-02  6.0142157515798142e-02  6.8586225665475134e-02  6.4382714370200697e-02  5.9530247372347876e-02  6.8046729351652624e-02  6.3828257689465984e-02  1.5412614060814430e-02  2.2867419886576430e-02  2.2163441461668428e-02  2.2101837418069283e-02  2.2790394431187893e-02  1.5446106225715763e-02  1.5432565194370484e-02  2.2556963422429105e-02  2.1855464447157708e-02  1.5284842254033705e-02  2.2155014195049078e-02  2.1443571389820712e-02  1.4946947277489787e-02  2.1561477269351065e-02  2.0864272597626351e-02  2.0736852881681863e-02  1.4368025688031083e-02  2.0108962163499021e-02  1.9641307048837882e-02  1.3403341836492137e-02  1.9115857865306521e-02  3.7616593624448566e-02  4.6938397758613006e-02  4.6902372217552953e-02  4.6836752227020155e-02  4.6898427012625664e-02  3.7569173171512607e-02  4.6629854898116448e-02  4.6766056443647168e-02  3.7398731862914252e-02  4.6281989220957699e-02  4.6504796241589465e-02  3.7080141868328045e-02  4.5783123566912970e-02  4.6096150948145738e-02  3.6605080308676839e-02  4.5114505728347049e-02  4.5508889118477239e-02  3.5964797944466942e-02  4.4282040879470852e-02  4.4737295930284610e-02  3.5165249341097576e-02  2.9204749315843107e-02  2.9060848982630096e-02  2.8664802499954685e-02  2.8096210902835473e-02  2.7365867529723000e-02  2.6479151969671835e-02  2.5525709652075183e-02  2.9559242630678932e-02  3.7953243870113826e-02  3.7987182306305600e-02  2.9434991390705101e-02  3.7996327272575847e-02  2.9139374128221592e-02  3.7875638385338382e-02  2.8680579121299208e-02  2.8059707661194404e-02  3.7594881948075858e-02  2.7284796296699828e-02  3.7119190043916568e-02  2.6399948866154658e-02  3.6358701772124934e-02  7.3216511394714440e-02  8.6947629754646191e-02  7.6322495367246154e-02  7.6253423200524167e-02  8.6897824958555706e-02  7.3164334497432440e-02  7.6056013351704310e-02  8.6737518416762915e-02  7.2995142437541363e-02  7.5755684309443891e-02  8.6501100090096317e-02  7.2714798011112899e-02  7.5365546834909980e-02  8.6201058711383949e-02  7.2339041846413030e-02  7.4901545710657422e-02  8.5856552381621445e-02  7.1884228117773369e-02  7.4420073792496336e-02  8.5512108318767738e-02  7.1375442138149753e-02  7.9837259827658449e-02  7.9773023294421749e-02  7.9562634971712745e-02  7.9252079791492985e-02  7.8864095470558407e-02  7.8427972600110099e-02  7.7992413440745298e-02  5.3392577580590732e-02  5.3386281407572816e-02  5.3316819317993223e-02  5.3129533298216958e-02  5.2803350759045797e-02  5.2305284337893179e-02  5.1604263805787753e-02  5.4947723028222255e-02  5.4911451085704638e-02  5.4774397114214050e-02  5.4509408936803450e-02  5.4105967646198051e-02  5.3549254995577798e-02  5.2834891546401752e-02  1.5146176712981808e-02  2.3585363624455860e-02  2.2758112904063474e-02  2.2705626147841516e-02  2.3581190973426206e-02  1.5106169166233847e-02  2.2551893141232685e-02  2.3544552790162123e-02  1.4978878280828870e-02  2.2282777198141965e-02  2.3392337822653660e-02  1.4745594417318495e-02  2.1870353823191038e-02  2.3083372100448019e-02  1.4383145074763419e-02  2.1296296773472723e-02  2.2578463635671606e-02  1.3874170603152007e-02  2.0562291962011706e-02  2.1860859051481305e-02  1.3215562174780572e-02  7.6291918662445661e-03  1.5208446002674706e-02  1.5171078005426126e-02  7.5955886271863639e-03  7.5095150412649320e-03  1.5050022496310518e-02  7.3510045547745722e-03  1.4822508052812607e-02  7.1021495841923094e-03  1.4464295711503525e-02  6.7149151631591764e-03  1.3950171040964703e-02  6.1076560603847332e-03  1.3239435570040066e-02  0.0000000000000000e+00  7.6159119456445466e-03  7.5993829639113405e-03  7.5936576012366596e-03  7.6205709886986934e-03  0.0000000000000000e+00  7.5549061649422926e-03  7.5803955533890596e-03  0.0000000000000000e+00  7.4279387720434884e-03  7.4573316263982737e-03  0.0000000000000000e+00  7.1773844170208764e-03  7.2133273303000203e-03  0.0000000000000000e+00  6.7604688448267168e-03  6.8273367443385368e-03  0.0000000000000000e+00  6.1965951165097169e-03  6.2665471923718180e-03  0.0000000000000000e+00  0.0000000000000000e+00  7.0655032792645680e-03  7.0922002747114670e-03  7.0702850721987192e-03  7.0599448599698734e-03  0.0000000000000000e+00  6.9915733877619173e-03  6.9947461990562164e-03  0.0000000000000000e+00  6.8282797881705588e-03  6.8303059496615743e-03  0.0000000000000000e+00  6.5617831236416957e-03  6.5431800328942464e-03  0.0000000000000000e+00  6.1415399992691836e-03  6.0845664053370795e-03  0.0000000000000000e+00  5.4681227628111985e-03  5.4107539692027631e-03  0.0000000000000000e+00  8.5476046077346837e-02  8.5380842320185044e-02  8.5140178593651833e-02  8.4816764447372628e-02  8.4432424598245792e-02  8.4026650604330511e-02  8.3691189258552359e-02  7.3772911083926865e-03  7.4040421794482761e-03  7.4365426340297427e-03  7.4687997909124977e-03  7.4432482893540333e-03  7.6187937211436947e-03  7.3535048582727986e-03  7.6810695919443351e-03  7.1229192161339295e-03  7.5622172231078711e-03  6.7047904080832716e-03  7.1892033675017659e-03  5.9758367640417700e-03  6.3853958005303029e-03  3.0472471894038781e-02  2.2419025623581383e-02  2.1944798845770795e-02  3.0027769502260979e-02  2.1331734577914638e-02  2.9435452142062109e-02  2.0573278955271234e-02  2.8689503007196832e-02  1.4640127804054777e-02  1.5261552924863853e-02  1.5246334921655353e-02  1.4584925653921473e-02  1.5182580791027965e-02  1.4431661898402079e-02  1.4999693301151472e-02  1.4169663807024091e-02  1.4647094047730456e-02  1.3783186130077502e-02  1.4125311442706992e-02  1.3243184835906391e-02  1.3424868210106595e-02  1.2529625942855052e-02  3.0387275765619805e-02  3.0280356509927005e-02  3.0048411086100929e-02  2.9669970987354282e-02  2.9119984993042344e-02  2.8349761252251981e-02  4.0016905957148526e-02  4.8279261350647598e-02  4.8200692289051647e-02  3.9986871567013853e-02  4.7977139010643308e-02  3.9865983483749270e-02  4.7599097151597242e-02  3.9592906280181459e-02  4.7057567839002827e-02  3.9149482065614485e-02  4.6340911122226602e-02  3.8510443944978046e-02  4.5480473071544417e-02  3.7613189502751006e-02  0.0000000000000000e+00  0.0000000000000000e+00  0.0000000000000000e+00  0.0000000000000000e+00  0.0000000000000000e+00  0.0000000000000000e+00  0.0000000000000000e+00  2.2344366588346060e-02  2.2255736004019373e-02  2.1994312417529874e-02  2.1562655651939978e-02  2.0967519529897213e-02  2.0210754895489347e-02  1.9262722219356068e-02  2.9287894112487067e-02  2.8562433947477820e-02  9.0654102762232139e-02  9.7477877095785689e-02  9.9593118425585020e-02  9.7476964150942494e-02  9.0598625978385736e-02  9.9559290923559765e-02  9.7479495669245853e-02  9.0460936467755909e-02  0.0000000000000000e+00  7.6119310844932194e-03  7.5748697277407779e-03  0.0000000000000000e+00  7.4706253527272466e-03  0.0000000000000000e+00  7.2893413944084698e-03  0.0000000000000000e+00  7.0065242024296183e-03  0.0000000000000000e+00  6.5905884085568885e-03  0.0000000000000000e+00  5.9571104361220081e-03  0.0000000000000000e+00  1.5477565898017059e-02  2.2360072706025934e-02  2.3007945236966611e-02  2.2949510534787901e-02  2.2285474953690369e-02  1.5403282719203746e-02  2.2770363837818788e-02  2.2070409724195491e-02  1.5208647034416716e-02  2.2466357834817912e-02  2.1724500492497252e-02  1.4900699899234213e-02  2.2032274120988460e-02  2.1252318846305365e-02  1.4475893637779966e-02  2.1454063160229561e-02  2.0643690723239766e-02  1.3912178872161418e-02  2.0694359777362493e-02  1.9869131000549912e-02  1.3169835312904381e-02  1.2491466215674230e-02  1.4468593085025107e-02  1.4438101765812124e-02  1.2432982391690725e-02  1.4292023847983079e-02  1.2233433363148166e-02  1.4000008891902383e-02  1.1894644990049165e-02  1.3534550693015476e-02  1.1401438814187505e-02  1.2887941301753797e-02  1.0744797783414181e-02  1.2070936516434688e-02  9.9075212575151176e-03  5.5605551471702715e-02  5.5624620063534566e-02  5.5591261769964970e-02  5.5445161528682174e-02  5.5169345144256081e-02  5.4729236844356592e-02  5.4028166344580214e-02  0.0000000000000000e+00  0.0000000000000000e+00  0.0000000000000000e+00  0.0000000000000000e+00  0.0000000000000000e+00  0.0000000000000000e+00  0.0000000000000000e+00  0.0000000000000000e+00  0.0000000000000000e+00  0.0000000000000000e+00  0.0000000000000000e+00  8.1187635025579668e-03  8.0820759726065953e-03  0.0000000000000000e+00  7.9738950501845023e-03  0.0000000000000000e+00  7.7875584263860619e-03  0.0000000000000000e+00  7.5052465903119913e-03  0.0000000000000000e+00  7.0711304580251882e-03  0.0000000000000000e+00  6.3886413262304867e-03  0.0000000000000000e+00  2.2524596193933561e-02  2.2477918209190578e-02  2.2330802279493470e-02  2.2061511250519961e-02  2.1643839457113893e-02  2.1060882521363008e-02  2.0297349144253560e-02  0.0000000000000000e+00  0.0000000000000000e+00  0.0000000000000000e+00  0.0000000000000000e+00  0.0000000000000000e+00  0.0000000000000000e+00  0.0000000000000000e+00  0.0000000000000000e+00  0.0000000000000000e+00  0.0000000000000000e+00  0.0000000000000000e+00  0.0000000000000000e+00  0.0000000000000000e+00  0.0000000000000000e+00  1.4421227853880553e-02  1.4363696777711037e-02  1.4188380512244466e-02  1.3882015590371884e-02  1.3431697467070824e-02  1.2818939934225025e-02  1.2008013220987254e-02  0.0000000000000000e+00  0.0000000000000000e+00  0.0000000000000000e+00  0.0000000000000000e+00  0.0000000000000000e+00  0.0000000000000000e+00  0.0000000000000000e+00  2.9679600900652314e-02  3.0543857116952979e-02  3.7314281876243402e-02  3.7219464188257716e-02  3.0447683247130992e-02  2.9614184220855867e-02  3.6946475198758121e-02  3.0188108409906322e-02  2.9407478284681390e-02  3.6529935564221662e-02  2.9782189714094333e-02  2.9063596970466444e-02  3.5990638641430213e-02  2.9241632993418969e-02  2.8593777604659223e-02  3.5337874932702358e-02  2.8573814150633703e-02  2.7993334253706436e-02  3.4559138281643371e-02  2.7763811998235383e-02  2.7209557439456043e-02  0.0000000000000000e+00  0.0000000000000000e+00  0.0000000000000000e+00  0.0000000000000000e+00  0.0000000000000000e+00  0.0000000000000000e+00  0.0000000000000000e+00  1.4463240035500825e-02  1.6404047672927920e-02  1.6290878378734566e-02  1.4434737483371480e-02  1.4313496497965567e-02  1.5993093792014589e-02  1.4049105406888055e-02  1.5533025327488284e-02  1.3622816657993102e-02  1.4917820948481956e-02  1.2987440803653029e-02  1.4162695327386303e-02  1.2037038892718871e-02  1.3275480483968297e-02  0.0000000000000000e+00  0.0000000000000000e+00  0.0000000000000000e+00  0.0000000000000000e+00  0.0000000000000000e+00  0.0000000000000000e+00  0.0000000000000000e+00  3.1132004042206216e-02  3.1098546632698329e-02  3.0933455757320864e-02  3.0600231333896954e-02  3.0098610896628662e-02  2.9413266712210034e-02  2.8497811701517297e-02  0.0000000000000000e+00  0.0000000000000000e+00  0.0000000000000000e+00  0.0000000000000000e+00  0.0000000000000000e+00  0.0000000000000000e+00  0.0000000000000000e+00  0.0000000000000000e+00  7.3996678094299341e-03  7.3495107284526516e-03  0.0000000000000000e+00  0.0000000000000000e+00  7.2323526480085835e-03  0.0000000000000000e+00  7.0361125535089251e-03  0.0000000000000000e+00  6.7485211445167904e-03  0.0000000000000000e+00  6.3455088319730917e-03  0.0000000000000000e+00  5.7919294950263258e-03  3.7529413666997719e-02  4.6276752559036266e-02  3.6661663443287737e-02  4.5542920215204723e-02  4.0495457176313046e-02  4.4802447572801718e-02  4.4704926403384797e-02  4.0399627648150943e-02  4.4436715493918560e-02  4.0138636764529695e-02  4.4027890170444388e-02  3.9732994461776396e-02  4.3502596890601236e-02  3.9200432694348496e-02  4.2874903532410628e-02  3.8548512252491923e-02  4.2153345731054524e-02  3.7767336759159054e-02  8.5835480519317248e-02  8.5535932915465657e-02  8.5181272764149260e-02  0.0000000000000000e+00  0.0000000000000000e+00  0.0000000000000000e+00  0.0000000000000000e+00  0.0000000000000000e+00  0.0000000000000000e+00  0.0000000000000000e+00  3.1514857316531378e-02  3.1437748362930874e-02  3.1222891724263523e-02  3.0872302470955296e-02  3.0389703183280232e-02  2.9772737502247935e-02  2.8981184829497408e-02  0.0000000000000000e+00  0.0000000000000000e+00  7.3409406873615694e-03  7.3070019869364974e-03  0.0000000000000000e+00  0.0000000000000000e+00  7.2018718429865992e-03  0.0000000000000000e+00  0.0000000000000000e+00  7.0276352026797080e-03  0.0000000000000000e+00  0.0000000000000000e+00  6.7595348708806889e-03  0.0000000000000000e+00  0.0000000000000000e+00  6.3503442084693667e-03  0.0000000000000000e+00  0.0000000000000000e+00  5.6718818831031324e-03  0.0000000000000000e+00  0.0000000000000000e+00  5.7131138523039256e-02  5.7076020066016898e-02  5.6925929370124230e-02  5.6643661880571204e-02  5.6222956272432609e-02  5.5659156125711949e-02  5.4940968915075356e-02  3.7832946547125650e-02  3.7729993688096500e-02  3.7455793048948451e-02  3.7028504219895800e-02  3.6459832602662265e-02  3.5750435797678247e-02  3.4907948806110610e-02  1.5164412271534523e-02  2.3055507348519421e-02  1.5109644141755205e-02  2.2977107228233214e-02  1.4944337906307673e-02  2.2759352501447460e-02  1.4668257229264479e-02  1.4266884801946583e-02  1.3718939602152837e-02  1.2982107078547153e-02  5.4796476231280158e-02  5.7640230049014120e-02  5.7530966518092898e-02  5.4672742921359929e-02  5.7229190183869898e-02  5.4335416862436668e-02  5.6785509538888362e-02  5.3845374004997643e-02  5.6235416821643250e-02  5.3238308012710234e-02  5.5613217618497156e-02  5.2550874387735758e-02  5.4981731098241615e-02  5.1856264156496391e-02  3.7428742966242164e-02  4.5981063325701059e-02  4.5896235294101695e-02  3.7380299482446130e-02  4.5638208540252016e-02  3.7220899815255268e-02  4.5221491059769844e-02  3.6907841324773885e-02  4.4655814548723999e-02  3.6428943457111028e-02  4.3949014111458420e-02  3.5769493172781594e-02  4.3094295868170859e-02  3.4914868755008058e-02  2.9400230572014720e-02  2.9530939823687447e-02  2.9446325491849189e-02  2.9305430679284358e-02  2.9189847762989746e-02  2.9051335527482194e-02  2.8775616768732065e-02  2.8628513711335325e-02  2.8211852006907522e-02  2.8030216325341122e-02  2.7508880186215643e-02  2.7262964775876329e-02  2.6669266368206251e-02  2.6392221054592466e-02  7.4242506721420897e-03  8.0409308636878556e-03  7.9953301628002838e-03  7.4064303945322535e-03  7.8665093411037206e-03  7.3185149438848565e-03  7.6614420246980692e-03  7.1554448010197171e-03  7.3734519537163269e-03  6.9065774580706462e-03  6.9509716686191273e-03  6.5291031049916487e-03  6.2898417472109086e-03  5.9325337854668697e-03  6.3186948972319815e-02  6.3114629295013672e-02  6.2899157328057523e-02  6.2555139892050179e-02  6.2086610372269910e-02  6.1497471462308599e-02  6.0812307327187891e-02  6.1995037374767525e-02  6.1904855291142438e-02  6.1674096387991997e-02  6.1313375880084640e-02  6.0836667488032931e-02  6.0266627920836688e-02  5.9638106670976278e-02  7.0003569325819649e-03  6.9913431284797621e-03  7.0059354095991988e-03  6.9978215410794525e-03  6.9880137868715145e-03  6.9347276486554253e-03  6.8778762808770280e-03  6.7958400015770779e-03  6.6467982149377930e-03  6.5377193211243589e-03  6.2474017958308019e-03  6.1269389564700804e-03  5.5172739337517552e-03  5.4152942535190228e-03  1.9738370168294099e-02  2.1945537552762621e-02  1.9677970004414066e-02  2.1869894547482907e-02  1.9495557056858334e-02  2.1644800155443188e-02  1.9150921326906274e-02  2.1254813129756293e-02  1.8624194769958798e-02  2.0689997092793174e-02  1.7916583186308139e-02  1.9956711671443066e-02  1.7066112955954321e-02  1.9080341276223951e-02  2.2916948170438850e-02  3.0854824329068210e-02  2.4498961520216630e-02  2.4478256108177068e-02  3.0808025632160917e-02  2.2878305079527241e-02  2.4379598598449022e-02  3.0658135711036174e-02  2.2744839599461466e-02  2.4149179720404593e-02  3.0375718596227112e-02  2.2481967076832136e-02  2.3736143993910400e-02  2.9930787356568400e-02  2.2046806192717983e-02  2.3116003877521388e-02  2.9304547270824634e-02  2.1437627496179768e-02  2.2318810169635186e-02  2.8496367238505783e-02  2.0643672530544863e-02  7.4715446786454845e-03  7.6525492266615877e-03  7.6205266719811694e-03  7.4087420959671581e-03  7.5002669648228347e-03  7.2707525853001557e-03  7.3018378857203255e-03  7.0629205133133591e-03  7.0255957939208578e-03  6.7727549683670408e-03  6.6405759911368862e-03  6.3656022187083723e-03  6.0904962658019837e-03  5.7702308508519864e-03  1.4465499669158423e-02  1.5350531845999485e-02  2.2548410758652743e-02  2.2469922017907942e-02  1.5273111569281997e-02  1.4399624107728937e-02  2.2233593368174823e-02  1.5065098384038978e-02  1.4211713066617834e-02  2.1854539712882752e-02  1.4735916720399454e-02  1.3911660790878206e-02  2.1335246590324056e-02  1.4271715497993043e-02  1.3491002773880332e-02  2.0676352593410701e-02  1.3652200162382696e-02  1.2919698991509685e-02  1.9872813436561079e-02  1.2852607498107104e-02  1.2137203881725647e-02  1.5640272142941884e-02  1.5667802578431866e-02  1.5668185111030269e-02  1.5548079530707245e-02  1.5248171620668553e-02  1.4734214516876339e-02  1.4035592972374489e-02  4.0233015938030220e-02  4.8767646037265314e-02  4.8682054156405856e-02  4.0134265363652034e-02  3.9862520990208289e-02  4.8442855769317242e-02  3.9448925369935543e-02  4.8067358609301544e-02  3.8910304161399116e-02  4.7577509200657377e-02  3.8255034562861175e-02  4.6989258688578013e-02  3.7492192860020278e-02  4.6312015226461799e-02  0.0000000000000000e+00  0.0000000000000000e+00  0.0000000000000000e+00  0.0000000000000000e+00  0.0000000000000000e+00  0.0000000000000000e+00  0.0000000000000000e+00  4.6346543114216703e-02  4.9002359629482156e-02  4.8897345085169984e-02  4.6230935759846062e-02  4.5917133159253137e-02  4.8603367397743485e-02  4.5451424024782194e-02  4.8162757431878069e-02  4.4853540907126406e-02  4.7604888059279427e-02  4.4139869229928769e-02  4.6951663511174781e-02  4.3339363798010531e-02  4.6217448471610460e-02  3.2224614129435621e-02  3.9093159191199038e-02  3.9023381292395694e-02  3.2175881498149268e-02  3.8812456231635026e-02  3.2035040040727852e-02  3.8459607541917143e-02  3.1757755785605100e-02  3.7959074435957821e-02  3.1305555979453240e-02  3.7302230789196374e-02  3.0649853425986195e-02  3.6486493254045634e-02  2.9801956294400005e-02  1.4145032567989158e-02  1.4103734998132710e-02  1.3964222886868062e-02  1.3696952790887304e-02  1.3256565338524026e-02  1.2597820977097012e-02  1.1655907900028583e-02  6.9579490878469819e-02  7.9116411380458940e-02  7.9063885306892012e-02  6.9533655726440977e-02  7.8900257497019718e-02  6.9385256552915969e-02  7.8641611852398263e-02  6.9128165876635242e-02  7.8299378376478296e-02  6.8767083121658232e-02  7.7892904739662566e-02  6.8308715273712878e-02  7.7448564891472560e-02  6.7743815376663713e-02  9.0257090730977541e-02  8.9997433651502118e-02  8.9702639897794756e-02  8.9395251016684621e-02  0.0000000000000000e+00  0.0000000000000000e+00  0.0000000000000000e+00  0.0000000000000000e+00  0.0000000000000000e