<?xml version="1.0"?>
<VTKFile type="UnstructuredGrid"  version="0.1"  >
<UnstructuredGrid>
<Piece  NumberOfPoints="960" NumberOfCells="4073">
<Points>
<DataArray  type="Float64"  NumberOfComponents="3"  format="ascii">10.07384440300009 2.867652484362122 0.9988838334446792  9.93931560719645 2.815101466761392 1.051050733987825  9.972738172891157 2.934112266050224 0.9668503211896008  9.966072047269039 2.901635181611891 0.9128863177250769  9.934516069071915 2.781267878291238 1.001625738178947  10.06696030311994 2.833465962994294 0.9481019443133691  9.959425842429894 2.868856994805843 0.8590909179282473  9.929711494901305 2.747144366367842 0.9524412765447831  10.06008245655884 2.799001357269962 0.8975152002216805  9.95278325559406 2.835976620972172 0.8053732376148013  9.92490258874807 2.712907453786039 0.9033980831585973  10.0532050958024 2.764435935544013 0.8470299281852292  9.946129900526962 2.803116658790247 0.7516709527348717  9.920096470145698 2.678690890365685 0.8544063500451768  10.04632293512113 2.729890198317852 0.7965732375092558  9.939460190019917 2.770381152397388 0.6979083909238133  9.915300380269773 2.644616220544734 0.8053699015624201  10.03943943288159 2.695470892622834 0.7460583757039911  9.932749269500627 2.737852492527875 0.6439964423955952  9.910498489260396 2.610823167979525 0.7561635029332682  10.03251298238264 2.661270348854075 0.6953791571812216  10.19481257844674 2.809744342929746 1.020059488659643  10.15905506026988 2.725910017353736 1.085969805678843  10.05865846271482 2.76875844033121 1.067307503553064  10.05230722486923 2.734536464381002 1.019447774305598  10.15215520606293 2.691722562562689 1.039282604755108  10.18704876176698 2.77549394396123 0.9710205221928658  10.17927667814061 2.74102517403932 0.9221715315242937  10.14519964635995 2.657340109751457 0.9928195201822815  10.04593226164397 2.700080936157511 0.9718503759113888  10.17149678397162 2.70648272971731 0.8734226161829463  10.13822185348719 2.622890647071942 0.9464852057275117  10.03954387099833 2.665540875678467 0.9243889231146067  10.16372059100857 2.671966077661929 0.8247024320384952  10.13125721826391 2.588473138305201 0.9002038963499813  10.03316243897813 2.631034999094767 0.8769826539289877  10.15595557448229 2.637565012038036 0.7759339496605262  10.12434327570744 2.554191461664758 0.8538973746812526  10.02680985131729 2.596685348541171 0.829547289879725  10.14813240564908 2.603351290648383 0.7270376586068112  10.11745106892918 2.52015603588801 0.8074680551068063  10.02047886917021 2.56262459557945 0.781952467111882  10.03617965698703 3.7065987064617 0.8692861443173574  10.04418622241064 3.598834226573001 0.8339598380096087  9.93207089939734 3.613033129566723 0.8549644709563538  9.922745689267213 3.629628062241274 0.7832060709439241  10.03416666205774 3.614268433032245 0.7623493992833978  10.02725011340499 3.730846877888712 0.7994702623091356  10.01846750119299 3.75534218828326 0.7295762053531251  10.02428381006517 3.629916377154819 0.6906081447652352  9.913496770347898 3.646418800997101 0.7112983073691115  10.00974304586449 3.779923459886191 0.6595999060537445  10.01445321192021 3.645614643475499 0.6187738574504782  9.904275376617283 3.66324784925729 0.639283908347778  10.00100262995815 3.80446390192767 0.5895508466232299  10.00459488754353 3.661254725855371 0.5468605644590778  9.895028105200479 3.68001602730062 0.5671743945447697  9.992179912609018 3.828866673384242 0.5194155651032909  9.994631841089264 3.676744721162463 0.4748573954786582  9.885700840397487 3.696639415200236 0.4949641805165525  9.983224894082875 3.853048622630048 0.4491648369210692  9.984504485695153 3.69202462885571 0.4027359422867317  9.876258274070858 3.71308293416067 0.4226163500545815  9.85185774129512 2.911757460360321 0.9939006603498605  9.847175327759908 2.879312249476642 0.9403954907264164  9.842498638695352 2.846546464394858 0.8870856532570887  9.837822860456761 2.813660094346977 0.8338745668729011  9.833141729845511 2.780791900521159 0.7806878891071518  9.828453310092838 2.748060318815519 0.7274449662327792  9.823752883394334 2.71556920362365 0.6740362605121265  9.931977610504457 3.763632443341138 0.8989465602554592  9.922833102748845 3.792880943092879 0.8301013101604666  9.913794933025677 3.822372287331357 0.7611952339182206  9.904790567054796 3.851921006923815 0.6922225734026943  9.895764005211769 3.881413824402447 0.6231581243087723  9.886672161557451 3.910763468467415 0.5539779766139492  9.877480323503413 3.9399274210146 0.4846400098768958  9.847695615739813 2.727875111028909 1.11629520946713  9.702545002656825 2.790691499961276 1.080929238554814  9.818649464927089 2.826472518961221 1.051640428255898  9.815683624432513 2.793010056066469 1.001335639490827  9.700927523734594 2.757372995871647 1.031474393310399  9.845066466495563 2.694233333241985 1.069071243638798  9.812722381100185 2.759248040099919 0.9512890953324004  9.699315029833844 2.723760887413524 0.9822867652456457  9.842438869343168 2.660327690481051 1.022130500479531  9.80976301371825 2.725368784406286 0.9013878189975402  9.697704182304063 2.690030144119397 0.9332624432303274  9.839808760660933 2.626325958130546 0.9753666695272787  9.806806195947354 2.691514014777515 0.8515403338351936  9.696094762244559 2.656327625320703 0.8843051395934466  9.837187388156787 2.592365385238431 0.9286869473454841  9.803853587865341 2.657813666128577 0.8016500291869924  9.694485744978085 2.622790203920719 0.8353137609429636  9.834588459623598 2.558586582556873 0.8819939279308822  9.800883284500777 2.624406215250466 0.7515936791857923  9.692861928863529 2.589563617169488 0.7861644461718198  9.831983165156368 2.525147728811515 0.8351411432729851  10.16911179495576 2.896078986190219 0.9657255348985637  10.1611579758216 2.861645172953466 0.9142827472438497  10.15323102580535 2.826955279815269 0.8629897767030401  10.14531242434632 2.79218165614691 0.8117665866157199  10.13738378931533 2.757425834935403 0.7605597446770562  10.12942492818859 2.722763476676497 0.7092985953683225  10.12137298558559 2.688266854890169 0.6578843684760189  9.742920044118408 2.678218392577612 1.157415694315561  9.741494298258445 2.644909142970767 1.111370612533811  9.740076835306542 2.611348209615262 1.065628387926166  9.738656494682528 2.577692651003504 1.020084251648944  9.73723959967943 2.544081694430429 0.9746456610364885  9.735836760113202 2.510663076892862 0.9292082536873212  9.734435353382217 2.477610706915257 0.8836186249809862  9.855066468183308 3.385759315260843 0.8407162290331425  9.822522426812681 3.281936564342686 0.8515017966298501  9.715158869837284 3.369244500365312 0.8560541100976971  9.708649432437005 3.368167801250249 0.7843268312263274  9.815653508098251 3.271546482664168 0.7818648311205448  9.847138613231827 3.385187606899786 0.7691041915837924  9.702100442682838 3.367081604002637 0.7124293445202649  9.808789097655 3.261040957174672 0.7120881773085442  9.839214212643521 3.384623972786666 0.6973192173402909  9.695524047574734 3.365944659179143 0.6404107536175898  9.80190494584066 3.250479087312973 0.6422333167160301  9.831291526658438 3.384021929511286 0.6254148994560719  9.688925665648148 3.364720759710789 0.5682979033351279  9.794980842878036 3.23987003909518 0.572318312179007  9.823341409749347 3.383343290375134 0.5534174330555461  9.682317317462106 3.363420680701255 0.4960774517373291  9.788006854692958 3.229198731737004 0.5023199164664596  9.815325444270437 3.382531634670443 0.4813249940008359  9.675739044999718 3.362052079978362 0.4237363186280203  9.781038621549811 3.218480084549831 0.43217355608825  9.807293219020698 3.381631791087206 0.409079551533875  9.793514396636791 3.466637652593837 0.852086047573545  9.785800709370362 3.471238207484412 0.7796220482291476  9.778091715345326 3.475883275032946 0.7069554883895057  9.770380739237675 3.48051036972059 0.6341487488150336  9.762643205148931 3.485057611525803 0.5612360149319702  9.754859552497981 3.489479924898853 0.488218690007481  9.747072911418375 3.493799929926666 0.4150677673642783  9.709830332307032 3.823794050567598 0.9666357003417865  9.648245283248556 3.738219022088 0.9239155636741019  9.608621889501141 3.864054239279523 0.998680770138634  9.601288879938801 3.904555484004125 0.9344596655269886  9.639941735129559 3.767121951864278 0.8541595108126332  9.701136737130337 3.862253395761769 0.9018319396412059  9.593936413697417 3.945249395865455 0.8702637222390762  9.631645699387761 3.79621101891022 0.7843447833088278  9.692480433752417 3.900938489328498 0.8370236278065858  9.586558469922828 3.98598088538804 0.8060250242517496  9.623327025215527 3.825320396222184 0.7144454098117563  9.683811352705836 3.939672059923775 0.7721549639800285  9.579183068914251 4.026680416895712 0.7417097559662353  9.614998544718492 3.854383288390539 0.6444440506760259  9.675130852505237 3.978368932574671 0.7072028900948495  9.571824812665158 4.067290767891915 0.6772755531127559  9.606663788232426 3.883354071905691 0.5743098426542146  9.666439327454837 4.016973240235358 0.642139506382797  9.56449635840271 4.107773272330491 0.6126683513218356  9.598282579136688 3.912192064629251 0.5040106042991095  9.657714702716882 4.055445406162093 0.5769343914440616  9.618602934891676 3.296005606244551 0.8637696253591386  9.608155286295787 3.446315446956611 0.8684578516419396  9.602196540739312 3.451472386826545 0.7957622568378793  9.614087581709997 3.289225988885098 0.7927936158182679  9.60952096140066 3.282329458834211 0.7216932985996797  9.596166014908864 3.456636930544211 0.7228981766673946  9.604921072781599 3.275358980122101 0.6505164962017463  9.590115285055248 3.461757504511797 0.6499039951904617  9.6002935763957 3.268334894261859 0.5792648797482745  9.584051865253773 3.466793216696167 0.5767982155249307  9.595676047992519 3.26128449847897 0.5079105386004952  9.578017522689022 3.471756022797509 0.5035746957518206  9.591116158995165 3.254194500552352 0.4364272719891178  9.572018909076011 3.476613437067455 0.4302088240092964  9.833844746357018 3.697253874355352 0.8918430573322838
[...]
<PointData  Scalars="f_14"> 
<DataArray  type="Float64"  Name="f_14"  format="ascii">1.4315117817341985e-01  1.5663624381858193e-01  1.5234027361007424e-01  1.5237059705590772e-01  1.5663753001031827e-01  1.4316037971359791e-01  1.5243514103484213e-01  1.5664549301103983e-01  1.4318428646745826e-01  1.5251396816416229e-01  1.5665394594958768e-01  1.4321482031249633e-01  1.5258819272196439e-01  1.5665581059983558e-01  1.4323827725089353e-01  1.5263630596041527e-01  1.5664246150979771e-01  1.4323805984843729e-01  1.5263154678431184e-01  1.5660293941276793e-01  1.4320408227640949e-01  1.3185716765761063e-01  1.3604112817341529e-01  1.4547640355812974e-01  1.4548885419926930e-01  1.3604415061739761e-01  1.3186501541983972e-01  1.3188976554684592e-01  1.3604321119391505e-01  1.4551925367091903e-01  1.3191882840090963e-01  1.3603775247707645e-01  1.4555199977638428e-01  1.3193880187706805e-01  1.3601947932852751e-01  1.4557545632751345e-01  1.3193738539131766e-01  1.3598040811259782e-01  1.4557611399523870e-01  1.3191198809800522e-01  1.3593066382298089e-01  1.4553625934175585e-01  1.4010858382438962e-01  1.4020989962620589e-01  1.5068001439633547e-01  1.5070831013398026e-01  1.4023765713370359e-01  1.4010291151093823e-01  1.4009462865782168e-01  1.4031322640986810e-01  1.5077274990160286e-01  1.4010143522933785e-01  1.4041854650621635e-01  1.5086304724548460e-01  1.4013223230535232e-01  1.4053952836913225e-01  1.5096978609829942e-01  1.4020229604421600e-01  1.4066710798068668e-01  1.5108307707958879e-01  1.4034285387414339e-01  1.4078964218887041e-01  1.5119770319383477e-01  1.6415868699160149e-01  1.6418050614007254e-01  1.6423141725585927e-01  1.6429205127681862e-01  1.6435173563205904e-01  1.6439720635216432e-01  1.6439434185382315e-01  1.4945883338767935e-01  1.4947754947399602e-01  1.4951780817361679e-01  1.4958194563273511e-01  1.4967347383444912e-01  1.4979853479208130e-01  1.4994038132424095e-01  1.6627296629359317e-01  1.7976236443381174e-01  1.6813381370046090e-01  1.6812950271731483e-01  1.7976732345803204e-01  1.6625882136147010e-01  1.6811691277979252e-01  1.7978403019189149e-01  1.6622178513408450e-01  1.6810131477017687e-01  1.7980378453026136e-01  1.6617384383247813e-01  1.6808249938848555e-01  1.7982608492578012e-01  1.6611933366444423e-01  1.6805971186068389e-01  1.7985002535126199e-01  1.6606317505875873e-01  1.6803531490553456e-01  1.7986211642184902e-01  1.6602434133699107e-01  1.3364367789831619e-01  1.3365664407606126e-01  1.3369618352092411e-01  1.3374743305297385e-01  1.3379317386855871e-01  1.3381798211537627e-01  1.3381292948334175e-01  1.7704387569308286e-01  1.7703740847498550e-01  1.7702642183192985e-01  1.7701034373458815e-01  1.7699153215909688e-01  1.7697105485386583e-01  1.7694571439092940e-01  1.5969979157718597e-01  1.6359531966604171e-01  1.7303946600448969e-01  1.7306821726471527e-01  1.6361328462576807e-01  1.5971728520516773e-01  1.7313645353569329e-01  1.6366403297446835e-01  1.5976673889409526e-01  1.7323068131934888e-01  1.6373399898087326e-01  1.5983701079346369e-01  1.7333372278540549e-01  1.6381477881498818e-01  1.5991640265057178e-01  1.7342225059530403e-01  1.6389867384362816e-01  1.5999379473519393e-01  1.7348269920745221e-01  1.6395644277764682e-01  1.6006193535530575e-01  1.6489904926147395e-01  1.6492369667356213e-01  1.6497692302157693e-01  1.6505449544868425e-01  1.6514107826391106e-01  1.6521936122475700e-01  1.6527768883282148e-01  1.6990393316993357e-01  1.7629775752981852e-01  1.7895448789325874e-01  1.7895724793375603e-01  1.7634571286568212e-01  1.6993505788470673e-01  1.7897104334720823e-01  1.7645839818807005e-01  1.7000756086054106e-01  1.7900645825547548e-01  1.7660999846341477e-01  1.7010949135904707e-01  1.7906401739049874e-01  1.7677606258929601e-01  1.7023309469526512e-01  1.7914778573238585e-01  1.7692080750987499e-01  1.7036903693316052e-01  1.7926136764768097e-01  1.7698965681120285e-01  1.7048548668283098e-01  1.8268326489671433e-01  1.8244431766039143e-01  1.8248240502260826e-01  1.8270958576975363e-01  1.8277074534273766e-01  1.8258358583497195e-01  1.8286044317276542e-01  1.8272184211751530e-01  1.8296640802054262e-01  1.8287789868036153e-01  1.8307163571585680e-01  1.8302495786282696e-01  1.8313785539214364e-01  1.8313194892966586e-01  1.5922944429050637e-01  1.5921719313852364e-01  1.5922263273212894e-01  1.5924831004927634e-01  1.5929268689589532e-01  1.5935200284591436e-01  1.5943549792544964e-01  1.8603125874750839e-01  1.8778854049676763e-01  1.8776662181350037e-01  1.8603568875820281e-01  1.8605998983767194e-01  1.8773063094500533e-01  1.8609990239831270e-01  1.8770501537032716e-01  1.8616335247312862e-01  1.8770238781971327e-01  1.8626141514711900e-01  1.8773578220001827e-01  1.8638708489622649e-01  1.8782289298252439e-01  1.9673906082321871e-01  1.8848081774444697e-01  1.9573107912434773e-01  1.8850924773806282e-01  1.9572013842979502e-01  1.9676945314008573e-01  1.8846937512354783e-01  1.9573776438269078e-01  1.9683180043799450e-01  1.8848035882102621e-01  1.9581030690485518e-01  1.9695158141526767e-01  1.8852347225583688e-01  1.9596074304703648e-01  1.9712670835322180e-01  1.8864522028887226e-01  1.9131648680619989e-01  1.9142083248501729e-01  1.9155891316672907e-01  1.9172312178822848e-01  1.9190513485111671e-01  1.9205294000523171e-01  1.9549152745705076e-01  1.9836604605507580e-01  1.9834039988774776e-01  1.9543597759217579e-01  1.9828414351994089e-01  1.9531643573929675e-01  1.9822995770427726e-01  1.9519020314721686e-01  1.9819519698835919e-01  1.9509100145708402e-01  1.9819834088385718e-01  1.9505551312416319e-01  1.9828142038559349e-01  1.9514956758743032e-01  1.7526984597303433e-01  1.7527111206960885e-01  1.7527032090301722e-01  1.7526784307535226e-01  1.7526731109710733e-01  1.7527100262301737e-01  1.7528804634887854e-01  1.3098976967410500e-01  1.2779740413493437e-01  1.2779760378594904e-01  1.3099440850149199e-01  1.2780883208351532e-01  1.3102256099314616e-01  1.2783955514950976e-01  1.3107833198067115e-01  1.2788318655849093e-01  1.3114774215727390e-01  1.2793436508239997e-01  1.3122275781853918e-01  1.2802359880473371e-01  1.3132833146724468e-01  1.3208227577265189e-01  1.3206062259394891e-01  1.3201704072454912e-01  1.3198358599546009e-01  1.3197231317426319e-01  1.3200252198423193e-01  1.3213214197376638e-01  1.3883665643079571e-01  1.5040328296647282e-01  1.4033526176577787e-01  1.4039317563697257e-01  1.5045677338074284e-01  1.3886111762675196e-01  1.4053511468309285e-01  1.5056861801532329e-01  1.3893894369066997e-01  1.4070963569656703e-01  1.5070933418316451e-01  1.3904465300104724e-01  1.4088652944548188e-01  1.5085270130437348e-01  1.3915143683923020e-01  1.4103021613682046e-01  1.5097182388185842e-01  1.3923573432363337e-01  1.4107169929722549e-01  1.5100713564129817e-01  1.3928913223585854e-01  1.5105728163452603e-01  1.4833488951114490e-01  1.5977096078405992e-01  1.5976710420427803e-01  1.4832718136746167e-01  1.5108878360726402e-01  1.5979690309244607e-01  1.4830544614203389e-01  1.5116622253885692e-01  1.5985153384798867e-01  1.4830032766956280e-01  1.5127435406164902e-01  1.5993280852931149e-01  1.4832409697094046e-01  1.5141041459521193e-01  1.6004005058291054e-01  1.4838751317277057e-01  1.5156672915818944e-01  1.6016774127538147e-01  1.4851150746902866e-01  1.5171530665765806e-01  1.7303550781481683e-01  1.7310486956532228e-01  1.7327698234963143e-01  1.7349459409155193e-01  1.7372418495671918e-01  1.7392030418864901e-01  1.7397812689190320e-01  1.2262178856652854e-01  1.3099128171201205e-01  1.3533201695469202e-01  1.3095788299749073e-01  1.2256479254244458e-01  1.3533095638483361e-01  1.3087822332901708e-01  1.2242244705184219e-01  1.3533166402159064e-01  1.3079865223302217e-01  1.2226147193623528e-01  1.3534319587402055e-01  1.3074861332558216e-01  1.6301729464959511e-01  1.6303559477161098e-01  1.6308241935495135e-01  1.6315558403377881e-01  1.6324048241074965e-01  1.6332389546045331e-01  1.6340484550507861e-01  1.5868129731924904e-01  1.5867767699172644e-01  1.5870455390507968e-01  1.5875802320227908e-01  1.5883641305759943e-01  1.5893336378762893e-01  1.5905213994911602e-01  1.0969035468582974e-01  1.1139793651953288e-01  1.2195238405484882e-01  1.2197143234011694e-01  1.1140706279324822e-01  1.0966205000848546e-01  1.2202286274750615e-01  1.1141814139412039e-01  1.0961228393944700e-01  1.2208136727343273e-01  1.1141883049467151e-01  1.0954491584726106e-01  1.2213092451768297e-01  1.1140231180468213e-01  1.0946738340635651e-01  1.2216046512159102e-01  1.1136568190344556e-01  1.0938874084626658e-01  1.2216836419341069e-01  1.1131500053524954e-01  1.0930998929824498e-01  1.4858573331572994e-01  1.4860390663588666e-01  1.4865244409927361e-01  1.4871873023978022e-01  1.4878322883981737e-01  1.4882521573600196e-01  1.4883236947825165e-01  1.8635971131396525e-01  1.8638265786669525e-01  1.8644581551470044e-01  1.0520830642497080e-01  1.1555634073078430e-01  1.1569051040939531e-01  1.2084216957065906e-01  1.2082036041946760e-01  1.2077676357794964e-01  1.2073057873673594e-01  1.2068554996828465e-01  1.2065473993889801e-01  1.2066443081185567e-01  1.0885895641927143e-01  1.3215204124037366e-01  1.2372958823228408e-01  1.1825946318692454e-01  1.3224053686627033e-01  1.1838020185212376e-01  1.5823811668597013e-01  1.5826384823314207e-01  1.5833453724365504e-01  1.5842491728767821e-01  1.5851494433091742e-01  1.5858364281812817e-01  1.5861071577236205e-01  1.0988983122108403e-01  1.1000793770468295e-01  1.1802939301707248e-01  1.1809119678854194e-01  1.1002249578363635e-01  1.0991495327355316e-01  1.1823609746274458e-01  1.1002383724964836e-01  1.0995557291141898e-01  1.1840167953935544e-01  1.1001124789276380e-01  1.0999196271827612e-01  1.1856520288515678e-01  1.0998963840955411e-01  1.1001284923797039e-01  1.1870189325882416e-01  1.0996199203708924e-01  1.1000950863879515e-01  1.1873863568217598e-01  1.0993058357148101e-01  1.0997473284121610e-01  1.4398389463784850e-01  1.4401576053628129e-01  1.4408920591052984e-01  1.4419059050699906e-01  1.4432071776651881e-01  1.1464960532658235e-01  1.2304345674068193e-01  1.2305334478125257e-01  1.1467653811669053e-01  1.1474714588240993e-01  1.2309184539442919e-01  1.1482689744019256e-01  1.2314667175366281e-01  1.1489818796459883e-01  1.2320967460327494e-01  1.1494374646011916e-01  1.2327371160900007e-01  1.1493305772433372e-01  1.2331183402989558e-01  1.6648212549223046e-01  1.6646963463621897e-01  1.6646298705944268e-01  1.6648578493840788e-01  1.6652810876025972e-01  1.6658379693007566e-01  1.6670170170872506e-01  1.6961730770134695e-01  1.6966861541605716e-01  1.6981589996155963e-01  1.7000126176908853e-01  1.7020106165486967e-01  1.7038001107021716e-01  1.7046053612527093e-01  1.7280211580692156e-01  1.7281241170360501e-01  1.7283991541469201e-01  1.7288653072485005e-01  1.7294329573376338e-01  1.7299806352867494e-01  1.7303690057637536e-01  1.4345704333951712e-01  1.5492067021909572e-01  1.4450565189232706e-01  1.4450972554334005e-01  1.5493424757707785e-01  1.4347128043736501e-01  1.4350155413226681e-01  1.5496522032773274e-01  1.4451030780464971e-01  1.4353237836698868e-01  1.5499824742685814e-01  1.4450631709787340e-01  1.4354674721713448e-01  1.5502039029375242e-01  1.4448925219020603e-01  1.4352598384253487e-01  1.5501731595700449e-01  1.4444980117699457e-01  1.4345177201049972e-01  1.5496821091399288e-01  1.4438890107214564e-01  9.9843373172445210e-02  9.7446149906076668e-02  1.0674431238106608e-01  1.0670949533323174e-01  9.9711772796131706e-02  9.7369184858019681e-02  1.0675431767276534e-01  9.9564018242667501e-02  9.7243712329480564e-02  1.0672590641605297e-01  9.9419896831528298e-02  9.7049918746929725e-02  1.0663191856885261e-01  1.3215971588460590e-01  1.3360706584729265e-01  1.3361494332534757e-01  1.3221256867108583e-01  1.3363526716391036e-01  1.3224916230993836e-01  1.3365309994869878e-01  1.3226520510922427e-01  1.3365542178216949e-01  1.3363002748999178e-01  1.3356784620392953e-01  1.7940066167166704e-01  1.7944688129801023e-01  1.7954759569499693e-01  1.7968696307459478e-01  1.7984378004541465e-01  1.7999051383739456e-01  1.8010274926686201e-01  1.3939957868972358e-01  1.3938288495411494e-01  1.3936367242411238e-01  1.3935991571959894e-01  1.3938470499424108e-01  1.4447450099789017e-01  1.3945411816797007e-01  1.3076879350029086e-01  1.4462530138849761e-01  1.3959605474872716e-01  1.3092260674670173e-01  1.6611510806807819e-01  1.6610083353837843e-01  1.6607348289807933e-01  1.6603570867182255e-01  1.6598933015912154e-01  1.6593627334742356e-01  1.6589100788246178e-01  1.1599417823916947e-01  1.1997943319539817e-01  1.0906444230467593e-01  1.1995280954366830e-01  1.1594263087625475e-01  1.0904852166038331e-01  1.1990296819485405e-01  1.1582470489458355e-01  1.0899843081258739e-01  1.1984759406697763e-01  1.0893346109465740e-01  1.1979941358955901e-01  1.1977493389551956e-01  1.1544080833772839e-01  1.0878147223163297e-01  1.1980049430883764e-01  1.1539022792993482e-01  1.0870796906630645e-01  1.1166537197572890e-01  1.2279748676244692e-01  1.1429876032004832e-01  1.1430340674243092e-01  1.2280198667390564e-01  1.1167069960136146e-01  1.1431616820779540e-01  1.2281259880665488e-01  1.1168100734651552e-01  1.1431917220311394e-01  1.2281555762238514e-01  1.1167627185698867e-01  1.1429712446999134e-01  1.2279744996494983e-01  1.1164012229414963e-01  1.1423822460996381e-01  1.2274829492300626e-01  1.1155725480068665e-01  1.1413817039670475e-01  1.2266648763901544e-01  1.1140896838058220e-01  1.7826687579412312e-01  1.7827865632855958e-01  1.7830081663071876e-01  1.7833472868553574e-01  1.7837586460185006e-01  1.7841734051665756e-01  1.7847469308272829e-01  1.3147434345083495e-01  1.4023656381473890e-01  1.4022693713689155e-01  1.3147215856172717e-01  1.4021948731194822e-01  1.3147926075211366e-01  1.4022972575617190e-01  1.3149732135189890e-01  1.4026879712202672e-01  1.3153624529503971e-01  1.4034744124526932e-01  1.3160920731654904e-01  1.4047061016547660e-01  1.3174632618682147e-01  1.1315897438804605e-01  1.1312375718305699e-01  1.1302503506041858e-01  1.1290107673597721e-01  1.1277982254382611e-01  1.1269321972572731e-01  1.1269668532889163e-01  1.2552052612975720e-01  1.2553102787639819e-01  1.2555832383766288e-01  1.2558413155799539e-01  1.2559325886281969e-01  1.2557460568791293e-01  1.2552249644095057e-01  1.0336162116966564e-01  1.0696040588733828e-01  1.0337754279465508e-01  1.0695826977125097e-01  1.0337502407121971e-01  1.0693887352568987e-01  1.0333437140565088e-01  1.0689112471657454e-01  1.0323613427094848e-01  1.0680554837872704e-01  1.0668412193935711e-01  1.2439322510479010e-01  1.2039073882490341e-01  1.2038454379232905e-01  1.2439997240604679e-01  1.2036239320654217e-01  1.2442386256533346e-01  1.2033975634501774e-01  1.2445667121020318e-01  1.2032627128098562e-01  1.2449707898391546e-01  1.2033363864188468e-01  1.2454587389253911e-01  1.2036921229690779e-01  1.2459981258596425e-01  1.5515166922457962e-01  1.5515468103374963e-01  1.5515920703885430e-01  1.5515907854055427e-01  1.5515010668139761e-01  1.5512693865870111e-01  1.5508793507830509e-01  1.2324205130369123e-01  1.2321428688768318e-01  1.2316432974314752e-01  1.2311394911887458e-01  1.2307257799077376e-01  1.2305100116025862e-01  1.2309347123261494e-01  1.0112092481430884e-01  1.0110767485286536e-01  1.0105772232015861e-01  1.0098202906128440e-01  1.0087933874445471e-01  1.0074814363936181e-01  1.0060019792610467e-01  1.7346073074404036e-01  1.8451481537361888e-01  1.8454711307239668e-01  1.7347041637373603e-01  1.8463037985837721e-01  1.7349832364476953e-01  1.8473333755763746e-01  1.7353497785851812e-01  1.8484634377644327e-01  1.7357457581747857e-01  1.8494891510893582e-01  1.7360723756606403e-01  1.8499117756338390e-01  1.7361075302599313e-01  1.9123731891164103e-01  1.7956050955027664e-01  1.7953475813226619e-01  1.7005437718932037e-01  1.7004799634605880e-01  1.7004906547456405e-01  1.7006759238534849e-01  1.7010780750535390e-01  1.7017088317321019e-01  1.7025559917752300e-01  1.5573291525859856e-01  1.5565229856284951e-01  1.0123761722028718e-01  1.0938248456053266e-01  1.0930900078157613e-01  1.0695735870849406e-01  1.5569726603528589e-01  1.5571870389164366e-01  1.5576128643520853e-01  1.5582449376765928e-01  1.5589933297320629e-01  1.5597938999273125e-01  1.5607128350878766e-01  1.1835453948005019e-01  1.2778945260261015e-01  1.2784273306869465e-01  1.1831613810116896e-01  1.2797303580765534e-01  1.1824454366174444e-01  1.2813462278586893e-01  1.1816976239343926e-01  1.2830033568165988e-01  1.1810223481960011e-01  1.2844452292005670e-01  1.1805466467814951e-01  1.2853766930256602e-01  1.1804769225941679e-01  1.4177234191152399e-01  1.4598969702395773e-01  1.5232684196074051e-01  1.5233729538519966e-01  1.4604895305118268e-01  1.4182428042071638e-01  1.5237666231173028e-01  1.4621883442416167e-01  1.4195564697811749e-01  1.5244079645025752e-01  1.4643131728951511e-01  1.4212560363659837e-01  1.5251506370687243e-01  1.4665249816264103e-01  1.4230303319492918e-01  1.5258783285057634e-01  1.4685012620586244e-01  1.4245778598993664e-01  1.5264843376930437e-01  1.4695828430928096e-01  1.4254316785356005e-01  1.7986210140204387e-01  1.7982885775592353e-01  1.7975274013930323e-01  1.7966799869216496e-01  1.7958912103668390e-01  1.1849769184157688e-01  1.1850717111980688e-01  1.1849729783745641e-01  1.1845896158010509e-01  1.7630382369161055e-01  1.7628873483248197e-01  1.7624243685158092e-01  1.7618263832108891e-01  1.7611775980079508e-01  1.7605695765843729e-01  1.7602682658265104e-01  1.3109855088516950e-01  1.4165741263209836e-01  1.4169403575413553e-01  1.3115102898749748e-01  1.4177763696331253e-01  1.3128569290291503e-01  1.4187993777180372e-01  1.3144508563499238e-01  1.4197744411148389e-01  1.3160226517961837e-01  1.4204356898038031e-01  1.3173396443052890e-01  1.4204154048145415e-01  1.3179498655313132e-01  1.4951463492749620e-01  1.4953520357587896e-01  1.4959698044854847e-01  1.4968496921706839e-01  1.4978300723991902e-01  1.4987779578749946e-01  1.4996347771891413e-01  1.8852203321090652e-01  1.2419751822030702e-01  1.2426181659710953e-01  1.2441290368643969e-01  1.2459320283274397e-01  1.2477624213292809e-01  1.2493501284102028e-01  1.2500461169272151e-01  1.3429852397408223e-01  1.3433925173734884e-01  1.3444425736030868e-01  1.3458521038106042e-01  1.3473621144871925e-01  1.3487626246462181e-01  1.3499126030757450e-01  1.1315526842367951e-01  1.2041252185151406e-01  1.2047641085030934e-01  1.1315448181750178e-01  1.2063827835777996e-01  1.1313488672525548e-01  1.2082768704662525e-01  1.1310500699741824e-01  1.2101608813807024e-01  1.1307593918011591e-01  1.2117426111956757e-01  1.1305694512727411e-01  1.2123744105541784e-01  1.1304345297767916e-01  1.6757275309193181e-01  1.6759163862946655e-01  1.6764363001693608e-01  1.6771279301414752e-01  1.6778755494079081e-01  1.6785640127567855e-01  1.6790932635251468e-01  1.8673392125148158e-01  1.8675556113913297e-01  1.8681858343195815e-01  1.8690621291931331e-01  1.8701629508043385e-01  1.8714820955104719e-01  1.8729777010716853e-01  1.1887559745382577e-01  1.1889752354666960e-01  1.1894943810048904e-01  1.1900349368455043e-01  1.1904053437007781e-01  1.1904761731095304e-01  1.1900868202496949e-01  1.0671942528550915e-01  1.9548793372351722e-01  1.8978044180108544e-01  1.6954297944964192e-01  1.6954315738999837e-01  1.6954654872876782e-01  1.6955434962655275e-01  1.6956441158775282e-01  1.6957586644353417e-01  1.6959494934439245e-01  1.3571963570790366e-01  1.3574155664162643e-01  1.3580449345292842e-01  1.3589888878243653e-01  1.3600323303542342e-01  1.3609927420362977e-01  1.3617760760678058e-01  1.5707725651935753e-01  1.5708152843669657e-01  1.5710194869540423e-01  1.5714220103257853e-01  1.5718851285200344e-01  1.5723224125759125e-01  1.5729668765556645e-01  1.9574709995155146e-01  1.9574571547377775e-01  1.6228572794586074e-01  1.6230597086008688e-01  1.6236545141517145e-01  1.6244183089838823e