<?xml version="1.0"?>
<VTKFile type="UnstructuredGrid"  version="0.1"  >
<UnstructuredGrid>
<Piece  NumberOfPoints="968" NumberOfCells="4195">
<Points>
<DataArray  type="Float64"  NumberOfComponents="3"  format="ascii">1.03060011208329 2.114735987778004 0.960245141545079  1.015695087570966 2.246819545346341 0.887211305375292  1.137248837827948 2.229303083608117 0.9075905938553848  1.144934975333585 2.195873742890878 0.8428553360405681  1.020658016552287 2.213001999160698 0.8197521485204585  1.036403256001891 2.079162395000457 0.8959002215715118  1.152782700489807 2.162828467606074 0.7778024123666173  1.025756522583049 2.179615164038179 0.7519940802086447  1.042412123985897 2.043971031668605 0.8311615151039439  1.16065508480747 2.129902294587991 0.7125639040134916  1.030847657808261 2.146382091281804 0.684075051737667  1.048454133057065 2.008857037939448 0.7661934151025284  1.168477217771151 2.096911886319048 0.647271832664253  1.035830129149379 2.113130466154525 0.6161041171757391  1.054479334127521 1.973643008026936 0.7011502207860135  1.176200382103217 2.063715855002128 0.5820546739065544  1.040726927941035 2.07972786083983 0.5481887228616921  1.060456375561315 1.938198880935778 0.6361587839220849  1.184012733772377 2.030107594222272 0.5170587568901794  1.045808576216511 2.045836398042771 0.4805309542179788  1.066463148802034 1.902340803371398 0.5713577981106961  1.706926108874872 2.781396751961703 0.7548758011073636  1.819042298760024 2.838060306836959 0.7615399800580729  1.84469926846706 2.695714920688769 0.8067931298169893  1.717961605777553 2.760402928562605 0.6825782240186047  1.829725830752271 2.819531853528904 0.6879778790914136  1.855468322678071 2.670263646384384 0.7379579093511437  1.840387258333107 2.801085990720838 0.6143685896269317  1.728981987053901 2.739513129476204 0.6102196100731332  1.866265953402304 2.644880624776716 0.6690776645812306  1.851049727449759 2.782664253358939 0.5407330111067282  1.739994075676078 2.718669202092048 0.537831582679041  1.877093478288635 2.619511581954785 0.600173857570245  1.861713703152364 2.764225190942577 0.4670908977014412  1.750997915597202 2.697818215297106 0.4654408319070819  1.887924733590141 2.594118387060712 0.5312633137401548  1.87239842418221 2.745719889813964 0.3934654489283201  1.762024673983304 2.67689365004059 0.3930802840853287  1.898758319850341 2.568652691804703 0.4623732882983823  1.883149813874271 2.727098135876559 0.3198752603698288  1.773136079338547 2.655825926682693 0.3207769394420252  1.90960143920452 2.543080396821133 0.3935093668372004  0.9005176110450267 2.203921600864311 0.9040772047794796  0.9035262693953179 2.168635592032861 0.8355235147391571  0.9066950908291056 2.133767734271238 0.766656213351757  0.909863009304154 2.09905252144973 0.6976037710077301  0.9129412144956167 2.064332660657514 0.6284741490892121  0.9159203854384246 2.029484960171035 0.5593707098350608  0.9191150178645318 1.994155523627886 0.490548269284533  1.262145989409082 2.481836366430333 0.8012924212246275  1.350269229197473 2.398555774304535 0.8532066920085496  1.24019339590453 2.350962506314265 0.8608697146349124  1.249284933056099 2.319296428836306 0.7955037785241781  1.360732143080413 2.3669016245181 0.788958181971698  1.270323870760993 2.452929190342265 0.7325469424918823  1.258489249417352 2.287982703276295 0.7299048436050777  1.371294978240275 2.335543495645138 0.7245147409652916  1.278555311596894 2.424352876919867 0.663645756769501  1.267715329823054 2.256795157967408 0.6641691945499993  1.381894605423537 2.304289803712875 0.6599550538867202  1.286770781937854 2.395913695772863 0.5946634619422946  1.27689687325127 2.225572868139079 0.5983981709120263  1.392477372175558 2.272997333375268 0.5953634718347713  1.29491197800598 2.367470056004575 0.5256775594191445  1.285990082887176 2.19418267940049 0.5327020317185492  1.403006887228304 2.241558211180452 0.5308348963156958  1.30301291998326 2.338888645203709 0.4567820510725926  1.295160630181139 2.16241733383854 0.4672121605285741  1.413559741980448 2.209802417293002 0.4664828670641215  1.311255377400222 2.309991144284963 0.3880966415784857  0.7539915315759323 2.870926284642188 0.6611085234823647  0.8876137850008619 2.959087411096921 0.6518308553544925  0.8738189324274078 2.833228120650987 0.6747761149233517  0.8758282799409457 2.81804721131354 0.589343441325622  0.8882558943686805 2.953580753633041 0.5635466716622319  0.7557295819409279 2.859924775142503 0.5718308597416868  0.8777227269838943 2.80342563192222 0.5041469911291641  0.8887644902823945 2.948488147039498 0.4755877558799164  0.7573520616459816 2.849383295884123 0.4828446084410569  0.8794525388801886 2.788972983466694 0.4191886159162955  0.8891082923057828 2.943510814337269 0.3879494067482503  0.7587676107353618 2.838955286405647 0.3942037014367842  0.8893777759527761 2.938486324372324 0.3006301517528899  0.7600574731419826 2.82846228460178 0.305920071492886  0.8810805218320037 2.774498386666388 0.3345177247249422  0.8896886877965841 2.933381706677582 0.2136541340992038  0.761358055785084 2.817898128899464 0.2180066884915336  0.8827439585919469 2.759968956183388 0.2500742619461281  0.8902857377704336 2.928079917254016 0.1270661181944406  0.7628116843006728 2.807211740360173 0.1305850952433534  0.8845966076586045 2.745270309134947 0.1660236230660066  1.141436626150316 2.463353867996515 0.7947143840808054  1.147628945241998 2.434070395071005 0.7241612008021515  1.153864156431079 2.405185861340917 0.653450468118852  1.160049422232566 2.376466828923787 0.582670990007038  1.166116190362283 2.347750012734175 0.5118993271825497  1.17216566888954 2.318894841676033 0.4412302152433285  1.178411785353252 2.289674672127709 0.3708102743382352  1.107919446778555 2.345231700583724 0.8471486988734575  1.11411981152856 2.313396400482949 0.7791817098625836  1.120409086679201 2.281979617854807 0.7109756152715827  1.126679674036326 2.250723951355057 0.6426423931003628  1.132833904889073 2.219456214870594 0.5742817927085765  1.138926241972773 2.188034744400068 0.5060006867417811  1.145207521205075 2.156187346045348 0.4379703427151617  1.635086834487196 2.268469949230963 0.8186780309921721  1.641151656950749 2.160888029177213 0.8872837246026704  1.757320860966144 2.183083904611201 0.899168353872507  1.628446104858533 2.193382908546844 0.9441431602311944  1.622891279867889 2.30045839709315 0.8779739329368529  1.769576385153881 2.150618718485779 0.8425469592881575  1.647391242051504 2.236526258101919 0.7592820696173246  1.654001364615344 2.12843255117021 0.830295342415559  1.781859009477083 2.118085115855647 0.7858665991952006  1.659720151126307 2.204515222989627 0.6998367984428351  1.666881790019026 2.09589266566728 0.7732337618862629  1.794064245950595 2.085389687321794 0.7291732406331519  1.671998841464128 2.172336970615012 0.6403957730638237  1.67969354886002 2.063156140986992 0.7161511928713137  1.806076786053048 2.052435981306804 0.6725181910015384  1.684156307025003 2.139896606075257 0.581017435584947  1.692327127472479 2.030090884016653 0.6591030711609031  0.7609262137426375 2.998567586988284 0.1967351323987671  0.7612693110975984 2.998758761461317 0.1074159457174575  1.55133660431089 1.582448850285981 1.179048962461755  1.43091026494091 1.659665738735916 1.100679213907653  1.425920492235825 1.558330091829598 1.195211981199911  1.422997068189701 1.700692441664355 1.15093436933732  1.429779291117218 1.51438104793564 1.147740991141313  1.555394625478806 1.542056810165759 1.12912077089373  1.438790401982503 1.618427398475058 1.050327461575019  1.433462278853782 1.470226151722125 1.100168402962904  1.559281236805389 1.501527184354563 1.079103719165842  1.446496334361784 1.576916898109981 0.9999011565184717  1.436785647570289 1.42583732434338 1.05245662968972  1.562787209857176 1.460840817568151 1.028956807826405  1.453903890359362 1.535047229161526 0.9493835627533341  0.4057969753182139 2.504226173662519 0.7642662971990629  0.3981351659941509 2.39249710341981 0.8131219109212893  0.2765072819979336 2.397062930875575 0.8140900547890229  0.2755159856238301 2.357011214515496 0.7293756113255503  0.3958914917722223 2.354196046401598 0.7308456043424878  0.4043709637980051 2.469452774269271 0.6786042940644293  0.2746582468246514 2.315875764224877 0.644927486262093  0.3937742829492247 2.315592088013786 0.6487127790023046  0.4030637183165346 2.434496129023496 0.5931442388308386  0.2739231215640874 2.274452720252231 0.5604295651048539  0.3917762728111773 2.276913052710293 0.5666023218903886  0.4018003897900805 2.399534726683513 0.5077895935587047  0.2733049450674562 2.233122863274325 0.4757331652477492  0.3898859535191978 2.238318461167042 0.4843880046378625  0.4005089078185641 2.364713844009741 0.4224174816749042  0.2728136638270634 2.192118552428562 0.3907613543608416  0.3881379907048109 2.199892314795364 0.4020880340553368  0.3993232957901465 2.330097224168015 0.3369861515374815  0.2728874445444194 2.151380060152368 0.3057219985500378  0.3867832212127887 2.161566568318881 0.319802978947779  0.3985115170138381 2.295950824665224 0.2514664749216206  0.5273463156155457 2.014925014421527 0.6202774189544294  0.3998843862322738 1.920271856580262 0.6685092826470973  0.5196348523656155 1.907708604160147 0.6850632257995315  0.4015202927267613 1.963538443539634 0.7437973485113097  0.5292227586890047 2.055038576907417 0.6948488368089718  0.5180996705165962 1.865180967302026 0.6125605031316051  0.5255647236765923 1.974689253236958 0.5456390444970713  0.3984049008819209 1.876901997769885 0.593056457263041  0.5166740494174702 1.822348777478268 0.5400221521654861  0.5238856547399705 1.934213451832002 0.4709902417621201  0.3971198580580967 1.833391954817812 0.5174381447357508  0.894000350018836 2.317237423487414 0.8455004742818334  0.8971705018888438 2.284282069338842 0.773923263573862  0.9004558346156681 2.251803647552369 0.7021202766044645  0.9036768121171076 2.219524661344962 0.6302046103779155  0.9067427428988181 2.187297833504323 0.5582375527866912  0.9097640129270251 2.154954292649709 0
[...]
<PointData  Scalars="f_14"> 
<DataArray  type="Float64"  Name="f_14"  format="ascii">-2.2013903801379241e-13  -2.2053615805557714e-13  -2.1830738765768879e-13  1.8498402771542330e-01  1.8598457238253949e-01  1.8531457785215549e-01  3.6101505625657787e-01  3.6228359537478028e-01  3.6221575623934377e-01  5.3011160176056038e-01  5.3140418294940706e-01  5.3147543338195402e-01  6.9292433886954941e-01  6.9398216932297963e-01  6.9374537063909714e-01  8.4967548940618054e-01  8.5045829412358964e-01  8.4955034989086431e-01  1.0000000000000155e+00  1.0000000000000131e+00  1.0000000000000135e+00  -2.0823410013382570e-13  -2.0616504663904853e-13  -2.0556920495189719e-13  1.9581498044409701e-01  1.8494338872520133e-01  1.8401941116132106e-01  3.6342109115648824e-01  3.7477083539856720e-01  3.5940529881791167e-01  5.3318735179386478e-01  5.4436064133620288e-01  5.2842272738657958e-01  6.9492594540574038e-01  7.0588264205643481e-01  6.9153267520950668e-01  8.4965915283830762e-01  8.5940037127541979e-01  8.4880833495009322e-01  1.0000000000000280e+00  1.0000000000000258e+00  1.0000000000000286e+00  -2.2252785127689285e-13  1.8334871821578785e-01  3.5959270756410572e-01  5.2870751135010918e-01  6.9121600760651014e-01  8.4783212971132538e-01  1.0000000000000111e+00  -2.1626872438157013e-13  -2.1451091769606364e-13  -2.1652141588260646e-13  1.8133343389133669e-01  1.8244376051020519e-01  1.8835325216553209e-01  3.5658452763216836e-01  3.5727520945243674e-01  3.6570616757025065e-01  5.2561232332604169e-01  5.2621093620166304e-01  5.3512108810766146e-01  6.8875470272627937e-01  6.8972936683846553e-01  6.9740899792235378e-01  8.4641572539181820e-01  8.4806272593925791e-01  8.5273807024638015e-01  1.0000000000000173e+00  1.0000000000000193e+00  1.0000000000000175e+00  -2.2522643870307584e-13  -2.2312395435311776e-13  -2.2328902692644043e-13  1.8767606504919793e-01  2.0647634856461369e-01  2.0033014600955340e-01  3.6967203033353757e-01  3.9045076361434067e-01  3.8321553816274900e-01  5.4021354372159580e-01  5.6046871378291552e-01  5.5346256409478156e-01  7.1866185525998372e-01  7.1270914772598948e-01  7.0023329669210210e-01  8.6608071880904869e-01  8.6197910383379417e-01  8.5141280584759904e-01  1.0000000000000104e+00  1.0000000000000082e+00  1.0000000000000102e+00  -2.1847073376610671e-13  1.9211770220600494e-01  3.6990331715308400e-01  5.3929838927503415e-01  7.0138259809979542e-01  8.5620238416967220e-01  1.0000000000000153e+00  -2.1896214620379406e-13  1.8520756569308275e-01  3.6146854514514887e-01  5.3062648108258204e-01  6.9325414130071294e-01  8.4974341591267721e-01  1.0000000000000147e+00  3.4287506448389515e-01  3.3208602608560644e-01  3.2920579523600185e-01  1.6569165165519381e-01  1.7373069285617643e-01  4.9479135562725390e-01  5.0990001990636669e-01  4.9815007476059037e-01  6.6155931441878668e-01  6.7532134378441455e-01  6.6405447151716168e-01  8.2989939510166066e-01  8.3925765670119745e-01  8.3035767168716446e-01  1.0000000000000271e+00  1.0000000000000244e+00  1.0000000000000249e+00  8.6376283012692989e-01  1.0000000000000082e+00  5.0505742883372451e-01  5.1097877013045512e-01  4.9716767129195072e-01  3.4400130437835785e-01  6.6244008898713069e-01  6.7095264624005024e-01  6.7605560007600440e-01  8.2863483652532754e-01  8.3740101109928677e-01  8.3961810556988548e-01  1.0000000000000218e+00  1.0000000000000242e+00  1.0000000000000215e+00  -2.3050439307254573e-13  -2.3061561335572478e-13  -2.3237437235772688e-13  1.8411369863866114e-01  1.8402284870811400e-01  1.8804785237069629e-01  3.6363568047978007e-01  3.6121689504742788e-01  3.6713143602004938e-01  5.3610284489527360e-01  5.3137250082429666e-01  5.3774077760788486e-01  7.0026026908858341e-01  6.9426776900313125e-01  6.9983816750512129e-01  8.5488389798915976e-01  8.4996372812953136e-01  8.5360179157243721e-01  1.0000000000000013e+00  1.0000000000000029e+00  1.0000000000000031e+00  6.8938398939750190e-01  6.9081495230011780e-01  6.9173235348594497e-01  5.2789142629786978e-01  5.2658646267904785e-01  8.4844071722510850e-01  8.4691606922919838e-01  8.4767115231114543e-01  1.0000000000000049e+00  1.0000000000000051e+00  1.0000000000000031e+00  -2.2271446690238418e-13  1.8752500080281129e-01  3.6400298989559016e-01  5.3314479125935998e-01  6.9572187916078165e-01  8.5205260289334073e-01  1.0000000000000109e+00  -2.3407600241527314e-13  -2.3221294705533553e-13  -2.3200146218517079e-13  1.8031710912846297e-01  1.8446926860590318e-01  1.8714926974151391e-01  3.5730500671336451e-01  3.6225236184836151e-01  3.6955056473056086e-01  5.2839440373860980e-01  5.3388583274348855e-01  5.4537249831950374e-01  6.9253471079013806e-01  6.9813783549962627e-01  7.1273327982396850e-01  8.4911363413603147e-01  8.5393316283844312e-01  8.6842046469914358e-01  1.0000000000000018e+00  1.0000000000000016e+00  1.0000000000000000e+00  -2.1650645751898596e-13  -2.1393167117105913e-13  1.9230272864961065e-01  1.8813221496558760e-01  3.6965160713995626e-01  3.6663152741678101e-01  5.3895139954584648e-01  5.3636134195252860e-01  7.0138841512041228e-01  6.9799107822809248e-01  8.5651977717684236e-01  8.5216171975457689e-01  1.0000000000000200e+00  1.0000000000000173e+00  -2.3230271029989473e-13  1.9118394463773852e-01  3.7297883549323146e-01  5.4587064242587358e-01  7.0906314396851400e-01  8.6147910400199945e-01  1.0000000000000016e+00  -2.1166218882277527e-13  -2.1012159800588487e-13  -2.0948778409640592e-13  1.7247349193753475e-01  1.7522953773104208e-01  3.4321614164724229e-01  3.4585878317350283e-01  5.1080908469829189e-01  5.1338686918712506e-01  6.7533541463832181e-01  6.7820753723757121e-01  8.3743270075731158e-01  8.4057426513710876e-01  1.0000000000000240e+00  1.0000000000000224e+00  5.5565809161311064e-01  5.5845346547909758e-01  5.5548059414368722e-01  3.8385734300828056e-01  7.1417225171451015e-01  7.1706664125391772e-01  7.1425901811118075e-01  8.6202516752842884e-01  8.6421976515654919e-01  8.6136896441405097e-01  1.0000000000000047e+00  1.0000000000000047e+00  1.0000000000000031e+00  -2.1391370374936330e-13  -2.1140800936278330e-13  -2.1368125468140512e-13  1.7664991074325653e-01  1.7289372323900962e-01  1.7874648405255561e-01  3.4876610264822155e-01  3.4226508750261619e-01  3.5165284254231843e-01  5.1681929930285497e-01  5.0936401402715481e-01  5.1992759841283687e-01  6.8113747328721574e-01  6.7460208743419525e-01  6.8399825412912996e-01  8.4200961476768055e-01  8.3828386459169457e-01  8.4407111609026386e-01  1.0000000000000202e+00  1.0000000000000226e+00  1.0000000000000200e+00  -2.2275837247139331e-13  -2.2291939305085454e-13  -2.2068490977307898e-13  1.8578678017351041e-01  1.8332634023320493e-01  1.8321999290552590e-01  3.6246921177116181e-01  3.6058866473207168e-01  3.5946490720356816e-01  5.3154387872634645e-01  5.3013632716249193e-01  5.2865343051579516e-01  6.9368468436147745e-01  6.9235610246085844e-01  6.9117502510204420e-01  8.4960265277072555e-01  8.4817757689386530e-01  8.4778451117211384e-01  1.0000000000000129e+00  1.0000000000000107e+00  1.0000000000000109e+00  -2.0909854486239733e-13  1.9498046701339566e-01  3.7590143472988097e-01  5.4581760235761878e-01  7.0620266557319011e-01  8.5772729419094462e-01  1.0000000000000249e+00  -2.2679481046686562e-13  -2.2682087537795342e-13  -2.2482270917055946e-13  1.8747944082760906e-01  1.9062756679020665e-01  1.8360358627698031e-01  3.6439465762600465e-01  3.6895894730466744e-01  3.6020828574812958e-01  5.3370706828218784e-01  5.3864896322063771e-01  5.2954022541091972e-01  6.9616546580582195e-01  7.0052959104253909e-01  6.9204463419582252e-01  8.5211785405789831e-01  8.5498403928177436e-01  8.4828960329207648e-01  1.0000000000000089e+00  1.0000000000000067e+00  1.0000000000000067e+00  -2.1872293333952404e-13  -2.1738225430223070e-13  -2.1680730858701588e-13  2.0759720855515262e-01  2.0002922216002231e-01  2.0446027663019981e-01  3.9177245669855409e-01  -2.2662049156277672e-13  -2.2663434730125812e-13  -2.2448001509845166e-13  1.8844781749553327e-01  1.8551950712590959e-01  1.8388898023595610e-01  3.6570190380244011e-01  3.6134451368204606e-01  3.6036243880859792e-01  5.3495807265209416e-01  5.3027438828618589e-01  5.2946634022095318e-01  6.9710510360859479e-01  6.9293195527554319e-01  6.9178358653959637e-01  8.5257987910438870e-01  8.4987748918392370e-01  8.4804001860055445e-01  1.0000000000000091e+00  1.0000000000000069e+00  1.0000000000000069e+00  -2.1519615586250802e-13  -2.1255488865140828e-13  -2.1482727657416413e-13  1.7789975973133915e-01  1.7449578273736524e-01  1.8293357260448390e-01  3.4984713859310007e-01  3.5746884567746406e-01  5.1777251550205183e-01  5.2628268499190722e-01  6.8222070706161020e-01  6.8998361064680025e-01  8.4338252198617758e-01  8.4846714795340605e-01  1.0000000000000191e+00  1.0000000000000187e+00  -2.1229812437773353e-13  -2.1169738406082020e-13  1.8425069979780684e-01  1.7632762264736759e-01  3.5929561396710880e-01  3.4901243956343114e-01  5.2818379577633734e-01  5.1734820215340371e-01  6.9157569024164955e-01  6.8158280731244025e-01  8.4955126141995541e-01  8.4216298347427998e-01  1.0000000000000224e+00  1.0000000000000218e+00  -2.3407600241527314e-13  1.8697272649493660e-01  3.6965534578836684e-01  5.4567632564636803e-01  7.1299401187177114e-01  8.6846704242360384e-01  1.0000000000000000e+00  -2.3239411976622181e-13  -2.3041769403584767e-13  -2.3059532716810094e-13  1.9975504100983102e-01  1.9821094820623150e-01  2.0257992719563267e-01  3.8319464186164104e-01  3.8971816988206026e-01  5.5438274263015785e-01  5.6291411470115915e-01  7.1399100967576468e-01  7.2277766466786231e-01  8.6271018193943527e-01  8.6885895832350246e-01  1.0000000000000029e+00  1.0000000000000013e+00  -2.2079578506238559e-13  1.8718570268732987e-01  3.6520167542556076e-01  5.3479406863822188e-01  6.9662505738738212e-01  8.5151522386564504e-01  1.0000000000000129e+00  -2.1145090353474873e-13  -2.1355686651667229e-13  1.7921343088572908e-01  1.7339250814490123e-01  3.5150840248703791e-01  3.4255531206273959e-01  5.1961403088942337e-01  5.0958154664460120e-01  6.8399683529703825e-01  6.7504078350008390e-01  8.4469556158957948e-01  8.3908630762500680e-01  1.0000000000000204e+00  1.0000000000000226e+00  -2.2878616333975522e-13  -2.2667467170761048e-13  -2.2860866452839853e-13  1.8045394141456647e-01  1.8332357608268726e-01  1.8664745978288658e-01  3.5572954300468701e-01  3.5910011950583659e-01  3.6338550584734181e-01  5.2469949534260829e-01  5.2817349895472920e-01  5.3287571455126526e-01  6.8758397517709791e-01  6.9099700202915426e-01  6.9553435208597136e-01  8.4515301698990841e-01  8.4820094637336885e-01  8.5175101549289345e-01  1.0000000000000049e+00  1.0000000000000069e+00  1.0000000000000047e+00  -2.1898965808538379e-13  -2.1856227640189497e-13  1.8760068428547286e-01  1.9557541727519970e-01  3.7639908904525277e-01  3.6602510228211693e-01  5.4659661586320085e-01  5.3577370404804014e-01  7.0745623918924694e-01  6.9748812236117919e-01  8.5938860770368786e-01  8.5188146793667829e-01  1.0000000000000147e+00  1.0000000000000151e+00  -2.2475419941201497e-13  1.8476264604160839e-01  3.6084196147163999e-01  5.2990060202450917e-01  6.9251555893238181e-01  8.4920186078379567e-01  1.0000000000000089e+00  6.9638407329099949e-01  8.5159793000958617e-01  1.0000000000000033e+00  -2.2495867958440371e-13  -2.2489640164577551e-13  1.8708050177834956e-01  1.9114601742449727e-01  3.7070148468311404e-01  3.6478188529432626e-01  5.4057902614051800e-01  5.3444728648949258e-01  7.0174975624562397e-01  6.9662607990887371e-01  8.5489431943625960e-01  8.5188763791085198e-01  1.0000000000000087e+00  1.0000000000000087e+00  1.7451584869776390e-01  1.6163873761352318e-01  -2.1288144986930488e-13  3.4552373097278444e-01  3.2713311035344500e-01  5.1314590332370147e-01  4.9253715134781340e-01  6.7787949928803992e-01  6.5803209909417393e-01  8.4006818805051331e-01  8.2492366235821279e-01  1.0000000000000211e+00  1.0000000000000240e+00  -2.1789693563495163e-13  -2.1812553264852861e-13  -2.1570740755882552e-13  1.8277695000961908e-01  1.8624249213755467e-01  1.8798974812683225e-01  3.5808675764938808e-01  3.6254649434879438e-01  3.6523784670901877e-01  5.2706113296681201e-01  5.3178834883805026e-01  5.3464708998148680e-01  6.9033571801767668e-01  6.9454462996790345e-01  6.9704626451466301e-01  8.4808433179796683e-01  8.5112188884897966e-01  8.5264068246669644e-01  1.0000000000000182e+00  1.0000000000000158e+00  1.0000000000000160e+00  -2.2462796724332107e-13  1.8259170969980179e-01  3.5862590661734361e-01  5.2767354493058993e-01  6.9024767100935358e-01  8.4706665613116605e-01  1.0000000000000091e+00  -2.2876569654882516e-13  -2.2872805579431261e-13  1.8709617521967373e-01  1.9432371385680999e-01  3.7492329237536015e-01  3.6545149521547077e-01  5.4515970497371702e-01  5.3534184547608565e-01  7.0601614451064210e-01  6.9726214074865245e-01  8.5807437014896948e-01  8.5178315209703803e-01  1.0000000000000047e+00  1.0000000000000049e+00  -2.2239264733522164e-13  -2.2240987212078097e-13  -2.2010550832045447e-13  1.9328908215051055e-01  1.9094844685102638e-01  1.8643524204156137e-01  3.7163577782117130e-01  3.6844912634660759e-01  3.6453579458698232e-01  5.4126081239967683e-01  5.3775424358795920e-01  5.3418747396851518e-01  7.0316479856361491e-01  6.9979254606822927e-01  6.9605786996081442e-01  8.5732257523049116e-01  8.5481734000823872e-01  8.5075236196310999e-01  1.0000000000000135e+00  1.0000000000000113e+00  1.0000000000000113e+00  -2.2684712151438726e-13  1.8874371818555669e-01  3.6844680582519812e-01  5.3856092814754941e-01  6.9986281050281673e-01  8.5317065522344349e-01  1.0000000000000067e+00  -2.1596976262052906e-13  1.8330898586695571e-01  3.5786912099217516e-01  5.2664156872016854e-01  6.9011511807230197e-01  8.4848919113582355e-01  1.0000000000000180e+00  -2.3065268381883581e-13  1.9079337593358225e-01  3.7215648563677933e-01  5.4323789877869788e-01  7.0430028094563391e-01  8.5591788601820940e-01  1.0000000000000029e+00  -2.0769399179847048e-13  -2.0702440318776645e-13  1.8659316450518718e-01  1.7721429735436409e-01  3.6248530856470534e-01  3.4986877027456453e-01  5.3155380219685677e-01  5.1811925486461019e-01  6.9463835798980489e-01  6.8228767685253500e-01  8.5184782873485065e-01  8.4273920651996170e-01  1.0000000000000264e+00  1.0000000000000271e+00  -2.2112318129594951e-13  -2.2133869763266159e-13  2.0152601624079314e-01  2.0464718804167345e-01  3.8481501847471433e-01  3.9025612413241628e-01  5.5495413074993982e-01  5.6072782395874621e-01  7.1368803717058893e-01  7.1855480458721799e-01  8.6233461231325581e-01  -2.2114747842280661e-13  1.9633613642387576e-01  3.7684166874199410e-01  5.4669512537134046e-01  7.0727597022908761e-01  8.5905235737149865e-01  1.0000000000000124e+00  -2.2887246442978674e-13  -2.2706530957830344e-13  1.9358447008742866e-01  1.9505296616235809e-01  3.7509008050669262e-01  3.7760547180277787e-01  5.4539305542971417e-01  5.4820230448563445e-01  7.0569372023106758e-01  7.0800438154539802e-01  8.5696863206687868e-01  8.5816756489882373e-01  1.0000000000000064e+00  1.0000000000000047e+00  -2.2519319950233414e-13  -2.2333667100771116e-13  1.9058712670283029e-01  1.9926115438591027e-01  3.7146563535595867e-01  3.8101598272672837e-01  5.4154890102883890e-01  5.5135892234052108e-01  7.0189393596864591e-01  7.1164201755634382e-01  8.5384562435778499e-01  8.6254109758274888e-01  1.0000000000000102e+00  1.0000000000000084e+00  -2.1559300253764392e-13  1.8877205952473039e-01  3.6506341570346407e-01  5.3426072053980322e-01  6.9738512159035981e-01  8.5397545080751536e-01  1.0000000000000182e+00  -2.1920688189493375e-13  2.0949644572933893e-01  3.9397584864651919e-01  5.6440552136554323e-01  7.2282124942172332e-01  8.6972052195344862e-01  -2.3025904027819930e-13  -2.3043386917553179e-13  1.8099465904058032e-01  1.8019727439916980e-01  3.5681035547518214e-01  3.5534198086381691e-01  5.2656220215097016e-01  5.2463517754354350e-01  6.9000639083599602e-01  6.8784386940131004e-01  8.4748449723912633e-01  8.4552087856434388e-01  1.0000000000000031e+00  1.0000000000000033e+00  -2.1753667853320586e-13  -2.1783931546432594e-13  1.8594756522208583e-01  1.8797126314235957e-01  3.6319708685754254e-01  3.6505895759047158e-01  5.3269645502252339e-01  5.3457304037425490e-01  6.9504952919585250e-01  6.9733878988007147e-01  8.5066554823915008e-01  8.5318843839839953e-01  1.0000000000000160e+00  1.0000000000000162e+00  -2.2305389755506956e-13  1.9692962024961358e-01  3.7610314515270460e-01  5.4576171613352664e-01  7.0667565018892564e-01  8.5949598636788493e-01  1.0000000000000104e+00  -2.1697739979084636e-13  -2.1745835461418311e-13  -2.1529270337775359e-13  1.8973181164877700e-01  1.9408188439140242e-01  1.9850888772996927e-01  3.7007980320465783e-01  3.7657898177038407e-01  3.7966614761928391e-01  5.4014241378387762e-01  5.4719819892858212e-01  5.4976708457929668e-01  7.0063200932501768e-01  7.0721843526805173e-01  7.1016731447890780e-01  8.5276817544994754e-01  8.5767708212336125e-01  8.6129412078003742e-01  1.0000000000000187e+00  1.0000000000000164e+00  1.0000000000000169e+00  -2.0921587749414244e-13  -2.1585619420320155e-13  1.8395193671778318e-01  3.5885872718417694e-01  5.2766570997566065e-01  6.9100221253456851e-01  8.4895308496983923e-01  1.0000000000000180e+00  -2.1502149045576925e-13  1.9404690303064509e-01  3.7363291353836359e-01  5.4348626635705910e-01  7.0468227126547478e-01  8.5771304041860708e-01  1.0000000000000189e+00  -2.2173494770543504e-13  -2.1942596316832770e-13  2.0026765146068201e-01  1.9344085007090403e-01  3.8348322279727254e-01  3.7480747573917161e-01  5.5392419587801855e-01  5.4476186588291242e-01  7.1333883057932801e-01  7.0439448614995592e-01  8.6246241261696777e-01  8.5525685052706546e-01  1.0000000000000142e+00  1.0000000000000118e+00  -2.2454411651372683e-13  1.8887167849358175e-01  1.7380427333337287e-01  3.4181240753679798e-01  5.0825971019062044e-01  6.7402139249321513e-01  8.3909420729739526e-01  1.0000000000000235e+00  5.5665202294366922e-01  7.1565716696209369e-01  8.6412109063667475e-01  1.0000000000000062e+00  -2.1313070129160973e-13  1.7545938935833716e-01  3.4703875594074646e-01  5.1491174529526906e-01  6.7945652324063799e-01  8.4100500449148985e-01  1.0000000000000209e+00  -2.0933762394840125e-13  1.6589637355038497e-01  3.3151744791900789e-01  4.9725441330671372e-01  6.6345896613810595e-01  8.3065745500453447e-01  1.0000000000000246e+00  -2.1046425995691513e-13  -2.0984649901585253e-13  -2.0901672423254964e-13  1.7860713992081473e-01  1.8325578724812669e-01  3.5167630080363016e-01  3.5930515827466747e-01  5.1999858218133876e-01  5.2839087844701849e-01  6.8395859100335388e-01  6.9106562973248931e-01  8.4395094419778616e-01  8.4785650398397527e-01  1.0000000000000251e+00  1.0000000000000242e+00  -2.1437109183970640e-13  -2.1304231769166804e-13  1.9497121806922316e-01  1.8655731232602601e-01  3.7439895893607811e-01  3.6457911568496337e-01  5.4402620021324088e-01  5.3417222320745605e-01  7.0507446235078086e-01  6.9604075266240140e-01  8.5789273739417538e-01  8.5086268414593746e-01  1.0000000000000209e+00  1.0000000000000195e+00  6.9830207883713757e-01  8.5379304034648584e-01  1.0000000000000013e+00  -2.1498672868683507e-13  -2.1497994743370358e-13  -2.1294691748254953e-13  1.9842561346458112e-01  2.0330588448974407e-01  1.9453063602007839e-01  3.8036483430858253e-01  3.8691989639371621e-01  3.7657148272921198e-01  5.5049388638292684e-01  5.5721931127078550e-01  5.4697262300002203e-01  7.1025545099634813e-01  7.1591937650567927e-01  7.0698230599874390e-01  8.6060974464885043e-01  -2.1206687129382710e-13  1.8385792064189396e-01  3.6067405695735594e-01  5.2997016422912935e-01  6.9230661435658325e-01  8.4846188074437989e-01  1.0000000000000220e+00  -2.1700859450551629e-13  1.9725441294997842e-01  3.8045570386806982e-01  5.5112843745232531e-01  5.6217811540638774e-01  7.1070026903841843e-01  -2.3229464461394296e-13  1.9437866748027874e-01  3.7834642499299581e-01  5.5152272980010431e-01  7.1322267087289160e-01  8.6285602861939559e-01  