<?xml version="1.0"?>
<VTKFile type="UnstructuredGrid"  version="0.1"  >
<UnstructuredGrid>
<Piece  NumberOfPoints="963" NumberOfCells="4099">
<Points>
<DataArray  type="Float64"  NumberOfComponents="3"  format="ascii">10.06552139815354 4.208937317655034 2.460435624898474  9.972242923280124 4.203500142649458 2.389095435010698  9.993371518633724 4.166142787080622 2.521888869580193  9.978560644805228 4.215590518788404 2.539418242970495  9.957496185879299 4.254794096028794 2.405266654502211  10.04847156260536 4.258937214260218 2.477564651819143  9.963903576996808 4.265253353706453 2.556925450555786  9.94293793522008 4.306288817212056 2.421375563098602  10.03166980001423 4.309151250777934 2.494633203480846  9.949295436024798 4.315072656904184 2.574465019664328  9.928461827159362 4.357925747170635 2.437477315512843  10.01498004453633 4.359486156269657 2.511688079170728  9.934634447817656 4.364995237459078 2.592062935217701  9.91395824297026 4.409646340341578 2.453618258555241  9.998269512404418 4.409874667952599 2.528767180600064  9.919798983180184 4.414985668374674 2.609759453949234  9.899298226666046 4.461411898273467 2.469849154319107  9.981390950324288 4.460258395222936 2.545906704881471  9.904649060142438 4.465020966142552 2.627596421891976  9.884329333028059 4.513219283260906 2.486234665370487  9.964117660723936 4.510587543223423 2.563165079338934  8.973520021082338 3.942939582164623 2.761174704851625  8.919437161971761 3.973172598385624 2.664763798342906  8.850000488309339 3.924430951421513 2.77700045749684  8.845558936027526 3.974246134588466 2.794653993755094  8.914166478567155 4.023139872836157 2.683635033795931  8.968496262255448 3.992509072475547 2.779410391332544  8.963549666110868 4.042255946091477 2.79758731486911  8.908980749828478 4.073339856758101 2.70239775104662  8.841212600020709 4.024305650680372 2.812261683004634  8.958618594348721 4.092194028826115 2.815810582417105  8.903804985710346 4.123712351629403 2.721188720606563  8.836894168489238 4.074569616046895 2.829906045595228  8.953672894035131 4.142305310517072 2.83412099183176  8.898603822019675 4.174241179737948 2.74008187731194  8.832556856507283 4.125039009432236 2.847645875211998  8.828154626954319 4.17570064699957 2.865540116899665  8.893343848974583 4.224892920708889 2.759144583969554  8.948665184007591 4.192616678837588 2.852583469980953  8.887972614817221 4.27563985573046 2.778454943097415  8.943545650576706 4.243084699946415 2.871261481109642  8.823619076358034 4.226636111743328 2.883700043952831  8.91969193935979 3.903739148817139 2.853349498971146  8.91514730212038 3.953532003266118 2.870435668089378  8.910680143292728 4.003566914142301 2.887523943345037  8.906236428437648 4.05380924853706 2.904661833501768  8.901776005392803 4.10425729769339 2.921880057969638  8.897260402694561 4.154914808381353 2.939207644853848  8.892628173690408 4.205789038705409 2.956705871656081  10.07303356545648 4.39129259896701 2.294286455527059  10.17362081552194 4.428988149800396 2.293285616341496  10.16102662180116 4.387622928212991 2.425341209123668  10.0912908849652 4.3376395722662 2.280636492539363  10.14258223310031 4.439832418547776 2.441023188711301  10.05495829234815 4.444996229199461 2.307876120673078  10.15409504546793 4.482824691961875 2.307035605870816  10.12415903249523 4.491987974415847 2.456673014682255  10.03691113103212 4.498682833373786 2.32144141077225  10.13464316845184 4.536563084433662 2.320731376813001  10.10558733471603 4.54399922261197 2.472317325697901  10.01871024169592 4.552274814721025 2.335019624975713  10.11508387863723 4.590115813479801 2.334385059974007  10.08667228633378 4.595761974287822 2.488007199088726  10.00014937706115 4.605660742924165 2.348624549402193  10.09519517157963 4.643370066563987 2.347995268948226  9.873732927403314 4.148008157836672 2.474690900669974  9.861480362717664 4.198043321843594 2.49192457935491  9.849326280970676 4.248314970390728 2.509143970986769  9.837192361717957 4.298749474892071 2.526401981220737  9.825013768110258 4.349325922937538 2.543732231741408  9.812710836826236 4.400043003851473 2.561181715470424  9.800143338993369 4.450924067701028 2.578829671517043  9.053182690690637 4.120635273835838 2.301583666107857  8.950787244282248 4.130685335992926 2.242382029309165  8.980347016428576 4.091714841892723 2.375714233287916  8.975051382098368 4.146214383095935 2.394052919473817  8.945141437711648 4.188662905339514 2.257824435179705  9.049001200181372 4.176794122593442 2.318609787903795  8.939502003562557 4.246684332721401 2.273089322690033  9.044768207774073 4.233005068870511 2.335484016661751  8.969764813124435 4.200839531260796 2.412220277747406  9.04051514309017 4.289265172446819 2.352306441445103  8.933859403923124 4.304732436669251 2.288292243490713  8.96446901307967 4.255543930274995 2.430360493302131  9.036267266988869 4.345550985242078 2.369156334703782  8.928218024663467 4.362775307818239 2.303520648206931  8.95916172274411 4.310294816496466 2.448551439281559  9.032055921414846 4.401823008938865 2.386091624735961  8.922588280907171 4.42077107865004 2.318828769636111  8.953852461010056 4.365042626306881 2.466862349922159  9.027922123696797 4.45802939327677 2.403161818627037  8.916983929186062 4.478668329132883 2.334257728100245  8.948561937147277 4.419720070300956 2.48534643236031  9.659417655906273 4.171168869832805 2.27968469104405  9.520644181936355 4.144363148256677 2.318700928808441  9.632321392858941 4.13827429021689 2.374955343907686  9.625935841867722 4.190579217832098 2.391933125406688  9.515882443228129 4.198508539283403 2.334136016707644  9.651706425115792 4.22561859648059 2.293951031472103  9.61948789103797 4.243077685720881 2.408880381016572  9.511016287624972 4.252826930282509 2.349510716771683  9.643973522617371 4.280235791115261 2.308151339223454  9.61299493665445 4.295753565076653 2.425850116184705  9.506097216564289 4.307292029994179 2.364886800226506  9.636219818977638 4.335013954471694 2.322347800796494  9.606484364824892 4.348591075445714 2.442892288704626  9.501176846066349 4.36189370141967 2.380322562715947  9.628456240599043 4.389937915909071 2.336602704813784  9.59998313507201 4.401597142613383 2.460066643491204  9.496312731675852 4.416636074190164 2.395880575924383  9.620693654631079 4.445024451497357 2.350982705050542  9.593537501877188 4.45477796502884 2.477448919443453  9.491582907078898 4.471555659886097 2.411629997661823  9.612938183771709 4.500324460968164 2.365551401160177  9.591897593978487 4.178331694211654 2.20008867992287  9.586058037507293 4.234650123585078 2.21276541079363  9.580139992620342 4.291120004488968 2.225358426768164  9.574181893486543 4.347716685034839 2.237925518915727  9.568217574943775 4.404423143200606 2.250527791673186  9.562286365599332 4.461239010180116 2.263224565064882  9.556478080775488 4.518217537996166 2.276101643280207  8.862097548574022 4.198945441365408 2.38477701218976  8.855124256747047 4.253973424973394 2.403238188377883  8.848127170408159 4.309041778139653 2.4217580462646  8.841081318936194 4.364091943626373 2.440403669549137  8.833976724751812 4.41904833798498 2.459225302540055  10.19863396400362 4.283379111967577 2.393747582619989  10.10991051949587 4.284100320420548 2.266890137897748  10.08574152578158 4.246880955859397 2.37269614378363  10.06743620007448 4.298270148193093 2.388489388878352  10.17965640463456 4.33544421484231 2.40959428517251  10.04946196173671 4.349855267406185 2.404197152980035  10.03163539401807 4.401534441334302 2.419870421457751  10.01380575448613 4.453235239779017 2.435548755618924  9.995807322799834 4.504891831060535 2.451269738829164  9.977410100993945 4.556421399745187 2.467061663432547  9.942172703320498 4.118202327839835 2.609749586008327  9.928972611767602 4.166752545430362 2.628038485418664  9.915903441568744 4.215519587761015 2.646305786101788  9.902843226935254 4.264449422474853 2.664637323232657  9.889722543007592 4.313519494417461 2.683041805869503  9.876446421022882 4.362723427179293 2.701555893935364  9.862867828744408 4.412054954331477 2.720243290804004  8.83591559299548 3.875924852783353 2.917566754690413  8.832161926925526 3.926352244103224 2.933667442111328  8.828488394984484 3.97702182795335 2.949809705238122  8.821222460450592 4.07908275470528 2.982288292506203  8.817530937503598 4.130487904321829 2.998653197739202  8.813725757204644 4.182173485071072 3.0151302116418  9.18357931560975 3.867788679181837 3.046087376060937  9.18694492255568 3.897398516268535 2.951134610793845  9.066681263218545 3.880311400247725 2.963506500834364  9.061931673973703 3.930787963647303 2.979209910218608  9.181546155430897 3.947700258564688 2.967200022486063  9.178434561793267 3.919323418037863 3.061188308255702  9.057237358918375 3.981442316554628 2.994980847751605  9.176180019198766 3.998164767133289 2.983333900876876  9.173327772661684 3.97097294076334 3.076396550226152  9.052567083692338 4.032290452785462 3.01080647613966  9.170826642119618 4.048795561992166 2.99952618442626  9.163156357116385 4.074782827096636 3.106975826829412  9.165460895807737 4.099607284900658 3.015767892996724  9.047884406071102 4.083330411320728 3.026684162623194  9.043152196394562 4.134573197783848 3.042604291277461  9.160051344953406 4.150626127627701 3.032047869352436  9.15801788772997 4.12698551250732 3.122280010074732  9.038337343983169 4.186037952927058 3.058552069055926  9.154530195118271 4.201909586786296 3.048353545352988  8.876142600290281 4.089197535295416 2.347588758868751  8.935689530643861 4.051779869986135 2.46846159703289  8.929370370406893 4.104001315166376 2.488190399427086  8.92312198010079 4.156395323358764 2.507745642488703  8.91687075184668 4.208909855851932 2.52729788074818  8.910595498119452 4.261506365902133 2.546924875514747  8.904276821430173 4.31413181394523 2.566699037297301  8.897888961346347 4.366709731791768 2.586701843752079  9.291741111153348 4.125952838180872 2.333367832747216  9.255734456969449 4.149855558591939 2.242812418410329  9.15631706828624 4.128138333935238 2.30140407491923
[...]
<PointData  Scalars="f_14"> 
<DataArray  type="Float64"  Name="f_14"  format="ascii">-3.2820328447156499e-14  -3.4807234363985784e-14  -3.4581936765422770e-14  1.6221920146626456e-01  1.6113357007291026e-01  1.6035134913264951e-01  3.2507583718849270e-01  3.2456528737794577e-01  3.2466131907000173e-01  4.8994968498809938e-01  4.8964843450345341e-01  4.9013113347955567e-01  6.5736598360509335e-01  6.5653747458871292e-01  6.5672272740443849e-01  8.2762203322514372e-01  8.2588307928381821e-01  8.2501211780688022e-01  1.0000000000001996e+00  1.0000000000001994e+00  1.0000000000002014e+00  -5.8764691212109439e-14  -5.9698958411696622e-14  -6.1664566227697680e-14  1.5617394089983769e-01  1.6114315150701422e-01  1.5998347588600648e-01  3.2192087589958018e-01  3.2453710414961684e-01  3.1630705848172214e-01  4.8636999267171710e-01  4.8968184719577934e-01  4.7996586095827209e-01  6.5377587522695413e-01  6.5678399951969679e-01  6.4754872656675966e-01  8.1992673234982738e-01  8.2631675437164254e-01  8.2480962435769589e-01  1.0000000000001743e+00  1.0000000000001752e+00  1.0000000000001723e+00  -6.0312803595544675e-14  1.5446578353226112e-01  3.1396269363899432e-01  4.7732453689772369e-01  6.4497336070625444e-01  8.1788806024277139e-01  1.0000000000001736e+00  3.3693005895383105e-01  3.4078548718513046e-01  3.4750287952242070e-01  1.6888031031548431e-01  5.1510792856274679e-01  5.0380467611302304e-01  5.0846891105726133e-01  6.8049853132586158e-01  6.6962357479853274e-01  6.7330242211732272e-01  8.4326665101086951e-01  8.3475093052803384e-01  8.3600107543986912e-01  1.0000000000002047e+00  1.0000000000002027e+00  1.0000000000002052e+00  -3.7217708082653590e-14  1.5657155166494852e-01  3.1733419921532563e-01  4.8139817324043988e-01  6.4899377857941354e-01  8.2093932001365599e-01  1.0000000000001970e+00  -5.5327239851094837e-14  -5.7513568634148331e-14  -5.7274020255495690e-14  1.8196863875560568e-01  1.8935499649459689e-01  1.8072813927166181e-01  3.6723618891918519e-01  3.5571766666582172e-01  3.5616683661223764e-01  5.2503899993324810e-01  5.3715441331204317e-01  5.2520036885317012e-01  6.8886919588760120e-01  6.9980807593513394e-01  6.8942586685572127e-01  8.4725839149813842e-01  8.5484829241813709e-01  8.4847743270805609e-01  1.0000000000001787e+00  1.0000000000001765e+00  1.0000000000001767e+00  -4.1550099462688452e-14  -4.4707542440634598e-14  -4.2356329436592639e-14  1.6253261312274572e-01  1.6822765523747885e-01  1.6814643214146976e-01  3.2640109095958647e-01  3.3481849303611688e-01  3.3369742606082514e-01  4.9179650037546624e-01  5.0118122457224323e-01  4.9956476107497855e-01  6.5907863804937872e-01  6.6756841564206582e-01  6.6634143403487989e-01  8.2856727091180249e-01  8.3394855529814249e-01  8.3411831785336332e-01  1.0000000000001918e+00  1.0000000000001894e+00  1.0000000000001925e+00  -4.2872379706905230e-14  1.5979229519799543e-01  3.2487881039313754e-01  4.9060718701179640e-01  6.5663930229502865e-01  8.2410189232771214e-01  1.0000000000001912e+00  3.5727935750931406e-01  5.2659147996291766e-01  6.9077754683285209e-01  8.4936180379565585e-01  1.0000000000001745e+00  -2.9532368298148279e-14  -3.1441320161493918e-14  -3.2181477566921188e-14  1.6864854179569533e-01  1.7698323582308698e-01  3.3538550037125958e-01  5.0176757438171904e-01  6.6815302502916618e-01  8.3464852866468675e-01  1.0000000000002018e+00  -3.5938803695870907e-14  1.5765979612729877e-01  3.1797417102030739e-01  4.8179634946138977e-01  6.4972252363966865e-01  8.2244568063992152e-01  1.0000000000001983e+00  -6.2435852360288703e-14  1.5415783434345798e-01  3.1251750430677305e-01  6.4328783672384293e-01  8.1735089582971565e-01  1.0000000000001716e+00  -5.4733471005766659e-14  -5.4375636838457784e-14  -5.7238219617195321e-14  1.5350130584671112e-01  1.5783498053591408e-01  1.5836709220710660e-01  3.1267872699026705e-01  3.1869259406351397e-01  3.2006911296628199e-01  4.7591071762948900e-01  4.8265050172875673e-01  6.5193880232150025e-01  6.5016441021581939e-01  6.4340427589431837e-01  8.1648782049160840e-01  8.2203266054260959e-01  8.2303976978260385e-01  1.0000000000001767e+00  1.0000000000001796e+00  -5.9627833124598850e-14  -5.8661037513952885e-14  1.7317134789034350e-01  3.4363759088953921e-01  5.1156093369414313e-01  6.7705290855066502e-01  8.3998098381984854e-01  1.0000000000001754e+00  -4.9923064297889586e-14  -5.0495547668474407e-14  -5.2944586889874930e-14  1.7969023375782295e-01  1.7861325532092670e-01  1.7521653551201216e-01  3.5338413850698486e-01  3.5196422105802716e-01  3.4628997355936192e-01  5.2219601865742782e-01  5.2075816956664656e-01  5.1432982465722554e-01  6.8634205753970956e-01  6.8523161466677240e-01  6.7950902584663198e-01  8.4575314142515312e-01  8.4533902679168715e-01  8.4168827227210230e-01  1.0000000000001812e+00  1.0000000000001836e+00  1.0000000000001841e+00  -3.8402704603330651e-14  1.5249781710182661e-01  3.1105738351951590e-01  4.7407366016181368e-01  6.4179523721365872e-01  8.1544604518102093e-01  1.0000000000001958e+00  -5.1945143638356688e-14  1.7478061524762903e-01  3.4537649435657097e-01  5.1320440654658495e-01  6.7855579255778120e-01  8.4125233029090529e-01  1.0000000000001821e+00  -6.1155817282128748e-14  1.7311495250649619e-01  6.7629368260932099e-01  8.3978589130585835e-01  1.0000000000001730e+00  -4.4130786695420830e-14  -4.3807863844683434e-14  -4.6564869104991688e-14  1.6291078665642361e-01  1.6166844123386301e-01  1.6637273955114898e-01  3.2696836613724584e-01  3.2531955670019069e-01  3.3306316721538670e-01  4.9244672678562718e-01  4.9061268162482563e-01  -4.4309760449219034e-14  1.6067318272358272e-01  3.2401232847845757e-01  4.8917311473674313e-01  6.5624011086565170e-01  8.2578296506980464e-01  1.0000000000001898e+00  -3.7246670928373240e-14  -3.9666781739583013e-14  1.5755449267457974e-01  1.6187397925811153e-01  3.1936127896168998e-01  3.2504000952824685e-01  4.8386648423539258e-01  4.9011750279626887e-01  6.5111260854282349e-01  6.5750673491597988e-01  8.2187526442982395e-01  8.2762092272238075e-01  1.0000000000001945e+00  1.0000000000001970e+00  -3.8570418430523648e-14  -4.1584469809756765e-14  -4.1871313768561898e-14  1.6311788251929873e-01  1.6670347659456961e-01  1.7280154762999045e-01  3.2784894809277082e-01  3.3270968359360226e-01  -4.5230416729316347e-14  1.6946674413972196e-01  3.3751335075210698e-01  5.0448046620502074e-01  6.7043393098669390e-01  8.3568672556720625e-01  1.0000000000001890e+00  -3.9577989879686913e-14  1.5780212655611175e-01  3.1810316683253131e-01  4.8197106761655800e-01  6.4981024613797644e-01  8.2236548984605462e-01  1.0000000000001945e+00  8.1819150959252007e-01  8.1509838152366887e-01  6.4449055028244873e-01  1.0000000000001739e+00  1.0000000000001705e+00  3.2350116420136227e-01  4.8843579475469162e-01  6.5550707493264671e-01  8.2527514187319295e-01  1.0000000000001721e+00  -4.9428477349460774e-14  -5.2173691123667305e-14  -5.2143923209527237e-14  1.5999289542532688e-01  -6.0225138454904546e-14  1.5439978617438893e-01  3.1339573408641103e-01  4.7659053698242643e-01  -4.6727936185536664e-14  1.6606195675758539e-01  3.3205663143895453e-01  4.9826961994089064e-01  6.6486888149381973e-01  8.3198477666037995e-01  1.0000000000001874e+00  -5.4562709249626976e-14  1.7723578273584067e-01  3.4956843798622689e-01  5.1795014447785170e-01  6.8255708491584843e-01  8.4332212606118095e-01  1.0000000000001794e+00  3.2933162053142817e-01  3.2172925578134920e-01  3.2947021862602566e-01  1.5901249109003684e-01  4.9537513043579567e-01  4.9493651013887963e-01  4.8643716986524416e-01  6.6185155715421462e-01  6.6160098078394969e-01  6.5323039121926063e-01  8.2945870200538596e-01  8.2965542448618923e-01  8.2307018426957579e-01  1.0000000000002010e+00  1.0000000000001987e+00  1.0000000000002018e+00  -3.9500424584547554e-14  1.5874956069288207e-01  3.2072191819763762e-01  4.9364344286546952e-01  4.8524357012900238e-01  4.9882362146029480e-01  6.6061366050054893e-01  6.5260659060296600e-01  6.6542496948896046e-01  8.2907033725245738e-01  8.2352160713763634e-01  8.3264459221421372e-01  1.0000000000001925e+00  1.0000000000001947e+00  1.0000000000001956e+00  -2.7316096779640976e-14  -2.8068618674069536e-14  -2.9936550496983076e-14  1.6136627628382386e-01  1.6944517133899081e-01  1.6467421405598714e-01  3.3618246406922869e-01  3.2593269241404410e-01  6.6872062754748540e-01  6.5764639411470172e-01  6.6277547461128350e-01  8.3528314419157124e-01  8.2568230656612895e-01  8.2942367667291772e-01  1.0000000000002069e+00  1.0000000000002063e+00  -4.7209958415970750e-14  -4.8098774644862713e-14  1.7316072702570259e-01  1.7214666574166720e-01  3.4419026871121328e-01  3.4098548188336558e-01  5.1224717408958820e-01  5.0817361795348925e-01  6.7738406255304162e-01  6.7400083771163910e-01  8.3975929568529595e-01  8.3833386279304778e-01  1.0000000000001861e+00  1.0000000000001870e+00  -6.0286048716564333e-14  1.6583311333645981e-01  3.3215494455581224e-01  6.6505703167223995e-01  8.3192749133482602e-01  1.0000000000001739e+00  -4.5793013074737118e-14  1.6182448222149484e-01  3.2517353208269778e-01  4.9026029925462039e-01  6.5745590592675063e-01  8.2713902060091127e-01  1.0000000000001883e+00  -2.9204064693774507e-14  -3.0144632503272088e-14  -3.1629908890678871e-14  1.5819999147146152e-01  1.6309458171921504e-01  1.6134987163527853e-01  3.1972826770688900e-01  3.2708316892353689e-01  3.2486629342727874e-01  4.8397867714875670e-01  4.9240839205285292e-01  4.8996634036623177e-01  6.5121024820088314e-01  6.5946252801513028e-01  6.5686358547273049e-01  8.2223965613105121e-01  8.2864080600407652e-01  8.2614505979581199e-01  1.0000000000002025e+00  1.0000000000002041e+00  1.0000000000002049e+00  -3.4147867191023839e-14  -3.5024174405917887e-14  -3.6641964715519720e-14  1.5908039681322741e-01  1.5367866957693543e-01  1.5714505409575119e-01  3.1938748675018686e-01  3.1298002421019250e-01  3.1757901428326435e-01  4.8318494752793284e-01  4.7628503428895480e-01  4.8136621580054118e-01  6.5127974331625282e-01  6.4388616563081225e-01  6.4896116347901334e-01  8.2416324378453709e-01  8.1701138935520912e-01  8.2115626982856582e-01  1.0000000000001976e+00  1.0000000000001992e+00  1.0000000000002001e+00  -2.4180071592248972e-14  -2.5451388975882923e-14  -2.6686415065801280e-14  1.6644112647852594e-01  1.6981387916762153e-01  1.6780782058931829e-01  3.3213605273987662e-01  3.3726602381651594e-01  -3.5580995463982958e-14  -3.8138496213686183e-14  1.5505760383547532e-01  1.5689004062095258e-01  3.1487450733761901e-01  3.1755914578508132e-01  4.7842656981996678e-01  4.8144701349225832e-01  6.4598139609281469e-01  6.4896530484406112e-01  8.1852253129283181e-01  8.2098493561833574e-01  1.0000000000001961e+00  1.0000000000001985e+00  -2.9437405813157599e-14  -3.0694891110712579e-14  1.7125243137610677e-01  1.6207552089888436e-01  3.3733932115313497e-01  3.2619058145524693e-01  5.0335038143072963e-01  4.9140794813032157e-01  4.9132241349622496e-01  6.6998724280078981e-01  6.5811060500185592e-01  8.3703793554615413e-01  8.2704163103507033e-01  1.0000000000002036e+00  1.0000000000002047e+00  -5.7956229395724743e-14  1.5754786483481018e-01  3.1785476198740087e-01  4.8154564844495018e-01  6.4916197890347704e-01  8.2149904990401734e-01  1.0000000000001761e+00  -4.7541273870981612e-14  -4.8332145572526360e-14  -5.0054287661164737e-14  1.5905522703518285e-01  1.5823081979572381e-01  1.5839789867531515e-01  3.2074984157563846e-01  3.1942771434796541e-01  3.2002166409211108e-01  4.8513804349311673e-01  4.8358793963885571e-01  4.8439798051211636e-01  6.5262654718670265e-01  6.5109779429107006e-01  6.5182628661235276e-01  8.2381637413683684e-01  8.2264142387531280e-01  8.2301689720259186e-01  1.0000000000001841e+00  1.0000000000001859e+00  1.0000000000001865e+00  -4.0895496577085210e-14  -4.1577889147923820e-14  -4.3317189582974728e-14  1.5934397901158909e-01  1.5633981760493193e-01  1.5391707692770160e-01  3.2075468697449472e-01  3.1726474454957931e-01  3.1307187129051944e-01  4.8510335197679416e-01  4.8135902868256619e-01  4.7633601380671875e-01  6.5286536351127000e-01  6.4883243250449518e-01  6.4406957998399461e-01  8.2453095862747883e-01  8.2061784331261589e-01  8.1733547667047646e-01  1.0000000000001907e+00  1.0000000000001925e+00  1.0000000000001932e+00  -4.5969037155410516e-14  -4.6700216684921909e-14  1.5720715143111472e-01  1.5720312722948931e-01  3.1812228608319043e-01  3.1781633093840750e-01  4.8215937292922817e-01  4.8170125807832753e-01  6.4964652583630156e-01  6.4927306995610445e-01  8.2137293765879782e-01  8.2137066000734504e-01  1.0000000000001874e+00  1.0000000000001881e+00  -4.2446841091009020e-14  -4.5011891413938259e-14  1.5874166561938677e-01  1.5349694495066019e-01  3.1998499532594060e-01  3.1265357604366079e-01  4.8416091399806599e-01  4.7595455214341936e-01  6.5174654274711974e-01  6.4371984139700811e-01  8.2337273212656914e-01  8.1702568307243972e-01  1.0000000000001892e+00  1.0000000000001916e+00  -4.0151286817145765e-14  1.6335553845854409e-01  3.2857279612327783e-01  4.9434418176730954e-01  6.6075728478248907e-01  8.2847900606077840e-01  1.0000000000001938e+00  -3.6887928986590370e-14  1.6038665374505026e-01  3.2290227829166984e-01  4.8760488087857984e-01  6.5493577595274888e-01  8.2543296469117355e-01  1.0000000000001972e+00  -3.0552677268299316e-14  -3.3215156172940497e-14  1.5663257657380464e-01  1.6403683726607599e-01  3.1777359070022221e-01  3.2745392418073593e-01  4.8180839367088241e-01  4.9246809551413978e-01  6.4904745527895513e-01  6.5968574377439104e-01  8.2053138257537162e-01  8.2942381178923552e-01  1.0000000000002010e+00  1.0000000000002036e+00  -5.6065447801922196e-14  -5.6915829318571176e-14  1.6395639781665539e-01  1.6055826145953389e-01  3.2827469795493486e-01  3.2287018863958805e-01  4.9373695438223919e-01  4.8748901909598702e-01  6.6068677118100505e-01  6.5490621773104241e-01  8.2938558924439498e-01  8.2563277224612830e-01  1.0000000000001772e+00  1.0000000000001781e+00  -4.9319226828165678e-14  1.7151895110596871e-01  3.4015024122334453e-01  5.0740669217430423e-01  6.7356642720640703e-01  8.3838672623055599e-01  1.0000000000001847e+00  -2.5497416890166148e-14  -2.8228101715023579e-14  1.6185087602705694e-01  1.6856798800624190e-01  3.2598544164113052e-01  3.3493667632599766e-01  4.9133372992618102e-01  4.9802256439905140e-01  5.0092872270035871e-01  6.5808505221802382e-01  -5.7875890825380568e-14  1.6686880804760384e-01  3.3351611505270906e-01  4.9854881599304141e-01  4.9998935873115602e-01  6.6642780018674308e-01  8.3295208760545447e-01  1.0000000000001761e+00  1.7324551879117492e-01  1.7770165929368245e-01  3.4981732115776132e-01  3.4194824620467396e-01  5.1794944480479854e-01  5.0903326220715839e-01  6.8260052880001276e-01  6.7500667424547689e-01  8.4373465898010114e-01  8.3982808104106543e-01  1.0000000000002041e+00  1.0000000000002012e+00  1.6051285329129220e-01  3.2344277242767866e-01  4.8841982524162197e-01  6.5564682797814811e-01  8.2561779875134189e-01  1.0000000000001845e+00  1.0000000000001736e+00  1.0000000000001750e+00  -4.4137423225032347e-14  1.5576571524115115e-01  3.1550447871039250e-01  4.7905004709092885e-01  6.4677856386125399e-01  8.1958762198532664e-01  1.0000000000001901e+00  -3.2301379017984750e-14  -3.4590931942648339e-14  -3.5412732476544371e-14  1.6238339044169509e-01  1.6454094840041661e-01  3.2511010277075875e-01  4.8991764982362568e-01  6.5726551734785288e-01  8.2762847186571697e-01  1.0000000000001996e+00  -2.6355697554839814e-14  -2.7837870679880014e-14  1.6479900689922325e-01  1.6962902562884430e-01  3.3040915584087849e-01  3.3768299056653539e-01  4.9632384716370692e-01  5.0432672250585253e-01  5.0361701312563378e-01  6.6277251053274255e-01  6.6988178318792835e-01  6.6933662626747403e-01  8.3019437932411300e-01  8.3471063262380540e-01  8.3483208169247280e-01  1.0000000000002065e+00  1.0000000000002078e+00  1.0000000000002087e+00  -4.8459820900073919e-14  1.6495346902150632e-01  3.3031002325338599e-01  4.9630505884272291e-01  6.6313649543689823e-01  8.3097309367350680e-01  1.0000000000001856e+00  -3.7692133130654326e-14  -3.8662770798376615e-14  1.6425636219653200e-01  1.6484810843640180e-01  3.2898216029091570e-01  3.3043543989124641e-01  4.9457327566218362e-01  4.9639190985060505e-01  6.6142640948627907e-01  6.6294931369177179e-01  8.2980079031956899e-01  8.3063361952092563e-01  1.0000000000001954e+00  1.0000000000001965e+00  -5.0998771722530865e-14  -5.3526398104912270e-14  1.7215962541658114e-01  1.6617655744936222e-01  3.4126502025230970e-01  3.3287539803618293e-01  5.0859704459908384e-01  4.9936862273777816e-01  6.7444326376006902e-01  6.6570832906108934e-01  8.3865144735987485e-01  8.3214037206736868e-01  1.0000000000001805e+00  1.0000000000001830e+00  -5.2615010975839932e-14  -5.5189207309070717e-14  1.6696787341533592e-01  1.6464572212710130e-01  3.3362934107702130e-01  3.2988093993032497e-01  5.0009494607256932e-01  4.9573735688845838e-01  6.6659781104601046e-01  6.6239585575501880e-01  8.3327580968067749e-01  8.3015262913219268e-01  1.0000000000001790e+00  1.0000000000001814e+00  -5.4366785986051132e-14  1.6162726926161899e-01  3.2515369004349809e-01  4.9027259004637369e-01  6.5721498454796790e-01  8.2649918425902114e-01  1.0000000000001796e+00  -3.5335323837832501e-14  -3.6455394705730452e-14  1.6741608055691282e-01  1.6224955275303507e-01  3.3261487896370323e-01  3.2762649231376989e-01  4.9833197419084668e-01  4.9345597442229455e-01  6.6513276815471101e-01  6.5960332574743663e-01  8.3311143325628134e-01  8.2685214274134622e-01  1.0000000000001976e+00  1.0000000000001987e+00  -4.7543780830425134e-14  -4.9209193198441065e-14  1.6059852680274930e-01  1.6059926058622961e-01  3.2306576676652166e-01  3.2348294740390254e-01  4.8781041354870819e-01  4.8841295428892906e-01  6.5521569361482490e-01  6.5566169200640123e-01  8.2574350122888740e-01  8.2570053163347756e-01  1.0000000000001850e+00  1.0000000000001865e+00  -3.3925071343975210e-14  1.6208392474021188e-01  3.2727116159892056e-01  4.9305156946046952e-01  6.5938211293371540e-01  8.2708421400072307e-01  1.0000000000002003e+00  3.2202035933392792e-01  4.8651213521209780e-01  6.5386732435265460e-01  8.2464568036472308e-01  1.0000000000001819e+00  -5.6111223632913745e-14  1.7729133240617395e-01  3.4818129619289356e-01  5.1618538453726337e-01  6.8170336351439875e-01  8.4410889195687844e-01  1.0000000000001779e+00  -2.6862551262534904e-14  1.6775785756340433e-01  3.3310639257128732e-01  4.9884336584401251e-01  6.6549384169296222e-01  -3.7584465419461350e-14  -3.9094427999780708e-14  1.5375694781705865e-01  1.5080551708762260e-01  3.1250208606890845e-01  3.0874671198925213e-01  4.7556877215282728e-01  4.7145391741345594e-01  6.4336923666509294e-01  6.3916368589936901e-01  8.1696666651416883e-01  8.1331556971200192e-01  1.0000000000001950e+00  1.0000000000001965e+00  -3.1144929951121689e-14  -3.2675640399997610e-14  1.5754553993781786e-01  1.6382734297295620e-01  3.1864421356281530e-01  3.2827657132077542e-01  4.8276325454606411e-01  4.9382156750248302e-01  6.5013414298978567e-01  6.6087580347121400e-01  8.2161236272315208e-01  8.2970389658999966e-01  1.0000000000002014e+00  1.0000000000002029e+00  8.3328516299439259e-01  1.0000000000002074e+00  1.0000000000001714e+00  -5.4805343127769726e-14  1.8904791629157533e-01  3.6624253382144284e-01  5.3589162200770668e-01  6.9864600067534177e-01  -2.4356285117134980e-14  -2.5410300026342715e-14  1.6450293136536259e-01  1.6209883533400321e-01  3.2948745473460761e-01  6.6445236426029608e-01  8.3177135225094423e-01  1.0000000000002076e+00  -4.2193353723109403e-14  1.6070071498540028e-01  3.2304148547424810e-01  4.8781862659124048e-01  6.5542144620892118e-01  6.5772432829124905e-01  8.2618627754162066e-01  8.2704277316451036e-01  1.0000000000001918e+00  1.0000000000001903e+00  -2.8690369744155544e-14  1.7006517774499882e-01  3.3709951979317587e-01  5.0360021169347913e-01  6.7002117983963361e-01  8.3620787571278643e-01  1.0000000000002056e+00  -3.6945700407191067e-14  -3.355413645390648