<?xml version="1.0"?>
<VTKFile type="UnstructuredGrid"  version="0.1"  >
<UnstructuredGrid>
<Piece  NumberOfPoints="954" NumberOfCells="4057">
<Points>
<DataArray  type="Float64"  NumberOfComponents="3"  format="ascii">7.632856450548441 1.760811300761715 1.222590031346605  7.521914807488933 1.743486294555148 1.227971490240614  7.592825639395671 1.839040631407414 1.173086843561535  7.598097963276611 1.807714516921841 1.117446607790699  7.521581533607165 1.706151084868306 1.174838250531894  7.638520172098516 1.727387453391457 1.167547185323881  7.60334205708584 1.776167188127122 1.061658841556841  7.521028494840163 1.668602094109703 1.121631693086387  7.644147244532736 1.693714111286037 1.11239771818749  7.60857249621359 1.744534873525738 1.005734562115162  7.520415214065998 1.63095667681793 1.068336397332083  7.649759420874334 1.659957811951161 1.05713556009956  7.613798681672336 1.712899549786171 0.9496682641267675  7.519831619537139 1.59328964959122 1.014942182085192  7.655365129714078 1.626203956059272 1.001740511105749  7.619070439087767 1.681278148094266 0.8934442334316332  7.519352835508276 1.555628267869692 0.9614332535802456  7.661002916036892 1.592476613743852 0.9461955495433535  7.624393526737684 1.649646041874887 0.8370570859679677  7.519019858611442 1.517976982750804 0.907796377327169  7.666681897620948 1.558764533492915 0.8904496325765822  8.305618931698151 2.437596726836075 1.136657103369128  8.210760883467648 2.376532609860462 1.123834859305424  8.245503399695226 2.509216825462968 1.078048599523687  8.265887319538253 2.485063386867563 1.027707646523515  8.231995623221341 2.354360038078393 1.074157730992279  8.326123310864117 2.414487322975192 1.087466876181903  8.346943641936415 2.391334013418923 1.038511361230087  8.25357913382863 2.33217968003205 1.024691101751453  8.286561723710847 2.46088001826117 0.9775931213226514  8.367909066074732 2.368195192328478 0.9897336669876637  8.275321918472695 2.310023939304246 0.9753578403807358  8.307374470301577 2.436707757164487 0.9276189890802244  8.388868600134094 2.345105814910148 0.9410618466260517  8.29705729271126 2.287909844346782 0.926084461623786  8.328181595813639 2.412573907803214 0.8777236645934708  8.409640278283465 2.322094666690491 0.8924143335925451  8.31859437079555 2.265834881063811 0.8767928954715665  8.348827014309174 2.38849829605071 0.8278331544687185  8.429927369203199 2.299126908727474 0.8436902597669693  8.339665234843554 2.243714226719836 0.8273842286329044  8.369075514718832 2.364445447135188 0.7778836751048661  7.476359307639264 1.85181585383079 1.153312459322791  7.476356730643728 1.82007763823753 1.097283870065856  7.476147369548733 1.788146305151656 1.041144941496576  7.475881832168769 1.756154599957035 0.9849373327166981  7.475659927350972 1.724149334745592 0.9286181299206919  7.475562102002895 1.692157535251241 0.8721456145327247  7.475593939674503 1.660162987283842 0.8154942206927209  8.123911585525306 1.87816676617412 1.303442640614055  8.150126066475904 1.796513122903549 1.359444451037346  8.045334439157614 1.772608939384607 1.330546777305777  8.065998367639983 1.74053567769721 1.281468532499042  8.172461213226619 1.766701082985099 1.31055482398261  8.146208614351149 1.852174817350505 1.253392516292794  8.168976577771245 1.826219387498128 1.203512229567763  8.195251652549972 1.736961790295053 1.261833260656557  8.087078922816859 1.708447012705029 1.232476021819288  8.191927852891995 1.800292476011616 1.153694158562694  8.218200712564613 1.707258654785851 1.213172578298024  8.10830249324675 1.676351073039542 1.183493045128693  8.214837794739724 1.77437633027866 1.103867046364116  8.241092622643544 1.677562443071595 1.164506842974181  8.129483229298184 1.644239161101818 1.134463720597305  8.237502537230304 1.748441222430595 1.053957543271778  8.263735675148762 1.647843859276683 1.115767720236344  8.150480439204902 1.612095672636041 1.085329405160609  8.259722339917534 1.722453001902267 1.003844018526849  8.285941987834033 1.61805616245787 1.066859795158353  8.171193293710525 1.579894253044718 1.036015003006528  8.134033103556552 2.472916088419065 1.048689527897003  8.155020676193143 2.449742987836728 0.997560486013961  8.176319630293458 2.426567572779487 0.9465924480265687  8.197761537437239 2.403410809631511 0.8957139500780704  8.219200967709458 2.380281987425977 0.8448654613600289  8.240480681730372 2.357166542598667 0.7939900454746847  8.261401364276262 2.333977218367616 0.7430391667422799  8.015431768323159 1.878715263999673 1.257673603897971  8.036114937528902 1.852270444445603 1.206377632847339  8.057248081882149 1.82580908007793 1.155170615909408  8.078538577614413 1.799342711403845 1.103969486286376  8.099786830161184 1.772870712021912 1.052715124765182  8.120828433477826 1.746375176035588 1.00134312995669  8.141543447289239 1.719835694641916 0.949773298970738  7.573683407230686 1.930914131683129 1.124837920521305  7.578822283671053 1.903918958192312 1.067678735460079  7.58390983009172 1.876772642627375 1.010346865643891  7.588982140591015 1.849545990394727 0.9528642383563317  7.594062164675286 1.822307317789062 0.8952403945726124  7.599193754906136 1.795055700045055 0.8374595926993131  7.604376650963666 1.767790218675168 0.7795105445516183  7.791810683480469 2.455633156735022 0.9357794172773297  7.763415218837585 2.360539852025566 0.9689824047414825  7.649167272342809 2.401352040697841 0.9258245031846253  7.660466316685352 2.377906629964961 0.8678557877103177  7.778127483448012 2.336741846726024 0.9133150219925097  7.807067973626362 2.433202385520922 0.8789807367162445  7.671834633537833 2.354560575907408 0.8096823527687232  7.793030876773267 2.313016370776336 0.8574945169393816  7.822493180636093 2.41086324509821 0.8220647573990675  7.683246118444786 2.331205142721842 0.7513865001498393  7.808012057184181 2.289277595584179 0.8015773137155549  7.837987793051381 2.388508517258253 0.7650721589891575  7.694661868934222 2.307742440012249 0.6930060031365229  7.822984194293552 2.265451317344752 0.7455811873498956  7.853473807298528 2.366064903672807 0.7080202393201822  7.706084265318697 2.284103787651047 0.6345578542319497  7.837892216497607 2.241480281635605 0.6894983886875171  7.868909101270495 2.343480239800865 0.6509071630953946  7.717538561033838 2.260237422774019 0.5760531033462037  7.852760802273172 2.217271699696043 0.6333289178796019  7.884302008741065 2.320686796799289 0.5937216827035011  8.698288937933471 1.575558967047648 1.73512157806629  8.766631400483035 1.637067907472023 1.664894461659077  8.65473328507302 1.660831013468795 1.609796754147653  8.752879612485351 1.682959803461145 1.700281860557841  8.780477673391578 1.591458368555262 1.629480699635779  7.458763178634019 1.955412422415264 1.105927801190667  7.459358907573159 1.928289164958855 1.048697146139642  7.459744885593843 1.90100012247221 0.9913005660968363  7.460069897607793 1.873642858537809 0.933793905247373  7.460436770251304 1.846250167407982 0.8761770308657798  7.460916479809441 1.818863122190676 0.8184118060401904  7.461533094774884 1.791492248776516 0.7604377451040132  7.723011050247581 2.426403679444539 0.6500519189869269  7.73519238985786 2.404475904619869 0.5902816623442636  7.747396635260458 2.382324097726066 0.5304843280059914  7.837305935212329 2.468312272090426 0.6617814640995107  7.85206972186723 2.447272234261938 0.6027842639753866  7.866807248951844 2.426035738732293 0.5437620026606503  8.656877247734389 2.642353599509046 1.135778512343985  8.551643646470774 2.607757546043326 1.134708912795387  8.622366310451055 2.725292676421732 1.076156905911098  8.632324920862798 2.693490284586971 1.02452570283136  8.564664314789425 2.578651407838798 1.085362442204406  8.666196257331361 2.610794300516967 1.086712692723889  8.642388404522517 2.661548463704356 0.9731824355556683  8.577848492892812 2.549435016470689 1.036273601666172  8.675630437429103 2.579111451691129 1.037909547856906  8.652490720282376 2.629560775446691 0.922044913174605  8.591105048705362 2.520187888471965 0.9874087408556567  8.685109170399459 2.547391256269032 0.9893241945219544  8.662575614630336 2.597616376625835 0.8710510496532267  8.604356246146518 2.490989852481631 0.938701091492484  8.595598407681374 1.382675581219463 1.41529309389566  8.643538787087591 1.496001153367279 1.328155088106125  8.530897615744875 1.419880368020604 1.346690594635085  8.626763794228305 1.533824276112732 1.3706981845585  8.207328849189709 2.59590427500849 1.022262965121642  8.227352141393345 2.571457295385828 0.9699949474416264  8.247642617758144 2.546969195752479 0.9178984536832218  8.268055223925131 2.522479817531377 0.8659187985671136  8.288467134397896 2.498014486878652 0.8140028432842722  8.30875665399866 2.473592154891935 0.7620929600535313  8.328738569362562 2.449178395522789 0.7101475300874209  7.928112293015106 1.793367671968055 1.270065571631445  7.946656529599596 1.762227116959582 1.218746944584642  7.965581168223803 1.731012826517156 1.16745225382285  7.984618123629766 1.699765189970908 1.11611714717432  8.003606594955491 1.668498318958701 1.064698505572466  8.022437211294838 1.63722120120918 1.013148665821605  8.041032446428403 1.60592935380067 0.961420855664283  8.659675026387971 2.55925861245671 1.188908486142513  8.670047858566569 2.53046165206439 1.140530548032213  8.68054967697238 2.501560273210545 1.092422376997082  8.691114312527773 2.4726330004506 1.044549532392621  8.701668686670438 2.443759624187404 0.9968604765367659  8.540293082437406 1.723475914761895 1.584821494533692  8.416996527306404 1.66770500187174 1.59008581357821  8.43343928058383 1.753383099845516 1.519844603302814  8.45280273368302 1.718749179587688 1.474510517242627  8.435801780409346 1.626139567422804 1.54937999286542  8.557418549314114 1.685237155451171 1.541808836514777  8.472496424399182 1.68434299551371 1.42931140332363  8.454915380750698 1.58480019824834 1.508743102896494  8.57477767295696 1.6472381176803 1.49888454987289  8.492329165293851 1.650064741339319 1.384219757739023  8.474154335045254 1.543569489
[...]
<PointData  Scalars="f_14"> 
<DataArray  type="Float64"  Name="f_14"  format="ascii">-9.1358576753044227e-14  -9.3750979146205093e-14  -9.1904983890093024e-14  1.9941875962066030e-01  2.0707536166497245e-01  2.0751694749854863e-01  3.8456292055209451e-01  3.9511395913399938e-01  3.9585126856866565e-01  5.5611068032213173e-01  5.6703188577605335e-01  5.6770648728095852e-01  7.1520846600169563e-01  7.2467084195048048e-01  7.2506607292851410e-01  8.6291549162487047e-01  8.6897381813825902e-01  8.6930833787486284e-01  1.0000000000001421e+00  1.0000000000001401e+00  1.0000000000001426e+00  -7.3952285056248574e-14  -7.6282146540138347e-14  -7.5029915073626552e-14  1.6080623363082727e-01  1.6297157077573637e-01  1.5628137054234764e-01  3.1691919913212202e-01  3.2693272883975971e-01  3.2419061164189245e-01  4.8089263419400996e-01  4.9220581491235671e-01  4.8925992031646287e-01  6.4849532014700062e-01  6.5916155618648664e-01  6.5614606806418363e-01  8.2055409589136863e-01  8.2823834959168974e-01  8.2549666769796026e-01  1.0000000000001603e+00  1.0000000000001579e+00  1.0000000000001592e+00  -9.4305522828805656e-14  2.1575492192649204e-01  4.0109550626541979e-01  5.7195413114767191e-01  7.3067807064714052e-01  8.7657293171098882e-01  1.0000000000001397e+00  -8.0428613271734771e-14  -8.0276553874030287e-14  -8.2618143336403074e-14  1.9886406680340341e-01  1.9766065297976929e-01  1.8840374947803068e-01  3.6599518738873160e-01  3.7836715949068106e-01  3.8209868094516086e-01  5.3567592135136666e-01  5.4870491304888425e-01  5.5289940906563173e-01  6.9818844374638900e-01  7.0993746087154397e-01  7.1256544939141819e-01  8.5368552771637451e-01  8.6203936068462750e-01  8.6171244063788066e-01  1.0000000000001537e+00  1.0000000000001539e+00  1.0000000000001514e+00  -7.7639895303022108e-14  1.6781296967380699e-01  3.3481782940332827e-01  5.0120363320697159e-01  6.6728994999135038e-01  8.3349026632608580e-01  1.0000000000001565e+00  -8.2764039824953732e-14  1.9231375746063453e-01  3.7209922333602374e-01  5.4222014419144193e-01  7.0360268387838310e-01  8.5657508375186797e-01  1.0000000000001514e+00  -9.1981410382522024e-14  1.9103603066890962e-01  3.7218484522942186e-01  5.4289515422233048e-01  7.0388137666115813e-01  8.5605635540444658e-01  1.0000000000001421e+00  -8.5420888312997334e-14  -8.6364474704727829e-14  -8.8737927243705497e-14  1.8718010487756490e-01  1.8236577500020693e-01  1.8759032824745134e-01  3.6478488213263693e-01  3.5729276351791261e-01  3.6408055518346927e-01  5.3452629277923425e-01  5.2632153789310754e-01  5.3344517689941551e-01  6.9695479973135266e-01  6.8986736541948313e-01  6.9645202425222263e-01  8.5238911954854035e-01  8.4814050169354116e-01  8.5297406311693713e-01  1.0000000000001452e+00  1.0000000000001477e+00  1.0000000000001485e+00  1.9122957161133119e-01  2.1351518675464745e-01  1.8492078570605791e-01  -6.8063229740787225e-14  3.9710630879977787e-01  -9.4330042500334757e-14  1.9183856009670766e-01  3.7176332840124332e-01  5.4191357702110032e-01  7.0318916139006848e-01  8.5612537456078341e-01  1.0000000000001397e+00  6.9910928335147060e-01  8.5308217388419916e-01  1.0000000000001463e+00  6.9797639767567698e-01  8.5291241844634091e-01  1.0000000000001488e+00  -6.5909191835607812e-14  -6.8184840726022750e-14  -6.6380832668112950e-14  1.6218855391637774e-01  1.4813096043150009e-01  1.5350647052782376e-01  3.2582492031674098e-01  3.0492028777460412e-01  3.1239285199571504e-01  4.9168663457631767e-01  4.6757270114411609e-01  4.7622379517597918e-01  6.5985553304895939e-01  6.3600763982029473e-01  1.0000000000001601e+00  1.0000000000001614e+00  1.0000000000001588e+00  8.5826300924741072e-01  -7.5602776803241000e-14  1.6555937335308687e-01  3.3228518210256386e-01  4.9871243973859447e-01  6.6489551147794912e-01  8.3140281505878877e-01  1.0000000000001588e+00  -8.5011043460682125e-14  2.0616051066094179e-01  3.9113480755563251e-01  5.6214844789460361e-01  7.2099202895524395e-01  8.6802128220621655e-01  1.0000000000001490e+00  -6.6089088815613854e-14  1.4560240466933574e-01  3.0064245429657577e-01  4.6250493281056193e-01  6.3146448924297260e-01  -7.2450113261639296e-14  -7.5321340421885147e-14  -7.4533102254961254e-14  1.8691973665457406e-01  1.8933455132780852e-01  1.9465913759804354e-01  3.6433250865939826e-01  3.6920974850722527e-01  3.7385050398627745e-01  5.3381484969448334e-01  5.3934482428279695e-01  5.4341716745341562e-01  6.9614076262819480e-01  7.0035744400773792e-01  7.0481944669707552e-01  8.5187507429106457e-01  8.5310938680632553e-01  1.0000000000001594e+00  -8.8364785837772255e-14  1.8530836379555024e-01  3.6078256633961764e-01  5.2984652751192451e-01  6.9305324916823163e-01  8.5055207558559309e-01  1.0000000000001457e+00  -7.6003340867754376e-14  -7.7296812925864994e-14  -7.8339739166287184e-14  1.9595091344557147e-01  1.9502609515919117e-01  1.8975136682064422e-01  3.7591776981773006e-01  3.7610928501617008e-01  3.6734088361271261e-01  5.4586747659871215e-01  5.4644972303282824e-01  5.3703723427235295e-01  7.0703362142166482e-01  7.0724410671638172e-01  6.9974872921928866e-01  8.5923170855547149e-01  8.5896758214010216e-01  8.5541049453672247e-01  1.0000000000001557e+00  1.0000000000001568e+00  1.0000000000001581e+00  -6.8821987726692764e-14  1.5782434092261041e-01  3.2030704573251817e-01  4.8544335330949062e-01  6.5314125235581066e-01  8.2376572100605960e-01  -7.8148284262897180e-14  1.7517792723507722e-01  3.4544824600934748e-01  5.1284434911270305e-01  6.7792378026701139e-01  8.4076873852829026e-01  1.0000000000001561e+00  -6.8238470947950401e-14  1.4823744770701330e-01  3.0330406438751939e-01  4.6494804158851499e-01  6.3375461441767644e-01  8.1103423484939174e-01  1.0000000000001634e+00  8.5040067733529490e-01  6.7238378727119286e-01  8.3753409465826167e-01  3.7571081061221212e-01  5.4665063162101779e-01  7.0665069673159353e-01  8.5701609209319096e-01  1.0000000000001541e+00  1.8288454294128390e-01  3.5991228664870822e-01  5.2963399820005952e-01  6.9235173898939006e-01  8.4869537493701153e-01  1.0000000000001432e+00  -8.6092468787851289e-14  -8.7928590948520823e-14  -8.5424522130663169e-14  2.1004545352967258e-01  3.8337340022594335e-01  1.9962066981649984e-01  5.5425150164327874e-01  7.1371553073113481e-01  8.6260415589092487e-01  1.0000000000001528e+00  -6.5396225010068688e-14  -6.7495683599520496e-14  -6.5242569256352373e-14  1.5705710506226897e-01  1.6254838086939327e-01  3.2680734903728914e-01  3.3679922425512687e-01  3.1792590640772544e-01  1.6995700761852897e-01  4.8182594859707351e-01  4.9234463779021143e-01  5.0297086386065992e-01  6.4923387834828550e-01  6.5941032715458947e-01  6.6914054716110105e-01  8.2101672727383634e-01  8.2821797651138096e-01  8.3541849548705316e-01  1.0000000000001688e+00  1.0000000000001665e+00  1.0000000000001685e+00  -6.7610268317418371e-14  -6.9606907364113103e-14  1.7278896644827346e-01  1.6422236849708038e-01  3.4077766764570644e-01  3.3207117393094515e-01  5.0767101574980200e-01  4.9887487187508611e-01  6.7403224758894742e-01  6.6436977320400648e-01  8.3953744660835472e-01  8.2950457858394977e-01  1.0000000000001643e+00  1.0000000000001663e+00  -6.9762664401430764e-14  -7.1800265025086260e-14  1.7669686242598248e-01  1.7753790846955433e-01  3.4735785380175810e-01  3.5013519079995903e-01  5.1486274116496233e-01  5.1852254879936743e-01  6.7969019160326538e-01  6.8325465663277163e-01  8.4176628781949070e-01  8.4439862277653521e-01  1.0000000000001621e+00  1.0000000000001643e+00  2.1180322430069501e-01  2.0773050351729871e-01  -9.4484069406683202e-14  3.9820320615246063e-01  3.9651400790759050e-01  5.6923449576138629e-01  5.6848816892105669e-01  7.2699547315576041e-01  7.2567997973240739e-01  8.7184052202860196e-01  8.6957513290573463e-01  1.0000000000001377e+00  1.0000000000001394e+00  -7.2095972991778507e-14  -7.4038828768279930e-14  1.7492451472855852e-01  1.8214813876346808e-01  3.4803356151547665e-01  3.5714328541938239e-01  5.1654592624195650e-01  5.2579216974661869e-01  6.8042814579632960e-01  6.8884680529151987e-01  8.4029467537944458e-01  8.4676895670966623e-01  1.0000000000001601e+00  1.0000000000001619e+00  -6.9622657763096284e-14  -7.1710590269000268e-14  -6.9540700946232547e-14  1.5643661266121844e-01  1.5881160176452730e-01  1.6263807890104484e-01  3.1613240462730491e-01  3.2119473154752715e-01  3.2614342567496901e-01  4.7962854813554345e-01  4.8593601199301811e-01  4.9123285780880838e-01  6.4757661847576986e-01  6.5314319548162958e-01  6.5837735358278993e-01  8.2067531901311452e-01  8.2343120213881660e-01  8.2794094305502064e-01  1.0000000000001645e+00  1.0000000000001623e+00  1.0000000000001643e+00  -9.1986499746898377e-14  2.3655473435683863e-01  4.2801587047988920e-01  5.9889502566429509e-01  7.5298164244182864e-01  8.8977307762208624e-01  1.0000000000001421e+00  -7.5950145021527433e-14  -7.8100049376145743e-14  -7.5978860222606575e-14  1.7559832371481271e-01  1.7641114711222780e-01  1.8157848544063221e-01  3.4658452017787816e-01  3.5065808893524419e-01  3.5591374383310831e-01  5.1440251634688494e-01  5.1960697174361092e-01  5.2487319747883665e-01  6.7942549034614441e-01  6.8321874442502684e-01  6.8889737452398403e-01  8.4160884399811409e-01  8.4229263650842345e-01  8.4804907836673937e-01  1.0000000000001581e+00  1.0000000000001561e+00  1.0000000000001581e+00  -8.9604627362935312e-14  -8.9551884408019909e-14  2.0655050348553827e-01  2.0859916820345523e-01  3.9267952840755388e-01  3.9780699680598097e-01  5.6408296779976963e-01  5.6988842148099228e-01  7.2244034561850690e-01  7.2688795292485342e-01  8.6846256903459496e-01  8.7021740582244345e-01  1.0000000000001443e+00  1.0000000000001446e+00  -7.3833070893012370e-14  -7.3858801540414636e-14  1.6892905970881203e-01  1.7533714445807283e-01  3.3613723953002334e-01  3.4569245613751071e-01  5.0280863660085451e-01  5.1335128203284985e-01  6.6937150232381415e-01  6.7868422712170673e-01  8.3577062585739681e-01  8.4155484005642023e-01  1.0000000000001603e+00  1.0000000000001603e+00  -7.1747014687509285e-14  1.6011817771035561e-01  3.2533895677243624e-01  4.9112971820439649e-01  6.5732838924089354e-01  8.2495715184148000e-01  1.0000000000001623e+00  8.7515294672778410e-01  8.6949984497174770e-01  1.0000000000001521e+00  1.0000000000001503e+00  -7.4001153738711516e-14  -7.6142253625903203e-14  -7.3890813999220700e-14  1.5775682015561576e-01  1.6357336936968175e-01  1.6404964647824208e-01  3.1937220495124696e-01  3.2840045772272336e-01  3.2858967219106622e-01  4.8385367712779237e-01  4.9395053116584264e-01  4.9427224234793321e-01  6.5146198466134453e-01  6.6041095673841399e-01  6.6149631635726336e-01  8.2279516671198827e-01  8.2835186552547257e-01  8.3039855951796704e-01  1.0000000000001601e+00  1.0000000000001579e+00  1.0000000000001601e+00  -8.1472661096275689e-14  -7.8503315929055835e-14  -8.0770396674236434e-14  -7.8460497189344824e-14  1.6850191660049732e-01  1.7041578456467196e-01  1.6736934225451022e-01  3.3508433526791398e-01  3.3900167443072571e-01  3.3433725149247490e-01  5.0124100181393694e-01  5.0578995369768831e-01  5.0073667677413469e-01  6.6742333726052527e-01  6.7099622063411779e-01  6.6676476387360950e-01  8.3383150680086504e-01  8.3524228170541692e-01  8.3285821885072586e-01  1.0000000000001557e+00  1.0000000000001532e+00  1.0000000000001557e+00  -7.6022937530854476e-14  -7.8320890635111579e-14  1.7055902065148915e-01  1.7000356355205568e-01  3.3957853988298453e-01  3.3796145883735912e-01  5.0684825907337550e-01  5.0471642257101046e-01  6.7247753805594801e-01  6.7058396375255203e-01  8.3673009086138295e-01  8.3566320681801387e-01  1.0000000000001559e+00  1.0000000000001581e+00  -8.7334560528830621e-14  -8.7267969637401350e-14  1.9942765475254556e-01  2.0873801012099735e-01  3.9508304843109004e-01  3.8198640579349935e-01  5.6638729103798335e-01  5.5276821052502989e-01  7.2459096364496234e-01  7.1313465296972778e-01  8.7017029985119698e-01  8.6323313331337270e-01  1.0000000000001468e+00  1.0000000000001468e+00  -8.3323157538409027e-14  -8.5643860842516082e-14  -8.3333504191443526e-14  1.7843934039063256e-01  1.7878067240055545e-01  1.7299001945936018e-01  3.5002806939291420e-01  3.5141998171877348e-01  3.4358448283266169e-01  5.1775227852902272e-01  5.1951320411768143e-01  5.1107382712377869e-01  6.8220288502520021e-01  6.8347938624934279e-01  6.7564995729088639e-01  8.4350701576968756e-01  8.4377137449099038e-01  8.3795040789439179e-01  1.0000000000001508e+00  1.0000000000001483e+00  1.0000000000001508e+00  -8.8327357073107088e-14  -9.0553259364496479e-14  1.8083489974312694e-01  1.8161509462656095e-01  3.5630944788638541e-01  3.5590094369777370e-01  5.2546727585154096e-01  5.2464871618693121e-01  6.8853871388993959e-01  6.8822486623241674e-01  8.4620641352696235e-01  8.4701550709999018e-01  1.0000000000001434e+00  1.0000000000001457e+00  -8.3710809148124327e-14  2.1612108377782493e-01  4.0360058122814096e-01  3.9795688732065754e-01  5.7450625023577584e-01  5.6935259662977145e-01  7.3159686300054383e-01  7.2660907774861239e-01  8.7072636768085254e-01  1.0000000000001485e+00  -8.5045434090219058e-14  -8.5147660405510591e-14  1.8416953778477577e-01  1.9136743793718111e-01  3.6085106408500001e-01  3.7225501755346208e-01  5.3025545575562250e-01  5.4275911865446003e-01  6.9283375075735021e-01  7.0369060299543396e-01  8.4916249543379252e-01  8.5584038597363288e-01  1.0000000000001490e+00  1.0000000000001490e+00  -8.0708568076660591e-14  -8.3061835459854442e-14  1.7422257008932882e-01  1.7514498328027969e-01  3.4599996894560059e-01  3.4614291860354146e-01  5.1392027256857287e-01  5.1383984934794125e-01  6.7813847311506836e-01  6.7855273707897079e-01  8.3942933818434040e-01  8.4055928233808064e-01  1.0000000000001510e+00  1.0000000000001534e+00  -8.2909049979551871e-14  1.9028488282917166e-01  3.6699063439392543e-01  5.3627127862804114e-01  6.9902570420928145e-01  8.5505027059189898e-01  1.0000000000001512e+00  1.9751963281179083e-01  3.8146150334907575e-01  5.5251624460368143e-01  7.1195531173158655e-01  8.6083611819216688e-01  1.0000000000001377e+00  -7.0694964697870194e-14  1.5347338624413584e-01  3.1338995731794700e-01  4.7735950830632062e-01  6.4536291551823888e-01  8.1820713109262844e-01  8.1147856117892314e-01  1.0000000000001654e+00  1.0000000000001636e+00  1.0000000000001659e+00  -6.7305585682616663e-14  -6.5305990686150639e-14  1.4549258205988155e-01  1.5751451784129933e-01  3.0114668070779538e-01  3.1788541648312763e-01  4.6275644631358753e-01  4.8194513170883085e-01  6.3045377972812611e-01  6.5025866212577954e-01  8.0612810530002732e-01  8.2327724766564403e-01  1.0000000000001688e+00  1.0000000000001668e+00  -7.0210270134735802e-14  1.5065246080963163e-01  3.0736815961816050e-01  4.6981905587441536e-01  6.3843928264750283e-01  8.1439250426550025e-01  1.0000000000001659e+00  1.0000000000001639e+00  -8.5490828339612823e-14  -8.7938868257350210e-14  1.7505408448323714e-01  1.8246491678878693e-01  3.4895616508823446e-01  3.5644247862785927e-01  5.1769117329465031e-01  5.2497115752843948e-01  6.8111946904879539e-01  6.8855981913998399e-01  8.4028157442591744e-01  8.4755766123461795e-01  1.0000000000001461e+00  1.0000000000001485e+00  -8.7509877502429184e-14  -8.9891275111190424e-14  1.8866879232938080e-01  1.8829895039239813e-01  3.6688407720262833e-01  3.6634756823295861e-01  5.3661560593244617e-01  5.3615494958744425e-01  6.9865405545650627e-01  6.9840928341934638e-01  8.5355126057943487e-01  8.5345887882631766e-01  1.0000000000001441e+00  1.0000000000001465e+00  -7.8991726501830449e-14  1.6723218633139436e-01  3.3437958242889360e-01  5.0070141535230339e-01  6.6641513082009041e-01  8.3208419444141235e-01  1.0000000000001552e+00  2.0393895635419726e-01  3.9023764623191098e-01  5.6149559076238031e-01  7.1955186258952475e-01  8.6572419624408736e-01  1.0000000000001374e+00  -8.9593699109285959e-14  2.0159324151971472e-01  3.8398369167849661e-01  5.5459549630231553e-01  7.1475648176687967e-01  8.6455456959754573e-01  1.0000000000001443e+00  -7.1600856780106559e-14  -6.9630248819430018e-14  1.4599075064393791e-01  1.5606274110660523e-01  3.0134360207539007e-01  3.1593602886212258e-01  4.6284783315956701e-01  4.7961786666792661e-01  6.3075742459670814e-01  6.4760365189232028e-01  8.0689326374236514e-01  8.2064049183193688e-01  1.0000000000001645e+00  1.0000000000001625e+00  -7.8119352790483803e-14  1.7694416836778107e-01  3.4891230211028074e-01  5.1711535340092984e-01  6.8177507764862832e-01  8.4297841827234821e-01  1.0000000000001559e+00  -6.9953086652544057e-14  1.4432166101537805e-01  2.9878187454266553e-01  4.5997113815910290e-01  6.2814669660870326e-01  8.0522397962792702e-01  1.0000000000001641e+00  -9.0345902224850053e-14  1.8595363639765855e-01  3.6188163510651572e-01  5.3106263997743819e-01  6.9395227998762365e-01  8.5088732162433700e-01  1.0000000000001437e+00  -8.0477274556857090e-14  1.8058343276859198e-01  3.5471703454365505e-01  5.2344093931733671e-01  6.8723700781613495e-01  8.4627534866439669e-01  1.0000000000001537e+00  -8.1496753284172945e-14  -8.4009906963832543e-14  -8.2456436283060200e-14  1.7796077422173098e-01  1.7744320064333086e-01  1.7657005390500416e-01  3.5072416187552707e-01  3.5024457998190683e-01  3.4746778991128346e-01  5.1893326687172447e-01  5.1847280107483196e-01  5.1503006279655261e-01  6.8293869886544745e-01  6.8243192287391319e-01  6.7984521312881518e-01  8.4313307157976425e-01  8.4257977559921104e-01  8.4199149167236242e-01  1.0000000000001517e+00  1.0000000000001501e+00  1.0000000000001525e+00  -8.7481160160606618e-14  2.1445498131137811e-01  4.0317880194187927e-01  5.7464609255583698e-01  7.3125622655951694e-01  8.7392567507454477e-01  1.0000000000001465e+00  -7.9833515143853498e-14  1.7473805356352134e-01  3.4492513135967001e-01  5.1228664602128993e-01  6.7729539415844686e-01  8.4011603608233021e-01  1.0000000000001543e+00  1.0000000000001630e+00  1.0000000000001645e+00  -6.5679391519085035e-14  -6.7746112172628901e-14  -6.5439636523950267e-14  1.8466002651131735e-01  5.3423884627864182e-01  5.2829680817496472e-01  5.2102713623007013e-01  6.9177584455359142e-01  6.9647857448235651e-01  6.8536661011346145e-01  8.4989506047532792e-01  8.5208749644994619e-01  8.4586431766568970e-01  1.0000000000001661e+00  1.0000000000001683e+00  1.0000000000001685e+00  5.4281528970219362e-01  5.4170509518763332e-01  7.0435073756483757e-01  7.0348714503541476e-01  8.5763194965637346e-01  8.5704033879826169e-01  1.0000000000001408e+00  1.0000000000001428e+00  -8.5849276642204405e-14  1.7609998844644043e-01  3.4907399369693654e-01  5.1743061464152018e-01  6.8138072576519182e-01  8.4156140825636705e-01  1.0000000000001481e+00  -7.6086796241411761e-14  -7.4104381640684676e-14  1.5772069762194488e-01  1.6104354352763756e-01  3.1863686363214733e-01  3.2444874531835677e-01  4.8274512156140409e-01  4.8945610051131433e-01  6.5046890639376709e-01  6.5633136064442976e-01  8.2244484186240785e-01  8.2576873369910453e-01  1.0000000000001601e+00  1.0000000000001581e+00  5.4378034764929062e-01  7.0469156738880190e-01  8.5695506692760237e-01  1.0000000000001374e+00  -9.2670985655441369e-14  1.8431125425210027e-01  3.6065076444310734e-01  5.3002204759346072e-01  6.9285310917892606e-01  8.4972146990070629e-01  1.0000000000001414e+00  -8.0855230603941644e-14  1.7142555198342888e-01  3.4028099615450552e-01  5.0716762766138723e-01  6.7245978755786429e-01  8.3657379003446664e-01  1.0000000000001532e+00  -6.3326059549628956e-14  -6.5538680979827774e-14  -6.3491880397151182e-14  1.5029218808125455e-01  1.5177425087002730e-01  1.4436433606672647e-01  3.0585263402279095e-01  3.0781362960723252e-01  2.9804903969401242e-01  4.6756199793383579e-01  4.6970991779203430e-01  4.5878850580592379e-01  6.3636785549423203e-01  -8.3151707654026483e-14  1.8284505668089551e-01  6.9010657851576773e-01  8.4786267973131446e-01  1.0000000000001510e+00  -6.7548088161464748e-14  1.4958501006878475e-01  3.0617742758191885e-01  4.6860995144981538e-01  6.3736484302342822e-01  8.1359858814610087e-01  1.0000000000001665e+00  