<?xml version="1.0"?>
<VTKFile type="UnstructuredGrid"  version="0.1"  >
<UnstructuredGrid>
<Piece  NumberOfPoints="943" NumberOfCells="4059">
<Points>
<DataArray  type="Float64"  NumberOfComponents="3"  format="ascii">3.309510379629804 0.8863836409368193 2.616154815527406  3.444182813441553 0.9209586002677446 2.667203884134563  3.328980118271651 0.9521439490552337 2.762453947971372  3.332655598933088 0.8967213002316559 2.78851043660581  3.448401826589566 0.8642325253604897 2.690585360521831  3.31579258608076 0.8280953931305725 2.639930694748617  3.336298194938632 0.8413373348870876 2.81455400698196  3.452574480522336 0.80754298103268 2.713933865372631  3.322102618770432 0.7698559053450988 2.663701515376427  3.339910520426894 0.7859891466894402 2.840585789008104  3.456712043473359 0.750882338130715 2.737273256320213  3.328411795279227 0.7116554172552569 2.687465679565256  3.343493472723937 0.7306761786724061 2.866610772541831  3.46082049465365 0.6942531242978898 2.760607165345694  3.334688177644538 0.6534862464869524 2.711227281879887  3.347039831482192 0.6754069919168225 2.892629007199851  3.464900777326104 0.637659013888338 2.783938243179442  3.340883402761118 0.5953598670357796 2.734980830220038  3.350535924438287 0.6201925860512225 2.918629191040643  3.468950506189825 0.581140988175765 2.807258238499981  3.346915821363121 0.5372907205274948 2.758713401790215  4.830914772240143 0.8669951873710252 2.848470950943216  4.711095366839688 0.8344714265006634 2.808416188063085  4.770251871723918 0.9189382919576861 2.972087006599022  4.703312495378058 0.8887648500417146 2.785964952482801  4.778119940973102 0.8675761143008115 2.999323010154519  4.837928529660554 0.812963948594897 2.872056121445372  4.718864163875057 0.7801783953805086 2.830865595138155  4.785942263038891 0.8161982332003074 3.026530579640188  4.844962880415538 0.758942180829133 2.895621517956604  4.726585473682266 0.7258866725085849 2.853316758148127  3.183855021982071 0.9266916966011867 2.728975185596856  3.239595916759268 1.002106012142572 2.869780049231171  3.242634703182631 0.9484002630190136 2.898292522677149  3.189386137089473 0.8706620167084802 2.757012037780792  3.194936373316584 0.8146721391562888 2.785039328749702  3.24564902943293 0.8947284430644704 2.926789281089172  3.200478556964971 0.7587125935941077 2.813056172949324  3.248639770488599 0.841084093036562 2.95527783227224  3.205991414791407 0.7027836448635859 2.841069620471582  3.251601300209731 0.787467057677252 2.983757847202368  3.211446475162366 0.6468850656667584 2.869092265828673  3.254523002651907 0.7338816496550165 3.012227239516346  3.21676944213806 0.5910254165233325 2.897124200530571  3.257389477376745 0.6803333898725057 3.040686775433139  3.924235845684834 1.054631281481423 2.896407026829799  4.042648438318679 1.018677187878864 2.80291522239478  4.029734928942861 1.086480894916666 2.944184107613537  4.033581811572337 1.035450523225623 2.970238407666375  4.047032421962647 0.9656749557324483 2.826341469258864  3.927785224865167 1.003016755565553 2.922148426255673  4.051363953183974 0.9126517322100309 2.849739858872248  3.931274572950194 0.9513885441188332 2.947865002805727  4.037379158528795 0.9844007145567089 2.996288118415261  3.934733035938298 0.8997583137470264 2.973563971174869  4.055670271107773 0.8596259161615664 2.873116196267135  4.041152961911114 0.9333442221346975 3.022328649986522  3.938187963156937 0.8481354506971741 2.999251581215874  4.059975242076549 0.8066091746322046 2.896482761900796  4.044926575598378 0.8822876213032286 3.048360405467668  3.941666559112415 0.7965275955183193 3.024937364180309  4.064300864416618 0.7536103722465325 2.919855050203848  4.048724443084279 0.8312334234966833 3.074387343770027  3.945198747483074 0.744940545759847 3.050637823756019  4.068665734873053 0.700631522291109 2.943250376855835  4.052569985463395 0.7801836234384977 3.100417422232893  3.917567988818408 0.9895243592666594 2.76171074308338  3.922087497822786 0.9358718841143401 2.785146459244783  3.92654870632354 0.882200515798256 2.808540423514554  3.93097958570269 0.8285328957924153 2.831906957783342  3.935404964659423 0.7748816737466495 2.855261291474537  3.939847456323109 0.7212572559917418 2.878621369185009  3.944327511688839 0.6676594158387426 2.90201591724711  4.358478989280089 1.037284436718629 2.781353379484818  4.45230853778671 1.012400541590513 2.694290892315442  4.482284864998666 1.061905086215139 2.803104333200595  4.488601521213908 1.009480065210504 2.827862910145921  4.458541324074151 0.9568999751694327 2.713115379807013  4.363993185928181 0.9838375751784043 2.80413536624355  4.494947324322871 0.9570407877874865 2.852621502195785  4.464766785520603 0.9013826952036632 2.731914799427259  4.369487779399154 0.930373341240925 2.826899694305932  4.501308089077008 0.9045966431727638 2.877373319137379  4.470992650372068 0.8458677293861886 2.750704190563797  4.37497844968242 0.8769042331264161 2.849654950570768  4.477227408071798 0.7903615550608907 2.769487046624896  4.380477006225024 0.823438096001991 2.872403257802603  4.507673869629074 0.8521489698351448 2.902119536735071  4.483481045986071 0.7348668028986112 2.788268568055393  4.38599852936984 0.7699798820078559 2.895151403162465  4.514035553789819 0.7996978418786478 2.926865924930304  4.489751262828892 0.6793824297213956 2.807063911788437  4.391553746001064 0.716532185809617 2.917909467565603  4.520400245184372 0.7472433179061417 2.951627041262305  3.560434897967375 0.8726145473773337 2.481128775753542  3.594607238501702 0.8469055578849887 2.334883576455969  3.706376856012104 0.8739810427205204 2.433598346042467  3.711560646270068 0.8129018484560275 2.444223756241052  3.603720841959586 0.7838942477983135 2.340490675477463  3.567316497945888 0.8119638868023578 2.495410907469922  3.612825609746781 0.7209633243056661 2.346037668749796  3.574166530644203 0.7513618686579029 2.509657588532186  3.716577878573236 0.7518815353691248 2.454776067031997  3.580983437212224 0.6908012101870372 2.523892416115534  3.621903152389133 0.6581180763371084 2.351567636663879  3.721517206928818 0.6909008376255081 2.465309988041477  3.587767494232271 0.630283399295577 2.538124008672631  3.630941319481108 0.5953421404829822 2.357098876999284  3.726427137596251 0.6299744889264008 2.475843174794886  3.594510383249487 0.5698157095325015 2.552349433278836  3.639908698016319 0.5326575760000566 2.362637206459833  3.731358363973318 0.5691352719973563 2.486384712107461  3.601170731711666 0.5094292339679523 2.566570518575604  3.648736015206932 0.4700853276207325 2.368184946470569  3.736378821358559 0.5084502734845322 2.496946874957011  3.724370281775525 1.141282247703243 3.082711101866201  3.704081063170253 1.062356391008062 2.939199219735253  3.822384560095361 1.099806315808445 2.996032815519053  3.825412925076121 1.048949271364176 3.022795826828248  3.706968123709886 1.010837563877719 2.965983619177339  3.727026573158672 1.090783709578263 3.11052177784317  3.828381211514174 0.998084081419947 3.049547488054737  3.709793118079762 0.9593178684287758 2.992743592239803  3.729626638310848 1.040286956174908 3.138328061300475  3.831318955925492 0.9472196760542815 3.076287791341103  3.712585328409843 0.9078059984942044 3.019486152181014  3.732197460056686 0.9897968318171553 3.166126471285223  3.834251381274478 0.8963607685127712 3.103016720772792  3.715368143289176 0.8563072981058725 3.046215939620422  3.734762684313446 0.9393140643211506 3.193912245902549  3.83720413045812 0.8455098597451265 3.129737529124846  3.71816431234493 0.8048280998907978 3.072938506229869  3.737346177189691 0.8888375756289735 3.221682754786094  3.840206750118762 0.7946704576098146 3.156458887749065  3.721000676927003 0.7533737561695364 3.099668376551995  3.739976271795561 0.838365213967119 3.249438154501159  3.210601879748049 0.835509733660429 2.514573363730032  3.34290255657225 0.839990637507529 2.471713522390202  3.351598491880748 0.7782257343164107 2.489319065688067  3.220103168007693 0.7739816138681612 2.535717656657603  3.360370550837416 0.7165227767869893 2.506912655726519  3.229750395807351 0.7125073936418924 2.556870242848818  3.369159907701099 0.6548694261654322 2.524496668013365  3.239426685671219 0.6510644319093334 2.578021824333119  3.377913921416762 0.5932542606257767 2.542080416337595  3.249068624167983 0.5896477483208531 2.599179601266837  3.386569143991177 0.5316727873852849 2.559673668429884  3.258599008465749 0.5282475206830626 2.620353299402292  3.395030249935756 0.4701132864376824 2.57727185836777  3.267870960946247 0.4668209942185569 2.641540849578023  4.430686719128866 1.475875182254693 3.54300134515803  4.394279318787187 1.416210052499245 3.454013173467434  4.525939406320055 1.433381623113186 3.452600319701647  4.533413972678006 1.380908968682524 3.483711858823026  3.252207626418506 0.9196793074367959 3.09250719334383  3.115995800234012 0.8880590243216396 3.053622931827576  3.118677539236442 0.9537451500313532 3.167275811608131  3.113232870433986 0.9410834753000441 3.023750263422675  3.249870246320647 0.9719144654305467 3.063548501623789  3.120591502519848 0.9016425744719223 3.19754341266704  3.254523035092764 0.867466197179638 3.12145586944269  3.118731330681721 0.835059896707818 3.083487631378221  3.122476374307003 0.8495566650382377 3.227794342457984  3.25681578255324 0.8152750625951104 3.150391539117927  3.121428741313743 0.7820841059728256 3.113344276422415  3.124326101511409 0.7974774250651793 3.25802353414539  3.259076986023708 0.7631062938184803 3.179308910852404  3.124072895171965 0.7291285643152072 3.143193469611817  3.245124434881262 1.076455492413799 3.005605028218131  3.347662747127591 1.03347587099767 2.917401776827345  3.350263509551571 0.9809066375841948 2.945557665789177  3.247510140404717 1.024173560437458 3.034581711357327  3.352824897252879 0.9283543336480686 2.973694635986988  3.355357053277846 0.8758255227492013 3.001820954037063  3.357867031304811 0.8233188259820621 3.029937738503435  3.360358859624789 0.7708360498448086 3.058043801705015 
[...]
<PointData  Scalars="f_14"> 
<DataArray  type="Float64"  Name="f_14"  format="ascii">-1.7606402676042599e-13  -1.7350226441756593e-13  -1.7542158206167055e-13  1.7627816064300880e-01  1.7427834326746608e-01  1.7955763593325047e-01  3.4724878925593966e-01  3.4631657328703763e-01  3.5329643794910198e-01  5.1481667015193144e-01  5.1431107123187270e-01  5.2187234183571041e-01  6.7955087473284248e-01  6.7836703674754650e-01  6.8564811830581163e-01  8.4163360232953532e-01  8.3920415908177293e-01  8.4487287896196783e-01  1.0000000000000584e+00  1.0000000000000604e+00  1.0000000000000577e+00  6.8697115406905174e-01  6.9018363579399788e-01  6.8974136396877128e-01  5.2726646288513734e-01  8.4925775406516324e-01  8.4544367540540255e-01  8.4734702339142909e-01  1.0000000000000864e+00  1.0000000000000873e+00  1.0000000000000850e+00  -1.7811566202849450e-13  -1.7681346920370908e-13  1.7059925048542454e-01  1.7208565575224841e-01  3.4303781532135397e-01  3.3932745938224168e-01  5.1098930967218481e-01  5.0630675557964300e-01  6.7577751030711464e-01  6.7178648206906311e-01  8.3801553703261000e-01  8.3610065070841000e-01  1.0000000000000557e+00  1.0000000000000571e+00  -1.6369160254934581e-13  -1.6163374010018988e-13  -1.6148104353187699e-13  1.7429330366477838e-01  1.7904498633761895e-01  1.7481902106557862e-01  3.5198722524728643e-01  3.4563313500076281e-01  3.4489082390980536e-01  5.1326462355071034e-01  5.2017736638020728e-01  5.1241982799210128e-01  6.7804141691993092e-01  6.8418423128533590e-01  6.7724126824802799e-01  8.4027770500054599e-01  8.4420582531887234e-01  8.3969649442465943e-01  1.0000000000000704e+00  1.0000000000000724e+00  1.0000000000000726e+00  -1.6419749060804816e-13  1.8210144731017888e-01  3.5626241392928981e-01  5.2494046307394016e-01  6.8874240522755859e-01  8.4764152360434430e-01  1.0000000000000699e+00  -1.5546820063774708e-13  -1.5383365259192082e-13  -1.5294849683576275e-13  1.8230292517599322e-01  1.8940882687397426e-01  1.8489832975087062e-01  3.5711977738619149e-01  3.6643815967752136e-01  3.6036243672820095e-01  5.2588822206363495e-01  5.3563552539398707e-01  5.2935316418350753e-01  6.9801251000905273e-01  6.9259895689516437e-01  6.8924199901394578e-01  8.5357434069406890e-01  8.5006318943990233e-01  8.4741013240702212e-01  1.0000000000000802e+00  1.0000000000000786e+00  1.0000000000000813e+00  -1.7170212190039004e-13  -1.7131727625274864e-13  -1.6908993264215527e-13  1.8882510466094451e-01  1.9301231556294685e-01  1.7830762372781297e-01  3.7176643324864289e-01  3.5287439502841705e-01  3.6500951188500441e-01  5.2173121463683036e-01  5.4122522057358791e-01  5.3388769947071835e-01  6.8501836648775283e-01  7.0309144944897417e-01  6.9634695099208799e-01  8.4356958083663536e-01  8.5713401523701771e-01  8.5264669628688039e-01  1.0000000000000622e+00  1.0000000000000626e+00  1.0000000000000648e+00  -1.6701405136037407e-13  -1.6784555104686471e-13  -1.6537937200458866e-13  1.7143928920050244e-01  1.7355903314908605e-01  1.7040448067054681e-01  3.4047571905000618e-01  3.4330606849278528e-01  3.3887516971904558e-01  5.0742882980589921e-01  5.1058033816199033e-01  5.0570979661046023e-01  6.7258925649483214e-01  6.7577746787253057e-01  6.7116822281441435e-01  8.3641426443349787e-01  8.3910318366079362e-01  8.3567910754307151e-01  1.0000000000000686e+00  1.0000000000000662e+00  1.0000000000000671e+00  -1.7801427492433035e-13  -1.7571052333030137e-13  1.8675402579386879e-01  1.8653089526100922e-01  3.6425089270553812e-01  3.6522963599518998e-01  5.3376074809111873e-01  5.3547975853787844e-01  6.9608688697518617e-01  6.9769835812055347e-01  8.5160610839184681e-01  8.5228862564747854e-01  1.0000000000000582e+00  1.0000000000000560e+00  -1.5181640442629111e-13  -1.5275640704147411e-13  -1.5024545582283966e-13  1.7175738514204522e-01  5.0393648336196950e-01  5.0203396444534221e-01  5.0740236449785570e-01  3.3539404458085337e-01  3.3727682885582705e-01  6.7301721330421982e-01  6.6963942959897160e-01  6.6776469357540258e-01  8.3746143904054537e-01  8.3476426299868434e-01  8.3315536417900848e-01  1.0000000000000553e+00  1.0000000000000575e+00  1.0000000000000548e+00  -1.7636991026295378e-13  -1.7469044127399033e-13  1.6965937773792100e-01  1.6941813492846003e-01  3.3800424294869930e-01  5.0477069151923248e-01  6.7022156988098613e-01  8.3485304733471388e-01  1.0000000000000593e+00  -1.5874542607517131e-13  -1.5585889573610354e-13  -1.5676334189339427e-13  1.7091775074512655e-01  1.7098428992724568e-01  1.6989074827513453e-01  3.3945299252458216e-01  3.3953107437850594e-01  3.3804368789164296e-01  5.0631842377882574e-01  5.0640757825452598e-01  5.0463736139152415e-01  6.7181727074087549e-01  6.7196124053868789e-01  6.6994147313095387e-01  8.3628099892401153e-01  8.3652329471781572e-01  8.3453585977370970e-01  1.0000000000000773e+00  1.0000000000000782e+00  1.0000000000000753e+00  -1.6426163675063342e-13  -1.6135569173481775e-13  -1.6218518579287308e-13  1.8113445591024413e-01  1.9488680383020743e-01  1.9991543976951934e-01  3.5662932024258653e-01  3.7469252463975633e-01  3.7994234302623880e-01  5.2573825771653793e-01  5.4453137187771927e-01  5.4982092965929374e-01  6.8889383994259534e-01  7.0573908476708969e-01  7.1123864373685808e-01  8.4673089457161277e-01  8.5829265920296161e-01  8.6361673822851936e-01  1.0000000000000719e+00  1.0000000000000726e+00  1.0000000000000697e+00  -1.5712435998806870e-13  1.9039790621812258e-01  3.6789489803271458e-01  5.3733432747079501e-01  6.9981998709993531e-01  8.5508972376714165e-01  1.0000000000000768e+00  -1.5647528835499684e-13  -1.5386704975107230e-13  1.7287802324764032e-01  1.7406610585145904e-01  3.4235851329609929e-01  3.4492182366310431e-01  5.0947110936815254e-01  5.1261501244448582e-01  6.7458768994204676e-01  6.7742217859027021e-01  8.3806340083934150e-01  8.3968884100407148e-01  1.0000000000000802e+00  1.0000000000000777e+00  -1.6629331094614605e-13  1.7527814746086751e-01  3.4667570751588156e-01  5.1447413784166729e-01  6.7900723537325847e-01  8.4068473531467525e-01  1.0000000000000677e+00  1.0000000000000644e+00  1.0000000000000617e+00  -1.5806862487965973e-13  1.7091778800800542e-01  3.3985623356206940e-01  5.0677870594334629e-01  6.7191683798247870e-01  8.3583299364718611e-01  1.0000000000000759e+00  -1.5954677551140787e-13  -1.6204712554360716e-13  1.7058490251861488e-01  1.7146773435742604e-01  3.3925084238872694e-01  3.4051402805335129e-01  5.0618727756107607e-01  5.0756293438342004e-01  6.7164895388393331e-01  6.7289038551214420e-01  8.3603721526522290e-01  8.3686613011030353e-01  1.0000000000000719e+00  1.0000000000000746e+00  7.0561129146413171e-01  8.5919443649480720e-01  1.0000000000000866e+00  -1.6467634765502937e-13  -1.6229992203702429e-13  1.7156246400794894e-01  1.7054374004411957e-01  3.4088391215334085e-01  3.3921563685941414e-01  5.0810111069154207e-01  5.0607550977963744e-01  6.7343056992686612e-01  6.7140446902285433e-01  8.3721591805537132e-01  8.3568165212979317e-01  1.0000000000000717e+00  1.0000000000000693e+00  -1.5058227351123166e-13  -1.4927093048730208e-13  -1.4776543143808814e-13  1.8208772274983409e-01  5.2529607194520889e-01  5.2548328459750226e-01  3.5816627090447839e-01  6.8899196005674346e-01  8.4769973772476725e-01  1.0000000000000835e+00  -1.7948148701230232e-13  1.7219334558072752e-01  3.4171357673412944e-01  5.0913091545047917e-01  6.7458434279567081e-01  8.3824364387578931e-01  1.0000000000000544e+00  -1.4979707501468322e-13  1.7354556327677917e-01  5.1048377586872007e-01  6.7572221182597492e-01  8.3906886013173820e-01  1.0000000000000844e+00  -1.5919069404386404e-13  -1.5998613954796167e-13  -1.5791182555506558e-13  1.7582467400669349e-01  1.7755394902146260e-01  1.8193947293857402e-01  3.5527856609082942e-01  3.5058025242275737e-01  3.4925656500424646e-01  5.1881747162576386e-01  5.2353605522840585e-01  5.1780342456063366e-01  6.8742777388666321e-01  6.8244847733623659e-01  6.8148381717531215e-01  8.4695149782079704e-01  8.4225823813934908e-01  8.4113624707857726e-01  1.0000000000000748e+00  1.0000000000000742e+00  1.0000000000000762e+00  -1.6974227263126345e-13  1.6964051722510004e-01  3.3797463503625058e-01  5.0481963349017056e-01  6.7037031752681953e-01  8.3507654063711478e-01  1.0000000000000642e+00  -1.5416972951029577e-13  1.8304210819908473e-01  3.5919612837273490e-01  5.2826251673948288e-01  6.9069631355108985e-01  8.4732602399968571e-01  1.0000000000000799e+00  -1.7390236657119036e-13  1.8795014297668736e-01  3.6564958551199461e-01  5.3508287403773414e-01  6.9709008440506193e-01  8.5221802793711399e-01  1.0000000000000600e+00  -1.7901447456303560e-13  1.6776448599239005e-01  -1.5437740698059749e-13  -1.5460276994958996e-13  1.7232224970746296e-01  1.6885054272274527e-01  3.3660408821651333e-01  3.4135961122043812e-01  5.0322393698271994e-01  5.0848137600981036e-01  6.6893986017541840e-01  6.7405971319350477e-01  8.3416251202754954e-01  8.3820020132403172e-01  1.0000000000000797e+00  1.0000000000000795e+00  1.0000000000000597e+00  -1.8234592757913864e-13  -1.8033374856159112e-13  -1.8249125056020956e-13  2.0689896517205128e-01  2.0348972908765461e-01  1.9985118921758396e-01  3.9003450664801159e-01  -1.5666187979372706e-13  1.8393937099394797e-01  3.6048597969023932e-01  5.2969411664504373e-01  6.9215331694274029e-01  8.4859594567669050e-01  1.0000000000000775e+00  -1.5212042251080614e-13  1.7429122492914520e-01  3.5655599944637206e-01  3.4516808007734112e-01  3.4322610352719241e-01  5.1280377570093982e-01  6.7745824015169709e-01  8.3959264383883836e-01  1.0000000000000819e+00  5.5226930859357615e-01  7.1271370907254727e-01  8.6349511986788685e-01  -1.5746175011191436e-13  1.7288506731576594e-01  3.4266937290813743e-01  5.0994483142869773e-01  6.7502426230422341e-01  8.3822211207656383e-01  1.0000000000000766e+00  -1.5113115033827430e-13  -1.4951323384392438e-13  -1.4910631922929831e-13  1.6721029773046148e-01  1.6443272955352572e-01  1.6533903330147245e-01  3.3361979079147591e-01  3.2995723948227512e-01  3.3067590330344476e-01  4.9968179463365836e-01  4.9570679240104676e-01  4.9640745802244679e-01  6.6573201895158263e-01  -1.5449681200417952e-13  1.7750937604116543e-01  3.4995097216511833e-01  5.1805902966387596e-01  6.8228247133903808e-01  8.4293535752712234e-01  1.0000000000000797e+00  -1.6656491906193985e-13  -1.6414788833218717e-13  1.9260641137527248e-01  1.8811155458793871e-01  3.7341051131824227e-01  3.6553927451025020e-01  5.4356698575527296e-01  5.3476825970447939e-01  7.0443173866111675e-01  6.9671859828470950e-01  8.5657558500299924e-01  8.5196591567451851e-01  1.0000000000000697e+00  1.0000000000000673e+00  -1.8454961718587501e-13  -1.5163382608408120e-13  1.7160959547747362e-01  3.4004673906929433e-01  5.0681929450119767e-01  6.7235323877392017e-01  8.3689899603872120e-01  1.0000000000000826e+00  -1.5678230445968912e-13  1.8631126901653988e-01  3.6083147693571938e-01  5.2953715527522771e-01  6.9342158769163009e-01  8.5182443358996585e-01  1.0000000000000773e+00  -1.6672534947119509e-13  1.9160105830421656e-01  3.6953925905298918e-01  5.3867274495726902e-01  7.0015570743462263e-01  8.5457608583177258e-01  1.0000000000000671e+00  -1.6508620641059632e-13  -1.6256772001995032e-13  -1.6166122994568808e-13  1.9941917935439174e-01  2.1621140901388322e-01  1.9685494656021704e-01  3.8214406211960394e-01  5.3801835985677626e-01  6.9890039803761661e-01  8.5153946430755967e-01  1.0000000000000577e+00  -1.7090802509773757e-13  -1.6868923204651871e-13  -1.7054821829988238e-13  1.7339695525627086e-01  1.7344268803396601e-01  1.7904275179510895e-01  3.4327443813175240e-01  3.4467241459528486e-01  3.5133827950667201e-01  5.1064228785242860e-01  5.1254031258489186e-01  5.1948475078548439e-01  6.7588121275765400e-01  6.7714794700488823e-01  6.8407040295599475e-01  8.3916137198324325e-01  8.3898127206130713e-01  8.4504758970305971e-01  1.0000000000000635e+00  1.0000000000000653e+00  1.0000000000000631e+00  -1.6435602864643756e-13  1.9744898125485691e-01  3.7766874892505486e-01  3.7844378709664767e-01  5.5257202440851427e-01  5.4748736200383197e-01  5.4846521827083383e-01  7.1248278614363669e-01  7.0798341486380545e-01  7.0896837919170230e-01  8.6224106579329218e-01  8.5958445767340463e-01  8.6034093090523078e-01  1.0000000000000724e+00  1.0000000000000686e+00  1.0000000000000695e+00  -1.7300241623317309e-13  1.7356218003754578e-01  3.4353067600185289e-01  5.1085323786025605e-01  6.7589442943706768e-01  8.3892696270404365e-01  1.0000000000000608e+00  -1.6283865530041642e-13  1.7323614710100554e-01  3.4290718402725995e-01  5.1015063594146981e-01  6.7538691460263989e-01  8.3882456673933903e-01  1.0000000000000713e+00  -1.6435199105213624e-13  1.7190292595732984e-01  3.4068900114424888e-01  5.0758564534031558e-01  6.7293919007904912e-01  8.3708096175375846e-01  1.0000000000000697e+00  -1.7272256517654842e-13  1.6980862100718927e-01  3.3838991456826273e-01  5.0522773924582498e-01  6.7057525624078351e-01  8.3495235999044626e-01  1.0000000000000613e+00  -1.5865004665806468e-13  1.7548515763351230e-01  3.4659554888722588e-01  5.1420638179178579e-01  6.7880243134284279e-01  8.4073362266009677e-01  1.0000000000000755e+00  -1.8050739373037982e-13  -1.7840540988424934e-13  1.8554852650241488e-01  1.8329102668232919e-01  3.6136315080262466e-01  3.6033339874058162e-01  5.3084040072728178e-01  -1.5142524987211777e-13  1.9382890690880483e-01  3.7148264309532419e-01  5.4090259925214546e-01  7.0333499460342919e-01  8.5847167824127391e-01  1.0000000000000828e+00  -1.7416185214996640e-13  -1.7170830194541744e-13  -1.7213943317906595e-13  1.7038567861176213e-01  1.7034616557474450e-01  1.6981082612706344e-01  3.3792643270854783e-01  3.3859386087459015e-01  3.3832374641947593e-01  5.0457668460787586e-01  5.0527731091756789e-01  5.0493176482878444e-01  6.7008028067421632e-01  6.7070958378861556e-01  6.7052406404401799e-01  8.3490163091960579e-01  8.3536706749691325e-01  8.3549775985394437e-01  1.0000000000000620e+00  1.0000000000000622e+00  1.0000000000000597e+00  -1.5463664431254554e-13  -1.5195450691470783e-13  -1.5427227402542534e-13  1.9305550106489472e-01  1.9122307810827593e-01  1.8223271726400422e-01  3.7075663882546894e-01  3.6908835245833355e-01  3.5729471991184902e-01  5.3993904137161852e-01  5.3846669054428409e-01  5.2590364089233088e-01  7.0198957526086947e-01  7.0058132141105112e-01  6.8861070711371930e-01  8.5677592350796006e-01  8.5535716955141050e-01  8.4623393430400740e-01  1.0000000000000797e+00  1.0000000000000822e+00  1.0000000000000795e+00  1.7226235063706219e-01  3.4115562220459511e-01  5.0812808593055703e-01  6.7361554255630751e-01  8.3777941900168407e-01  1.0000000000000644e+00  -1.5874518270540021e-13  -1.5949381887919663e-13  1.8425053454007354e-01  1.9165066122112479e-01  3.6020415839647885e-01  3.6952387143863674e-01  5.2928899649256478e-01  5.3901337515814041e-01  6.9212941743422862e-01  7.0104611039742171e-01  8.4918201638367929e-01  8.5565635812107055e-01  1.0000000000000746e+00  1.0000000000000753e+00  -1.6063976639849241e-13  -1.6002166506929903e-13  1.9862975836323651e-01  -1.7373640322360965e-13  1.8426896966945541e-01  3.5901822933623806e-01  5.2761218086577488e-01  6.9089000376929199e-01  8.4900167489283784e-01  1.0000000000000602e+00  -1.7362288621059412e-13  1.8488377520759045e-01  3.6051495357639668e-01  5.2950099937240136e-01  6.9240737389710350e-01  8.4980011716684856e-01  1.0000000000000604e+00  -1.5527333415034333e-13  1.7470099028809821e-01  3.4561117387933110e-01  5.1341582648264972e-01  6.7839243998573340e-01  8.4063702801353590e-01  1.0000000000000788e+00  -1.6883339948936111e-13  1.7795757792097530e-01  3.5385594707646567e-01  5.2282170258506222e-01  6.8520156727980075e-01  8.4245943096841402e-01  1.0000000000000651e+00  -1.7275967636341537e-13  1.7569753894164516e-01  3.4699372518983856e-01  5.1466613691932439e-01  6.7902524543305065e-01  8.4054741720128257e-01  1.0000000000000611e+00  -1.6655727214113626e-13  1.8599491808620647e-01  3.6090387554541109e-01  5.2963341038896139e-01  6.9310940307355251e-01  8.5105895515220731e-01  1.0000000000000675e+00  3.3712127892351268e-01  5.0385569442616629e-01  6.6947746641618866e-01  8.3445099959824576e-01  1.0000000000000591e+00  -1.5228948886432745e-13  1.8083544311886193e-01  3.5733035215719477e-01  5.2659888883128958e-01  6.8906105663295369e-01  8.4565011111971256e-01  1.0000000000000817e+00  -1.7128832870325288e-13  -1.6878114078582864e-13  -1.6934974086107488e-13  1.8206251938951432e-01  1.7599608048781415e-01  1.8815254219133556e-01  3.5638987201205308e-01  3.4978192758847504e-01  3.6335122428038630e-01  5.2506568685559551e-01  5.1832318236135955e-01  5.3219946968330811e-01  6.8859015636891507e-01  6.8165624961582882e-01  6.9566945368527155e-01  8.4725266166221458e-01  8.4094858089209379e-01  8.5337630667800091e-01  1.0000000000000646e+00  1.0000000000000651e+00  1.0000000000000626e+00  2.1566948916835457e-01  2.1236001237607377e-01  2.1435260986944105e-01  -1.8296292720963522e-13  4.0305029892208033e-01  -1.7491946619802434e-13  1.7247934931381917e-01  3.4177479057327226e-01  5.0886646669654034e-01  6.7409719497039811e-01  8.3779682811980161e-01  1.0000000000000591e+00  -1.5946387922912650e-13  1.8698988342183756e-01  3.6551425632321582e-01  5.3527653920372642e-01  6.9707028176567487e-01  8.5170257989896470e-01  1.0000000000000746e+00  -1.5241397284966244e-13  -1.5202776808471761e-13  -1.4974959714377606e-13  1.6748103777983467e-01  1.7084233433839774e-01  1.6728623139013682e-01  3.3430193407883119e-01  3.3937534771288697e-01  3.3400622730635443e-01  5.0051306483325009e-01  5.0627667793466102e-01  1.0000000000000813e+00  1.0000000000000817e+00  1.0000000000000839e+00  8.4395068106475235e-01  -1.5325148544437462e-13  1.6812392625996805e-01  3.3552075937787690e-01  5.0188513512168675e-01  6.6746817420219617e-01  8.3289309434340253e-01  -1.7758775092787508e-13  1.9545788576836726e-01  3.7609037093221431e-01  5.4650998354135971e-01  7.0762889736854406e-01  8.5976678318046229e-01  1.0000000000000564e+00  5.0631144840467879e-01  6.7187609957004002e-01  8.3635071962595064e-01  1.0000000000000571e+00  6.6639180136422960e-01  8.3249008689743043e-01  -1.5919430551441845e-13  -1.5690577278634590e-13  1.8214265294742349e-01  1.9507658017562635e-01  3.5789975766435378e-01  3.7444818260681234e-01  5.2691341105665479e-01  5.4425429700413730e-01  6.8950966118757007e-01  7.0571079113733381e-01  8.4655867061950396e-01  8.5905948149296385e-01  1.0000000000000773e+00  1.0000000000000751e+00  -1.6196298739852856e-13  1.9984829562538714e-01  3.8086717249556207e-01  5.5091697657626781e-01  7.1135487841026146e-01  8.6233567175251735e-01  1.0000000000000722e+00  -1.7818099770312273e-13  -1.7612286861725942e-13  -1.7628467806232724e-13  1.8902554992588483e-01  1.8667870336681530e-01  2.0205387200863212e-01  3.6832953081101089e-01  3.6738680124623069e-01  3.8581006961213549e-01  5.3839368774521812e-01  5.5683690613362247e-01  6.9985938311618112e-01  7.1655871840845087e-01  8.5351797108839877e-01  8.6534484839673398e-01  1.0000000000000577e+00  1.0000000000000557e+00  1.7201855444655553e-01  3.4114963199100978e-01  5.0821437941015812e-01  6.7358305594325596e-01  8.3750918616989656e-01  1.0000000000000666e+00  1.7884264187301013e-01  1.8514685001783876e-01  -1.5498163084623786e-13  3.5385021001221195e-01  3.6046126524281125e-01  5.2271951475275569e-01  5.2907571018654220e-01  6.8575388591589870e-01  6.9203757118901743e-01  8.4962712506435101e-01  1.0000000000000790e+00  1.0000000000000808e+00  -1.6940243118083354e-13  -1.6729307621576804e-13  -1.6703047748650837e-13  1.7854803360105354e-01  1.9287265451577290e-01  1.8712975328312179e-01  3.5502162091841150e-01  5.3338373470379696e-01  5.4037242414501174e-01  5.2410836237003022e-01  6.8606631621465208e-01  7.0183367975840116e-01  6.9545711716176239e-01  8.4272772982180111e-01  8.5590884308558701e-01  8.5132519547215724e-01  1.0000000000000668e+00  -1.8003889145603800e-13  2.0020162965704633e-01  3.8487346405943113e-01  -1.574624893731