<?xml version="1.0"?>
<VTKFile type="UnstructuredGrid"  version="0.1"  >
<UnstructuredGrid>
<Piece  NumberOfPoints="29" NumberOfCells="54">
<Points>
<DataArray  type="Float64"  NumberOfComponents="3"  format="ascii">-1.467388403511188 -1.349419830973749 1.854699578985386  -1.691847127104035 -1.057057584402842 1.792481564850882  -1.589966200280415 -1.200058353451638 2.140554217345306  -1.217866055289757 -1.018367432924538 2.006040510804831  -1.825220060093612 -0.8075343770849391 3  -1.50185727969032 -0.9077313623873615 2.669221514509792  -1.753095244320935 -0.9424704166201683 2.487402243689921  -1.884027970933281 -0.6458043052210252 2.465159781195152  -1.629173242682837 -0.4396626659265072 2.682257104076729  -1.26350801991714 -0.4011185096612048 2.684939077533538  -1.339611930956236 -0.6653484133795875 2.229914491760713  -1.624663411647594 -0.483272928112338 2.303499260371789  -1.201893715091328 -0.3615169074776507 2.325028010528075  -1.026530777987678 -0.7845869878285077 2.750527785280121  -0.9273729073291088 -0.3711673189324999 2.536857347675441  -1.508823376803995 -0.6604528802020468 1.900797887321078  -1.844164754596701 -0.772091346568109 2.010603315858925  -1.136987574194024 -0.6174439811883486 1.914508136383919  -1.559711166137235 -0.3106849806081239 2.010557024887333  -1.897442875023726 -0.6015812930195484 1.762338718678639  -1.963461059963792 -0.3709860839702401 2.310841223256423  -1.215713265800185 -0.9538308876182483 2.553540915053693  -1.409469123291521 -0.5063568954541185 3  -1.922708098831475 -0.5182930120754501 3  -1.963461059963792 -0.3709860839702404 2.619478339133881  -1.041253869873927 -0.8410981672992764 2.273132996619828  -1.969972668408264 -0.3048726139361433 1.778179663051902  -0.921697750839283 -1.168620002219665 2.287594318469468  -1.40848200968545 -1.418917326102362 2.197918156878704  </DataArray>
</Points>
<Cells>
<DataArray  type="UInt32"  Name="connectivity"  format="ascii">0 1 2 3  4 5 6 7  4 5 7 8  9 10 11 12  13 9 12 14  15 10 11 16  6 7 11 16  3 17 15 10  2 15 10 16  16 18 19 20  5 21 9 10  4 8 22 23  7 8 24 23  15 11 16 18  3 17 10 25  18 19 26 20  3 21 27 25  21 13 9 10  5 8 9 10  10 11 12 18  5 7 8 11  15 16 18 19  1 2 15 16  5 6 10 11  4 7 8 23  15 10 11 18  5 8 10 11  7 11 16 20  11 16 18 20  6 10 11 16  2 6 10 16  7 11 24 20  8 9 10 11  2 6 21 10  17 15 10 18  1 15 16 19  3 21 27 28  3 21 10 25  2 3 21 10  13 9 10 25  7 8 11 24  21 13 10 25  2 3 15 10  1 2 3 15  5 21 13 9  5 6 21 10  0 2 3 28  5 6 7 11  2 3 21 28  13 12 14 25  17 10 12 18  17 10 12 25  9 10 12 25  13 9 12 25  </DataArray>
<DataArray  type="UInt32"  Name="offsets"  format="ascii">4 8 12 16 20 24 28 32 36 40 44 48 52 56 60 64 68 72 76 80 84 88 92 96 100 104 108 112 116 120 124 128 132 136 140 144 148 152 156 160 164 168 172 176 180 184 188 192 196 200 204 208 212 216 </DataArray>
<DataArray  type="UInt8"  Name="types"  format="ascii">10 10 10 10 10 10 10 10 10 10 10 10 10 10 10 10 10 10 10 10 10 10 10 10 10 10 10 10 10 10 10 10 10 10 10 10 10 10 10 10 10 10 10 10 10 10 10 10 10 10 10 10 10 10 </DataArray>
</Cells>
<CellData  Scalars="f">
<DataArray  type="Float64"  Name="f"  format="ascii">3 3 3 2 2 2 3 2 2 3 2 2 3 3 2 3 2 2 2 2 3 3 3 2 3 2 2 3 3 2 2 3 2 2 2 3 2 2 2 2 3 2 2 3 2 2 3 3 2 2 2 2 2 2 </DataArray>
</CellData>
</Piece>
</UnstructuredGrid>
</VTKFile>