<?xml version="1.0"?>
<VTKFile type="UnstructuredGrid"  version="0.1"  >
<UnstructuredGrid>
<Piece  NumberOfPoints="29" NumberOfCells="54">
<Points>
<DataArray  type="Float64"  NumberOfComponents="3"  format="ascii">0.724634143467811 1.448197965544568 2.145869248227742  0.3251415674980697 1.44307702781416 2.096353265541737  0.5681290962822957 1.549327866949738 1.773146020401223  0.5558257833500052 1.911322657138745 1.900059277335361  -0.06873693303092365 1.389446822062717 1.983219617280064  0.04504083786607943 1.649225737844505 2.218881006887865  0.1898814847936827 1.573183929223919 1.712662906107614  -0.3653837498630332 0.9291273338257455 1.55456478137134  -0.03930125034265256 0.996129164700061 1.859726882642217  0.1523760183173296 0.9849922721179493 1.540021591033011  -0.210955085465953 1.473064701073961 1.604276690252083  0.08130583150362561 1.348055664983449 1.373419031199028  -0.03919175637006414 0.9961399489150803 2.208831768913183  0.2619811471086827 0.9604941704476454 1.824094099115754  0.3333848312727352 1.967164460109957 1.63125333343706  0.06418241993696404 1.99367858338955 1.85486200412636  0.7348330606125655 1.857021393239568 2.170834804539639  0.4647844889462314 1.222718290358298 1.725376484616937  0.5537687920112865 1.351859095829314 2.530044562726093  0.4637410722358405 1.939256248866168 2.338340568812943  0.5165522821737178 1.172046529814467 2.226237013913654  0.08031105797774156 1.311169543640173 2.313436608907443  0.1892822557040117 1.981357325005102 2.149240652371118  -0.1428347826811779 1.985932001805516 2.521964616201382  -0.1428347826811782 1.985932001805518 2.098879296860811  0.1661565775744638 1.551646101203875 2.556887451517214  0.1785856489387258 1.982410848816575 2.485013482829006  -0.007223157962659155 1.999288581035586 1.542883892344841  0.4653676037139801 1.406216133155081 1.432180213150491  </DataArray>
</Points>
<Cells>
<DataArray  type="UInt32"  Name="connectivity"  format="ascii">0 1 2 3  1 4 5 6  7 8 9 10  8 9 10 11  12 4 8 13  3 6 14 15  4 6 8 11  0 1 3 16  1 4 17 13  0 1 18 19  0 1 18 20  1 2 3 6  0 2 3 16  1 21 20 13  0 1 16 19  1 3 19 22  5 23 22 24  3 6 15 22  1 18 21 20  6 8 9 13  1 3 6 22  0 1 2 17  12 4 21 13  7 9 10 11  1 4 6 17  1 17 20 13  4 8 10 11  4 6 10 11  1 2 6 17  4 6 8 13  1 4 21 13  1 18 25 21  6 8 9 11  5 26 23 22  6 27 14 15  0 1 17 20  1 18 25 19  5 15 22 24  1 4 5 21  12 21 20 13  5 25 26 23  1 5 25 21  5 6 15 22  1 5 6 22  1 5 19 22  5 26 19 22  5 25 26 19  1 5 25 19  9 28 11 17  6 28 11 17  6 9 11 17  6 9 17 13  4 6 17 13  1 3 16 19  </DataArray>
<DataArray  type="UInt32"  Name="offsets"  format="ascii">4 8 12 16 20 24 28 32 36 40 44 48 52 56 60 64 68 72 76 80 84 88 92 96 100 104 108 112 116 120 124 128 132 136 140 144 148 152 156 160 164 168 172 176 180 184 188 192 196 200 204 208 212 216 </DataArray>
<DataArray  type="UInt8"  Name="types"  format="ascii">10 10 10 10 10 10 10 10 10 10 10 10 10 10 10 10 10 10 10 10 10 10 10 10 10 10 10 10 10 10 10 10 10 10 10 10 10 10 10 10 10 10 10 10 10 10 10 10 10 10 10 10 10 10 </DataArray>
</Cells>
<CellData  Scalars="f">
<DataArray  type="Float64"  Name="f"  format="ascii">2 2 2 2 2 3 2 2 2 2 2 2 3 2 2 2 3 3 2 2 2 2 2 2 2 2 2 2 2 2 2 2 2 3 3 2 2 3 2 2 2 2 3 2 2 3 2 2 2 2 2 2 2 2 </DataArray>
</CellData>
</Piece>
</UnstructuredGrid>
</VTKFile>