<?xml version="1.0"?>
<VTKFile type="UnstructuredGrid"  version="0.1"  >
<UnstructuredGrid>
<Piece  NumberOfPoints="27" NumberOfCells="53">
<Points>
<DataArray  type="Float64"  NumberOfComponents="3"  format="ascii">-1.135021910619427 -1.16626625365506 3  -1.215713265800185 -0.9538308876182483 2.553540915053693  -1.12411020791712 -1.278183909038757 2.663712644079244  -1.493077796739337 -1.318117214755033 3  -1.197231946569764 -0.8935000884181146 3  -1.026530777987678 -0.7845869878285077 2.750527785280121  -0.676799471553154 -0.7319793474097507 3  -0.8599070038466563 -1.217092010338265 3  -1.391863014225371 -1.432556183201322 2.487165755782071  -1.589966200280416 -1.200058353451638 2.604666790360831  -0.8684335803860386 -0.4864155127578036 3  -0.7816643063515565 -0.6162581739138699 2.628285567420904  -1.825220060093612 -0.8075343770849391 3  -1.50185727969032 -0.9077313623873615 2.669221514509792  -1.629173242682837 -0.4396626659265072 2.682257104076729  -1.443087929305139 -0.7767680545180204 3  -0.921697750839283 -1.168620002219665 2.287594318469468  -1.273765054315926 -1.529476674139142 3  -1.409469123291521 -0.5063568954541185 3  -1.753095244320935 -0.9424704166201683 2.487402243689921  -1.680970428548259 -1.077406456155398 3  -0.860916983567095 -1.056922184978935 2.611324509355333  -1.26350801991714 -0.4011185096612048 2.684939077533538  -0.9273729073291088 -0.3711673189324999 2.536857347675441  -1.589966200280415 -1.200058353451638 2.140554217345306  -1.40848200968545 -1.418917326102362 2.197918156878704  -1.041253869873927 -0.8410981672992764 2.273132996619828  </DataArray>
</Points>
<Cells>
<DataArray  type="UInt32"  Name="connectivity"  format="ascii">0 1 2 3  4 5 6 7  1 2 8 9  5 6 10 11  12 13 14 15  1 2 16 8  0 2 7 17  13 14 18 15  12 13 19 20  0 2 7 21  5 22 18 10  12 14 18 15  0 5 7 21  5 23 10 11  13 4 15 20  0 1 3 4  13 14 22 18  2 3 8 17  2 3 8 9  24 19 1 9  0 4 5 7  4 5 18 10  4 5 18 15  5 22 18 15  5 22 23 10  12 13 15 20  24 1 8 9  4 5 6 10  0 1 4 5  0 2 3 17  1 2 3 9  0 1 2 5  13 3 4 20  13 3 9 20  13 19 9 20  13 5 22 15  13 22 18 15  13 4 5 15  13 1 4 5  13 1 3 4  13 1 3 9  13 19 1 9  24 1 25 8  1 16 25 8  5 6 7 21  5 23 26 11  1 2 16 21  1 2 5 21  0 2 5 21  1 5 21 26  1 16 21 26  5 21 26 11  5 6 21 11  </DataArray>
<DataArray  type="UInt32"  Name="offsets"  format="ascii">4 8 12 16 20 24 28 32 36 40 44 48 52 56 60 64 68 72 76 80 84 88 92 96 100 104 108 112 116 120 124 128 132 136 140 144 148 152 156 160 164 168 172 176 180 184 188 192 196 200 204 208 212 </DataArray>
<DataArray  type="UInt8"  Name="types"  format="ascii">10 10 10 10 10 10 10 10 10 10 10 10 10 10 10 10 10 10 10 10 10 10 10 10 10 10 10 10 10 10 10 10 10 10 10 10 10 10 10 10 10 10 10 10 10 10 10 10 10 10 10 10 10 </DataArray>
</Cells>
<CellData  Scalars="f">
<DataArray  type="Float64"  Name="f"  format="ascii">2 2 2 2 3 2 2 2 3 2 2 2 2 2 2 2 2 3 3 2 2 2 2 2 2 3 2 2 2 3 2 2 2 3 3 2 2 2 2 2 2 2 2 2 2 2 2 2 2 2 2 2 2 </DataArray>
</CellData>
</Piece>
</UnstructuredGrid>
</VTKFile>