<?xml version="1.0"?>
<VTKFile type="UnstructuredGrid"  version="0.1"  >
<UnstructuredGrid>
<Piece  NumberOfPoints="28" NumberOfCells="53">
<Points>
<DataArray  type="Float64"  NumberOfComponents="3"  format="ascii">1.309042816421539 0.6566897535263003 1.914589461721429  1.104073015177871 0.6919044888178379 2.199827174464386  1.3230625116969 1.011817659597906 2.172887002434679  0.9523811489366802 0.9280136144060591 1.991006714703743  1.537938004108834 0.3988833851826157 1.610246889482192  1.528628048170029 0.793259518902411 1.682866074878788  1.864887735742922 0.7089012046588129 1.70230315691564  1.633400512175074 0.5523538621325321 1.896810783005982  1.306565176860637 0.2424610329078545 1.813117726371024  0.975916883062993 0.2111392772324619 1.907184550331901  1.272051169397702 0.3887084163519063 2.15271658934227  1.973375011178071 0.270328048077222 1.551316322258586  1.969031808222339 0.3144253277147419 1.824793590277201  0.9951802512173802 -0.04893573061540975 2.071059000858836  0.9961291647000609 0.03930125034265278 2.366149253747398  1.373199007690748 -0.07088942277561612 2.072909093853512  1.577516263527545 0.2445926416712043 2.026984224023344  1.461407354084697 0.3188625083491338 2.451301070500147  1.836814217677966 0.7858432338990634 2.034254300491162  0.78166430635156 0.6162581739138655 2.087158698843136  0.9303745232894607 0.361272317198322 2.264032526654605  1.922661372009443 0.5184470497641958 2.229265343267069  1.681101295712113 1.077161620912404 1.812157250467173  0.9499318752610488 0.296800368011287 1.644410838642258  1.53094551303761 0.6457947355135885 2.241040458674436  0.834773061326767 0.5493899145902292 1.644223245116999  1.225257003058708 1.087822772977291 1.802378243505504  0.9218510219741471 0.9261978185950753 1.624065965663955  </DataArray>
</Points>
<Cells>
<DataArray  type="UInt32"  Name="connectivity"  format="ascii">0 1 2 3  4 5 6 7  8 9 0 10  4 11 12 6  13 14 10 15  16 17 10 15  18 5 6 7  9 0 1 10  9 0 1 19  4 12 16 7  9 20 1 10  12 21 16 7  22 18 5 6  20 17 14 10  17 14 10 15  9 13 20 10  0 2 22 5  8 9 0 23  9 13 10 15  21 16 7 24  21 16 17 24  8 9 10 15  21 18 7 24  9 20 1 19  0 1 3 19  0 1 10 24  8 4 16 7  9 0 25 19  0 2 22 18  8 16 10 15  0 2 18 24  0 1 2 24  16 17 10 24  4 0 5 7  16 7 10 24  0 22 18 5  13 20 14 10  8 16 7 10  0 7 10 24  26 2 22 5  0 18 7 24  26 0 2 5  0 18 5 7  12 21 18 7  9 0 25 23  26 0 2 3  26 0 3 27  0 25 3 27  0 25 3 19  12 18 6 7  4 12 6 7  8 4 0 7  8 0 7 10  </DataArray>
<DataArray  type="UInt32"  Name="offsets"  format="ascii">4 8 12 16 20 24 28 32 36 40 44 48 52 56 60 64 68 72 76 80 84 88 92 96 100 104 108 112 116 120 124 128 132 136 140 144 148 152 156 160 164 168 172 176 180 184 188 192 196 200 204 208 212 </DataArray>
<DataArray  type="UInt8"  Name="types"  format="ascii">10 10 10 10 10 10 10 10 10 10 10 10 10 10 10 10 10 10 10 10 10 10 10 10 10 10 10 10 10 10 10 10 10 10 10 10 10 10 10 10 10 10 10 10 10 10 10 10 10 10 10 10 10 </DataArray>
</Cells>
<CellData  Scalars="f">
<DataArray  type="Float64"  Name="f"  format="ascii">2 3 2 3 2 2 3 2 2 3 2 3 3 2 2 2 2 2 2 3 2 2 3 2 2 2 2 2 2 2 2 2 2 2 2 2 2 2 2 3 2 2 2 3 2 2 2 2 2 3 3 2 2 </DataArray>
</CellData>
</Piece>
</UnstructuredGrid>
</VTKFile>