<?xml version="1.0"?>
<VTKFile type="UnstructuredGrid"  version="0.1"  >
<UnstructuredGrid>
<Piece  NumberOfPoints="274" NumberOfCells="998">
<Points>
<DataArray  type="Float64"  NumberOfComponents="3"  format="ascii">0.9975900863756388 -0.02446826364756045 1.820162622298472  1.306565176860637 0.2424610329078545 1.813117726371024  0.975916883062993 0.2111392772324619 1.907184550331901  0.9951802512173802 -0.04893573061540975 2.071059000858836  1.260707342937499 0.7300631062328511 0.9419800973833657  1.536685347343925 0.4564202830929406 0.9144532787471632  1.521730041657627 0.5767379203131159 1.274706434082253  1.210151134424121 0.4870046897190103 1.173712518554512  1.224428711902422 0.8572007005199244 0  1.42566686790015 0.4574536675564076 0  1.712525035448802 1.018371938858741 0  1.554737943054615 0.6015453838148427 0.2951785074342577  1.628955077327481 -0.2793896626513032 0.9677355255378075  1.30638307684875 -0.09277109321427224 1.289033245456324  1.342598497655672 -0.06787414183251217 0.940529907570455  1.427438726121689 -0.4205119031039213 1.226491637279935  0.6767994715531577 0.7319793474097477 3  1.027959644058885 0.7192570667302717 2.691725847794147  0.8850474053629072 1.047062943728529 2.678047646755426  1.01830748860629 0.8009307475729233 3  1.535543153705771 1.266373027576081 0  1.266959080528367 1.072837320342046 0.3070083336368682  1.43673812410744 -0.7950599575217407 3  1.523639262547009 -0.8469867907394436 2.727557798938584  1.281126403723213 -0.9064542725908143 2.578816114476334  1.191083185303006 -0.6529289547279682 3  1.63380507737217 -0.4378909949413543 0.3325167026671486  1.970041898255386 -0.3041697115023912 0.6834035408271888  1.659758281800898 -0.09114527595580398 0.2929982176124458  1.65659855429246 0.01793192137783933 0.7080773934678531  1.2560895533838 0.3755624603121517 0.2715940152176433  1.689400724141101 0.2795524307698475 0.3175238567445141  1.312522086149463 0.04418798656386991 0.5971271750425831  0.9909472039646317 -1.396967610995839 1.453240451611627  1.092491429426801 -1.237240286631584 1.100137911566619  1.249062703564479 -1.017640071547412 1.395575611324744  1.327968818890031 -1.484992794170104 1.416664223210889  1.465402221623878 -0.04489871403178196 1.706566879402843  0.9879066000062189 0.122786350702366 1.431478669349838  1.240324522846978 -0.3320077038749461 1.621876263441188  1.036045472981225 -1.131598142160147 2.305939992440852  1.293553889202226 -1.513236397052745 2.007893450637432  1.377007681604169 -1.444747639614252 2.604296761945696  1.140923172883932 -1.638497188764155 2.487169426358633  1.537938004108834 0.3988833851826157 1.610246889482192  1.483670250902227 0.1972611969767152 1.200509124604304  1.980796191678785 0.1949795379762737 1.272752160226466  1.973375011178071 0.270328048077222 1.551316322258586  1.21280184750641 0.4890103147549554 1.513303729082223  1.309042816421539 0.6566897535263003 1.914589461721429  0.834773061326767 0.5493899145902292 1.644223245116999  0.9499318752610488 0.296800368011287 1.644410838642258  1.368678078507036 0.6021012272576759 3  1.370337434648327 0.8804048728148564 3  1.270640664059122 -0.8119874130366888 0.5027413848344545  1.632405147363933 -1.14834634680813 0.3884137081410578  1.395507801611464 -0.9792884678768545 0.2657458773266963  1.784573970979939 -0.8835778612704865 0.4779684402652754  0.983209864912874 -0.1704731023705619 1.402644267236984  0.78166430635156 0.6162581739138655 2.517007383206871  0.9353432843813162 0.3448925070327119 2.607724074330001  0.9303745232894607 0.361272317198322 2.264032526654605  1.104073015177871 0.6919044888178379 2.199827174464386  1.021224317089319 -0.8321952982497536 2.744115519016117  1.047013801459084 -0.7987522746294097 2.360842438458281  1.157225533554486 -0.557645663691798 2.6634089496916  1.969031808222339 0.3144253277147419 1.824793590277201  1.983317250557431 0.1693827976241926 2.256222692206497  1.922661372009443 0.5184470497641958 2.229265343267069  1.577516263527545 0.2445926416712043 2.026984224023344  0.9807852804032301 0.1950903220161294 0  0.8684335803860413 0.4864155127577983 0  0.9353432843813161 0.3448925070327119 0.3832132922302746  1.182176736733822 -0.5334086362333482 0.3192335765166306  1.462016366000571 -0.7271277098804615 0  1.970041898255386 -0.3041697115023916 0.3779916813090995  1.985003145680571 -0.1522656171833129 0  1.999999999999999 6.968165638565067e-15 0.3985444447641837  1.3230625116969 1.011817659597906 2.172887002434679  0.9523811489366802 0.9280136144060591 1.991006714703743  1.494203005205635 0.7405095677646405 2.726263718587226  1.825070198773849 0.8078147478942337 2.521964489803257  1.681101295712113 1.077161620912404 2.611568727645668  1.753095244320932 0.9424704166201746 3  0.9503766371393803 -0.2953341845902507 0.4124879937820758  1.421903329894547 -0.3657283814218122 0.6899689842777004  0.9961291647000607 0.03930125034265271 0.7784817129724662  0.9348982732850508 -0.3463595120151748 0.9483086574781385  1.411246688167548 0.8229637507738986 0.588954136180895  1.632405147363925 1.14834634680814 0.5552635495836769  1.65217473625621 1.124257033043466 0.9742089932219158  1.775794024887503 0.9000039850720389 0.7554440117419637  1.558715434234333 -0.6624462133366534 0.6001189994399113  1.989245257061672 0.1091947375277718 0.997252531244357  1.970041898255384 0.3041697115024052 0.5247613097723676  0.8314696123025456 -0.5555702330196017 0.5921373179936089  1.144172503956892 -0.5822964095468832 0.7715770218375753  0.7382396701936051 -0.6691712461697086 0.8250178239670978  1.651877234927607 0.04661358185998513 2.316529382948543  1.461407354084697 0.3188625083491338 2.451301070500147  0.9955766913757021 -0.8275633668952809 1.576748496695827  0.9891672680131292 -1.158577117081503 1.709826940973592  0.8987160698082683 -0.9435129158360137 1.23366329697726  1.648107957350248 -0.1227976461946005 1.364587885103908  1.68221040786837 -1.075086618014131 1.897078622044345  1.525834664853178 -1.278202855471096 2.001983103516767  1.577906393046284 -1.214753271084339 2.322127980053373  1.328949563601201 -1.01262221653328 1.84952744500381  1.300244485950819 1.049871952119805 2.714136197892474  1.590141469805477 1.199844786917422 3  1.681101295712113 1.077161620912404 1.812157250467173  1.707767068799412 1.027273468367432 2.239090906721865  1.836814217677966 0.7858432338990634 2.034254300491162  1.423022926932872 -0.4566516368323163 0  1.94213932981897 -0.4542368280538477 0  1.528628048170029 0.793259518902411 1.682866074878788  1.864887735742922 0.7089012046588129 1.70230315691564  1.633400512175074 0.5523538621325321 1.896810783005982  0.9884711682419383 -0.1170541932096764 0  1.491495225062903 4.288236432614667e-15 0  1.351750146639622 0.2133536864420462 0  1.337709745385502 -0.2253252951812511 0.3203539436913537  1.493220117564737 1.317943796327518 2.635091161824943  1.236921501535322 0.2780080843168226 0.8712056601341078  0.9945396279790377 -0.05544008750856189 1.131547179751708  1.311974525224038 -0.6956341727803129 1.675784623073192  1.174552485327538 -0.6701200621072125 1.311229520333875  0.8314696123025456 -0.5555702330196017 2.531509163349302  0.9579954471492395 -0.2702183339099079 2.60999222922397  0.9370351277853799 -0.3393152467708075 2.235031275832076  1.117210130711165 0.9976546370238477 3  1.853310845304712 0.7470650978668738 0  1.497058853128168 -0.05861660571545971 3  1.671430039097014 -0.1851805014878861 2.677115681997409  1.670567549696843 0.2856369856662641 2.703176839502749  1.993438876235249 0.06661620751770959 3  1.712525035448808 -1.01837193885873 0  1.853310845304716 -0.7470650978668609 0  0.889697853345768 -0.4466328561777781 1.359680527267251  1.181418673939591 -0.860428236046094 0.9995055285808094  0.8168025044115795 -0.573442155694923 1.090153470182442  0.9407160489645355 0.8426778128053216 0.8413702161955313  1.185694870140822 0.5668471748948971 0.6562871613763798  0.9349189856343629 0.3462912325500227 0.7047979544872645  1.295725324823253 -0.139469752160702 2.675694683882688  0.9961291647000609 0.03930125034265278 2.366149253747398  0.9961291647000609 0.03930125034265268 2.644899764220374  1.632405147363925 1.14834634680814 0.3222839555883715  1.505099855798953 -0.5784556841769523 2.617920706697614  1.897725087561839 0.6006509629603677 0.8889621766775162  0.996129164700061 0.03930125034265267 0.4203233659115466  1.467694350291765 -0.251631636679377 2.391948981687476  1.212781482319629 0.4518885862551065 3  1.528556046906038 0.2903348856475536 3  1.270170102859987 0.2094753273902723 2.691490875233663  1.12927075251153 1.116891617068138 0.9615898563112137  1.017988283394929 1.096890304312389 0.5685089787574747  1.225257003058708 1.087822772977291 1.802378243505504  1.229206351219692 1.160190834715364 1.468546914215901  0.9218510219741471 0.9261978185950753 1.624065965663955  1.284222657818734 0.8244103938606859 1.438202364894423  0.9529390101181481 0.2868871729127317 1.078171209914726  0.9156369094044521 0.3981042955659521 1.350014245799508  1.864806414414905 0.7091692851502488 1.17856660369761  1.272051169397702 0.3887084163519063 2.15271658934227  1.116274092375622 0.7030559869568249 0.3554305840292444  1.392037482153536 1.432413001073002 3  0.7319793474097475 -0.676799471553158 0  1.220003014685507 -0.8540423747822103 0  0.9053975484695387 -0.4172607924959917 0  1.878293856574346 0.6647071469819641 3  1.978442021915819 0.2188818247010295 2.608043335220048  1.329644016801523 -0.7148664512826449 2.196512634839139  1.225354387501196 -0.4131867490015729 2.04310263419407  1.568024024482216 -0.4128773890885717 1.95366538225923  1.873317132660131 0.6811132070549863 0.6336369605768306  0.7816643063515599 0.6162581739138655 0.6208355503410141  1.041119345695563 0.8518276646801668 1.186872341811162  1.963445167596389 0.3711474418843493 3  1.942139329818966 0.4542368280538605 0  1.265521896995151 0.7947982424302589 2.492591687190762  1.53094551303761 0.6457947355135885 2.241040458674436  1.985003145680569 0.1522656171833267 0  1.493220117564737 1.31
[...]
<CellData  Scalars="f">
<DataArray  type="Float64"  Name="f"  format="ascii">2 2 2 2 2 2 2 3 2 3 2 2 2 2 2 2 2 2 2 3 2 2 3 2 3 2 3 3 3 2 2 2 2 3 3 3 2 3 2 3 2 2 2 2 2 2 3 2 2 2 2 3 2 2 3 2 2 2 2 2 2 2 2 3 2 2 2 2 2 3 3 2 3 2 2 3 2 2 3 2 3 2 2 2 2 2 2 2 2 2 2 3 2 2 2 2 2 3 2 2 2 2 2 2 2 2 2 2 2 2 3 2 3 2 2 2 2 3 3 2 3 2 2 2 2 2 2 2 2 2 2 2 2 3 2 3 2 3 2 2 2 2 3 2 2 3 2 2 3 2 2 3 2 2 3 2 2 2 2 2 2 2 3 2 2 3 2 2 3 2 3 2 2 3 2 3 2 3 2 2 2 2 2 2 3 2 2 2 2 3 2 2 3 2 3 2 3 2 2 2 3 2 2 2 2 2 2 2 2 3 2 2 2 2 2 3 2 3 2 3 3 2 2 2 2 3 2 2 2 2 2 2 2 3 3 2 2 2 2 2 2 2 3 2 2 2 2 2 2 3 3 2 2 2 2 3 3 2 3 2 2 2 3 3 2 3 3 2 2 2 2 3 3 2 3 2 2 2 2 2 2 2 3 2 2 2 3 2 2 2 2 2 3 2 2 2 2 3 2 3 2 3 2 2 2 2 2 2 2 3 2 2 2 3 2 2 2 2 3 2 2 3 2 2 3 3 3 2 2 3 2 2 2 3 3 2 2 2 2 2 2 2 3 3 2 3 2 2 2 2 2 3 2 2 2 2 2 3 2 3 2 2 2 3 2 2 2 2 2 2 2 2 2 2 3 2 3 2 2 2 2 2 2 2 2 2 2 3 2 2 2 2 3 2 3 3 2 2 2 3 2 3 2 2 2 2 2 2 2 2 3 2 2 2 2 2 3 3 2 2 2 2 2 2 2 2 2 2 2 2 2 2 2 2 2 2 2 3 3 2 2 2 2 2 2 2 2 3 3 2 2 3 2 3 2 2 2 2 2 2 2 2 2 2 3 3 2 3 3 2 2 3 2 3 2 2 3 3 2 2 3 2 2 3 2 2 2 2 2 2 2 2 2 2 3 2 3 3 2 2 2 2 3 3 2 2 2 2 3 2 3 3 2 3 2 2 2 3 2 2 2 2 2 3 2 2 2 3 2 2 2 3 2 2 2 2 2 2 2 2 2 2 2 3 2 2 2 3 2 2 2 2 2 2 2 2 2 2 2 2 2 2 2 2 2 3 3 3 2 3 3 2 2 3 2 2 2 2 2 3 2 2 2 2 2 2 2 2 2 3 2 2 2 2 2 2 3 2 2 3 2 2 2 2 3 3 2 2 3 2 2 2 2 2 2 2 2 2 2 2 2 2 2 2 2 2 2 2 2 2 2 2 2 3 3 2 2 3 2 3 2 2 2 2 3 2 2 2 2 2 3 3 2 3 2 2 2 3 2 2 2 2 2 3 2 3 3 2 2 2 2 2 2 2 2 3 2 2 2 3 2 2 2 2 2 3 3 2 2 3 3 2 2 2 2 2 2 2 2 2 3 3 2 2 2 2 2 2 2 2 2 2 2 2 3 3 3 2 2 2 2 2 2 2 2 2 2 2 2 2 2 2 2 2 2 2 2 2 2 2 2 2 2 2 2 2 2 3 2 3 2 2 3 3 2 2 2 2 2 2 2 2 3 2 2 2 2 2 2 2 2 2 2 2 2 2 2 2 2 2 2 2 2 2 2 2 2 2 2 2 2 2 3 2 2 2 2 2 3 3 2 2 2 2 2 2 2 2 2 2 2 2 2 2 2 3 2 2 2 2 2 2 2 2 3 3 3 2 2 2 2 2 2 2 2 2 3 3 2 2 2 2 2 2 2 2 2 2 3 3 2 2 3 3 3 3 3 2 2 2 2 2 3 2 2 2 2 2 3 2 2 3 2 2 2 2 3 2 3 3 3 3 2 2 3 2 2 2 2 2 2 2 2 2 2 2 2 2 2 2 2 2 2 2 2 2 2 2 2 2 2 2 2 2 2 2 2 2 2 2 2 2 2 2 2 2 2 2 2 3 2 2 2 2 2 2 2 2 2 2 2 2 2 2 2 2 2 2 2 2 2 2 3 2 2 2 3 2 2 2 2 3 2 2 3 2 2 2 2 2 3 3 2 2 2 3 2 3 3 3 2 2 3 3 3 3 2 2 2 2 2 2 3 3 2 2 3 3 </DataArray>
</CellData>
</Piece>
</UnstructuredGrid>
</VTKFile>