<?xml version="1.0"?>
<VTKFile type="UnstructuredGrid"  version="0.1"  >
<UnstructuredGrid>
<Piece  NumberOfPoints="32" NumberOfCells="55">
<Points>
<DataArray  type="Float64"  NumberOfComponents="3"  format="ascii">1.092491429426801 -1.237240286631584 1.100137911566619  0.9344489280029292 -1.205747589929833 0.6700235462414565  0.8485002008188643 -1.429461788386965 0.9449229369154447  0.6880433675056885 -1.121966191992488 0.9284130437667307  1.207410232084788 -1.583932669413443 0.4030665077673261  1.207410232084791 -1.583932669413441 0.9369805847155872  1.438655598214031 -1.384430855528367 0.5447194833783637  0.5856823205122168 -1.158674077188969 0.5859765723483118  0.9829058205933265 -0.9520320181590249 0.2877579712611045  0.6162581739138656 -0.78166430635156 0.388998261253502  0.9689039014014911 -0.8636182641803768 0.6596981191451107  0.7382396701936051 -0.6691712461697086 0.8250178239670978  0.5475044054800325 -0.8357808869431038 0.7168899887310269  0.6162581739138655 -0.78166430635156 1.044781716208552  0.781499263791819 -1.839136118074525 1.05609281052021  1.044105157612409 -1.698770343461109 1.201419811392828  0.9683468022655228 -1.739264028035336 0.8437701902339625  1.181418673939591 -0.860428236046094 0.9995055285808094  1.459504997970568 -1.359025788418634 0.9579296012741751  1.601311506955577 -1.186234057269077 1.212109988118662  1.327968818890031 -1.484992794170104 1.416664223210889  0.8987160698082683 -0.9435129158360137 1.23366329697726  0.8168025044115795 -0.573442155694923 1.090153470182442  0.9509039190911233 -1.748587443335142 0.5444774374960997  0.6749552035345591 -0.7334928990572152 1.451553990159651  1.270340412691194 -1.089245202787454 0.734407584149086  1.117341003440476 -1.266002944659981 0.3130695116008358  0.5008599238356093 -1.41435896777325 0.8102226109784102  0.7002180092698143 -1.86752175426729 0.7322883312125787  0.4241446011805524 -0.9017180760698862 1.216529763708969  0.3077697302541748 -0.9466043556033813 0.9610693252871769  0.7127687774886917 -1.403756765098879 0.3700150094896146  </DataArray>
</Points>
<Cells>
<DataArray  type="UInt32"  Name="connectivity"  format="ascii">0 1 2 3  1 4 5 6  7 8 9 10  11 12 3 13  2 14 15 16  0 1 2 5  0 17 18 19  1 2 5 16  0 20 18 19  21 11 17 22  21 11 3 13  1 23 2 16  21 11 22 13  24 21 22 13  17 1 25 10  1 4 6 26  27 7 1 3  0 2 15 5  7 1 8 10  1 4 23 5  21 11 3 10  23 2 16 28  21 11 17 10  24 21 29 13  1 23 5 16  0 20 5 18  30 12 3 13  30 7 12 3  1 25 8 10  2 14 16 28  27 1 2 3  0 21 17 3  0 17 1 3  2 15 5 16  1 6 25 26  1 5 6 25  5 6 25 18  0 5 25 18  0 17 25 18  0 17 1 25  0 1 5 25  1 25 26 8  30 3 29 13  21 3 29 13  0 20 15 5  7 1 3 10  11 12 3 10  7 12 3 10  17 1 3 10  21 17 3 10  31 1 23 2  27 31 23 2  27 23 2 28  27 31 1 2  7 12 9 10  </DataArray>
<DataArray  type="UInt32"  Name="offsets"  format="ascii">4 8 12 16 20 24 28 32 36 40 44 48 52 56 60 64 68 72 76 80 84 88 92 96 100 104 108 112 116 120 124 128 132 136 140 144 148 152 156 160 164 168 172 176 180 184 188 192 196 200 204 208 212 216 220 </DataArray>
<DataArray  type="UInt8"  Name="types"  format="ascii">10 10 10 10 10 10 10 10 10 10 10 10 10 10 10 10 10 10 10 10 10 10 10 10 10 10 10 10 10 10 10 10 10 10 10 10 10 10 10 10 10 10 10 10 10 10 10 10 10 10 10 10 10 10 10 </DataArray>
</Cells>
<CellData  Scalars="f">
<DataArray  type="Float64"  Name="f"  format="ascii">2 2 2 2 3 2 2 2 3 2 2 2 2 2 2 2 2 3 2 2 2 3 2 2 2 3 2 2 2 3 2 2 2 3 2 2 3 3 2 2 2 2 2 2 3 2 2 2 2 2 2 2 2 2 2 </DataArray>
</CellData>
</Piece>
</UnstructuredGrid>
</VTKFile>