<?xml version="1.0"?>
<VTKFile type="UnstructuredGrid"  version="0.1"  >
<UnstructuredGrid>
<Piece  NumberOfPoints="29" NumberOfCells="55">
<Points>
<DataArray  type="Float64"  NumberOfComponents="3"  format="ascii">-0.466214676280916 -1.211890401209563 2.187344616839348  -0.4913090933137605 -0.8658179070842074 2.050180167494419  -0.7726014355937718 -1.079608252005977 1.969491187350024  -0.921697750839283 -1.168620002219665 2.287594318469468  -0.7951296159210844 -0.5998506467302667 1.75433246864053  -0.718776826249423 -1.07158912740432 1.415368659861116  -0.9682708406532703 -1.138792772600605 1.670236978742137  -0.4568075246905228 -0.8842593797210982 1.636672436524356  -0.6559706135434473 -1.42180405776329 1.944159649815638  -0.5555702330195978 -0.8314696123025476 2.575390594315841  -0.4388734060990037 -1.25592219989705 1.687950063861267  -1.467388403511188 -1.349419830973749 1.854699578985386  -1.260123051423864 -1.540672376577078 1.701925022327931  -0.9858136949204921 -1.342106789180089 1.941367150305387  -1.239106987961229 -1.557919814127574 2.007873969271844  -1.217866055289757 -1.018367432924538 2.006040510804831  -0.6987982521878753 -0.7139254147187428 1.976332094432736  -1.40848200968545 -1.418917326102362 2.197918156878704  -1.136987574194024 -0.6174439811883486 1.914508136383919  -0.7816643063515565 -0.6162581739138699 2.211217056324954  -0.7044377747742363 -0.709297178141717 1.39923211058477  -0.9547800418474424 -0.2808181046526108 2.095356488282758  -0.853420495280782 -1.453890156540273 1.485574797935731  -0.9423848302186555 -0.3216796412990161 1.782274022494871  -1.041253869873927 -0.8410981672992764 2.273132996619828  -0.7816643063515565 -0.6162581739138699 2.628285567420904  -0.9273729073291088 -0.3711673189324999 2.536857347675441  -1.306685448933046 -1.049055102510419 1.668773821659217  -1.201893715091328 -0.3615169074776507 2.325028010528075  </DataArray>
</Points>
<Cells>
<DataArray  type="UInt32"  Name="connectivity"  format="ascii">0 1 2 3  4 5 6 7  0 2 3 8  0 1 3 9  1 2 7 10  2 6 8 10  11 12 13 14  15 2 3 13  2 5 6 7  1 2 7 16  2 6 8 13  11 15 17 14  4 18 16 19  4 5 7 20  4 18 2 6  1 2 16 19  4 18 19 21  5 6 22 10  4 18 23 21  1 3 9 19  1 2 3 19  2 5 7 10  2 5 6 10  3 9 24 19  2 3 24 19  18 24 16 19  6 8 22 10  9 24 25 19  26 24 25 19  2 24 16 19  15 18 2 6  4 2 6 7  0 2 8 10  0 1 2 10  15 2 6 13  4 18 2 16  4 2 7 16  11 15 13 27  11 15 13 14  15 3 17 13  15 17 13 14  15 18 6 27  15 2 3 24  15 18 2 24  18 2 24 16  28 26 24 19  28 26 19 21  18 28 19 21  18 28 24 19  15 6 13 27  6 12 13 27  11 12 13 27  6 22 12 13  6 8 22 13  2 3 8 13  </DataArray>
<DataArray  type="UInt32"  Name="offsets"  format="ascii">4 8 12 16 20 24 28 32 36 40 44 48 52 56 60 64 68 72 76 80 84 88 92 96 100 104 108 112 116 120 124 128 132 136 140 144 148 152 156 160 164 168 172 176 180 184 188 192 196 200 204 208 212 216 220 </DataArray>
<DataArray  type="UInt8"  Name="types"  format="ascii">10 10 10 10 10 10 10 10 10 10 10 10 10 10 10 10 10 10 10 10 10 10 10 10 10 10 10 10 10 10 10 10 10 10 10 10 10 10 10 10 10 10 10 10 10 10 10 10 10 10 10 10 10 10 10 </DataArray>
</Cells>
<CellData  Scalars="f">
<DataArray  type="Float64"  Name="f"  format="ascii">2 2 2 2 2 2 3 2 2 2 2 3 2 2 2 2 2 2 2 2 2 2 2 2 2 2 2 2 2 2 2 2 2 2 2 2 2 3 3 2 3 2 2 2 2 2 2 2 2 2 2 3 2 2 2 </DataArray>
</CellData>
</Piece>
</UnstructuredGrid>
</VTKFile>