<?xml version="1.0"?>
<VTKFile type="UnstructuredGrid"  version="0.1"  >
<UnstructuredGrid>
<Piece  NumberOfPoints="31" NumberOfCells="52">
<Points>
<DataArray  type="Float64"  NumberOfComponents="3"  format="ascii">0.4424771317703592 1.636537897080414 1.145980375529705  0.7610821922140668 1.480496114794606 1.212109319789605  0.7071890786616311 1.865407103486085 1.057788929456574  0.756132811102644 1.850560184566739 1.503152000270716  0.4506392931273455 1.615455817897696 0.7978568622240574  0.6539837630963129 1.343736809428488 0.8786087193327419  1.043351705441751 1.699173072036732 1.471319563029217  1.07054329283585 1.684638865770407 1.1492173802839  0.6735271539842622 1.875618336700805 0.4401973666696549  0.380577548842038 1.962516383128318 0.3823981616479639  0.6803251584698611 1.873556184584951 0.7495903165146733  0.9509039190911128 1.748587443335147 0.6662571852807853  0.4671578611291403 1.204306292433994 0.6398323713313319  0.02676643764601537 1.300197661506557 0.7064266809922422  0.2702183339099075 0.9579954471492393 0.4203232145017637  0.2702183339099075 0.9579954471492396 0.7783171086140179  0.7016393297798049 1.063836696035372 1.070733255320897  0.6048500187449869 1.094333828430617 1.416453345737009  0.3972842327229683 1.249065946580822 1.11427448885042  -0.05076296388909356 0.9950002844479942 0.4645007508113306  0.4653676037139801 1.406216133155081 1.432180213150491  0.3693333200234774 1.963623843004327 1.279756406306504  0.3333848312727352 1.967164460109957 1.63125333343706  0.1442795150810441 1.484939248488856 1.010602050919654  -0.09708392555109108 0.9904380679290505 0.8772233868214522  0.3805775488420378 1.962516383128318 0.8191316464293175  0.7210652289595565 1.382696465015165 0.4268810221756049  0.950903919091113 1.748587443335147 0.3702691123058184  0.182152240719404 1.982059570186894 1.044691886492768  0.9352571762918497 1.404926263040069 0.6931304041311881  1.310285011115728 1.499505520151565 1.221305217044282  </DataArray>
</Points>
<Cells>
<DataArray  type="UInt32"  Name="connectivity"  format="ascii">0 1 2 3  0 2 4 5  0 1 2 5  1 3 6 7  4 8 9 10  4 5 10 11  12 13 14 15  1 16 17 18  0 1 5 18  13 14 15 19  3 20 21 22  16 12 15 18  1 2 3 7  23 24 13 18  0 3 20 21  0 1 3 20  0 2 4 25  1 16 5 18  4 9 10 25  26 8 27 11  2 4 5 10  2 4 10 25  24 13 15 18  26 8 10 11  2 5 10 11  26 4 10 11  28 0 4 25  1 5 29 11  1 30 6 7  0 1 20 18  23 12 13 18  0 2 21 25  0 2 3 21  1 2 5 11  1 2 7 11  24 13 15 19  1 17 20 18  12 4 5 18  26 12 4 5  16 12 5 18  26 4 29 11  26 27 29 11  4 5 29 11  1 7 29 11  26 4 8 10  0 4 5 18  23 0 4 18  26 4 5 29  23 28 0 4  23 12 4 18  12 13 15 18  26 12 5 29  </DataArray>
<DataArray  type="UInt32"  Name="offsets"  format="ascii">4 8 12 16 20 24 28 32 36 40 44 48 52 56 60 64 68 72 76 80 84 88 92 96 100 104 108 112 116 120 124 128 132 136 140 144 148 152 156 160 164 168 172 176 180 184 188 192 196 200 204 208 </DataArray>
<DataArray  type="UInt8"  Name="types"  format="ascii">10 10 10 10 10 10 10 10 10 10 10 10 10 10 10 10 10 10 10 10 10 10 10 10 10 10 10 10 10 10 10 10 10 10 10 10 10 10 10 10 10 10 10 10 10 10 10 10 10 10 10 10 </DataArray>
</Cells>
<CellData  Scalars="f">
<DataArray  type="Float64"  Name="f"  format="ascii">3 2 2 3 3 2 2 2 2 2 2 2 3 2 2 2 3 2 3 2 2 3 2 2 2 2 3 2 3 2 2 3 3 2 3 2 2 2 2 2 2 2 2 3 2 2 2 2 2 2 2 2 </DataArray>
</CellData>
</Piece>
</UnstructuredGrid>
</VTKFile>