<?xml version="1.0"?>
<VTKFile type="UnstructuredGrid"  version="0.1"  >
<UnstructuredGrid>
<Piece  NumberOfPoints="281" NumberOfCells="1036">
<Points>
<DataArray  type="Float64"  NumberOfComponents="3"  format="ascii">-0.7816643063515567 -0.6162581739138697 0.6026581783062313  -0.9371087481055426 -0.8922251360447764 1.088664921171928  -1.16338190992118 -0.9589332540313191 0.8328925187681296  -0.7884716442301241 -1.095831524663976 0.8509538879258189  0.3640039983156202 -0.9295458768818553 1.492983459038144  0.5487107599987853 -0.835136077018926 1.674549895774226  0.1549142625105386 -0.9847422768852969 1.663462742699079  0.5238237203988727 -1.388038725607619 1.724904091630777  0.3448925070327128 -0.935343284381316 2.53156913794189  0.6667024173463881 -1.138373263222274 2.268151214422505  0.534251333889346 -1.150859463366025 2.723599234707922  0.2758048264117831 -1.271826340920732 2.659392961480815  0.7268010615927014 -1.314753802040943 2.576584690100681  0.5974423874163273 -1.222689372975486 3  0.7189424133110188 -1.466689219514399 3  0.6749552035345591 -0.7334928990572152 1.451553990159651  0.7293269091082188 -0.6800314769749751 1.813533847354121  0.9955766913757021 -0.8275633668952809 1.576748496695827  0.3992169207580993 -1.237099101505668 1.191803284662142  0.5008599238356093 -1.41435896777325 0.8102226109784102  0.4927506055834525 -1.603916414605352 1.164357972639447  0.1225121416717126 -1.277591265884165 1.003367433258137  0.3817783677305346 -0.9241540808666293 2.018511703932645  0.7107646604222453 -1.050939884317248 1.921355779877147  -0.8751712455348578 -1.463353711535435 2.471600042955393  -0.8919454071444382 -1.780101424529733 2.624632389090897  -0.6267722627066723 -1.889801277912284 2.473483288367779  -0.4235675924273373 -1.68416512920486 2.651495969977106  0.4443099137545717 -1.629069757836743 1.49943402743056  0.2355468326973051 -1.976800661891307 1.867626148715342  0.1254157448558533 -1.703756195858605 1.588785014067285  0.3805775488420485 -1.962516383128317 1.496847999729285  -0.5575763919389134 -1.579221425130222 1.624763931340798  -0.6394103950273418 -1.885967542385817 1.772463933756891  -0.2307630709251082 -1.977271821301577 1.471181044419264  -0.3806512627115023 -1.630068972856112 1.909809739719508  0.1021569525316506 -1.327805660959527 1.653761852414816  0.1825353671571631 -1.449660084558329 1.338705133025003  -1.657390101034077 -1.117902092674408 1.056122856986421  -1.32529567496066 -1.487186586697769 0.9371745409670237  -1.299777470967316 -0.9630104139010042 1.242983813690666  -0.466214676280916 -1.211890401209563 2.187344616839348  -0.4913090933137605 -0.8658179070842074 2.050180167494419  -0.7726014355937718 -1.079608252005977 1.969491187350024  -0.921697750839283 -1.168620002219665 2.287594318469468  -0.6571924400077004 -1.132942709121853 0.2777506580342663  -0.477034786316047 -1.434737795423532 0.6100050385611827  -0.07999978958043799 -1.32601206611405 0.2980872037322101  -0.2702183339099049 -0.9579954471492403 0.4637058108451387  0.4530074376641818 -1.426915595940797 2.237640096430802  0.1167513975266851 -0.9885009910136866 2.261816189989672  0.0514852044923706 -1.484500497547712 0  -0.07613280859165761 -1.992501572840285 0  0.2283984257749825 -1.977504718520855 0  0.06049353073874015 -1.685042099785589 0.2673914529575276  0.02082006329791752 -1.710709865751513 1.203182801737701  -0.05339583133012425 -1.994740969638874 0.9837095761186229  0.1922639486628559 -1.643987499174081 0.9224333582651919  0.2923638439165652 -1.971204674721763 1.130906188940025  0.8521765914922285 -1.228573143317182 3  0.9891672680131292 -1.158577117081503 1.709826940973592  0.6813237769356962 -1.132131688961445 1.54583786593008  0.8987160698082683 -0.9435129158360137 1.23366329697726  -0.7951296159210844 -0.5998506467302667 1.75433246864053  -0.718776826249423 -1.07158912740432 1.415368659861116  -0.9682708406532703 -1.138792772600605 1.670236978742137  -0.4568075246905228 -0.8842593797210982 1.636672436524356  -0.4172607924959886 -0.9053975484695405 0  0.03930125034265457 -0.9961291647000607 1.913127150561488  0.2477625217914785 -1.239771052565929 2.035833713489379  -0.1944002557694448 -1.462850901679491 2.138911827054358  -0.2702183339099048 -0.9579954471492402 2.65502077809543  -0.5419255578714477 -1.160974362821279 2.702919024237293  -0.2702183339099048 -0.9579954471492403 2.389504889458908  -0.2692661782052067 -1.30707326254948 2.725938409516953  -0.5555702330195978 -0.8314696123025476 2.575390594315841  -0.2955503383624419 -1.632675963079159 0.3123705710465166  -0.5275263661176575 -1.919907191504199 0.3786589058290399  -0.3806640429582971 -1.962507864201425 0  -0.2283984257749775 -1.977504718520859 0.529509417716183  0.08114472573962614 -1.520582054345446 0.5577751558120352  -0.09067192459746451 -1.991069594901301 0.7370700840091073  0.1412329740125325 -1.9860897661892 0.8288815456926253  -1.004848079183114 -1.384524186235258 0.7958511776485666  -0.7983372904891837 -1.489459449269377 0.3162784420933646  -1.085640909602976 -1.676569021482061 0.5448054119396718  -0.9076481032910477 -1.213750681777729 0.4883010224057977  0.1666558328843934 -1.549864895007343 1.91279759807228  -0.1711918408887019 -1.983139075347575 1.842074765557213  0.06224447347299699 -1.993869454456417 0.3955276012186419  -0.9588110646998161 -1.223096706791814 1.189203961289622  -0.4661008678108942 -1.421230556846709 3  -0.4633877114855078 -1.939363439677898 3  -0.7562159812985212 -1.850534955163644 3  -0.6559706135434473 -1.42180405776329 1.944159649815638  -0.5321608870766419 -1.398484468300908 2.503641531981524  -0.5555949578943089 -1.632540582079879 2.22465688450821  0.2501934646059933 -1.24885304619393 0.6598587190296312  1.021224317089319 -0.8321952982497536 2.744115519016117  1.047013801459084 -0.7987522746294097 2.360842438458281  0.8314696123025456 -0.5555702330196017 2.531509163349302  0.6162581739138655 -0.78166430635156 2.610192205524704  0.1589483431240235 -1.747870522203138 2.69586629638434  0.2946705332933404 -1.970977485647935 2.604543857138447  0.1427490161093654 -1.985940449075534 3  -0.01906661464928165 -1.998122102365922 2.610717809370299  0.4864155127577986 -0.8684335803860411 3  0.7319793474097475 -0.676799471553158 3  0.7999369507764019 -1.017034017230526 3  -0.4172607924959886 -0.9053975484695405 3  -0.1525475355919108 -1.302936796876023 1.365541189925485  -0.2855704058266187 -1.646446336161575 1.324262152723459  -0.1823815018268221 -1.526821252107493 1.654529310749538  1.025396053603225 -0.8796225306606058 1.994863228994994  0.6162581739138656 -0.7816643063515599 2.259950676278146  -0.5136178706685083 -1.36028340084241 1.336078858819277  -0.853420495280782 -1.453890156540273 1.485574797935731  -0.216786300210237 -1.660704239491408 0.6833828092547644  -0.1597412751727726 -1.314488294550709 0.7106169361566651  -0.1781048351034047 -1.512718633412544 1.000838964097707  -0.1001116010720892 -0.9901398679180773 1.559727400289164  -0.4388734060990037 -1.25592219989705 1.687950063861267  -0.006483297213640909 -1.49224073078184 3  -0.2597529738600309 -1.608587657233585 3  -0.4164114630926857 -1.270321899080475 0.9379339257406052  -0.6953786612592505 -1.471852142185765 0.9705856189616491  -0.860916983567095 -1.056922184978935 2.611324509355333  0.03930125034265457 -0.9961291647000606 0.7268684015262323  -0.1165581619143174 -0.9885200230603273 1.180135402155414  0.3077697302541748 -0.9466043556033813 0.9610693252871769  -0.3136803525280127 -1.969105181873942 2.503169170697451  -0.1397771848346633 -1.729954020531203 2.339033044469641  -0.4977043317094044 -1.928953606740366 2.019835382195217  0.3448925070327128 -0.9353432843813161 0.463504082372962  0.5856823205122168 -1.158674077188969 0.5859765723483118  0.5475044054800325 -0.8357808869431038 0.7168899887310269  -1.057867501756464 -1.691414217259324 0.9861298491175763  -0.8420473046177399 -1.806772515993067 1.222217715227834  0.7127687774886917 -1.403756765098879 0.3700150094896146  0.9344489280029292 -1.205747589929833 0.6700235462414565  0.7158379904083254 -1.114471144088359 0.2436894953043403  0.9509039190911233 -1.748587443335142 0.3176862182917376  1.207410232084788 -1.583932669413443 0.4030665077673261  0.9509039190911233 -1.748587443335142 0.5444774374960997  -0.8100995776433193 -1.247237953441347 0  -1.150281274228815 -0.9501967741745472 0  -1.09260254951289 -1.217374098972824 0  -0.945054747744883 -0.9397443290066212 0.2792226860027984  -0.08343158218106622 -1.258718650314781 2.406550114037556  -0.4815816036293408 -0.871017358645376 0.728879522819906  -0.229929915231689 -0.9702168053430612 0.7309149559182833  -1.190450381033078 -1.253673925332207 1.429810163371145  -1.260123051423864 -1.540672376577078 1.701925022327931  0.8485002008188643 -1.429461788386965 0.9449229369154447  0.781499263791819 -1.839136118074525 1.05609281052021  1.044105157612409 -1.698770343461109 1.201419811392828  0.7254674099728107 -1.304169847058303 1.244484909711385  -0.3869777352155326 -1.446196857513344 0  -0.6738580304136116 -1.875517966433278 0  0.4900224729062127 -1.618213138855729 1.965515523460702  0.6374322841645239 -1.886567595755861 1.814272024545088  0.5947910766812117 -1.899502664630937 2.113557369996113  -0.1170541932096738 -0.9884711682419386 3  0.1164685713061415 -0.9885288469650542 1.392686278619681  0.3096592431759244 -1.596165513188446 0  0.5092733774920255 -1.397980984656434 0  0.3055479189482405 -1.298395155588183 0.3322665218640753  0.3350208444374065 -1.967003326877458 2.253272772226712  -1.20265655390644 -1.587833912272838 1.403902710452611  -1.523611732457502 -1.280911506432372 1.521244052339037  1.092491429426801 -1.237240286631584 1.100137911566619  0.6880433675056885 -1.121966191992488 0.9284130437667307  -1.12411020791712 -1.278183909038757 2.663712644079244  -0.555570233019598 -0.8314696123025476 0.3889995797975083  -1.019261186056348 -0.8585171825553823 1.460518224155073  -1.306685448933046 -1.049055102510419 1.668773821659217  -0.6640335932016037 -1.48600415138
[...]
<CellData  Scalars="f">
<DataArray  type="Float64"  Name="f"  format="ascii">2 2 2 2 2 2 2 3 3 3 2 2 2 2 2 2 2 3 2 2 2 2 2 2 2 3 2 2 2 3 2 2 2 2 2 2 2 2 2 3 2 2 2 2 2 2 2 2 2 2 2 2 3 2 2 2 3 3 2 2 2 2 2 2 2 2 2 2 2 2 3 2 2 2 2 2 2 2 3 3 3 2 2 2 2 2 2 2 2 2 3 2 3 2 2 2 2 2 2 2 3 2 2 2 2 3 2 3 2 2 2 2 3 2 2 3 2 3 2 2 3 2 2 3 2 2 3 2 3 2 2 2 2 3 2 2 2 2 2 3 2 3 2 3 2 2 2 2 2 2 2 2 2 3 2 2 2 2 3 3 3 3 2 2 2 2 2 2 2 2 2 2 2 2 3 2 2 2 3 3 2 2 2 2 3 2 2 2 3 2 2 2 2 2 3 2 2 2 2 2 2 2 2 2 2 2 2 2 2 2 2 2 2 2 2 3 2 2 2 2 3 2 2 2 2 2 3 2 2 3 2 2 3 2 3 3 2 2 2 3 2 2 2 2 3 2 2 3 2 3 2 2 2 2 2 3 3 2 3 2 2 2 2 2 2 2 2 2 3 3 2 2 2 2 2 3 2 3 2 3 2 2 2 2 2 2 3 2 3 3 2 2 2 3 2 2 2 2 2 2 2 2 2 3 2 2 2 2 3 2 3 2 2 3 2 2 2 2 2 2 2 2 2 3 2 2 3 2 2 2 2 2 2 3 2 2 3 2 3 3 2 2 3 2 2 2 2 3 2 2 3 2 3 2 2 2 2 2 2 3 2 2 2 2 3 2 2 2 3 2 2 2 2 2 2 2 2 3 3 2 2 3 3 3 2 2 2 2 3 2 2 2 2 2 2 3 2 2 3 3 2 2 2 2 2 2 2 2 2 2 2 2 2 2 2 2 3 2 2 3 2 2 2 2 2 2 2 2 2 2 2 2 2 2 2 2 3 3 2 2 2 3 2 2 3 3 2 3 2 3 3 3 2 3 3 2 2 2 2 2 2 2 2 3 2 2 2 2 3 2 3 2 2 2 2 2 2 2 2 2 2 2 3 3 3 2 2 2 2 2 2 2 2 2 3 2 2 2 3 2 2 2 3 3 3 3 2 2 3 3 3 2 2 2 2 2 2 2 2 3 2 3 3 2 2 2 2 2 2 3 2 2 2 2 2 2 2 2 2 3 2 2 2 2 3 3 3 3 3 3 2 2 2 2 2 2 2 2 2 2 2 3 2 2 3 2 2 2 2 2 2 2 2 2 2 2 2 2 2 3 2 3 3 2 2 2 2 2 2 2 2 2 2 2 2 3 2 2 2 2 2 2 2 2 3 2 2 2 3 3 3 2 3 2 2 2 3 2 3 2 2 2 2 2 2 3 3 2 2 2 2 2 2 3 2 3 2 2 2 2 3 2 2 3 2 2 2 2 2 2 3 2 2 2 2 2 3 2 2 2 3 2 2 2 2 2 2 2 2 2 2 2 2 2 2 2 2 3 2 2 3 3 2 2 2 3 2 3 2 2 2 2 2 2 2 2 3 2 2 2 2 2 2 2 2 2 2 2 3 3 3 2 2 2 2 3 3 2 2 2 2 2 2 2 2 3 3 3 2 2 2 2 3 2 2 2 2 3 3 3 2 2 2 2 3 2 3 2 2 2 2 2 2 2 2 3 2 3 3 2 3 3 3 2 2 2 2 2 2 2 3 2 2 2 2 2 2 2 2 2 2 2 2 2 2 2 2 2 2 2 3 3 2 2 2 2 2 2 2 2 3 2 2 3 2 3 2 2 3 2 2 2 2 2 2 2 2 2 2 2 2 2 2 2 2 2 2 2 2 2 2 2 2 2 2 2 2 2 2 2 2 2 2 2 2 2 2 3 2 2 3 2 3 3 2 2 2 2 2 2 2 3 2 3 3 3 2 2 2 2 2 2 2 2 2 3 3 2 2 2 2 2 2 2 2 2 2 2 2 3 2 3 3 2 2 2 2 2 2 2 2 2 2 2 2 2 2 2 2 2 3 2 2 3 2 2 2 2 3 2 2 2 2 2 2 2 2 2 2 2 2 2 2 2 2 2 2 2 2 2 3 3 2 2 3 2 2 2 2 3 3 2 2 2 3 3 2 2 2 2 2 2 3 2 2 2 2 2 2 3 2 2 2 2 2 2 2 2 2 2 2 2 2 2 2 2 3 3 2 2 2 2 2 2 2 2 2 2 3 3 3 3 3 3 3 3 3 2 2 3 3 3 2 2 3 3 2 2 2 3 3 3 2 2 2 2 2 3 3 3 3 3 3 2 2 2 </DataArray>
</CellData>
</Piece>
</UnstructuredGrid>
</VTKFile>