<?xml version="1.0"?>
<VTKFile type="UnstructuredGrid"  version="0.1"  >
<UnstructuredGrid>
<Piece  NumberOfPoints="1908" NumberOfCells="8534">
<Points>
<DataArray  type="Float64"  NumberOfComponents="3"  format="ascii">1.497553933621271 -0.9299888952757689 1.051401708821963  1.723509454997661 -0.9978215353029387 0.8599387015306912  1.603175712833004 -0.7179780603154297 1.166971448621335  1.738670460969055 -0.9694572881401065 1.232012655497408  -0.9260063084614851 0.3756723916478909 2.088494690531251  -1.215387188971444 0.5119852676208858 2.211144537160126  -1.169199657083873 0.3285258581972214 1.959879554366241  -1.323900903417153 0.1968728161777803 2.29048176525354  0.5668903241785761 -0.8221794535781284 1.907447677106904  0.3573077921208102 -0.931577148823802 1.869345932802062  0.3803448068999544 -0.9245889467903353 1.63109208210855  0.7515111043082954 -1.072403376408446 1.726857470392507  -1.65102550751847 -0.5853418105724925 1.000443999264721  -1.972717401737126 -0.2770048687796395 0.928821562964615  -1.909838062722855 -0.5607198352585883 0.7758128115671631  -1.94654710247373 -0.4397063489256637 1.212904324282488  1.269947058333062 0.3626388851459498 2.684274026195443  1.4767278390955 0.2359207298638786 3  1.484813864121234 0.5896749138753508 3  1.247559817212835 0.2481550766895392 3  -0.9656126141925141 0.2451078993645466 0.903476229672846  -1.307273153197141 0.04102778345962579 0.7482857790902816  -0.9842502912171535 -0.1599094768274606 0.8684447600518961  -1.249215610799177 0.2430717103564773 0.9671430603142159  -0.4110105156711639 -1.202710722563737 3  -0.2728750356463495 -1.40528416043813 2.751367144169643  -0.1974330685997361 -1.517981232226387 3  -0.5154153491449851 -1.402827814406427 3  1.166099747272017 0.6275808168611772 1.569671802422877  1.246343196849299 0.2871914511843041 1.463260603318937  0.9081186916187176 0.4121698917342359 1.495578929490344  1.115014914449755 0.664178382377357 1.231298039236009  -0.437270184892133 1.130513867865045 2.464959339784276  -0.1575558557429018 0.9844821026607427 2.300451209289574  -0.4996568060159496 1.207304284946449 2.211354531507026  -0.2218701063947696 1.271394036010528 2.376303590739145  -0.03213356612173944 1.488878780354482 0  -0.3070823851255919 1.60444108748354 0.2883595889737436  -0.04306337502264126 1.710823204504154 0  -0.2557335102430105 1.704794466024258 0  1.266922126336883 -0.8552825601474245 0.9890793869444463  1.603499978712499 -0.7599911991864079 0.858510318126826  1.582421191264103 -0.5272061569022808 0.9863163909996424  1.339507718413847 -0.6999225836316151 1.171427264265846  -0.9999937435268486 -6.352303793224264e-05 1.579944513727601  -1.312522004451318 -0.1514771375360489 1.769733720506073  -1.219701320019046 -0.256368583217724 1.513705607402347  -0.9710382679627432 -0.2272219158894408 1.66365709242607  -1.152564308322334 -0.6146102306519087 2.290519749049988  -1.112536592270995 -0.4970888852843044 2.032597829790319  -0.9411061816656194 -0.3258947806828741 2.338450351231977  -0.8361908746458244 -0.5467373724377904 2.130302338675527  1.331631675302982 1.075644226590585 0.7427025225229377  1.491416493164115 1.320141519018512 0.7572846653028551  1.266603435826646 1.134828903839546 1.021613359460302  1.656495002398096 1.1189927735181 0.8921219209227598  -1.365668187016484 0.9299040139860805 1.367410651434479  -1.201748691628636 1.207072052806315 1.289441114246246  -1.092520398536819 0.9703544734333222 1.276302537679984  -1.465055270517109 1.000012001635756 1.147846198214053  -0.5050584774146081 -1.217188684097516 1.869628035972452  -0.2297024960636879 -1.215139212755556 1.877242757058314  -0.4629648632736991 -1.14453983123708 2.156031963921787  -0.3174578795440642 -1.351539522133417 2.099901799200242  -0.2967726742171207 1.45008703957925 0.5524522132634159  -0.6434887749968319 1.482298065117458 0.3762371640162411  -0.4239378236407559 1.157590678344242 0.2544789876954237  -1.130289610535039 -0.7323124340292029 1.277776118524968  -1.266766286138908 -1.008906445544718 1.063624260447531  -1.483646847244597 -0.7451701819327663 1.284945495695263  -1.362258947965439 -0.6597119788061743 0.963947159543588  0.8415248583882122 0.8186074859553321 2.762647266441338  1.01017680706372 0.7830812049227713 3  0.8520051501267096 0.5171509439852667 3  1.126888954052144 0.6681851394435211 2.695702277715691  -1.153565928215088 0.3961550794954058 2.777688352315749  -1.28765668591996 0.113830202492347 2.707337524720061  -1.168488944387141 0.3617291064365978 2.501046815526986  -0.9850810122422609 0.1514750247149763 2.727173728961688  0.9530377358237719 0.9485576382829037 2.633905012019921  0.785242760231733 0.6118978152447206 2.59205970188895  0.9142417789429336 0.827459334637151 2.360146602251166  -1.009379236606645 -0.7732337977636983 0.965491390307064  -1.296220627873219 -0.6472349211577371 0.7217461812114134  -1.188984052332926 -0.4254961644111375 0.7718489876806194  1.410318934244185 -0.9111586153381305 0  1.465907151919879 -0.9984730424788163 0.2172742162374254  1.733506800037224 -0.9791178182666612 0  1.479909993475237 -0.7682026425289157 0.2858410267811749  -0.05725472340525808 -1.276452563101851 2.201603180209699  -0.05821607733009468 -1.694498948191016 2.242036300095007  0.1261865205882303 -1.315154927773589 2.421917368929744  -0.1733507538578632 -1.49632633843649 2.493414307511857  0.2547589484023274 -1.701285345681544 1.485048602246494  0.1530221731440286 -1.984928631422282 1.514643753720291  0.2702247064364303 -1.973385189441298 1.302131298391996  0.3970642112818749 -1.959482453509901 1.498248425634686  -1.235655536796483 0.3433994754859898 0.6946751998039692  -1.252208718574231 -1.255676782608476 2.240162865292683  -1.27880378834883 -1.097780360767302 2.484224604771694  -1.271058698454983 -1.531697722994652 2.368959930138202  -0.9864279935205215 -1.43590426619299 2.473369520863257  0.005411775363112981 -1.715510474141662 3  -0.08952865272329452 -1.58757690734094 2.774410511097231  -0.03741147490816631 -1.799717897785098 2.780949192277687  -0.1912871887741021 -1.720232435760223 3  -0.257779200723075 1.408996539962001 0.9003453641819071  -0.449287289247648 1.401735488301874 1.07854318826235  -0.3604156621198063 1.181682748976093 0.8516920471286565  -0.1567954956475845 1.268824098264383 1.086696983274594  -1.305299513639754 -0.2617408950762999 0.3238781852583938  -1.54815647609857 -0.2653476145938544 0.22261107454997  -1.583912438798967 -0.464312102321836 0.39108120278089  -1.473428042386052 -0.2606991630884039 0.6547314839504961  -1.567305757386662 -1.227670183009062 2.416022748715736  -1.427887152445046 -1.397552244662979 2.055194890811689  -1.427887152445048 -1.397552244662976 2.512760650241201  -0.9847724872443645 0.7253991145725994 1.018214856799495  -1.194979136873971 0.9101429222428052 1.043890337845854  -1.097355000557124 0.7122318174845157 1.314876825740661  -1.664910923673525 0.432614917869194 2.357777735902025  -1.922341592596459 0.5195012212131185 2.489821363404443  -1.928305028540357 0.4998424074987824 2.165087777197687  -1.970560222047508 0.2989070817250175 2.341044639907967  0.8776240038601382 1.468533760046266 1.693262756890803  0.9802711282238878 1.732890343021883 1.862459179955113  0.7730058713148853 1.843675930935447 1.893038983865374  0.74933335755538 1.547164680476453 2.062818974539214  1.143117929213057 -1.332984790918304 1.291712047176803  1.287925026486669 -1.250286655418541 1.563230302022756  0.9818456603842673 -1.44849919396431 1.467043373094701  1.211759553235815 -1.580363273790293 1.573400789366199  0.9184226498440161 1.155749859749666 0.5990761661345709  0.9961579193758268 1.462281686930205 0.6246492917812876  0.7314204854759964 1.319570469529748 0.6591793876373161  1.077168197567472 1.22108614020189 0.7886821271081074  1.054936037662884 1.08774886345209 1.371195246126525  0.9558336858219978 1.133613571114183 1.140304209729167  0.7083532190588375 1.191059551730258 1.261319898859603  0.8622242424817076 1.383528502923412 1.39722733100139  1.352469951392823 1.157329253277371 1.459232049490172  1.601614723428512 1.185864586927789 1.531841789053977  1.394496726906461 1.019249133009212 1.666860244828857  1.500640819621185 0.9293140676957232 1.456133308611717  -0.8612948758462922 -1.221512208357321 2.388776408797193  -1.103306607305279 -1.004878108249375 2.228634784643735  -0.9933755656962664 -1.196355148776187 2.600714888111475  1.122229454200134 1.225737995178475 2.534786329470682  1.165637108013253 0.7851941080111963 2.453728939295619  1.152002961473718 0.9976054101454552 2.28508978773055  -1.98675399845975 0.1344889105926879 0.5313495212184398  -1.661653823734134 0.03079869070401731 0.7297828569381692  -1.62407752486137 -0.06307331489345444 0.372839708262396  -1.760011020697118 0.3037424123478172 0.5106187273310807  1.641183972767365 -0.08086354815262135 1.91319189243527  1.322657908994097 0.07314712133113015 1.84571429568965  1.421160066354013 0.1648031196956253 1.618618604393672  1.474883172881394 -0.09108440626897743 1.582406010911425  0.6276565609536849 1.650471846478252 2.481014272479831  0.6982569277950104 1.512730450876753 2.683434601686926  0.386290996156984 1.626336376880996 2.680975028272746  0.4396671035871068 1.286801682662964 2.649254564270347  1.024076557683159 -1.240771688279978 0.3581982769033679  1.199121664768376 -1.043758421937294 0.2175119642994899  0.8752834790046372 -0.9845817366901065 0.2720073073847573  1.243446925972203 -0.9224347818266605 0.4510139155757393  1.139053451992402 0.580641381212873 0.5104985438510611  0.79840087828554 0.5958646020060542 0.6027225483598206  0.914171071328564 0.4008466857189293 0.3058452473438621  0.9066528007298537 0.4149123806933417 0.7553452832223546  1.661433677745688 0.4567965262230854 1.528680796761813  1.413258630617723 0.4957320168241518 1.296573873598289  1.362619788599672 0.3978435692102224 1.734130052315586  0.1370067673555018 -0.9865060112137281 0.4943644520525992  -0.05694722622227542 -0.9943911877720703 0.7507721659874088  0.1320447463629548 -1.182832957089002 0
[...]
<CellData  Scalars="f">
<DataArray  type="Float64"  Name="f"  format="ascii">3 2 2 3 2 2 2 2 2 2 2 2 2 3 2 2 2 2 2 2 2 2 3 2 3 2 3 3 2 2 3 2 3 3 3 2 2 3 2 2 3 2 2 2 2 2 2 3 2 2 2 2 3 2 2 2 2 3 3 3 2 2 3 3 2 3 2 2 3 3 2 3 3 2 2 2 3 2 2 2 2 2 3 3 2 3 2 2 3 2 3 2 2 2 3 2 2 2 2 2 2 3 3 3 3 2 3 2 2 2 3 2 2 3 2 3 2 3 2 3 2 2 2 2 2 3 2 3 2 2 3 2 2 3 2 2 2 3 3 3 3 3 3 2 2 2 3 2 2 3 2 3 3 2 2 2 2 3 2 2 3 2 3 3 2 3 2 3 2 3 3 3 3 2 2 3 2 3 2 3 2 2 3 3 2 2 3 3 3 3 3 2 2 3 3 2 2 2 3 2 2 2 2 2 3 2 3 2 2 3 2 2 2 2 3 2 2 3 2 2 2 2 2 2 3 2 2 2 2 3 3 2 2 2 3 2 2 3 3 2 2 3 3 2 2 3 3 3 3 2 3 2 2 2 2 2 2 2 2 3 2 2 3 2 2 2 3 3 2 2 2 3 3 2 2 3 2 2 2 3 3 2 2 3 2 2 3 3 2 2 3 3 2 2 3 2 2 3 2 3 2 3 3 2 2 2 3 2 3 3 2 2 3 3 3 3 2 3 3 2 3 2 3 2 2 2 3 3 2 3 2 2 2 3 2 2 3 2 2 2 2 3 3 2 3 3 2 2 2 2 2 2 3 3 3 2 3 3 3 2 2 2 2 2 2 2 2 3 3 3 2 2 3 3 2 2 3 2 2 3 2 2 2 3 2 2 2 3 3 3 3 2 2 2 2 2 3 2 3 2 2 3 3 3 3 3 2 3 2 2 2 2 2 2 2 2 2 3 2 2 2 2 3 2 2 3 2 2 3 2 3 2 2 3 2 3 2 2 3 3 2 3 2 2 2 2 3 2 3 2 3 2 2 2 2 3 3 2 3 2 2 2 3 2 2 2 2 3 3 2 3 3 3 2 2 3 3 2 2 2 3 2 3 3 2 2 3 2 3 3 3 3 2 2 3 2 2 2 2 3 2 2 3 2 2 3 2 2 3 3 3 3 2 3 3 2 2 3 2 3 3 2 2 2 3 2 3 3 3 3 3 2 2 2 2 2 2 2 2 2 2 2 2 3 2 2 3 3 2 3 2 2 3 2 2 2 3 3 2 3 2 2 3 3 3 2 2 3 3 3 3 3 3 2 3 2 3 2 2 2 2 2 2 2 2 2 3 3 3 3 2 3 2 2 2 2 2 2 2 3 3 2 2 2 2 3 2 2 2 2 3 2 2 2 2 3 2 2 3 2 3 3 2 2 2 2 2 2 3 2 2 2 3 2 2 2 3 2 3 3 2 2 3 2 2 2 2 2 3 2 3 2 2 3 2 3 3 3 2 2 3 3 3 2 3 3 3 3 2 2 2 2 2 2 2 3 3 2 2 2 3 3 3 3 2 2 2 2 2 2 2 2 2 2 3 2 2 3 2 2 2 2 2 2 2 3 3 2 3 2 2 3 2 3 3 2 2 3 2 3 3 3 2 2 2 2 3 2 3 3 2 3 3 2 3 2 2 3 2 3 2 3 2 3 2 2 3 3 2 2 2 3 2 3 3 2 2 2 2 3 3 2 2 2 3 2 3 3 3 2 2 2 2 2 2 2 3 3 3 3 3 2 2 2 2 2 2 2 3 3 2 3 2 2 3 3 2 2 3 2 2 2 2 2 2 2 2 2 3 3 2 2 2 2 3 3 3 2 2 2 3 2 2 2 2 3 2 3 2 2 2 2 2 2 2 2 3 2 2 2 2 3 3 3 3 3 3 3 2 2 2 2 2 2 3 2 2 3 3 2 3 3 2 2 3 2 2 2 3 2 2 3 3 3 2 3 2 2 2 2 2 3 2 3 2 2 2 2 3 3 3 2 2 2 3 3 2 2 3 2 2 3 3 2 3 2 2 3 2 2 2 2 2 2 3 2 3 3 2 2 2 2 3 2 2 3 3 3 2 3 2 2 2 3 3 3 2 2 2 2 2 2 2 2 3 3 2 3 2 2 3 2 3 3 2 2 2 2 2 2 2 3 2 3 2 2 2 3 3 3 3 3 2 2 2 2 3 3 3 2 3 2 3 2 2 3 2 2 2 3 2 3 2 2 2 3 2 3 3 3 3 3 2 2 2 2 2 3 2 2 3 2 3 2 2 3 2 2 2 2 2 3 2 2 2 2 2 3 2 3 2 2 3 2 2 2 2 2 3 2 2 3 2 2 2 3 2 3 3 2 2 2 2 3 2 3 2 2 3 3 3 2 3 3 2 2 2 2 2 2 2 2 3 2 3 2 2 2 2 3 2 3 2 2 2 3 3 3 2 2 3 2 3 2 2 3 2 2 2 2 2 2 2 2 2 3 2 3 2 2 2 2 3 2 3 2 2 2 2 2 3 2 2 2 3 3 2 2 3 3 2 3 3 3 2 3 3 2 3 3 2 3 3 2 2 2 3 2 3 2 2 2 2 2 3 2 3 3 3 2 2 2 2 3 2 2 3 2 3 2 2 3 2 2 2 2 2 2 2 2 3 2 3 3 2 2 3 2 2 3 2 3 3 2 2 3 2 3 2 2 2 3 2 2 2 2 2 2 2 2 2 3 2 2 3 2 2 3 3 2 2 3 2 2 2 2 3 3 2 3 3 2 2 2 2 2 3 3 2 3 2 3 2 3 2 2 3 2 3 3 3 2 3 2 3 3 2 3 2 3 2 3 2 3 2 3 2 2 2 2 3 2 2 2 3 2 3 2 3 2 3 2 3 2 3 2 2 2 2 3 3 2 2 2 3 3 3 2 3 2 3 2 3 3 3 2 2 2 2 2 3 2 3 3 2 3 3 2 2 3 2 3 2 3 3 3 2 2 3 2 2 2 2 2 3 2 2 2 3 3 2 3 3 2 2 3 3 3 2 3 2 3 2 3 2 3 3 3 2 3 3 2 3 3 2 3 2 3 3 2 3 2 3 2 2 2 2 2 3 2 2 2 2 2 2 2 2 3 2 3 3 2 2 2 2 2 2 2 3 2 3 2 3 2 2 2 2 2 3 2 2 2 3 2 3 2 2 2 2 3 2 3 3 2 2 2 2 2 2 2 2 2 3 2 2 2 2 2 2 2 2 2 2 2 3 3 2 2 3 3 2 2 3 2 2 3 2 2 3 2 3 2 2 2 2 2 2 2 3 3 2 2 3 3 3 2 2 3 2 3 3 3 3 2 2 2 2 3 2 2 3 2 2 2 2 3 2 2 2 2 3 2 2 3 2 2 3 2 2 3 3 2 2 3 3 3 3 2 2 2 2 2 3 3 2 2 2 3 2 2 2 3 2 2 2 2 3 3 2 2 2 3 3 2 2 3 2 2 2 2 2 3 2 3 3 2 2 2 2 2 2 2 2 2 3 2 3 3 2 2 3 2 2 2 2 3 3 2 3 2 3 2 2 2 2 2 2 2 2 2 2 3 2 2 2 2 3 3 3 2 2 2 2 2 3 3 3 2 2 3 3 3 3 2 2 3 3 2 3 2 2 3 2 3 2 3 3 3 2 2 3 3 2 2 2 3 3 2 2 3 2 2 2 2 3 2 3 3 2 3 3 2 2 2 3 2 2 3 3 2 2 3 2 3 2 2 2 2 2 2 3 3 2 3 2 2 2 3 3 2 2 2 3 2 2 2 2 2 2 3 2 3 3 2 2 2 2 3 2 2 2 3 2 3 3 2 2 3 2 3 3 3 2 2 2 2 2 2 2 3 3 3 2 2 2 2 2 3 2 2 3 2 2 3 3 2 2 2 3 3 3 2 3 2 2 2 2 2 2 3 2 2 2 2 2 3 2 2 3 3 3 3 2 2 2 2 2 2 2 3 3 2 2 2 2 2 3 2 2 3 3 2 3 3 2 2 2 2 2 2 3 2 3 2 3 2 2 2 2 2 2 2 2 2 3 3 3 3 2 2 2 2 2 3 2 3 3 2 3 2 2 2 2 2 2 2 2 2 2 2 3 2 3 2 3 2 2 2 3 2 2 2 3 3 2 2 2 2 2 3 3 3 3 2 3 2 3 3 2 3 2 3 2 2 3 3 3 2 3 3 2 2 3 2 2 2 3 2 3 3 2 3 2 2 2 2 3 2 3 2 2 2 2 2 2 2 3 3 2 2 2 3 3 2 2 2 2 2 2 2 2 2 2 3 2 2 2 2 2 3 2 2 2 2 2 2 3 3 2 2 2 2 2 2 2 2 2 2 2 2 3 2 2 2 3 3 2 3 2 2 2 2 2 2 2 3 2 2 3 3 3 3 3 3 3 2 3 3 2 3 2 2 2 2 2 2 2 3 2 2 2 2 2 2 2 2 2 3 3 2 2 3 3 2 3 2 3 3 3 2 3 2 2 2 2 2 2 2 2 2 3 2 3 3 3 2 3 2 2 3 2 2 2 2 2 3 2 2 2 2 2 3 2 3 2 3 2 2 2 2 3 2 2 2 2 2 2 2 2 2 3 2 2 2 3 2 2 2 2 2 2 2 2 3 3 3 2 2 2 2 3 2 2 2 2 2 3 2 2 3 2 3 3 2 3 2 3 2 2 2 2 2 3 3 2 2 2 2 2 2 2 2 3 3 2 2 3 2 3 3 2 3 2 2 2 2 2 2 2 3 2 3 2 2 3 2 2 3 3 2 2 3 3 2 2 2 2 2 2 2 2 3 2 2 2 3 2 3 2 2 2 2 2 3 2 2 2 2 3 3 2 3 3 2 2 3 3 3 3 3 3 3 3 2 3 2 2 2 2 2 2 2 3 2 3 2 2 3 3 3 2 2 2 2 3 3 2 3 2 2 3 3 2 3 3 3 3 2 3 2 2 2 2 3 2 3 3 3 2 3 2 2 2 2 2 3 3 3 3 3 3 2 2 2 3 2 2 3 2 2 2 2 2 2 2 3 2 2 2 3 2 2 2 3 2 3 3 3 2 2 2 2 2 2 3 2 2 3 3 2 2 3 2 3 3 2 2 2 2 3 3 2 3 2 2 2 2 2 2 3 2 3 2 2 3 3 3 3 2 3 3 2 3 2 2 3 2 2 3 3 2 3 2 2 3 3 2 3 2 2 3 2 3 3 2 3 3 2 3 2 3 3 2 2 2 2 2 3 2 3 2 2 3 2 3 3 2 3 3 2 3 3 2 2 3 2 2 3 2 2 2 3 2 2 3 3 2 2 2 2 3 2 2 2 2 3 2 2 3 2 2 2 2 3 2 2 2 3 2 2 3 2 3 3 3 2 3 3 3 3 2 3 3 3 3 2 2 2 2 2 3 3 3 2 3 3 3 2 3 3 2 2 2 2 3 2 2 2 2 2 2 3 2 2 2 2 3 3 3 2 2 2 2 2 3 2 3 3 2 2 2 2 3 2 3 3 3 2 3 2 3 2 2 2 3 2 3 2 2 2 2 3 3 2 2 3 2 2 2 2 2 2 2 2 2 2 2 2 2 3 2 2 2 2 2 2 3 3 3 2 3 2 3 2 2 3 3 2 3 2 2 3 3 2 3 3 2 3 2 2 2 3 3 3 2 2 3 2 3 3 2 2 2 3 3 2 3 2 2 3 2 3 3 2 2 2 2 2 2 3 3 3 2 2 2 2 2 3 2 2 2 2 3 2 2 2 2 2 3 2 2 2 2 2 2 2 2 3 2 2 2 3 2 3 3 2 3 3 2 2 2 3 2 3 2 2 2 3 3 2 3 2 2 3 3 2 3 2 3 2 3 3 3 2 2 2 2 2 2 2 3 2 2 2 2 3 2 3 3 3 3 3 2 3 3 3 3 3 2 2 2 2 2 3 2 3 3 2 2 2 3 3 2 3 2 2 2 2 2 3 3 2 3 2 2 2 2 3 3 2 3 3 2 3 2 2 2 2 2 3 3 2 3 3 2 2 3 3 2 3 3 2 2 2 2 2 2 3 2 2 3 3 3 2 3 3 2 2 3 3 2 2 3 3 3 3 2 2 3 2 2 2 3 3 2 2 2 2 2 2 2 3 3 2 3 2 3 2 2 3 3 2 2 2 3 3 2 3 2 2 3 2 2 3 3 3 2 3 2 3 2 3 2 2 2 3 3 2 2 3 2 3 3 3 2 2 3 3 2 2 2 2 2 2 3 3 2 2 3 2 3 2 2 2 2 3 3 2 2 2 2 2 2 2 2 3 2 3 2 3 2 3 3 2 2 2 3 2 2 2 3 2 2 3 3 2 2 2 2 2 3 3 2 2 3 2 2 3 2 2 3 2 3 3 2 2 3 3 3 2 2 2 3 2 3 2 2 2 3 3 2 3 2 3 3 2 3 2 3 3 2 2 2 2 3 2 3 3 2 3 2 3 2 3 2 2 2 3 2 2 2 2 2 3 3 2 3 3 3 2 3 3 2 3 2 3 2 2 3 2 3 3 3 3 2 2 3 3 3 2 2 2 2 2 2 2 2 3 3 3 2 2 2 2 2 3 3 2 2 3 2 2 3 3 2 2 2 2 3 2 2 3 2 2 2 2 2 3 2 2 2 2 3 2 3 2 2 2 2 2 2 2 3 3 3 2 2 2 2 2 2 3 2 3 2 2 2 2 3 3 2 3 2 2 2 3 3 3 2 2 3 3 2 2 3 2 2 3 3 2 3 3 2 3 3 2 3 3 3 2 2 2 2 3 3 2 3 3 2 3 3 3 2 2 3 3 2 3 2 3 3 2 2 2 2 2 2 3 3 2 2 2 2 2 3 3 3 3 3 3 2 3 3 2 2 2 2 3 2 2 3 3 2 3 3 3 2 3 3 3 2 3 2 3 3 3 2 2 2 2 3 2 3 2 2 3 2 2 3 2 2 3 2 3 2 3 3 2 2 3 2 3 3 3 3 2 2 2 3 2 2 2 2 2 2 2 3 2 3 2 2 2 2 2 2 2 2 3 3 3 3 2 2 3 2 3 3 2 3 2 2 3 2 2 2 3 2 2 2 2 2 2 3 3 3 2 3 3 2 2 2 3 2 3 3 2 2 3 3 3 2 3 3 2 2 3 2 2 2 2 3 3 3 2 3 2 2 2 3 2 2 3 3 2 2 2 2 2 2 2 3 2 3 3 2 2 2 2 3 2 3 2 2 3 3 3 3 3 2 3 2 2 3 2 3 3 2 2 2 3 2 2 3 3 2 3 3 2 2 3 3 2 3 2 3 2 3 2 3 2 2 2 3 2 2 3 3 2 3 2 3 2 3 2 2 3 3 2 2 2 2 3 3 3 3 2 2 2 3 2 2 3 3 2 2 2 3 2 2 2 2 2 3 3 2 2 2 2 2 3 2 2 3 3 2 2 2 2 3 3 3 2 2 2 3 3 2 2 2 3 2 3 2 2 2 3 2 3 2 3 2 2 3 2 2 3 2 2 3 3 2 2 3 2 2 2 3 2 3 2 2 3 2 2 2 3 3 2 2 3 2 3 3 2 2 2 2 3 2 2 2 2 3 3 3 2 2 2 3 2 2 3 2 2 3 2 2 2 3 2 2 2 2 3 2 2 3 3 2 2 2 3 2 2 3 3 3 2 2 3 2 2 2 2 3 2 3 3 3 3 3 2 2 3 3 3 3 2 3 2 2 3 2 3 3 2 2 2 3 3 3 3 2 2 3 2 3 3 3 3 2 3 3 2 2 2 3 2 3 2 2 2 2 3 2 2 2 2 2 2 2 2 3 3 2 2 2 2 2 2 2 2 3 2 3 2 2 3 3 3 2 3 2 3 2 2 3 3 3 3 2 3 2 3 3 3 3 3 3 2 2 3 2 2 2 2 2 2 3 2 2 2 2 2 2 2 2 3 2 2 2 3 2 3 2 2 2 3 3 2 3 2 2 2 2 2 3 3 2 2 2 2 3 3 3 2 3 3 3 2 3 2 2 2 3 2 3 2 2 3 3 2 2 3 2 2 3 2 3 3 2 3 2 2 2 2 2 2 2 2 3 2 3 2 2 2 3 2 3 2 3 2 2 2 2 3 3 2 2 2 3 2 2 3 2 2 3 2 2 3 2 2 2 2 3 2 3 2 3 2 2 2 3 2 2 3 2 3 2 2 3 2 2 2 3 2 3 2 2 3 3 2 2 2 3 2 3 2 2 2 2 2 3 3 2 2 3 2 2 3 2 2 2 2 3 2 3 2 2 3 3 3 2 2 3 3 2 2 2 3 3 2 3 3 3 3 2 2 3 2 3 2 3 2 3 3 2 2 2 2 2 2 2 2 2 3 3 3 2 2 2 2 2 2 2 2 3 3 3 2 3 3 2 2 2 3 2 2 2 3 2 2 2 2 2 3 2 3 3 3 2 3 3 3 3 2 2 2 2 2 3 2 2 3 2 2 2 2 3 3 3 3 3 2 3 2 3 3 2 2 2 3 3 2 3 3 2 3 3 2 2 2 3 2 2 3 2 2 3 3 3 2 2 2 3 2 2 3 2 2 3 3 2 3 3 3 2 3 3 3 2 3 2 2 2 3 3 2 3 2 3 2 2 3 2 2 2 2 2 2 2 2 2 2 3 3 3 2 2 3 2 2 2 2 2 2 2 2 2 3 2 2 3 2 3 2 3 3 2 3 2 2 2 2 2 3 2 3 3 3 2 2 2 3 2 3 2 3 2 3 3 3 3 2 2 3 3 2 3 3 3 3 2 3 3 2 2 2 2 2 3 3 3 2 2 3 3 3 2 2 3 2 2 2 2 2 3 3 3 2 2 2 2 3 3 3 3 2 2 3 2 3 3 2 2 2 3 3 3 2 2 3 2 2 3 3 2 2 2 2 2 2 2 2 2 2 3 2 3 3 3 2 3 2 3 3 3 2 2 3 3 2 3 2 2 3 3 2 2 3 2 2 2 2 2 3 2 2 2 2 2 3 2 2 2 3 3 2 2 2 2 3 3 3 2 2 2 3 2 2 2 2 2 3 2 2 3 2 2 3 2 3 2 2 2 2 3 3 3 3 3 2 3 3 3 3 2 2 2 2 2 2 3 3 2 3 3 3 3 2 2 3 2 3 2 2 3 3 2 3 3 3 3 2 2 2 2 2 2 2 2 2 3 3 2 2 3 3 3 2 2 3 3 2 2 2 2 2 2 3 2 2 3 3 3 2 2 2 3 3 2 2 3 2 2 2 2 2 2 3 2 2 2 2 2 2 2 2 2 2 3 3 3 2 2 2 3 2 2 2 2 3 2 2 2 2 3 2 2 2 2 3 2 3 3 2 3 2 3 3 2 2 2 2 3 2 3 2 2 2 2 2 2 2 2 3 3 2 2 2 2 2 2 2 3 3 2 3 2 3 3 2 3 3 3 2 2 3 3 2 2 2 3 2 2 2 2 2 2 3 3 3 3 2 2 2 2 2 2 2 2 2 2 2 2 2 2 2 2 3 3 3 3 3 2 3 2 2 2 2 2 2 3 2 3 3 2 2 2 2 2 2 3 2 3 2 3 3 2 3 2 2 2 2 3 3 2 3 3 2 3 2 2 2 3 3 3 2 2 2 2 3 2 3 3 2 3 3 2 2 2 3 2 2 3 2 3 3 3 3 2 2 3 3 2 2 2 2 2 2 2 2 2 2 2 3 2 2 2 2 3 2 2 2 2 2 2 2 2 2 2 2 3 2 3 2 3 3 2 2 3 2 2 3 2 3 2 2 3 3 2 2 2 2 3 3 2 3 3 2 2 3 2 3 2 2 2 2 3 2 2 2 2 3 2 2 2 2 3 2 2 2 2 2 2 2 2 3 2 2 2 3 2 2 3 3 2 2 2 2 2 2 2 2 2 2 2 3 2 2 3 3 2 3 2 2 2 2 3 3 2 2 2 2 2 3 3 3 2 3 3 2 3 2 2 3 2 3 2 3 2 3 2 2 2 2 3 3 3 2 2 2 3 2 2 2 2 2 2 3 2 2 2 2 2 2 3 3 3 2 3 2 3 3 2 2 2 2 2 2 3 2 2 2 2 3 3 2 2 2 2 2 3 2 3 2 2 2 3 3 2 3 2 2 2 3 3 2 2 3 3 3 3 2 2 2 2 2 2 3 3 2 3 2 2 2 3 2 3 3 3 2 2 3 2 2 2 2 2 2 3 3 2 2 2 2 2 2 2 3 3 2 2 2 2 2 2 3 2 3 2 2 2 2 2 2 2 2 3 2 2 2 3 2 2 3 2 3 3 3 3 3 2 2 2 3 2 3 2 3 2 3 2 2 2 2 3 3 3 3 3 3 2 2 2 3 3 3 3 2 2 3 2 3 2 2 2 3 2 2 2 3 2 2 2 3 3 3 2 3 2 2 2 3 2 2 3 2 2 2 3 3 2 2 2 3 2 2 2 2 2 2 3 2 2 2 2 3 2 2 2 3 2 2 2 2 2 2 2 2 3 3 2 2 2 3 2 2 2 3 3 2 2 3 2 2 2 3 2 2 3 3 3 2 3 3 3 3 2 2 3 3 2 2 3 2 2 2 3 2 2 2 3 3 3 2 2 2 2 2 3 2 3 3 3 3 3 2 2 2 2 3 2 2 2 3 2 2 2 2 2 3 2 2 2 3 2 2 3 2 2 2 2 2 2 3 3 2 2 2 2 3 2 3 2 3 2 3 2 2 2 2 2 2 2 2 2 2 2 2 2 3 3 2 2 2 2 2 2 2 2 3 3 3 2 2 3 2 2 2 2 3 3 2 3 3 3 2 2 2 2 2 2 2 2 2 2 2 2 2 2 3 2 2 2 2 3 2 2 2 2 3 2 2 2 2 2 2 2 2 2 2 2 3 2 2 3 3 3 2 2 2 2 3 2 3 2 2 2 3 2 2 3 2 2 2 2 3 3 2 2 3 3 3 3 3 2 3 3 2 2 3 3 3 2 2 3 3 2 3 2 3 3 2 3 2 2 2 2 3 2 3 3 3 3 3 3 2 3 3 2 2 2 2 2 3 2 2 2 2 2 2 2 3 2 2 2 3 2 3 2 2 2 2 3 2 3 2 3 3 2 3 3 2 2 2 2 2 2 2 2 3 2 2 2 2 3 2 2 2 2 2 2 2 2 2 2 2 2 2 2 2 3 3 3 2 3 2 2 3 2 2 3 2 3 2 2 2 2 2 2 2 3 2 2 2 2 2 2 2 2 2 2 2 2 2 2 3 3 3 2 2 3 2 2 3 2 2 3 2 3 3 3 2 2 2 2 2 2 2 2 2 2 2 2 3 3 3 3 2 3 3 3 3 3 2 2 3 2 2 2 3 3 2 2 3 2 2 3 2 2 2 3 2 2 3 2 2 2 2 2 2 2 2 2 2 2 2 2 2 2 2 2 3 3 3 3 3 2 2 3 2 2 2 2 3 3 3 2 2 2 2 2 2 2 2 2 3 2 2 3 3 2 2 2 2 2 2 2 3 2 3 3 2 2 2 2 2 2 2 3 3 2 2 3 3 3 3 2 2 2 2 2 3 2 3 3 3 2 3 2 2 3 2 2 2 2 2 2 2 2 2 2 2 2 2 3 2 2 3 3 3 2 2 2 3 3 3 2 2 3 2 2 3 2 2 3 3 2 2 3 3 3 3 3 3 2 3 3 3 3 3 2 2 3 2 2 2 2 3 3 3 2 2 3 2 2 2 3 2 2 3 3 2 2 2 3 2 2 2 2 2 2 2 2 2 2 2 2 2 2 2 2 3 3 2 2 2 2 2 2 3 2 2 3 2 2 2 2 2 3 3 2 2 2 2 2 2 3 3 3 2 2 3 3 2 3 2 2 2 2 2 2 2 2 2 2 3 3 2 2 2 2 2 3 2 2 2 2 2 2 2 3 3 3 2 2 2 2 2 3 2 3 2 2 2 2 3 2 3 3 2 2 3 3 3 3 2 2 2 3 2 2 2 2 3 3 3 3 2 3 3 2 3 2 2 2 3 2 3 3 3 2 3 3 3 3 2 3 2 2 2 2 2 2 2 2 2 2 2 2 2 3 3 2 2 2 2 2 2 2 2 2 2 2 3 2 2 2 2 2 3 3 3 3 2 2 2 3 3 2 2 3 2 2 2 2 2 2 2 2 2 2 2 2 3 2 2 3 2 3 2 2 2 2 2 3 3 2 2 3 2 2 2 2 2 2 2 2 2 3 3 2 3 3 2 3 2 3 2 2 2 2 2 2 2 2 2 2 2 2 2 2 3 2 3 3 3 2 2 2 2 2 2 2 2 3 2 2 2 3 3 2 2 3 2 2 2 2 2 3 2 2 2 2 2 2 3 2 3 2 2 2 2 2 3 2 2 3 3 3 2 2 3 3 2 3 2 2 2 2 3 2 2 2 2 3 2 2 2 3 2 2 3 2 2 2 2 2 2 2 3 2 2 2 3 3 3 3 3 3 2 2 2 3 2 3 3 2 3 2 2 2 2 2 3 3 2 3 3 3 3 2 3 3 2 3 3 3 2 2 3 3 2 2 2 2 2 2 2 3 3 3 2 2 3 3 3 2 3 3 3 3 3 2 2 2 2 2 2 2 3 2 2 2 3 3 3 3 2 3 2 2 2 2 3 2 2 2 2 2 2 2 2 3 3 2 2 2 3 3 2 3 3 2 2 2 2 2 2 2 3 2 3 2 2 3 2 2 2 2 3 2 2 2 3 3 2 3 3 2 3 3 3 3 2 3 2 2 2 2 3 2 2 2 2 3 3 3 3 3 3 2 2 2 3 2 2 3 2 2 2 2 2 3 2 3 3 2 2 2 2 2 3 3 3 2 2 2 2 2 2 2 2 2 2 3 2 2 3 2 2 2 2 3 3 2 3 2 3 2 2 2 2 2 3 2 2 2 2 2 2 2 2 2 2 2 2 2 2 2 2 2 3 2 2 3 2 3 2 2 2 2 2 2 2 2 3 3 3 3 2 2 2 2 2 2 2 2 2 2 2 2 2 2 2 2 2 3 2 2 2 2 2 2 2 2 2 2 2 3 3 2 2 3 3 3 2 3 2 2 2 2 3 3 2 2 2 3 3 3 3 2 2 2 2 2 2 3 3 3 2 3 3 3 2 2 3 3 2 2 2 3 3 3 3 2 3 3 3 3 3 3 2 3 2 2 3 2 3 3 2 2 2 2 2 3 3 3 3 2 2 2 2 2 2 2 3 3 2 2 3 3 2 2 3 3 2 2 3 3 3 3 2 2 2 2 2 2 2 3 2 2 3 3 3 2 2 2 2 2 3 2 2 2 2 2 3 2 2 2 2 2 2 3 3 2 2 3 2 2 2 2 2 2 2 3 3 3 2 3 2 2 2 2 2 2 2 3 2 3 2 3 2 2 2 2 2 3 2 2 2 3 2 2 2 3 2 2 2 2 2 2 3 3 2 2 2 3 3 3 2 2 2 2 3 3 3 3 3 2 2 2 2 2 2 2 3 3 3 3 3 3 2 3 3 3 3 3 2 2 2 2 3 2 2 2 2 2 2 2 2 2 2 3 3 2 3 2 3 3 3 2 2 2 2 3 3 3 2 2 2 3 3 2 3 2 3 3 2 2 2 3 2 2 2 2 2 3 2 2 2 2 2 2 2 2 2 2 2 2 2 2 2 3 3 3 3 3 3 2 3 3 2 2 2 2 2 2 3 2 2 2 3 2 3 2 3 2 2 2 2 3 3 3 3 3 3 3 3 2 2 2 2 2 2 3 3 2 3 3 3 2 2 2 3 2 3 3 3 3 3 2 2 2 2 2 2 2 2 3 3 3 3 3 2 2 2 2 3 3 3 3 2 2 3 2 2 3 3 3 3 3 3 3 2 2 2 2 2 3 2 2 2 2 2 3 3 3 3 3 2 2 2 3 3 3 2 2 2 3 3 3 3 3 3 2 2 3 3 3 3 3 3 3 3 2 2 2 2 2 3 2 2 3 3 2 2 2 2 3 3 3 2 3 3 2 2 3 2 2 2 2 2 2 3 3 2 2 2 2 2 2 2 2 2 2 2 2 2 2 2 2 3 3 3 2 3 3 3 2 3 3 2 2 3 3 3 3 2 2 2 2 2 2 2 2 2 2 3 3 2 2 2 2 2 2 2 2 2 2 3 3 3 3 3 3 3 3 3 3 3 3 2 3 2 3 2 2 2 2 2 2 2 2 2 3 3 3 3 3 3 2 2 2 3 3 3 3 2 3 3 3 3 3 3 3 3 3 3 3 3 3 2 2 2 2 2 2 3 3 2 3 2 2 2 2 3 2 2 3 2 2 2 2 2 2 2 2 3 3 3 3 3 3 3 3 2 3 3 2 2 2 2 2 2 2 2 2 2 2 2 2 3 3 3 3 3 3 3 3 3 3 3 2 2 2 2 2 2 2 2 2 2 2 3 3 3 3 2 2 2 2 2 2 3 3 3 2 3 3 3 3 2 3 3 3 2 2 3 3 3 3 3 3 2 2 2 2 2 2 3 2 2 2 2 2 2 2 2 2 2 2 3 2 2 2 3 2 3 3 3 2 3 3 2 2 2 3 3 2 2 2 3 3 3 2 2 3 3 2 2 2 3 3 3 3 3 3 3 2 2 3 3 2 3 2 3 3 3 3 3 2 3 3 3 2 2 2 2 2 2 2 2 2 2 2 2 2 3 2 2 3 3 3 3 3 3 2 2 2 2 2 2 2 2 3 2 2 2 2 2 3 3 3 3 2 2 3 3 3 3 3 2 2 2 2 3 3 2 3 3 3 3 3 3 3 3 3 3 3 3 2 2 2 2 2 2 2 3 3 3 2 2 3 3 3 3 3 3 3 3 2 3 2 3 3 3 3 2 2 2 2 2 2 2 2 2 2 2 2 2 2 2 3 3 3 3 3 3 3 3 2 2 2 2 3 2 2 2 2 2 3 3 3 3 2 2 3 2 2 2 2 2 2 2 2 2 2 2 2 2 3 2 2 2 2 2 2 2 2 2 2 2 2 2 2 2 3 3 3 2 2 2 2 2 2 2 2 2 2 2 2 2 2 2 2 2 2 3 2 2 3 2 2 2 2 2 3 3 3 3 3 3 2 3 3 3 2 2 3 3 3 3 2 2 2 3 2 2 2 2 3 3 2 2 3 2 2 3 2 3 3 2 3 2 3 3 3 3 2 2 2 2 2 2 3 3 3 2 3 2 2 2 2 2 2 2 2 2 2 2 3 3 3 3 3 3 3 3 2 2 2 2 2 2 2 2 2 3 2 2 2 3 2 2 2 3 3 3 3 3 2 2 2 3 3 2 2 2 2 2 2 2 2 2 3 3 3 3 3 2 2 2 3 3 2 3 2 2 2 2 2 2 2 2 2 3 2 2 2 2 2 2 3 2 3 2 2 2 2 2 3 2 2 2 2 2 2 2 3 3 2 2 2 2 2 2 2 2 2 2 2 2 2 2 2 2 2 2 2 2 2 2 2 2 2 2 2 2 2 2 2 2 2 2 3 3 3 3 3 3 3 3 2 2 3 3 3 3 3 2 2 3 3 3 2 2 2 3 2 2 2 2 2 2 2 2 2 2 2 2 2 3 3 3 2 2 3 3 3 3 2 2 2 2 3 3 2 2 2 2 2 3 2 2 3 2 2 2 3 2 2 2 2 2 2 2 2 2 2 2 2 2 2 2 2 2 2 2 2 2 2 2 2 3 3 2 2 3 3 2 2 3 3 3 3 3 3 2 2 3 3 3 2 2 3 3 3 2 2 2 2 2 2 2 2 2 2 2 2 2 2 3 2 3 2 2 2 3 2 2 3 3 3 2 3 2 2 2 2 2 2 3 3 2 2 2 2 2 2 2 2 3 3 3 3 3 3 2 3 2 2 2 2 2 2 2 2 3 2 2 2 2 2 2 2 2 2 2 2 2 2 2 2 2 2 2 2 3 3 2 2 3 3 3 3 3 3 2 2 3 3 2 3 2 2 3 3 3 3 3 2 2 2 2 2 2 2 2 2 2 2 2 2 2 2 2 2 2 2 2 2 2 2 2 2 2 2 2 2 2 2 2 2 2 2 2 2 2 2 2 2 2 2 2 2 2 3 3 2 2 2 2 2 2 2 2 2 2 2 2 2 2 2 2 2 2 2 2 2 2 2 2 2 2 2 2 2 2 2 2 2 2 2 3 3 3 3 3 3 2 2 2 2 2 3 3 3 3 3 3 2 2 2 2 2 2 2 2 2 2 2 2 2 2 2 2 2 2 2 2 2 2 2 2 2 2 2 2 3 3 3 3 3 2 2 2 2 2 2 3 2 3 2 2 2 2 2 2 2 2 2 2 2 2 2 2 2 2 2 2 3 2 2 2 2 2 2 2 2 2 2 2 2 2 2 3 3 3 3 2 2 3 3 2 2 2 2 2 3 3 3 2 2 2 2 2 2 2 2 2 2 2 2 2 2 2 2 2 2 2 2 2 2 3 3 3 3 3 3 3 3 3 2 3 3 3 2 3 2 2 3 2 2 2 2 2 2 2 2 2 2 3 3 3 3 3 3 3 3 2 3 3 3 2 2 2 2 2 2 2 2 2 2 3 3 3 3 3 3 2 2 2 2 2 2 3 3 2 2 3 2 2 2 2 2 2 3 3 3 2 3 3 3 3 2 2 2 2 2 3 2 2 3 2 2 2 2 3 3 3 3 3 2 2 2 2 2 2 2 2 2 2 2 2 2 2 3 2 2 2 2 2 2 2 2 3 3 2 2 2 3 3 2 2 2 2 2 2 2 2 2 2 2 2 2 2 2 2 2 2 2 3 3 3 3 3 3 3 3 3 3 2 3 3 2 3 3 2 2 2 2 2 2 3 2 2 2 2 2 2 2 2 2 2 2 2 2 2 2 2 2 2 2 2 2 2 2 2 2 2 2 2 2 2 2 2 2 2 2 2 2 2 2 2 2 2 2 2 2 2 2 2 3 3 3 3 3 2 3 3 3 3 3 3 3 2 2 2 2 2 2 2 2 2 2 2 2 2 2 2 2 2 2 2 2 2 2 2 3 3 3 3 2 2 3 3 2 2 2 2 2 2 2 2 2 2 2 2 2 2 3 2 2 2 2 2 2 2 2 2 2 2 2 2 2 2 3 3 2 2 2 2 2 2 2 2 2 2 2 2 2 2 2 2 2 2 2 2 3 3 3 3 3 2 2 3 3 2 2 2 2 2 2 2 2 2 2 2 2 2 2 2 2 2 2 2 2 2 2 2 2 2 2 2 2 2 2 2 2 2 3 3 3 3 3 2 2 3 3 3 3 3 2 2 2 2 2 2 2 2 2 2 2 2 2 2 2 2 2 2 2 2 2 3 3 2 2 2 2 2 2 2 2 2 2 2 2 2 3 2 2 3 3 3 3 3 3 3 2 2 2 2 3 3 3 2 2 2 2 2 2 2 2 2 2 2 2 2 2 2 2 2 2 2 2 2 2 2 2 2 2 2 2 2 2 2 2 2 2 3 3 3 3 3 3 3 3 3 2 2 2 3 2 3 3 2 2 2 2 2 2 2 2 3 2 2 2 2 2 2 2 2 2 2 2 2 2 2 2 2 2 2 2 2 2 2 2 2 2 2 2 2 2 3 2 2 2 2 2 2 2 2 2 2 2 2 2 2 2 2 2 2 2 2 2 2 2 3 3 3 3 3 3 3 3 2 2 2 2 2 2 2 2 2 2 3 2 3 3 3 3 2 2 3 3 2 2 2 2 2 2 2 2 2 2 2 2 2 2 2 2 2 2 2 2 2 2 2 2 2 2 2 2 2 2 2 2 2 3 3 3 3 3 3 2 2 2 2 2 2 2 3 3 3 2 2 2 3 3 3 2 2 2 2 2 2 2 2 2 2 2 2 2 2 2 2 3 3 3 3 3 3 3 3 2 2 3 2 2 2 2 2 2 2 2 2 2 2 2 2 2 2 2 2 2 2 2 2 2 2 2 2 2 2 2 2 2 2 2 2 2 2 3 3 2 2 3 3 3 3 3 3 3 2 2 3 2 3 2 3 2 3 3 3 3 3 3 3 3 3 3 3 3 3 3 3 3 2 2 2 2 2 2 2 2 2 2 2 2 2 2 2 2 2 2 2 2 2 2 2 2 2 2 2 2 2 2 2 2 2 3 3 3 3 2 2 2 2 2 2 2 2 2 2 2 2 2 2 2 2 2 2 3 3 3 2 2 2 2 2 2 2 2 2 2 3 3 3 3 3 2 2 2 2 2 2 2 2 2 2 2 2 2 2 2 2 2 2 2 2 2 2 2 2 3 3 3 3 3 3 3 3 3 2 3 2 2 2 2 2 2 2 2 2 2 2 2 2 2 2 2 2 2 2 2 2 2 2 2 2 2 2 3 2 3 3 3 3 2 3 3 3 3 3 3 2 2 2 2 2 2 2 2 2 2 2 2 3 3 3 3 3 3 3 3 2 2 2 2 2 2 2 2 2 2 2 2 2 2 3 3 3 3 3 2 2 3 3 3 3 3 3 3 3 2 2 3 2 3 3 3 3 3 2 2 2 2 2 2 2 3 2 2 2 2 2 2 2 2 2 2 2 2 2 2 2 2 2 2 2 2 3 3 2 2 2 2 2 2 2 2 2 2 3 3 3 3 3 2 2 2 2 2 2 2 2 2 2 2 2 2 2 2 3 2 2 2 2 2 2 2 2 2 2 2 2 2 2 2 2 2 2 3 2 2 2 2 3 3 2 2 2 2 2 2 2 2 3 3 3 3 3 3 2 2 2 2 2 2 2 2 2 2 2 3 3 3 2 2 3 3 3 3 3 3 3 3 3 2 2 2 2 2 2 2 2 2 2 3 3 3 3 2 2 3 3 3 2 2 2 2 2 2 2 2 2 2 2 2 2 2 2 2 2 3 3 3 3 3 3 3 3 3 3 2 2 2 2 2 2 2 2 2 2 2 2 2 2 2 2 3 3 3 3 3 3 3 3 2 2 2 2 2 2 2 2 2 2 3 3 3 3 3 3 3 3 3 3 3 3 3 2 2 2 2 2 3 3 3 3 3 2 2 2 2 2 2 2 2 2 3 3 3 3 2 3 3 3 2 3 3 3 3 3 2 3 3 3 3 3 3 3 3 3 3 3 2 3 3 3 3 3 </DataArray>
</CellData>
</Piece>
</UnstructuredGrid>
</VTKFile>