<?xml version="1.0"?>
<VTKFile type="UnstructuredGrid"  version="0.1"  >
<UnstructuredGrid>
<Piece  NumberOfPoints="30" NumberOfCells="52">
<Points>
<DataArray  type="Float64"  NumberOfComponents="3"  format="ascii">0.9348982732850508 -0.3463595120151748 0.9483086574781385  0.8314696123025456 -0.5555702330196017 0.5921373179936089  1.144172503956892 -0.5822964095468832 0.7715770218375753  0.7382396701936051 -0.6691712461697086 0.8250178239670978  1.181418673939591 -0.860428236046094 0.9995055285808094  0.8168025044115795 -0.573442155694923 1.090153470182442  1.270640664059122 -0.8119874130366888 0.5027413848344545  1.632405147363933 -1.14834634680813 0.3884137081410578  1.784573970979939 -0.8835778612704865 0.4779684402652754  1.625096598652706 -1.157251839179692 0.7424291776257804  1.438655598214031 -1.384430855528367 0.5447194833783637  1.270340412691194 -1.089245202787454 0.734407584149086  1.459504997970568 -1.359025788418634 0.9579296012741751  1.182176736733822 -0.5334086362333482 0.3192335765166306  1.784573970979939 -0.8835778612704865 0.9009510904456988  1.601311506955577 -1.186234057269077 1.212109988118662  0.9503766371393803 -0.2953341845902507 0.4124879937820758  0.9829058205933265 -0.9520320181590249 0.2877579712611045  0.9689039014014911 -0.8636182641803768 0.6596981191451107  0.6162581739138656 -0.78166430635156 0.388998261253502  1.488449307202325 -0.6496696596622297 0.9313764137170886  0.7319793474097475 -0.676799471553158 0  0.9053975484695387 -0.4172607924959917 0  1.763363161222965 -0.923260495233283 1.206600525694679  1.558715434234333 -0.6624462133366534 0.6001189994399113  1.421903329894547 -0.3657283814218122 0.6899689842777004  1.905137677316593 -0.5762149293548413 0.8629352276500256  1.902692536685929 -0.5842754777728641 0.5306976110681447  0.5475044054800325 -0.8357808869431038 0.7168899887310269  1.924505282974867 -0.5123684899345773 1.116811070342246  </DataArray>
</Points>
<Cells>
<DataArray  type="UInt32"  Name="connectivity"  format="ascii">0 1 2 3  2 3 4 5  6 7 8 9  10 9 11 12  6 13 1 2  4 9 14 15  13 16 1 2  16 0 1 2  13 1 17 18  6 11 17 18  1 17 19 18  0 2 3 5  4 9 14 20  6 1 2 18  6 13 1 18  13 1 21 17  9 11 12 15  13 16 1 22  13 1 21 22  4 9 11 20  6 4 11 18  4 11 12 15  1 21 17 19  14 15 20 23  4 9 11 15  24 9 14 20  6 4 11 20  4 14 15 20  1 2 3 18  4 15 20 23  6 2 4 18  6 7 9 11  6 2 4 20  2 3 4 18  13 16 25 2  6 13 25 2  24 14 26 27  8 24 14 27  6 8 24 9  6 24 9 11  8 24 9 14  24 14 26 20  1 3 28 18  1 28 19 18  6 13 17 18  6 24 11 20  6 24 2 20  25 24 2 20  6 25 24 2  24 9 11 20  14 26 20 29  14 20 23 29  </DataArray>
<DataArray  type="UInt32"  Name="offsets"  format="ascii">4 8 12 16 20 24 28 32 36 40 44 48 52 56 60 64 68 72 76 80 84 88 92 96 100 104 108 112 116 120 124 128 132 136 140 144 148 152 156 160 164 168 172 176 180 184 188 192 196 200 204 208 </DataArray>
<DataArray  type="UInt8"  Name="types"  format="ascii">10 10 10 10 10 10 10 10 10 10 10 10 10 10 10 10 10 10 10 10 10 10 10 10 10 10 10 10 10 10 10 10 10 10 10 10 10 10 10 10 10 10 10 10 10 10 10 10 10 10 10 10 </DataArray>
</Cells>
<CellData  Scalars="f">
<DataArray  type="Float64"  Name="f"  format="ascii">2 2 2 3 2 2 2 2 2 2 2 2 2 2 2 2 3 2 2 2 2 2 2 3 2 3 2 2 2 2 2 2 2 2 2 2 3 3 2 2 3 3 2 2 2 2 2 2 2 3 3 3 </DataArray>
</CellData>
</Piece>
</UnstructuredGrid>
</VTKFile>