<?xml version="1.0"?>
<VTKFile type="UnstructuredGrid"  version="0.1"  >
<UnstructuredGrid>
<Piece  NumberOfPoints="30" NumberOfCells="53">
<Points>
<DataArray  type="Float64"  NumberOfComponents="3"  format="ascii">-0.9884711682419383 0.1170541932096765 3  -1.425722034133373 0.4167178191580928 3  -1.31793437860139 0.05225952987493204 2.731411973099033  -1.492037750164329 -0.04537433406292787 3  -1.718207515630612 0.1656325407329907 2.730245358308145  -1.584587574927397 0.5250362983745115 2.724163446472293  -1.909045548548627 0.5633324043654053 2.657570655743448  -1.961570560806461 0.3901806440322567 3  -1.482021479503497 -0.2124598886321394 2.465159781195152  -1.362724606337284 -0.2509991221001741 3  -1.872742076292211 0.6830089138452586 3  -1.26350801991714 -0.4011185096612048 2.684939077533538  -1.201893715091328 -0.3615169074776507 2.325028010528075  -0.9273729073291088 -0.3711673189324999 2.536857347675441  -0.9980817192563867 0.01947663124117401 2.63865723500619  -1.51628174194805 0.2500805710234424 2.548357219803956  -1.979306087000891 0.2101088246663099 2.626138783003607  -0.9807852804032304 -0.1950903220161286 3  -1.909045548548626 0.5633324043654051 2.412625223397536  -0.9988204316776865 -0.01197635816027371 2.381183933738736  -1.991564269445321 0.08564940966561729 3  -1.628076843729829 0.1755157635964681 3  -0.9983813517004134 -0.01643441198331545 2.112705389863635  -0.9547800418474424 -0.2808181046526108 2.095356488282758  -1.409469123291521 -0.5063568954541185 3  -1.418270870718573 0.08770913575380102 2.157018349698728  -0.8684335803860386 -0.4864155127578036 3  -1.226372019819206 0.3270480739075828 2.370012777508555  -0.9579954471492393 0.2702183339099078 2.585704176216106  -0.965058522091939 0.246934496227205 2.15304399136757  </DataArray>
</Points>
<Cells>
<DataArray  type="UInt32"  Name="connectivity"  format="ascii">0 1 2 3  4 5 6 7  8 2 3 9  5 6 7 10  11 12 13 14  15 4 16 6  0 2 3 17  15 16 18 6  2 3 9 17  12 13 14 19  4 7 20 21  4 16 7 20  15 4 1 21  12 22 23 19  11 24 9 17  12 13 23 19  11 13 14 17  4 16 6 7  4 3 20 21  5 1 7 10  5 1 7 21  12 8 25 19  12 8 14 19  12 25 22 19  11 12 8 14  11 24 26 17  11 13 26 17  4 8 2 3  15 4 8 2  15 8 2 25  4 5 7 21  15 1 2 21  1 2 3 21  15 4 5 6  15 4 5 1  4 5 1 21  27 14 19 28  0 2 14 28  8 2 14 19  11 8 2 14  11 2 14 17  0 2 14 17  11 2 9 17  11 8 2 9  8 2 25 19  4 2 3 21  15 4 2 21  27 29 19 28  27 29 22 19  27 2 14 28  27 2 14 19  27 2 25 19  27 25 22 19  </DataArray>
<DataArray  type="UInt32"  Name="offsets"  format="ascii">4 8 12 16 20 24 28 32 36 40 44 48 52 56 60 64 68 72 76 80 84 88 92 96 100 104 108 112 116 120 124 128 132 136 140 144 148 152 156 160 164 168 172 176 180 184 188 192 196 200 204 208 212 </DataArray>
<DataArray  type="UInt8"  Name="types"  format="ascii">10 10 10 10 10 10 10 10 10 10 10 10 10 10 10 10 10 10 10 10 10 10 10 10 10 10 10 10 10 10 10 10 10 10 10 10 10 10 10 10 10 10 10 10 10 10 10 10 10 10 10 10 10 </DataArray>
</Cells>
<CellData  Scalars="f">
<DataArray  type="Float64"  Name="f"  format="ascii">2 3 2 3 2 2 2 2 2 2 3 3 2 2 2 2 2 3 2 2 2 2 2 2 2 2 2 2 2 2 3 2 2 2 2 2 2 2 2 2 2 2 2 2 2 2 2 2 2 2 2 2 2 </DataArray>
</CellData>
</Piece>
</UnstructuredGrid>
</VTKFile>