<?xml version="1.0"?>
<VTKFile type="UnstructuredGrid"  version="0.1"  >
<UnstructuredGrid>
<Piece  NumberOfPoints="28" NumberOfCells="54">
<Points>
<DataArray  type="Float64"  NumberOfComponents="3"  format="ascii">1.628955077327481 -0.2793896626513032 0.9677355255378075  1.30638307684875 -0.09277109321427224 1.289033245456324  1.342598497655672 -0.06787414183251217 0.940529907570455  1.427438726121689 -0.4205119031039213 1.226491637279935  0.9503766371393803 -0.2953341845902507 0.4124879937820758  1.421903329894547 -0.3657283814218122 0.6899689842777004  0.9961291647000607 0.03930125034265271 0.7784817129724662  0.9348982732850508 -0.3463595120151748 0.9483086574781385  1.483670250902227 0.1972611969767152 1.200509124604304  1.648107957350248 -0.1227976461946005 1.364587885103908  1.312522086149463 0.04418798656386991 0.5971271750425831  0.996129164700061 0.03930125034265267 0.4203233659115466  1.65659855429246 0.01793192137783933 0.7080773934678531  1.182176736733822 -0.5334086362333482 0.3192335765166306  0.9884711682419383 -0.1170541932096764 0  1.337709745385502 -0.2253252951812511 0.3203539436913537  1.970041898255386 -0.3041697115023912 0.6834035408271888  1.974226746434842 -0.2616802348901017 1.056914573512967  0.9053975484695387 -0.4172607924959917 0  1.905137677316593 -0.5762149293548413 0.8629352276500256  0.9945396279790377 -0.05544008750856189 1.131547179751708  1.989245257061672 0.1091947375277718 0.997252531244357  1.488449307202325 -0.6496696596622297 0.9313764137170886  1.144172503956892 -0.5822964095468832 0.7715770218375753  1.980796191678785 0.1949795379762737 1.272752160226466  1.558715434234333 -0.6624462133366534 0.6001189994399113  1.902692536685929 -0.5842754777728641 0.5306976110681447  1.924505282974867 -0.5123684899345773 1.116811070342246  </DataArray>
</Points>
<Cells>
<DataArray  type="UInt32"  Name="connectivity"  format="ascii">0 1 2 3  4 5 6 7  0 2 8 9  10 4 6 11  0 2 12 8  13 4 14 15  1 2 3 7  0 16 12 17  13 4 14 18  0 2 12 5  0 16 17 19  2 6 7 20  0 12 21 17  0 21 9 17  16 12 21 17  0 1 2 9  0 3 5 22  0 12 8 21  3 5 23 22  13 4 5 15  0 16 5 19  0 16 12 5  0 1 3 9  1 2 8 9  4 14 15 11  0 2 3 5  0 8 21 9  2 5 6 7  13 14 15 18  2 10 5 6  2 12 10 5  12 10 5 15  10 4 5 15  10 4 15 11  10 4 5 6  4 5 7 23  2 5 7 23  2 3 7 23  2 3 5 23  8 24 21 9  24 21 9 17  1 2 8 20  1 2 7 20  0 5 25 22  0 25 19 22  0 5 25 19  16 5 25 19  16 25 19 26  16 5 25 26  0 17 19 27  0 9 17 27  0 3 9 27  0 3 22 27  0 19 22 27  </DataArray>
<DataArray  type="UInt32"  Name="offsets"  format="ascii">4 8 12 16 20 24 28 32 36 40 44 48 52 56 60 64 68 72 76 80 84 88 92 96 100 104 108 112 116 120 124 128 132 136 140 144 148 152 156 160 164 168 172 176 180 184 188 192 196 200 204 208 212 216 </DataArray>
<DataArray  type="UInt8"  Name="types"  format="ascii">10 10 10 10 10 10 10 10 10 10 10 10 10 10 10 10 10 10 10 10 10 10 10 10 10 10 10 10 10 10 10 10 10 10 10 10 10 10 10 10 10 10 10 10 10 10 10 10 10 10 10 10 10 10 </DataArray>
</Cells>
<CellData  Scalars="f">
<DataArray  type="Float64"  Name="f"  format="ascii">2 2 2 2 2 2 2 3 2 2 3 2 3 3 3 2 2 2 2 2 2 2 2 2 2 2 2 2 2 2 2 2 2 2 2 2 2 2 2 2 3 2 2 2 3 2 2 3 2 3 3 2 2 3 </DataArray>
</CellData>
</Piece>
</UnstructuredGrid>
</VTKFile>