<?xml version="1.0"?>
<VTKFile type="UnstructuredGrid"  version="0.1"  >
<UnstructuredGrid>
<Piece  NumberOfPoints="28" NumberOfCells="55">
<Points>
<DataArray  type="Float64"  NumberOfComponents="3"  format="ascii">0.1825353671571631 -1.449660084558329 1.338705133025003  -0.1525475355919108 -1.302936796876023 1.365541189925485  -0.2855704058266187 -1.646446336161575 1.324262152723459  -0.1823815018268221 -1.526821252107493 1.654529310749538  -0.1001116010720892 -0.9901398679180773 1.559727400289164  -0.4388734060990037 -1.25592219989705 1.687950063861267  0.1225121416717126 -1.277591265884165 1.003367433258137  0.1164685713061415 -0.9885288469650542 1.392686278619681  -0.1781048351034047 -1.512718633412544 1.000838964097707  -0.1165581619143174 -0.9885200230603273 1.180135402155414  0.02082006329791752 -1.710709865751513 1.203182801737701  -0.718776826249423 -1.07158912740432 1.415368659861116  -0.7044377747742363 -0.709297178141717 1.39923211058477  -0.5555702330195977 -0.8314696123025477 1.068759465842304  -0.3779056233809401 -0.9253288650215379 1.267751931752157  -0.5136178706685083 -1.36028340084241 1.336078858819277  -0.4164114630926857 -1.270321899080475 0.9379339257406052  -0.05339583133012425 -1.994740969638874 0.9837095761186229  0.1922639486628559 -1.643987499174081 0.9224333582651919  0.1254157448558533 -1.703756195858605 1.588785014067285  -0.31496024115303 -0.944423137968771 0.9927145489753666  -0.4568075246905228 -0.8842593797210982 1.636672436524356  -0.527526366117657 -1.919907191504199 0.9011207031391884  -0.6953786612592505 -1.471852142185765 0.9705856189616491  -0.2307630709251082 -1.977271821301577 1.471181044419264  -0.5659413670829272 -1.908254128360612 1.193905724961896  0.1021569525316506 -1.327805660959527 1.653761852414816  0.07996573517703856 -1.992124062521926 1.37630983427414  </DataArray>
</Points>
<Cells>
<DataArray  type="UInt32"  Name="connectivity"  format="ascii">0 1 2 3  1 3 4 5  6 0 1 7  6 1 8 9  6 0 1 8  6 1 9 7  10 1 2 8  11 12 13 14  0 10 1 8  1 4 9 14  1 15 16 14  10 17 18 8  1 2 15 8  19 0 10 3  1 15 5 14  1 3 15 5  1 15 8 16  16 9 20 14  11 15 16 14  21 4 5 14  6 0 10 8  17 2 8 22  11 21 12 14  1 16 9 14  11 16 13 14  2 15 8 23  15 8 16 23  24 17 2 25  17 2 22 25  0 10 1 2  19 26 0 3  19 10 2 3  1 2 3 15  0 10 2 3  8 23 22 25  1 4 9 7  1 4 5 14  2 8 22 25  2 8 23 25  11 21 5 14  11 15 5 14  16 20 13 14  10 17 2 8  6 10 18 8  26 0 1 3  26 1 4 7  26 0 1 7  26 1 3 4  26 3 4 5  6 8 16 9  1 8 16 9  19 24 10 27  19 24 10 2  24 10 17 2  24 10 17 27  </DataArray>
<DataArray  type="UInt32"  Name="offsets"  format="ascii">4 8 12 16 20 24 28 32 36 40 44 48 52 56 60 64 68 72 76 80 84 88 92 96 100 104 108 112 116 120 124 128 132 136 140 144 148 152 156 160 164 168 172 176 180 184 188 192 196 200 204 208 212 216 220 </DataArray>
<DataArray  type="UInt8"  Name="types"  format="ascii">10 10 10 10 10 10 10 10 10 10 10 10 10 10 10 10 10 10 10 10 10 10 10 10 10 10 10 10 10 10 10 10 10 10 10 10 10 10 10 10 10 10 10 10 10 10 10 10 10 10 10 10 10 10 10 </DataArray>
</Cells>
<CellData  Scalars="f">
<DataArray  type="Float64"  Name="f"  format="ascii">2 2 2 2 2 2 2 2 2 2 2 2 2 2 2 2 2 2 2 2 2 2 2 2 2 2 2 3 3 2 2 2 2 2 2 2 2 2 2 2 2 2 2 2 2 2 2 2 2 2 2 3 3 3 3 </DataArray>
</CellData>
</Piece>
</UnstructuredGrid>
</VTKFile>