<?xml version="1.0"?>
<VTKFile type="UnstructuredGrid"  version="0.1"  >
<UnstructuredGrid>
<Piece  NumberOfPoints="176" NumberOfCells="626">
<Points>
<DataArray  type="Float64"  NumberOfComponents="3"  format="ascii">-1.462744779920422 0.4173062759430208 0.7927788025429325  -1.315004706961013 0.6972167789990056 0.7557377227898123  -1.24261630433174 0.4137133052539228 0.6762314288941822  -1.564690195006766 0.6196325639107423 0.6892222911693506  -0.9912607890003962 0.0887306983322423 0.7688596154928593  -1.157675661796024 0.2874316557483794 0.8237284357888865  -1.193677763294787 0.02935523231729001 0.812175874957884  -0.9819498088636408 0.1832666661363625 1  -1.370317109984933 0.6068829405856371 1  -1.374007622100844 0.09777626041767989 0.7163944533892758  -1.497526988319634 0.06223231979832809 1  -1.257318893890059 0.113297357199552 1  -1.426410269324307 -0.2746123173713337 1  -1.500573791635198 -0.1343119170450844 0.7793914918465166  -1.628642811205088 -0.2280282795420948 1  -1.553893487133441 0.2026855142925206 0.8123817161664363  -1.724055721366079 0.08454345261679307 1  -1.730806770054562 0.2680869584325063 1  -1.738241993048834 -0.1668323661063556 0.5052707113179995  -1.678786771260193 0.05495038097256552 0.6892783914122976  -1.475115822476183 -0.1061604368231795 0.5102968426790093  -1.65956562518322 0.6779485992594181 0.1896533736052345  -1.720532437548271 0.4373519509618823 0.1754478773861343  -1.709763549103771 0.6410356720050135 0.4332539624816215  -1.885130003936691 0.6421713892771141 0.270111656601095  -1.636071442661823 -0.3475227057135603 0.6780535416162582  -1.770439526340713 -0.3857097409097593 0.4625341959737544  -1.944522349779485 -0.4463810640409471 0.5920894244586623  -1.974189182631205 -0.2620616265888291 0.7298883433989083  -1.311232433775281 -0.5655346387499858 0.2575624298059242  -1.115114617145163 -0.4774046250283511 0.183365501259989  -1.389282245793132 -0.390104725039531 0.1762849063852214  -1.272047610987646 -0.2896564134506388 0.3164264087849299  -0.9290527823196455 0.3656295132424565 0  -1.190015801986949 0.4859549610262058 0.2855300420029705  -1.154952165344322 0.2392481477379702 0.1941991349140578  -0.9566144206959937 0.2747709680011161 0.2420850819122637  -0.9917877951958876 -0.08337991463409308 0.3014470703819548  -1.203640036831656 -0.08325252803474509 0.4828454397889581  -0.9711427085821456 -0.226877621308203 0.5  -0.9912607890003962 0.0887306983322422 0.5  -1.200554184744864 0.1951582901488528 0.5722415843174004  -0.9566144206959937 0.2747709680011161 0.7579149180877363  -0.9807852804032304 -0.1950903220161286 0  -1.209935812895535 -0.3819042831015633 0  -1.820860037820459 0.0940778455954159 0.8249209159235769  -1.740429359649223 -0.4716914031645397 0.8098827929228846  -1.675175657750933 -0.6607398531446582 0.8269759785572082  -1.863047176396528 -0.7149687156812052 1  -1.892475081514288 -0.6179579134933961 0.6823257906480289  -1.694030268265159 0.2521086332974301 0  -1.9123088686015 0.5525746798567135 0  -1.963291281964382 0.3727098689263164 0  -0.8818497861445191 -0.4613155571981953 0.5  -1.150536973579396 -0.480913571459282 0.4660449197857321  -0.9563006605232179 -0.2758052966743181 0.7404721885678482  -1.971763274727665 -0.286692282878117 0.4416850368765731  -1.989110983577033 -0.1105580390958591 0.2754498220525415  -1.761579966123775 -0.2663709394208962 0.2302127468000587  -1.93944788191584 -0.4631093427328397 0.312468973614769  -1.7586360996564 -0.1593651247605219 0.7674836060750635  -0.8818497861445191 -0.4613155571981952 0.7311394935597686  -1.115941880422272 -0.4305433895007025 0.796606423718511  -0.9256039491140714 -0.3769987926575506 1  -1.212002869458737 -0.2375731748946453 0.8353124047479963  -1.21000317190587 -0.3819247162339598 1  -0.9807852804032304 -0.1950903220161286 1  -1.525927344464973 -0.2393749232136364 0.2219150219271743  -1.415930250292146 -0.03013962490768879 0.2431523579218497  -1.749285118686629 -0.0940061731589974 1  -1.575027654417853 -0.4272778672614745 0.3583387676772505  -1.376556337245432 -0.4413811822579451 0.4728095292503682  -1.540546267421118 0.3160575247297414 0.5788901295650919  -1.725771647669393 0.3430097485514121 0.7545419563727896  -1.72596058113537 0.4955108474915281 0.5828909256489527  -1.969434863507119 0.3103330387327409 0.6361264082428812  -1.929321970332065 0.4964899996873173 0.7245501779474556  -1.190487498900903 0.03615294689702322 0.2137535486344003  -1.473771864508179 0.1228524379847805 0.4668768675845455  -1.986252054781623 0.1395852302816939 0.4691986221315061  -1.780044200666404 0.05311175152980256 0.4889464863196062  -1.991422321557937 0.08709063075238727 0.2572330376846003  -1.972468461473287 0.2795324016947319 0.3020560919448448  -1.720206073487053 -0.3872292339129283 1  -1.917404905726146 -0.535775296840406 1  -1.9650120031223 -0.3552390938204129 1  -1.944522349779485 -0.4463810640409477 0.772562156837397  -1.731067350347138 0.3425306741520479 0.411742788949795  -1.940529183105366 0.4595447704201737 0.2391745997996103  -1.939447881915845 0.4631093427328218 0.4952633427125438  -1.907212831476848 0.5693740628730387 1  -1.733336968666854 0.4378256679860146 1  -1.961570560806461 0.3901806440322567 1  -1.570108367541714 0.5323200146201426 0.3214131146464111  -1.4996994999672 0.3046073686345621 0.2461276645980091  -1.573062635283103 0.710522813525687 1  -1.69636532186868 0.6500391759259293 0.82538474617488  -1.664660741945468 0.560043186159905 1  -1.85285510214723 0.74856748171384 1  -1.295818339527629 -0.1133243096087688 1  -1.450441019651562 -0.2765949854519154 0  -1.5576587466791 -0.06806370280219359 0  -1.222473603421901 0.3518873350067027 0  -1.46295663988695 0.3280486082887119 0  -1.257150721370752 0.1132818288738338 0  -1.614445528027136 -0.0895553740106462 0.3477398800377443  -0.9482005564984586 -0.3025077610903928 0.2301063922394252  -1.796694049967172 -0.01478787568249089 0.2086438349576154  -1.781864168871655 0.1864306443293937 0.1730525028907116  -2 -2.449293598294706e-16 0  -1.540227286709983 -0.7594309578000181 0.7158969883666931  -1.432341127333238 -0.8020961674110092 1  -1.285361083627857 -0.7056318215590633 0.7820307561532949  -1.459371640292367 -0.5186517413535566 0.749881381869644  -1.875920433601355 0.672531273966861 0.7616887288907539  -1.34376490772025 -0.6629168230233793 0.5232079866624604  -1.146979132093379 -0.6111977257244187 0.6415714464460128  -1.285156043291617 -0.351816949472253 0.6633811875835041  -1.992530085494706 -0.07584331475312509 0.504736657287455  -1.683847711978677 -0.6637140041757016 0.3554943844166969  -1.647750840002398 -0.5800941792630666 0.5582074612571528  -1.111399709213698 0.3143340114943649 0.3936982570693697  -1.417412770778386 -0.48194566875493 1  -1.596231885380743 -0.724927919435626 1  -1.635305746268364 -0.5480427802511509 1  -1.13407750712131 -0.2153179274375809 0.6269079539693194  -1.250327345612778 0.359966722685725 1  -1.358753583540909 0.4331344014522989 0.4586164123344102  -1.877945506506339 0.6658555032582358 0.5583149631234268  -1.687422812760598 -0.5289845451979994 0.1787939533334902  -1.963291281964381 -0.3727098689263351 0  -0.9994177357697949 -0.005911827939883069 1  -1.774018349100714 -0.2423465202832379 1  -0.9819498088636408 0.1832666661363625 0  -1.161618529882714 -0.6086679473328844 1  -1.412883232192979 -0.498916897224404 0  -1.304133030842394 -0.1097012979738302 0.6789968233247218  -1.599403017832927 0.3964101795874956 1  -1.652148460867653 0.1195813693636491 0.3168599109785838  -1.465782815393488 0.1193474926581011 0  -1.295023116703767 -0.113245986996865 0  -1.820074272553176 0.817161468448121 0.4079105755413405  -1.828344611031377 -0.8016887534344467 0.501479594258776  -1.895141120398549 -0.6091691611241368 0.4773268319077155  -1.989102099333176 0.1106482423375056 0.6979439080551546  -1.99827927884208 0.01747077510592193 1  -1.979924919824271 0.2038257095690893 1  -1.027492750785988 -0.6524847028891798 0.8199378413995048  -1.436854688949139 0.2633462915169819 1  -1.292882032904074 0.2047573215974398 0.3447930596874081  -1.663935857491406 0.5750728785195803 0  -1.781648922374962 0.2379196086930771 0.5841112152691851  -1.828344611031377 -0.801688753434447 0.7315233149267526  -1.78431344816284 -0.8840652651795469 1  -1.559641239500735 -0.4052782369023943 1  -1.820074272553177 0.8171614684481179 0.2274378431626041  -1.598442001919816 0.8131212705610243 0.8005177185861571  -1.7677624176777 0.9150300652967593 1  -1.857951139271881 0.7317680986975148 0  -1.98336636214011 -0.1688841593572455 1  -0.947388990623786 0.3051831352366393 0.5363564105802381  -1.650217386037167 -0.3811273884986385 0  -0.9917877951958877 -0.08337991463409308 0.6985529296180453  -1.557364917173048 0.7833533360165803 0.4519990588587856  -1.811833783889858 0.8325783383860297 0.6875310263852326  -1.623972487846827 -0.7834420794628646 0.5282118138501414  -1.972459577229428 0.2796226049363978 0.7864098642370551  -1.98164564098219 -0.1863549344631677 0  -1.981645640982192 0.1863549344631475 0  -1.748038853727744 -0.08681450671670213 0  -1.992530085494706 -0.07584331475312481 0.7646942852785927  -1.562107303025337 -0.8714576333881834 1  -0.9256039491140714 -0.3769987926575506 0  -0.9994177357697949 -0.005911827939883069 0  -0.8370702135273155 -0.5450922451011507 1  -1.391582474002526 0.487267687798005 0.2096997911392877  </DataArray>
</Points>
<Cells>
<DataArray  type="UInt32"  Name="connectivity"  format="ascii">0 1 2 3  4 5 6 7  0 1 2 8  6 9 10 11  10 12 13 14  10 15 16 17  13 18 19 20  21 22 23 24  25 26 27 28  29 30 31 32  33 34 35 36  37 38 39 40  4 40 41 42  30 32 43 44  15 16 17 45  46 47 48 49  22 50 51 52  39 53 54 55  56 57 58 59  18 25 28 60  55 61 62 63  62 64 65 66  20 32 67 68  13 16 19 69  20 70 67 71  9 15 19 72  73 74 75 76  37 38 40 77  9 38 41 78  79 80 81 82  46 83 84 85  25 28 46 86  82 87 88 89  25 27 28 86  73 90 91 92  22 87 93 94  95 96 97 98  74 75 76 89  10 12 13 99  67 68 100 101  35 102 103 104  28 46 85 86  73 91 96 97  58 70 67 105  21 22 24 51  32 37 43 106  81 107 108 109  110 111 112 113  90 96 98 114  115 71 116 117  18 28 60 118  0 1 3 8  0 3 95 96  119 115 70 120  35 36 40 121  46 47 48 84  113 122 123 124  15 17 45 73  110 111 113 123  34 35 36 121  52 82 88 108  5 6 9 11  72 87 93 94  54 55 62 125  5 7 11 126  15 19 45 73  18 25 26 70  18 25 26 28  72 78 127 94  2 41 127 121  72 74 127 93  53 55 61 62  23 74 89 128  39 53 54 106  58 59 129 130  6 7 11 131  0 3 73 74  12 113 117 122  20 32 67 71  32 37 38 77  46 83 85 132  33 35 36 133  47 48 84 124  33 34 35 102  62 112 122 134  0 3 72 74  3 23 74 93  135 29 31 44  32 38 117 125  20 38 117 136  62 64 117 125  32 54 71 117  0 15 73 137  50 94 138 139  6 11 99 131  68 78 105 138  67 68 100 140  62 64 65 117  23 24 128 141  119 142 143 120  119 26 70 120  45 144 145 146  61 62 147 116  15 17 137 148  68 77 104 149  26 27 28 56  110 47 113 120  0 3 8 95  12 13 113 117  31 32 70 67  4 5 7 42  22 50 103 150  82 87 89 151  152 47 48 153  80 82 108 138  22 50 51 150  27 46 49 86  62 147 112 134  25 46 83 154  23 24 155 141  6 9 41 136  95 98 156 157  21 24 155 158  46 49 84 86  68 77 104 140  25 46 60 83  32 38 68 77  64 66 99 131  32 43 44 140  41 78 127 149  60 69 145 159  10 13 16 69  6 38 41 136  55 62 63 66  65 113 117 122  36 40 160 121  18 20 70 105  31 67 100 161  0 8 95 97  79 80 82 87  21 24 51 158  115 110 113 120  25 27 46 86  62 113 116 117  73 91 97 137  25 27 46 120  6 64 99 131  62 65 113 122  53 54 55 62  16 17 45 146  5 6 7 11  20 70 67 105  20 67 68 105  58 67 105 107  13 19 60 69  4 6 131 162  26 27 56 59  21 22 23 93  23 163 141 164  80 81 82 108  1 3 8 95  21 23 93 163  21 23 24 155  3 23 128 164  62 63 65 134  62 65 122 134  78 127 94 149  142 49 143 120  111 112 113 122  25 26 27 120  73 96 97 137  36 37 40 77  165 152 47 120  47 48 123 153  22 82 88 108  115 113 116 117  35 94 104 149  46 84 85 86  32 70 67 71  3 96 156 164  15 17 73 137  73 74 75 151  6 9 13 136  9 20 38 78  10 13 14 69  23 74 87 93  22 23 24 87  19 20 78 80  50 94 103 139  115 29 54 71  46 47 113 124  9 19 20 78  12 13 25 154  58 129 130 161  17 45 73 146  4 5 41 42  35 102 104 133  62 112 113 122  72 87 138 151  15 19 72 151  94 104 139 149  46 48 49 84  111 113 122 123  25 71 113 120  38 117 125 136  73 75 151 166  82 87 108 138  29 30 32 54  165 119 115 120  6 38 41 162  31 32 44 140  5 11 126 148  20 32 38 117  35 36 77 133  35 94 102 103  32 67 68 140  68 101 139 140  68 104 139 149  68 104 139 140  94 103 104 139  68 94 138 139  95 96 98 156  119 26 59 129  18 20 80 105  20 25 70 71  46 47 84 124  22 24 51 88  57 58 130 167  17 73 92 146  12 13 14 154  38 68 77 149  33 35 102 133  6 13 99 136  23 24 87 89  9 41 72 78  4 6 41 162  19 72 78 151  21 23 163 141  26 27 143 120  12 13 64 99  4 6 7 131  32 68 77 140  18 26 58 70  115 110 112 113  54 62 116 117  12 113 122 154  35 94 103 104  6 64 66 131  79 82 87 151  75 79 89 151  81 108 109 168  57 58 59 130  3 72 74 127  22 51 52 88  80 82 87 138  98 156 157 164  6 10 11 99  28 60 85 159  13 25 113 117  22 82 87 108  35 77 104 149  32 37 39 106  13 20 25 117  17 73 91 92  35 77 104 133  32 43 77 140  10 13 16 19  12 64 65 99  75 79 144 151  68 94 139 149  62 63 65 66  30 32 54 106  9 10 13 99  72 78 87 94  62 65 113 117  40 41 160 121  31 67 100 140  90 96 97 98  72 78 138 151  58 161 167 169  64 65 66 99  46 83 84 124  13 18 19 60  78 87 94 138  4 40 41 162  57 81 107 109  81 82 108 168  115 112 113 116  12 64 65 122  30 31 32 44  135 31 100 161  27 49 143 120  74 75 89 151  74 87 89 151  111 112 122 134  20 32 38 68  45 144 146 166  54 71 116 117  25 46 113 154  20 25 71 117  21 23 155 141  50 108 168 169  68 100 101 140  75 144 151 166  78 80 105 138  6 66 131 162  64 65 117 122  47 48 123 124  34 127 121 149  13 64 117 136  35 36 40 77  96 98 156 164  0 8 97 137  13 18 25 60  60 145 159 170  58 130 161 167  6 64 66 162  55 64 66 162  55 62 64 66  68 78 94 138  73 74 76 96  108 109 168 169  3 95 96 156  0 95 96 97  26 27 59 143  72 74 87 93  38 39 40 162  27 46 49 120  142 152 49 120  18 26 28 56  26 56 58 59  31 32 67 140  135 31 44 100  60 85 132 159  3 23 93 163  53 54 61 62  16 45 145 146  72 127 93 94  68 101 138 139  31 44 100 140  10 15 17 148  81 107 108 138  74 76 114 128  5 9 11 148  9 10 11 148  32 39 54 106  20 32 71 117  18 28 56 118  29 31 32 71  0 2 9 72  67 100 101 161  90 91 96 97  73 90 91 96  110 111 171 123  30 32 43 106  30 43 44 172  165 115 110 120  28 46 60 85  68 101 105 138  6 9 10 99  60 69 132 159  46 60 83 132  13 14 25 60  52 82 108 168  6 64 125 162  32 37 43 77  38 40 77 149  37 43 77 173  43 77 140 173  115 54 71 116  9 19 72 78  32 37 38 39  119 26 59 143  9 13 19 20  6 9 13 99  25 71 113 117  32 54 117 125  152 47 49 120  165 119 142 120  36 37 77 133  37 77 133 173  77 104 133 173  77 104 140 173  6 38 136 162  12 25 113 154  29 30 31 44  31 70 67 129  18 56 57 118  18 56 57 58  13 18 20 25  18 20 25 70  22 82 87 88  30 43 106 172  35 40 77 121  12 13 64 117  12 64 117 122  25 28 46 60  46 60 85 132  18 26 56 58  26 58 59 129  39 55 125 162  62 147 112 116  18 57 58 107  58 107 167 169  57 58 107 167  57 107 109 167  107 109 167 169  38 40 41 149  73 92 146 166  73 76 92 166  73 76 90 92  73 75 76 166  115 71 113 117  17 73 91 137  3 163 156 164  25 46 113 120  12 13 25 113  24 87 88 89  22 24 87 88  29 32 54 71  115 29 70 71  54 62 117 125  55 62 64 125  2 41 160 121  40 41 121 149  61 62 63 147  61 63 174 147  63 174 147 134  62 63 147 134  38 125 136 162  39 54 55 125  32 39 54 125  6 125 136 162  64 117 125 136  21 175 93 150  22 50 94 103  0 96 97 137  96 98 114 164  23 24 89 128  0 2 8 126  0 2 5 126  0 2 5 9  0 5 9 148  0 8 137 148  0 8 126 148  0 5 126 148  1 3 95 156  13 64 99 136  9 38 41 136  6 64 99 136  9 20 38 136  25 26 70 120  3 73 74 96  0 2 3 127  0 2 72 127  0 3 72 127  87 94 108 138  50 94 108 138  50 108 138 139  101 108 138 139  50 101 108 139  50 101 108 169  101 107 108 169  107 108 109 169  101 107 108 138  22 50 94 108  22 50 52 108  22 52 88 108  50 52 108 168  22 87 94 108  23 74 87 89  20 68 78 105  20 78 80 105  74 76 96 114  74 76 89 128  18 58 70 105  26 58 70 129  0 15 137 148  0 9 15 148  2 5 41 42  2 9 41 72  2 5 9 41  2 41 72 127  40 41 42 160  2 41 42 160  5 6 9 41  4 5 6 41  38 40 41 162  45 73 146 166  41 72 78 127  13 14 60 69  14 60 69 132  14 60 83 132  14 25 60 83  28 60 118 170  28 60 159 170  54 61 62 116  3 23 74 128  3 23 163 164  73 76 90 96  76 90 96 114  115 71 113 120  25 70 71 120  115 70 71 120  0 3 73 96  0 73 96 137  3 96 128 164  96 114 128 164  79 82 89 151  58 70 67 129  58 67 129 161  72 74 87 151  58 67 161 169  58 67 107 169  67 101 107 169  67 101 161 169  19 45 144 170  45 144 145 170  45 60 145 170  45 60 69 145  16 45 69 145  16 19 45 69  19 45 60 69  19 45 60 170  62 112 113 116  31 32 70 71  29 31 70 71  68 78 94 149  38 68 78 149  20 38 68 78  38 41 78 149  72 78 87 138  46 47 49 120  46 47 113 120  152 47 48 49  14 25 83 154  13 14 25 154  46 113 124 154  113 122 124 154  46 83 124 154  110 47 171 123  110 47 113 123  18 80 105 107  3 74 96 128  74 96 114 128  3 74 127 93  0 72 73 74  119 26 143 120  9 13 15 19  10 13 15 19  9 10 13 15  9 10 15 148  10 15 16 19  15 16 19 45  0 9 15 72  0 15 72 73  110 47 171 153  47 113 123 124  110 152 47 153  18 58 105 107  80 105 107 138  47 171 123 153  35 77 121 149  40 77 121 149  41 127 121 149  34 35 121 149  18 57 80 107  18 57 80 118  18 60 80 118  18 19 60 80  18 19 20 80  19 60 80 170  60 80 118 170  80 118 144 170  19 80 144 170  79 80 118 144  79 80 81 118  57 80 81 118  57 80 81 107  80 81 107 138  80 81 108 138  6 64 125 136  55 64 125 162  119 26 70 129  13 20 117 136  9 13 20 136  165 110 47 120  21 51 150 158  21 22 93 150  21 163 155 141  21 22 51 150  165 110 152 47  22 175 103 150  22 175 93 150  22 175 93 94  22 175 94 103  175 94 102 103  35 175 94 102  35 175 94 149  175 127 94 149  175 127 93 94  34 175 127 149  34 35 175 149  34 35 175 102  67 101 105 107  67 68 101 105  101 105 107 138  22 23 87 93  23 128 141 164  31 67 129 161  79 80 87 151  79 80 144 151  19 80 144 151  19 45 144 151  45 144 151 166  45 73 151 166  19 45 73 151  15 19 73 151  15 72 73 151  72 73 74 151  19 78 80 151  78 80 138 151  80 87 138 151  165 142 152 120  32 38 39 125  38 39 125 162  </DataArray>
<DataArray  type="UInt32"  Name="offsets"  format="ascii">4 8 12 16 20 24 28 32 36 40 44 48 52 56 60 64 68 72 76 80 84 88 92 96 100 104 108 112 116 120 124 128 132 136 140 144 148 152 156 160 164 168 172 176 180 184 188 192 196 200 204 208 212 216 220 224 228 232 236 240 244 248 252 256 260 264 268 272 276 280 284 288 292 296 300 304 308 312 316 320 324 328 332 336 340 344 348 352 356 360 364 368 372 376 380 384 388 392 396 400 404 408 412 416 420 424 428 432 436 440 444 448 452 456 460 464 468 472 476 480 484 488 492 496 500 504 508 512 516 520 524 528 532 536 540 544 548 552 556 560 564 568 572 576 580 584 588 592 596 600 604 608 612 616 620 624 628 632 636 640 644 648 652 656 660 664 668 672 676 680 684 688 692 696 700 704 708 712 716 720 724 728 732 736 740 744 748 752 756 760 764 768 772 776 780 784 788 792 796 800 804 808 812 816 820 824 828 832 836 840 844 848 852 856 860 864 868 872 876 880 884 888 892 896 900 904 908 912 916 920 924 928 932 936 940 944 948 952 956 960 964 968 972 976 980 984 988 992 996 1000 1004 1008 1012 1016 1020 1024 1028 1032 1036 1040 1044 1048 1052 1056 1060 1064 1068 1072 1076 1080 1084 1088 1092 1096 1100 1104 1108 1112 1116 1120 1124 1128 1132 1136 1140 1144 1148 1152 1156 1160 1164 1168 1172 1176 1180 1184 1188 1192 1196 1200 1204 1208 1212 1216 1220 1224 1228 1232 1236 1240 1244 1248 1252 1256 1260 1264 1268 1272 1276 1280 1284 1288 1292 1296 1300 1304 1308 1312 1316 1320 1324 1328 1332 1336 1340 1344 1348 1352 1356 1360 1364 1368 1372 1376 1380 1384 1388 1392 1396 1400 1404 1408 1412 1416 1420 1424 1428 1432 1436 1440 1444 1448 1452 1456 1460 1464 1468 1472 1476 1480 1484 1488 1492 1496 1500 1504 1508 1512 1516 1520 1524 1528 1532 1536 1540 1544 1548 1552 1556 1560 1564 1568 1572 1576 1580 1584 1588 1592 1596 1600 1604 1608 1612 1616 1620 1624 1628 1632 1636 1640 1644 1648 1652 1656 1660 1664 1668 1672 1676 1680 1684 1688 1692 1696 1700 1704 1708 1712 1716 1720 1724 1728 1732 1736 1740 1744 1748 1752 1756 1760 1764 1768 1772 1776 1780 1784 1788 1792 1796 1800 1804 1808 1812 1816 1820 1824 1828 1832 1836 1840 1844 1848 1852 1856 1860 1864 1868 1872 1876 1880 1884 1888 1892 1896 1900 1904 1908 1912 1916 1920 1924 1928 1932 1936 1940 1944 1948 1952 1956 1960 1964 1968 1972 1976 1980 1984 1988 1992 1996 2000 2004 2008 2012 2016 2020 2024 2028 2032 2036 2040 2044 2048 2052 2056 2060 2064 2068 2072 2076 2080 2084 2088 2092 2096 2100 2104 2108 2112 2116 2120 2124 2128 2132 2136 2140 2144 2148 2152 2156 2160 2164 2168 2172 2176 2180 2184 2188 2192 2196 2200 2204 2208 2212 2216 2220 2224 2228 2232 2236 2240 2244 2248 2252 2256 2260 2264 2268 2272 2276 2280 2284 2288 2292 2296 2300 2304 2308 2312 2316 2320 2324 2328 2332 2336 2340 2344 2348 2352 2356 2360 2364 2368 2372 2376 2380 2384 2388 2392 2396 2400 2404 2408 2412 2416 2420 2424 2428 2432 2436 2440 2444 2448 2452 2456 2460 2464 2468 2472 2476 2480 2484 2488 2492 2496 2500 2504 </DataArray>
<DataArray  type="UInt8"  Name="types"  format="ascii">10 10 10 10 10 10 10 10 10 10 10 10 10 10 10 10 10 10 10 10 10 10 10 10 10 10 10 10 10 10 10 10 10 10 10 10 10 10 10 10 10 10 10 10 10 10 10 10 10 10 10 10 10 10 10 10 10 10 10 10 10 10 10 10 10 10 10 10 10 10 10 10 10 10 10 10 10 10 10 10 10 10 10 10 10 10 10 10 10 10 10 10 10 10 10 10 10 10 10 10 10 10 10 10 10 10 10 10 10 10 10 10 10 10 10 10 10 10 10 10 10 10 10 10 10 10 10 10 10 10 10 10 10 10 10 10 10 10 10 10 10 10 10 10 10 10 10 10 10 10 10 10 10 10 10 10 10 10 10 10 10 10 10 10 10 10 10 10 10 10 10 10 10 10 10 10 10 10 10 10 10 10 10 10 10 10 10 10 10 10 10 10 10 10 10 10 10 10 10 10 10 10 10 10 10 10 10 10 10 10 10 10 10 10 10 10 10 10 10 10 10 10 10 10 10 10 10 10 10 10 10 10 10 10 10 10 10 10 10 10 10 10 10 10 10 10 10 10 10 10 10 10 10 10 10 10 10 10 10 10 10 10 10 10 10 10 10 10 10 10 10 10 10 10 10 10 10 10 10 10 10 10 10 10 10 10 10 10 10 10 10 10 10 10 10 10 10 10 10 10 10 10 10 10 10 10 10 10 10 10 10 10 10 10 10 10 10 10 10 10 10 10 10 10 10 10 10 10 10 10 10 10 10 10 10 10 10 10 10 10 10 10 10 10 10 10 10 10 10 10 10 10 10 10 10 10 10 10 10 10 10 10 10 10 10 10 10 10 10 10 10 10 10 10 10 10 10 10 10 10 10 10 10 10 10 10 10 10 10 10 10 10 10 10 10 10 10 10 10 10 10 10 10 10 10 10 10 10 10 10 10 10 10 10 10 10 10 10 10 10 10 10 10 10 10 10 10 10 10 10 10 10 10 10 10 10 10 10 10 10 10 10 10 10 10 10 10 10 10 10 10 10 10 10 10 10 10 10 10 10 10 10 10 10 10 10 10 10 10 10 10 10 10 10 10 10 10 10 10 10 10 10 10 10 10 10 10 10 10 10 10 10 10 10 10 10 10 10 10 10 10 10 10 10 10 10 10 10 10 10 10 10 10 10 10 10 10 10 10 10 10 10 10 10 10 10 10 10 10 10 10 10 10 10 10 10 10 10 10 10 10 10 10 10 10 10 10 10 10 10 10 10 10 10 10 10 10 10 10 10 10 10 10 10 10 10 10 10 10 10 10 10 10 10 10 10 10 10 10 10 10 10 10 10 10 10 10 10 10 10 10 10 10 10 10 10 10 10 10 10 10 10 10 10 10 10 10 10 10 10 10 10 10 10 10 10 10 10 10 10 10 10 10 10 10 10 </DataArray>
</Cells>
<CellData  Scalars="f">
<DataArray  type="Float64"  Name="f"  format="ascii">2 2 2 2 2 2 2 3 3 2 2 2 2 2 2 3 3 2 3 3 2 2 2 2 2 2 3 2 2 3 3 3 3 3 3 2 3 3 2 2 2 3 3 2 3 2 3 2 3 2 3 2 2 2 2 3 2 2 2 2 3 2 2 2 2 2 3 3 2 2 2 2 3 2 3 2 2 2 2 2 3 2 3 2 2 2 3 2 2 2 2 2 2 2 2 2 2 2 3 3 3 3 2 2 2 3 2 2 2 2 2 2 3 3 3 3 3 2 3 3 2 3 3 3 2 3 2 2 2 2 3 2 2 2 2 2 2 2 2 3 3 2 3 2 3 3 2 2 2 3 2 2 2 2 2 2 3 3 3 3 2 3 3 3 2 2 2 3 2 3 3 2 3 3 3 2 2 3 2 3 2 3 2 2 2 3 3 2 2 2 2 2 2 3 3 2 2 2 2 2 2 3 2 2 2 3 3 2 2 2 2 2 2 2 2 2 2 2 2 2 2 3 3 2 2 3 3 3 3 2 2 2 2 3 2 2 2 3 3 2 2 2 3 2 2 2 2 2 3 3 3 3 2 3 3 3 2 3 2 3 2 2 2 3 2 2 2 2 3 2 2 2 2 2 2 2 2 3 2 3 2 3 2 2 2 3 3 2 2 2 2 3 3 3 2 2 3 2 2 2 3 3 2 3 2 2 2 3 2 2 2 3 2 2 3 3 2 2 2 2 3 3 3 2 3 2 2 3 3 3 3 2 2 3 3 2 3 2 2 2 2 3 3 2 2 2 2 3 2 2 2 3 3 3 2 2 2 3 2 2 3 3 2 3 2 2 2 2 2 2 2 2 3 2 2 2 2 3 3 2 2 2 2 2 2 2 2 3 3 2 2 3 2 2 2 2 3 3 3 3 2 2 3 3 3 3 3 2 3 3 3 3 2 3 3 2 2 3 3 2 2 2 2 2 2 2 2 2 2 2 2 2 2 2 2 2 2 3 3 2 2 2 2 2 2 2 2 2 2 2 2 3 3 2 2 2 2 2 2 2 2 2 2 3 2 2 3 3 3 2 3 2 2 3 3 3 3 2 2 2 2 2 2 2 2 2 2 2 3 2 2 3 3 3 3 3 2 3 3 3 3 2 2 2 2 2 3 3 3 2 2 2 2 2 2 2 3 3 3 3 3 3 3 3 2 2 2 2 2 2 2 2 3 2 3 3 2 2 2 3 3 2 3 3 3 2 2 3 2 2 2 2 2 2 2 2 3 2 3 3 3 3 2 2 2 2 3 3 3 3 2 3 3 3 3 3 3 3 3 3 3 2 2 3 2 2 3 3 3 3 3 3 2 2 2 2 2 2 2 2 2 2 2 2 2 2 2 3 3 2 3 3 3 3 3 3 3 2 2 2 2 2 3 3 2 2 </DataArray>
</CellData>
</Piece>
</UnstructuredGrid>
</VTKFile>