<?xml version="1.0"?>
<VTKFile type="UnstructuredGrid"  version="0.1"  >
<UnstructuredGrid>
<Piece  NumberOfPoints="27" NumberOfCells="55">
<Points>
<DataArray  type="Float64"  NumberOfComponents="3"  format="ascii">1.63380507737217 -0.4378909949413543 0.3325167026671486  1.970041898255386 -0.3041697115023912 0.6834035408271888  1.659758281800898 -0.09114527595580398 0.2929982176124458  1.65659855429246 0.01793192137783933 0.7080773934678531  1.2560895533838 0.3755624603121517 0.2715940152176433  1.689400724141101 0.2795524307698475 0.3175238567445141  1.312522086149463 0.04418798656386991 0.5971271750425831  1.970041898255386 -0.3041697115023916 0.3779916813090995  1.985003145680571 -0.1522656171833129 0  1.999999999999999 6.968165638565067e-15 0.3985444447641837  1.423022926932872 -0.4566516368323163 0  1.94213932981897 -0.4542368280538477 0  0.9884711682419383 -0.1170541932096764 0  1.491495225062903 4.288236432614667e-15 0  1.351750146639622 0.2133536864420462 0  1.337709745385502 -0.2253252951812511 0.3203539436913537  1.985003145680569 0.1522656171833267 0  1.421903329894547 -0.3657283814218122 0.6899689842777004  0.9807852804032301 0.1950903220161294 0  1.182176736733822 -0.5334086362333482 0.3192335765166306  1.970041898255384 0.3041697115024052 0.5247613097723676  0.9053975484695387 -0.4172607924959917 0  1.989245257061672 0.1091947375277718 0.997252531244357  1.942139329818966 0.4542368280538605 0  0.996129164700061 0.03930125034265267 0.4203233659115466  1.902692536685929 -0.5842754777728641 0.5306976110681447  1.853310845304716 -0.7470650978668609 0  </DataArray>
</Points>
<Cells>
<DataArray  type="UInt32"  Name="connectivity"  format="ascii">0 1 2 3  2 4 5 6  2 7 8 9  2 8 10 11  12 13 14 15  2 5 9 16  0 2 17 15  18 12 14 15  0 2 7 11  0 19 17 15  1 3 7 9  5 9 20 16  0 2 10 15  2 3 5 9  0 2 3 17  10 12 15 21  1 3 9 22  2 3 7 9  2 3 17 15  1 2 3 7  0 2 10 11  2 3 5 6  2 8 9 16  5 20 23 16  5 13 14 16  4 6 15 24  5 14 23 16  0 1 2 7  3 9 22 20  0 19 10 15  19 10 15 21  10 12 13 15  2 8 10 13  2 7 8 11  18 12 15 24  3 5 9 20  2 4 6 13  4 6 13 15  0 7 11 25  0 1 17 25  0 11 26 25  0 1 7 25  0 1 3 17  0 10 11 26  2 10 13 15  2 5 13 14  2 5 13 16  2 8 13 16  2 4 5 14  2 4 13 14  4 13 14 15  4 18 14 15  4 18 15 24  2 3 6 15  2 6 13 15  </DataArray>
<DataArray  type="UInt32"  Name="offsets"  format="ascii">4 8 12 16 20 24 28 32 36 40 44 48 52 56 60 64 68 72 76 80 84 88 92 96 100 104 108 112 116 120 124 128 132 136 140 144 148 152 156 160 164 168 172 176 180 184 188 192 196 200 204 208 212 216 220 </DataArray>
<DataArray  type="UInt8"  Name="types"  format="ascii">10 10 10 10 10 10 10 10 10 10 10 10 10 10 10 10 10 10 10 10 10 10 10 10 10 10 10 10 10 10 10 10 10 10 10 10 10 10 10 10 10 10 10 10 10 10 10 10 10 10 10 10 10 10 10 </DataArray>
</Cells>
<CellData  Scalars="f">
<DataArray  type="Float64"  Name="f"  format="ascii">3 2 3 2 2 3 2 2 3 2 3 3 2 3 2 2 3 3 2 3 2 2 3 3 2 2 2 3 3 2 2 2 2 3 2 3 2 2 3 2 3 3 2 2 2 2 2 2 2 2 2 2 2 2 2 </DataArray>
</CellData>
</Piece>
</UnstructuredGrid>
</VTKFile>