<?xml version="1.0"?>
<VTKFile type="UnstructuredGrid"  version="0.1"  >
<UnstructuredGrid>
<Piece  NumberOfPoints="25" NumberOfCells="54">
<Points>
<DataArray  type="Float64"  NumberOfComponents="3"  format="ascii">0.1589483431240235 -1.747870522203138 2.69586629638434  0.2946705332933404 -1.970977485647935 2.604543857138447  0.1427490161093654 -1.985940449075534 3  -0.01906661464928165 -1.998122102365922 2.610717809370299  -0.2692661782052067 -1.30707326254948 2.725938409516953  -0.4661008678108942 -1.421230556846709 3  -0.006483297213640909 -1.49224073078184 3  -0.2597529738600309 -1.608587657233585 3  0.4450859446221999 -1.944915219960037 3  0.08506998043270131 -1.550401618887115 2.516743328284348  0.4307402755318971 -1.596714692926355 2.540288253336501  0.2111965712192294 -1.657578762555701 2.226202535386112  -0.4235675924273373 -1.68416512920486 2.651495969977106  -0.4633877114855078 -1.939363439677898 3  -0.1154404499278785 -1.712706785740137 2.692501799807543  -0.1617822182572747 -1.984065842285606 3  0.3350208444374065 -1.967003326877458 2.253272772226712  -0.009603095190208716 -1.999054177678143 2.180868353570683  -0.3136803525280127 -1.969105181873942 2.503169170697451  0.246382463424065 -1.615116786199089 3  0.2758048264117831 -1.271826340920732 2.659392961480815  -0.1397771848346633 -1.729954020531203 2.339033044469641  0.4530074376641818 -1.426915595940797 2.237640096430802  0.4486295320384649 -1.429519901558441 3  -0.08343158218106622 -1.258718650314781 2.406550114037556  </DataArray>
</Points>
<Cells>
<DataArray  type="UInt32"  Name="connectivity"  format="ascii">0 1 2 3  4 5 6 7  0 1 2 8  0 9 10 11  12 13 7 14  13 7 14 15  3 16 11 17  12 13 18 15  0 2 8 19  20 4 6 9  12 13 14 15  0 8 10 19  0 1 8 10  12 4 5 7  12 18 21 14  0 6 9 14  22 9 10 11  0 1 10 11  0 2 3 14  0 2 6 19  20 6 23 19  3 21 11 17  6 7 14 15  12 4 7 14  0 2 6 14  12 5 13 7  3 18 21 17  3 18 21 14  2 6 14 15  20 0 9 10  20 22 9 10  2 3 14 15  3 18 14 15  12 18 14 15  4 6 9 14  4 6 7 14  20 0 6 9  20 0 6 19  20 22 24 9  20 4 24 9  4 24 9 14  0 1 3 11  8 10 23 19  20 0 10 19  20 10 23 19  0 21 9 11  0 3 21 11  0 3 21 14  0 21 9 14  21 24 9 14  4 21 24 14  12 4 21 14  1 16 10 11  1 3 16 11  </DataArray>
<DataArray  type="UInt32"  Name="offsets"  format="ascii">4 8 12 16 20 24 28 32 36 40 44 48 52 56 60 64 68 72 76 80 84 88 92 96 100 104 108 112 116 120 124 128 132 136 140 144 148 152 156 160 164 168 172 176 180 184 188 192 196 200 204 208 212 216 </DataArray>
<DataArray  type="UInt8"  Name="types"  format="ascii">10 10 10 10 10 10 10 10 10 10 10 10 10 10 10 10 10 10 10 10 10 10 10 10 10 10 10 10 10 10 10 10 10 10 10 10 10 10 10 10 10 10 10 10 10 10 10 10 10 10 10 10 10 10 </DataArray>
</Cells>
<CellData  Scalars="f">
<DataArray  type="Float64"  Name="f"  format="ascii">3 2 3 2 3 3 3 3 3 2 3 3 3 2 3 2 2 3 3 2 2 3 2 2 2 2 3 3 2 2 2 3 3 3 2 2 2 2 2 2 2 3 2 2 2 2 3 3 2 2 2 2 3 3 </DataArray>
</CellData>
</Piece>
</UnstructuredGrid>
</VTKFile>