<?xml version="1.0"?>
<VTKFile type="UnstructuredGrid"  version="0.1"  >
<UnstructuredGrid>
<Piece  NumberOfPoints="176" NumberOfCells="644">
<Points>
<DataArray  type="Float64"  NumberOfComponents="3"  format="ascii">0.3808210433871149 -1.763882641155164 0.817384939724187  0.3085523311331526 -1.969610247897571 0.6877920714727481  0.4909769421302074 -1.93099433805855 0.7575947101728453  0.4013802327098077 -1.958173202723359 1  -0.478103915917917 -1.622351537092959 0.6977077997690853  -0.7019581915565072 -1.428580415300582 0.6030955109277132  -0.5009139441539338 -1.349251873811594 0.5222432048981768  -0.600331598708143 -1.59479459233563 0.5327841362643094  -0.391399680066276 -1.237628786651703 0.6919365007968804  -0.2590693906238568 -1.20275231542913 0.4440646667880484  -0.0283024105191868 -1.319764063833097 0.6643409374643552  -0.3013774395956234 -1.46260667850183 0.4980611061261317  0.509899363520301 -1.411274404689723 0.7930410904030668  0.3070347646120418 -1.231266475456671 1  0.4006956025444619 -1.24843802094553 0.6812500201025888  0.2057664659883401 -1.423434689071494 0.7640294242581815  0.2382892175692876 -1.471591899036973 0.4955209781265861  0.2441482264665806 -1.68711095498594 0.2543611194868012  0.1435408183010254 -1.450724164001282 0.2140138195018315  0.364943845569369 -1.449405072691717 0.2215112330483742  0.2062702119573308 -1.209832294552009 0.5069451591351182  -0.03861139831730298 -1.305902836371665 0.3300992328426874  -0.05411455619544295 -1.180335689722473 0.5033519982168086  -0.2895078849523348 -0.9521440258122447 0.5362539270910905  -0.1357582835267979 -0.9866289761380859 0.6952505369826913  0.580573651550607 -1.903815473393742 1  -0.3199640933144202 -0.9429052360103518 0.2421718464526027  -0.2125504397148364 -1.162691776221664 0.1975610850782581  -0.1357582835267979 -0.9866289761380859 0.3047494630173088  -0.4351952344254975 -1.947915534096728 0.6879022171241533  -0.2402120605469595 -1.711293099448459 0.5951721536062687  -0.4600007231585856 -1.741224516301115 0.839054333966232  0.2714449589252247 -1.737958397311344 0.5450653594799665  0.1950572695963902 -1.642354837545477 0.8022942540786289  0.03120277905539251 -1.811956316928485 0.8125929633736308  -0.4440833295236094 -1.71425197172058 0.4678594158892408  -0.4183657802379684 -1.953020693211437 0.408732946950341  -0.5813842162651643 -1.903569591275731 0.523429982291165  -0.3808198010052772 -1.790558406603984 0.1504571686824595  -0.5815907792414369 -1.730327197418943 0.1999992988745308  -0.5077763251465293 -1.9258983009339 0  -0.4183657802379701 -1.953020693211436 0.2277978856468753  -0.07500943433028509 -1.474435204751512 0.1919497770721977  -0.3137778112923204 -1.68608512553939 0.2678397090627448  -0.03520767882359688 -1.640567625407656 0.3320536221747551  -0.1566368448175122 -1.793720957643859 0.18398156279419  0.05030182414384535 -1.803661568783909 0.2036923702794375  -0.03543509394030583 -1.764333212356711 0  0.2713321621710769 -0.9576575710401055 0.4639489892092016  0.2407869516577543 -0.9669233593494102 0.2422811437659894  0.05343103384430749 -0.9947375024938501 0.5  -0.2014555392941981 -1.478248236877164 1  0.003668755892212508 -1.493215934204981 0.787439376260352  -0.02232178777519556 -1.473130981466516 1  -0.154369246248236 -1.699740344597331 0.7947821971961868  0.1007019071959621 -1.603439299358557 1  -0.9480652577231136 -1.538949907681568 0.8061489537317872  -0.6368272338775195 -1.693027353228223 0.8099549854831261  -0.6846365793693017 -1.619799801115259 1  -0.87374366514047 -1.789830458324557 1  -0.3199640933144202 -0.9429052360103518 0.7578281535473974  -0.2659591891699546 -1.1284900652415 0.7985766483770914  -0.590119815534959 -1.900919676207915 0.3182654162986099  0.05343103384430752 -0.9947375024938501 0.7658315521872422  0.5834852897946156 -1.717308399664762 0.1887386398541893  0.397761442467862 -1.76067971301323 0.1654331644783746  0.5973730345669322 -1.89871943626909 0  0.5007099757113176 -1.928041854600282 0.3180605671254946  -0.01611705518357669 -1.173434577098943 0.1859369354259534  0.07154606132155185 -1.321715210143045 0  0.1477956984970681 -0.9854433942448714 0  0.1801353948751905 -1.193599542703115 0.2007384199400539  -0.7677466476962631 -1.430304235837895 0.8149664493944945  -0.5616060024380179 -1.386687091185208 0.8148643367043878  0.04801221851458279 -0.9952712092202078 0.2405432884014712  0.2407869516577542 -0.9669233593494104 0.7577188562340107  0.4037512339627746 -1.080144681274499 0.7916997388280334  0.4195556527163921 -0.9041709201262842 0.6951876610204601  0.3315216749971926 -0.9393992819363619 1  -0.7219618228038823 -1.307247678942268 1  -0.424931754213151 -1.254338206796035 1  -0.5126054700643949 -1.558802044544336 1  -0.7773345907527112 -1.628786731198925 0.6526384974201469  0.2154728929730389 -1.978777772385657 1  -0.2495643282831916 -1.975420059079501 0.523296014419804  -0.2558928613726579 -1.974796752974326 0.7590571066826004  0.1565705466232291 -1.98457914713868 0.5229942139642612  0.1475013517951027 -1.985472384864622 0.3180605671254942  0.04828442375762464 -1.791526417147052 0.4778949596205868  0.3259282302928228 -1.967898871204743 0.4084490649969672  0.1222954257414549 -1.987954951894562 0.7650725853231248  -0.1841632852949054 -1.481781513248469 0  -0.4201509119839557 -1.525914389044415 0.189673720245272  -0.2066708202968356 -1.710304351128139 0  -0.2063280620574955 -1.495866829825451 0.7392619680215531  -0.2831750095673835 -1.332000524373365 0.8438495817462545  0.1630944082857211 -1.206736717024586 0.8238329233967183  -0.4925834195271322 -1.072587773108498 0.7942257610232533  0.2828443174131989 -1.737656437702833 1  -0.3883412669983054 -1.709972901898877 0  -0.1591006558617752 -1.799092254611054 0.4138410682020805  -0.04681361121901211 -1.995389261734823 0.4985223211824886  0.4780196499422931 -1.718624147876173 0.4860276821231871  -0.2291981602613921 -0.9704387807865139 0  -0.4224459877560165 -1.246963081678484 0  -0.1715341369901447 -1.250280438524388 0  -0.06985643973039744 -1.505194664433397 0.523152896576856  -0.6681267201658774 -1.099552128393463 0.6661740090429282  -0.8234030488632201 -1.227864263700687 0.7971660546693747  -0.4956491309591998 -1.563380666785781 0  -0.570561261929752 -1.566210270682464 0.3269063393272681  -0.06425241373943445 -1.993671689601718 0.729857195431886  -0.04138279557917732 -0.9959241503885642 0  0.07147491772190356 -1.320431062428882 1  0.4566179955496571 -1.609390190456626 0.6989686505589768  -0.7913424350245954 -1.833874833437536 0.7298481380810278  -0.703769127003654 -1.86644453447963 1  -0.6141724175832546 -1.893623399144439 0.7648375940174668  0.5038238211581905 -1.074271211065006 0.5112063182307277  0.384799343308686 -1.090040125494568 0.2000785832607395  0.3833720884367542 -1.248266169376449 0.3125100964111098  -0.07109493962348024 -1.160016603803898 0.7913171746870674  -0.2070688864027299 -1.749288561046629 1  -0.3435919104164638 -1.966159150560913 1  -0.1572369759532961 -1.984513509578723 1  -0.4792183519131534 -1.094876157717112 0.5312084515566817  -0.4088784021612257 -0.9098780294493575 1  -0.2291981602613921 -0.9704387807865139 1  0.1055482849989484 -1.63881390081868 0  0.04658873361579337 -1.995411410245547 0  -0.3004712434665469 -1.361497103422282 0.2311894560585964  -0.3577107155310289 -1.419581028094554 0  -0.1397662008473739 -1.986234230736643 0  -0.8300753132502592 -1.509513793106689 1  -0.1714146569792246 -1.249399926207965 1  -0.5229419073512893 -1.071131864134972 0.1858598554011229  -0.5521062382202796 -1.211666613348794 0.3442023460192692  -0.7757759682717937 -1.842195283264316 0.4985126599772499  -0.7840616717201718 -1.583902828399041 0.4377923672640045  0.4296356271564918 -1.668302941522659 0  0.2329436680789611 -1.977057051227738 0  0.4181796157261328 -1.953077165598708 0  -0.2405080359740243 -1.976312026018243 0.3182654162986064  -0.04681361121901163 -1.995389261734823 0.2684782053199095  0.3259282302928228 -1.967898871204743 0.2276720692540216  -0.5245757081628545 -1.920802263809248 1  0.4437787684872145 -1.472384709319954 1  0.6936374543645428 -1.490116486267707 0  0.617899748202294 -1.653792821188109 0  0.3625909582016644 -1.44728628771407 0  0.6027785381133539 -1.359332156263882 0.2124371689903601  -0.3745805923603168 -1.706049989398783 1  0.3050541620145898 -1.223363442299307 0  0.5587472371219874 -1.203112900522971 0  0.02911795850987068 -1.997132131403467 1  0.02102039698148424 -1.670231480651327 0.6665040657880474  -0.5554583074974289 -1.700068917560503 1  -0.3793482891095545 -1.432319692681395 1  -0.6869697439873288 -1.871540571604282 0  -0.7580030332512193 -1.620602597475575 0.200800306043187  -0.04382570390722906 -1.692004976314984 1  -0.04138279557917732 -0.9959241503885642 1  -0.775775968271794 -1.842195283264316 0.2684499835474483  0.1477956984970681 -0.9854433942448714 1  0.1011187221479815 -1.772944272062136 1  0.5105785823554512 -1.583270420542069 0.3212501110323914  0.4598397724961487 -1.407027747603131 0.4646693967668116  0.2622963428434327 -1.552259734357269 1  -0.7625848589994415 -1.249272832911995 0.4545509433042903  -0.3261211353105415 -1.967879871718833 0  0.49198228108192 -1.930689371821647 0.5229837268563096  -0.670056525276606 -1.377886873936386 0.2250212001955873  -0.6240956319681428 -1.097419055583654 1  0.4999697403346577 -1.076876380065217 0  -0.5391031786369436 -1.386651023185445 0  0.3315216749971926 -0.9393992819363619 0  </DataArray>
</Points>
<Cells>
<DataArray  type="UInt32"  Name="connectivity"  format="ascii">0 1 2 3  4 5 6 7  8 9 10 11  12 13 14 15  16 17 18 19  10 20 21 22  9 22 23 24  0 2 3 25  26 9 27 28  4 29 30 31  1 32 33 34  29 35 36 37  38 39 40 41  11 42 43 44  44 45 46 47  20 48 49 50  51 52 53 54  15 33 52 55  56 57 58 59  8 23 60 61  7 35 37 62  22 24 50 63  64 65 66 67  68 69 70 71  57 58 72 73  23 24 60 61  68 70 71 74  75 76 77 78  73 79 80 81  4 5 7 82  0 1 3 83  29 30 84 85  86 87 88 89  0 34 83 90  43 91 92 93  8 10 94 95  10 20 63 96  4 57 73 81  16 18 20 21  8 61 80 97  0 98 3 25  38 43 92 99  29 35 36 84  30 84 100 101  102 65 67 89  103 27 104 105  44 46 88 100  38 39 92 99  4 5 57 82  49 70 71 74  15 16 52 106  107 108 73 97  11 44 100 106  17 44 46 88  109 39 40 99  86 87 88 101  5 6 7 110  86 88 90 111  103 27 105 112  13 15 96 113  15 52 96 113  32 86 88 89  14 15 16 114  30 84 101 111  30 88 101 111  8 107 73 97  22 23 24 50  5 57 72 82  57 59 115 116  57 115 116 117  48 118 119 120  8 73 80 97  20 22 50 74  10 52 95 121  103 27 28 112  20 22 50 63  31 54 122 123  54 85 111 124  8 9 23 125  8 23 60 125  61 80 126 127  46 47 128 129  91 92 130 131  46 47 129 132  10 96 113 121  42 44 46 47  133 56 58 59  17 102 65 89  9 11 21 130  61 80 127 134  31 54 85 123  42 43 91 93  12 14 15 114  0 1 32 33  15 52 53 113  135 104 130 136  7 137 138 110  8 60 61 97  54 85 123 124  65 139 140 141  20 48 49 120  100 101 142 143  17 65 89 144  29 31 117 145  12 146 13 15  147 148 149 150  4 29 31 117  51 54 122 151  4 7 11 35  36 41 43 142  26 9 23 125  30 35 84 100  17 18 44 46  135 9 27 136  20 49 71 120  87 88 101 143  19 150 152 153  34 111 124 154  16 18 19 120  0 32 33 114  0 1 33 90  4 29 30 35  34 83 90 154  16 17 18 44  20 49 50 74  11 21 42 106  34 52 54 155  18 68 69 71  31 145 151 156  45 46 100 143  51 53 95 134  38 43 93 99  18 20 21 71  46 129 132 143  46 87 129 143  43 92 93 99  27 28 68 112  17 18 46 128  4 73 81 157  91 105 130 131  4 31 57 81  20 50 63 75  5 107 108 73  28 68 74 112  1 33 34 90  30 88 111 155  18 21 68 71  20 48 118 120  17 87 88 89  38 43 45 142  15 16 52 155  57 116 145 156  11 35 43 110  109 158 159 39  16 18 44 106  52 54 94 155  73 80 81 157  69 70 71 152  24 61 121 127  7 35 62 110  34 124 154 160  91 92 99 131  6 8 107 125  10 15 16 20  121 127 134 161  7 37 62 137  60 61 126 127  57 58 59 116  4 5 57 73  39 62 110 162  57 58 81 156  54 122 123 124  35 38 39 43  58 72 73 79  133 56 58 72  4 37 57 117  38 41 43 142  7 82 137 138  10 16 20 21  51 54 122 160  8 61 80 95  9 22 24 61  57 58 116 156  4 6 7 11  51 94 151 157  19 148 149 150  14 20 48 118  31 54 122 151  52 53 95 134  57 59 82 115  20 49 71 74  31 57 117 145  14 20 118 120  9 23 24 61  52 53 55 160  12 146 15 114  15 33 52 155  104 105 130 131  63 96 121 161  8 73 80 95  63 96 161 163  64 65 66 139  31 81 151 157  34 52 55 160  13 14 15 96  24 121 127 161  58 73 79 81  30 31 54 85  32 86 88 90  34 154 160 164  11 30 35 43  21 68 71 74  52 94 106 155  8 10 61 95  135 103 27 104  56 57 72 82  64 165 148 150  12 14 114 166  0 98 3 83  146 0 98 167  10 15 52 106  0 2 114 102  13 15 113 167  18 20 71 120  57 116 117 145  20 48 50 75  34 52 54 160  4 29 35 37  5 6 107 168  34 83 154 164  37 82 115 117  4 11 30 35  31 81 151 156  68 70 74 112  135 103 26 27  0 1 83 90  38 40 99 169  8 10 11 94  64 165 148 139  44 88 100 106  31 57 81 156  8 107 97 125  1 32 89 170  10 15 16 106  133 58 72 79  30 88 100 106  5 57 72 73  109 159 39 110  38 43 45 93  158 39 40 62  18 42 44 128  17 65 140 144  10 22 63 121  48 49 119 120  51 52 54 94  62 137 110 162  21 27 28 68  6 107 168 125  33 34 55 164  146 0 114 167  96 113 121 161  17 32 88 89  16 52 106 155  147 149 150 153  120 150 152 153  84 100 101 142  8 9 23 61  16 18 20 120  158 159 39 162  14 16 114 166  135 26 9 27  22 24 63 121  119 120 152 153  17 18 19 149  159 138 110 171  16 17 44 88  42 45 47 93  11 30 43 100  103 26 27 28  24 63 121 161  17 87 89 144  37 57 82 117  42 43 44 45  4 31 94 157  65 66 67 141  10 16 21 106  4 8 73 94  38 39 40 99  57 58 73 81  17 46 128 140  11 43 92 130  45 132 142 143  0 33 34 90  5 6 168 171  14 15 20 96  10 15 20 96  14 15 16 20  20 63 75 96  14 20 75 96  19 166 120 150  32 33 34 155  39 40 41 62  4 31 57 117  86 88 101 111  29 31 123 145  17 19 65 139  19 65 165 139  137 138 110 162  30 84 85 111  4 31 81 157  42 43 92 130  172 73 80 97  18 19 71 120  27 68 105 112  80 95 134 157  146 15 114 167  14 166 118 120  135 27 104 130  135 27 130 136  4 29 37 117  16 19 166 120  45 46 132 143  45 132 142 169  51 53 54 160  18 21 44 106  9 11 21 106  11 30 94 106  9 21 27 130  11 21 42 130  16 18 21 106  15 55 113 167  17 128 139 149  31 94 151 157  42 47 91 128  11 42 44 106  17 65 128 139  38 41 142 169  32 34 88 90  46 87 140 144  19 149 152 153  19 149 150 153  119 152 153 173  119 120 150 153  6 7 11 110  7 62 137 110  5 7 138 110  29 30 35 84  104 130 131 174  65 67 89 144  11 42 43 130  13 78 96 163  63 75 96 163  96 113 161 163  13 96 113 163  135 26 9 136  31 57 145 156  109 39 92 99  92 130 131 174  42 43 91 92  5 7 82 138  38 93 99 169  31 123 145 151  71 119 120 152  17 46 87 88  158 39 62 162  108 72 73 79  5 108 72 73  34 88 90 111  107 108 172 97  18 69 71 152  38 45 93 169  1 32 86 89  1 32 86 90  35 36 43 100  30 88 100 101  0 1 2 32  0 2 32 170  1 2 32 170  9 27 130 136  52 95 121 134  4 73 95 157  4 94 95 157  73 80 95 157  104 130 174 171  52 53 54 160  16 44 88 106  51 54 94 151  10 63 96 121  56 57 59 82  9 10 11 106  27 104 105 130  57 82 115 117  15 52 53 55  26 9 23 28  10 20 22 63  102 67 89 170  172 80 97 126  31 54 94 151  10 52 94 95  109 92 99 131  19 148 139 149  104 130 136 171  45 46 47 132  4 6 8 11  6 8 107 73  4 31 54 94  4 30 31 54  61 121 127 134  24 60 61 127  16 19 166 165  146 13 15 167  17 46 140 144  4 8 11 94  4 11 30 94  18 69 149 152  18 69 128 149  17 18 128 149  10 11 94 106  30 94 106 155  51 95 134 157  33 34 52 155  172 73 79 80  17 46 87 144  46 87 129 140  46 128 129 140  18 44 46 128  20 22 71 74  65 140 141 144  30 35 43 100  34 55 160 164  34 90 111 154  1 32 34 90  5 138 110 171  11 30 100 106  8 73 94 95  108 172 73 97  51 52 53 95  51 52 94 95  4 73 94 95  109 158 39 40  13 14 76 96  51 94 95 157  7 37 82 137  113 121 134 161  19 166 165 150  17 19 139 149  109 159 110 171  43 45 100 142  44 45 46 100  43 44 45 100  46 88 100 143  88 100 101 143  11 43 44 100  65 128 139 140  16 17 19 165  19 165 148 139  19 165 148 150  19 120 150 152  49 71 119 120  68 69 70 112  68 69 105 112  159 39 138 110  159 39 138 162  39 138 110 162  108 172 73 79  10 15 52 96  6 168 136 171  6 110 130 136  6 110 136 171  5 6 107 73  4 5 6 73  5 6 110 171  65 66 139 141  18 19 71 152  18 19 149 152  35 39 43 110  35 36 41 62  35 36 41 43  35 36 37 62  35 39 62 110  38 40 41 169  20 21 22 71  64 66 148 139  64 147 148 150  8 60 97 125  7 11 35 110  45 47 93 132  4 6 8 73  16 20 166 120  14 20 166 120  14 16 20 166  30 54 85 111  26 9 125 136  14 75 76 96  14 20 75 76  20 48 75 76  48 75 76 77  48 76 77 118  14 48 76 118  14 20 48 76  75 76 96 163  75 76 78 163  76 78 96 163  13 76 78 96  6 9 11 130  6 9 130 136  6 9 125 136  6 8 9 125  6 8 9 11  6 168 125 136  45 93 132 169  30 54 111 155  15 53 55 113  19 71 120 152  30 54 94 155  29 30 31 85  31 122 123 151  29 31 85 123  4 7 57 82  7 37 57 82  4 7 37 57  4 7 35 37  34 88 111 155  32 34 88 155  16 32 88 155  16 88 106 155  30 88 106 155  16 17 32 88  46 87 88 143  12 13 14 76  8 9 10 61  60 61 97 126  61 80 97 126  42 43 45 93  42 47 91 93  18 42 69 128  42 69 91 128  42 44 46 128  42 44 45 47  42 46 47 128  18 21 42 44  119 152 173 175  70 119 152 175  49 70 119 175  49 70 71 119  70 71 119 152  33 34 83 164  0 33 34 83  0 98 33 83  0 98 33 167  98 33 55 167  98 33 55 164  98 33 83 164  15 33 55 167  15 16 33 155  16 32 33 155  16 32 33 114  15 16 33 114  15 33 114 167  0 33 114 167  56 57 58 72  65 67 141 144  18 42 68 69  42 68 69 105  42 69 91 105  42 91 105 130  27 42 105 130  21 27 42 130  21 27 42 68  18 21 42 68  27 42 68 105  21 42 44 106  0 32 114 102  35 38 41 43  38 45 142 169  35 38 39 62  38 39 41 62  35 38 41 62  37 82 137 115  54 122 124 160  34 54 124 160  34 54 111 124  34 54 111 155  4 30 54 94  35 36 84 100  36 84 100 142  36 43 100 142  45 100 142 143  16 32 114 102  16 114 102 166  16 102 166 165  16 17 102 165  16 17 32 102  17 32 102 89  32 102 89 170  0 32 102 170  0 2 102 170  52 53 113 134  52 113 121 134  10 52 113 121  10 52 96 113  10 52 94 106  33 34 52 55  64 65 165 139  102 64 65 165  102 64 65 67  17 102 65 165  17 19 65 165  17 65 128 140  22 24 61 121  10 22 61 121  9 10 22 61  9 10 22 106  10 21 22 106  9 21 22 106  9 21 22 27  9 22 27 28  9 22 23 28  22 23 28 50  22 28 50 74  22 28 68 74  21 22 28 68  21 22 27 28  21 22 68 74  21 22 71 74  10 61 95 121  61 95 121 134  61 80 95 134  11 43 92 110  6 11 92 110  6 92 110 130  92 110 130 136  92 110 136 171  109 92 110 171  109 39 92 110  39 43 92 110  38 39 43 92  109 92 174 171  109 92 131 174  92 130 174 171  92 130 136 171  6 11 92 130  42 91 92 130  91 92 93 99  </DataArray>
<DataArray  type="UInt32"  Name="offsets"  format="ascii">4 8 12 16 20 24 28 32 36 40 44 48 52 56 60 64 68 72 76 80 84 88 92 96 100 104 108 112 116 120 124 128 132 136 140 144 148 152 156 160 164 168 172 176 180 184 188 192 196 200 204 208 212 216 220 224 228 232 236 240 244 248 252 256 260 264 268 272 276 280 284 288 292 296 300 304 308 312 316 320 324 328 332 336 340 344 348 352 356 360 364 368 372 376 380 384 388 392 396 400 404 408 412 416 420 424 428 432 436 440 444 448 452 456 460 464 468 472 476 480 484 488 492 496 500 504 508 512 516 520 524 528 532 536 540 544 548 552 556 560 564 568 572 576 580 584 588 592 596 600 604 608 612 616 620 624 628 632 636 640 644 648 652 656 660 664 668 672 676 680 684 688 692 696 700 704 708 712 716 720 724 728 732 736 740 744 748 752 756 760 764 768 772 776 780 784 788 792 796 800 804 808 812 816 820 824 828 832 836 840 844 848 852 856 860 864 868 872 876 880 884 888 892 896 900 904 908 912 916 920 924 928 932 936 940 944 948 952 956 960 964 968 972 976 980 984 988 992 996 1000 1004 1008 1012 1016 1020 1024 1028 1032 1036 1040 1044 1048 1052 1056 1060 1064 1068 1072 1076 1080 1084 1088 1092 1096 1100 1104 1108 1112 1116 1120 1124 1128 1132 1136 1140 1144 1148 1152 1156 1160 1164 1168 1172 1176 1180 1184 1188 1192 1196 1200 1204 1208 1212 1216 1220 1224 1228 1232 1236 1240 1244 1248 1252 1256 1260 1264 1268 1272 1276 1280 1284 1288 1292 1296 1300 1304 1308 1312 1316 1320 1324 1328 1332 1336 1340 1344 1348 1352 1356 1360 1364 1368 1372 1376 1380 1384 1388 1392 1396 1400 1404 1408 1412 1416 1420 1424 1428 1432 1436 1440 1444 1448 1452 1456 1460 1464 1468 1472 1476 1480 1484 1488 1492 1496 1500 1504 1508 1512 1516 1520 1524 1528 1532 1536 1540 1544 1548 1552 1556 1560 1564 1568 1572 1576 1580 1584 1588 1592 1596 1600 1604 1608 1612 1616 1620 1624 1628 1632 1636 1640 1644 1648 1652 1656 1660 1664 1668 1672 1676 1680 1684 1688 1692 1696 1700 1704 1708 1712 1716 1720 1724 1728 1732 1736 1740 1744 1748 1752 1756 1760 1764 1768 1772 1776 1780 1784 1788 1792 1796 1800 1804 1808 1812 1816 1820 1824 1828 1832 1836 1840 1844 1848 1852 1856 1860 1864 1868 1872 1876 1880 1884 1888 1892 1896 1900 1904 1908 1912 1916 1920 1924 1928 1932 1936 1940 1944 1948 1952 1956 1960 1964 1968 1972 1976 1980 1984 1988 1992 1996 2000 2004 2008 2012 2016 2020 2024 2028 2032 2036 2040 2044 2048 2052 2056 2060 2064 2068 2072 2076 2080 2084 2088 2092 2096 2100 2104 2108 2112 2116 2120 2124 2128 2132 2136 2140 2144 2148 2152 2156 2160 2164 2168 2172 2176 2180 2184 2188 2192 2196 2200 2204 2208 2212 2216 2220 2224 2228 2232 2236 2240 2244 2248 2252 2256 2260 2264 2268 2272 2276 2280 2284 2288 2292 2296 2300 2304 2308 2312 2316 2320 2324 2328 2332 2336 2340 2344 2348 2352 2356 2360 2364 2368 2372 2376 2380 2384 2388 2392 2396 2400 2404 2408 2412 2416 2420 2424 2428 2432 2436 2440 2444 2448 2452 2456 2460 2464 2468 2472 2476 2480 2484 2488 2492 2496 2500 2504 2508 2512 2516 2520 2524 2528 2532 2536 2540 2544 2548 2552 2556 2560 2564 2568 2572 2576 </DataArray>
<DataArray  type="UInt8"  Name="types"  format="ascii">10 10 10 10 10 10 10 10 10 10 10 10 10 10 10 10 10 10 10 10 10 10 10 10 10 10 10 10 10 10 10 10 10 10 10 10 10 10 10 10 10 10 10 10 10 10 10 10 10 10 10 10 10 10 10 10 10 10 10 10 10 10 10 10 10 10 10 10 10 10 10 10 10 10 10 10 10 10 10 10 10 10 10 10 10 10 10 10 10 10 10 10 10 10 10 10 10 10 10 10 10 10 10 10 10 10 10 10 10 10 10 10 10 10 10 10 10 10 10 10 10 10 10 10 10 10 10 10 10 10 10 10 10 10 10 10 10 10 10 10 10 10 10 10 10 10 10 10 10 10 10 10 10 10 10 10 10 10 10 10 10 10 10 10 10 10 10 10 10 10 10 10 10 10 10 10 10 10 10 10 10 10 10 10 10 10 10 10 10 10 10 10 10 10 10 10 10 10 10 10 10 10 10 10 10 10 10 10 10 10 10 10 10 10 10 10 10 10 10 10 10 10 10 10 10 10 10 10 10 10 10 10 10 10 10 10 10 10 10 10 10 10 10 10 10 10 10 10 10 10 10 10 10 10 10 10 10 10 10 10 10 10 10 10 10 10 10 10 10 10 10 10 10 10 10 10 10 10 10 10 10 10 10 10 10 10 10 10 10 10 10 10 10 10 10 10 10 10 10 10 10 10 10 10 10 10 10 10 10 10 10 10 10 10 10 10 10 10 10 10 10 10 10 10 10 10 10 10 10 10 10 10 10 10 10 10 10 10 10 10 10 10 10 10 10 10 10 10 10 10 10 10 10 10 10 10 10 10 10 10 10 10 10 10 10 10 10 10 10 10 10 10 10 10 10 10 10 10 10 10 10 10 10 10 10 10 10 10 10 10 10 10 10 10 10 10 10 10 10 10 10 10 10 10 10 10 10 10 10 10 10 10 10 10 10 10 10 10 10 10 10 10 10 10 10 10 10 10 10 10 10 10 10 10 10 10 10 10 10 10 10 10 10 10 10 10 10 10 10 10 10 10 10 10 10 10 10 10 10 10 10 10 10 10 10 10 10 10 10 10 10 10 10 10 10 10 10 10 10 10 10 10 10 10 10 10 10 10 10 10 10 10 10 10 10 10 10 10 10 10 10 10 10 10 10 10 10 10 10 10 10 10 10 10 10 10 10 10 10 10 10 10 10 10 10 10 10 10 10 10 10 10 10 10 10 10 10 10 10 10 10 10 10 10 10 10 10 10 10 10 10 10 10 10 10 10 10 10 10 10 10 10 10 10 10 10 10 10 10 10 10 10 10 10 10 10 10 10 10 10 10 10 10 10 10 10 10 10 10 10 10 10 10 10 10 10 10 10 10 10 10 10 10 10 10 10 10 10 10 10 10 10 10 10 10 10 10 10 10 10 10 10 10 10 10 10 10 10 10 10 10 10 10 10 10 10 10 10 10 10 10 10 10 10 </DataArray>
</Cells>
<CellData  Scalars="f">
<DataArray  type="Float64"  Name="f"  format="ascii">3 2 2 2 2 2 2 3 2 3 3 3 3 2 3 2 2 2 3 2 3 2 3 2 2 2 2 2 2 3 3 3 3 3 2 2 2 2 2 2 3 3 3 3 3 2 3 3 3 2 2 2 2 3 3 3 2 3 2 2 2 3 2 3 3 2 2 3 3 3 2 2 2 2 2 2 3 3 2 2 2 3 2 3 2 2 3 3 2 2 3 2 2 3 2 2 3 2 3 3 2 3 3 3 2 2 3 2 2 3 2 3 2 2 2 3 2 3 2 3 3 3 3 2 2 2 2 2 3 3 2 3 2 3 3 3 2 2 2 2 3 2 2 2 3 3 2 2 3 3 2 3 2 3 2 2 2 2 2 3 3 2 2 2 2 3 2 3 2 3 3 3 3 2 3 3 3 3 2 2 2 2 3 2 2 2 2 3 2 3 2 3 2 2 2 2 2 2 2 2 2 3 2 2 2 2 2 3 3 3 2 2 2 2 2 3 2 2 3 2 2 3 2 2 3 2 2 3 2 3 3 2 3 2 2 3 3 2 3 2 3 2 3 2 2 2 2 3 3 3 2 3 2 2 2 3 2 2 3 2 2 3 2 2 2 3 2 2 3 2 2 2 2 2 2 2 2 2 2 2 3 3 2 2 3 2 2 3 2 3 2 3 3 2 2 2 2 2 2 2 3 3 3 3 3 2 2 3 3 2 2 2 2 2 2 2 2 2 2 3 2 3 3 2 2 2 2 2 2 2 2 2 2 2 2 3 3 3 3 2 2 2 2 2 3 3 3 2 3 2 2 2 2 2 2 3 3 2 2 3 3 3 2 3 3 2 2 3 2 2 3 3 3 3 3 3 3 3 2 2 2 2 2 2 2 2 2 2 3 2 2 3 2 2 2 3 2 2 2 2 2 2 3 2 2 2 3 2 2 2 2 3 2 2 2 2 2 2 2 2 2 2 3 3 3 2 2 3 3 3 3 3 2 2 2 2 2 2 2 3 2 2 3 2 2 2 2 3 3 3 3 3 2 3 2 2 2 2 2 2 2 3 3 3 2 2 2 2 2 2 2 2 3 2 2 3 3 3 3 3 3 2 3 2 2 2 3 2 2 2 2 3 2 2 2 2 2 2 2 2 2 2 2 2 2 2 2 2 2 2 3 3 2 2 2 3 3 3 3 3 3 3 3 3 2 2 2 2 3 2 2 2 2 2 2 2 2 2 2 2 2 2 2 2 2 2 3 3 3 2 2 3 3 2 2 2 2 2 2 2 3 3 2 2 2 2 2 2 2 2 2 2 3 3 3 3 3 3 3 3 3 3 3 2 3 3 3 3 2 2 2 2 2 3 3 3 3 2 2 2 2 2 2 3 3 3 3 2 3 2 2 2 2 2 2 2 2 2 2 2 2 2 2 2 2 2 2 2 2 2 2 2 2 2 3 3 3 2 2 2 2 2 2 2 </DataArray>
</CellData>
</Piece>
</UnstructuredGrid>
</VTKFile>