<?xml version="1.0"?>
<VTKFile type="UnstructuredGrid"  version="0.1"  >
<UnstructuredGrid>
<Piece  NumberOfPoints="28" NumberOfCells="56">
<Points>
<DataArray  type="Float64"  NumberOfComponents="3"  format="ascii">-1.002683651764804 1.113111278796196 0  -0.9738863299386127 1.29796209853297 0.3548698454754697  -1.438479480639637 1.384645455413685 0  -1.345495349846485 1.110404825705179 0.2846011875062693  -1.149563912351546 0.9506533662689182 0.4520590941616618  -1.682973576838292 1.073658829295447 0.6882383971439707  -1.196918151989004 1.252735286126914 0.6180316810739506  -1.183147165165283 1.093160462193829 0.9268828513999143  -0.8262722068337489 1.214214377293678 0.7319552811989505  -0.8565322307174396 0.9851968215745449 0.2806003666290897  -0.5487309629084373 1.168830080656482 0.2795309104015246  -1.207236813657273 1.584074990238844 0  -1.085640909602985 1.676569021482061 0.5128342442179297  -1.325295674960667 1.487186586697765 0.3953332096391693  -0.7319793474097477 0.6767994715531579 0  -0.7430821553464209 1.142840174237395 0  -0.9529143709840853 0.8722663860045278 0.7494782604831286  -1.53554315370578 1.266373027576068 0.512597756310079  -1.105204209531251 1.666112219814452 0.8046486665441992  -1.325295674960669 1.487186586697765 0.8594457826546948  -1.652789181055146 1.123508329889683 0.9820547617975177  -0.6162581739138656 0.78166430635156 0.4191414197236378  -0.4864155127577982 0.8684335803860413 0  -0.424094315044897 1.244242140113477 0  -0.6062226566438368 1.439697221576838 0.430144653775685  -0.6083507165798478 1.366724482697605 0  -0.9509039190911256 1.74858744333514 0  -0.8162735538549999 1.820548872790972 0.395726449599914  </DataArray>
</Points>
<Cells>
<DataArray  type="UInt32"  Name="connectivity"  format="ascii">0 1 2 3  0 1 3 4  4 5 6 7  8 1 9 10  0 1 2 11  12 1 6 13  1 2 3 13  8 12 1 6  0 9 14 15  8 4 16 9  4 5 6 17  8 12 6 18  8 6 7 19  1 2 11 13  6 17 20 19  8 21 9 10  1 3 4 6  5 6 17 20  8 1 4 9  4 16 6 7  6 17 13 19  10 22 15 23  6 7 20 19  3 4 6 17  12 6 13 19  2 3 17 13  24 1 10 25  8 24 1 10  1 11 15 26  12 1 11 13  12 1 11 26  0 1 11 15  1 10 15 25  10 15 25 23  8 24 12 1  24 1 25 26  24 1 27 26  12 1 27 26  24 12 1 27  1 15 25 26  1 3 6 13  8 16 21 9  8 4 16 6  8 16 6 7  3 6 17 13  8 1 4 6  21 9 10 22  21 9 22 14  9 22 14 15  9 10 22 15  1 9 10 15  0 1 9 15  0 1 4 9  5 6 7 20  8 6 19 18  12 6 19 18  </DataArray>
<DataArray  type="UInt32"  Name="offsets"  format="ascii">4 8 12 16 20 24 28 32 36 40 44 48 52 56 60 64 68 72 76 80 84 88 92 96 100 104 108 112 116 120 124 128 132 136 140 144 148 152 156 160 164 168 172 176 180 184 188 192 196 200 204 208 212 216 220 224 </DataArray>
<DataArray  type="UInt8"  Name="types"  format="ascii">10 10 10 10 10 10 10 10 10 10 10 10 10 10 10 10 10 10 10 10 10 10 10 10 10 10 10 10 10 10 10 10 10 10 10 10 10 10 10 10 10 10 10 10 10 10 10 10 10 10 10 10 10 10 10 10 </DataArray>
</Cells>
<CellData  Scalars="f">
<DataArray  type="Float64"  Name="f"  format="ascii">2 2 2 2 2 3 3 2 2 2 2 2 2 3 3 2 2 3 2 2 3 2 3 2 3 3 2 2 2 3 3 2 2 2 2 2 2 3 2 2 3 2 2 2 3 2 2 2 2 2 2 2 2 3 2 3 </DataArray>
</CellData>
</Piece>
</UnstructuredGrid>
</VTKFile>