<?xml version="1.0"?>
<VTKFile type="UnstructuredGrid"  version="0.1"  >
<UnstructuredGrid>
<Piece  NumberOfPoints="1544" NumberOfCells="7131">
<Points>
<DataArray  type="Float64"  NumberOfComponents="3"  format="ascii">-1.528407021560024 -0.1223679279972765 0.2216749016847578  -1.616367675847036 -0.370909658942107 0.1642234085509218  -1.473462720355558 -0.2879607080704417 0  -1.449009243839573 -0.3962807823147068 0.2109175911846373  -0.8781943570813444 -0.7745618986412175 1.422869427224792  -0.955217320792347 -0.9527184678834343 1.371230704081954  -0.8475093267591888 -0.822455811150119 1.17409325042948  -0.7738664993794891 -0.9627376191636698 1.304604169931725  -0.4990054364240204 -0.8617041259856751 0.2569410986845065  -0.5918748389558864 -1.085175586344858 0.2738074967758538  -0.3688491168294892 -0.9280761262489887 0.3300760424629998  -0.4922428590829268 -0.8653187988822182 0.4241280697214569  -1.515124839582729 -0.1413239192323957 2.494970903857733  -1.542304936240881 -0.3553446478043817 2.589922535598422  -1.531301083342066 -0.2469406307591743 2.349971252061232  -1.433516621472994 -0.3906533878807158 2.369608260756459  -1.790321908262559 -0.1359400023085897 1.59329122461374  -1.552447878431092 -0.1517280993030719 1.401022938033577  -1.696965121787855 0.005022563501815319 1.602685267723029  -1.553696811676687 -0.06987473143450718 1.653071467379156  -1.825713662961976 -0.3710157782818985 0.2972317067228239  -1.665736257823091 -0.5401314351128853 0.2441959424061398  -1.635345928454321 -0.300717767320218 0.3240539739491898  0.0808911091286354 -0.9920329211428032 0.2147789614275173  -0.01604060903215099 -1.16554818445953 0.1766097615666878  0.07340078397912998 -0.9927706537783795 0.3624664633421955  -0.07141739134058871 -0.9929660009027577 0.3923981418559908  -1.834659833569184 0.05411006212859725 0.6032579151883576  -1.991321199565352 0.08811733957303396 0.6811653766700074  -1.807355182189475 -0.04436722185485539 0.7456672517749947  -1.772712444186903 0.1482273834922889 0.8838650302260582  -1.472236218325768 -0.3457096418613904 0.8083840622177748  -1.654426691563033 -0.3918839033978203 0.6138030634085107  -1.740212602464505 -0.4625441539676962 0.794010716895973  -1.734128706883156 -0.2370380117725486 0.7849080115312334  -1.81721082800874 -0.3385812863725766 2.230638633143541  -1.920278857124933 -0.5263011487646481 2.363447904506016  -1.670464226322551 -0.3455012114220651 2.310981494070414  -1.741675018387468 -0.416195543983036 2.510290100107317  -0.2922497887267363 -1.110135635527742 2.213768322081968  -0.5529160698573018 -0.9829206581285101 2.138364979232225  -0.3124646235992822 -0.9451801752772526 2.303708664651847  -0.4047639178773533 -0.9120772671177818 2.090832628222699  -0.0640177889630098 -1.622806943634985 0.4704848386427511  -0.0991987408327164 -1.671655784788151 0.6749780739722862  0.06283097326430762 -1.509449355093871 0.6573880638819291  -0.1680634139028745 -1.479246799589528 0.5528175866093812  -0.4381121694463349 -1.768181673083376 1.373749359471254  -0.6181569519413839 -1.73080279357406 1.562226069681498  -0.5474151174296786 -1.593495531672433 1.420035266379063  -0.669937482616777 -1.720368809828869 1.403993151010294  -1.64003705442722 0.0006120575038251336 0.1643558607498966  -1.655506192573816 -0.133378387657026 0.3877305011138927  -1.610931325213302 0.04098210332831648 0.3790642025770452  -0.3538035913407252 -1.688325376285616 1.864154088277538  -0.3009471269582124 -1.574039224620456 1.616425447072107  -0.2229055361137948 -1.759803582351491 1.703242271650853  -0.4192183556227891 -1.608863380232063 1.731669191606972  -1.04319462230235 -0.4970354137406972 0.3728164617221355  -1.092465987312805 -0.3833352536983317 0.5694837272835773  -0.9438414498532157 -0.3168778098854057 0.3804698950467928  -1.194273581003658 -0.2432617018834167 0.4551356049000834  -1.630422137787281 -1.150762650968556 1.269576102710269  -1.517412267786211 -1.288465575991098 1.187216362134417  -1.404374990552079 -1.174817342033774 1.314283037992295  -1.515445740673501 -1.2908617962111 1.383447970304244  -1.807951600064751 0.09552313353665665 0.2813024085933347  -1.977775746008557 0.2256466375126116 0.2309004106092492  -1.991205880179936 0.0892881969421577 0.1832851866128929  -1.991205880179936 0.0892881969421576 0.3793196305737762  -1.548720799920463 -0.891842504802468 1.53036993783053  -1.670579067679387 -1.096847324960474 1.627784418669401  -1.579473314537204 -0.9283896692925009 1.698614759755494  -1.705800283093722 -1.030953065616966 1.479036981753298  0.05847860441670715 -1.635384209563617 0.7890564073384825  -0.09288796492247278 -1.776895055712776 0.8964450456448591  0.1324374208013949 -1.740154341207567 0.986118564730446  -0.009575489072091548 -1.617249486168673 0.9571482141593423  -0.6718703587604271 -1.320072553559192 0.8575418668994165  -0.5993126127839257 -1.356802348095724 0.6761588653802199  -0.4885368719095629 -1.522611456942864 0.7980099206754848  -0.6642002395853364 -1.53019528127371 0.8484425793006412  -1.347483233307303 -1.087645454481238 2.483052248448698  -1.315018842567617 -1.291419856752447 2.560767184983699  -1.422181847599622 -1.160990289531082 2.634735092565684  -1.516475143018002 -1.289607465825076 2.542358529486077  -0.8251001652178981 -1.341754955445665 1.978839545655016  -0.6485365495989461 -1.39637980403723 1.833471467606679  -0.8384176173539667 -1.507047831788549 1.749875831946662  -0.8203110009119144 -1.283557636393105 1.772613672283883  -0.5164129157473545 -1.043802240947415 2.561351860710089  -0.5689073116343502 -1.242177899357374 2.490002653774851  -0.6458462381125095 -1.087169005002729 2.429546160221308  -0.4413340049799513 -1.105162727096155 2.366417988337487  -0.6325985786302906 -1.000691512080353 1.435962961428577  -0.6385620607484055 -0.9813704613453389 1.184311912669184  -0.5449487143973196 -0.8371469322868641 1.37097890766183  -1.583958822697221 -0.8493217131381886 0  -1.78986369332553 -0.8736814868269832 0  -1.718607851236862 -1.006991790946125 0  -1.635436784085574 -0.8838948531084269 0.1380339691310889  0.1612768940456873 -1.843121553365599 0.6329767247591898  0.2323643568494465 -1.692975143374786 0.6788863215179193  0.09019159251338676 -1.814846431498812 0.7874191420707383  -1.062875273255093 -1.041734491791032 3  -1.149158433182131 -1.123891913853887 2.84628912716352  -1.22723992874986 -1.16667122815588 3  -1.353906481047281 -0.9562607626050281 3  -0.679405441789232 -1.568315481607184 0.5630017862190446  -0.5252330889878697 -1.681506118744993 0.7151578821151351  -1.72363009724658 -0.1348091001771507 0.5545258578268655  -1.797193668724998 -0.2979628471163895 0.5603174389822393  -1.81648188723064 -0.2301375970373472 0.3957210031768225  -1.624076625041444 -0.2674508736597376 0.4951081039930677  -0.4505339963759049 -1.136062123960504 0  -0.2628963043456014 -1.141552170835296 0  -0.2957500397643542 -0.9502504888514549 0  -0.3325365835252213 -1.102674272080705 0.161111459294378  0.07392409829766156 -1.533360139686574 1.112281588425232  -0.02283063315156583 -1.400432185307159 1.004321020445237  -0.1362865928384046 -1.641928774582573 1.096603511946072  -0.9783293069445533 -0.7280179034944041 0.6349200516802542  -0.8397985526128185 -0.8160336360580563 0.7159912773122544  -0.7558903300160582 -0.6476638549470957 0.7776382394816339  -0.9552839560063663 -0.6148326024924811 0.7866050681971313  -0.8312527710116606 -0.7950556786435286 1.614402977634044  -0.9567210600125093 -0.9083978297451267 1.559541666789219  -0.7374791760733863 -0.9444661005085463 1.592459028144027  -0.8554330709571225 -0.9532474748129753 1.713382343025166  0.03189110509108385 -1.996859000304968 0.9722931375524642  -0.02983374763045761 -1.826244193496462 1.0936803244594  -1.209136678172795 -0.9673550161139013 2.787530026726432  -1.190515328171598 -1.199052457809579 2.690743886222148  -1.35035361650437 -1.214443577846358 2.804019152025864  -0.7001748021500218 -1.482932690404752 0.1635750635028124  -0.8185894941766394 -1.497594274145396 0.2876739778311772  -0.6556107695904007 -1.643374648037044 0.2072782338244747  -0.6536551300300013 -1.464975431351753 0.3946016317744342  -1.188626215057305 -0.6678863386982073 2.260530493395142  -1.302130131715044 -0.7754651968140814 2.151030516720286  -1.178065815704672 -0.6867032224063137 2.075278134217612  -1.086904284987494 -0.8031289753215809 2.159798459809342  -1.351422820500625 0.1063100112287926 1.189334301493454  -1.178162186580882 -0.06245970049956852 1.166118451046216  -1.396668682892864 -0.07790043001489796 1.340106727750888  -1.407040394721853 -0.06821356289348557 1.058352069243803  -0.6308648392144403 -1.611799141363271 3  -0.6190052350988863 -1.715734505007137 2.873901236519374  -0.5145041229697831 -1.720501851159976 3  -0.6433183351055514 -1.884782081723357 3  -1.776681201989305 -0.4405983493601064 0.1476118125809028  -1.943744663876454 -0.4489447508885582 0  -1.899865532971823 -0.5935948600732998 0  -1.921805098424139 -0.5212698054809289 0.2106616403406252  -1.016487163215495 -1.122472049214823 0.9170454011212578  -1.109465023844576 -1.3319421737436 0.7691107624768749  -1.002490522110291 -1.292083003266677 0.8969244437809218  -1.157390097995732 -1.2140477417495 0.9063032754730388  -1.320947274837734 -1.303593366550305 0.1428791356157304  -1.493247244686353 -1.317910741834191 0.2651337348593049  -1.450173899081334 -1.370395765312775 0  -1.399501622847386 -1.426287339113798 0.1889978063845443  -1.743652414828189 -0.4339339716128558 0.4348517694049172  -1.023217720353762 -0.7978479614202501 1.277322926130972  -1.258665345745631 -0.7322264208807134 1.416889982378491  -1.198820147078001 -0.6876839471546166 1.223729077405624  -1.239599628650163 -0.8530475281074161 1.293216684202827  -1.284360347765359 -1.021304323620372 1.407566253913275  -1.449142381164504 -1.060033380216528 1.438409334911428  -1.403787441835937 -1.220513607130712 1.510232502285107  -1.361896582599512 -1.023933137475477 1.586265036994648  -0.6360031023720683 -1.349426266796207 2.357344122588816  -0.7457176682666045 
[...]
<CellData  Scalars="f">
<DataArray  type="Float64"  Name="f"  format="ascii">2 2 2 2 2 3 2 3 2 3 2 2 3 2 3 2 3 3 3 3 2 3 2 2 2 3 3 2 3 3 2 2 2 2 3 2 3 2 2 3 3 2 3 3 2 3 2 2 3 2 2 3 3 2 2 2 2 2 2 3 3 2 3 3 3 2 2 2 2 2 2 3 3 2 2 2 2 3 3 2 3 3 3 3 2 2 2 2 2 3 3 3 2 3 3 2 3 3 2 2 2 3 3 2 3 3 3 2 3 3 2 3 2 3 2 3 3 2 3 2 2 2 2 3 3 3 3 2 2 2 2 3 2 3 3 2 3 3 2 3 3 2 3 2 3 3 3 3 2 2 3 2 2 2 2 3 2 2 3 3 2 2 3 3 2 3 3 3 3 2 2 2 2 2 3 2 3 2 3 3 3 2 2 3 3 3 2 3 2 2 3 2 3 2 2 3 3 2 2 3 3 2 3 2 2 3 3 3 2 3 2 2 3 2 2 2 2 3 3 2 2 2 3 3 2 2 2 2 2 2 3 3 3 3 3 2 3 3 2 3 3 3 3 3 2 2 2 2 2 3 2 2 3 3 2 2 3 3 2 2 3 2 3 3 3 2 2 2 2 2 2 2 2 3 2 2 3 2 3 2 3 3 3 2 3 2 3 2 3 2 2 3 2 3 2 2 3 2 3 3 2 3 2 3 2 3 3 2 3 3 2 2 2 2 2 3 2 2 3 3 2 2 2 2 3 3 2 2 2 3 2 2 2 3 3 2 3 3 3 2 2 3 3 2 2 2 2 2 3 2 2 2 2 3 3 2 3 2 2 3 2 2 2 2 3 3 2 3 2 3 3 3 2 2 3 2 3 2 2 2 2 3 3 2 2 2 2 2 2 2 2 3 2 3 2 3 2 3 2 2 2 2 2 2 3 3 2 2 3 3 2 2 2 2 3 3 2 2 2 3 3 2 2 2 2 3 2 3 3 2 3 3 3 2 2 2 2 3 3 2 2 3 2 3 2 2 2 3 2 2 3 2 2 2 2 3 2 3 3 3 2 2 3 3 2 3 3 3 3 2 3 3 2 2 2 2 2 2 2 3 3 2 3 2 2 2 2 3 3 2 2 3 2 2 3 3 3 2 2 2 3 3 2 2 2 2 2 2 2 2 3 3 2 3 2 3 3 2 3 2 2 2 3 3 2 2 3 2 3 2 2 3 3 2 3 3 3 3 2 2 2 2 3 2 2 3 2 2 2 2 3 2 2 3 2 2 3 2 2 2 2 2 2 2 2 3 3 3 3 3 3 2 2 2 2 2 2 2 2 3 3 2 2 2 3 3 3 2 3 2 2 3 2 2 3 2 2 2 2 2 2 2 2 3 3 3 2 2 3 2 3 2 3 2 2 3 3 2 3 2 2 3 3 2 2 2 2 2 3 2 2 3 3 2 3 2 2 2 2 3 2 2 2 2 3 3 2 3 3 3 2 3 2 2 3 3 2 2 2 2 2 3 2 2 2 2 2 3 3 3 3 2 3 3 2 3 3 3 2 2 3 3 2 2 2 2 2 2 3 3 3 2 2 3 3 2 2 2 2 3 2 3 2 3 2 2 2 3 2 3 3 2 3 2 3 3 3 2 2 2 3 2 3 2 3 2 3 3 2 3 3 3 2 2 3 2 2 2 2 2 2 3 3 2 2 2 3 2 2 2 3 2 2 3 3 3 2 2 3 2 2 3 3 2 3 3 2 2 2 3 3 2 2 2 2 2 3 3 2 3 2 2 2 2 3 2 2 3 2 3 3 3 2 3 3 2 3 3 3 3 2 3 3 2 2 2 3 2 3 3 3 3 2 2 2 2 2 2 2 2 2 2 2 3 2 2 2 3 3 2 3 3 2 2 3 3 2 3 3 2 2 2 3 2 3 2 3 2 3 2 3 3 3 3 2 2 2 3 3 2 3 3 3 2 3 2 2 2 2 2 2 3 2 2 3 2 2 2 2 3 3 3 2 3 3 3 2 2 3 2 3 2 3 2 2 2 3 2 3 2 3 2 2 2 3 3 2 2 3 3 2 3 2 2 3 2 2 2 3 2 2 3 3 3 2 3 2 2 3 3 2 2 3 2 2 3 2 3 3 3 2 3 3 2 2 3 3 3 3 3 3 3 2 3 2 3 2 3 3 3 2 2 2 3 2 3 3 2 3 2 2 3 2 2 3 2 2 2 3 2 2 2 2 3 3 2 2 3 2 2 2 2 3 2 3 2 3 2 3 3 3 3 3 3 3 2 2 3 2 3 3 3 3 2 3 3 3 2 2 3 2 2 2 2 2 2 2 2 3 2 2 2 3 3 3 3 2 2 3 3 2 2 2 3 2 2 2 2 2 3 2 2 2 3 2 2 3 3 2 2 2 3 3 3 2 2 3 2 2 3 3 2 3 2 2 2 2 2 3 3 3 3 3 2 3 2 3 3 2 3 3 3 2 3 3 2 2 2 3 2 3 2 2 2 2 3 3 2 3 2 3 3 3 2 2 3 2 2 3 2 3 3 3 3 2 2 2 2 2 2 3 2 2 3 2 2 2 3 2 2 3 2 2 3 2 2 2 2 2 3 3 2 2 3 3 2 2 2 2 3 2 3 2 2 3 3 3 2 3 3 2 2 2 2 2 2 2 2 2 3 2 3 3 2 2 3 3 2 2 3 2 3 2 3 3 3 2 2 3 2 3 2 2 2 3 3 2 2 3 2 2 3 2 3 3 2 3 3 3 3 2 2 3 3 3 2 2 2 3 3 2 2 3 3 2 2 2 2 3 2 2 2 3 2 2 3 2 2 2 2 2 2 2 2 2 3 2 3 2 2 2 2 3 2 3 2 2 2 3 3 3 2 3 3 2 3 2 3 3 2 3 2 2 2 2 2 2 2 3 2 2 3 2 2 3 2 2 2 2 2 2 3 3 2 2 2 2 2 2 2 3 3 3 2 2 3 3 3 2 2 2 2 3 2 3 2 3 2 2 3 2 2 3 3 3 3 2 2 2 2 2 2 2 2 3 2 2 3 3 3 2 2 3 3 2 2 3 2 2 3 2 2 2 2 2 2 3 3 2 2 3 2 2 2 2 2 2 3 2 2 2 2 3 2 2 2 2 2 2 3 3 2 2 2 3 2 2 2 2 3 2 3 3 3 2 3 3 2 3 3 2 2 2 2 2 2 3 2 2 3 3 2 2 3 3 3 3 2 2 2 2 2 2 2 3 2 2 2 3 3 2 3 2 2 3 3 2 3 2 2 3 2 2 2 3 2 2 3 3 2 3 2 2 2 2 2 3 3 2 2 3 3 3 3 3 3 2 2 3 2 2 3 3 2 3 2 2 2 3 2 3 2 2 2 3 2 3 3 2 2 2 2 3 3 3 3 3 3 3 3 3 3 2 2 3 3 2 2 3 2 2 2 2 3 2 3 3 3 3 2 3 3 2 2 2 3 2 3 2 3 3 2 2 3 3 3 2 2 2 2 2 2 3 3 3 3 2 2 2 2 3 3 2 3 2 2 2 3 3 2 2 2 2 2 2 3 3 2 2 2 2 3 3 2 3 3 2 3 2 3 2 3 3 3 2 2 2 3 3 3 2 2 2 2 3 2 2 2 3 2 2 2 2 2 3 2 3 3 2 2 3 3 2 2 3 3 3 2 2 3 3 3 2 3 3 2 2 2 3 3 3 3 2 3 2 2 3 3 2 2 2 2 2 2 2 3 2 2 3 2 3 2 2 2 2 2 2 2 2 2 2 2 2 3 2 2 3 2 2 2 2 3 3 2 2 2 3 2 2 2 3 2 2 2 3 2 2 3 3 3 3 3 3 2 2 3 2 3 2 3 2 3 2 2 3 2 2 2 3 2 2 2 2 3 3 2 2 2 2 3 2 3 3 2 2 2 3 2 2 3 3 2 2 2 2 3 3 3 3 2 2 3 2 3 3 2 3 2 3 2 2 2 2 2 3 2 2 2 2 2 2 2 2 3 3 3 3 2 3 3 2 2 2 3 3 2 3 2 2 3 2 2 2 2 2 2 3 2 2 2 2 2 3 2 2 3 3 3 2 3 2 3 2 2 3 2 2 2 2 2 3 2 3 2 3 2 3 3 3 3 2 2 2 3 2 3 3 2 2 2 2 3 3 3 2 2 2 3 2 3 3 2 2 3 2 3 2 2 2 3 3 2 2 3 2 2 3 3 2 3 3 2 2 3 3 3 2 2 2 2 2 2 2 3 2 2 2 2 2 2 3 3 2 3 3 2 3 2 2 3 2 2 2 3 2 3 2 2 3 2 3 2 3 3 3 3 3 3 3 3 2 3 2 3 2 3 3 3 3 3 2 3 2 3 2 2 3 2 3 3 2 2 2 3 2 2 2 3 3 2 3 2 2 3 2 2 2 2 2 2 3 2 2 3 3 2 2 3 2 2 2 2 3 3 2 2 3 3 2 3 3 3 2 2 2 2 2 2 2 3 3 2 2 2 2 2 2 2 2 2 3 3 3 2 3 3 3 3 2 2 2 3 2 2 3 2 3 2 3 2 2 3 3 3 2 2 3 2 3 3 3 3 2 2 2 2 3 2 2 3 2 2 2 3 2 2 3 3 3 3 2 3 2 3 3 3 2 3 3 3 2 3 3 3 2 2 3 2 3 3 2 3 2 3 2 3 2 2 2 3 2 3 3 2 3 2 2 3 3 3 2 2 2 2 2 3 2 2 3 2 3 3 2 3 3 3 2 3 3 2 2 3 3 2 2 2 2 3 3 2 2 2 2 3 3 2 3 3 2 2 3 2 2 2 3 2 2 3 2 2 2 2 2 2 3 3 3 3 3 2 3 2 3 3 3 3 2 2 2 3 2 2 2 2 2 2 2 2 3 2 3 2 2 3 3 2 2 2 3 3 2 2 2 2 3 3 2 2 2 3 2 2 3 3 2 3 2 2 2 2 3 2 3 3 3 2 2 2 2 2 3 3 3 3 3 3 2 3 2 2 2 3 3 3 2 3 2 2 2 2 2 3 2 2 3 3 3 2 2 2 2 3 3 2 2 3 2 2 2 3 2 2 3 2 3 3 3 2 2 2 2 3 2 2 2 2 2 2 2 2 2 3 2 2 3 2 2 2 2 3 2 2 2 2 3 2 2 2 2 2 2 3 3 2 2 3 3 2 3 2 3 2 3 2 3 2 2 3 3 2 2 3 2 2 3 3 3 3 3 3 2 2 3 3 2 2 3 2 3 2 2 2 3 2 2 2 2 2 2 3 2 3 3 3 2 2 2 2 3 2 2 2 3 2 2 3 2 3 3 3 2 2 2 2 2 3 2 3 2 2 2 2 2 2 3 2 2 2 2 2 3 2 3 2 2 2 3 2 3 3 3 2 2 2 2 2 2 2 2 2 2 3 2 2 3 2 3 3 2 3 2 3 2 3 2 2 2 2 3 3 2 2 2 3 2 2 2 2 2 3 2 2 2 3 2 3 2 3 2 3 2 2 3 3 3 3 2 3 3 2 2 2 2 3 2 3 3 2 2 3 3 2 2 3 2 2 2 3 2 2 3 3 3 2 3 2 3 3 3 3 2 3 3 2 2 2 3 3 2 3 2 2 2 2 2 2 3 2 3 2 3 3 2 2 2 3 3 3 3 3 3 2 2 3 3 3 3 3 2 3 2 2 2 3 2 2 2 2 2 3 3 2 3 2 2 3 2 3 3 2 3 2 3 3 3 2 2 2 2 3 2 3 3 3 3 2 3 2 2 2 2 2 2 2 3 2 3 2 2 3 2 2 3 2 3 3 2 3 2 2 2 3 2 2 3 2 2 2 3 2 2 2 3 2 3 3 2 2 2 2 2 3 3 2 2 2 3 2 3 3 2 3 3 3 2 3 3 2 2 3 2 3 2 3 2 2 3 2 2 2 2 2 2 3 2 2 2 2 2 2 3 2 3 3 3 2 2 2 3 3 2 2 2 2 2 2 3 3 2 3 3 3 3 2 2 2 2 2 2 2 2 2 2 3 3 2 2 2 3 3 3 3 3 2 2 2 2 2 3 3 3 2 3 2 2 2 3 3 3 3 2 2 2 3 3 2 2 2 2 2 3 2 3 3 3 2 2 2 2 2 2 2 3 2 2 2 2 2 3 2 3 2 2 3 2 2 2 2 3 3 3 2 3 3 3 3 2 3 2 3 2 2 3 3 2 2 2 2 3 3 3 2 2 3 2 3 3 2 2 2 2 2 2 2 2 2 3 3 2 2 2 3 2 2 2 3 2 2 3 2 2 2 2 2 2 2 2 2 2 3 2 2 2 2 2 3 3 3 2 2 3 3 3 2 2 3 2 3 3 3 3 3 2 2 2 2 2 2 2 3 2 2 3 2 3 2 3 2 2 2 3 3 3 3 3 2 3 2 2 2 2 3 2 3 2 2 2 2 2 2 3 2 3 3 3 2 3 3 2 3 3 2 2 3 2 3 3 3 2 2 3 3 2 3 2 3 3 2 2 3 3 3 2 3 2 3 2 3 3 3 3 3 3 2 2 2 2 2 2 2 2 3 2 2 2 2 2 3 3 3 2 3 3 2 3 2 3 2 2 2 2 2 2 2 2 3 2 2 2 2 3 3 2 3 2 2 3 2 3 3 2 3 3 3 2 3 2 3 2 2 2 3 2 2 3 2 3 2 2 3 2 3 3 2 2 2 2 3 3 3 3 3 3 2 2 2 3 2 2 2 2 3 3 2 2 2 2 2 2 2 2 3 3 2 2 3 2 2 3 3 3 2 2 2 2 3 3 2 3 3 3 2 3 2 2 3 2 3 3 3 3 2 3 2 3 2 2 3 3 2 2 2 2 3 2 3 2 2 2 3 2 3 3 2 2 3 2 2 3 2 2 2 2 2 2 3 3 3 2 3 2 2 3 3 2 3 3 3 2 3 3 3 2 2 2 2 2 2 3 2 2 3 3 2 2 2 2 3 2 3 2 3 3 2 3 2 2 3 2 2 2 3 3 2 2 2 2 3 3 2 2 3 3 2 3 3 3 3 2 3 2 3 2 2 2 3 3 2 2 3 2 3 2 2 3 2 2 3 2 2 2 2 3 2 3 2 2 3 2 2 2 2 2 2 3 2 3 2 3 2 2 2 3 2 3 2 3 3 2 2 3 3 3 2 2 3 2 2 2 3 2 2 3 2 2 3 3 3 2 2 2 3 3 2 2 3 2 2 2 3 3 2 2 3 2 2 2 2 2 2 2 3 3 3 3 2 2 2 3 2 3 2 3 2 3 2 2 2 2 2 2 2 2 3 2 3 2 3 2 2 3 3 2 2 3 2 2 2 2 2 3 3 3 3 2 2 2 2 2 2 2 2 3 3 3 2 2 2 2 2 2 2 3 2 2 3 2 3 2 2 2 2 2 2 3 2 2 2 2 2 2 2 2 2 2 2 2 3 2 2 3 2 2 2 2 3 3 2 2 2 3 2 2 2 2 2 2 3 2 3 3 3 3 3 3 2 2 2 2 2 2 2 2 3 2 3 2 3 2 2 3 2 2 3 3 2 3 3 2 2 2 3 2 2 2 3 3 2 2 2 2 3 2 3 2 2 3 3 3 2 3 2 2 2 2 2 2 2 2 2 2 2 2 2 2 3 2 3 2 2 3 2 2 3 3 3 2 3 3 3 3 2 3 2 2 2 2 2 2 2 2 2 2 3 3 3 3 3 2 2 3 2 3 3 3 2 2 3 3 2 2 2 2 2 3 3 3 2 3 2 2 2 2 3 3 3 2 2 3 3 2 3 2 3 3 2 2 2 2 2 3 2 2 3 3 2 3 2 2 2 2 3 2 3 2 2 2 2 3 2 3 3 2 2 2 2 2 3 3 3 2 2 3 2 2 2 2 2 3 2 2 2 2 2 2 2 3 2 2 2 2 2 3 2 2 2 2 2 3 3 2 3 3 3 3 2 2 2 2 3 2 3 2 2 2 3 2 3 2 2 3 3 2 2 2 2 3 2 3 3 3 3 3 2 2 2 2 2 2 3 3 3 3 2 2 2 2 3 3 3 3 3 2 3 2 2 2 3 2 2 2 2 2 2 2 3 2 3 3 2 2 3 2 2 2 2 2 2 3 2 3 3 3 3 3 2 2 3 3 2 2 2 2 2 2 3 2 2 3 2 2 3 3 2 3 3 3 3 2 2 2 2 2 2 2 3 2 3 2 2 2 2 2 3 3 3 3 2 2 3 2 2 2 3 3 3 2 3 2 2 3 2 2 2 3 3 3 2 2 2 3 2 3 2 2 2 2 3 3 3 2 3 3 2 3 2 3 3 3 3 3 3 3 2 2 2 3 2 3 2 2 2 3 2 3 3 3 2 2 2 3 2 2 2 2 2 2 2 2 2 2 2 3 2 2 2 2 2 2 2 2 2 2 2 2 2 3 3 2 2 3 2 3 3 3 2 2 2 2 3 3 2 2 3 2 2 3 2 3 3 3 2 2 3 2 3 2 3 3 2 3 3 2 3 2 2 2 3 2 3 2 2 2 2 3 2 3 2 2 3 3 3 3 3 3 3 2 2 3 3 3 2 2 2 2 2 2 2 3 3 2 3 3 3 2 2 2 2 3 2 3 3 2 2 3 2 3 2 2 3 3 2 2 3 2 2 2 2 3 3 2 2 2 2 2 2 3 2 3 3 2 2 2 2 2 3 3 2 2 2 2 2 2 2 3 3 3 2 2 3 2 3 3 3 3 2 2 2 2 2 2 2 2 2 3 3 2 2 2 3 3 3 2 3 2 2 2 2 3 2 3 3 3 3 3 2 2 2 3 3 3 3 2 2 2 3 2 2 3 3 3 3 3 2 3 2 3 2 2 2 2 2 2 2 2 3 2 2 2 2 3 3 3 2 2 2 3 3 2 2 2 2 2 3 2 2 2 2 2 2 2 2 2 2 2 2 3 3 2 2 2 3 3 3 3 2 2 2 2 3 2 2 3 3 3 3 2 2 2 3 3 3 3 3 3 3 3 3 3 3 3 3 3 3 3 2 3 3 2 3 2 2 2 2 3 2 3 3 3 3 3 2 3 3 3 2 3 3 2 2 3 3 3 3 2 2 3 3 3 3 2 3 2 2 2 2 2 3 2 2 2 2 2 3 2 3 2 2 2 2 2 3 2 3 2 3 3 2 2 2 2 2 3 2 3 2 2 2 2 2 2 2 3 3 2 2 2 2 3 2 2 3 2 3 2 3 3 2 2 3 3 2 2 2 3 2 2 3 3 3 3 2 2 2 2 3 2 3 2 3 3 2 3 2 2 2 3 3 3 3 3 3 3 3 3 2 2 2 2 2 2 2 3 3 3 3 3 3 3 3 2 3 3 2 2 2 2 3 3 3 2 2 2 3 2 3 2 2 2 3 2 2 2 3 3 3 2 2 2 3 3 3 2 2 2 2 3 2 3 2 3 3 2 3 2 2 2 2 2 3 2 3 2 2 3 2 2 2 3 2 2 2 2 2 2 2 2 3 3 2 2 2 2 2 2 2 2 2 2 2 2 2 2 3 2 2 3 2 2 2 2 3 2 3 2 2 2 2 2 2 2 2 2 2 2 2 2 3 3 3 2 2 2 2 2 2 2 2 2 2 2 2 3 2 2 3 3 2 2 2 2 2 2 2 2 3 3 2 3 3 3 2 2 2 2 3 2 2 2 2 3 2 3 2 3 3 2 3 2 2 2 3 3 3 3 3 2 3 2 2 3 2 2 2 3 3 2 3 3 3 3 2 2 3 2 3 2 3 3 2 2 3 2 2 3 3 3 2 2 2 3 3 3 2 3 2 2 2 2 2 2 2 2 2 2 2 2 2 3 2 2 2 2 3 3 3 2 2 2 2 2 2 2 2 2 2 3 3 2 2 2 3 3 2 2 3 3 3 2 2 3 2 2 2 3 2 2 2 2 2 2 2 2 2 2 3 3 3 3 3 2 2 2 2 2 2 3 3 2 3 2 2 2 2 2 2 2 2 3 2 3 3 2 3 3 3 3 3 2 2 2 2 2 3 2 2 2 2 2 3 2 2 3 3 3 3 3 3 2 2 2 3 3 3 3 3 3 2 2 2 3 3 2 2 3 3 2 3 2 2 2 2 2 2 2 2 2 2 2 3 3 3 2 3 3 2 2 2 3 3 2 2 2 2 3 3 2 2 2 2 2 3 3 2 2 2 2 2 2 2 2 2 3 2 2 3 2 2 2 3 2 3 2 2 3 2 2 2 2 2 2 2 2 2 2 2 2 2 2 2 2 2 2 2 3 3 3 3 2 2 3 2 2 2 2 2 2 2 3 2 2 2 2 2 2 2 2 3 3 3 2 2 3 2 2 3 3 3 2 3 2 2 3 3 2 2 3 3 2 2 2 3 2 3 2 2 2 2 2 3 3 3 2 2 2 3 3 3 3 3 2 3 2 2 2 3 3 2 2 3 3 3 3 2 3 2 3 3 2 2 3 3 3 3 3 2 2 2 2 2 2 2 2 2 2 3 3 3 3 2 2 2 2 2 2 2 2 2 2 2 3 3 3 2 3 3 3 3 3 3 2 2 2 2 2 3 3 3 3 3 2 2 3 2 3 3 2 3 3 2 3 2 3 3 2 2 2 3 2 2 2 2 2 2 2 2 2 2 3 2 3 2 2 2 2 2 2 3 2 2 2 2 2 3 3 3 3 2 3 2 3 3 3 3 3 3 3 3 3 2 3 2 2 2 2 2 2 2 2 2 3 3 3 3 2 3 3 2 2 2 2 2 2 2 2 2 2 2 3 3 3 2 3 3 3 2 2 2 2 2 2 2 2 3 2 2 2 2 2 3 3 2 2 2 2 2 2 2 3 2 2 2 2 2 2 2 2 3 3 2 2 2 2 2 2 3 3 3 2 2 2 3 2 2 2 3 2 2 3 2 3 3 3 3 3 3 3 2 2 2 2 2 2 2 3 3 3 3 2 3 3 3 3 3 3 3 3 3 3 3 3 3 3 3 2 2 2 2 2 2 2 2 2 2 2 2 2 2 2 3 3 2 2 2 2 2 3 3 3 3 3 3 2 2 2 2 2 2 2 2 3 3 2 2 3 2 2 2 2 2 3 2 3 3 3 2 3 3 2 2 3 2 2 2 2 2 2 3 2 3 3 2 2 2 2 2 3 2 2 2 2 2 2 2 2 2 2 2 2 2 2 2 2 2 2 3 3 2 3 2 3 2 2 2 2 3 3 3 3 2 2 2 3 3 3 2 2 2 2 2 2 2 3 2 2 2 2 2 2 2 2 3 2 2 2 2 3 2 2 2 2 3 2 3 3 3 3 3 2 3 3 3 3 3 2 2 2 2 2 2 2 2 2 2 2 2 3 3 3 2 2 3 2 2 3 3 2 2 2 2 3 2 3 2 2 2 2 2 3 2 2 2 2 2 2 2 2 3 3 3 3 2 2 3 3 3 3 3 2 2 2 2 2 3 3 3 3 2 2 2 2 2 2 2 2 2 2 2 2 2 2 2 3 2 2 2 2 2 3 3 3 2 2 2 3 3 3 3 3 3 3 2 2 2 2 2 2 2 2 2 2 3 3 3 2 3 2 3 3 3 3 3 2 2 2 3 3 2 3 2 3 3 3 2 3 3 3 2 2 2 2 3 3 3 3 3 3 2 3 3 2 2 3 3 3 3 2 2 2 2 2 2 2 2 2 2 2 3 3 2 2 2 2 2 3 3 2 2 2 2 2 3 3 3 3 3 3 3 3 3 2 2 2 2 2 3 2 2 2 2 2 2 2 2 3 2 2 2 3 3 3 2 2 3 3 3 2 2 2 2 2 3 3 2 3 2 2 2 2 3 2 2 2 2 2 2 2 2 2 2 2 2 2 2 2 2 2 3 3 2 2 3 3 3 3 3 2 2 2 2 2 2 3 2 3 2 3 2 2 3 3 2 2 3 3 2 3 2 2 2 3 3 2 3 2 2 2 2 2 2 3 2 2 3 3 3 2 2 2 3 3 2 2 2 2 2 2 2 3 2 2 2 2 2 2 3 3 3 3 2 3 3 3 3 3 3 3 3 2 3 2 2 2 2 2 3 2 2 2 2 2 2 2 2 2 2 2 2 2 2 3 2 2 2 2 2 2 2 2 2 2 2 2 3 3 2 3 2 2 3 3 2 2 2 3 3 2 2 2 2 2 3 3 2 2 2 2 3 2 2 2 2 2 2 2 2 2 2 2 2 2 2 2 2 3 2 2 2 2 2 2 2 2 2 2 2 2 2 2 3 3 3 2 2 2 3 3 3 2 3 2 2 2 2 2 3 3 2 2 2 2 3 3 3 3 3 3 3 3 2 2 3 2 2 2 2 2 2 2 2 2 2 2 2 2 2 2 2 2 2 2 2 2 2 2 2 2 2 2 2 2 2 2 3 2 2 2 2 2 2 2 3 2 2 2 3 3 2 2 3 2 2 2 2 2 2 2 2 2 2 2 2 2 2 2 2 2 3 2 2 3 2 2 2 2 2 2 2 3 3 3 2 2 3 2 2 2 2 2 2 2 2 2 2 2 2 2 2 3 3 3 2 3 3 3 3 3 3 2 2 2 2 2 2 2 2 2 3 3 3 3 2 2 2 2 2 2 3 2 2 2 2 2 2 2 2 2 2 2 2 2 2 2 3 2 2 2 2 2 2 2 2 3 3 3 3 3 3 2 2 2 2 3 2 2 3 2 2 3 2 2 2 2 2 2 2 3 2 3 2 3 3 2 2 3 3 2 3 3 2 2 2 2 2 2 2 2 2 2 2 3 2 2 2 2 2 2 2 2 2 2 3 2 2 2 2 2 2 2 2 2 2 2 2 2 2 2 2 2 3 3 2 2 2 2 3 3 2 2 2 2 2 3 2 3 3 3 2 2 2 2 2 2 2 3 3 3 2 2 2 2 2 2 2 2 2 3 3 2 2 2 2 2 2 2 2 2 2 2 2 2 2 3 3 3 3 3 3 2 2 2 2 2 2 2 2 3 3 3 3 3 3 2 2 2 2 2 3 2 2 2 2 2 2 2 3 2 2 2 2 2 2 2 3 3 3 3 2 2 2 2 2 2 3 3 3 2 3 3 2 2 3 2 2 2 2 2 2 2 2 2 2 2 2 2 2 2 3 3 3 3 3 3 3 3 3 2 2 2 2 2 2 2 2 2 2 2 2 2 2 2 2 2 2 2 2 2 2 2 2 2 3 3 2 2 2 2 2 2 2 2 2 2 2 3 3 3 3 2 2 2 3 3 3 3 3 3 3 3 3 3 3 2 3 3 3 3 2 2 2 2 2 2 2 2 2 2 2 2 2 2 2 2 2 3 3 3 3 3 3 2 2 3 3 3 3 3 2 2 2 2 2 2 2 2 2 2 3 2 2 2 2 2 2 2 2 2 2 2 2 3 2 2 2 2 2 2 2 3 3 3 3 2 2 2 2 2 3 3 2 2 3 3 3 3 2 3 2 2 3 3 3 2 2 2 2 2 2 2 2 2 2 2 2 2 2 2 2 2 2 2 2 2 2 2 2 2 2 2 2 2 2 2 2 2 2 2 2 2 2 2 2 2 2 2 2 2 2 2 2 2 3 3 3 2 2 2 2 2 3 3 3 3 3 3 3 3 3 3 3 3 3 2 2 2 2 3 2 2 2 2 2 2 2 2 2 2 2 2 2 3 3 3 3 3 3 2 2 2 2 2 2 2 2 2 2 3 3 2 3 3 3 3 2 2 2 3 2 2 2 2 3 2 2 2 2 2 2 3 3 2 2 2 2 2 2 2 2 2 2 2 2 2 2 2 2 2 2 3 2 2 2 2 2 3 2 2 2 2 2 3 3 2 2 2 2 2 2 2 2 2 2 3 3 2 2 3 2 3 3 3 3 3 3 3 3 3 3 3 3 3 3 3 3 3 3 3 2 3 3 3 3 2 2 2 3 3 3 3 3 3 3 3 3 3 3 3 3 3 3 3 3 3 3 3 3 3 3 2 2 2 2 2 3 3 3 3 3 2 2 2 2 2 2 2 2 3 2 2 2 2 2 2 2 2 2 2 2 3 3 3 3 3 3 2 2 2 2 2 2 2 3 2 2 2 2 2 2 2 3 3 2 2 2 2 2 2 2 2 2 3 3 3 3 3 3 2 2 3 3 3 2 2 2 2 2 2 2 2 2 2 2 3 3 3 3 3 3 2 2 2 2 2 2 2 2 2 2 2 2 2 2 2 2 3 3 3 3 3 3 3 3 3 3 2 2 2 3 3 3 3 3 3 3 3 3 3 3 3 3 3 3 2 2 3 3 2 2 2 2 2 3 3 3 3 2 3 3 3 3 3 3 3 3 3 3 3 3 3 3 3 3 3 3 2 2 3 3 3 3 3 3 3 3 3 3 3 3 3 3 3 3 3 3 3 3 3 3 3 3 3 3 3 3 3 2 2 2 2 2 3 3 3 3 2 2 2 2 2 2 2 2 2 2 2 2 3 2 3 2 2 2 2 2 2 3 3 3 3 3 3 2 2 3 3 3 3 3 3 3 3 3 2 2 2 2 3 2 2 2 2 2 2 2 2 2 2 2 2 2 2 2 2 3 3 3 3 3 3 2 2 2 2 2 2 2 3 2 3 3 3 3 3 3 3 2 3 3 3 2 3 3 3 3 3 2 2 2 2 2 2 2 2 2 2 2 3 3 3 3 3 3 3 3 3 2 2 2 2 2 3 3 3 3 3 3 3 3 3 3 3 3 3 2 2 2 2 3 3 3 3 3 3 3 3 3 3 2 2 2 2 2 2 2 2 2 2 2 3 3 3 3 3 3 3 3 2 2 2 2 2 2 2 2 2 2 2 2 2 2 2 2 2 2 2 2 3 3 3 3 3 3 3 3 3 3 3 3 3 3 3 3 3 2 3 3 3 3 2 2 3 3 3 3 3 3 3 3 3 3 3 2 2 2 2 2 2 2 2 2 3 2 2 2 3 3 3 2 2 2 3 2 2 2 2 2 2 2 2 3 3 3 3 2 3 3 3 3 3 3 2 3 3 3 2 3 2 2 2 2 2 2 2 2 2 2 2 2 3 3 3 3 3 3 3 2 2 2 3 2 3 3 3 3 3 3 3 3 3 3 3 3 3 3 3 3 3 3 3 3 3 3 3 3 3 3 3 3 3 3 3 3 3 3 3 3 3 3 3 3 3 3 2 2 2 2 2 2 2 2 3 3 3 2 2 2 2 2 2 2 2 2 2 2 2 2 2 2 2 2 2 2 2 2 2 2 2 2 3 3 3 3 3 2 2 3 3 2 2 2 2 2 2 2 3 3 3 3 2 2 3 2 2 2 2 2 2 2 3 3 3 3 3 3 2 2 2 3 3 3 3 3 3 3 3 3 3 3 3 3 3 2 2 2 2 2 2 2 3 3 2 3 3 3 3 2 2 2 2 2 2 2 2 2 2 2 2 2 2 2 2 2 2 2 2 2 2 2 3 3 3 3 3 3 3 3 2 2 2 2 3 3 3 3 3 3 3 3 3 2 2 2 2 2 2 2 2 2 2 2 2 2 2 2 2 2 2 2 2 2 2 2 2 2 2 2 2 2 2 2 2 2 2 2 2 2 2 2 2 2 2 2 2 2 2 2 2 2 3 3 2 2 2 2 2 2 2 3 3 3 3 3 3 3 3 3 2 2 2 2 2 2 2 2 2 2 2 2 2 2 3 3 2 2 2 2 2 2 2 2 2 2 2 2 2 2 2 2 2 2 2 2 2 2 2 2 2 2 3 3 3 3 3 3 3 3 2 2 3 3 3 3 3 3 3 3 2 3 3 3 3 3 3 3 3 3 3 3 3 3 3 3 3 3 3 3 3 3 3 3 3 3 3 3 2 2 2 3 3 2 2 2 2 2 2 2 2 2 2 2 2 2 2 2 2 2 2 2 2 3 3 3 3 3 3 3 3 3 3 2 2 2 2 2 2 2 2 2 2 2 2 2 2 2 2 3 3 3 3 3 3 3 3 3 3 3 3 3 3 3 3 </DataArray>
</CellData>
</Piece>
</UnstructuredGrid>
</VTKFile>