<?xml version="1.0"?>
<VTKFile type="UnstructuredGrid"  version="0.1"  >
<UnstructuredGrid>
<Piece  NumberOfPoints="26" NumberOfCells="52">
<Points>
<DataArray  type="Float64"  NumberOfComponents="3"  format="ascii">-0.2735891889529415 0.9569729094510142 2.12552337428227  -0.03919175637006414 0.9961399489150803 2.208831768913183  -0.06873693303092365 1.389446822062717 1.983219617280064  -0.4288678167384623 1.239012283384815 2.241953490964321  -0.03930125034265274 0.996129164700061 2.568295406843527  -0.3448925070327117 0.9353432843813163 2.366073780949903  -0.2285005142135763 1.469324511627211 2.388520136497989  -0.6581426274935399 1.141175892022394 2.668245984588441  -0.3268399160465632 1.2991464862264 2.700131573630263  -0.3448925070327119 0.9353432843813162 2.644866572772745  0.08031105797774156 1.311169543640173 2.313436608907443  -0.7437850672925156 1.310274425777958 2.344038711966598  -0.1950903220161293 0.9807852804032301 3  -0.6162581739138655 0.78166430635156 2.568064102241023  -0.607113779179846 0.7891689171647351 2.244318164518808  -0.6796881143437906 1.523987731700569 2.661181032844699  -0.5458800897167457 1.599865209253661 2.307170106181403  -0.475714278225114 1.461073098013345 1.990623103556109  -0.5519289362489997 1.38314656429069 3  -0.4864155127577982 0.8684335803860413 3  -0.8110786017792939 1.047269901791205 2.121104941428879  -0.9419791903414886 1.155341809566791 3  -0.7319793474097477 0.6767994715531579 3  -0.7376982336589788 1.856152252497978 2.455194588060328  -0.03930125034265256 0.996129164700061 1.859726882642217  -0.4438400887891144 0.891190618615129 1.952018840292058  </DataArray>
</Points>
<Cells>
<DataArray  type="UInt32"  Name="connectivity"  format="ascii">0 1 2 3  3 4 5 6  7 5 8 9  1 2 3 10  3 7 11 8  1 3 4 6  4 12 8 9  7 5 13 14  1 3 10 6  7 5 13 9  15 7 11 8  3 11 8 16  3 11 17 16  7 8 18 19  7 11 5 14  0 1 3 5  20 7 13 14  7 13 9 19  20 7 11 14  7 18 21 19  4 5 8 9  12 8 18 19  3 17 6 16  7 8 9 19  7 22 21 19  7 22 13 19  15 7 8 18  4 5 6 8  12 8 9 19  1 10 4 6  3 7 11 5  3 7 5 8  3 5 6 8  15 6 8 16  15 11 8 16  15 11 23 16  0 1 2 24  0 2 24 25  0 2 17 25  3 6 8 16  2 3 17 6  2 3 10 6  0 2 3 17  0 3 17 25  3 20 17 25  3 20 25 14  3 20 11 14  3 11 5 14  0 3 5 14  0 3 25 14  3 20 11 17  1 3 4 5  </DataArray>
<DataArray  type="UInt32"  Name="offsets"  format="ascii">4 8 12 16 20 24 28 32 36 40 44 48 52 56 60 64 68 72 76 80 84 88 92 96 100 104 108 112 116 120 124 128 132 136 140 144 148 152 156 160 164 168 172 176 180 184 188 192 196 200 204 208 </DataArray>
<DataArray  type="UInt8"  Name="types"  format="ascii">10 10 10 10 10 10 10 10 10 10 10 10 10 10 10 10 10 10 10 10 10 10 10 10 10 10 10 10 10 10 10 10 10 10 10 10 10 10 10 10 10 10 10 10 10 10 10 10 10 10 10 10 </DataArray>
</Cells>
<CellData  Scalars="f">
<DataArray  type="Float64"  Name="f"  format="ascii">2 2 2 2 2 2 2 2 2 2 2 2 2 2 2 2 2 2 2 2 2 2 2 2 2 2 2 2 2 2 2 2 2 2 2 2 2 2 2 2 2 2 2 2 2 2 2 2 2 2 2 2 </DataArray>
</CellData>
</Piece>
</UnstructuredGrid>
</VTKFile>