<?xml version="1.0"?>
<VTKFile type="UnstructuredGrid"  version="0.1"  >
<UnstructuredGrid>
<Piece  NumberOfPoints="29" NumberOfCells="54">
<Points>
<DataArray  type="Float64"  NumberOfComponents="3"  format="ascii">-1.643650479804342 -0.2510722380505768 0.8627116672388495  -1.946726160601798 -0.4391160733837046 0.8111792958218693  -1.829876992465486 -0.7988218694145495 1.130912378998781  -1.964638033666885 -0.3590360694210094 1.131809366286952  -1.205148256874422 -0.3774773616642302 1.56089248708819  -1.136987574194024 -0.6174439811883486 1.914508136383919  -1.31118241156544 -0.7076136899520298 1.591462913785664  -1.508823376803995 -0.6604528802020468 1.900797887321078  -1.405602299093617 -0.4281699265829389 1.080392801027884  -0.9179380497992715 -0.3937991646901919 1.364903497849802  -0.9988204316776866 -0.01197635816027369 0.9202779528728253  -0.9372154852963699 -0.3387206877374102 0.7761614215651188  -1.269246140500716 -0.0930329356625437 1.160250501970419  -1.576745284602963 -0.4950996627568143 1.416069836141637  -1.47674118856428 -0.1600094556322346 1.571512162555031  -1.638711807804228 -0.06826526146068315 1.173240500731697  -1.559711166137235 -0.3106849806081239 2.010557024887333  -1.897442875023726 -0.6015812930195484 1.762338718678639  -1.969972668408264 -0.3048726139361433 1.778179663051902  -0.9965365958288395 0.03516453267094798 1.375847279374345  -1.497195668686971 -0.7760486313250851 0.9253912365542269  -1.950962252746328 -0.4251515490508395 1.462938981298615  -0.9423848302186555 -0.3216796412990161 1.782274022494871  -1.291798766716753 -0.222227216590204 0.7903288354638301  -1.195386833276349 -0.5940202242492556 0.825287507851131  -1.13882373532475 -0.638349042128715 1.210784036510337  -1.518961711203538 0.07336982528669388 0.767522402488244  -1.420642843664937 -0.4846101958058707 0.5578312570836884  -1.853357911672155 -0.7469099408469142 0.7649736036555974  </DataArray>
</Points>
<Cells>
<DataArray  type="UInt32"  Name="connectivity"  format="ascii">0 1 2 3  4 5 6 7  0 2 3 8  9 10 11 12  4 6 7 13  8 12 14 15  4 5 7 16  14 16 17 18  4 9 12 19  0 1 2 20  13 21 17 18  4 9 19 22  0 3 8 15  8 11 12 23  13 14 17 18  13 8 14 15  8 20 24 25  13 21 14 15  4 9 8 25  4 9 8 12  0 8 12 15  26 10 12 23  4 6 13 25  0 27 8 20  13 21 14 18  13 14 16 17  7 13 16 17  0 26 12 23  7 13 14 16  10 11 12 23  9 10 12 19  1 2 28 20  0 2 8 20  3 13 8 15  3 13 21 15  2 3 13 21  2 3 13 8  0 26 12 15  4 7 14 16  8 11 24 23  27 8 20 24  27 8 24 23  8 11 24 25  8 11 12 25  9 8 12 25  9 11 12 25  0 27 8 23  0 8 12 23  0 1 28 20  0 28 27 20  4 13 8 25  4 13 8 14  4 7 13 14  4 8 12 14  </DataArray>
<DataArray  type="UInt32"  Name="offsets"  format="ascii">4 8 12 16 20 24 28 32 36 40 44 48 52 56 60 64 68 72 76 80 84 88 92 96 100 104 108 112 116 120 124 128 132 136 140 144 148 152 156 160 164 168 172 176 180 184 188 192 196 200 204 208 212 216 </DataArray>
<DataArray  type="UInt8"  Name="types"  format="ascii">10 10 10 10 10 10 10 10 10 10 10 10 10 10 10 10 10 10 10 10 10 10 10 10 10 10 10 10 10 10 10 10 10 10 10 10 10 10 10 10 10 10 10 10 10 10 10 10 10 10 10 10 10 10 </DataArray>
</Cells>
<CellData  Scalars="f">
<DataArray  type="Float64"  Name="f"  format="ascii">3 2 2 2 2 2 2 2 2 3 3 2 2 2 2 2 2 2 2 2 2 2 2 2 2 2 3 2 2 2 2 3 2 2 3 3 2 2 2 2 2 2 2 2 2 2 2 2 3 2 2 2 2 2 </DataArray>
</CellData>
</Piece>
</UnstructuredGrid>
</VTKFile>