<?xml version="1.0"?>
<VTKFile type="UnstructuredGrid"  version="0.1"  >
<UnstructuredGrid>
<Piece  NumberOfPoints="32" NumberOfCells="56">
<Points>
<DataArray  type="Float64"  NumberOfComponents="3"  format="ascii">1.411246688167548 0.8229637507738986 0.588954136180895  1.632405147363925 1.14834634680814 0.5552635495836769  1.65217473625621 1.124257033043466 0.9742089932219158  1.775794024887503 0.9000039850720389 0.7554440117419637  1.229206351219692 1.160190834715364 1.468546914215901  0.9248198794793943 1.157533796277712 1.31350528724392  1.388409894790153 0.9793438094792545 1.146169918058405  1.12927075251153 1.116891617068138 0.9615898563112137  1.310285011115728 1.499505520151565 1.221305217044282  1.513913159533107 1.29272925173392 1.334115922848251  1.521730041657627 0.5767379203131159 1.274706434082253  1.864806414414905 0.7091692851502488 1.17856660369761  1.734321938866167 0.9775928007803685 1.266049215340356  1.017988283394929 1.096890304312389 0.5685089787574747  1.207410232084781 1.583932669413449 0.4400434310724552  1.450279990082566 1.37026649305374 0.4012257556027022  1.471637735055848 1.344242005505187 0.6830250545439891  0.9352571762918497 1.404926263040069 0.6931304041311881  1.266959080528367 1.072837320342046 0.3070083336368682  1.438655598214023 1.384430855528377 0.9620256048829983  1.632405147363925 1.14834634680814 0.3222839555883715  1.041119345695563 0.8518276646801668 1.186872341811162  0.7610821922140668 1.480496114794606 1.212109319789605  0.6539837630963129 1.343736809428488 0.8786087193327419  1.260707342937499 0.7300631062328511 0.9419800973833657  1.220224042859429 1.573416646681003 0.780685890499228  0.9509039190911128 1.748587443335147 0.6662571852807853  1.535543153705771 1.266373027576081 0  1.07054329283585 1.684638865770407 1.1492173802839  1.284222657818734 0.8244103938606859 1.438202364894423  1.210151134424121 0.4870046897190103 1.173712518554512  0.7016393297798049 1.063836696035372 1.070733255320897  </DataArray>
</Points>
<Cells>
<DataArray  type="UInt32"  Name="connectivity"  format="ascii">0 1 2 3  4 5 6 7  4 8 6 9  10 6 11 12  13 14 15 16  13 14 16 17  18 0 1 16  0 1 2 16  2 6 9 19  18 1 20 15  2 6 7 19  18 13 15 16  2 6 11 12  4 5 6 21  22 7 23 17  24 0 2 3  18 1 15 16  24 0 2 6  0 2 6 7  7 16 17 25  2 7 16 19  24 2 3 6  2 3 6 11  14 17 26 25  27 18 20 15  14 16 17 25  28 17 26 25  4 8 6 7  0 2 7 16  24 10 6 29  24 30 21 29  10 6 29 12  2 6 9 12  6 29 9 12  7 13 23 17  18 0 1 20  7 28 17 25  4 5 8 7  7 16 19 25  22 5 7 28  24 10 30 29  18 0 13 16  4 6 21 29  5 8 7 28  8 7 28 25  8 7 19 25  22 5 8 28  7 13 16 17  4 6 29 9  0 7 13 16  8 6 7 19  8 6 9 19  24 6 21 29  22 31 7 23  22 31 5 7  22 7 28 17  </DataArray>
<DataArray  type="UInt32"  Name="offsets"  format="ascii">4 8 12 16 20 24 28 32 36 40 44 48 52 56 60 64 68 72 76 80 84 88 92 96 100 104 108 112 116 120 124 128 132 136 140 144 148 152 156 160 164 168 172 176 180 184 188 192 196 200 204 208 212 216 220 224 </DataArray>
<DataArray  type="UInt8"  Name="types"  format="ascii">10 10 10 10 10 10 10 10 10 10 10 10 10 10 10 10 10 10 10 10 10 10 10 10 10 10 10 10 10 10 10 10 10 10 10 10 10 10 10 10 10 10 10 10 10 10 10 10 10 10 10 10 10 10 10 10 </DataArray>
</Cells>
<CellData  Scalars="f">
<DataArray  type="Float64"  Name="f"  format="ascii">3 2 3 3 2 2 3 3 3 3 3 2 3 2 2 2 3 2 3 3 3 2 3 3 3 3 3 3 3 2 2 2 3 2 2 3 3 2 3 2 2 2 2 2 3 3 2 2 2 2 3 3 2 2 2 3 </DataArray>
</CellData>
</Piece>
</UnstructuredGrid>
</VTKFile>