<?xml version="1.0"?>
<VTKFile type="UnstructuredGrid"  version="0.1"  >
<UnstructuredGrid>
<Piece  NumberOfPoints="27" NumberOfCells="56">
<Points>
<DataArray  type="Float64"  NumberOfComponents="3"  format="ascii">0.703832443164323 1.296774617755608 0  1.085839958626342 1.676462627562471 0  0.815967879555884 1.820712259107823 0  0.7210652289595565 1.382696465015165 0.4268810221756049  1.266959080528367 1.072837320342046 0.3070083336368682  0.9006441312819163 1.195851894271065 0  1.325509241494877 1.487011317172708 0  1.026740274448011 1.342226116069992 0.2810816446233091  1.017988283394929 1.096890304312389 0.5685089787574747  0.9100980088585815 0.9839223753012754 0.2661356616581632  0.5811491229633505 0.8104775598327704 0.4195582311435302  0.4706916550363877 1.200155881993751 0.3061720388465  0.950903919091113 1.748587443335147 0.3702691123058184  1.207410232084781 1.583932669413449 0.4400434310724552  0.71903961092887 1.0761188253009 0  1.450279990082566 1.37026649305374 0.4012257556027022  0.8684335803860413 0.4864155127577983 0  1.116274092375622 0.7030559869568249 0.3554305840292444  0.7816643063515599 0.6162581739138655 0.6208355503410141  0.6767994715531577 0.7319793474097477 0  0.4671578611291403 1.204306292433994 0.6398323713313319  0.9352571762918497 1.404926263040069 0.6931304041311881  1.224428711902422 0.8572007005199244 0  0.2702183339099075 0.9579954471492393 0.4203232145017637  0.4172607924959916 0.9053975484695388 0  1.535543153705771 1.266373027576081 0  0.9509039190911128 1.748587443335147 0.6662571852807853  </DataArray>
</Points>
<Cells>
<DataArray  type="UInt32"  Name="connectivity"  format="ascii">0 1 2 3  4 5 6 7  3 7 8 9  3 10 11 9  0 1 3 7  1 7 12 13  0 5 9 14  1 3 7 12  4 7 8 15  1 2 3 12  16 17 18 19  4 6 7 15  3 10 8 9  6 7 13 15  3 20 10 8  7 8 13 21  22 4 5 6  3 20 10 11  4 5 7 9  23 10 11 24  22 25 4 6  1 6 7 13  10 9 17 18  7 8 13 15  0 1 5 7  3 7 8 21  3 20 8 21  10 17 18 19  5 9 14 19  22 4 9 17  10 9 17 19  4 8 9 17  0 3 5 7  25 4 6 15  1 5 6 7  0 3 9 14  22 16 9 17  10 9 19 24  16 9 17 19  10 8 9 18  3 11 9 14  0 3 11 14  4 7 8 9  3 5 7 9  22 4 5 9  8 9 17 18  9 14 19 24  22 16 9 19  22 5 9 19  0 3 5 9  0 11 14 24  11 9 14 24  10 11 9 24  12 13 21 26  3 7 12 21  7 12 13 21  </DataArray>
<DataArray  type="UInt32"  Name="offsets"  format="ascii">4 8 12 16 20 24 28 32 36 40 44 48 52 56 60 64 68 72 76 80 84 88 92 96 100 104 108 112 116 120 124 128 132 136 140 144 148 152 156 160 164 168 172 176 180 184 188 192 196 200 204 208 212 216 220 224 </DataArray>
<DataArray  type="UInt8"  Name="types"  format="ascii">10 10 10 10 10 10 10 10 10 10 10 10 10 10 10 10 10 10 10 10 10 10 10 10 10 10 10 10 10 10 10 10 10 10 10 10 10 10 10 10 10 10 10 10 10 10 10 10 10 10 10 10 10 10 10 10 </DataArray>
</Cells>
<CellData  Scalars="f">
<DataArray  type="Float64"  Name="f"  format="ascii">2 2 2 2 2 3 2 2 2 2 2 3 2 3 2 2 2 2 2 2 2 3 2 2 2 2 2 2 2 2 2 2 2 3 2 2 2 2 2 2 2 2 2 2 2 2 2 2 2 2 2 2 2 3 2 3 </DataArray>
</CellData>
</Piece>
</UnstructuredGrid>
</VTKFile>