<?xml version="1.0"?>
<VTKFile type="UnstructuredGrid"  version="0.1"  >
<UnstructuredGrid>
<Piece  NumberOfPoints="26" NumberOfCells="55">
<Points>
<DataArray  type="Float64"  NumberOfComponents="3"  format="ascii">1.43673812410744 -0.7950599575217407 3  1.523639262547009 -0.8469867907394436 2.727557798938584  1.281126403723213 -0.9064542725908143 2.578816114476334  1.191083185303006 -0.6529289547279682 3  1.021224317089319 -0.8321952982497536 2.744115519016117  1.047013801459084 -0.7987522746294097 2.360842438458281  1.157225533554486 -0.557645663691798 2.6634089496916  1.505099855798953 -0.5784556841769523 2.617920706697614  1.125838279973159 -1.176786078093569 3  1.192696005664853 -0.9064110341600677 3  1.036045472981225 -1.131598142160147 2.305939992440852  1.329644016801523 -0.7148664512826449 2.196512634839139  1.872847528621966 -0.682661284101951 2.503120042733804  1.81620445812203 -0.8244013820268373 3  0.7319793474097475 -0.676799471553158 3  0.7999369507764019 -1.017034017230526 3  1.406312500063851 -0.519018134215518 3  0.9688159024938894 -1.381403408380291 2.757528773395823  1.377007681604169 -1.444747639614252 2.604296761945696  1.480944837606072 -1.332901268234731 3  1.735674200836646 -0.9750628965753344 2.473325756265922  1.577906393046284 -1.214753271084339 2.624523532478471  1.671954826576677 -1.094273461097296 3  1.577906393046284 -1.214753271084339 2.322127980053373  0.9053975484695387 -0.4172607924959917 3  0.8314696123025456 -0.5555702330196017 2.531509163349302  </DataArray>
</Points>
<Cells>
<DataArray  type="UInt32"  Name="connectivity"  format="ascii">0 1 2 3  2 4 5 6  0 3 6 7  2 4 8 9  1 2 6 7  2 10 5 11  1 7 12 13  2 10 4 5  4 14 15 9  1 7 16 13  0 1 6 7  2 10 4 17  2 4 8 17  4 15 8 9  2 18 8 19  2 3 4 9  0 2 3 9  1 2 3 6  0 1 3 6  3 6 7 16  1 12 13 20  1 2 20 21  1 13 20 22  1 20 21 22  1 7 12 20  1 2 7 20  2 5 6 11  2 18 19 21  2 8 9 19  2 23 20 21  2 23 11 20  2 10 23 11  2 10 18 23  2 18 23 21  0 1 7 16  2 7 11 20  0 3 7 16  2 6 7 11  3 6 16 24  2 3 4 6  3 4 6 24  4 6 25 24  4 25 14 24  3 4 14 24  3 4 14 9  2 10 18 17  2 18 8 17  0 1 13 22  0 1 9 22  1 9 19 22  1 19 21 22  1 2 19 21  1 2 9 19  0 1 2 9  0 1 16 13  </DataArray>
<DataArray  type="UInt32"  Name="offsets"  format="ascii">4 8 12 16 20 24 28 32 36 40 44 48 52 56 60 64 68 72 76 80 84 88 92 96 100 104 108 112 116 120 124 128 132 136 140 144 148 152 156 160 164 168 172 176 180 184 188 192 196 200 204 208 212 216 220 </DataArray>
<DataArray  type="UInt8"  Name="types"  format="ascii">10 10 10 10 10 10 10 10 10 10 10 10 10 10 10 10 10 10 10 10 10 10 10 10 10 10 10 10 10 10 10 10 10 10 10 10 10 10 10 10 10 10 10 10 10 10 10 10 10 10 10 10 10 10 10 </DataArray>
</Cells>
<CellData  Scalars="f">
<DataArray  type="Float64"  Name="f"  format="ascii">2 2 2 2 2 2 3 2 2 2 2 2 2 2 2 2 2 2 2 2 3 2 3 3 3 2 2 2 2 2 2 2 2 2 2 2 2 2 2 2 2 2 2 2 2 2 2 3 2 2 3 2 2 2 2 </DataArray>
</CellData>
</Piece>
</UnstructuredGrid>
</VTKFile>