<?xml version="1.0"?>
<VTKFile type="UnstructuredGrid"  version="0.1"  >
<UnstructuredGrid>
<Piece  NumberOfPoints="28" NumberOfCells="54">
<Points>
<DataArray  type="Float64"  NumberOfComponents="3"  format="ascii">-1.624080463099287 -0.1727621270770202 0.5029056747682774  -1.98226447380557 -0.1800718193659471 0.3554316398759313  -1.940969068520443 -0.4580946625441093 0.486839458939381  -1.982264473805573 -0.1800718193659474 0.6182472780028307  -1.946726160601798 -0.4391160733837046 0.8111792958218693  -1.853357911672155 -0.7469099408469142 0.7649736036555974  -1.420642843664937 -0.4846101958058707 0.5578312570836884  -1.550049039632537 -0.6496605292722291 0.2853683968296907  -1.497041613195321 -0.1322815388834662 0  -1.97000629136114 -0.3045312343666396 0  -1.897725087561841 -0.6006509629603602 0  -1.643650479804342 -0.2510722380505768 0.8627116672388495  -1.964638033666885 -0.3590360694210094 1.131809366286952  -1.644974219726995 0.1468516289030477 0.3052610429514422  -1.363110819737119 0.09168499290265755 0  -2 -2.449293598294706e-16 0  -1.381450270377713 -0.5582115301166275 0  -1.518961711203538 0.07336982528669388 0.767522402488244  -1.98226447380557 0.180071819365941 1.060137157110759  -1.987591768241366 0.125982891254348 0.4868394589393813  -1.853357911672155 -0.7469099408469135 0.4148669158960601  -1.346501354169998 0.04122682333998573 0.4612535976434082  -1.245130762560976 -0.2889533303603645 0.3509780132825951  -0.9988204316776866 -0.01197635816027369 0.9202779528728253  -1.291798766716753 -0.222227216590204 0.7903288354638301  -1.784649851221481 -0.8834358993235059 0  -0.9807852804032304 -0.1950903220161286 0  -1.638711807804228 -0.06826526146068315 1.173240500731697  </DataArray>
</Points>
<Cells>
<DataArray  type="UInt32"  Name="connectivity"  format="ascii">0 1 2 3  4 2 5 6  7 8 9 10  11 4 12 3  4 0 2 3  13 8 14 15  2 7 9 10  7 8 10 16  0 2 6 7  3 17 18 19  2 7 10 20  0 21 8 22  2 5 6 20  17 23 21 24  11 0 17 24  11 0 3 17  11 3 17 18  1 13 19 15  0 21 13 8  0 17 21 13  0 6 22 24  21 13 8 14  0 17 21 24  7 25 10 20  7 25 10 16  0 6 7 22  0 2 7 9  0 1 2 9  2 6 7 20  8 22 14 26  8 22 16 26  7 8 22 16  0 3 17 19  11 12 3 18  11 17 27 18  0 21 22 24  0 1 3 19  0 1 13 19  0 1 13 15  0 1 9 15  0 8 9 15  0 7 8 9  0 7 8 22  0 17 13 19  0 13 8 15  11 12 27 18  11 0 6 24  11 0 2 6  11 4 2 6  11 4 5 6  11 4 0 2  11 4 0 3  21 22 14 26  21 8 22 14  </DataArray>
<DataArray  type="UInt32"  Name="offsets"  format="ascii">4 8 12 16 20 24 28 32 36 40 44 48 52 56 60 64 68 72 76 80 84 88 92 96 100 104 108 112 116 120 124 128 132 136 140 144 148 152 156 160 164 168 172 176 180 184 188 192 196 200 204 208 212 216 </DataArray>
<DataArray  type="UInt8"  Name="types"  format="ascii">10 10 10 10 10 10 10 10 10 10 10 10 10 10 10 10 10 10 10 10 10 10 10 10 10 10 10 10 10 10 10 10 10 10 10 10 10 10 10 10 10 10 10 10 10 10 10 10 10 10 10 10 10 10 </DataArray>
</Cells>
<CellData  Scalars="f">
<DataArray  type="Float64"  Name="f"  format="ascii">3 2 2 3 3 2 3 2 2 2 3 2 2 2 2 2 2 3 2 2 2 2 2 3 2 2 3 3 2 2 2 2 2 3 2 2 3 3 3 3 2 2 2 2 2 3 2 2 2 2 3 3 2 2 </DataArray>
</CellData>
</Piece>
</UnstructuredGrid>
</VTKFile>