<?xml version="1.0"?>
<VTKFile type="UnstructuredGrid"  version="0.1"  >
<UnstructuredGrid>
<Piece  NumberOfPoints="30" NumberOfCells="53">
<Points>
<DataArray  type="Float64"  NumberOfComponents="3"  format="ascii">-0.921697750839283 -1.168620002219665 2.287594318469468  -1.40848200968545 -1.418917326102362 2.197918156878704  -1.188907895849445 -1.599117144342569 2.304079793180102  -1.391863014225371 -1.432556183201322 2.487165755782071  -0.8751712455348578 -1.463353711535435 2.471600042955393  -0.5321608870766419 -1.398484468300908 2.503641531981524  -0.860916983567095 -1.056922184978935 2.611324509355333  -1.12411020791712 -1.278183909038757 2.663712644079244  -0.891945407144439 -1.780101424529732 2.322334187644663  -1.155760552242304 -1.626320466213263 2.604273550400086  -0.7292392180407681 -1.471181385415635 3  -1.026805441329685 -1.708017234463014 3  -0.5555702330195978 -0.8314696123025476 2.575390594315841  -1.041253869873927 -0.8410981672992764 2.273132996619828  -0.7816643063515565 -0.6162581739138699 2.628285567420904  -0.466214676280916 -1.211890401209563 2.187344616839348  -0.5419255578714477 -1.160974362821279 2.702919024237293  -0.676799471553154 -0.7319793474097507 3  -0.853420495280782 -1.453890156540273 1.485574797935731  -1.260123051423864 -1.540672376577078 1.701925022327931  -0.8919454071444386 -1.780101424529732 1.682244887223824  -1.055050645913406 -1.692919858075807 1.872541317086265  -0.9858136949204921 -1.342106789180089 1.941367150305387  -0.8509052554934184 -1.802037842608312 2.002289537434243  -0.8599070038466563 -1.217092010338265 3  -0.6559706135434473 -1.42180405776329 1.944159649815638  -0.6105578224874055 -1.21798685280362 3  -1.273765054315926 -1.529476674139142 3  -1.239106987961229 -1.557919814127574 2.007873969271844  -0.4172607924959886 -0.9053975484695405 3  </DataArray>
</Points>
<Cells>
<DataArray  type="UInt32"  Name="connectivity"  format="ascii">0 1 2 3  4 0 5 6  7 4 0 6  7 0 2 3  4 2 8 9  7 4 10 11  12 6 13 14  15 16 5 6  0 12 6 13  7 4 2 9  15 0 5 6  17 12 6 14  18 19 20 21  2 22 23 8  7 4 24 10  4 0 25 22  25 23 20 21  4 0 2 22  24 16 10 26  7 3 9 27  7 4 0 2  17 24 16 6  4 24 16 10  7 2 3 9  0 1 2 22  2 22 23 21  4 24 16 6  17 16 12 6  7 24 11 27  4 25 22 8  19 22 28 21  4 16 5 6  4 2 22 8  4 16 5 10  7 9 11 27  7 24 10 11  25 22 23 21  25 22 23 8  17 24 16 26  17 16 29 26  17 16 12 29  7 4 24 6  1 2 22 28  2 22 28 21  7 4 9 11  4 15 0 25  4 15 0 5  15 16 12 6  15 0 12 6  18 19 22 21  18 22 20 21  25 18 22 20  25 22 20 21  </DataArray>
<DataArray  type="UInt32"  Name="offsets"  format="ascii">4 8 12 16 20 24 28 32 36 40 44 48 52 56 60 64 68 72 76 80 84 88 92 96 100 104 108 112 116 120 124 128 132 136 140 144 148 152 156 160 164 168 172 176 180 184 188 192 196 200 204 208 212 </DataArray>
<DataArray  type="UInt8"  Name="types"  format="ascii">10 10 10 10 10 10 10 10 10 10 10 10 10 10 10 10 10 10 10 10 10 10 10 10 10 10 10 10 10 10 10 10 10 10 10 10 10 10 10 10 10 10 10 10 10 10 10 10 10 10 10 10 10 </DataArray>
</Cells>
<CellData  Scalars="f">
<DataArray  type="Float64"  Name="f"  format="ascii">2 2 2 2 3 3 2 2 2 3 2 2 3 3 2 2 2 2 2 3 2 2 2 3 2 3 2 2 2 2 3 2 3 2 3 2 2 2 2 2 2 2 3 3 3 2 2 2 2 3 3 2 2 </DataArray>
</CellData>
</Piece>
</UnstructuredGrid>
</VTKFile>