<?xml version="1.0"?>
<VTKFile type="UnstructuredGrid"  version="0.1"  >
<UnstructuredGrid>
<Piece  NumberOfPoints="1518" NumberOfCells="6963">
<Points>
<DataArray  type="Float64"  NumberOfComponents="3"  format="ascii">1.330479506415976 -1.287460848129669 1.794361971982151  1.511744865926014 -1.295371325138672 1.790496652577309  1.489130930515264 -1.32292648516409 2.024925591797802  1.365167048905233 -1.454464995740262 1.992310337141028  0.9391469282871734 -0.3323535734909804 0  1.073816135422762 -0.4766029536066579 0  1.189478795785053 -0.3254012404120126 0  1.087972093876657 -0.3146280092357576 0.1329204037260145  1.552948987104267 -0.4690157918581085 0.2299086180878376  1.696344945248244 -0.5318575647415316 0  1.686203305208495 -0.6206155169145419 0.1861964470429633  1.511786273277511 -0.6174073964408714 0.1649699662232268  -0.2650593980895871 -1.973893927909151 2.162530214805628  -0.2132214504610662 -1.978999520118239 2.414221083410578  -0.1980098493101548 -1.779169421985235 2.301626736492524  -0.3980072551042049 -1.959196384293901 2.326835988930807  0.3663881372527283 -1.792781858829451 2.129060049891419  0.4455347821504593 -1.78642589163278 2.279974805303299  0.4970821075246674 -1.682461290742508 2.101893222099251  0.3582900037652385 -1.61449655776665 2.169917268594275  1.972953888119611 -0.2746037822439253 1.372281606824826  1.753556668618872 -0.2402844425734547 1.339794116495772  1.821695691034513 -0.2762172420653529 1.502958776138677  1.989874603375815 -0.1028048771674748 1.356988283675049  -0.1281967199580418 -0.987373725145547 2.41631495587604  0.02122250526797501 -0.9979097656734023 2.45121364836968  -0.08566276754466014 -0.9915629538090679 2.628637484458721  -0.03508814511145705 -1.234181607604605 2.560208683308693  1.420356283688342 -0.5318978961008229 2.135450529866246  1.442171672782381 -0.4689451371130767 1.838094726211644  1.434768221059387 -0.6314786586437123 1.959283801000372  1.26322631821527 -0.5272153915546227 1.988631633479808  0.9492748357598436 -0.9332566985910621 0.7408290738700772  0.937815819469311 -1.102647719533349 0.7959480547070267  0.7575103922057984 -1.060125537924931 0.6676058906412023  0.9872683049826675 -1.053111237938998 0.5444847349455273  0.1940584179110046 -1.631225558980295 1.891478989097729  0.2444874777907739 -1.527581619328223 1.770983848432635  0.1139188858803832 -1.641199156399227 1.731456787249881  0.1510154567392156 -1.40578680598065 1.88360135627333  0.4156613510663425 -1.487897811549126 1.313572781421342  0.3193289846786915 -1.373581300646054 1.105902044370386  0.4927991527196798 -1.258523168278787 1.308214349988002  0.5706867531411715 -1.380936419396562 1.137688257441034  0.4820686491892943 -1.00566252304112 0.1677448496227296  0.6005974061314721 -1.004002113154534 0  0.5777463132391529 -0.813270173602645 0  0.6345577261480736 -1.01904956410918 0.2016308308830366  1.006006307849832 -0.5683595958046099 1.664776310289629  0.8689993211793785 -0.485357086178283 1.538725870171161  0.9155723985887951 -0.3982249868131835 1.731296738234335  1.092369912770934 -0.4450435652849185 1.518371264423775  0.214986812443252 -1.170486148147417 1.542581197411742  0.008338812497869871 -1.220785940182759 1.473076677554921  0.03940450810004126 -1.176561145292131 1.662077455211209  0.08415019162772452 -0.9917119295338113 1.612370361952588  -0.02456105649608682 -1.545381158871629 2.813450990181604  0.09293068064186535 -1.502235378127704 2.588865759886712  -0.1336289570637302 -1.632967851940928 2.604774469499667  -0.1290576803929123 -1.409556596069205 2.655863250320736  1.040824662827636 -1.224336828401725 0.8821136407857398  1.20103542161703 -1.132870935993554 0.8256141985713763  1.041800060199356 -0.9577559995488971 0.9103641019132083  1.077762257818321 -0.429436311973452 2.326150012384542  1.012364300362459 -0.5569530680897002 2.471271067869993  0.8724926663836334 -0.4788214969841664 2.402150781529155  1.064724130561205 -0.5415577075218366 2.177432930159203  1.752104875742618 -0.05968858876188873 1.473028586177865  1.674531559656813 -0.2783255192366584 1.607338238748355  1.597843291765594 -0.1834151467402114 1.450034165044036  1.147602902887175 -0.8520113565856309 1.448087500206644  1.115783979607457 -1.050743734872462 1.435101181430597  1.173433579276104 -0.955940692968117 1.250344840109433  1.29567068201842 -0.9657776583170633 1.466212515537007  1.642727351708119 -0.7422206049665738 2.758874016696019  1.873812298997199 -0.6794808624017377 2.611220198948716  1.873812298997199 -0.6794808624017377 2.789517774317368  1.747555537085385 -0.9528344798977212 2.704759182511192  1.12194232941046 -0.4347939091437015 2.798913206757407  1.309536898850833 -0.4124939578340416 2.848279628791956  1.195534905607932 -0.5314662950852643 3  1.269284037730556 -0.6183335166836017 2.759895074148354  -0.1832061687431458 -1.564012369196465 2.317113594408891  -0.210530423575884 -1.327698840273437 2.475154040203487  -0.3649567461252601 -1.430287594309965 2.336673478116044  -0.3027386021879391 -1.513893481083577 2.481636121993978  0.7810993779147622 -1.557675108088403 1.344723691523389  0.6339050975558236 -1.385137564991894 1.355730213928246  0.7127165134726851 -1.481178581662918 1.498179891489792  0.773731751348306 -1.293548104902148 1.400154052206451  1.349672813442617 -0.8019025722194608 0.1698062392283636  1.354077653020812 -0.6001716236136951 0.2175283628692621  1.347224781883485 -0.6748111837780379 0  1.209655306593875 -0.6841687331457662 0.17111603390133  1.752290853812863 -0.2751343684788647 2.447707323025287  1.652520572158292 -0.5010036112562375 2.494447725857003  1.567308176577535 -0.3348927967218178 2.439673157132977  1.715816149105904 -0.408120425466151 2.256311833426667  0.5061760276314642 -1.401970914378234 0.243521403284943  0.5533262103291426 -1.526159817178559 0.4224924224659375  0.6013351472150201 -1.667106172970119 0.2181656366843633  0.6299605382839613 -1.501023794836139 0.1663869569571431  1.737570182533355 -0.9715157643096305 2.407531607202508  1.676380403900218 -1.085993788278752 2.477037647795994  1.794335232900118 -0.8653158246848209 2.492265299088182  1.548436907979931 -0.8924469367902053 2.622454301390431  0.8766033374807528 -0.8244090094860246 1.617199812619251  0.8812379039581539 -1.057325162239809 1.665524002084752  1.091273108474896 -0.9267848746870285 1.610664343758987  0.9354354035990364 -0.85525668057191 1.845659546253837  1.700521497077588 -0.7575445960491647 0.2961494076447766  1.540242903333283 -0.807786898618012 0.5338840916949212  1.698147571393231 -0.6888127104610571 0.5173644463934461  1.539512104558685 -0.7048418155008841 0.3046766821306218  1.968265499075708 -0.3222057950500712 2.365323087401467  1.931613234521658 -0.4889367139142661 2.425050255241696  0.3986887218348294 -1.764625825400002 1.893857492681069  0.3436012160871096 -1.966158234032352 1.836103505685379  0.1638938646143626 -1.782713136959331 1.828662998511571  0.3641820995261608 -1.739140527309234 1.698570971989807  0.2609071163110839 -1.130305180666178 1.953370829131511  0.06948631636782454 -1.315234085464905 2.034626503203404  0.3520836212878346 -1.314586439269218 1.955930706081819  0.04166740742081156 -1.659363865300414 3  -0.1004864921003735 -1.719051656671131 3  0.006377997392304158 -1.699849667334724 2.698504746098431  1.118698816604077 -0.8135469008295513 0.8043049081254787  1.11970753339547 -0.9856658653427536 0.7325402925508764  1.233697227453998 -0.9009962808863928 0.922220500533351  1.151935641868731 -0.999995081142433 1.063217715410969  1.384233964198269 -0.9662209382088195 1.119596827722728  1.375685139123951 -1.088321688581227 0.8923910728584111  1.184186324817436 -1.191892213837734 1.714406797802967  0.9927774039787501 -1.190133134357797 1.512472704891142  1.052717013853522 -1.094751322456292 1.648179020550794  1.206268727950818 -1.23319859979247 1.434559051587423  0.322168480935636 -0.942236542336071 2.822125787924988  0.397519988309565 -1.132160958435575 2.636980534901825  0.231870536117921 -0.9696281244330837 2.75258570237645  0.3866389851497159 -0.921765245499063 2.726395326741664  1.034576756912664 -1.510746775731235 2.574199194180602  1.099042068410927 -1.483439215598769 2.856546390321244  0.9551956989666375 -1.514964569261353 2.802881994846034  1.148819328705722 -1.632016981152134 2.743968639526119  0.3803427281952588 -1.447752513863317 0  0.3487509593088235 -1.350196187243757 0.1565584597712112  0.5507442630318952 -1.389401099552741 0  0.3041099516435466 -1.257879031960977 0  0.9892210109579095 -0.1094409123505126 2.674813336698419  0.9892210109579096 -0.1094409123505129 2.818382873030455  1.18776382583079 -0.2192324560368077 2.790388269826422  1.148295082071797 -0.06814102087333787 2.851248847253051  1.255711816366994 -0.6545105767769815 2.199683466529624  1.408842332722904 -0.644772902158784 2.381050387029671  1.47304151645141 -0.7594199135845416 2.149035261582899  1.105018496184415 -0.3551883134547585 1.131875700136811  1.103031010932075 -0.514962316784246 1.242255576707011  1.277595405841193 -0.4752749878534175 1.268510430578075  1.271847329062857 -0.3022216036997813 1.216006952162208  0.995764331275538 0.04300546626492786 2.782541195342719  1.210918341149915 0.07421449713596903 2.788769672217608  0.9882837075629455 0.1189575134244671 3  1.409157821186557 -1.199019474092575 2.849691536527531  1.585025161737238 -1.206079026336566 2.83120156766142  1.537078046126251 -1.264502755750328 3  1.489130930515264 -1.32292648516409 2.792502090749771  1.855297154245967 -0.1399974712248709 1.868262420453068  1.768674371666342 -0.2924807629092043 1.85510130363251  1.977743557843632 -0.2259734494355638 1.9606901496116  1.778059467139556 -0.284471519500937 2.079398686728695  1.779888935054428 -0.4292093724893164 2.591206066422064  1.959961665485147 -0.3954844611110569 2.549730766061431  1.961570560806461 -0.3901806440322554 2.725735072281175  1.921316098245022 -0.5228818230355691 2.635513160395705  0.08068959717372297 -1.856492408491235 2.831376675164067  0.01793736078682118 -1.8117031198428
[...]
<CellData  Scalars="f">
<DataArray  type="Float64"  Name="f"  format="ascii">3 2 3 3 3 3 2 2 2 2 2 2 2 2 2 2 2 3 2 3 2 2 2 2 3 2 3 2 3 3 3 2 2 2 2 2 2 3 2 2 2 2 2 3 3 3 3 2 2 2 2 2 3 2 2 2 3 2 3 2 2 2 2 2 3 2 2 3 2 2 2 2 2 2 2 2 2 3 3 2 2 3 2 2 2 3 3 3 2 3 2 3 2 2 3 3 3 2 2 2 2 3 3 2 2 3 3 2 2 2 2 2 3 2 2 3 2 2 2 2 3 3 2 2 3 3 3 3 2 2 3 2 2 3 2 2 3 3 2 3 2 2 2 2 2 3 2 2 3 2 3 2 2 3 3 3 2 2 3 2 3 3 2 3 2 2 3 3 2 3 3 2 3 2 3 2 2 3 2 3 2 2 2 3 2 3 3 2 3 2 2 2 3 2 2 2 2 2 2 2 2 2 3 2 2 3 3 3 2 3 3 3 2 3 2 3 2 3 2 3 3 2 2 2 3 2 3 3 3 3 3 3 2 2 2 2 3 3 2 3 2 2 2 2 3 2 2 2 2 3 2 2 3 2 3 3 3 3 2 2 3 2 2 3 2 2 3 3 3 3 2 2 2 3 2 3 3 2 3 2 3 3 3 3 2 3 2 3 2 3 2 2 2 2 3 2 3 2 3 2 2 2 2 3 2 3 2 2 2 2 3 3 2 2 2 2 2 2 3 3 2 3 2 2 3 2 2 3 3 3 2 2 2 2 3 2 3 2 2 3 2 3 2 2 2 2 2 2 2 3 3 2 2 3 2 2 2 2 2 2 2 3 2 2 3 2 2 2 3 2 2 3 2 3 3 2 3 3 3 3 2 2 2 2 3 2 2 2 2 2 3 3 2 2 3 3 2 3 3 2 2 2 3 3 2 2 2 2 3 3 2 3 3 2 3 2 2 2 2 3 2 2 3 3 2 3 2 3 2 2 2 2 2 3 2 2 3 3 3 2 2 2 2 2 2 3 2 3 2 2 2 3 2 3 3 2 2 2 2 3 3 3 3 2 3 2 2 3 2 2 2 2 3 3 2 2 2 2 3 2 2 2 2 2 2 3 2 2 2 2 2 2 2 2 2 3 3 2 2 2 2 3 3 2 3 2 3 2 3 2 3 2 2 2 3 2 2 2 2 3 2 3 3 2 2 2 3 2 2 2 2 2 2 2 2 2 2 2 2 2 2 2 3 3 2 2 3 2 3 3 3 2 2 2 2 2 2 2 2 2 2 2 2 3 3 2 2 2 2 2 3 2 3 3 3 2 3 2 2 3 3 2 2 2 3 2 3 3 2 3 2 2 3 3 2 3 2 2 3 2 2 3 2 2 2 2 2 2 2 2 2 3 2 2 2 2 3 3 3 3 2 2 2 3 2 3 3 3 2 2 3 2 3 3 2 2 3 2 2 3 2 2 2 2 2 3 2 3 3 2 2 2 2 3 2 2 2 2 2 2 2 2 3 3 2 3 3 3 3 3 2 3 3 2 2 2 3 2 2 2 2 2 3 2 2 2 2 2 2 3 3 2 3 2 3 3 2 2 3 2 3 2 2 2 3 2 2 3 2 2 3 2 2 2 2 3 3 2 2 2 2 3 2 2 2 3 2 3 2 3 2 2 3 2 3 2 2 2 3 2 3 2 3 3 2 2 2 2 2 2 2 3 2 2 2 2 3 3 3 2 2 2 2 2 2 3 2 3 3 2 2 3 2 2 3 3 3 2 3 2 3 2 2 2 2 3 3 3 2 2 2 2 3 3 3 3 2 3 3 3 2 3 2 2 3 2 2 3 2 2 2 2 2 2 2 2 2 3 2 3 3 3 3 3 2 2 2 3 2 2 3 2 2 2 3 2 2 2 2 2 3 2 2 2 2 2 2 3 2 2 2 3 3 3 2 2 2 2 2 3 3 3 2 2 3 2 3 3 3 2 2 2 3 3 3 2 3 2 3 2 2 3 3 2 2 3 2 2 2 3 3 2 2 3 3 2 3 2 2 3 3 2 2 2 2 3 2 3 2 2 2 3 2 3 3 3 3 2 2 3 2 3 2 2 3 2 3 3 2 2 2 2 2 3 2 3 3 3 3 3 2 2 3 3 2 2 3 2 2 2 2 2 3 3 3 2 3 2 2 3 2 2 2 2 2 2 2 3 2 2 2 2 3 2 2 3 2 2 2 2 3 2 2 2 2 2 2 2 3 2 2 2 3 2 3 3 3 3 3 2 2 2 2 2 3 2 3 2 3 3 2 3 3 2 2 2 2 3 3 3 2 2 2 2 2 2 2 3 3 2 2 3 2 3 2 2 3 2 2 2 3 3 2 2 3 2 3 2 2 3 3 2 2 2 2 2 3 3 2 3 3 3 2 2 3 2 2 3 2 2 2 3 3 2 3 2 3 3 2 3 2 2 2 2 2 3 2 3 2 3 3 2 3 3 3 2 2 3 3 3 3 3 2 3 3 2 3 3 3 3 2 3 2 2 3 2 2 3 2 2 2 3 2 2 3 3 2 2 2 3 2 3 2 2 2 3 3 3 3 2 2 2 2 2 2 2 2 3 3 3 2 2 2 2 2 2 2 2 2 2 2 2 2 2 2 2 3 2 2 2 3 2 2 2 2 3 2 3 3 2 2 3 2 2 3 2 3 3 3 2 2 2 3 2 2 2 3 2 2 2 2 2 3 2 2 2 2 2 2 2 3 3 2 2 2 3 2 2 3 3 2 2 2 2 2 3 2 3 2 2 3 3 2 2 3 3 2 3 2 3 3 2 2 2 2 2 3 2 2 2 2 2 2 2 2 2 2 2 2 2 2 2 3 2 2 2 3 2 2 2 3 2 2 3 3 3 3 2 2 2 2 2 3 3 2 2 3 3 3 3 3 3 2 3 2 2 2 3 3 3 2 3 3 3 2 2 2 2 3 2 2 2 3 3 3 3 2 3 3 2 2 3 2 2 3 2 2 2 3 3 3 3 2 2 3 3 2 2 2 3 2 3 2 2 3 2 2 2 2 2 2 3 3 2 2 2 3 2 3 2 2 2 2 2 2 2 2 2 2 2 2 2 3 2 3 2 2 3 2 2 3 2 2 2 3 3 3 2 2 2 2 3 3 3 2 3 2 2 2 3 2 2 3 2 2 2 2 3 2 3 3 3 3 3 2 3 3 3 2 2 2 2 2 2 2 3 2 3 3 3 3 3 3 2 2 2 2 2 2 3 2 2 3 2 2 2 3 2 3 2 2 3 2 3 2 2 3 3 3 2 3 3 3 2 3 2 3 2 2 2 3 2 3 2 2 2 2 3 2 2 3 3 3 2 2 2 3 3 2 3 3 2 2 2 3 2 3 3 2 3 3 3 2 2 3 2 2 2 3 3 3 3 2 3 3 2 2 3 2 2 2 2 2 2 2 2 3 2 2 2 2 2 2 3 3 3 3 2 2 2 2 2 3 2 2 2 2 3 3 3 3 3 2 3 3 2 2 2 2 2 3 2 2 2 3 2 3 2 3 2 2 2 2 2 2 3 2 2 2 2 3 3 2 2 3 3 2 2 3 3 2 3 2 2 2 2 3 2 2 2 2 2 3 2 2 2 2 2 3 3 3 3 3 2 2 2 3 3 3 2 2 3 2 3 2 3 3 3 2 3 3 3 2 3 2 3 3 3 2 2 2 3 3 2 3 2 2 2 2 3 2 3 2 2 3 2 3 3 2 2 3 2 2 2 2 2 2 2 3 2 2 2 2 2 2 2 2 2 2 2 2 3 2 2 2 2 3 3 3 2 3 2 3 3 2 2 2 2 2 2 3 2 2 3 2 2 3 2 3 3 2 2 2 2 2 3 3 2 3 2 2 3 3 2 2 2 2 2 3 2 3 3 2 3 3 2 2 3 3 3 2 2 3 3 3 3 2 2 2 2 2 2 2 2 3 3 3 3 2 2 2 3 2 2 3 3 3 2 2 2 2 2 2 2 2 3 2 2 3 3 2 2 2 2 3 3 2 2 2 3 2 2 3 3 3 2 2 3 3 2 2 3 2 2 2 2 2 2 2 2 2 2 2 3 2 3 2 2 2 3 2 3 2 2 2 2 2 3 2 3 2 2 2 2 2 2 3 2 2 2 2 3 3 2 2 3 2 2 3 2 3 3 2 2 2 2 2 3 2 2 2 3 2 2 2 3 2 2 2 3 2 2 2 2 3 2 3 2 3 2 3 3 2 2 2 3 3 2 3 2 2 2 3 2 2 3 2 3 2 2 2 3 2 3 2 2 2 3 2 2 3 2 2 2 2 3 3 3 2 3 2 2 2 2 3 2 2 2 2 2 3 3 2 2 2 3 2 3 3 2 2 2 2 2 2 3 2 3 3 3 2 3 3 2 2 3 3 2 2 3 2 2 2 3 2 3 3 2 2 3 3 2 2 2 2 2 3 3 2 2 3 2 2 2 3 2 3 3 3 2 2 2 2 2 2 2 2 2 2 3 3 3 2 3 2 3 2 2 2 2 3 2 2 2 3 3 2 2 2 3 2 3 2 2 2 2 2 2 2 2 3 2 3 2 2 2 2 3 2 2 3 2 2 3 3 3 2 2 2 2 2 2 3 2 3 3 3 3 3 3 3 2 2 2 3 2 2 2 2 3 2 2 2 3 3 2 3 2 3 3 2 2 2 2 2 2 3 2 2 2 3 3 2 2 3 2 2 2 3 2 2 3 2 3 3 3 2 2 2 2 2 3 3 2 2 2 3 2 2 2 2 3 2 3 3 3 3 3 2 2 2 2 3 2 2 3 2 2 2 3 2 2 2 2 2 2 3 2 2 3 2 2 2 3 3 3 2 2 2 2 3 3 2 2 3 3 2 3 2 2 3 3 3 2 3 2 2 2 2 3 2 2 3 2 2 2 2 2 2 2 3 2 2 2 2 2 3 2 2 2 2 3 2 2 3 2 2 3 3 2 3 2 2 3 2 2 2 2 3 3 3 2 2 3 3 2 2 2 2 2 2 3 3 3 2 2 2 3 2 3 2 3 3 2 2 3 2 2 2 2 3 2 2 3 2 3 3 2 3 3 2 3 2 3 2 2 2 3 3 2 2 2 3 2 3 3 2 3 2 3 2 2 3 2 3 2 3 2 2 3 3 3 2 2 2 2 2 2 2 2 2 2 2 2 2 3 2 2 3 2 2 2 2 3 2 2 2 3 3 2 3 3 3 3 2 2 3 3 3 2 3 2 2 3 2 2 2 2 3 3 2 3 2 2 2 2 3 3 2 2 3 2 3 2 2 3 2 3 2 2 2 2 3 2 3 2 2 2 3 3 3 2 2 2 2 2 2 2 3 2 2 2 2 3 2 2 3 3 2 2 3 2 2 3 3 2 3 2 3 3 2 2 3 2 2 2 2 2 2 2 2 3 2 2 3 2 2 2 2 2 2 2 3 2 2 3 2 3 2 2 2 2 2 2 3 2 2 3 2 2 3 2 2 3 2 3 3 2 3 2 2 2 3 3 2 2 3 3 2 2 3 2 2 2 3 3 2 3 2 2 3 2 3 2 3 2 3 2 2 3 2 2 2 3 2 2 3 2 3 3 2 3 2 2 2 3 2 3 3 3 3 3 2 2 2 3 2 2 2 3 2 2 3 2 2 2 2 2 2 3 2 2 3 2 2 2 2 2 3 2 2 2 2 3 3 2 2 2 2 2 2 3 3 2 2 2 3 3 3 2 2 2 3 3 2 3 2 3 3 3 2 2 3 2 3 3 2 3 2 2 2 2 2 2 2 2 2 2 3 3 3 3 2 2 2 3 3 2 2 3 3 3 2 3 2 3 2 2 3 2 2 2 2 2 2 2 3 2 2 3 2 3 3 3 2 2 3 3 3 2 3 2 2 2 2 3 2 2 2 3 2 2 2 2 3 3 3 3 2 2 2 3 3 3 2 2 3 2 2 2 2 2 3 2 3 3 3 3 3 2 3 2 3 2 3 3 3 3 3 2 2 3 3 2 3 3 3 2 2 2 2 2 3 2 2 2 3 3 2 2 3 3 2 3 2 2 3 2 2 2 3 3 2 2 3 3 3 3 3 3 3 2 2 2 3 2 3 3 2 3 2 2 2 3 3 2 2 3 2 2 2 2 2 2 3 2 2 2 2 3 3 3 3 3 2 2 3 3 3 3 2 2 2 3 2 2 3 2 2 3 2 2 2 3 3 3 2 2 2 2 2 2 2 3 2 2 2 2 3 2 3 2 2 2 2 3 3 3 3 3 3 2 2 2 2 2 2 2 3 3 3 2 3 2 3 2 2 3 3 2 2 3 3 2 2 2 2 3 2 3 3 2 2 3 2 2 3 2 2 2 2 2 2 3 2 3 3 2 2 2 3 2 3 3 2 2 3 3 3 2 3 3 2 2 3 2 3 2 2 2 3 3 3 3 3 3 2 3 2 2 3 2 2 3 3 2 3 2 2 3 3 3 3 3 2 3 3 3 2 3 3 2 3 3 2 3 2 2 2 2 2 2 2 2 3 2 2 3 2 3 2 3 3 2 2 2 2 2 3 2 2 3 3 3 3 2 2 3 2 2 2 2 3 2 3 3 2 3 3 3 2 3 2 2 2 2 2 3 2 2 2 2 2 3 2 2 2 3 3 3 3 2 2 2 2 3 3 3 2 2 2 2 2 2 2 2 2 2 3 3 3 2 2 2 2 2 3 2 2 2 2 3 3 2 2 3 2 2 2 2 2 3 2 2 3 2 3 2 3 2 3 3 3 2 2 2 3 2 2 2 2 3 2 2 2 2 3 2 2 3 3 2 2 3 3 3 3 2 2 3 2 3 2 2 3 3 2 3 2 2 3 2 2 2 2 2 3 2 2 3 2 2 2 2 2 3 2 2 2 3 2 2 3 2 2 3 2 2 2 2 3 2 3 3 3 2 2 2 2 2 2 2 3 2 2 3 3 2 2 3 2 3 2 2 3 2 3 2 3 2 2 2 2 2 2 2 2 3 3 2 2 2 2 2 2 3 3 2 2 2 2 2 3 2 2 3 2 2 2 2 2 2 2 2 2 3 3 2 2 2 3 2 3 3 3 3 3 2 3 3 3 2 3 2 3 2 2 3 3 3 2 2 3 3 3 3 3 2 2 3 3 3 3 2 2 2 2 3 2 2 2 2 3 2 3 2 3 2 2 3 3 2 3 3 3 3 2 2 2 2 2 2 2 3 3 2 2 3 3 2 2 2 3 3 3 2 2 3 2 2 2 2 2 2 2 2 2 2 3 2 3 3 3 3 2 2 3 2 3 2 2 3 3 3 2 2 2 3 2 2 2 2 2 2 2 2 2 2 3 3 2 3 2 2 2 2 3 2 2 2 2 3 2 3 3 2 2 2 3 2 2 2 2 3 2 2 3 3 2 3 3 2 2 3 3 2 2 2 2 2 2 3 3 2 2 2 2 2 3 2 3 3 3 3 2 3 3 3 2 2 2 3 3 2 3 3 2 3 2 2 2 2 3 2 2 2 2 2 2 2 2 3 2 3 3 2 2 2 2 3 2 2 3 3 3 2 2 2 2 3 2 2 2 2 2 2 2 2 3 3 3 2 2 2 2 3 3 3 3 3 3 3 2 2 3 2 3 2 2 2 3 3 3 2 2 2 2 2 2 3 2 2 2 2 2 3 2 3 3 3 3 3 2 2 3 2 2 2 2 3 3 3 2 2 2 2 2 2 3 2 3 3 2 2 2 2 3 3 2 3 2 3 3 3 2 3 2 2 3 2 2 2 3 3 3 2 2 3 3 3 3 2 3 3 3 3 2 2 2 2 2 2 2 2 2 3 3 2 3 2 2 2 2 3 2 2 2 2 2 3 2 2 2 2 3 2 2 2 2 2 3 2 2 2 2 2 2 2 2 2 2 2 2 3 2 3 2 3 2 2 2 3 3 3 2 3 3 2 2 2 2 3 3 3 3 2 2 3 3 2 3 2 2 3 2 2 2 3 2 2 2 2 2 2 2 2 2 2 3 2 2 2 3 2 2 2 2 2 2 3 3 3 3 3 3 3 3 3 2 2 3 2 2 2 2 2 2 2 2 2 2 3 3 2 2 2 2 2 2 2 3 2 2 2 2 3 3 2 3 3 3 3 2 2 3 3 2 3 2 3 2 2 2 2 2 3 2 3 3 2 3 3 2 2 3 2 3 3 3 3 2 2 3 2 3 2 2 2 3 2 2 2 2 2 2 2 3 2 2 2 2 2 3 2 2 2 2 3 2 3 2 3 2 2 2 2 2 2 3 3 3 2 2 2 2 2 3 3 3 3 2 3 2 2 2 2 2 2 3 3 3 2 3 3 3 2 3 2 2 3 2 3 3 3 3 3 2 2 3 3 3 2 3 3 3 2 3 3 3 3 3 3 3 3 2 3 2 2 2 2 2 3 2 2 3 2 2 2 3 2 3 3 2 2 3 3 3 3 2 2 2 2 2 3 3 2 2 2 3 2 3 2 2 2 2 3 2 3 2 2 2 2 3 2 2 3 2 2 2 2 2 2 2 2 2 2 2 2 2 2 3 2 3 3 3 3 3 2 3 2 2 2 2 2 2 2 2 3 2 2 3 2 3 2 3 3 2 2 3 2 2 3 3 3 3 3 2 2 3 3 3 3 3 2 3 3 3 2 3 2 3 2 2 2 3 3 2 2 3 2 3 3 3 3 3 3 3 2 3 2 3 2 2 2 3 2 2 2 2 2 2 2 3 3 3 3 3 2 2 2 3 2 2 3 2 2 2 2 3 2 3 3 3 2 3 3 3 3 2 3 3 3 2 3 3 3 3 3 3 3 3 2 3 2 2 3 3 2 2 2 2 2 3 2 3 2 2 2 2 2 2 2 2 2 2 3 2 2 2 2 2 2 2 2 2 3 2 2 2 2 2 2 2 2 2 3 2 3 3 2 2 2 2 2 2 3 2 2 3 2 3 2 2 2 2 3 3 2 2 2 2 3 3 3 2 2 3 2 2 3 3 2 2 3 2 3 3 2 3 2 2 2 3 2 2 2 2 3 2 2 2 2 2 2 3 2 2 2 2 2 2 2 2 2 3 3 3 3 2 3 2 2 3 2 2 3 2 2 2 2 2 2 2 2 3 2 2 2 2 3 2 2 2 2 3 3 3 3 3 2 2 2 3 2 2 2 2 2 3 2 2 3 3 3 2 2 2 2 3 2 3 3 2 3 3 2 2 2 2 2 3 2 2 2 2 2 2 2 3 3 2 2 2 2 3 3 3 2 2 2 2 2 2 2 2 3 3 2 2 2 3 3 3 3 2 3 3 3 2 3 3 2 3 3 3 2 3 2 2 3 2 3 2 3 3 3 2 2 2 3 3 2 3 2 3 2 3 2 2 2 3 2 3 3 2 2 2 2 2 2 2 3 2 2 3 2 3 3 2 2 3 2 2 3 2 2 3 3 2 2 2 3 2 2 2 2 2 2 2 2 3 3 3 3 3 2 2 3 3 3 2 2 2 2 2 2 2 2 3 3 2 2 2 2 2 2 3 2 2 2 2 2 2 2 2 2 2 2 2 2 2 3 2 2 2 3 3 2 3 2 2 2 2 2 2 2 2 2 2 2 2 2 2 3 3 3 3 3 3 3 3 3 2 2 2 2 2 2 3 2 2 2 2 2 2 2 2 2 2 2 2 2 2 2 3 2 2 2 3 3 2 2 3 3 3 3 3 3 3 3 3 3 3 2 3 3 3 3 3 3 3 3 3 2 2 3 3 3 2 2 2 2 2 2 2 2 2 3 2 2 2 2 2 2 3 3 3 2 2 2 2 2 3 2 3 2 2 3 2 3 3 3 3 3 3 2 2 2 3 3 3 3 2 3 3 3 2 2 2 3 3 3 3 2 2 3 3 2 2 2 2 2 2 2 3 3 3 2 2 2 2 2 3 2 2 2 3 3 3 3 3 3 3 3 2 3 2 3 3 2 2 3 3 3 3 3 3 2 2 2 2 2 2 2 2 3 3 2 2 3 3 3 3 2 2 2 2 3 2 2 2 3 3 3 3 2 2 2 2 3 2 2 2 2 3 2 2 2 2 2 3 3 3 3 3 2 3 2 2 2 2 2 3 2 2 3 3 3 2 3 2 2 2 2 2 3 3 3 3 2 2 3 2 2 2 2 2 2 2 2 2 2 2 2 2 2 2 2 3 3 3 3 2 2 2 3 3 3 3 3 3 2 3 2 2 3 2 2 2 2 2 2 3 3 2 3 2 2 2 2 3 2 2 2 2 2 2 3 3 2 3 2 2 2 2 3 3 2 2 2 2 2 2 2 2 2 2 3 3 3 3 3 3 3 3 3 2 2 3 3 2 2 2 2 2 3 2 2 3 2 2 3 2 3 2 2 2 2 2 3 3 2 3 3 2 2 2 2 3 2 2 3 2 3 2 3 2 3 3 2 2 2 2 2 2 2 2 3 2 2 2 2 3 3 3 3 2 3 3 2 2 3 2 3 3 3 3 3 3 3 3 2 3 2 2 2 2 2 3 3 2 2 2 2 2 2 3 3 3 3 3 3 3 2 2 2 3 2 3 3 2 2 2 3 3 3 3 3 3 3 2 3 3 3 2 3 3 3 3 3 3 3 2 2 2 2 2 2 2 2 2 2 3 3 2 2 2 3 3 2 2 3 3 2 2 3 3 2 3 3 3 3 3 2 3 2 2 2 2 3 3 3 2 2 2 2 2 2 2 2 2 2 2 3 2 2 3 2 2 2 2 3 2 2 2 3 3 3 3 2 2 2 2 2 2 3 3 2 2 3 3 2 2 2 3 3 2 2 2 2 2 3 2 3 2 2 2 3 3 2 3 2 2 2 2 2 3 2 2 2 2 2 2 2 2 2 3 3 3 2 2 3 2 3 3 3 2 3 3 3 3 3 3 3 3 2 2 2 2 2 2 2 2 3 3 2 2 2 2 2 2 2 2 2 2 2 2 2 2 3 3 2 2 2 2 3 3 3 2 2 2 2 2 2 2 2 3 3 3 3 3 3 2 2 2 2 2 2 2 2 2 2 3 2 2 2 2 2 2 3 3 3 2 2 2 2 2 2 2 2 2 2 2 2 2 2 2 2 2 3 2 3 3 3 2 2 3 3 3 3 3 2 2 2 2 3 3 3 2 2 2 2 2 2 2 2 2 3 2 3 3 2 2 2 2 2 2 3 2 2 2 2 2 2 3 3 3 3 3 3 3 3 3 2 2 2 2 2 2 2 2 2 2 3 2 2 2 2 2 2 2 3 3 3 3 3 3 3 3 2 3 2 3 2 2 3 2 2 2 2 2 3 3 2 2 3 3 3 2 2 3 2 2 3 3 3 3 2 2 2 2 2 3 2 2 3 2 3 3 3 3 2 3 3 3 2 2 2 3 3 2 2 2 2 2 2 2 2 2 2 2 2 2 2 2 2 2 2 2 2 3 3 2 2 2 2 2 2 3 2 3 3 3 2 3 2 3 3 3 2 3 2 2 3 2 3 3 3 3 3 3 3 3 3 2 3 3 3 3 3 3 3 3 3 3 3 3 3 3 3 2 2 2 2 2 2 2 2 3 3 3 3 2 2 2 2 2 3 2 3 3 3 3 3 3 3 3 2 2 2 3 2 3 3 3 3 3 3 3 3 2 3 2 2 2 2 2 2 2 2 2 2 2 2 2 2 2 3 2 2 2 3 2 3 2 2 3 3 3 3 3 3 3 3 3 2 2 2 2 3 2 2 2 2 2 2 2 2 2 2 2 2 2 2 2 2 2 2 2 2 2 2 2 2 2 2 2 2 2 2 2 3 3 3 3 3 2 2 2 3 3 3 2 2 2 2 3 2 2 2 2 2 2 2 2 2 2 2 2 2 2 3 3 3 3 3 3 3 3 3 2 2 2 2 2 2 3 2 3 3 2 2 3 3 3 2 2 2 2 2 3 3 3 3 3 2 2 2 2 2 3 3 3 3 3 3 3 3 2 2 3 2 2 2 2 2 2 3 2 2 2 2 2 2 2 2 2 2 3 2 3 3 2 2 2 2 2 2 2 2 2 3 2 2 2 2 3 3 3 3 3 2 2 2 2 2 3 3 2 3 3 2 3 2 2 3 2 2 3 2 2 2 2 2 3 3 2 2 2 2 2 2 2 2 2 2 3 2 2 2 2 2 3 2 2 2 2 2 3 2 2 2 2 3 3 2 2 2 2 2 2 2 2 2 2 2 2 2 3 3 3 3 3 3 3 3 2 2 2 2 3 2 3 3 2 2 2 2 2 2 2 2 2 2 2 3 3 3 3 3 3 2 2 2 2 2 2 2 2 2 2 2 3 3 3 3 2 2 2 3 3 3 3 3 3 3 3 3 2 2 2 2 3 3 3 3 2 2 2 2 2 2 2 2 2 2 2 2 2 2 3 3 2 2 2 2 2 2 2 2 2 3 2 2 2 3 3 3 3 3 3 3 3 3 3 3 3 3 2 2 3 3 2 2 2 2 3 2 2 2 2 2 2 2 2 2 2 2 3 3 3 3 2 3 3 2 2 2 3 3 3 3 3 3 3 3 2 2 2 2 2 3 3 3 2 2 2 2 2 2 2 2 2 2 2 2 2 2 3 2 2 2 2 2 2 2 2 2 2 2 2 2 2 2 2 2 3 3 3 3 3 3 3 2 2 3 3 2 2 2 2 2 2 2 3 3 3 3 3 3 3 3 3 3 3 3 3 2 3 3 3 3 2 2 2 2 2 3 3 3 3 3 3 3 3 3 3 2 2 3 2 2 2 2 3 3 3 2 3 3 3 3 3 3 3 3 3 3 3 3 3 3 2 2 3 2 2 2 2 2 2 3 3 3 3 3 3 3 3 3 3 3 2 2 3 3 3 3 3 3 3 3 2 2 2 2 3 2 2 2 2 2 3 3 3 2 3 2 2 2 3 2 2 3 3 3 3 3 3 2 2 2 3 3 3 3 3 2 2 2 2 3 3 2 2 2 2 2 2 2 2 2 2 2 2 2 2 2 3 3 3 3 3 3 3 3 2 2 2 3 3 3 3 2 2 2 2 2 2 2 2 2 3 2 2 2 2 2 2 3 3 3 3 3 3 3 3 3 3 3 3 3 3 2 3 3 3 2 2 2 2 2 2 2 2 3 3 3 2 2 2 2 2 2 2 2 2 2 2 3 3 3 3 3 3 3 3 3 3 3 3 2 2 3 2 2 2 2 2 2 2 2 2 2 2 2 2 2 2 2 2 2 3 3 2 2 2 2 2 2 3 2 2 2 2 2 2 2 2 2 2 2 2 2 3 3 3 3 2 2 2 2 2 2 2 2 2 2 2 2 2 2 2 2 2 2 2 2 3 3 3 2 2 3 2 2 2 3 3 3 2 2 3 2 2 2 2 2 2 2 2 3 2 2 2 2 2 2 2 2 2 2 2 2 2 2 2 2 2 2 2 2 2 2 2 2 2 2 2 2 2 2 2 2 2 2 2 2 2 2 2 3 3 3 3 3 3 3 3 3 3 3 3 2 3 2 2 2 2 3 3 3 3 3 3 2 2 3 3 3 3 2 3 3 3 3 3 3 3 3 2 2 3 3 3 3 3 2 2 2 3 3 2 2 2 2 2 2 2 2 3 2 3 2 2 2 2 2 2 2 2 2 2 2 2 2 2 2 2 3 3 3 3 3 3 2 2 2 2 2 2 2 2 2 2 2 2 2 3 3 3 2 3 3 2 3 3 3 3 2 2 2 2 2 2 2 3 2 2 2 2 2 2 2 2 2 2 2 2 2 2 2 2 2 2 2 2 2 2 2 2 2 2 2 2 2 2 2 3 3 2 2 2 2 2 2 3 2 3 2 2 2 2 2 2 2 3 3 3 3 3 3 3 3 3 3 3 3 2 2 2 2 2 2 2 2 2 2 2 2 3 3 3 3 3 3 3 3 3 3 3 3 3 3 2 2 2 2 2 2 2 2 2 2 2 3 3 3 3 3 3 2 2 2 2 2 2 2 2 2 3 2 2 2 2 2 2 2 2 2 2 2 2 2 2 3 3 3 3 3 2 3 2 3 2 2 2 2 2 2 2 2 2 2 2 3 3 3 3 3 3 3 3 2 2 2 2 3 3 3 3 2 2 3 2 2 2 2 2 3 3 3 3 2 2 2 2 2 2 3 3 3 2 3 3 2 2 2 2 2 2 2 2 2 2 2 2 2 2 2 2 2 2 2 2 2 3 2 3 2 2 2 2 2 2 3 3 3 3 3 3 2 2 2 2 2 2 2 2 2 2 2 2 3 3 3 3 3 3 3 2 3 3 3 3 3 3 3 2 2 3 2 3 2 3 3 3 3 2 2 2 2 2 2 2 2 2 2 3 3 3 3 3 3 3 3 3 3 3 3 3 3 3 3 2 2 2 2 2 2 2 2 2 2 2 3 3 3 3 3 3 3 3 3 3 3 2 2 2 2 2 2 2 2 2 2 2 2 2 3 2 2 2 2 2 3 3 2 2 2 2 2 2 2 2 2 2 3 2 2 2 2 2 2 2 2 2 2 2 2 2 2 2 2 2 2 2 2 2 2 2 2 2 2 2 2 2 2 2 2 2 3 2 2 3 2 3 3 3 3 3 3 3 3 3 3 3 2 2 2 2 2 3 3 2 2 2 2 2 2 2 2 2 2 2 2 2 2 2 2 2 2 3 3 2 2 2 3 3 3 3 2 2 3 3 3 3 3 3 2 2 3 2 2 2 3 2 2 3 3 2 2 2 3 3 3 3 3 3 3 3 3 3 3 3 3 3 2 2 2 2 2 2 2 2 2 2 2 2 2 2 2 2 2 2 3 3 3 3 3 3 3 3 3 3 3 3 3 3 3 3 3 3 3 3 3 3 3 3 3 2 3 3 3 3 3 3 3 3 3 3 3 3 3 2 2 2 2 2 2 2 2 2 2 2 2 2 2 2 2 2 2 2 2 2 2 2 2 2 2 2 2 2 2 2 2 3 3 2 2 2 2 2 2 2 2 2 2 2 3 3 3 3 3 3 3 3 3 3 3 3 3 2 2 3 3 3 3 3 2 2 2 2 2 2 3 3 3 3 3 2 2 2 2 2 2 2 3 3 3 3 3 3 3 3 3 3 3 3 3 3 3 3 3 2 2 2 2 2 2 2 2 2 2 2 2 2 2 2 2 2 2 2 2 2 2 2 2 2 2 2 2 2 2 2 2 2 3 3 3 3 2 2 2 3 3 3 2 3 2 2 2 2 2 3 3 2 2 2 2 2 2 2 2 2 2 2 3 3 3 3 3 3 3 3 3 3 3 3 3 3 2 2 3 3 3 3 3 3 2 2 2 2 2 2 2 2 2 2 2 2 2 2 2 2 2 3 3 2 2 2 3 3 3 3 3 2 2 2 2 2 2 2 2 2 2 2 2 2 3 2 2 2 2 2 2 2 2 2 3 2 2 2 3 3 3 3 3 3 3 3 3 3 3 3 3 3 3 3 3 3 3 2 2 2 2 2 2 2 2 2 2 2 2 2 2 2 3 2 2 3 3 2 2 2 2 2 2 2 3 2 2 2 2 2 2 3 3 3 3 2 3 3 3 3 2 2 2 3 3 3 3 3 3 3 3 3 3 3 2 2 2 2 </DataArray>
</CellData>
</Piece>
</UnstructuredGrid>
</VTKFile>