<?xml version="1.0"?>
<VTKFile type="UnstructuredGrid"  version="0.1"  >
<UnstructuredGrid>
<Piece  NumberOfPoints="28" NumberOfCells="54">
<Points>
<DataArray  type="Float64"  NumberOfComponents="3"  format="ascii">-1.507577376660981 0.8231364920143988 2.048252101852508  -1.218231011818699 0.5181979106001584 2.02333925239462  -1.367558477847229 0.6445551758769376 2.337856785046428  -1.638966401215254 0.4151887879065263 2.165380235642512  -0.8314696123025459 0.5555702330196011 2.237427138497466  -1.226372019819206 0.3270480739075828 2.370012777508555  -0.965058522091939 0.246934496227205 2.15304399136757  -1.230947643491196 0.8176538316399466 1.805737396756329  -1.458253475485442 0.7179109713450691 1.446858482212952  -1.472188914050033 0.3488894112955785 1.813515171551642  -1.25543923261207 0.4266477155525202 1.530718952541371  -1.909045548548626 0.5633324043654051 2.412625223397536  -1.672031258210054 1.094130467568752 2.235026396344403  -1.823856666218048 0.8100851076195585 2.602030043929778  -1.681438847184343 0.02209342104386963 1.848541819215936  -1.418270870718573 0.08770913575380102 2.157018349698728  -1.072417303205681 0.7889984600428528 2.264878008245959  -1.979306087000891 0.2101088246663102 2.015075104935846  -1.638874003421083 1.140464022895973 1.869087621001219  -1.855990721658378 0.7382307294742523 1.965992734352773  -0.9128204895243113 0.4033734465540432 1.848051248605139  -1.160136507076256 1.085340793162865 2.131518943889536  -1.772518719756024 0.9061316499814949 1.723462302473687  -1.649275819615228 0.200243567272196 1.535775802024003  -1.378646892471328 0.9857052500752941 2.377250895472625  -1.939082293579585 0.4643145259638104 1.830641441407223  -0.7247392452730292 0.6856215615323663 1.96900354591404  -1.913724342306761 0.5479084883940999 1.526300691384503  </DataArray>
</Points>
<Cells>
<DataArray  type="UInt32"  Name="connectivity"  format="ascii">0 1 2 3  1 4 5 6  7 8 9 10  0 11 12 13  1 7 9 10  0 2 3 11  3 9 14 15  1 2 5 16  0 1 7 9  1 3 9 15  3 9 14 17  0 12 18 19  0 11 12 19  1 7 20 10  0 12 18 21  0 3 9 19  0 18 22 19  0 1 3 9  8 9 10 23  0 3 11 19  0 7 8 9  0 2 11 13  0 7 18 22  0 12 24 21  0 2 12 13  3 11 17 25  3 9 19 25  1 4 6 20  1 26 4 20  1 26 7 20  0 7 18 21  8 9 23 27  0 7 8 22  0 8 9 22  3 11 19 25  1 2 3 5  1 3 5 15  9 22 27 25  3 9 17 25  9 22 19 25  0 9 22 19  8 9 22 27  2 12 13 24  0 2 12 24  22 19 27 25  9 14 17 25  1 26 4 16  1 26 7 16  1 4 5 16  0 16 24 21  0 7 16 21  0 1 7 16  0 1 2 16  0 2 16 24  </DataArray>
<DataArray  type="UInt32"  Name="offsets"  format="ascii">4 8 12 16 20 24 28 32 36 40 44 48 52 56 60 64 68 72 76 80 84 88 92 96 100 104 108 112 116 120 124 128 132 136 140 144 148 152 156 160 164 168 172 176 180 184 188 192 196 200 204 208 212 216 </DataArray>
<DataArray  type="UInt8"  Name="types"  format="ascii">10 10 10 10 10 10 10 10 10 10 10 10 10 10 10 10 10 10 10 10 10 10 10 10 10 10 10 10 10 10 10 10 10 10 10 10 10 10 10 10 10 10 10 10 10 10 10 10 10 10 10 10 10 10 </DataArray>
</Cells>
<CellData  Scalars="f">
<DataArray  type="Float64"  Name="f"  format="ascii">2 2 2 3 2 2 2 2 2 2 2 3 3 2 3 2 3 2 2 3 2 2 2 3 2 3 2 2 2 2 2 2 2 2 3 2 2 2 2 2 2 2 2 2 3 2 2 2 2 2 2 2 2 2 </DataArray>
</CellData>
</Piece>
</UnstructuredGrid>
</VTKFile>