<?xml version="1.0"?>
<VTKFile type="UnstructuredGrid"  version="0.1"  >
<UnstructuredGrid>
<Piece  NumberOfPoints="27" NumberOfCells="53">
<Points>
<DataArray  type="Float64"  NumberOfComponents="3"  format="ascii">-0.8110786017792939 1.047269901791205 2.121104941428879  -0.959866315318026 0.9405257741639269 1.626839118754434  -0.892990212372111 1.21769769929962 1.825057446330698  -0.7247392452730292 0.6856215615323663 1.96900354591404  -1.230947643491196 0.8176538316399466 1.805737396756329  -0.8820462338257501 0.460948029436811 1.506002633699789  -0.9128204895243113 0.4033734465540432 1.848051248605139  -0.210955085465953 1.473064701073961 1.604276690252083  -0.5463090841630303 1.617934395573558 1.534150311174274  -0.5416352648314748 1.266153308808087 1.654962000493026  -0.475714278225114 1.461073098013345 1.990623103556109  -0.6063260378053834 0.7898153998034148 1.360921506343469  -0.696858525444734 0.7155173073168419 1.654862090204309  -0.06873693303092365 1.389446822062717 1.983219617280064  -0.03930125034265256 0.996129164700061 1.859726882642217  -0.4438400887891144 0.891190618615129 1.952018840292058  -0.7055764457917805 1.317597013421202 1.301115225193525  -0.3653837498630332 0.9291273338257455 1.55456478137134  -0.3228874270112512 1.296959932787666 1.282266916427373  -1.025539932059421 1.252856230816483 1.479334304136633  -0.8721315865875905 1.790692132263099 1.582747669094182  -1.25543923261207 0.4266477155525202 1.530718952541371  -0.2267774030441232 1.683882521290659 1.983168789418239  -0.4925081637444058 1.930529847060011 1.787691111933809  -0.7062297636539285 1.865698108512207 2.04206230673467  -0.8716856950617791 1.790930466249067 1.848290639321739  -1.148333263155938 1.632415884839794 1.78015986768522  </DataArray>
</Points>
<Cells>
<DataArray  type="UInt32"  Name="connectivity"  format="ascii">0 1 2 3  1 4 5 6  7 8 9 10  1 11 9 12  13 14 7 9  13 9 10 15  13 14 9 15  1 11 9 16  17 9 18 16  17 9 12 15  0 2 9 10  1 2 3 12  1 2 19 9  17 14 7 9  1 3 6 12  1 5 6 12  0 1 2 4  2 9 12 15  2 19 8 20  17 14 9 15  13 7 9 10  19 8 9 16  19 8 16 20  4 5 6 21  1 5 11 12  17 7 9 18  0 9 10 15  11 17 9 16  1 3 4 6  1 19 9 16  2 19 8 9  8 9 18 16  2 3 12 15  7 8 9 18  11 17 9 12  0 1 3 4  13 7 10 22  10 22 23 24  8 10 22 23  7 8 10 22  10 23 24 25  8 10 23 25  8 20 23 25  2 8 20 25  2 8 9 25  8 9 10 25  2 9 10 25  2 26 20 25  0 2 3 15  0 2 9 15  1 4 5 21  1 2 9 12  7 8 22 23  </DataArray>
<DataArray  type="UInt32"  Name="offsets"  format="ascii">4 8 12 16 20 24 28 32 36 40 44 48 52 56 60 64 68 72 76 80 84 88 92 96 100 104 108 112 116 120 124 128 132 136 140 144 148 152 156 160 164 168 172 176 180 184 188 192 196 200 204 208 212 </DataArray>
<DataArray  type="UInt8"  Name="types"  format="ascii">10 10 10 10 10 10 10 10 10 10 10 10 10 10 10 10 10 10 10 10 10 10 10 10 10 10 10 10 10 10 10 10 10 10 10 10 10 10 10 10 10 10 10 10 10 10 10 10 10 10 10 10 10 </DataArray>
</Cells>
<CellData  Scalars="f">
<DataArray  type="Float64"  Name="f"  format="ascii">2 2 2 2 2 2 2 2 2 2 2 2 2 2 2 2 2 2 2 2 2 2 2 2 2 2 2 2 2 2 2 2 2 2 2 2 2 2 2 2 2 2 3 2 2 2 2 2 2 2 2 2 2 </DataArray>
</CellData>
</Piece>
</UnstructuredGrid>
</VTKFile>