<?xml version="1.0"?>
<VTKFile type="UnstructuredGrid"  version="0.1"  >
<UnstructuredGrid>
<Piece  NumberOfPoints="270" NumberOfCells="967">
<Points>
<DataArray  type="Float64"  NumberOfComponents="3"  format="ascii">-1.467388403511188 -1.349419830973749 1.854699578985386  -1.691847127104035 -1.057057584402842 1.792481564850882  -1.589966200280415 -1.200058353451638 2.140554217345306  -1.217866055289757 -1.018367432924538 2.006040510804831  -1.825220060093612 -0.8075343770849391 3  -1.50185727969032 -0.9077313623873615 2.669221514509792  -1.753095244320935 -0.9424704166201683 2.487402243689921  -1.884027970933281 -0.6458043052210252 2.465159781195152  -1.643650479804342 -0.2510722380505768 0.8627116672388495  -1.946726160601798 -0.4391160733837046 0.8111792958218693  -1.829876992465486 -0.7988218694145495 1.130912378998781  -1.964638033666885 -0.3590360694210094 1.131809366286952  -1.135021910619427 -1.16626625365506 3  -1.215713265800185 -0.9538308876182483 2.553540915053693  -1.12411020791712 -1.278183909038757 2.663712644079244  -1.493077796739337 -1.318117214755033 3  -1.481565705491017 0.68148072401284 3  -1.248180643451476 0.8184088958206328 3  -1.321792150157253 1.072788000801277 2.704729680744416  -1.744079642349356 0.9593374215620627 3  -1.019261186056348 -0.8585171825553823 1.460518224155073  -1.205148256874422 -0.3774773616642302 1.56089248708819  -0.7951296159210844 -0.5998506467302667 1.75433246864053  -0.9179380497992715 -0.3937991646901919 1.364903497849802  -1.002683651764804 1.113111278796196 0  -0.9738863299386127 1.29796209853297 0.3548698454754697  -1.438479480639637 1.384645455413685 0  -1.345495349846485 1.110404825705179 0.2846011875062693  -1.507577376660981 0.8231364920143988 2.048252101852508  -1.218231011818699 0.5181979106001584 2.02333925239462  -1.367558477847229 0.6445551758769376 2.337856785046428  -1.638966401215254 0.4151887879065263 2.165380235642512  -1.624080463099287 -0.1727621270770202 0.5029056747682774  -1.98226447380557 -0.1800718193659471 0.3554316398759313  -1.940969068520443 -0.4580946625441093 0.486839458939381  -1.982264473805573 -0.1800718193659474 0.6182472780028307  -1.230947643491196 0.8176538316399466 1.805737396756329  -1.458253475485442 0.7179109713450691 1.446858482212952  -1.332861560589527 1.031877019211556 1.55094688052432  -1.102503165573828 0.9305784620941925 1.310385370874145  -0.8314696123025459 0.5555702330196011 2.237427138497466  -1.226372019819206 0.3270480739075828 2.370012777508555  -0.965058522091939 0.246934496227205 2.15304399136757  -1.136987574194024 -0.6174439811883486 1.914508136383919  -1.31118241156544 -0.7076136899520298 1.591462913785664  -1.508823376803995 -0.6604528802020468 1.900797887321078  -0.959866315318026 0.9405257741639269 1.626839118754434  -0.8820462338257501 0.460948029436811 1.506002633699789  -0.9128204895243113 0.4033734465540432 1.848051248605139  -1.472188914050033 0.3488894112955785 1.813515171551642  -1.25543923261207 0.4266477155525202 1.530718952541371  -1.51628174194805 0.2500805710234424 2.548357219803956  -1.985856966579941 0.1435966281114978 2.320606943969726  -1.718207515630612 0.1656325407329907 2.730245358308145  -1.979306087000891 0.2101088246663099 2.626138783003607  -1.629173242682837 -0.4396626659265072 2.682257104076729  -1.22247303577894 0.3326178634798861 0.9654715603529608  -1.518961711203538 0.07336982528669388 0.767522402488244  -0.9682729950644814 0.23633779896216 0.705460381041467  -0.9988204316776866 -0.01197635816027369 0.9202779528728253  -1.853357911672155 -0.7469099408469142 0.7649736036555974  -1.420642843664937 -0.4846101958058707 0.5578312570836884  -1.197231946569764 -0.8935000884181146 3  -1.026530777987678 -0.7845869878285077 2.750527785280121  -0.676799471553154 -0.7319793474097507 3  -0.8599070038466563 -1.217092010338265 3  -0.6063260378053834 0.7898153998034148 1.360921506343469  -0.921697750839283 -1.168620002219665 2.287594318469468  -1.40848200968545 -1.418917326102362 2.197918156878704  -1.188907895849445 -1.599117144342569 2.304079793180102  -1.391863014225371 -1.432556183201322 2.487165755782071  -1.26350801991714 -0.4011185096612048 2.684939077533538  -1.339611930956236 -0.6653484133795875 2.229914491760713  -1.624663411647594 -0.483272928112338 2.303499260371789  -1.201893715091328 -0.3615169074776507 2.325028010528075  -1.853357911672155 -0.7469099408469138 1.496851154341965  -1.264591130544536 1.044008448835518 0  -1.149563912351546 0.9506533662689182 0.4520590941616618  -1.909045548548626 0.5633324043654051 2.412625223397536  -1.584587574927397 0.5250362983745115 2.724163446472293  -1.576745284602963 -0.4950996627568143 1.416069836141637  -1.950962252746328 -0.4251515490508395 1.462938981298615  -1.169289290396311 0.6178694334978951 0.5466151963945229  -0.9529143709840853 0.8722663860045278 0.7494782604831286  -1.310453516629691 0.6951426320007211 0.8534972697453511  -0.8163371733870979 0.5740091631888196 0.9096750751367708  -1.672031258210054 1.094130467568752 2.235026396344403  -1.823856666218048 0.8100851076195585 2.602030043929778  -1.682973576838292 1.073658829295447 0.6882383971439707  -1.196918151989004 1.252735286126914 0.6180316810739506  -1.183147165165283 1.093160462193829 0.9268828513999143  -1.460442964317437 0.4468419858689834 0.4688061786729282  -1.346501354169998 0.04122682333998573 0.4612535976434082  -1.644974219726995 0.1468516289030477 0.3052610429514422  -1.248556068119212 0.3362010128583522 0.2497271173000339  -0.9273729073291088 -0.3711673189324999 2.536857347675441  -0.8314696123025457 0.5555702330196015 0.592131870607596  -0.9579954471492395 0.2702183339099079 0.3776095963251764  -1.672031258210054 1.094130467568752 1.503148845658035  -1.846612959781425 0.76751107682243 1.151675842041366  -1.416794453136306 0.8959934799664772 1.134827001072054  -1.632606826771926 1.148100599738452 0  -1.53554315370578 1.266373027576068 0.512597756310079  -1.844164754596701 -0.772091346568109 2.010603315858925  -1.706347537702445 -0.04209313724448424 2.277841693175232  -1.993403226347628 -0.06697816690098257 2.551729856391235  -1.405602299093617 -0.4281699265829389 1.080392801027884  -0.9372154852963699 -0.3387206877374102 0.7761614215651188  -1.269246140500716 -0.0930329356625437 1.160250501970419  -1.072417303205681 0.7889984600428528 2.264878008245959  -1.207345100161593 0.5453646283348765 2.668306038957506  -1.47674118856428 -0.1600094556322346 1.571512162555031  -1.638711807804228 -0.06826526146068315 1.173240500731697  -0.9884711682419383 0.1170541932096765 3  -0.9053975484695388 0.4172607924959917 3  -1.425722034133373 0.4167178191580928 3  -1.467499692352606 0.3281647548731498 1.250840500992602  -1.516372324331108 0.7485961155389076 0.3164509087323885  -1.281405002593622 0.7703394935226551 0  -1.98226447380557 0.180071819365941 1.060137157110759  -1.991574622675041 0.08554429156020171 1.519340412504626  -1.559711166137235 -0.3106849806081239 2.010557024887333  -1.212849458285667 0.6015237920645535 1.207583937569291  -1.4721675795117 1.343596388167719 1.618925523222353  -1.638874003421083 1.140464022895973 1.869087621001219  -0.6162581739138656 0.78166430635156 0.4191414197236378  -0.6675264527648972 0.7395895172562288 0.8100690993224364  -1.047573360754929 0.7503466696464647 0.2463986470037509  -1.482021479503497 -0.2124598886321394 2.465159781195152  -1.963461059963792 -0.3709860839702404 2.619478339133881  -1.550049039632537 -0.6496605292722291 0.2853683968296907  -1.784649851221481 -0.8834358993235059 0  -1.63260682677192 -1.14810059973846 0  -1.625683641873808 -1.156536524945106 0.3576525378457722  -1.497041613195321 -0.1322815388834662 0  -1.97000629136114 -0.3045312343666396 0  -1.897725087561841 -0.6006509629603602 0  -1.497195668686971 -0.7760486313250851 0.9253912365542269  -1.195386833276349 -0.5940202242492556 0.825287507851131  -1.296655448597995 -0.9614796122255694 0.460037240580255  -1.31793437860139 0.05225952987493204 2.731411973099033  -1.492037750164329 -0.04537433406292787 3  -0.8262722068337489 1.214214377293678 0.7319552811989505  -0.844926995554161 1.068622128813088 1.069123252014927  -1.652789181055146 1.123508329889683 0.9820547617975177  -0.911179233850709 0.406444019949456 1.163307837086328  -1.314897154059142 0.1070208957759803 1.450635008672167  -1.245130762560976 -0.2889533303603645 0.3509780132825951  -1.291798766716753 -0.222227216590204 0.7903288354638301  -1.681438847184343 0.02209342104386963 1.848541819215936  -1.418270870718573 0.08770913575380102 2.157018349698728  -1.712674355228347 1.018092581199935 0.3953999050837103  -0.9988204316776867 -0.01197635816027373 0.4906428092101087  -1.909045548548627 0.5633324043654053 2.657570655743448  -1.961570560806461 0.3901806440322567 3  -1.260123051423864 -1.540672376577078 1.701925022327931  -0.9858136949204921 -1.342106789180089 1.941367150305387  -1.239106987961229 -1.557919814127574 2.007873969271844  -1.580305958260196 0.4275683301379611 0.8988882789704619  -0.9273729073291088 -0.3711673189325002 0.4153610048404833  -1.979306087000891 0.2101088246663102 2.015075104935846  -1.939560067135936 0.4627395176246096 1.214058446966351  -1.951777400009669 0.4224643686483734 0.8069121487439513  -0.8565322307174396 0.9851968215745449 0.2806003666290897  -0.7319793474097477 0.6767994715531579 0  -0.8314696123025458 0.5555702330196014 0.3368551254436298  -1.481145788223528 1.332656409198891 2.620319746743644  -1.578008510672219 1.214628840397112 3  -1.377253428673846 1.44454596020626 3  -1.897442875023726 -0.6015812930195484 1.762338718678639  -1.969972668408264 -0.3048726139361433 1.778179663051902  -1.207236813657273 1.584074990238844 0  -1.067661353863925 0.9868268625447008 2.537163485791395  -1.378646892471328 0.9857052500752941 2.377250895472625  -1.706002944299271 -1.030573913169211 1.381074476777648  -0.7726014355937718 -1.079608252005977 1.969491187350024  -1.772518719756024 0.9061316499814949 1.723462302473687  -1.963461059963792 -0.3709860839702401 2.310841223256423  -1.0
[...]
<CellData  Scalars="f">
<DataArray  type="Float64"  Name="f"  format="ascii">3 3 3 2 2 2 2 2 3 2 2 2 2 2 2 3 2 2 2 2 2 2 2 2 2 2 3 2 2 3 2 2 2 2 3 2 3 2 3 2 2 2 2 2 2 3 2 2 2 2 3 2 2 2 3 2 2 2 2 3 2 2 2 2 3 2 2 2 2 2 2 2 2 3 2 3 3 3 3 2 2 2 2 3 3 2 3 2 2 2 2 2 2 2 2 2 2 2 2 3 2 2 3 2 2 2 3 2 3 3 2 3 3 2 2 2 2 2 3 3 3 3 2 2 2 2 2 2 2 2 2 3 3 2 3 2 2 3 3 2 2 2 2 2 2 2 3 2 2 2 2 2 2 3 3 3 2 2 2 2 2 2 3 2 2 3 2 2 2 2 2 2 2 2 2 3 2 2 3 2 3 2 2 2 3 2 3 2 2 2 2 2 2 2 2 2 2 2 2 2 3 2 2 3 2 3 2 2 2 2 3 2 2 2 3 2 2 2 2 2 2 2 2 3 2 2 2 3 2 3 2 3 2 2 2 3 2 2 2 2 2 2 2 2 2 3 3 2 2 2 2 2 3 2 3 2 2 2 2 2 2 3 2 2 2 2 2 2 3 2 2 3 3 3 2 2 2 2 2 3 2 3 3 3 2 2 2 2 2 2 2 3 3 2 2 2 2 2 2 2 2 2 2 2 2 2 2 2 2 2 2 2 2 2 2 2 2 3 2 2 2 2 2 2 2 3 3 2 3 2 2 2 3 3 2 2 2 2 3 2 2 2 2 2 2 2 3 2 3 2 2 2 3 2 2 3 2 2 3 2 2 2 3 2 2 2 3 2 2 2 3 3 2 2 3 2 2 2 2 3 2 2 2 3 2 2 2 2 3 3 2 2 2 2 2 2 3 3 2 2 2 2 2 2 2 2 3 2 2 2 3 2 2 3 3 2 2 2 2 2 2 2 2 2 2 2 2 2 2 2 3 2 2 2 2 2 3 2 2 2 2 3 2 2 2 2 2 2 3 3 2 2 2 2 3 2 2 2 2 2 3 2 2 2 2 3 3 2 2 2 2 2 3 2 2 2 2 3 2 3 3 2 3 2 3 3 2 3 3 2 2 2 3 2 2 2 3 2 2 2 3 2 2 2 3 2 2 3 2 2 2 2 3 3 2 2 2 2 3 3 2 2 3 3 2 3 2 2 2 2 2 3 2 2 2 2 2 2 2 2 2 2 2 3 2 2 2 2 2 2 2 2 2 3 3 2 2 3 2 2 2 2 2 2 2 2 2 2 2 3 2 2 2 2 3 2 2 2 3 3 2 2 2 2 2 2 3 2 2 2 3 3 2 2 2 2 2 3 2 2 3 3 2 2 2 2 2 3 3 2 2 3 2 2 2 3 3 2 2 2 2 2 2 2 3 2 2 2 2 2 3 2 3 2 2 2 2 3 2 2 2 3 2 2 2 2 2 2 2 3 2 2 2 2 2 2 3 3 2 2 3 3 2 2 2 2 2 2 2 2 2 3 2 3 2 2 2 2 2 3 2 2 2 2 3 3 3 3 2 2 2 2 2 2 2 2 2 2 2 2 2 2 2 2 2 2 2 2 3 3 2 2 3 2 2 2 3 2 2 2 2 2 2 2 2 2 2 2 2 2 2 2 2 2 2 2 2 2 3 2 2 2 2 2 2 2 2 2 2 2 2 2 2 2 2 2 2 2 2 2 2 2 2 2 2 2 2 2 2 2 2 2 2 2 2 2 3 3 2 2 3 3 2 3 3 3 2 2 2 2 3 3 3 2 2 2 2 2 2 2 2 2 3 2 3 3 2 2 3 3 2 2 2 2 2 2 2 2 2 2 2 2 2 2 2 2 2 2 2 2 2 2 2 2 2 2 3 3 3 3 2 2 2 3 2 2 3 2 2 2 2 2 2 2 2 2 2 2 2 2 2 2 2 2 2 3 3 2 2 2 2 2 2 3 3 2 2 2 2 2 2 3 2 2 2 2 2 2 2 2 2 2 3 2 2 2 2 2 2 2 2 2 2 2 2 2 2 3 2 2 2 2 2 2 2 2 2 2 2 2 2 3 3 3 3 2 2 3 2 3 3 2 2 2 2 2 2 3 2 2 2 2 2 2 2 2 2 2 2 2 2 2 2 2 2 2 2 2 2 2 2 2 2 2 2 2 2 </DataArray>
</CellData>
</Piece>
</UnstructuredGrid>
</VTKFile>