<?xml version="1.0"?>
<VTKFile type="UnstructuredGrid"  version="0.1"  >
<UnstructuredGrid>
<Piece  NumberOfPoints="1566" NumberOfCells="7170">
<Points>
<DataArray  type="Float64"  NumberOfComponents="3"  format="ascii">-1.512359285644334 1.068376000829444 2.428131023737984  -1.373880728372479 1.138645178772328 2.501427686586783  -1.522712156704078 0.91069105861823 2.495322883648988  -1.338135527099882 0.9610917329772711 2.485363916417126  -0.08105766249146665 1.51490851366465 2.300580605903318  -0.1264137403891327 1.623832570965264 2.451224456478201  -0.2543581781992574 1.627757969062994 2.308992231366099  -0.3016331384581181 1.536607458103908 2.489088673277483  -1.063576882125053 1.158340932349984 1.567789034934107  -1.026505393177837 0.9973815627868937 1.753819374223778  -0.9391044759676777 1.173782283996075 1.722687442616744  -1.188572675247871 1.128656378010582 1.764856318213784  -1.236463680228346 0.5843272210989572 3  -1.083088873069132 0.5816338069539708 3  -1.2322788547395 0.430985859469061 3  -1.086830741578042 0.5144942931992081 2.792827961877503  -1.684867610180715 0.7196825145120627 1.492204237068317  -1.603332406811842 0.7771600314591464 1.651644619732335  -1.866500620541251 0.7035842360368104 1.538282268106518  -1.719563008963503 0.6773293529237138 1.763252782696964  -0.4840677488885385 1.36002765996548 2.055996145982026  -0.67696777816034 1.163669587031098 1.986530690785929  -0.5884110214657677 1.285141746091693 2.215825927141724  -0.7898334822649098 1.294613287863109 2.093496633045264  -0.2267567149134798 1.513183490544626 0.4293770836378363  -0.2526967854776053 1.466461901023554 0.7244472697693704  -0.05368123014705692 1.522627891634968 0.6186802301191092  -0.1940693391355877 1.614031180124887 0.658093047244721  -1.320126265242179 0.4761884245358196 2.23060000235975  -1.418309889587639 0.3367776497620777 2.301487421637401  -1.550346573869616 0.4460667938087018 2.354424371718915  -1.54120465150066 0.4855765353840453 2.179680189376256  -1.066251447381203 0.9771681051469477 1.020406983681771  -0.8897116341221156 0.9062885361281463 0.8585034766986818  -0.9039902440925702 1.02045575882443 0.9856694410234375  -0.8704805934261621 0.7935001357442195 1.041365548800874  -1.394976770303369 1.023695423856162 1.353661893518067  -1.539330023610381 0.9836157207883699 1.221107146644132  -1.569606611745384 1.224866583861095 1.294722001321764  -1.353190869454159 1.168567846943077 1.169303413777984  -0.5829747950909114 0.8089792694386743 0.2501111363532545  -0.5527650200038382 1.01919813386297 0.3622080827136206  -0.589889619238378 0.8033044199185385 0.4182739102737424  -0.4459727035722207 0.8900507122648655 0.4072403527329742  -0.4379351919692966 1.071817927875505 2.274393628348585  -0.5563420448440157 1.134842547134765 2.429446295647148  -0.3912840857067477 0.9192823875237183 2.424995508699585  -0.3335693971529946 1.180859189287922 2.503146507666767  -0.8028907507915748 1.158654476938999 0.9762236647563317  -0.8601986046786221 1.07797107201586 1.175698568965796  -0.7258428369259003 1.326592728219886 1.188279032467483  -0.8650493200261411 1.258243596722877 1.251740412119593  -0.6711943941782386 0.7365793155322974 0.6707812560842432  -0.8717216159126097 0.7888283201043974 0.6812536006502942  -0.7949831001402083 0.6000291767258183 0.5795768915102262  -0.7632408748660222 0.6387071901324219 0.8885851873064419  -1.303525959393078 1.008957681467992 2.821699658601177  -1.475224080494848 1.1275728344032 2.839763436652184  -1.478419190010523 1.052406439333726 3  -1.377680078066836 1.133688224062772 3  -0.7074071306008063 1.653232600095123 1.658738875968411  -0.9470569184372591 1.521772831806486 1.585936053982168  -0.8950865244575194 1.778422462346563 1.522550112776621  -0.7693247425129737 1.55575400790413 1.459207815025761  -0.9009915418654538 0.8213678667939238 1.45545586051774  -0.8354187318407112 0.5481819500212671 1.3486608555629  -0.8404360311336867 0.7710032083354645 1.294559274337044  -0.7405643564171189 0.6663386078104714 1.494707821658598  -1.648344693077304 0.6011025854376804 1.350861508518786  -1.899753594986534 0.5939638701575974 1.397328069751199  -1.784828026238943 0.442232604956962 1.295448572619124  -1.750638950092724 0.4500306691122254 1.464538584725868  -1.132550535986404 0.3430978019697516 0.7848312797774391  -1.153173723095025 0.4507441257620955 0.9823662125386918  -1.224727799811005 0.556065024013557 0.7399146624727214  -1.348854712070817 0.362379588235927 0.847071240095107  0.02079688448292044 1.709516726690139 2.241736760493555  0.1121102211353898 1.764279348656659 2.032083250566018  -0.01810964665879883 1.839324329416937 2.126833305130287  0.1836755725228448 1.797431530106876 2.225454340480363  -0.9817305299818961 0.1854930419851196 2.80858669587202  -0.9613540494157377 0.2591465060377245 3  -0.93919290362029 0.3322020131291865 2.778236821839796  -1.135419156382061 0.2995624039461791 2.831503731540924  -1.654346196626482 0.287026970495564 1.573218555001811  -1.710569032871657 0.03525209734541723 1.419720318004083  -1.579259182704968 0.1028946378682416 1.530293613849783  -1.830824005844763 0.1046415529473994 1.564753818862917  -1.848868192691672 0.2255011966204679 2.842708277928178  -1.613211426532041 0.2906706621598937 2.846574292854164  -1.793314984088157 0.1457733806817882 3  -1.738014490017864 0.2306309372485909 2.739437656599711  -0.5516480352380864 1.029120817801377 1.368980473870488  -0.5431295452175143 1.204659910521205 1.387824879554503  -0.7680119074600098 1.169087798304336 1.452980962969876  -0.6012673443143963 1.150719094979769 1.559123094777308  -0.1860846989343382 1.197534432774625 2.275715367782488  -0.08132127817945439 1.202170177162092 2.492115975178085  -0.2115743418700221 1.365903019796616 2.413408597933864  -0.4331201389868656 1.948545007416206 2.176768593965149  -0.3595898987504701 1.794382151977767 2.111930572616453  -0.2657273486410222 1.973828140521968 2.062295969268442  -0.287150639622915 1.971718130528632 2.212920019066369  -1.120380115997378 0.2709279843825851 1.092965622275283  -1.174846131184365 0.1281103023819057 1.178447001214502  -0.9872104666735122 0.1298543110418333 1.142813713290783  -0.9715111461463679 0.2256630454313846 1.279871075758558  -1.221406375930689 0.7010677624180882 1.714588965979506  -1.069086972991872 0.6472616042039866 1.9001917198163  -1.21581768183938 0.5096871638306774 1.715809676841256  -1.026889582524904 0.5747099426470559 1.718844985038571  -1.500046636690312 0.6511983433173043 2.652878239817775  -1.280462873881552 0.5611000585968593 2.589726316367086  -1.317224797674452 0.8072282167868614 2.579967034865727  -1.314708842195148 0.5900900290351704 2.790254164214297  -0.9000356982076541 1.551959042762167 2.285094721390822  -0.759949005325542 1.668264342091573 2.246485915968052  -0.8654855761973108 1.527323349220818 2.026058129343397  -0.9124540523587208 1.769139325279435 2.105223466441561  -0.8381438117678921 0.5430836840659032 1.824125951257891  -1.02567547406104 0.5607163657933112 2.0872299529282  -1.063555062908119 0.4537636020790649 1.929944741624164  -0.9066803369393559 0.4148608640688031 2.040553143157413  0.1080761681434303 1.480138401096196 1.652661860169011  0.2713160093647587 1.57680453684485 1.605392433315053  0.02545917687942421 1.64403955087008 1.638914346915362  0.2268606909454772 1.69098853561316 1.81615258131728  -0.1356625137389726 1.517190082621389 1.922079691874627  -0.3522052510297132 1.44325238826618 1.755157615319526  -0.1506435099060925 1.303468135505971 1.743425178974412  -0.3477315275487176 1.310530844857478 1.886868319297013  0.07732649324291624 1.992384005163817 2.379869606865292  -0.05282494455365808 1.994797197078646 2.252366004816461  0.1920124050303416 1.981088428766578 2.25236600481646  -1.299955573044219 0.4284614161390293 2.843266799967925  -1.330010460854237 0.3113309244676917 3  -1.44170287492267 0.3513156457864813 2.787517005943119  -1.397591169423041 0.1532619672673007 2.852035985715782  -0.8595214950943791 0.745822043079533 2.375824388704775  -0.8500827867401941 0.5207474329210794 2.522067809931711  -0.8113652290523194 0.5800674948897742 2.315628584320808  -0.6959315071126867 0.7162780916006626 2.50824794066789  0.06597845096927575 1.856259202479849 2.827610697986431  0.2021417794383948 1.980090772465998 2.795143629092942  0.1269262336008511 1.987498857129813 3  0.2773573252759385 1.972682687802183 3  0.3162020966836113 1.807363629656092 2.421108667560982  0.324229418788003 1.968066189533892 2.369562933349386  0.2021417794383949 1.980090772465998 2.497375511848247  0.4526247923902359 1.942628335491383 2.494397330790787  -1.227443449415623 0.1454150551403234 2.761308802275189  -1.068498663222117 1.239596925930656 1.810778062920043  -1.13142505087883 1.318733200972373 1.947204232999808  -0.9321066126238446 1.355562557839457 1.990983145616349  -1.013715929575068 1.48195642563041 1.882217425790587  -0.6977357490419844 1.240686280652601 1.840045324978901  -0.5097498161456381 1.217124616529186 1.884025345778757  -0.5367566931794837 1.040353951422464 1.921914199158642  -0.8651263220786662 1.011548688253175 1.621998347337277  -1.263237108864204 1.332955873480557 1.107268159684285  -1.281931581244882 1.32617940248162 0.8604699638410789  -1.412549368986485 1.415579330589324 0.9293949754590489  -1.269940341461703 1.532615534859612 1.0393643556771  -1.528604792361949 0.6510125707927902 0.4137519986541968  -1.663488019023056 0.6184567391818717 0.5284696851202717  -1.597563810130646 0.5272542360787286 0.3168378531666981  -1.583171043930787 0.4601552881828206 0.4859730370942414  0.1434837084762022 1.438073980697882 2.267405058882114  0.03042515779325874 1.636632044880287 2.392682333926413  0.03651505984485719 1.487013235889365 2.46862028041943  -1.150503102694987 -0.009486454117872481 2.433383128829324  -0.9909921716418888 -0.09145801614223822 2.497860943369288  -0.996701613173816 0.03348908345049124 2.329370304303835  -0.9919588742614237 0.08164291973195234 2.50013261989526  -0.2246018834920384 0.9718330461014388 2.435
[...]
<CellData  Scalars="f">
<DataArray  type="Float64"  Name="f"  format="ascii">3 2 2 2 3 2 2 2 2 3 2 2 2 2 3 3 2 3 2 3 2 3 3 2 2 3 2 2 2 3 2 2 2 3 2 2 3 3 2 3 2 2 3 3 2 2 2 2 2 2 3 2 2 3 3 2 3 2 3 2 2 2 2 3 2 3 2 3 2 2 2 2 2 2 3 2 3 3 2 2 3 3 3 3 2 3 3 2 3 2 2 2 2 2 3 3 2 2 2 3 3 2 2 3 3 2 2 2 3 2 3 2 3 2 2 3 3 2 3 3 3 2 2 2 3 2 2 3 2 3 3 3 2 2 3 3 2 3 2 3 3 2 3 3 3 2 2 3 2 3 3 2 2 3 3 2 2 2 2 3 3 2 2 3 2 2 3 2 3 2 3 2 3 2 2 2 3 3 3 3 2 3 2 3 3 3 2 2 2 3 3 2 3 2 3 2 2 3 3 2 2 2 2 2 2 3 2 2 3 3 3 3 2 3 2 3 3 2 2 3 2 3 2 2 2 2 2 3 2 3 2 3 2 2 2 2 3 3 2 2 2 2 3 3 3 2 3 2 2 2 2 3 3 3 2 2 2 2 2 2 3 3 2 2 2 2 2 3 3 2 3 3 3 2 2 2 2 2 3 2 2 2 3 2 2 2 3 3 3 3 3 3 2 3 2 2 2 3 2 2 2 2 2 2 3 3 2 2 3 2 2 3 3 2 2 2 3 3 2 2 2 2 2 2 2 3 2 2 3 3 2 2 3 2 2 2 2 3 2 2 2 2 2 2 2 2 3 2 2 2 3 3 2 2 2 2 2 3 2 2 2 2 3 2 3 3 3 3 2 2 2 2 3 3 2 3 2 3 2 2 3 3 2 2 2 2 3 2 3 3 3 2 3 2 2 2 2 2 2 3 3 2 2 2 2 3 3 2 2 3 2 2 2 2 3 2 2 3 2 2 2 2 3 2 2 2 3 2 3 2 3 2 2 2 3 2 3 2 2 3 2 3 2 3 2 2 2 3 3 3 2 2 2 3 3 3 2 2 2 2 2 2 3 2 3 2 2 2 2 2 2 2 3 2 2 3 2 2 2 2 3 3 3 3 3 2 3 2 3 3 3 3 3 2 3 3 2 2 3 3 2 2 2 3 2 3 3 2 3 3 2 2 3 3 2 2 2 3 3 2 3 2 3 2 2 3 3 3 2 2 3 2 2 3 3 2 2 3 3 3 3 2 3 3 2 2 3 2 2 3 2 3 2 3 2 3 3 3 2 2 3 2 3 3 3 3 3 3 2 3 2 3 2 2 3 2 3 2 2 2 2 3 3 2 2 3 3 2 2 2 3 2 2 3 3 3 3 3 2 3 2 2 2 3 3 2 3 2 3 2 2 3 3 2 3 3 3 2 3 2 2 3 2 2 2 2 2 2 2 3 2 2 3 3 3 2 2 2 2 2 2 2 2 3 2 3 3 3 3 3 2 3 3 2 2 3 3 2 3 3 3 3 2 2 2 3 3 3 3 2 2 2 3 2 2 2 3 2 3 2 2 2 2 3 2 3 3 2 3 2 3 3 3 3 2 2 2 2 2 2 2 3 2 3 3 2 2 2 2 3 2 2 2 2 2 3 2 2 2 2 2 2 2 2 2 2 2 2 3 2 2 2 3 2 2 2 3 2 3 2 3 3 3 2 2 3 3 2 3 3 2 2 2 2 2 3 2 2 2 2 3 3 3 3 2 3 2 2 3 3 3 3 3 2 2 2 2 2 2 2 2 3 3 3 3 2 3 3 2 3 2 3 3 2 2 2 3 3 2 2 2 3 3 2 3 3 2 3 3 2 3 2 2 3 2 3 2 3 3 2 3 2 2 2 3 3 3 3 2 2 2 2 3 3 3 2 2 3 2 2 2 3 2 2 2 3 2 3 2 2 3 2 3 2 2 3 2 3 2 2 3 2 2 3 2 3 2 2 2 2 2 3 2 3 3 3 3 2 2 3 2 3 2 2 2 2 3 3 2 2 3 2 2 2 3 3 2 3 3 2 2 2 2 3 3 3 2 2 3 3 3 2 3 2 3 2 3 3 2 3 3 3 3 2 2 2 2 3 3 3 3 3 3 2 2 2 3 2 2 3 2 2 3 2 3 3 3 2 2 2 3 2 2 3 2 3 3 2 2 2 2 2 3 2 3 2 3 2 3 3 2 2 3 2 3 2 3 3 2 2 2 3 2 2 3 2 2 3 2 2 2 3 2 2 3 2 3 2 2 3 2 3 2 3 2 2 3 2 3 2 3 2 2 3 3 2 3 2 3 3 2 3 2 3 3 2 2 2 3 3 2 2 2 2 2 3 2 3 2 2 3 3 2 2 2 2 2 2 3 2 3 2 2 3 3 3 2 2 2 2 2 2 3 2 2 2 2 3 3 2 2 3 3 2 2 2 3 3 2 3 2 3 2 2 3 3 3 2 2 2 2 2 2 3 2 2 2 2 3 3 3 3 3 3 3 3 3 2 3 2 2 2 2 2 3 2 3 2 3 3 3 2 3 2 3 3 3 2 2 2 2 2 3 2 2 2 3 2 2 2 2 2 2 3 2 2 3 2 2 2 2 2 2 3 3 3 3 2 3 3 3 2 2 3 3 2 3 3 2 3 2 2 3 3 3 3 3 3 2 3 3 2 3 2 2 2 3 2 2 2 2 3 2 2 3 2 3 2 2 3 2 2 3 2 3 2 2 3 2 2 3 3 2 3 2 2 3 2 2 3 3 2 2 2 2 3 3 3 2 3 2 3 2 2 3 2 3 3 2 3 3 2 2 3 2 2 2 2 3 2 3 3 2 3 2 2 3 2 3 2 2 2 2 3 3 3 3 2 2 2 2 3 2 3 3 2 2 2 3 2 3 2 2 2 2 2 3 3 2 3 2 2 3 2 3 3 3 2 3 3 3 3 3 2 3 2 2 2 2 2 2 3 2 2 2 2 2 3 2 2 2 2 3 2 3 2 3 3 3 2 3 2 2 2 2 3 3 2 2 2 3 3 2 2 2 3 2 2 3 2 2 3 3 2 2 3 2 2 3 2 2 3 2 3 2 3 2 2 2 3 2 3 2 3 3 2 2 3 3 2 2 2 2 2 2 3 3 3 3 3 2 2 3 3 3 3 3 3 3 2 2 3 2 3 2 2 2 3 3 2 2 3 2 2 3 3 3 3 2 3 2 3 3 2 3 2 3 2 3 2 2 2 3 2 2 2 2 2 3 2 2 3 2 2 2 3 2 3 2 3 2 2 3 2 2 2 2 2 2 3 2 2 2 2 2 3 3 3 2 3 2 3 3 2 2 3 2 2 2 3 2 2 2 2 3 2 3 2 2 2 3 3 2 3 2 3 2 2 2 3 2 3 3 3 3 2 3 2 3 2 2 3 2 2 2 2 3 3 2 2 2 2 3 3 2 3 2 2 2 3 3 3 3 2 3 2 2 3 3 2 2 2 3 2 2 2 2 3 2 3 2 2 2 3 3 2 2 2 2 3 2 3 2 2 3 2 2 2 3 2 3 2 3 2 2 3 2 2 2 2 2 3 2 3 2 3 2 2 3 3 2 2 2 2 3 2 2 2 2 3 2 3 3 3 3 3 2 2 3 2 2 3 3 2 2 2 2 2 3 2 2 2 3 3 2 3 2 2 2 3 2 3 2 3 3 3 2 3 2 2 3 3 3 2 3 2 2 3 2 3 3 3 2 2 3 3 3 2 2 3 2 2 3 2 2 3 3 2 2 2 3 2 2 3 2 3 2 2 2 2 3 2 2 2 3 3 2 2 2 2 2 2 2 2 2 2 2 2 2 2 3 2 2 2 2 2 3 2 2 2 2 3 2 3 3 2 2 2 2 2 2 3 3 2 2 3 2 2 2 2 2 3 2 3 2 3 2 2 3 2 2 3 2 3 3 2 3 3 2 3 2 2 3 2 2 2 2 3 2 2 3 2 3 2 3 2 2 3 3 2 2 2 3 3 2 3 3 3 3 3 2 2 2 2 3 2 2 2 3 3 3 2 3 2 3 2 2 3 2 2 2 2 2 2 2 2 3 2 2 2 3 2 2 3 2 3 2 2 2 2 3 3 3 2 2 3 3 2 3 2 3 2 2 3 3 3 3 2 2 2 2 3 2 3 2 2 2 2 3 3 3 2 2 2 2 2 2 2 2 2 2 2 2 2 2 2 3 2 3 2 2 2 2 3 2 3 3 3 2 2 2 2 2 2 2 2 2 2 3 3 3 3 2 2 3 2 3 2 3 2 3 3 2 2 3 3 3 3 2 3 3 3 3 3 2 3 3 3 2 2 3 3 3 3 3 3 3 2 3 2 2 2 3 3 3 2 3 2 3 3 2 3 2 3 3 2 2 2 3 2 2 2 2 3 2 3 2 3 3 2 2 2 3 2 2 2 2 2 3 3 2 3 2 2 3 2 3 2 3 2 3 3 2 2 2 2 2 3 2 2 2 2 2 2 2 2 3 3 3 2 2 2 2 2 2 2 2 3 2 3 2 3 2 2 2 3 2 2 2 2 2 3 2 2 3 3 3 2 2 2 3 2 3 2 2 3 3 3 2 2 2 2 2 2 3 2 2 2 3 2 2 3 2 2 2 2 2 3 2 2 3 3 2 2 2 2 2 2 2 2 3 3 2 2 3 2 2 2 3 2 2 2 3 3 2 2 3 2 3 2 3 2 3 2 2 2 2 2 2 3 3 2 3 2 2 2 2 2 2 3 2 2 3 2 3 2 2 2 3 2 2 3 2 2 2 2 3 2 3 3 2 2 3 2 3 2 3 3 2 2 3 2 2 3 2 3 2 3 2 2 2 3 2 3 3 2 2 3 2 3 2 2 2 2 3 3 2 2 2 3 2 2 3 3 3 2 3 2 3 2 2 2 2 2 2 3 2 2 2 2 3 3 3 2 3 2 2 2 2 3 3 2 2 3 3 2 2 2 3 3 3 3 3 2 2 2 2 2 2 3 3 2 2 2 2 2 2 3 3 2 2 2 2 2 2 3 3 2 2 2 3 3 3 3 3 3 2 3 2 2 3 3 2 3 3 2 2 3 3 3 2 3 3 3 3 2 3 2 2 2 2 2 2 3 2 3 3 2 2 2 2 3 2 2 2 3 2 3 3 3 3 3 3 2 3 3 3 2 2 3 3 2 2 3 2 2 2 2 3 2 2 3 3 3 2 2 3 3 2 3 3 2 2 2 2 2 2 3 3 3 2 2 2 3 2 2 2 3 3 2 2 2 3 2 3 2 3 2 2 2 2 3 2 2 2 2 3 3 3 2 2 3 2 2 3 2 2 3 2 2 3 2 3 2 2 2 3 2 3 2 2 2 3 3 3 3 3 3 2 2 3 2 2 2 3 2 2 2 2 2 2 2 2 2 2 2 3 2 2 2 2 2 2 2 3 2 3 2 2 2 3 3 2 2 2 3 2 3 2 3 2 2 2 2 3 2 2 2 2 2 2 3 2 3 2 2 3 2 2 3 2 3 3 2 2 2 3 3 2 3 2 2 3 3 2 3 2 2 3 3 2 3 2 2 3 3 3 3 2 2 2 3 2 3 3 3 2 2 2 2 3 2 2 2 3 2 2 2 3 2 2 2 3 2 2 2 3 2 2 2 2 2 2 3 3 3 2 2 2 2 2 2 3 3 2 2 2 2 2 2 2 3 3 3 2 2 2 2 2 3 3 2 2 2 2 2 3 2 3 3 3 2 2 2 3 3 3 2 3 3 2 2 2 2 2 3 3 3 2 2 2 2 3 3 2 3 2 2 3 3 2 3 2 2 2 2 2 3 2 2 2 2 3 2 2 3 2 2 2 3 2 2 3 2 2 2 2 3 3 3 2 2 2 3 3 2 2 3 2 2 2 2 2 3 3 3 3 2 2 2 2 2 2 2 2 3 3 2 2 2 2 2 3 3 2 2 3 2 3 2 3 3 2 3 3 2 2 2 2 3 3 2 2 2 2 2 3 3 3 2 3 2 3 2 2 2 3 2 2 2 3 2 2 3 3 2 3 3 2 2 2 2 3 2 3 2 3 3 3 3 2 2 3 3 3 2 2 2 2 2 3 3 2 2 2 2 3 2 2 3 3 3 2 3 2 2 3 2 3 2 2 3 2 3 3 2 2 3 2 2 3 2 3 2 3 2 2 3 2 3 3 2 2 3 3 2 3 2 2 2 2 2 2 2 2 3 3 2 3 2 2 2 3 2 2 2 2 2 3 2 3 2 2 2 2 3 3 2 2 2 3 3 3 3 2 2 3 2 2 3 3 2 2 2 3 3 2 2 2 2 3 2 2 3 2 3 2 2 2 2 2 3 2 3 3 2 2 2 3 3 2 3 3 2 2 2 2 2 3 3 2 3 2 2 3 2 2 2 3 3 2 2 3 3 2 3 3 3 2 3 2 3 3 2 2 2 2 2 3 2 3 2 2 3 3 2 3 2 2 2 2 3 2 2 2 3 3 3 2 3 3 3 3 2 3 3 2 3 2 3 2 2 2 2 2 3 2 3 3 2 2 3 2 2 3 2 3 2 2 3 2 2 3 2 3 2 3 2 3 2 3 2 3 2 2 2 2 2 2 2 2 2 2 2 2 3 3 2 2 3 2 3 2 2 2 2 2 2 2 3 2 2 2 2 2 3 3 2 2 2 2 3 3 2 2 3 2 3 3 2 3 2 3 2 2 2 3 2 2 2 2 3 2 3 2 2 2 2 3 3 3 3 3 2 2 3 3 3 3 3 3 2 2 2 2 2 2 3 3 2 2 3 2 3 3 2 3 2 2 2 2 2 2 3 3 3 2 3 2 2 3 2 2 3 2 2 3 2 3 3 2 3 2 3 2 3 3 3 3 2 2 2 2 2 3 2 2 2 3 3 2 3 2 2 2 2 2 3 2 3 2 2 3 2 2 2 3 3 2 2 2 3 3 2 2 2 2 2 3 2 2 2 3 3 2 2 3 2 2 2 2 3 2 3 2 2 3 2 2 2 3 2 3 2 3 3 3 3 2 2 2 2 2 2 2 2 2 3 2 2 3 2 3 2 2 2 2 3 3 3 2 2 2 3 2 3 2 2 3 3 2 3 3 3 2 2 3 3 2 3 2 3 3 3 2 3 2 2 2 3 3 3 3 2 3 2 2 2 2 3 3 3 3 3 3 3 3 2 2 2 2 2 3 2 2 2 3 3 3 3 2 2 2 3 2 2 3 2 2 2 2 2 2 2 2 3 2 2 2 2 2 2 2 2 2 2 2 2 3 3 3 3 2 2 2 3 3 2 2 2 2 2 3 3 2 2 3 2 3 2 3 2 3 3 3 3 3 2 3 3 3 2 2 2 2 2 3 2 2 2 2 2 2 3 2 2 2 2 2 3 2 2 2 2 2 2 2 2 2 3 2 2 2 3 3 2 2 3 2 3 3 2 2 2 3 2 2 2 2 2 2 2 2 2 2 3 3 2 2 2 2 2 3 3 2 3 2 2 2 2 3 3 3 3 2 2 3 3 2 3 3 2 3 2 2 2 2 2 2 2 2 2 3 2 2 2 2 2 3 2 2 2 2 2 2 2 3 3 2 3 3 3 3 2 3 3 2 2 2 2 2 2 2 3 2 2 3 2 2 2 2 2 3 2 2 3 3 3 2 2 3 2 2 2 2 3 3 3 3 3 3 3 3 2 2 3 3 2 2 2 2 3 2 2 2 2 2 2 2 2 2 3 2 2 2 2 3 2 2 3 2 2 2 3 2 2 2 2 2 2 2 2 2 2 3 3 3 2 2 2 3 3 3 2 3 2 2 3 2 2 2 2 3 2 2 3 3 3 2 2 3 3 2 2 2 3 3 2 3 2 2 2 2 2 2 3 3 3 2 3 3 2 2 3 2 2 2 2 2 2 3 3 3 2 3 3 3 2 2 2 2 2 2 3 3 2 2 2 3 3 3 2 2 3 2 2 3 3 3 2 2 2 3 2 2 2 2 2 2 3 2 2 2 2 2 2 2 2 3 2 2 2 2 2 2 2 2 2 2 2 3 2 2 2 3 2 2 2 2 3 3 2 3 2 3 3 2 2 2 3 2 2 2 2 3 3 3 3 2 2 2 2 2 3 2 2 2 2 3 2 2 2 2 2 2 2 2 2 3 2 2 2 2 3 3 3 3 3 2 2 2 2 2 2 3 2 2 3 3 2 3 2 2 2 3 3 3 2 3 2 2 2 2 2 2 2 2 2 3 3 3 3 2 3 3 3 3 3 3 3 2 2 2 2 2 2 2 2 2 2 2 2 3 2 2 2 3 3 3 2 3 2 3 3 3 2 3 3 3 2 2 2 2 3 3 3 2 2 2 3 3 2 2 2 2 3 3 2 3 2 3 2 2 3 2 2 2 2 2 2 2 3 3 2 2 3 3 3 3 2 2 2 2 2 3 2 3 3 2 2 3 3 3 3 3 3 2 2 2 3 2 3 3 2 2 2 2 2 2 2 3 3 2 2 2 2 2 3 2 3 2 2 2 3 3 3 2 2 3 2 2 2 2 2 3 3 2 3 2 3 2 2 2 2 2 2 2 2 2 2 2 2 2 2 3 3 2 2 3 3 3 2 2 3 3 2 2 3 2 2 2 2 2 2 2 3 2 2 2 2 3 3 3 3 3 3 2 3 2 2 2 2 3 2 2 3 3 3 3 2 2 2 2 2 2 2 2 2 2 2 2 2 3 3 3 3 3 3 3 3 3 2 3 3 2 2 2 2 3 3 3 3 2 3 2 3 2 2 3 3 2 2 3 3 3 2 2 3 3 2 3 3 2 2 2 3 2 2 2 3 2 2 3 2 2 3 2 3 2 3 2 3 2 2 3 3 2 3 2 2 3 3 3 3 2 2 2 3 2 2 2 2 3 3 2 3 3 3 2 3 3 3 3 3 2 2 2 2 2 2 2 3 2 3 3 3 3 3 2 3 2 3 2 3 3 3 3 2 2 3 2 2 2 3 3 2 2 2 2 3 2 3 2 3 3 2 2 3 2 3 2 3 3 2 2 2 2 2 3 2 2 2 2 3 3 3 2 2 2 3 2 2 3 3 2 3 3 3 3 3 2 3 3 3 3 3 3 2 2 3 2 2 2 3 2 2 2 2 2 2 2 2 2 2 3 2 2 2 2 2 3 2 2 2 2 2 3 3 2 2 2 2 2 3 3 3 3 3 3 3 2 2 2 3 3 2 3 2 3 3 2 2 2 3 3 2 2 3 3 3 2 3 2 2 2 2 3 2 2 3 3 3 3 2 2 3 2 2 3 2 3 3 2 2 3 2 3 2 3 2 2 2 2 2 2 2 3 3 3 3 2 2 2 2 3 3 2 2 2 2 3 2 3 2 2 2 2 2 3 3 2 2 2 2 3 2 2 2 3 2 2 2 2 2 2 2 3 2 3 2 3 2 2 2 3 2 2 2 2 2 2 2 2 2 2 3 2 2 3 3 3 2 2 2 2 2 2 2 2 2 2 2 2 2 3 2 3 2 2 3 3 2 2 2 2 2 2 2 2 2 2 3 3 3 3 3 3 3 3 3 3 3 2 2 3 2 3 3 3 2 2 3 2 2 3 2 3 2 2 2 2 3 3 2 3 3 3 2 2 2 2 2 3 2 2 3 2 2 2 2 3 2 2 2 2 2 2 2 2 2 2 3 2 2 3 2 2 2 2 2 2 2 3 2 2 2 2 2 3 2 2 2 3 2 2 3 2 2 2 3 2 2 2 2 3 3 3 3 3 2 2 2 2 3 2 3 3 3 2 2 2 3 3 2 3 2 2 3 3 2 3 3 3 2 2 3 2 2 2 2 2 2 3 2 3 3 3 2 2 2 3 3 3 2 2 2 2 2 2 2 2 2 2 3 3 2 2 2 2 3 3 3 3 3 2 3 3 3 2 2 3 3 2 2 2 2 2 2 2 2 2 3 2 2 2 2 2 2 2 3 3 3 3 3 2 2 3 2 3 3 3 2 3 2 2 2 2 2 2 2 2 2 2 2 2 2 2 2 2 3 3 3 3 3 3 3 3 3 3 3 2 2 2 3 2 2 2 2 2 2 2 3 2 2 3 2 2 2 2 3 3 3 3 3 2 2 3 3 2 3 3 3 3 3 3 3 3 3 3 3 3 2 3 3 2 3 2 2 2 2 2 3 2 2 3 3 3 3 3 2 2 2 2 2 3 2 3 3 3 3 3 3 3 2 3 2 2 3 2 2 2 3 2 3 3 3 3 3 3 3 2 3 3 2 3 3 3 3 3 2 3 2 2 2 2 2 3 2 3 3 3 2 2 3 2 3 2 2 2 2 2 2 3 2 2 3 2 3 2 2 2 2 3 3 3 3 2 2 3 3 3 3 3 3 3 3 2 2 2 2 2 2 3 3 3 3 3 2 2 2 2 2 2 2 2 2 3 2 2 2 3 2 3 2 2 3 3 3 2 2 2 2 2 2 3 2 3 3 2 2 3 3 3 2 3 3 3 3 3 3 3 3 3 2 2 2 2 2 2 2 2 2 2 2 2 2 3 3 3 3 3 2 3 3 3 3 3 3 3 3 3 3 3 3 3 3 3 2 2 3 3 2 3 3 3 3 3 3 3 3 3 3 2 3 3 3 3 3 3 3 2 2 2 2 2 2 3 2 3 3 2 2 3 3 2 2 2 2 2 3 3 2 2 2 3 3 3 2 2 2 2 3 2 2 2 2 3 3 3 2 2 2 2 2 2 2 2 2 3 2 3 2 2 2 3 3 3 3 2 2 2 3 3 2 3 2 2 3 3 3 3 2 2 2 2 2 2 2 2 2 2 3 3 3 2 2 2 3 2 2 3 3 2 2 2 3 3 3 3 3 3 3 3 3 2 3 2 3 2 2 2 2 2 2 2 2 2 2 3 3 2 2 2 2 2 3 3 2 3 3 3 2 2 2 2 2 3 3 3 3 2 2 2 3 3 3 3 3 2 3 3 3 2 2 2 2 2 3 3 3 3 3 3 3 2 2 2 3 3 2 2 2 2 2 2 2 2 3 2 2 2 2 2 2 2 2 2 3 2 3 2 3 2 2 2 2 3 2 2 2 2 3 2 3 3 3 3 2 3 2 2 2 2 2 2 2 2 3 3 2 3 2 2 2 2 2 2 3 2 2 2 2 2 2 2 2 2 2 2 2 2 2 2 2 2 2 2 3 3 2 2 2 3 3 3 3 3 3 3 3 3 2 2 2 2 3 3 3 3 2 2 2 2 2 2 2 2 2 2 2 3 2 2 2 3 2 2 2 2 2 2 2 3 2 2 2 3 3 2 2 3 3 2 2 2 2 2 2 3 3 3 3 3 3 3 3 2 3 2 2 2 2 2 3 2 2 2 3 3 3 3 2 2 2 2 2 2 2 2 2 2 3 3 3 3 3 3 3 3 3 3 3 2 2 2 2 2 2 2 2 2 3 3 3 2 3 2 2 2 2 2 2 2 2 2 2 3 2 2 2 2 2 2 2 2 3 3 3 2 2 2 2 2 2 2 2 3 3 2 2 3 3 3 3 3 2 2 2 3 2 2 2 3 2 3 3 2 2 2 2 2 2 2 2 2 2 2 2 2 2 2 2 2 2 2 2 2 2 2 2 2 2 2 2 2 2 2 2 3 2 2 3 3 3 3 3 3 2 2 2 2 2 2 2 2 2 2 2 2 2 2 2 2 3 3 3 3 2 2 2 2 3 3 3 2 2 2 2 2 2 2 2 2 2 2 2 2 2 2 2 2 2 2 2 2 2 2 2 3 3 3 3 2 2 2 2 3 3 3 2 2 2 3 2 2 2 2 2 2 2 3 3 3 3 3 3 2 2 3 2 3 3 2 2 3 2 2 2 2 2 2 3 3 3 3 2 3 3 3 3 2 2 3 2 2 2 2 2 2 2 2 2 3 2 2 2 2 2 2 2 2 2 2 3 2 2 2 2 2 2 2 2 3 3 2 2 2 2 2 2 3 2 3 2 3 3 2 2 2 2 2 3 3 3 2 2 3 2 3 3 2 3 3 3 3 3 3 3 2 2 3 2 3 3 2 2 2 2 2 2 2 2 2 2 2 3 3 2 2 2 3 3 2 2 2 3 3 3 3 3 3 3 3 2 2 2 2 3 3 2 2 2 3 3 3 3 3 2 2 2 3 2 2 3 2 2 2 2 2 2 3 2 2 2 2 2 2 2 3 3 3 2 2 2 2 2 2 2 2 2 2 3 3 3 2 3 3 3 2 2 3 3 2 2 2 3 3 3 3 3 2 3 2 2 2 2 2 2 2 3 3 3 3 2 2 2 3 3 2 3 3 3 3 3 3 3 3 3 3 2 2 2 3 3 3 3 3 3 3 2 2 2 2 2 2 2 2 2 2 2 3 3 3 3 2 2 2 2 2 2 2 2 3 3 2 2 2 2 2 2 2 2 2 2 2 2 2 2 2 2 2 2 2 2 2 2 2 2 2 2 3 3 2 2 2 2 2 2 2 2 2 2 2 2 3 3 3 3 3 2 2 2 3 3 3 3 3 3 3 3 3 2 2 2 2 2 3 3 2 2 3 3 2 2 2 2 2 2 2 2 2 2 2 3 3 3 3 3 3 3 3 2 3 2 2 3 3 2 3 3 3 3 3 2 2 3 3 2 2 2 2 2 2 3 3 3 3 3 3 3 3 2 2 3 2 2 2 2 2 2 2 2 2 2 2 3 2 2 2 2 2 3 3 3 3 3 3 3 3 3 3 3 3 3 3 3 3 3 3 3 3 3 3 2 3 3 3 3 3 2 3 2 3 3 3 3 2 2 2 3 3 2 2 2 2 2 2 3 2 2 2 2 2 2 2 3 3 2 2 3 3 3 3 3 3 3 3 3 3 3 3 2 2 2 2 2 2 2 3 3 3 2 2 3 2 2 2 2 2 2 2 2 2 2 2 2 2 2 2 2 2 2 2 3 3 3 3 3 3 3 2 2 3 2 2 2 3 3 3 3 3 3 3 3 3 3 3 3 3 2 2 2 2 2 2 2 2 2 2 2 2 3 2 2 2 2 2 2 2 2 2 2 2 2 2 3 2 2 2 2 2 2 2 2 2 2 2 2 2 2 2 2 2 2 2 2 2 2 2 2 2 2 2 2 3 3 2 2 2 2 2 2 2 2 2 2 2 2 2 2 3 2 2 2 3 3 3 3 3 2 2 2 2 2 2 2 2 2 2 2 2 2 2 2 3 2 2 2 2 2 2 2 2 3 3 2 2 2 2 2 2 2 2 2 2 2 3 3 3 3 3 3 3 2 2 2 2 2 2 2 2 2 2 2 2 2 2 2 2 2 3 3 2 2 2 2 2 3 3 3 3 3 3 3 3 3 3 3 3 3 3 3 3 3 2 2 2 2 2 2 2 2 2 2 2 3 3 3 3 2 2 3 3 2 2 2 3 2 3 3 3 3 3 3 3 3 2 2 2 2 2 2 2 2 2 2 2 2 2 2 2 2 2 2 3 2 2 3 2 2 3 3 3 3 3 3 3 3 3 3 3 3 2 2 2 2 3 3 2 3 2 2 2 2 2 2 2 2 2 2 3 3 2 2 2 2 2 2 3 3 3 3 3 3 3 3 3 3 3 3 3 3 2 2 2 2 2 2 2 2 2 2 2 2 2 2 2 3 3 2 2 2 2 2 2 2 2 2 2 3 3 3 2 2 2 3 3 3 3 3 3 3 3 3 3 3 3 3 2 2 3 2 2 2 2 2 3 3 3 3 3 3 2 2 2 2 2 2 2 2 2 2 2 2 2 3 3 2 2 2 2 2 2 2 2 2 2 2 2 2 2 2 3 3 2 2 2 2 3 3 3 3 3 3 3 3 3 3 3 2 2 3 3 2 2 2 2 2 2 2 2 2 2 2 2 2 3 3 3 3 3 3 3 2 3 3 3 3 2 2 3 2 3 3 2 2 2 2 2 2 2 2 2 2 2 2 3 3 2 2 3 3 3 3 3 3 3 3 3 3 3 3 3 2 2 2 2 2 2 3 3 3 3 3 3 3 3 3 3 3 3 3 3 3 3 3 2 2 2 3 3 3 3 3 2 2 2 2 3 2 2 2 2 2 2 2 3 2 2 2 2 2 2 2 2 2 2 3 3 3 3 2 2 2 3 3 3 3 3 3 3 3 3 3 3 3 3 3 3 3 3 3 3 3 3 3 3 3 3 2 2 2 3 3 3 3 2 2 2 3 2 2 3 3 3 3 3 3 3 3 3 3 2 2 2 3 2 2 2 2 2 2 3 2 2 2 2 2 2 2 2 2 2 2 2 2 2 3 3 2 2 2 2 3 3 2 2 2 3 3 3 3 2 2 2 2 2 2 2 2 2 2 2 2 2 2 2 3 3 2 3 2 3 2 2 2 2 2 2 3 3 3 3 3 3 3 3 3 3 3 3 3 3 3 2 3 2 3 3 3 2 2 2 2 2 2 2 2 2 2 2 2 2 2 2 2 2 2 2 2 2 2 2 2 2 2 2 2 2 2 2 2 2 2 2 2 2 2 2 2 2 3 2 3 2 2 2 2 2 2 2 3 3 3 3 3 3 3 3 2 2 2 2 2 2 3 2 3 3 2 2 3 2 2 2 2 2 3 3 2 3 2 2 2 2 2 2 2 2 2 2 2 3 3 2 2 2 2 2 2 3 3 3 3 3 3 3 3 2 3 2 2 2 2 2 3 3 3 2 2 2 2 2 2 2 2 2 2 2 2 2 2 2 2 2 2 2 2 2 2 2 3 3 3 3 2 2 2 2 2 2 3 3 3 2 2 2 2 2 2 2 3 3 3 3 3 3 3 3 3 3 3 3 3 3 2 2 2 3 3 3 3 3 3 2 2 2 2 2 2 2 2 2 2 2 2 3 3 2 3 3 3 3 3 3 3 3 3 2 2 2 2 2 2 3 2 2 2 2 2 2 3 3 3 3 3 3 3 3 3 2 2 2 3 3 2 2 2 2 2 2 2 2 2 2 2 3 3 3 3 3 3 3 3 3 3 2 2 2 2 2 2 2 3 2 2 2 2 2 2 2 2 2 2 2 2 2 2 2 2 2 2 2 2 3 3 3 3 3 2 3 3 3 2 3 2 3 3 2 2 2 2 3 3 3 3 3 3 3 3 3 3 3 3 3 3 3 3 3 3 3 3 3 3 3 3 3 3 3 3 3 2 2 2 3 3 3 3 3 3 3 3 2 2 2 2 2 2 2 2 2 2 2 2 2 2 2 2 2 2 3 3 3 3 2 2 2 2 2 2 2 2 2 2 2 3 2 2 2 2 2 2 2 2 2 2 2 2 2 2 3 3 3 3 3 3 3 3 2 2 2 2 2 3 3 3 3 3 3 3 3 3 3 3 3 3 3 2 2 2 2 2 2 2 2 2 2 3 3 3 3 3 3 3 2 2 2 2 2 2 3 3 3 3 2 2 2 2 3 3 3 2 2 2 2 2 2 2 2 2 2 2 2 2 2 2 2 2 2 2 2 2 2 2 2 2 2 2 3 3 3 3 2 2 2 2 2 2 3 2 3 3 3 3 3 3 3 2 2 2 2 3 3 3 3 3 3 3 2 2 2 2 2 2 2 2 3 3 2 2 2 2 3 3 3 3 3 3 3 3 3 3 3 3 2 2 2 3 3 2 2 2 2 2 2 2 2 2 2 2 2 2 2 2 2 3 3 3 3 3 3 3 3 3 3 2 2 2 2 2 2 2 2 2 2 2 3 3 3 3 3 2 3 3 3 2 3 3 3 3 3 3 3 3 3 3 3 3 3 3 2 2 2 2 2 2 2 2 2 2 2 2 2 2 2 2 3 3 3 3 2 2 2 2 3 3 3 3 3 3 3 3 2 2 2 2 2 2 2 2 2 2 3 3 2 2 2 3 3 3 3 3 3 3 3 3 3 3 3 3 3 3 3 3 2 3 3 3 3 3 2 2 2 2 3 2 2 3 3 3 2 3 3 3 3 3 3 3 3 3 3 3 3 3 3 3 3 3 3 3 3 3 3 2 2 3 3 3 3 3 3 3 2 2 3 3 2 3 3 3 3 3 2 2 2 2 2 2 2 2 </DataArray>
</CellData>
</Piece>
</UnstructuredGrid>
</VTKFile>