<?xml version="1.0"?>
<VTKFile type="UnstructuredGrid"  version="0.1"  >
<UnstructuredGrid>
<Piece  NumberOfPoints="29" NumberOfCells="53">
<Points>
<DataArray  type="Float64"  NumberOfComponents="3"  format="ascii">-0.5575763919389134 -1.579221425130222 1.624763931340798  -0.6394103950273418 -1.885967542385817 1.772463933756891  -0.2307630709251082 -1.977271821301577 1.471181044419264  -0.3806512627115023 -1.630068972856112 1.909809739719508  -0.1944002557694448 -1.462850901679491 2.138911827054358  0.1666558328843934 -1.549864895007343 1.91279759807228  -0.1711918408887019 -1.983139075347575 1.842074765557213  -0.853420495280782 -1.453890156540273 1.485574797935731  -0.8420473046177399 -1.806772515993067 1.222217715227834  -0.5958572846995467 -1.899179233964539 1.487771781777529  -0.718776826249423 -1.07158912740432 1.415368659861116  -0.5136178706685083 -1.36028340084241 1.336078858819277  -0.4388734060990037 -1.25592219989705 1.687950063861267  -0.1823815018268221 -1.526821252107493 1.654529310749538  -0.2396638677351643 -0.9672640431327406 1.819416289723803  -0.5659413670829272 -1.908254128360612 1.193905724961896  -0.6559706135434473 -1.42180405776329 1.944159649815638  -0.8919454071444386 -1.780101424529732 1.682244887223824  -0.466214676280916 -1.211890401209563 2.187344616839348  -0.4913090933137605 -0.8658179070842074 2.050180167494419  -0.4568075246905228 -0.8842593797210982 1.636672436524356  -0.1001116010720892 -0.9901398679180773 1.559727400289164  0.2355468326973051 -1.976800661891307 1.867626148715342  0.1254157448558533 -1.703756195858605 1.588785014067285  0.07996573517703856 -1.992124062521926 1.37630983427414  -0.2855704058266187 -1.646446336161575 1.324262152723459  0.1021569525316506 -1.327805660959527 1.653761852414816  -0.6953786612592505 -1.471852142185765 0.9705856189616491  -0.527526366117657 -1.919907191504199 0.9011207031391884  </DataArray>
</Points>
<Cells>
<DataArray  type="UInt32"  Name="connectivity"  format="ascii">0 1 2 3  3 4 5 6  0 7 8 9  10 11 7 12  4 13 12 14  11 8 9 15  0 16 7 17  7 8 9 17  1 2 3 6  18 4 12 14  18 19 12 14  20 21 12 14  3 18 16 12  22 23 6 24  0 3 16 12  25 11 9 15  0 1 16 17  3 18 4 16  3 4 5 13  0 1 2 9  19 20 12 14  0 2 25 13  3 18 4 12  23 5 6 13  23 2 6 13  0 1 9 17  0 16 7 12  0 11 7 12  2 3 6 13  26 4 5 13  0 11 8 9  0 7 9 17  0 11 7 8  0 25 13 11  0 13 11 12  0 25 11 9  0 1 3 16  0 2 25 9  25 11 27 15  2 25 9 15  27 8 28 15  11 27 8 15  23 2 25 13  23 2 6 24  0 2 3 13  0 3 13 12  22 23 5 6  23 26 5 13  3 5 6 13  3 4 13 12  26 13 12 14  26 4 13 14  26 21 12 14  </DataArray>
<DataArray  type="UInt32"  Name="offsets"  format="ascii">4 8 12 16 20 24 28 32 36 40 44 48 52 56 60 64 68 72 76 80 84 88 92 96 100 104 108 112 116 120 124 128 132 136 140 144 148 152 156 160 164 168 172 176 180 184 188 192 196 200 204 208 212 </DataArray>
<DataArray  type="UInt8"  Name="types"  format="ascii">10 10 10 10 10 10 10 10 10 10 10 10 10 10 10 10 10 10 10 10 10 10 10 10 10 10 10 10 10 10 10 10 10 10 10 10 10 10 10 10 10 10 10 10 10 10 10 10 10 10 10 10 10 </DataArray>
</Cells>
<CellData  Scalars="f">
<DataArray  type="Float64"  Name="f"  format="ascii">3 2 3 2 2 2 2 3 3 2 2 2 2 3 2 2 2 2 2 3 2 2 2 2 2 3 2 2 2 2 2 3 2 2 2 2 2 3 2 3 3 2 2 3 2 2 2 2 2 2 2 2 2 </DataArray>
</CellData>
</Piece>
</UnstructuredGrid>
</VTKFile>