<?xml version="1.0"?>
<VTKFile type="UnstructuredGrid"  version="0.1"  >
<UnstructuredGrid>
<Piece  NumberOfPoints="274" NumberOfCells="995">
<Points>
<DataArray  type="Float64"  NumberOfComponents="3"  format="ascii">-0.8262722068337489 1.214214377293678 0.7319552811989505  -0.6062226566438368 1.439697221576838 0.430144653775685  -1.085640909602985 1.676569021482061 0.5128342442179297  -0.8703772905936825 1.791629823007596 0.6925816834223161  1.225257003058708 1.087822772977291 1.802378243505504  1.291716056056339 1.514744667736657 1.566197140660724  1.229206351219692 1.160190834715364 1.468546914215901  0.8002820848895167 1.245517446431679 1.806354342913812  1.025116009025532 1.341367238375896 2.03791273432409  0.937047807243359 1.139143600548469 2.292287176494212  1.026500503865961 1.708180226933143 2.203820081032769  0.724634143467811 1.448197965544568 2.145869248227742  0.3251415674980697 1.44307702781416 2.096353265541737  0.5681290962822957 1.549327866949738 1.773146020401223  0.5558257833500052 1.911322657138745 1.900059277335361  -0.2735891889529415 0.9569729094510142 2.12552337428227  -0.03919175637006414 0.9961399489150803 2.208831768913183  -0.06873693303092365 1.389446822062717 1.983219617280064  -0.4288678167384623 1.239012283384815 2.241953490964321  1.258308491177613 1.542161547685859 2.27170526119972  -0.9694713875451534 1.385937676744171 2.106230155188507  -1.009694780086552 1.717163073440949 2.062825459032976  -1.258981000836231 1.541609633272406 2.455411461786796  -1.009694780086552 1.71716307344095 2.59683869758662  -0.844926995554161 1.068622128813088 1.069123252014927  -0.3414150989220618 0.9363981445992313 1.071005738840007  -0.4922678887532528 1.230649576046017 0.6724026039041537  -0.3788887885544553 1.455913956808009 0.8999474566814727  -0.8110786017792939 1.047269901791205 2.121104941428879  -0.959866315318026 0.9405257741639269 1.626839118754434  -0.892990212372111 1.21769769929962 1.825057446330698  -0.7247392452730292 0.6856215615323663 1.96900354591404  0.703832443164323 1.296774617755608 0  1.085839958626342 1.676462627562471 0  0.815967879555884 1.820712259107823 0  0.7210652289595565 1.382696465015165 0.4268810221756049  0.1442795150810441 1.484939248488856 1.010602050919654  -0.009012304300633239 1.708706554924846 0.7398374173822192  -0.1118209022403694 1.988986602413682 0.9801646178047809  0.182152240719404 1.982059570186894 1.044691886492768  0.8085647595130739 1.466040108342257 1.5481343673394  0.4424771317703592 1.636537897080414 1.145980375529705  0.7610821922140668 1.480496114794606 1.212109319789605  0.7071890786616311 1.865407103486085 1.057788929456574  0.756132811102644 1.850560184566739 1.503152000270716  0.5178791473244835 1.26489927786667 3  0.4029248414127026 1.204631806333226 2.73567576311457  0.5537687920112865 1.351859095829314 2.530044562726093  0.775394094633397 1.277211819456766 3  0.4290099311982717 0.8991175029953397 1.197491932796561  0.5911820470464325 0.802243751827791 0.8786518036551082  0.7016393297798049 1.063836696035372 1.070733255320897  0.7816643063515599 0.6162581739138656 1.201287791390862  1.013770822252929 1.714984383512416 1.793150909366531  0.7348330606125655 1.857021393239568 2.170834804539639  -1.230947643491196 0.8176538316399466 1.805737396756329  -1.332861560589527 1.031877019211556 1.55094688052432  0.04504083786607943 1.649225737844505 2.218881006887865  0.1898814847936827 1.573183929223919 1.712662906107614  1.324835377882232 1.487564342747517 1.991528779165446  1.3230625116969 1.011817659597906 2.172887002434679  -0.3653837498630332 0.9291273338257455 1.55456478137134  -0.03930125034265256 0.996129164700061 1.859726882642217  0.1523760183173296 0.9849922721179493 1.540021591033011  -0.210955085465953 1.473064701073961 1.604276690252083  0.1643047838855171 1.320926202876569 0.2601257099434788  0.05207958592487053 1.496570209466655 0  -0.1302178383729681 1.254910122246268 0.292770397207166  0.1391998973416516 1.661628473974168 0.2874369829148079  0.4902387178597494 0.8663900346840245 1.644223245116999  0.6048500187449869 1.094333828430617 1.416453345737009  0.5143124361856025 1.615035728290868 0.3030368477971916  0.9248198794793943 1.157533796277712 1.31350528724392  1.310285011115728 1.499505520151565 1.221305217044282  1.043351705441751 1.699173072036732 1.471319563029217  0.4671578611291403 1.204306292433994 0.6398323713313319  0.4506392931273455 1.615455817897696 0.7978568622240574  0.3035663841944029 1.468329231260957 0.5178133255738145  -0.6796881143437906 1.523987731700569 2.661181032844699  -1.140708572998613 1.63867330633855 3  -0.8750023968525584 1.789157652207271 3  0.4653676037139801 1.406216133155081 1.432180213150491  0.1365322227412603 1.705542136429821 1.380205762255295  0.3693333200234774 1.963623843004327 1.279756406306504  -1.025539932059421 1.252856230816483 1.479334304136633  -1.4721675795117 1.343596388167719 1.618925523222353  -1.148333263155938 1.632415884839794 1.78015986768522  -1.244442521979935 1.553541054520678 1.478755947660962  1.046236435761914 1.259623450252614 3  0.8742082723200244 1.446804419358319 2.687174279676173  1.155492626478305 1.626540347205291 3  1.392037482153536 1.432413001073002 3  -0.4681260799992067 0.8782094858657317 0.8325819908896523  -0.09708392555109108 0.9904380679290505 0.8772233868214522  -0.2730822081236509 1.405944611692334 0  -0.380664042958306 1.962507864201424 0  -0.6738580304136191 1.875517966433276 0  -0.4012415102259741 1.637630821126016 0.2710145018262761  0.4549035203945458 1.604343132989162 2.724617221798848  0.4637410722358405 1.939256248866168 2.631686396845068  0.3140478354405893 1.969068987966176 3  0.6098018463920098 1.894949197420773 3  0.02676643764601537 1.300197661506557 0.7064266809922422  0.2702183339099075 0.9579954471492393 0.4203232145017637  -0.1950903220161293 0.9807852804032301 0  -0.07086380667432458 1.309039291560229 0  -0.6581426274935399 1.141175892022394 2.668245984588441  -0.7437850672925156 1.310274425777958 2.344038711966598  -1.067661353863925 0.9868268625447008 2.537163485791395  -0.9778930460282533 1.30754977276707 2.675174608316912  0.08130583150362561 1.348055664983449 1.373419031199028  -0.007223157962659155 1.999288581035586 1.542883892344841  0.3333848312727352 1.967164460109957 1.63125333343706  -0.1834299297759022 1.649144526163002 1.221032517683487  0.7561328111026439 1.850560184566739 2.561201759852887  -1.175934197438558 1.609764383466992 1.145300421014613  -1.033643812175094 1.704362049094382 1.368988998214624  1.27376505431592 1.529476674139147 2.564118891466585  0.8918694017944511 1.780142050235693 3  0.1661565775744638 1.551646101203875 2.556887451517214  0.1785856489387258 1.982410848816575 2.485013482829006  0.009516601073950248 1.999062696605036 3  1.266959080528367 1.072837320342046 0.3070083336368682  0.9006441312819163 1.195851894271065 0  1.325509241494877 1.487011317172708 0  1.026740274448011 1.342226116069992 0.2810816446233091  -0.3194953394224398 1.968532455654207 1.537546908821672  -0.2166237417827176 1.97866442367134 1.826102857666231  0.1795243367964527 0.982318396132153 1.268880345408205  -0.5463090841630303 1.617934395573558 1.534150311174274  -0.5416352648314748 1.266153308808087 1.654962000493026  -0.475714278225114 1.461073098013345 1.990623103556109  0.5811491229633505 0.8104775598327704 0.4195582311435302  0.4813410780483055 0.8711459222469204 0.6525577465606014  0.4706916550363877 1.200155881993751 0.3061720388465  0.01090256986352663 1.296448819505796 2.715241883618103  0.1276238778575568 1.637250392049376 3  -0.09711585788368765 1.490793832837871 3  0.3419724544540532 1.453373101437235 3  -0.9738863299386127 1.29796209853297 0.3548698454754697  -0.8565322307174396 0.9851968215745449 0.2806003666290897  -0.5487309629084373 1.168830080656482 0.2795309104015246  0.5274438955070994 1.919932208690407 0  0.6735271539842622 1.875618336700805 0.4401973666696549  0.4647844889462314 1.222718290358298 1.725376484616937  0.2702183339099073 0.9579954471492396 2.365945188904822  0.08031105797774156 1.311169543640173 2.313436608907443  0.5165522821737178 1.172046529814467 2.226237013913654  0.2619811471086827 0.9604941704476454 1.824094099115754  0.4637410722358405 1.939256248866168 2.338340568812943  0.06418241993696404 1.99367858338955 1.85486200412636  1.388409894790153 0.9793438094792545 1.146169918058405  1.12927075251153 1.116891617068138 0.9615898563112137  0.9218510219741471 0.9261978185950753 1.624065965663955  1.017988283394929 1.096890304312389 0.5685089787574747  0.9100980088585815 0.9839223753012754 0.2661356616581632  0.8850474053629072 1.047062943728529 2.678047646755426  0.78166430635156 0.6162581739138655 2.517007383206871  0.6188712620331606 0.7795198003534882 2.306042624597293  1.041119345695563 0.8518276646801668 1.186872341811162  -0.03930125034265274 0.996129164700061 2.568295406843527  -0.3448925070327117 0.9353432843813163 2.366073780949903  -0.2285005142135763 1.469324511627211 2.388520136497989  -0.6162581739138656 0.78166430635156 0.4191414197236378  -0.4864155127577982 0.8684335803860413 0  -0.3448925070327119 0.9353432843813163 0.3369121132772922  -0.5275263661176661 1.919907191504196 0.3753676109091024  -0.5275263661176652 1.919907191504196 0.6776658123553367  -0.2364866174756214 1.668666085867203 2.679620485558821  -0.1428347826811779 1.985932001805516 2.521964616201382  -0.3228874270112512 1.296959932787666 1.282266916427373  -0.1950903220161293 0.9807852804032301 3  -0.3268399160465632 1.2991464862264 2.700131573630263  -0.5519289362489997 1.38314656429069 3  0.6161044964006956 1.506569816507054 3  -0.5183545020952502 1.603496667730219 1.196719723593035  -0.7055764457917805 1.317597013421202 1.301115225193525  0.6539837630963129 1.343736809428488 0.8786087193327419  -0.7376982336589788 1.856152252497978 2.455194588060328  -0.5915000795287085 1.90050097770291 3  -0.4454176205645277 1.9448146071629 2.61157576185748  1.513913159533107 1.29272925173392 1.334115922848251  0.94071604896
[...]
<CellData  Scalars="f">
<DataArray  type="Float64"  Name="f"  format="ascii">2 2 2 2 2 2 3 2 2 2 2 2 3 2 2 3 2 2 3 2 2 2 2 2 2 2 3 2 3 2 3 2 2 3 2 2 2 2 3 2 3 3 3 3 2 2 2 2 2 2 2 2 3 2 2 2 3 2 2 2 3 2 2 2 2 2 2 2 2 2 2 2 2 2 2 3 2 2 2 2 2 2 2 3 3 2 2 3 2 2 2 3 2 2 2 2 2 3 2 3 2 2 2 2 2 2 2 2 3 2 2 3 2 2 2 2 2 2 2 2 3 3 2 2 2 2 2 3 2 2 2 2 2 2 3 2 3 3 2 2 2 3 2 2 2 2 2 2 3 2 2 2 2 2 3 2 2 3 3 2 2 3 2 3 2 2 2 2 3 2 2 2 2 2 2 2 3 2 2 2 2 2 3 2 3 2 2 2 2 2 2 2 2 2 2 2 3 3 2 2 2 2 3 3 3 3 2 2 2 2 2 2 2 2 3 3 2 3 2 3 2 2 3 3 2 2 2 3 3 2 2 3 2 2 2 2 2 2 2 3 2 2 2 2 3 3 2 3 2 3 2 2 2 2 2 2 2 2 2 3 2 2 2 2 2 3 2 2 2 2 2 3 2 3 2 2 3 2 2 2 3 2 2 2 2 2 2 2 3 2 2 2 2 3 2 2 3 2 3 2 2 3 2 2 2 2 2 2 3 3 3 2 3 2 2 2 2 2 2 2 2 2 3 2 2 2 3 2 2 3 2 2 2 2 2 2 2 2 2 2 2 2 2 2 2 3 2 2 2 2 2 3 2 2 2 2 3 2 3 2 2 2 2 3 2 2 2 2 2 2 2 2 2 3 3 2 2 2 2 2 2 2 2 2 2 2 2 2 2 2 2 2 2 2 3 2 2 2 2 2 2 2 2 2 2 2 2 2 2 2 2 2 2 2 2 2 2 3 2 2 2 2 3 2 2 3 2 2 2 2 3 2 3 2 3 2 2 3 2 3 3 2 2 2 2 3 2 2 3 2 3 3 3 2 3 2 2 3 2 3 2 3 2 2 2 2 2 2 2 2 2 2 2 3 2 2 3 3 2 2 2 3 3 3 3 2 2 3 2 2 2 3 2 2 2 2 2 2 2 2 2 2 2 3 3 2 2 2 3 2 2 2 2 2 2 3 2 2 2 2 2 3 2 2 2 2 2 2 2 2 2 2 2 2 2 2 2 2 2 3 3 2 2 2 2 3 2 2 2 2 2 2 2 2 3 2 3 2 2 2 2 2 2 2 3 2 2 2 2 2 2 2 2 2 2 2 2 2 3 2 2 2 2 2 2 2 2 2 2 2 2 2 2 2 3 2 3 3 2 3 2 3 2 2 2 2 2 2 2 2 2 2 2 2 3 2 2 2 2 2 2 2 2 2 2 2 2 2 2 2 3 2 2 2 2 3 2 2 2 2 2 2 2 2 2 2 2 2 3 2 3 3 2 2 2 2 2 2 2 2 2 2 2 3 2 3 2 2 2 2 2 2 2 2 3 3 2 2 2 3 2 2 2 2 3 2 2 3 2 2 2 2 2 2 3 3 2 2 2 2 2 2 2 2 2 2 3 2 2 2 2 3 2 2 2 2 3 2 2 2 2 3 3 2 2 3 2 2 2 2 3 2 3 2 2 2 3 3 2 3 2 2 2 2 2 2 2 2 2 2 2 2 2 2 2 2 2 3 3 3 2 2 2 3 2 2 2 3 2 2 2 3 2 2 3 2 2 2 2 2 3 2 2 3 2 3 2 2 2 2 2 2 2 2 2 2 3 2 2 3 3 2 2 3 3 2 2 2 3 2 3 2 2 2 2 2 2 2 2 2 2 2 2 3 2 2 2 2 3 2 2 2 2 2 2 3 2 2 2 3 2 2 2 2 2 2 2 2 2 2 2 2 2 2 2 3 3 2 2 2 2 3 2 2 2 2 3 3 2 2 2 2 2 2 2 2 3 3 2 2 2 2 3 3 2 2 2 2 2 2 2 2 2 2 2 2 2 2 2 2 2 2 2 2 2 2 2 2 3 2 2 3 3 2 2 2 3 2 2 2 2 2 2 3 2 2 2 3 2 2 2 2 2 2 2 2 2 2 2 2 2 2 2 2 2 2 2 2 2 2 2 2 2 2 2 2 2 2 2 2 3 3 3 3 2 2 2 2 2 2 2 2 2 2 2 2 3 2 3 3 2 3 2 2 2 2 2 2 2 2 2 2 2 2 2 </DataArray>
</CellData>
</Piece>
</UnstructuredGrid>
</VTKFile>