<?xml version="1.0"?>
<VTKFile type="UnstructuredGrid"  version="0.1"  >
<UnstructuredGrid>
<Piece  NumberOfPoints="29" NumberOfCells="54">
<Points>
<DataArray  type="Float64"  NumberOfComponents="3"  format="ascii">-0.8751712455348578 -1.463353711535435 2.471600042955393  -0.8919454071444382 -1.780101424529733 2.624632389090897  -0.6267722627066723 -1.889801277912284 2.473483288367779  -0.4235675924273373 -1.68416512920486 2.651495969977106  -0.4661008678108942 -1.421230556846709 3  -0.4633877114855078 -1.939363439677898 3  -0.7562159812985212 -1.850534955163644 3  -0.466214676280916 -1.211890401209563 2.187344616839348  -0.5321608870766419 -1.398484468300908 2.503641531981524  -0.5555949578943089 -1.632540582079879 2.22465688450821  -0.3136803525280127 -1.969105181873942 2.503169170697451  -0.1397771848346633 -1.729954020531203 2.339033044469641  -0.6394103950273418 -1.885967542385817 1.772463933756891  -0.3806512627115023 -1.630068972856112 1.909809739719508  -0.1711918408887019 -1.983139075347575 1.842074765557213  -0.4977043317094044 -1.928953606740366 2.019835382195217  -0.6559706135434473 -1.42180405776329 1.944159649815638  -0.8509052554934184 -1.802037842608312 2.002289537434243  -0.7292392180407681 -1.471181385415635 3  -1.155760552242304 -1.626320466213263 2.604273550400086  -1.026805441329685 -1.708017234463014 3  -0.891945407144439 -1.780101424529732 2.322334187644663  -0.1944002557694448 -1.462850901679491 2.138911827054358  0.1666558328843934 -1.549864895007343 1.91279759807228  -0.009603095190208716 -1.999054177678143 2.180868353570683  0.2355468326973051 -1.976800661891307 1.867626148715342  0.3350208444374065 -1.967003326877458 2.253272772226712  0.2111965712192294 -1.657578762555701 2.226202535386112  -0.8919454071444386 -1.780101424529732 1.682244887223824  </DataArray>
</Points>
<Cells>
<DataArray  type="UInt32"  Name="connectivity"  format="ascii">0 1 2 3  3 4 5 6  0 7 8 9  0 1 3 8  3 9 10 11  12 13 14 15  12 13 16 17  9 10 11 15  3 4 6 18  2 3 5 6  0 1 19 20  9 15 17 21  2 9 15 21  1 6 18 20  16 9 17 21  13 9 11 15  1 2 3 6  13 14 11 15  0 1 18 20  2 3 5 10  0 2 8 9  22 23 11 24  12 13 15 17  7 22 16 9  25 23 14 24  22 23 14 24  1 3 8 18  1 3 6 18  25 26 27 24  2 3 9 10  7 22 8 9  2 3 8 9  2 9 10 15  14 11 15 24  13 9 15 17  0 2 3 8  12 16 17 28  0 1 8 18  0 7 16 9  0 16 9 21  0 2 9 21  0 1 2 21  0 1 21 19  23 11 27 24  25 23 27 24  22 23 11 27  13 16 9 17  13 22 16 9  10 11 15 24  22 14 11 24  13 22 14 11  13 22 9 11  22 8 9 11  3 8 9 11  </DataArray>
<DataArray  type="UInt32"  Name="offsets"  format="ascii">4 8 12 16 20 24 28 32 36 40 44 48 52 56 60 64 68 72 76 80 84 88 92 96 100 104 108 112 116 120 124 128 132 136 140 144 148 152 156 160 164 168 172 176 180 184 188 192 196 200 204 208 212 216 </DataArray>
<DataArray  type="UInt8"  Name="types"  format="ascii">10 10 10 10 10 10 10 10 10 10 10 10 10 10 10 10 10 10 10 10 10 10 10 10 10 10 10 10 10 10 10 10 10 10 10 10 10 10 10 10 10 10 10 10 10 10 10 10 10 10 10 10 10 10 </DataArray>
</Cells>
<CellData  Scalars="f">
<DataArray  type="Float64"  Name="f"  format="ascii">3 2 2 2 3 3 2 3 2 3 3 3 3 3 2 3 3 3 3 3 2 2 3 2 2 2 2 3 3 3 2 2 3 3 3 2 2 2 2 2 3 3 3 2 2 2 2 2 3 2 2 2 2 2 </DataArray>
</CellData>
</Piece>
</UnstructuredGrid>
</VTKFile>