<?xml version="1.0"?>
<VTKFile type="UnstructuredGrid"  version="0.1"  >
<UnstructuredGrid>
<Piece  NumberOfPoints="27" NumberOfCells="53">
<Points>
<DataArray  type="Float64"  NumberOfComponents="3"  format="ascii">1.270640664059122 -0.8119874130366888 0.5027413848344545  1.632405147363933 -1.14834634680813 0.3884137081410578  1.395507801611464 -0.9792884678768545 0.2657458773266963  1.784573970979939 -0.8835778612704865 0.4779684402652754  1.63380507737217 -0.4378909949413543 0.3325167026671486  1.182176736733822 -0.5334086362333482 0.3192335765166306  1.462016366000571 -0.7271277098804615 0  1.558715434234333 -0.6624462133366534 0.6001189994399113  1.712525035448808 -1.01837193885873 0  1.853310845304716 -0.7470650978668609 0  0.7319793474097475 -0.676799471553158 0  1.220003014685507 -0.8540423747822103 0  0.9053975484695387 -0.4172607924959917 0  0.8997596842625536 -1.194733006349771 0  1.117341003440476 -1.266002944659981 0.3130695116008358  0.9829058205933265 -0.9520320181590249 0.2877579712611045  1.438655598214031 -1.384430855528367 0.5447194833783637  1.270340412691194 -1.089245202787454 0.734407584149086  1.423022926932872 -0.4566516368323163 0  1.535543153705779 -1.266373027576072 0  1.438655598214031 -1.384430855528367 0.317864953419955  1.625096598652706 -1.157251839179692 0.7424291776257804  1.207410232084788 -1.583932669413443 0.4030665077673261  1.325509241494887 -1.487011317172701 0  1.902692536685929 -0.5842754777728641 0.5306976110681447  1.085839958626353 -1.676462627562465 0  1.421903329894547 -0.3657283814218122 0.6899689842777004  </DataArray>
</Points>
<Cells>
<DataArray  type="UInt32"  Name="connectivity"  format="ascii">0 1 2 3  4 0 5 6  4 2 3 7  2 3 8 9  5 10 11 12  11 13 14 15  2 11 14 15  1 2 16 17  4 6 18 9  2 14 19 20  2 16 17 14  0 5 11 15  5 10 11 15  5 6 18 11  2 16 14 20  1 16 21 17  10 11 13 15  0 1 2 17  22 16 14 20  5 18 11 12  1 2 16 20  1 2 3 8  4 5 6 18  0 2 14 15  22 14 20 23  4 3 7 24  1 2 8 19  4 3 9 24  14 19 20 23  4 2 3 9  0 2 11 15  1 2 19 20  2 8 11 19  2 6 8 11  2 6 8 9  4 2 6 9  4 0 2 6  0 2 5 6  0 2 5 11  2 5 6 11  22 14 25 23  13 14 25 23  13 14 19 23  11 13 14 19  2 11 14 19  0 17 14 15  0 2 17 14  4 0 2 7  4 0 5 7  0 2 3 7  4 26 7 24  4 5 26 7  0 5 26 7  </DataArray>
<DataArray  type="UInt32"  Name="offsets"  format="ascii">4 8 12 16 20 24 28 32 36 40 44 48 52 56 60 64 68 72 76 80 84 88 92 96 100 104 108 112 116 120 124 128 132 136 140 144 148 152 156 160 164 168 172 176 180 184 188 192 196 200 204 208 212 </DataArray>
<DataArray  type="UInt8"  Name="types"  format="ascii">10 10 10 10 10 10 10 10 10 10 10 10 10 10 10 10 10 10 10 10 10 10 10 10 10 10 10 10 10 10 10 10 10 10 10 10 10 10 10 10 10 10 10 10 10 10 10 10 10 10 10 10 10 </DataArray>
</Cells>
<CellData  Scalars="f">
<DataArray  type="Float64"  Name="f"  format="ascii">2 2 3 3 2 2 2 3 2 3 3 2 2 2 3 3 2 2 3 2 3 3 2 2 3 3 3 3 3 3 2 3 2 2 3 3 2 2 2 2 3 2 2 2 2 2 2 2 2 2 2 2 2 </DataArray>
</CellData>
</Piece>
</UnstructuredGrid>
</VTKFile>