<?xml version="1.0"?>
<VTKFile type="UnstructuredGrid"  version="0.1"  >
<UnstructuredGrid>
<Piece  NumberOfPoints="29" NumberOfCells="57">
<Points>
<DataArray  type="Float64"  NumberOfComponents="3"  format="ascii">1.224428711902422 0.8572007005199244 0  1.42566686790015 0.4574536675564076 0  1.712525035448802 1.018371938858741 0  1.554737943054615 0.6015453838148427 0.2951785074342577  1.535543153705771 1.266373027576081 0  1.266959080528367 1.072837320342046 0.3070083336368682  1.2560895533838 0.3755624603121517 0.2715940152176433  0.9807852804032301 0.1950903220161294 0  0.8684335803860413 0.4864155127577983 0  0.9353432843813161 0.3448925070327119 0.3832132922302746  1.853310845304712 0.7470650978668738 0  1.632405147363925 1.14834634680814 0.3222839555883715  1.116274092375622 0.7030559869568249 0.3554305840292444  0.7816643063515599 0.6162581739138655 0.6208355503410141  1.689400724141101 0.2795524307698475 0.3175238567445141  1.942139329818966 0.4542368280538605 0  1.873317132660131 0.6811132070549863 0.6336369605768306  1.784573970979933 0.8835778612704979 0.4062168489044895  1.897725087561839 0.600650962960367 0.3783117444761455  1.351750146639622 0.2133536864420462 0  1.312522086149463 0.04418798656386991 0.5971271750425831  0.9349189856343629 0.3462912325500227 0.7047979544872645  1.442428941341114 0.3784721442466215 0.5445319399544513  1.970041898255384 0.3041697115024052 0.5247613097723676  1.411246688167548 0.8229637507738986 0.588954136180895  1.775794024887503 0.9000039850720389 0.7554440117419637  0.996129164700061 0.03930125034265267 0.4203233659115466  1.185694870140822 0.5668471748948971 0.6562871613763798  1.632405147363925 1.14834634680814 0.5552635495836769  </DataArray>
</Points>
<Cells>
<DataArray  type="UInt32"  Name="connectivity"  format="ascii">0 1 2 3  0 2 4 5  6 7 8 9  1 2 3 10  2 3 5 11  6 8 9 12  8 9 12 13  1 3 14 15  3 16 17 18  3 10 17 18  1 3 10 15  3 10 15 18  1 6 7 19  20 9 21 22  14 23 22 18  3 24 16 17  1 6 14 19  24 25 16 17  20 9 21 26  3 24 27 12  3 24 16 22  3 14 22 18  0 3 5 12  2 4 5 11  6 20 9 22  23 16 22 18  0 1 8 12  1 14 19 15  24 28 25 17  6 7 9 26  1 6 8 12  3 5 24 12  14 23 15 18  2 3 10 17  2 3 11 17  1 3 6 14  3 16 22 18  0 1 3 12  1 3 6 12  3 14 15 18  6 14 20 22  9 27 21 13  3 24 27 22  6 20 9 26  0 2 3 5  9 27 21 22  24 28 11 17  3 5 24 11  3 24 11 17  3 6 14 22  3 6 12 22  1 6 7 8  9 27 12 13  6 9 27 12  6 9 27 22  6 27 12 22  3 27 12 22  </DataArray>
<DataArray  type="UInt32"  Name="offsets"  format="ascii">4 8 12 16 20 24 28 32 36 40 44 48 52 56 60 64 68 72 76 80 84 88 92 96 100 104 108 112 116 120 124 128 132 136 140 144 148 152 156 160 164 168 172 176 180 184 188 192 196 200 204 208 212 216 220 224 228 </DataArray>
<DataArray  type="UInt8"  Name="types"  format="ascii">10 10 10 10 10 10 10 10 10 10 10 10 10 10 10 10 10 10 10 10 10 10 10 10 10 10 10 10 10 10 10 10 10 10 10 10 10 10 10 10 10 10 10 10 10 10 10 10 10 10 10 10 10 10 10 10 10 </DataArray>
</Cells>
<CellData  Scalars="f">
<DataArray  type="Float64"  Name="f"  format="ascii">2 2 2 2 3 2 2 2 3 3 2 3 2 2 2 3 2 3 2 2 2 2 2 3 2 2 2 2 3 2 2 2 3 3 3 2 2 2 2 3 2 2 2 2 2 2 3 3 3 2 2 2 2 2 2 2 2 </DataArray>
</CellData>
</Piece>
</UnstructuredGrid>
</VTKFile>