<?xml version="1.0"?>
<VTKFile type="UnstructuredGrid"  version="0.1"  >
<UnstructuredGrid>
<Piece  NumberOfPoints="734" NumberOfCells="3024">
<Points>
<DataArray  type="Float64"  NumberOfComponents="3"  format="ascii">10.10045521657062 3.293531735918288 3.825672093657032  9.999230122857304 3.338935986229512 3.810729469843685  9.994608010491566 3.225259736244798 3.855491712405533  10.00328720448549 3.243528652932193 3.919760468420326  10.00404089133932 3.364408668619846 3.872219962209264  10.1040087490871 3.313722129144391 3.889571991261783  10.01176718085974 3.261617343990179 3.984158431946041  10.00867100552684 3.389730705202493 3.933875881713112  10.10739282852106 3.333746126972152 3.953620347215611  10.02017767936987 3.279636607614367 4.048637589784755  10.01324026731882 3.415010847291644 3.995624725730937  10.11072689706094 3.353724727905309 4.017766154144434  10.02860884934516 3.297634790674067 4.113166503951819  10.01784198890073 3.440294933427788 4.057427395824183  10.11408566871473 3.37371346543202 4.081993663837004  10.03714507755204 3.315637275164977 4.177727736049881  10.02256601064767 3.465601877383448 4.119267409944608  10.11754272014504 3.393758414603044 4.146333550073638  10.04591182118902 3.333713936424501 4.24230775208205  10.0274831095871 3.491010323740006 4.181202787987784  10.12117405315929 3.413916307591572 4.210831668926923  9.893096170225924 3.330077343770696 3.833672421559524  9.905774755572454 3.356428025994557 3.894331500217075  9.918170480203765 3.382655957839717 3.955147568735568  9.930475934842628 3.408841909501477 4.016034100584051  10.44492812938021 2.654017380569688 3.801164497216909  10.58834542072091 2.70551067320654 3.814255844458176  10.54549601122638 2.609136412719391 3.76008165229282  10.58718739178 2.734468728367945 3.755590821094529  10.43965512213669 2.685511229502358 3.745291184893484  10.54650365571525 2.576530522112866 3.814914354138284  10.44986604579261 2.62248275253082 3.857050120509756  10.58903878287996 2.676507931019178 3.872980354063186  10.54730332419197 2.54378234956729 3.869776674784832  10.45466212405963 2.590811973066798 3.912929281016329  10.58954116326533 2.647361192003084 3.931775029521597  10.54810250482912 2.510893059808786 3.924673615288615  10.45946271485597 2.559029554073442 3.968810283730468  10.59003645650531 2.618077731646715 3.990648288964139  10.54908330067975 2.477890414233386 3.979610747192337  10.46442872065801 2.527169447366398 4.024695256264224  10.59070897961152 2.588676104500949 4.049607438490846  10.55046987095057 2.444807738179156 4.034603456682958  10.46976671729514 2.495280986163312 4.0805808595456  10.59180279983473 2.559180617194078 4.108677064611218  10.48751734637475 2.782747069861092 3.786650030751518  10.49275087227719 2.755311386874674 3.846242782797103  10.4976453557154 2.727803183643757 3.905888702761987  10.50238061908829 2.700169963667341 3.965571129643345  10.50710807719057 2.672428526260293 4.025296371587392  10.51199790093579 2.644599288311082 4.085070704323408  10.51727927716981 2.616692222391031 4.144881552637595  10.35204244906966 2.745102922356313 3.781893309685821  10.3590978401933 2.716505552269851 3.839879987493279  10.3658770826219 2.687851059792783 3.897859410311332  10.37252662826485 2.659095516877744 3.955832755056588  10.37915901406854 2.630237123777676 4.013789423777498  10.38591910671468 2.60132578393836 4.071722686413564  10.39297168020563 2.572432328489583 4.129612461500612  10.22714218446491 2.499671907047054 3.650742519174957  10.17559076700641 2.583978335555361 3.72519410526843  10.08875119795249 2.513979942380256 3.696150375730881  10.10146552481744 2.477429091930211 3.744503398572769  10.1879101848493 2.550215252700371 3.776703454098197  10.23734831237523 2.462269554318218 3.697838127556013  10.1140854374311 2.440887882370117 3.792770608038874  10.20008697654344 2.516433331896004 3.82813495774211  10.24738646216845 2.424866590213925 3.744874586993416  10.12664202604905 2.404335546185845 3.840959975043084  10.21217815851347 2.482617554819887 3.879502285179022  10.25732616841812 2.387435349466427 3.7918515214541  10.13918922359216 2.367772283880911 3.889083516253449  10.22426355718074 2.448758542389639 3.930802193496978  10.26725611036796 2.349966905025503 3.838767326563246  10.15176243967613 2.331204863562607 3.937134424756459  10.23640663535157 2.414885274362156 3.982035101421086  10.55385693084774 3.299301982798235 3.842066391120655  10.44486759903734 3.356253114539994 3.814966838313879  10.43858401180963 3.23019869042502 3.845676586276192  10.43422289816873 3.243116374449972 3.913094684282623  10.43899976117007 3.379190298060498 3.879423651455768  10.54916238479957 3.315812272112813 3.909661302494017  10.42967740511789 3.255900567849523 3.980650568351616  10.43298416203604 3.402073871172842 3.944045437267897  10.54423047690153 3.33231570282728 3.977418564890222  10.4250468329502 3.268646823287927 4.048351231415962  10.4268889268537 3.424964443297608 4.008830924726626  10.53916305422581 3.34880320540034 4.045378632432238  10.42040377586532 3.281396888434362 4.116199480250197  10.42077170489747 3.447894362483728 4.073793302566035  10.53406573581842 3.365302173009138 4.113550556091881  10.41580320257627 3.294185213792526 4.184179277546915  10.4146906116987 3.470896464199434 4.138929686048152  10.52903742205148 3.381845403723521 4.181944947151332  10.41130200794403 3.307044230446324 4.25224881926985  10.40869159172784 3.494013895866037 4.204203247401731  10.52421553455618 3.398477027496297 4.250540976598409  10.56508243584415 3.38661548443976 3.813591193858065  10.55950585570254 3.410110804543109 3.878629723226813  10.55371379935314 3.433680718413158 3.94384613995878  10.54777403532469 3.457267865547121 4.009290927443513  10.54177945374867 3.480891215497697 4.074948468658061  10.53579707347863 3.504557793862747 4.140811635490593  10.53001185617839 3.528291726433296 4.206876584077719  10.51602200166093 3.469059706349515 3.774204387042443  10.50699724931663 3.499710444912499 3.834889836237612  10.49786119957467 3.530449734189204 3.895732900103177  10.4886264043336 3.561255451490729 3.956768957758199  10.47934546134459 3.592132042290061 4.018001493780462  10.47002831640578 3.623105421315294 4.079447113663535  10.46063308943614 3.654209906169893 4.141102354574033  10.38661110319328 2.821669043352208 3.814878140356756  10.39298668197393 2.798171097996996 3.876492207252893  10.39907949170937 2.774575126724301 3.938129337935122  10.40503576736335 2.750857738707873 3.999790837670465  10.41099383371912 2.727043414393813 4.061470734562005  10.41710002775084 2.703176131802822 4.12316044235734  10.42347740671767 2.679286140651212 4.184842340844452  10.67454434679197 3.355042105851896 3.830115232600859  10.64012150329871 3.256041868089424 3.855068043590656  10.63642186548664 3.266939427245328 3.924396647988673  10.66742718244551 3.373775296103146 3.897351155122794  10.63239878609915 3.277855607295525 3.99394595305425  10.65992826243443 3.392656205381729 3.964766360711934  10.62821339661345 3.288736266146016 4.063744000977973  10.65228537741637 3.411529239949609 4.032493612323663  10.62401324772762 3.299587864868508 4.133775631731008  10.64462492481078 3.430395632366624 4.100468820897186  10.6199124407206 3.310424914394561 4.204034641971872  10.63702915026 3.44924128105374 4.168641798260938  10.61604751577999 3.321263597154076 4.274536658477181  10.62954709229314 3.468097777811022 4.237020176809316  10.32414022479886 3.260385972429566 3.832685245114024  10.31950149821242 3.275907896295993 3.898666102984538  10.31473160472053 3.291266031262907 3.964799302543951  10.30992256979501 3.306593627479195 4.031047318637649  10.30512442662316 3.321933759263002 4.097408975294401  10.30036676480593 3.337332266559118 4.163904956417606  10.29553614597007 3.352837179156469 4.230557718494069  10.71593438238502 2.731608474009713 3.834457038433867  10.67187459962258 2.638363214756528 3.783741291974315  10.71987597192862 2.758534908453846 3.77324894505778  10.6680936678446 2.606869840072648 3.841049755407714  10.07267802246451 3.4712537912158 3.742401976289291  9.966354554461446 3.428467058565981 3.772122322777713  10.08101926390966 3.394939742752568 3.787223978316135  10.08202361287636 3.42450257966463 3.846979548380914  9.971758759572264 3.460966570211265 3.829656178086311  10.07531766424371 3.506633248645309 3.798021296823537  10.08288649308224 3.453968925498415 3.90693128667428  9.976957804893528 3.493378946228747 3.887366729062041  10.07778518508392 3.541957015867884 3.853812927407194  10.08372283396168 3.483437720568765 3.96698008442644  9.982096498248733 3.525781628375723 3.945168741090501  10.08021718408657 3.577306172086597 3.909704670180376  10.08459622049747 3.512948520618692 4.027115679029951  9.987272589056893 3.55821281534365 4.003028344873585  10.0826626275872 3.612716192152709 3.965696593024918  10.08555124471475 3.542543867395047 4.087355728448874  9.876211727050485 3.241045289875904 3.946353555748602  9.89015413423285 3.259742891004916 4.010372272305125  9.90399907707123 3.278372318504354 4.074450888198363  9.917849781451336 3.296956977977653 4.138558647203159  10.17540925020011 2.890179889829536 3.851971505823885  10.17372585864925 2.989456175508376 3.862687629837523  10.06886532795112 2.943642242109274 3.877170930727243  10.07928788413865 2.936114851405964 3.943148479484469  10.18355806914266 2.984459596299764 3.928854504213188  10.18398541959585 2.878830357167153 3.917001365760536  10.08955519203942 2.928446225789772 4.009090482902081  10.19320384779024 2.979297943349912 3.995017546044204  10.1923948000526 2.867330695324106 3.981991918938251  10.09974130404173 2.920669443367439 4.075017799757899  10.20274870497853 2.974022425597802 4.061198185417005  10.20071071582423 2.855728414645228 4.046969367810921  10.10990311746215 2.912809512231204 4.140938085806387  10.21225716262516 2.968668042381051 4.127399097313845  10.20899546537672 2.844035251753415 4.111942524175118  10.12012385680237 2.904919901117506 4.20684
[...]
<PointData  Vectors="f_24"> 
<DataArray  type="Float64"  Name="f_24"  NumberOfComponents="3" format="ascii">-2.9657580879412299e-02 3.6210233088616393e-02 -6.7751498297615800e-02  -2.9329323721692096e-02 4.2208896296824859e-02 -6.3106009751372469e-02  -2.7763611690495016e-02 2.9824062985932650e-02 -6.9915847539200868e-02  -2.7225372254747447e-02 2.4868240484431314e-02 -7.2429312573612389e-02  -2.8453135851586285e-02 3.5436235717206929e-02 -6.4304753217627880e-02  -2.8777610658741636e-02 3.0475565640683672e-02 -6.9803346468652203e-02  -2.6514661947929227e-02 2.0349319057430950e-02 -7.3948607535002445e-02  -2.7498381678783993e-02 2.9187244375195688e-02 -6.4667996289571414e-02  -2.7828669421135349e-02 2.5073043867450875e-02 -7.0846098943013594e-02  -2.5644951778728355e-02 1.6119903696160856e-02 -7.4554461178251083e-02  -2.6430360583788986e-02 2.3336719389607415e-02 -6.4221816293778308e-02  -2.6813422184786502e-02 2.0000577080546655e-02 -7.1031710056583347e-02  -2.4622956548015468e-02 1.2080007048220487e-02 -7.4325615784104127e-02  -2.5243007437035250e-02 1.7752800562143130e-02 -6.3029913045582267e-02  -2.5729910735957116e-02 1.5163380053933209e-02 -7.0419919856987145e-02  -2.3430144528720699e-02 8.1532733139534786e-03 -7.3312082647342999e-02  -2.3927973411738232e-02 1.2320226779226402e-02 -6.1127166770904774e-02  -2.4576014984497754e-02 1.0457990574837909e-02 -6.9014724117421017e-02  -2.2016040890390554e-02 4.2873492291788723e-03 -7.1498177850948447e-02  -2.2477480425014247e-02 6.9496593776660525e-03 -5.8405277608458164e-02  -2.3349805898147915e-02 5.7473547623977089e-03 -6.6860077213997726e-02  -2.7795083338355460e-02 4.0014710169693948e-02 -6.2311377139364063e-02  -2.7290932060883403e-02 3.3332608860786900e-02 -6.3510184462392441e-02  -2.6473036653607580e-02 2.7188249287593221e-02 -6.3825749479154134e-02  -2.5477201358335460e-02 2.1451676665251714e-02 -6.3331059604198173e-02  -2.6487857048466710e-02 -1.5042271506087777e-02 -7.4613883395631769e-02  -2.8153492199829808e-02 -1.0836999606920389e-02 -7.7598953665871787e-02  -2.7020179141456682e-02 -1.9931760940411426e-02 -7.2051620954818582e-02  -2.8558518049334288e-02 -1.5729196814572521e-02 -7.6778272347474891e-02  -2.6792792773407077e-02 -2.0395871757136984e-02 -7.4346903499236616e-02  -2.6437835873950943e-02 -1.4864030912748924e-02 -7.1449915370369058e-02  -2.5984120769230130e-02 -1.0373843333672935e-02 -7.4397807788495793e-02  -2.7599051229821037e-02 -6.5214082220095646e-03 -7.7892062696332504e-02  -2.5787169875916862e-02 -1.0182030974208911e-02 -7.0391974179795425e-02  -2.5372364546034084e-02 -6.1106610394376553e-03 -7.3646299495509368e-02  -2.6975413751222636e-02 -2.6073629528838797e-03 -7.7601857054065859e-02  -2.5122556141084999e-02 -5.7417519965389770e-03 -6.8833658873889023e-02  -2.4713947302196761e-02 -2.0713311877638965e-03 -7.2312574504240862e-02  -2.6346427378622958e-02 1.0673652174188828e-03 -7.6711516038537375e-02  -2.4501028516528692e-02 -1.4078200596808286e-03 -6.6728487927857114e-02  -2.4066915291385479e-02 1.8780501015293739e-03 -7.0352059580709697e-02  -2.5788212404053098e-02 4.6307023581737229e-03 -7.5205273809682449e-02  -2.4008243497824926e-02 2.9381655398531162e-03 -6.3989461083199625e-02  -2.3488028677100013e-02 5.8584515370940565e-03 -6.7742395446932807e-02  -2.5395429874066264e-02 8.1869478032640525e-03 -7.3009467239362108e-02  -2.7941056658523797e-02 -1.1119198512226038e-02 -7.8301763074136846e-02  -2.7741927474631466e-02 -6.6704923820647775e-03 -7.9713282130556409e-02  -2.7270769308176564e-02 -2.9205052772160985e-03 -8.0422474625589699e-02  -2.6676041044681399e-02 4.2083979766905565e-04 -8.0440185499528069e-02  -2.6057289692081688e-02 3.5569344563680032e-03 -7.9782828768252503e-02  -2.5482886166991441e-02 6.6066823067605310e-03 -7.8454071382473761e-02  -2.4997844291755091e-02 9.6280795211740218e-03 -7.6427799609686084e-02  -2.6483029033041259e-02 -1.4636665298847811e-02 -7.6383628255769762e-02  -2.6290684110803916e-02 -9.7315059850448474e-03 -7.7542140089351203e-02  -2.5852554879685505e-02 -5.6366902226648854e-03 -7.8043467411964940e-02  -2.5266729897275870e-02 -1.9792562496004588e-03 -7.7848462177728853e-02  -2.4602368367723115e-02 1.4716654666748511e-03 -7.6977970356927869e-02  -2.3913350040903905e-02 4.8477135639373985e-03 -7.5433018157890608e-02  -2.3265596286517032e-02 8.2048588298506107e-03 -7.3157013551074498e-02  -2.3227584201010697e-02 -4.1878734749656463e-02 -6.1687949216265990e-02  -2.3491240237436678e-02 -3.0529086690935452e-02 -6.7334930263323489e-02  -2.1982324105405012e-02 -3.8444078012090044e-02 -6.2114513883976062e-02  -2.1521941445438765e-02 -3.2100249036645524e-02 -6.0626182081924905e-02  -2.3183101595303294e-02 -2.4460399371397590e-02 -6.6767034971695838e-02  -2.2706612343862884e-02 -3.5623948087077660e-02 -5.9848965202040777e-02  -2.0885240856797591e-02 -2.6457252575755253e-02 -5.8918656236378028e-02  -2.2659965058724130e-02 -1.9102558331517930e-02 -6.5793956012821411e-02  -2.2056288696234050e-02 -2.9984026300229595e-02 -5.7863866879875846e-02  -2.0112050814894124e-02 -2.1234703464063358e-02 -5.6876262647949177e-02  -2.1990755288909720e-02 -1.4178542128293174e-02 -6.4374166083453491e-02  -2.1304899616912763e-02 -2.4722814048245230e-02 -5.5616006254500569e-02  -1.9224193751137958e-02 -1.6217116036888021e-02 -5.4426270208548184e-02  -2.1209511635095744e-02 -9.4792924499319409e-03 -6.2461412631742486e-02  -2.0474469711622503e-02 -1.9651130257613472e-02 -5.3007583136218527e-02  -1.8227138694793959e-02 -1.1247033279273989e-02 -5.1500320856967104e-02  -2.0329613456180465e-02 -4.8512250611111619e-03 -6.0008786752675486e-02  -3.2966882584370430e-02 3.2377526230323007e-02 -7.3471010789927627e-02  -3.3112164753801347e-02 3.9306642450100800e-02 -6.8950867934611998e-02  -3.1596185315983287e-02 2.7953889625916911e-02 -7.5374134311683799e-02  -3.0609692895480191e-02 2.3881026092868379e-02 -7.8210419956090974e-02  -3.1886089448564629e-02 3.3256383975681966e-02 -7.0418130076384672e-02  -3.1984821812146014e-02 2.7487081172890962e-02 -7.5731363445184413e-02  -2.9648404720710522e-02 2.0202657658653748e-02 -7.9899821206901769e-02  -3.0684952207788645e-02 2.7783230679209295e-02 -7.0845066221662742e-02  -3.0941268271307682e-02 2.3079073873551795e-02 -7.6863322222591679e-02  -2.8720203044696815e-02 1.6725544044907916e-02 -8.0589368061797548e-02  -2.9534663594106985e-02 2.2639043511420279e-02 -7.0419308964595917e-02  -2.9924435052225709e-02 1.8908477245767503e-02 -7.7085886441070672e-02  -2.7864273931126820e-02 1.3333703536475700e-02 -8.0433765491969331e-02  -2.8481684497995100e-02 1.7650891706386063e-02 -6.9240383634562516e-02  -2.9014986892743105e-02 1.4837691997959411e-02 -7.6530065209223633e-02  -2.7158431767253865e-02 9.9574468130798968e-03 -7.9534758665899166e-02  -2.7584749670649181e-02 1.2704516849108383e-02 -6.7370638931971732e-02  -2.8287560261980954e-02 1.0773139062754501e-02 -7.5287401403575288e-02  -2.6699856165292857e-02 6.5579868730227774e-03 -7.7942518309287945e-02  -2.6902205375539057e-02 7.7206793138331871e-03 -6.4861112217273656e-02  -2.7794590784771676e-02 6.6399620626291849e-03 -7.3487811755742108e-02  -3.4227120961129835e-02 4.0551761349133748e-02 -6.8378766605877356e-02  -3.3026187610190050e-02 3.4436818714388057e-02 -6.9609012261843142e-02  -3.1803584889297111e-02 2.8900237961482597e-02 -6.9905039677509023e-02  -3.0632627276597962e-02 2.3684614051635047e-02 -6.9378624808668118e-02  -2.9583118779642707e-02 1.8621278922716211e-02 -6.8137831714499039e-02  -2.8723083485531455e-02 1.3585092939694263e-02 -6.6258510032832466e-02  -2.8095376924205752e-02 8.4876660640803327e-03 -6.3780951476101730e-02  -3.5126919279391038e-02 5.0021197330083957e-02 -6.1977803250615422e-02  -3.3674124810155685e-02 4.2864530616666133e-02 -6.1775402892765577e-02  -3.2270960884516073e-02 3.6384104608588839e-02 -6.0821690803268283e-02  -3.0925008808577129e-02 3.0283968644592731e-02 -5.9185371910138944e-02  -2.9688578599003267e-02 2.4362368837554653e-02 -5.6905811024063536e-02  -2.8634199621034025e-02 1.8473727680501987e-02 -5.4001431299996183e-02  -2.7877538667534032e-02 1.2505584627166179e-02 -5.0506462501866647e-02  -2.7456706287220731e-02 -6.7099898593257047e-03 -7.9060007582031910e-02  -2.7256790456732308e-02 -2.8879371898036994e-03 -8.1276221200632548e-02  -2.6778162009772188e-02 2.0651144312163814e-04 -8.2430992160741887e-02  -2.6183372201610149e-02 2.9539084011513247e-03 -8.2778983077500853e-02  -2.5548675768491333e-02 5.5403859667994765e-03 -8.2392736429389019e-02  -2.4935277250227161e-02 8.0617126121591155e-03 -8.1308453216812432e-02  -2.4373044719742106e-02 1.0554145411230200e-02 -7.9549066887418043e-02  -3.4586798353803176e-02 3.6229502309695766e-02 -7.1125727474911554e-02  -3.3030434904855896e-02 2.7785511256874115e-02 -7.6073424922397867e-02  -3.2250568963003642e-02 2.3969527476213288e-02 -7.8878220420903575e-02  -3.3475955584675143e-02 3.0939636717997376e-02 -7.2974279871642997e-02  -3.1310560611197788e-02 2.0435287721265710e-02 -8.0469117625239978e-02  -3.2323394759027943e-02 2.6093199007618178e-02 -7.3865279467128675e-02  -3.0364544710609436e-02 1.7062541981451455e-02 -8.1130741344104210e-02  -3.1198097945694850e-02 2.1473521570349822e-02 -7.3889801161947974e-02  -2.9512328028107021e-02 1.3740402801624889e-02 -8.1018293788327131e-02  -3.0184909356282645e-02 1.6956408143130066e-02 -7.3177126520962893e-02  -2.8845898797760387e-02 1.0397457341942192e-02 -8.0234555779434502e-02  -2.9366065627788318e-02 1.2445868744375945e-02 -7.1839580423045751e-02  -2.8443988450205113e-02 6.9608500592626315e-03 -7.8838468287043162e-02  -2.8865541684517937e-02 7.8694687133586544e-03 -6.9883469257089575e-02  -3.1179794032431807e-02 3.1593745103148330e-02 -7.2573861628345698e-02  -3.0098318578005129e-02 2.6875024608009605e-02 -7.5120663838222357e-02  -2.9076747807831600e-02 2.2447854021653824e-02 -7.6607964641308923e-02  -2.8076007187799564e-02 1.8267330696552096e-02 -7.7157365136029124e-02  -2.7109543755103500e-02 1.4237589409729785e-02 -7.6870044019158049e-02  -2.6236405005489120e-02 1.0275384564259310e-02 -7.5792749728079450e-02  -2.5645877968552361e-02 6.2977655173356512e-03 -7.3963653654879585e-02  -2.9435193596290345e-02 -7.3352560361243995e-03 -7.9505224177874437e-02  -2.8364621411579104e-02 -1.5516911716481162e-02 -7.4612329157407342e-02  -3.0084017980419524e-02 -1.1782165543844704e-02 -7.8375422709774073e-02  -2.7673322018704528e-02 -1.0739081722127987e-02 -7.4222321674820901e-02  -3.2224125140394709e-02 5.8173213095345316e-02 -5.4052194594772139e-02  -3.0355119989482829e-02 5.2884549717021445e-02 -5.5751725088709611e-02  -3.0896742102583745e-02 4.7557400262756039e-02 -6.0588327623747627e-02  -2.9719380838485791e-02 4.0271035824770859e-02 -6.1100652370010201e-02  -2.9265564255584662e-02 4.5034715685124217e-02 -5.5453930047194677e-02  -3.0903199812641845e-02 5.0042557395694930e-02 -5.2961354999841885e-02  -2.8563629601982880e-02 3.3620455123635262e-02 -6.0580396963041482e-02  -2.8114371300549990e-02 3.7757036151205584e-02 -5.4399557086999638e-02  -2.9563143573240115e-02 4.2655332256040956e-02 -5.1252395946508912e-02  -2.7356517583260055e-02 2.7349446195730015e-02 -5.9305466696107680e-02  -2.6871882707147351e-02 3.0937907072017903e-02 -5.2663353688612614e-02  -2.8196773100756602e-02 3.5724787855631338e-02 -4.8919682215829798e-02  -2.6083035124145552e-02 2.1302283050112093e-02 -5.7329030837781139e-02  -2.5535054221971828e-02 2.4407704390637882e-02 -5.0277652553911444e-02  -2.6804164849716743e-02 2.9044280843888659e-02 -4.5962084963941420e-02  -2.4754727876240012e-02 1.5360087363882068e-02 -5.4641536734785785e-02  -2.5837350195099622e-02 2.3056428777945406e-02 -7.0890276550906392e-02  -2.5221843174176441e-02 1.8518087933037754e-02 -7.2265109527166457e-02  -2.4364500393611398e-02 1.4280578311754777e-02 -7.2732356749359295e-02  -2.3296577605684741e-02 1.0235973272711680e-02 -7.2388957879376006e-02  -2.6079118226283372e-02 4.0337488259617162e-04 -7.8501630927541838e-02  -2.6988159119789402e-02 8.6555790549693399e-03 -7.8624378346840065e-02  -2.5663233581202358e-02 4.8988772284181640e-03 -7.7989476152371798e-02  -2.5478860756171937e-02 5.7766786724899842e-03 -8.1620931024219495e-02  -2.6818633669383526e-02 8.8196729797116562e-03 -8.2366238084200988e-02  -2.5955007726327348e-02 2.4279615758745106e-03 -8.1863932227832184e-02  -2.5067623767021055e-02 6.3550854478722557e-03 -8.4000297902903101e-02  -2.6349841087512555e-02 8.7621798932674307e-03 -8.4939773894411180e-02  -2.5599315480656564e-02 4.1630678734935669e-03 -8.4040211839852774e-02  -2.4454190560024822e-02 6.8510059423747150e-03 -8.5367089423996789e-02  -2.5746937694220269e-02 8.7043930629035690e-03 -8.6486824578896726e-02  -2.5048149580166271e-02 5.6771497010626630e-03 -8.5252390138925230e-02  -2.3676000025270243e-02 7.3284476848891715e-03 -8.5868512923713197e-02  -2.5057898669332224e-02 8.6538595169065365e-03 -8.7154575751386645e-02  -2.4370655412244539e-02 7.0557167510624545e-03 -8.5632494081097285e-02  -2.2730125326566902e-02 7.8153317084678642e-03 -8.5583815481733549e-02  -2.4303159930636527e-02 8.6128574595268712e-03 -8.7020681620633603e-02  -2.3597754216201871e-02 8.3749992837233393e-03 -8.5247972956228671e-02  -2.1594007775779484e-02 8.3084041276012058e-03 -8.4551658969133872e-02  -2.3382483704185039e-02 8.5527443716186934e-03 -8.6025294659634738e-02  -2.2736419708552027e-02 9.7150962919718403e-03 -8.4060115858084511e-02  -3.1085894818743319e-02 -2.8740554524231965e-03 -8.1145232842756751e-02  -3.0759384510362055e-02 2.0746840118031772e-03 -8.1752973705128310e-02  -2.9659108185663231e-02 -5.2779914717674742e-03 -8.0286153331558918e-02  -2.9317520332051612e-02 -1.6489149162083213e-03 -8.2281899470957806e-02  -2.6875678003250712e-02 1.8301350871209966e-02 -7.5526597618784622e-02  -2.5641965097863952e-02 1.7784620856815096e-02 -7.4041632727471732e-02  -2.5451002659071312e-02 1.5127838597139282e-02 -7.7396663269321278e-02  -2.6469231465776715e-02 1.5737568593255376e-02 -7.8928182387556348e-02  -2.4974952581631849e-02 1.2748435945093279e-02 -7.9659561279028346e-02  -2.5946728293890362e-02 1.3535314738451300e-02 -8.1173306244852791e-02  -2.4274355855131477e-02 1.0496270220005259e-02 -8.0905255017644243e-02  -2.5236569230654340e-02 1.1417350023721011e-02 -8.2406772189549324e-02  -2.3367753222795069e-02 8.3063621833993299e-03 -8.1276686377038956e-02  -2.4356036343914318e-02 9.3147634105090107e-03 -8.2763508239433944e-02  -2.2240636665487350e-02 6.1581684469225774e-03 -8.0878513537909064e-02  -2.3306669682109156e-02 7.2234965649474944e-03 -8.2322991553981678e-02  -2.0787882530806351e-02 4.0806032580301705e-03 -7.9747060156803676e-02  -2.2099941353289097e-02 5.2072943779499295e-03 -8.1016031186971996e-02  -2.4400678833771377e-02 -3.2180140676855179e-02 -6.7640848897665182e-02  -2.4910294305587562e-02 -2.1618519059350624e-02 -7.2466597337532690e-02  -2.4696896808029844e-02 -1.6106489155662460e-02 -7.2893702619508546e-02  -2.4045324401904329e-02 -2.6130610203077585e-02 -6.6784564422333728e-02  -2.4242841561320384e-02 -1.1324632407059457e-02 -7.2716517468822003e-02  -2.3505761611121858e-02 -2.0743032596241200e-02 -6.5637342571997687e-02  -2.3629270731140135e-02 -6.9754371299270718e-03 -7.1970426985947050e-02  -2.2840391414440914e-02 -1.5781914754641090e-02 -6.4087580552824791e-02  -2.2910349984301484e-02 -2.8524254026643337e-03 -7.0627808312390489e-02  -2.2087684003126360e-02 -1.1048117680246579e-02 -6.2072128733598103e-02  -2.2117193557228187e-02 1.1916336129386784e-03 -6.8657436049287354e-02  -2.1273762758955605e-02 -6.3855678236149254e-03 -5.9526290496239004e-02  -2.1276135116297595e-02 5.2721705836330547e-03 -6.6028320303786442e-02  -2.0408170856023925e-02 -1.6835640896098623e-03 -5.6357471139710652e-02  -1.9328183817121043e-02 -1.9137726741368048e-04 -5.6955116056008011e-02  -3.1873904766471020e-02 2.4274561743971763e-02 -7.7632327873342330e-02  -3.1165056229344502e-02 2.1060888794904985e-02 -8.0775971188472878e-02  -3.0316716246737308e-02 1.8193648775094110e-02 -8.2664201827190559e-02  -2.9451885213939089e-02 1.5449899920912892e-02 -8.3529381585674953e-02  -2.8668522706410023e-02 1.2726977126905818e-02 -8.3570841015678687e-02  -2.8048836658801993e-02 9.9790719222905191e-03 -8.2910459499272254e-02  -2.7641346779428821e-02 7.1800361894960663e-03 -8.1580772619913658e-02  -2.4231006092373913e-02 -1.7382977653080500e-02 -7.3403639386607794e-02  -2.4106626732655661e-02 -1.2333298591597059e-02 -7.4560214259210625e-02  -2.3705132967545922e-02 -7.9744459306419144e-03 -7.4989243754567406e-02  -2.3112607340949685e-02 -4.0216820772969340e-03 -7.4715818284788460e-02  -2.2378351503036117e-02 -2.8166503232246318e-04 -7.3782919728450871e-02  -2.1525638167098099e-02 3.3833874344292628e-03 -7.2203234913556222e-02  -2.0539349447218205e-02 7.0637736001418769e-03 -6.9946130094599587e-02  -1.9578895952878508e-02 -1.4613876357090064e-02 -4.9946347154968720e-02  -1.8627916311254676e-02 -9.4880147127782786e-03 -4.6325287056282451e-02  -2.6898632735905866e-02 -3.1677767038167368e-03 -7.9452626815292277e-02  -2.6699084867636391e-02 -7.1352845563682512e-05 -8.2224587856801701e-02  -2.6224321682329590e-02 2.4501364778821933e-03 -8.3714224036760293e-02  -2.5629837726813137e-02 4.7032336457682958e-03 -8.4341749942516267e-02  -2.4968220672474624e-02 6.8043674468443024e-03 -8.4189437179006052e-02  -2.4307666138292935e-02 8.8447103177154811e-03 -8.3281442273691247e-02  -2.3722263543665779e-02 1.0920427729745861e-02 -8.1846530416040494e-02  -2.8403635477125211e-02 2.0307924548961663e-03 -8.0438960980578733e-02  -2.9293551508197686e-02 1.2405918254340294e-02 -7.9984953760080760e-02  -2.7985119120310084e-02 6.6840336281386295e-03 -7.9621939601253189e-02  -2.7537864771995497e-02 7.3274647405855266e-03 -8.3050240303747913e-02  -2.8569725767875469e-02 1.1996655824227299e-02 -8.3668104557358819e-02  -2.7993148855851392e-02 4.1027335552933312e-03 -8.3645380107656847e-02  -2.7035573374150409e-02 7.9795275072493694e-03 -8.5596929044178177e-02  -2.7892659360395561e-02 1.1365670788709427e-02 -8.6077218345226650e-02  -2.7481531775677370e-02 5.8224657148199539e-03 -8.5727190507124962e-02  -2.6430266268740468e-02 8.4903809548006609e-03 -8.7095658562551567e-02  -2.7181720494367023e-02 1.0718119327228302e-02 -8.7457309531861552e-02  -2.6875554859727636e-02 7.2473134761712856e-03 -8.6845780161903863e-02  -2.5766497381407336e-02 8.8813380692387960e-03 -8.7709651383109766e-02  -2.6462340847966354e-02 1.0074340727782696e-02 -8.7962610453550125e-02  -2.6238546837679642e-02 8.4819020083293905e-03 -8.7148947405635196e-02  -2.5106807112511082e-02 9.1989589808878294e-03 -8.7531920758592341e-02  -2.5812724930472895e-02 9.4280265761410107e-03 -8.7673265140079129e-02  -2.5653752471319242e-02 9.6116897584098485e-03 -8.6714207517969502e-02  -2.4530016847138968e-02 9.4635425928463156e-03 -8.6513459430843501e-02  -2.5427899104365367e-02 8.7376783219288035e-03 -8.6615175581672782e-02  -2.5278872786353164e-02 1.0685862553973443e-02 -8.5520717777398572e-02  -2.3432456589833051e-02 9.4203988512940283e-03 -5.1201060955117741e-02  -3.2433089364333284e-02 4.1909551207458338e-02 -6.6475870249918287e-02  -3.3824677122561174e-02 5.4675605061569078e-02 -5.8316199977966908e-02  -3.1662995074464802e-02 4.4178759465474157e-02 -6.3993345004065366e-02  -3.0478536301912922e-02 3.7374178422618240e-02 -6.5029141213155534e-02  -3.2430748944945222e-02 4.6982152071915050e-02 -5.7624792287811873e-02  -3.1214521028986704e-02 3.5427547933550706e-02 -6.7770678269736637e-02  -2.9272424843022473e-02 3.1124624980034380e-02 -6.4970459832917576e-02  -3.1011629207307288e-02 4.0024746374798630e-02 -5.6262608007243510e-02  -2.9975557722088871e-02 2.9511818056710510e-02 -6.7995907082096005e-02  -2.8068005802711272e-02 2.5230274813036906e-02 -6.4130306364267697e-02  -2.9625108268425106e-02 3.3495898341933950e-02 -5.4230248535650144e-02  -2.8782511724749903e-02 2.3950571998476892e-02 -6.7401620051297212e-02  -2.6877205641133849e-02 1.9548508535743962e-02 -6.2565338927387068e-02  -2.8292907781777284e-02