<?xml version="1.0"?>
<VTKFile type="UnstructuredGrid"  version="0.1"  >
<UnstructuredGrid>
<Piece  NumberOfPoints="708" NumberOfCells="2953">
<Points>
<DataArray  type="Float64"  NumberOfComponents="3"  format="ascii">2.732335376117434 1.66638585452141 1.290071810752866  2.722950465402513 1.820323141355819 1.239402432854118  2.840498700174469 1.747052140861566 1.257027532418624  2.838006570746491 1.727167329260977 1.198873334768759  2.719543608276602 1.800481269578528 1.181166422553479  2.729195632697138 1.64624814321405 1.230829993240138  2.835580694609585 1.707288046412273 1.140678693780197  2.71616071225073 1.780646286974157 1.122890738777097  2.726089635822877 1.626100368369329 1.171540583342557  2.83318058012887 1.687406608899301 1.082457210156879  2.712782907055408 1.76080999128512 1.064592257678306  2.722991246875437 1.605947501501507 1.112217682646655  2.830762850662639 1.667530216772567 1.024211737039129  2.709384556216063 1.740973452585005 1.006273502290385  2.719871850186728 1.585806611846631 1.052859343882602  2.828277939249429 1.647667016352889 0.9659291587650127  2.705938789081356 1.721139543619658 0.9479202003588051  2.716700401368031 1.56569893092354 0.9934447301293239  2.825663071658508 1.627820563046296 0.9075814962504192  2.702416814164366 1.701303766422468 0.8894957279824569  2.713439913092545 1.545643363543238 0.9339231979165886  2.364546205299263 2.068719226109992 1.167084175005611  2.451092077502237 2.182216092197378 1.110734044669502  2.488677200063918 2.032695312667722 1.175186548539333  2.485844062163256 2.008934583906315 1.117808948857671  2.449441214418546 2.154950123677402 1.053289534029942  2.362997380912755 2.043352025486791 1.109986929677849  2.361466665049976 2.01801429527365 1.052872437819488  2.447804067667725 2.127701693210768 0.9958432681704744  2.483008074496295 1.98519793697831 1.06042070814903  2.35993080246027 1.992698878405088 0.9957369509284891  2.44617335071305 2.100464911806218 0.9383924378470571  2.480161652458699 1.961471322232308 1.003024513077387  2.358382171398155 1.967365728763672 0.9385867948010616  2.444524045881999 2.07322326773683 0.8809395090936363  2.477288177126619 1.937745248034914 0.9456245087069159  2.356816375911399 1.941964408472779 0.881426426574328  2.442855690962623 2.045922394464775 0.8234977546541681  2.474386062912941 1.913991921387302 0.8882213142052765  2.355227565946931 1.916457686186253 0.824274762704548  2.441185204937754 2.018520452942468 0.7660837049803439  2.471500021928948 1.890136763405394 0.8308123058552099  2.833823160162062 1.897446599888609 1.20698266505497  2.831007992040145 1.877192144730455 1.149526460129607  2.82824876913051 1.856953244971137 1.092031164120068  2.825514266357088 1.836714536945205 1.034516403069451  2.822764035321357 1.816470131476002 0.9769906491386641  2.819954446840018 1.796213517891558 0.9194463416659968  2.817032387853741 1.775928153957172 0.8618657104663962  2.625838839706284 1.73555469654092 1.273994355985354  2.621794032435346 1.715732915079366 1.214885210231872  2.617748567245513 1.695905056203223 1.155736670965698  2.613691527690761 1.67607184480461 1.096556089487759  2.609608759672883 1.65624649681362 1.03734652319407  2.605487716833109 1.636446541731382 0.9780939407494098  2.601326939903608 1.616689602297162 0.918768547074549  2.922441510566666 1.993031037938122 1.168084460005123  2.968016789682111 1.833903506421042 1.222795298772328  2.92043880460831 1.972346928599854 1.11086116479221  2.966210915395237 1.814018124402225 1.165701739470076  2.918528943198429 1.951685010424158 1.05361909001514  2.964509206915313 1.794148825209307 1.108572000423656  2.916657261331845 1.931025308861308 0.9963740079968451  2.962851431645515 1.774280138996774 1.051427497265887  2.914771955952282 1.910355596814184 0.9391333393780477  2.961179363357724 1.754407986504537 0.9942720782877388  2.912813800635992 1.889660340635979 0.8818934443589579  2.959426701852094 1.73452823455821 0.937095697481701  2.910704264356507 1.868911132043669 0.8246353463620641  2.95750911882058 1.714623260668019 0.8798769438442655  2.380656458126288 1.936671835390152 1.219151768206795  2.377695660958337 1.914108721425019 1.161319243119937  2.374744682001644 1.891570797156041 1.103465417280866  2.371774983662018 1.869048589415275 1.045594710164282  2.368770404173579 1.846527822035787 0.9877056416694813  2.365745281212057 1.82395973764327 0.9297922596563676  2.362717081385468 1.80131190828793 0.8718398481372437  2.714663345481976 2.068316919879569 1.149199163149893  2.806372483887765 1.999113244641923 1.170899199546333  2.722144626093435 1.948844730736004 1.19420264271706  2.718861785676475 1.927777522754298 1.136562618734658  2.803665895374258 1.977708604445061 1.113488044870838  2.711802489749874 2.045421403285286 1.0916444450193  2.715603676814784 1.906723260290174 1.078888156796295  2.801014443791623 1.956323404633981 1.056047683124529  2.708973327572699 2.022543378125622 1.034074547771511  2.712352880464966 1.885670033707824 1.02120121183365  2.798383287418082 1.934940066020933 0.9986001739778831  2.706156600321338 1.999668238775901 0.9765008281605784  2.709082514384415 1.864610061922282 0.9635076006117639  2.795735468357914 1.913546934661912 0.9411530267472661  2.703321298780739 1.976782452924662 0.9189314624404255  2.705765427256114 1.843533875673695 0.9058007629142496  2.793030316385225 1.892128358367626 0.8837033938060226  2.700434992228813 1.953865773911471 0.8613672439389971  2.702373650294487 1.822413830754352 0.8480585051543316  2.790218338009891 1.87065283559177 0.8262334295962377  2.697470614277227 1.930882034798636 0.8037989858861928  2.623452240330737 1.587264587993803 1.322966067156039  2.618956634154294 1.566125973281125 1.262705730673973  2.614447722035387 1.544957150231506 1.202396409207169  2.609926012792548 1.523779556237751 1.142051967292681  2.605380090501109 1.502625029385522 1.081665911346445  2.600800931043038 1.481529238512427 1.021216745397473  2.596193656331598 1.460527233951107 0.9606622189152496  2.945209395168748 1.676458759560379 1.278502490213004  2.943676208732978 1.656199441478679 1.220594013487558  2.942250375965757 1.635931837370934 1.162633551051664  2.940869705617879 1.615661566259725 1.104648998922509  2.939470691623445 1.595396707840963 1.0466369971189  2.937983288347934 1.575142496253256 0.9885742027782509  2.936341160785982 1.554916936056275 0.9304246486889675  2.256563764297882 1.969439712327065 1.211400566057641  2.25491500296849 1.945339055743168 1.153960477216332  2.253293699792547 1.921280852783105 1.09649318753744  2.251670699048877 1.897242636470052 1.038996405177222  2.250040644150641 1.873168039504105 0.9814756052724612  2.24838202734241 1.849027863588309 0.923935761075623  2.246700765203938 1.824794746258084 0.8663832121500123  2.606402779533791 1.999052007076425 1.182892334839154  2.603079886145051 1.976787545368076 1.12527415837647  2.599761233775985 1.954538056286903 1.067637464794835  2.596438892558161 1.932292084117787 1.009988830399614  2.593093653150435 1.910040696409236 0.9523356899962695  2.58970916994183 1.887770550256424 0.8946766604204396  2.586285519573413 1.865456064880536 0.836998153228353  2.523647987307352 1.656262262508522 1.308192601303362  2.518617674030544 1.635498938032518 1.248408172478592  2.513555487071171 1.614714225059268 1.188578133282323  2.508465282632015 1.593921833222377 1.128717416437457  2.503343924127986 1.573147280625865 1.068820955848178  2.498196773841161 1.552420245957247 1.008870274766937  2.49305687754 1.531760303404592 0.9488271911477573  2.611443819060383 1.865667498726733 1.230608230614203  2.607616995595732 1.845277075461303 1.172359437561381  2.603789221090357 1.82489441718825 1.114078692544992  2.599951008828276 1.804511820512277 1.055778185964108  2.596086776238832 1.784128955141231 0.9974621754798501  2.592185878842047 1.763746546988445 0.9391232212953197  2.588247189229936 1.743363062758458 0.8807375820126175  2.178644448512966 1.636571798712365 1.347363768307033  2.288853453923155 1.726177109346711 1.302742969058726  2.298315917007149 1.626758915773408 1.338966916617082  2.29244592875405 1.60384596879537 1.279205102792998  2.284172373259024 1.70424288041675 1.243597018939764  2.172303259117634 1.612611013621251 1.288038411506644  2.286550805774405 1.580879881856393 1.219419752381884  2.279483328070595 1.682291244146077 1.184427319629263  2.165934203356139 1.588581777940779 1.22871479144567  2.280610480305312 1.557899012716288 1.159612931147118  2.274754386564141 1.660337922383662 1.125234924637733  2.159515512716369 1.564537724493556 1.169375259278005  2.274630340291324 1.534945248858606 1.099778770329694  2.269978434175054 1.638401136956399 1.066016701399439  2.153058848767796 1.540500484660648 1.110005701610205  2.268633339420009 1.51205764341392 1.039895340814297  2.265182464703397 1.616466847772498 1.006751582268449  2.146590744793004 1.516489776785332 1.050578494425337  2.262669342322803 1.489238294605018 0.9799204659063445  2.26040972006959 1.594558072057849 0.9474030573803912  2.140188814418985 1.492563286519855 0.9910385422854128  2.156630624031318 1.526064087747533 1.395876607128921  2.276681586020161 1.533015874198635 1.379425361866569  2.266327400593965 1.416276572378371 1.432023815598247  2.269569208729763 1.50803483084607 1.319381019935352  2.148099136436988 1.498600998733792 1.336788409634459  2.256386709372238 1.387350406335945 1.372224887076698  2.262427191802057 1.482962194093216 1.259320391443508  2.139529110419601 1.471019321091965 1.277720765146592  2.246366343749277 1.358284627696172 1.312459494445362  2.255239964038052 1.457859610792873 1.199238371154538  2.130918344635144 1.443406318652777 1.218657413135279  2.236302120930782 1.329181995054974 1.252694282351362  2.248024072488847 1.432787398248005 1.139122237234713  2.122285422425784 1.415828922010547 1.159572339211195  2.226233869481641 1.30012182086037 1.192893295684815  2.24080834224783 1.407796476661086 1.078948004388882  2.113660506792346 1.388350974584256 1.10042
[...]
<PointData  Vectors="f_24"> 
<DataArray  type="Float64"  Name="f_24"  NumberOfComponents="3" format="ascii">3.2875355221580520e-02 -1.0026910787547266e-01 -1.3338023242344554e-01  3.3200769935360051e-02 -1.0425077178568397e-01 -1.3721639510555333e-01  3.1611292557835471e-02 -1.0195809542569781e-01 -1.3380433568049274e-01  3.3044300015195670e-02 -1.0381161488393198e-01 -1.3435987051861339e-01  3.4362617450858592e-02 -1.0515409542911898e-01 -1.3835524012210751e-01  3.4074267633622791e-02 -1.0322817389037439e-01 -1.3335498409873819e-01  3.4473215551295948e-02 -1.0504724819846208e-01 -1.3416794196320955e-01  3.5548910569737718e-02 -1.0552368535214136e-01 -1.3866405019318531e-01  3.5290090747303833e-02 -1.0548580833361410e-01 -1.3269112561177962e-01  3.5894081879312249e-02 -1.0587692735770307e-01 -1.3325924295397776e-01  3.6758397055599003e-02 -1.0550678380873026e-01 -1.3819305143302277e-01  3.6521871779901335e-02 -1.0731069281461077e-01 -1.3138372765102757e-01  3.7315817953532247e-02 -1.0648925744577217e-01 -1.3161580736604983e-01  3.7992718665014191e-02 -1.0523902453946156e-01 -1.3693633068659930e-01  3.7770171029118331e-02 -1.0895147986518229e-01 -1.2939426854360978e-01  3.8747479820680920e-02 -1.0707087847831762e-01 -1.2917888827803201e-01  3.9258705216712465e-02 -1.0486187450216269e-01 -1.3483146860714279e-01  3.9034179869389868e-02 -1.1065508363631167e-01 -1.2665556848919426e-01  4.0191059885031653e-02 -1.0782427394087847e-01 -1.2588031515267820e-01  4.0567065378260166e-02 -1.0454563304284895e-01 -1.3175568207399135e-01  4.0308480272519487e-02 -1.1268296604236708e-01 -1.2308599257716764e-01  3.9528014275996191e-02 -1.0820961603134358e-01 -1.3434817485714506e-01  3.8166193662991565e-02 -1.0647021879849662e-01 -1.2502130156371338e-01  3.7328060385339007e-02 -1.0792884237299172e-01 -1.3544513311647852e-01  3.7915627864828189e-02 -1.0581930964623718e-01 -1.3794220375810412e-01  3.8789142503181100e-02 -1.0219785505654766e-01 -1.2828619873966601e-01  3.9826157636649880e-02 -1.0569027485160379e-01 -1.3706991062140148e-01  4.0245261094514651e-02 -1.0303872510596222e-01 -1.3889047224346368e-01  3.9506667139795289e-02 -9.7990944441393002e-02 -1.3061826675206023e-01  3.8603899011220542e-02 -1.0350855926291938e-01 -1.3950461310278270e-01  4.0725148259527111e-02 -1.0015362374710093e-01 -1.3990286214963246e-01  4.0261221362616860e-02 -9.3654760095539497e-02 -1.3215738663712456e-01  3.9354334006408642e-02 -1.0094713553327823e-01 -1.4023915801239453e-01  4.1237865685548429e-02 -9.6931908575292880e-02 -1.4014577415208951e-01  4.1040567268020828e-02 -8.8967329901471090e-02 -1.3299477537909554e-01  4.0145549735844749e-02 -9.8057569619468404e-02 -1.4017742667659874e-01  4.1753215720708510e-02 -9.3226929691933580e-02 -1.3959456852013649e-01  4.1836337177684549e-02 -8.3650941399265349e-02 -1.3318138951918823e-01  4.0970182545350328e-02 -9.4732119681164892e-02 -1.3928027273474192e-01  4.2215144537517901e-02 -8.8792771231450476e-02 -1.3810840390610152e-01  4.2656893205147109e-02 -7.7349229754977211e-02 -1.3275969118710262e-01  4.1834677068242315e-02 -9.0812717644642826e-02 -1.3744205139462076e-01  3.1609841410886498e-02 -1.0494497875900466e-01 -1.3426526269182715e-01  3.3066140065179522e-02 -1.0461898414553319e-01 -1.3586185368466008e-01  3.4506539712985035e-02 -1.0389166995070503e-01 -1.3657780302874661e-01  3.5942448722972857e-02 -1.0283562611316768e-01 -1.3648224940463810e-01  3.7382797619089317e-02 -1.0150895393606919e-01 -1.3559659904431853e-01  3.8841793403207155e-02 -9.9970334795827814e-02 -1.3387994908192583e-01  4.0339348739930905e-02 -9.8287106800418106e-02 -1.3121663009226725e-01  3.4313742573567951e-02 -1.0263760300417106e-01 -1.3758458621516115e-01  3.5261472064662090e-02 -1.0477206379530093e-01 -1.3812620027593212e-01  3.6239628558279731e-02 -1.0626584757746507e-01 -1.3795135509709264e-01  3.7262785272216249e-02 -1.0733232263698206e-01 -1.3705611948183649e-01  3.8324856080673902e-02 -1.0818042829552858e-01 -1.3541456173934002e-01  3.9426102918703645e-02 -1.0902893782983193e-01 -1.3295920567371011e-01  4.0560190150854943e-02 -1.1013221005393178e-01 -1.2958269346147677e-01  3.0150915980628776e-02 -1.0510272890476653e-01 -1.2893477831392455e-01  2.9753457570214772e-02 -1.0300853429786368e-01 -1.3143248600827040e-01  3.1870004841637371e-02 -1.0320903630161975e-01 -1.3100010004455923e-01  3.1500060780886255e-02 -1.0351510484694232e-01 -1.3255266655829911e-01  3.3540088246078924e-02 -1.0108404649727119e-01 -1.3214083950521457e-01  3.3197774881098409e-02 -1.0356006589021256e-01 -1.3285059724330003e-01  3.5179459817496130e-02 -9.8696887068265557e-02 -1.3246833266524083e-01  3.4858674004651972e-02 -1.0324314445951466e-01 -1.3238906532462985e-01  3.6806736535626459e-02 -9.6006151077876412e-02 -1.3202533671206551e-01  3.6499212475407217e-02 -1.0267748158089512e-01 -1.3117867301667305e-01  3.8442359510120871e-02 -9.2970539703257457e-02 -1.3079139744155199e-01  3.8135586304944485e-02 -1.0197014463731720e-01 -1.2918165144516780e-01  4.0112164291137238e-02 -8.9587752466439727e-02 -1.2870996245395175e-01  3.9785985710791519e-02 -1.0123827042930507e-01 -1.2631200504374401e-01  3.8771714771283598e-02 -1.0753949315987252e-01 -1.4016550352561005e-01  3.9049552210753936e-02 -1.0689890645599801e-01 -1.4209045197412132e-01  3.9452697439116419e-02 -1.0590701175775742e-01 -1.4313770063919101e-01  3.9935961763103787e-02 -1.0458458695612531e-01 -1.4338493351314302e-01  4.0465979858037307e-02 -1.0295010018810770e-01 -1.4282372951603955e-01  4.1021519788763991e-02 -1.0102347498722146e-01 -1.4136525480991291e-01  4.1592986085520048e-02 -9.8862443308031109e-02 -1.3888131096084441e-01  3.3522373164814233e-02 -1.0664055820799533e-01 -1.2978835238673642e-01  3.2007609341006854e-02 -1.0602486492240269e-01 -1.3163350110641586e-01  3.3332682053056027e-02 -1.0628547690471246e-01 -1.3543390281560816e-01  3.4527198609538665e-02 -1.0525178006988366e-01 -1.3737784978537834e-01  3.3442744727646009e-02 -1.0414179155983810e-01 -1.3380994875842925e-01  3.4753621740322704e-02 -1.0376989842002647e-01 -1.3236276992341303e-01  3.5739034295545459e-02 -1.0388710151466764e-01 -1.3840171150144262e-01  3.4867700412258840e-02 -1.0201800218568910e-01 -1.3504746181087079e-01  3.6010580383391520e-02 -1.0078324608278112e-01 -1.3399451640183083e-01  3.6972521998984209e-02 -1.0221645415045552e-01 -1.3859530982601509e-01  3.6288888836140155e-02 -9.9636181617122579e-02 -1.3545540518120142e-01  3.7280124589050875e-02 -9.7577951531197540e-02 -1.3479360817492692e-01  3.8230178454410700e-02 -1.0025031009109248e-01 -1.3798026571753630e-01  3.7717017871309266e-02 -9.6949401334110147e-02 -1.3507763963557967e-01  3.8567729422809185e-02 -9.4043296626972667e-02 -1.3482578792538330e-01  3.9522754343127207e-02 -9.7991403028372781e-02 -1.3651015699439217e-01  3.9167666665449477e-02 -9.3899408347991292e-02 -1.3388862696922368e-01  3.9885941052967527e-02 -9.0031179454524865e-02 -1.3408966957361454e-01  4.0862797904379453e-02 -9.5453371966245121e-02 -1.3406153145690114e-01  4.0657221366818243e-02 -9.0417310782953120e-02 -1.3180384413559720e-01  4.1254241431633712e-02 -8.5359645689119384e-02 -1.3250492370573810e-01  3.3861928042018770e-02 -9.8225983836042530e-02 -1.3109110500939924e-01  3.4849165728520766e-02 -1.0210572455340097e-01 -1.3040474684044132e-01  3.5876046279780860e-02 -1.0523923030153697e-01 -1.2922354038847716e-01  3.6937261163536551e-02 -1.0792936490809267e-01 -1.2749275347418787e-01  3.8028050950915764e-02 -1.1047125507058093e-01 -1.2514899688048831e-01  3.9148022536179071e-02 -1.1314576102152352e-01 -1.2212161851601812e-01  4.0302501500181658e-02 -1.1623528725695939e-01 -1.1837551840890659e-01  3.0320481376506916e-02 -9.9460011511420504e-02 -1.2901795697613022e-01  3.1979420422353522e-02 -1.0212657254707184e-01 -1.2895640095638475e-01  3.3595368985719361e-02 -1.0415272407260819e-01 -1.2829388628481864e-01  3.5176661147621288e-02 -1.0574835208739086e-01 -1.2701393161678348e-01  3.6735235567974443e-02 -1.0714833621787660e-01 -1.2508311319544826e-01  3.8279837634893586e-02 -1.0857273864551670e-01 -1.2243543598850250e-01  3.9830767791526611e-02 -1.1023196196440030e-01 -1.1894563863563598e-01  4.0966260159427927e-02 -1.0785575114702976e-01 -1.3952224948131361e-01  4.0958557027129118e-02 -1.0683223898319068e-01 -1.4162618383156156e-01  4.1089651135488410e-02 -1.0549548411035579e-01 -1.4288800516462857e-01  4.1299957674457197e-02 -1.0383773203771783e-01 -1.4337570457976970e-01  4.1536567900662104e-02 -1.0184496032350081e-01 -1.4308597354547994e-01  4.1754594716342790e-02 -9.9482956901006156e-02 -1.4193946405231386e-01  4.1917358134885938e-02 -9.6707450418332910e-02 -1.3975441738547331e-01  3.5254838838748088e-02 -1.0733682738452482e-01 -1.3553243073567264e-01  3.6164598715214331e-02 -1.0563052847888199e-01 -1.3780122488002849e-01  3.7117040815207482e-02 -1.0367375908052626e-01 -1.3914969842948854e-01  3.8117448041332443e-02 -1.0144186522769413e-01 -1.3965908350299699e-01  3.9156209816311301e-02 -9.8892464956889289e-02 -1.3936178255717643e-01  4.0237418053041304e-02 -9.5968185523087654e-02 -1.3821511642296194e-01  4.1389830609661879e-02 -9.2599566307919462e-02 -1.3607383612424667e-01  3.5222519774064522e-02 -1.0060898110994615e-01 -1.3607783591021333e-01  3.5945640706070578e-02 -1.0378143990725036e-01 -1.3598150265599560e-01  3.6736443306096232e-02 -1.0621914451437119e-01 -1.3527467597321513e-01  3.7586400889844065e-02 -1.0821088159944822e-01 -1.3393799550971297e-01  3.8483234323234063e-02 -1.1002093786550916e-01 -1.3191908132369715e-01  3.9426065632105496e-02 -1.1191205312161974e-01 -1.2914426454209627e-01  4.0428693533906532e-02 -1.1416612480955587e-01 -1.2553329204984684e-01  3.4893714558696637e-02 -1.0570685209633481e-01 -1.3902082423218295e-01  3.5778962588329750e-02 -1.0599463554715396e-01 -1.4048686146656886e-01  3.6720098456958152e-02 -1.0581767700147318e-01 -1.4108672038891493e-01  3.7707177192919716e-02 -1.0527461893487429e-01 -1.4088186232307293e-01  3.8735614781189871e-02 -1.0445920059460051e-01 -1.3986750884256582e-01  3.9809327112500494e-02 -1.0347127907695758e-01 -1.3796973261065812e-01  4.0952009323918993e-02 -1.0244362477194771e-01 -1.3504306022016377e-01  3.8942566621207909e-02 -9.9992344037654099e-02 -1.3691710963460146e-01  3.8580039494477684e-02 -1.0301418696921538e-01 -1.4025299913445199e-01  3.7507690872065270e-02 -9.9852549520409062e-02 -1.3625505511434685e-01  3.7722750940254006e-02 -1.0329294417348779e-01 -1.3581201185300126e-01  3.8688006664496816e-02 -1.0529462931700755e-01 -1.4065953448970114e-01  3.8890903617983044e-02 -1.0325499711721807e-01 -1.3648167410128031e-01  3.8069312310874376e-02 -1.0599138132342326e-01 -1.3484190060993595e-01  3.8935281396880329e-02 -1.0691533276832506e-01 -1.4040433386072701e-01  3.8990078931770880e-02 -1.0578170113815691e-01 -1.3555660771250916e-01  3.8500199421201690e-02 -1.0824149629662422e-01 -1.3330945247344989e-01  3.9278051319369539e-02 -1.0810335741339047e-01 -1.3947761601811084e-01  3.9182856756899372e-02 -1.0785562974696733e-01 -1.3409224644509016e-01  3.8994027460490369e-02 -1.1030570044224586e-01 -1.3114409474941049e-01  3.9680569086997235e-02 -1.0906076505887287e-01 -1.3783198422594362e-01  3.9434001012922798e-02 -1.0971205462571847e-01 -1.3201229685858346e-01  3.9541396293530540e-02 -1.1244562863706870e-01 -1.2825583302999266e-01  4.0121284925296326e-02 -1.1000944710657591e-01 -1.3536817306282012e-01  3.9734100730935792e-02 -1.1159991665459770e-01 -1.2921060612224608e-01  4.0140687081903471e-02 -1.1493169151371480e-01 -1.2456420733298616e-01  4.0588602469149797e-02 -1.1122333591523641e-01 -1.3195461843844436e-01  4.0106095544921019e-02 -1.1380874874673880e-01 -1.2555637812598006e-01  3.7788684402496241e-02 -9.5886527326090085e-02 -1.3030072869636325e-01  3.6761213029149468e-02 -9.6315786879980866e-02 -1.3056823888735400e-01  3.5650422617601180e-02 -9.1404143595195927e-02 -1.2118327435111570e-01  3.7054192745278124e-02 -1.0063330921363828e-01 -1.2923793034006498e-01  3.7855358257282611e-02 -1.0006717231994040e-01 -1.2875321508144494e-01  3.6134581598656720e-02 -9.6435591220317002e-02 -1.1865033202135740e-01  3.7450693061060004e-02 -1.0417481547143088e-01 -1.2755744044876571e-01  3.8043225352990762e-02 -1.0350013033377831e-01 -1.2687235427902790e-01  3.6652488531047578e-02 -1.0069001930570910e-01 -1.1600492555809251e-01  3.7922726148129984e-02 -1.0726636553262306e-01 -1.2544222107381808e-01  3.8308462412353202e-02 -1.0649894750900567e-01 -1.2458991852146989e-01  3.7217592946766638e-02 -1.0454074542261689e-01 -1.1310988790717905e-01  3.8460316991520395e-02 -1.1020119322122303e-01 -1.2280763700617121e-01  3.8643301181996520e-02 -1.0933629293661824e-01 -1.2180871474385808e-01  3.7838566011933882e-02 -1.0829451988267524e-01 -1.0985518901424078e-01  3.9065316934843657e-02 -1.1325720921809106e-01 -1.1957173028497012e-01  3.9062278614638749e-02 -1.1227581119004329e-01 -1.1843375229632641e-01  3.8530826659703150e-02 -1.1222586393334862e-01 -1.0615576102235080e-01  3.9738704598988969e-02 -1.1672741775671566e-01 -1.1565083344325593e-01  3.9605855847294827e-02 -1.1562636920197479e-01 -1.1440667943370832e-01  3.9314267118272794e-02 -1.1657487400287764e-01 -1.0194035537551012e-01  3.5786681365456895e-02 -1.0684306645434005e-01 -1.2733221219720015e-01  3.6739470980967831e-02 -1.0310697390769349e-01 -1.3029732312342471e-01  3.7723963743889484e-02 -9.9360457290323487e-02 -1.3233343295484323e-01  3.8743465356876026e-02 -9.5455131430150761e-02 -1.3354764798361696e-01  3.9793117416673768e-02 -9.1205271532604867e-02 -1.3402391747872328e-01  4.0879365431641598e-02 -8.6376747703683490e-02 -1.3379409896620365e-01  4.2010914574180921e-02 -8.0647857642879628e-02 -1.3281959311021821e-01  3.6848178552391378e-02 -1.0698139271413441e-01 -1.3976577175826777e-01  3.7421552974319698e-02 -1.0660545167406674e-01 -1.4155337513757255e-01  3.8085883996214230e-02 -1.0584290482855546e-01 -1.4247039396277145e-01  3.8820183023386405e-02 -1.0473642416538027e-01 -1.4257735967434537e-01  3.9605667053631430e-02 -1.0333397540103249e-01 -1.4187224610501389e-01  4.0437529150183393e-02 -1.0167919892085123e-01 -1.4027403609030856e-01  4.1330531825318553e-02 -9.9833563905484188e-02 -1.3758757568982710e-01  3.4564370672072207e-02 -9.6129187763054957e-02 -1.2830391030669458e-01  3.5363130304557996e-02 -1.0062898543197377e-01 -1.2705292374270885e-01  3.6214265077869665e-02 -1.0435383091780605e-01 -1.2545289821990960e-01  3.7112155186018535e-02 -1.0763079231985596e-01 -1.2339863069239367e-01  3.8050749237511609e-02 -1.1076999853135468e-01 -1.2081742245845609e-01  3.9033397316469251e-02 -1.1406848192918766e-01 -1.1763175308769057e-01  4.0067573824288105e-02 -1.1782709251621676e-01 -1.1375304573441945e-01  3.9862306862092876e-02 -1.0590118374934232e-01 -1.4185381369784053e-01  3.9869397776939049e-02 -1.0666923388119808e-01 -1.4311106364115742e-01  4.0027273815092204e-02 -1.0693407706610115e-01 -1.4359359256082585e-01  4.0275676243579368e-02 -1.0680864572249366e-01 -1.4334009350928076e-01  4.0569375986626174e-02 -1.0640122983711234e-01 -1.4231330936221182e-01  4.0877613527462581e-02 -1.0583822895646021e-01 -1.4040178572354636e-01  4.1205907901557134e-02 -1.0528362052818932e-01 -1.3740833613374068e-01  3.3792007969807566e-02 -1.0271710039427344e-01 -1.1792897398872819e-01  3.2912976041166352e-02 -1.0290002192956171e-01 -1.2095640166979026e-01  3.2218719052680270e-02 -9.9264229441412333e-02 -1.1963993415494567e-01  3.4616480154194502e-02 -1.0516884614160700e-01 -1.1919504075587822e-01  3.5333277927179316e-02 -1.0575285350148567e-01 -1.1578179293132868e-01  3.6281174463854683e-02 -1.0726374269500169e-01 -1.1686445770275708e-01  3.6848061506809915e-02 -1.0865577731778657e-01 -1.1312695462410333e-01  3.7910518960549255e-02 -1.0941954169428797e-01 -1.1390095262820520e-01  3.8339591912530099e-02 -1.1169039115306997e-01 -1.0989194694996299e-01  3.9518290655152666e-02 -1.1189470260276799e-01 -1.1025157582148340e-01  3.9809125005512598e-02 -1.1512660642354737e-01 -1.0604780626688395e-01  3.3295709715550417e-02 -1.0457231000666255e-01 -1.1901206373969153e-01  3.1574774960403965e-02 -1.0564103030332664e-01 -1.2561928890970278e-01  3.3135880222208765e-02 -1.0230876575373990e-01 -1.2822920564188631e-01  3.4674150782928050e-02 -9.9780018644440277e-02 -1.2218974653654939e-01  3.6057504527536123e-02 -9.5118338365122720e-02 -1.2443701217197933e-01  3.4662664237788819e-02 -9.8924130610727176e-02 -1.2990319240443948e-01  3.7434946562291814e-02 -9.0384141556066111e-02 -1.2588866872576651e-01  3.6172072413719850e-02 -9.5362092034233792e-02 -1.3075967712647096e-01  3.8814597289731134e-02 -8.5332852909640586e-02 -1.2666394579076601e-01  3.7679827209594376e-02 -9.1484509022273688e-02 -1.3087866292276554e-01  4.0204979332999984e-02 -7.9664912960957873e-02 -1.2684588809579417e-01  3.9200384622646453e-02 -8.7118194049235043e-02 -1.3028086362733299e-01  4.1606826823529050e-02 -7.2961927388163941e-02 -1.2649066754368612e-01  4.0738757424085933e-02 -8.2034867134740216e-02 -1.2889949994610145e-01  3.1060324269277111e-02 -8.3353393157005698e-02 -9.3903542359539252e-02  3.0354174704396077e-02 -8.4880741805506227e-02 -9.6629105327850240e-02  3.0181137563867678e-02 -7.9148306717545150e-02 -8.2071081338462942e-02  3.2419452806916750e-02 -8.8860044515919223e-02 -8.9798934384736503e-02  3.1863426821531766e-02 -9.0256077084884354e-02 -9.2876992780656961e-02  3.1492057014232230e-02 -8.4076667485218817e-02 -7.7106414842728524e-02  3.3321848935189767e-02 -9.4982488038771767e-02 -8.9328257746769849e-02  3.3750236642952500e-02 -9.3761446747505639e-02 -8.5989987490222963e-02  3.1609760421317010e-02 -9.7715464046737685e-02 -1.2787888590956609e-01  3.3047012841989118e-02 -1.0135408060091954e-01 -1.2723985433714610e-01  3.4468182607340206e-02 -1.0427548402955797e-01 -1.2609947801823002e-01  3.5872934827164471e-02 -1.0675688779427071e-01 -1.2442096399929733e-01  3.7269665831742828e-02 -1.0906917938462643e-01 -1.2214702833788366e-01  3.8660991057625139e-02 -1.1147366842600029e-01 -1.1920460860174352e-01  4.0049934388944615e-02 -1.1423626468080184e-01 -1.1548658269054680e-01  4.2113188941909574e-02 -1.0316604406245213e-01 -1.4042013436232451e-01  4.0385150127788691e-02 -1.0326166456576080e-01 -1.4070700270139064e-01  4.0428446761212038e-02 -9.9396873141242015e-02 -1.3666004114796221e-01  4.0111797186636572e-02 -1.0252321209213419e-01 -1.3601986702510901e-01  4.0214186553937631e-02 -1.0531378924960781e-01 -1.4112664141082573e-01  4.1678808448777263e-02 -1.0504041050516183e-01 -1.4078817436698382e-01  3.9947739808176945e-02 -1.0496711187970707e-01 -1.3497631296193452e-01  4.0183509976023594e-02 -1.0672970916219789e-01 -1.4090496506104477e-01  4.1401724760460702e-02 -1.0628833132832986e-01 -1.4055397980528733e-01  3.9879073222725887e-02 -1.0695184405128953e-01 -1.3343996676567882e-01  4.0248005102706055e-02 -1.0771961412450085e-01 -1.4003252187425036e-01  4.1210578458515265e-02 -1.0711036390294285e-01 -1.3970414089280062e-01  3.9866433593100908e-02 -1.0869617693241033e-01 -1.3132933247598633e-01  4.0364088842428550e-02 -1.0846553120782859e-01 -1.3845069323709949e-01  4.1049437712521376e-02 -1.0766218908700703e-01 -1.3815933642642361e-01  3.9899348929649928e-02 -1.1041537337399386e-01 -1.2853717390321626e-01  4.0503055642306947e-02 -1.0916805884292054e-01 -1.3606029068395584e-01  4.0884664012936951e-02 -1.0811926158081131e-01 -1.3580440481207484e-01  4.0011140905072046e-02 -1.1232529970377138e-01 -1.2483636865337439e-01  4.0658879974971820e-02 -1.1006443990099063e-01 -1.3272419287097381e-01  4.0672258565942657e-02 -1.0874235865659262e-01 -1.3274787244943689e-01  5.0355265751325033e-02 -9.4649989123007747e-02 -1.1611041841055504e-01  4.9737304483286983e-02 -8.9304701694879030e-02 -1.0606730935629317e-01  4.9038795271147760e-02 -9.6611231547280782e-02 -1.1616694799237937e-01  4.8327272130373564e-02 -9.1999248081084756e-02 -1.1955330390565180e-01  4.8932030260490561e-02 -8.3629827265224388e-02 -1.0926158822461308e-01  4.9415993629656443e-