<?xml version="1.0"?>
<VTKFile type="UnstructuredGrid"  version="0.1"  >
<UnstructuredGrid>
<Piece  NumberOfPoints="743" NumberOfCells="3068">
<Points>
<DataArray  type="Float64"  NumberOfComponents="3"  format="ascii">11.46641280331104 1.978122275020119 1.394446091484733  11.35112708813064 1.969618428127058 1.427889556521546  11.35397954416854 2.055688654879765 1.298265511165015  11.34753544151227 2.002138674320801 1.248688896117169  11.34681411568483 1.907640142425082 1.391748362997348  11.46161173912474 1.91325535864852 1.356815625174671  11.34107788199354 1.948470048541591 1.198714646285942  11.34231547907771 1.845364512998333 1.355466138507336  11.45672366197889 1.84792781350578 1.319307489095343  11.33487018276668 1.894605872785707 1.148611932250708  11.33796772901803 1.782758807862701 1.319182442196807  11.45189808968412 1.782265947546264 1.281814034876885  11.32901548773711 1.840501187873724 1.098480120627111  11.33387228978227 1.719820606493373 1.282878121325721  11.44714773104993 1.716400315243423 1.24417468401477  11.44257005086261 1.65031626667854 1.206271163277489  11.33004035586849 1.656628147685703 1.246457859766936  11.32356016426388 1.786014796367966 1.048265922193724  11.4383365356169 1.583960083815935 1.167919462011583  11.32652146345419 1.593210887272218 1.209726817368533  11.31849692782392 1.731223033194754 0.9978673701063457  11.13416909211307 1.949121114050913 1.483148170531242  11.01260965547261 1.94416566159979 1.51068751389263  11.10492700604044 2.013121452137105 1.385259079919105  11.09678618448488 1.961600597188983 1.34263379414761  11.00713282191337 1.889155504510666 1.477755671319004  11.12987378782852 1.891441579279574 1.449525481600207  11.08831472408569 1.910047400509391 1.299662988109774  11.00118477254009 1.83399058890714 1.444467295989129  11.12527274469664 1.833587386891385 1.415574203617328  11.08001853500847 1.858296293521921 1.25661793490534  10.99527837114818 1.778593289941384 1.411082538545348  11.12079773359866 1.775484686856045 1.381546857568388  11.0720877382213 1.806296178766142 1.213588119388454  10.98965336574366 1.722971055284742 1.377713114546812  11.1166652206534 1.717121210385723 1.347565027103599  11.06460623438643 1.754031676358774 1.170619320512891  10.98448432329771 1.667119499870029 1.344424366804062  11.11295731644537 1.658500041849037 1.313640458860225  11.05752341701922 1.701508065208752 1.127694806800334  10.97985074377213 1.610993986878529 1.311175209033102  11.10955024764831 1.599595818157727 1.279623108976954  11.24591443997037 2.026037954974446 1.3491621502864  11.23931414941956 1.971155260021494 1.30561875221525  11.23258981222001 1.916109628108199 1.261647774693023  11.22607679544068 1.860840804107217 1.217565072630756  11.21995384550351 1.805286437592474 1.173487004586076  11.21426447393981 1.749439567810947 1.129452379484412  11.20885150353269 1.693275981464313 1.085383497093428  11.58182836547067 1.917454376357157 1.502317995779022  11.46262443809366 1.916118119141014 1.52291848497637  11.4599040153571 1.847602699480436 1.496020715363237  11.58055459574814 1.845495258088406 1.475071447258003  11.45700455963641 1.778561356379468 1.469478679042052  11.57922352851604 1.77276574862162 1.448608781127282  11.45416947977693 1.709156071355226 1.443033339433868  11.57793844056689 1.699670970909899 1.422251027240647  11.45148295553453 1.639472139852304 1.416449434943799  11.57671052239827 1.626393927110415 1.395575614461754  11.4489411370682 1.569559343660349 1.389470787674971  11.57549225774489 1.553085854707726 1.368224010955782  11.44677410219518 1.499432155080526 1.361913310463172  11.57456100859603 1.479815071143863 1.339862973926275  11.45375371973424 1.862504408884632 1.74297697409685  11.33605292085519 1.854409119717372 1.784673748056624  11.34526589828675 1.877712380031892 1.649717228641862  11.34519962757693 1.810214041864694 1.633527898770111  11.33794696433819 1.78767911156842 1.775903062837526  11.45425525683664 1.792771350402872 1.733598178879462  11.34491703892734 1.742396735454493 1.617580194997502  11.33969358451382 1.720726358777528 1.767492102935496  11.45454077435324 1.722644467061094 1.724874957391681  11.34460700862836 1.674304344798901 1.601712871503583  11.34135794599467 1.653546167126559 1.759215087893359  11.4547275855246 1.652184039314498 1.716313443592381  11.34442122138629 1.605942598926831 1.585793193934863  11.34305017019214 1.58615428550546 1.750879830567998  11.45490515567182 1.581446504254773 1.707583847629985  11.34442720510969 1.537302058866871 1.569664579163162  11.34486167671669 1.518533528000199 1.742318001388743  11.45517975164427 1.510416180988439 1.698493943285337  11.34469242473423 1.468395980751833 1.553238003599732  11.34700692111584 1.450617814358389 1.733538713753087  11.45566200589856 1.438999309413215 1.688962970036281  11.34927549822711 1.915516130009321 1.532594075929756  11.22363184984027 1.908947457881894 1.550932395896849  11.24045612397852 1.963493233133518 1.449727038504483  11.23699084766832 1.90393106069111 1.414691733988565  11.22234919522922 1.846170011547253 1.524234036898645  11.3473638821441 1.850194377572064 1.505021252317915  11.23331489111995 1.844140655294255 1.379339874987003  11.22089958406677 1.783173854956967 1.497395029361355  11.34527563597702 1.784521624941057 1.477478263833878  11.22980166906131 1.784056113415312 1.343921709576413  11.21955414953399 1.719947799861903 1.470567154944733  11.34327855746367 1.718537300462028 1.449996941909339  11.22663442947705 1.723667871840904 1.308550150386871  11.21849880298948 1.656457720694911 1.443797640973852  11.34149433736795 1.652254334909946 1.422492115928601  11.22378115840257 1.663017507466688 1.273136177597901  11.2177043417395 1.592712949467186 1.416957297829228  11.33991366134819 1.585694377613871 1.394777743898494  11.22121081960763 1.602175361166788 1.237573824731537  11.21715039957179 1.528752419099052 1.389989301847973  11.33864730465953 1.518911271329314 1.366725763616173  11.22591657205205 1.870634019108108 1.675488066839275  11.2264391597693 1.805789797436217 1.660005122674704  11.22677783214896 1.740670325640972 1.644563256052682  11.22711407939331 1.675351632734488 1.629156889499763  11.22761179038925 1.609814885195161 1.613754149677606  11.22840107858511 1.5440305126732 1.598301453016983  11.22950438818295 1.477952453107786 1.582726334633818  10.88891299830281 1.827176497879313 1.484948770118096  10.93795368180392 1.896137850344169 1.354162894421346  10.92837457348373 1.846609468069278 1.313692194281729  10.8822169916172 1.773938472045306 1.452332008322443  10.91910808666797 1.796885540438667 1.273238947663219  10.87574275407992 1.720515808131874 1.419725491452867  10.91029976045234 1.746941770672376 1.232842312602261  10.86966337887352 1.666905713690563 1.38718201238055  10.90204262629165 1.696762951020043 1.192495513969779  10.86419112865258 1.613074630423994 1.354696560132903  10.81580367658271 1.84213648369286 1.355753375045311  10.80771083204977 1.793809004575801 1.316980193030481  10.80004877370219 1.745297306191455 1.278249718596804  10.79297702707771 1.696590583647043 1.23958457411448  10.56579703326701 2.178777451980714 1.029414301062325  10.61661466049561 2.252483857517392 0.9672320060504207  10.48035966570796 2.260831575400526 1.002177839889396  10.62758324573967 2.282549718550291 1.015545195957139  10.57666521359546 2.207778008290602 1.07737564266738  10.4706229217094 2.231343806305295 0.9556183350311036  10.55531887160552 2.149488490426003 0.9814929331569938  10.60597093175288 2.222103816380783 0.9189835251204295  10.7755408737905 1.717128717791689 1.453286166647447  10.77166269284956 1.665261553795237 1.42087732090082  10.76823944778697 1.613236074822542 1.388554308072729  10.53754288822093 2.274911845679502 0.9063805889629898  11.1073002763997 1.898337490190928 1.580896590606658  11.1054256248094 1.837754839883043 1.555168837209284  11.10334725475474 1.777018763703892 1.529225276055517  11.10137128956821 1.716106132307378 1.503266275774144  11.09967946793778 1.654986172737892 1.477368210384749  11.09838758240291 1.593638816704877 1.451557405586077  11.09734218526246 1.532087607716961 1.425729197799023  11.69599999999863 1.887620868410297 1.62364954668097  11.57528321830415 1.883775600806166 1.627757238112055  11.57589960706063 1.810787305356994 1.61161005390996  11.69599999999859 1.811487169714897 1.608099495707299  11.57637916334359 1.736976205423173 1.596491574955159  11.69599999999855 1.734165996191564 1.594041819337885  11.57676727153965 1.662708614566067 1.581490383838152  11.69599999999851 1.656326540593954 1.579876838169963  11.57709009199111 1.588106483153249 1.566079447168981  11.69599999999847 1.578101928649026 1.565098441791834  11.57747213900626 1.513213232533469 1.550054305054237  11.69599999999843 1.499573644167104 1.549437569956331  11.57776034734044 1.438172613932858 1.533098855983567  11.6959999999984 1.421004087551967 1.532381716461542  11.09844753556681 1.866171263090658 1.689874520657345  11.09956593346502 1.803925168885194 1.674075137885979  11.10045887871553 1.741468699943144 1.658160583356247  11.10137298616774 1.678827687934988 1.642235292645733  11.10245931835841 1.616016018663543 1.626335390509055  11.10389379102565 1.553020090198539 1.610498741167024  11.10569596681991 1.489814139495992 1.594678340797398  11.2176157792856 1.850708824631582 1.786939552941771  11.22002440598979 1.786664786943932 1.775956778919361  11.22232496821907 1.72243404555928 1.765072692947293  11.22462134482142 1.658015400794159 1.754256813554625  11.22702184534889 1.593421909432775 1.743452359224925  11.2296372397167 1.528644863059806 1.732586683928476  11.23258654929382 1.463667867778268 1.721634981056514  11.58355641323343 1.973374455875464 1.397724445611851  11.58180733426137 1.906581374120956 1.357890954842039  11.58010978772298 1.838873363270114 1.318585292235998  11.57842242492118 1.770832697234511 1.279198125826166  11.57680161362248 1.702642748482146 1.239490486894204  11.57524407374694 1.6344424690
[...]
<PointData  Vectors="f_24"> 
<DataArray  type="Float64"  Name="f_24"  NumberOfComponents="3" format="ascii">-4.8101032483318394e-02 -8.0031672722581243e-02 -5.2739223065785226e-02  -4.6441262033950839e-02 -8.3137662815714441e-02 -5.2452687109753642e-02  -4.8433865890934721e-02 -7.7579486677256879e-02 -5.6305084167011694e-02  -4.7264859862663211e-02 -7.6058444861221153e-02 -5.5744117888114224e-02  -4.5349290058460084e-02 -8.1056751587993595e-02 -5.2762324168969539e-02  -4.6765959411338688e-02 -7.7969266912712193e-02 -5.3092175578603927e-02  -4.6171874333788838e-02 -7.4805488901631995e-02 -5.5652464925718015e-02  -4.4243082828004356e-02 -7.9399958974949211e-02 -5.3293915926137303e-02  -4.5429609864004766e-02 -7.6374606920222479e-02 -5.3675795595475279e-02  -4.5113817219592400e-02 -7.3720090953206571e-02 -5.5794918158039442e-02  -4.3144359065271469e-02 -7.8048784262305604e-02 -5.4011725438915283e-02  -4.4110187083917292e-02 -7.5063400258676749e-02 -5.4457154560247967e-02  -4.4078943855403362e-02 -7.2803959999567555e-02 -5.6044461025689433e-02  -4.2067748679123773e-02 -7.6918421479133206e-02 -5.4885449825379178e-02  -4.2821047090000459e-02 -7.3952795868454393e-02 -5.5397467798625963e-02  -4.1578607904883019e-02 -7.2995114786131410e-02 -5.6479629317177260e-02  -4.1034979545891144e-02 -7.5958843807233625e-02 -5.5895773307063426e-02  -4.3063872349907349e-02 -7.2077107156997916e-02 -5.6354465416410621e-02  -4.0418262250864860e-02 -7.2161080834012167e-02 -5.7698176907181896e-02  -4.0075659956952080e-02 -7.5148310996160400e-02 -5.7035779411358081e-02  -4.2092680878284321e-02 -7.1578830037757946e-02 -5.6715289103928396e-02  -4.3682263862339699e-02 -8.7785403564826184e-02 -5.2207561659752676e-02  -4.2375369290212711e-02 -9.0053079748299097e-02 -5.2357565250642391e-02  -4.5263970317922009e-02 -8.4371815561115462e-02 -5.5485490859492684e-02  -4.4110484317750234e-02 -8.2935743228387648e-02 -5.4922464374653000e-02  -4.1475293161512432e-02 -8.8328250929489704e-02 -5.2175223830757490e-02  -4.2757649625200726e-02 -8.5896554740701431e-02 -5.2259313382137865e-02  -4.3097226474707546e-02 -8.1789004628491396e-02 -5.4774231757664757e-02  -4.0635107063422056e-02 -8.6961559098171867e-02 -5.2251018022345504e-02  -4.1866567982978727e-02 -8.4382085003167587e-02 -5.2571659518068435e-02  -4.2152333763197838e-02 -8.0819789045976725e-02 -5.4834791536861299e-02  -3.9838354793531844e-02 -8.5858690584324354e-02 -5.2511090222597832e-02  -4.1007297947867873e-02 -8.3147251774828360e-02 -5.3064634212638968e-02  -4.1234354388025862e-02 -8.0020709659196526e-02 -5.5010976893300340e-02  -3.9070166634865559e-02 -8.4959538239032489e-02 -5.2906215414406627e-02  -4.0176938692078938e-02 -8.2124946842658544e-02 -5.3699146686857727e-02  -4.0322876618833318e-02 -7.9404964354162333e-02 -5.5265594694520560e-02  -3.8323431944712681e-02 -8.4233835295460149e-02 -5.3415529423614133e-02  -3.9378548869054189e-02 -8.1279088437213237e-02 -5.4460210261953065e-02  -3.9407611832738422e-02 -7.8987081958153391e-02 -5.5598181997957234e-02  -3.7592413877667756e-02 -8.3652571129053763e-02 -5.4028052037164181e-02  -3.8619494354808506e-02 -8.0585848821370307e-02 -5.5338986756774212e-02  -4.6795578406099513e-02 -8.1210347595274374e-02 -5.5408235509011937e-02  -4.5657543056876991e-02 -7.9592351041040177e-02 -5.4968690862478048e-02  -4.4573689250832195e-02 -7.8327318044298350e-02 -5.4916987561424026e-02  -4.3550928096375015e-02 -7.7250531279760601e-02 -5.5095263403376907e-02  -4.2556243305042318e-02 -7.6345926746768489e-02 -5.5411681477324011e-02  -4.1585850992072265e-02 -7.5619449045830900e-02 -5.5827723579053502e-02  -4.0649969361479320e-02 -7.5072791374822576e-02 -5.6343822097071602e-02  -4.7844262222998646e-02 -8.3159722818904547e-02 -4.9291414335844129e-02  -4.6073784960627473e-02 -8.5983303424832097e-02 -4.9171582383755727e-02  -4.4985482176333316e-02 -8.3722100270079966e-02 -5.0535201837387737e-02  -4.6442248096429981e-02 -8.0853352997422148e-02 -5.0851807684170504e-02  -4.3867416886121544e-02 -8.1951287319587854e-02 -5.1948428886878117e-02  -4.5007073100553609e-02 -7.9135288497908726e-02 -5.2383637804774036e-02  -4.2742792128496833e-02 -8.0497551389074898e-02 -5.3445747913042220e-02  -4.3587072906826618e-02 -7.7722611252720064e-02 -5.3973288470231619e-02  -4.1638227489741088e-02 -7.9247502769844130e-02 -5.5079557199666486e-02  -4.2205357816144873e-02 -7.6476928377660527e-02 -5.5713765404529769e-02  -4.0577689006573645e-02 -7.8133583313492821e-02 -5.6900631450550625e-02  -4.0869517658729128e-02 -7.5328621391052980e-02 -5.7677244908880661e-02  -3.9587264518904972e-02 -7.7107641990652190e-02 -5.8944214090536975e-02  -3.9571367766494850e-02 -7.4239583144251928e-02 -5.9915097438755782e-02  -4.2274029670712934e-02 -9.7232354360042225e-02 -4.3289409614373525e-02  -4.0410630445416096e-02 -9.9795327959082664e-02 -4.2642103749417452e-02  -4.2706520422954010e-02 -9.3312258152988756e-02 -4.6156703740761348e-02  -4.2116713276643410e-02 -9.1246416480881901e-02 -4.8059426917067494e-02  -4.0171653489717248e-02 -9.8152518807585840e-02 -4.5104570544241572e-02  -4.1814935577684890e-02 -9.5487421070585582e-02 -4.6014903718816232e-02  -4.1460451977322420e-02 -8.9628688229518569e-02 -4.9831945028754189e-02  -3.9863357881669045e-02 -9.6765545160150013e-02 -4.7311695074981570e-02  -4.1306852339065114e-02 -9.4066244335529597e-02 -4.8417858841585025e-02  -4.0788056346362053e-02 -8.8291033586281389e-02 -5.1625582335838624e-02  -3.9539463708714973e-02 -9.5569093488050622e-02 -4.9451961742790262e-02  -4.0792467974623076e-02 -9.2865229792157986e-02 -5.0743760069859110e-02  -4.0130295842290074e-02 -8.7135021507181498e-02 -5.3547030135322880e-02  -3.9224218430647918e-02 -9.4503826552281484e-02 -5.1682807813710527e-02  -4.0295075428525999e-02 -9.1798437834866978e-02 -5.3168871398551081e-02  -3.9510963936311642e-02 -8.6103791800259455e-02 -5.5684800142791431e-02  -3.8937734760671257e-02 -9.3524181762501601e-02 -5.4133892536567634e-02  -3.9828719842181365e-02 -9.0813668527377170e-02 -5.5846061191948050e-02  -3.8956525153976913e-02 -8.5171193856743849e-02 -5.8113887682374486e-02  -3.8691730026436888e-02 -9.2601422065090366e-02 -5.6919277306203629e-02  -3.9398709753632355e-02 -8.9881638945097556e-02 -5.8908882890330611e-02  -4.4681669746157344e-02 -8.7766666633363147e-02 -4.9451685686725325e-02  -4.3154667124906447e-02 -8.9708666049303443e-02 -4.9557475392148151e-02  -4.5096981049572410e-02 -8.5324209038419599e-02 -5.2450572365883581e-02  -4.4121082002120435e-02 -8.3394655804309131e-02 -5.2656581440810528e-02  -4.2410544830445443e-02 -8.7557585116960990e-02 -5.0380069101619157e-02  -4.3798702127074082e-02 -8.5501507771853710e-02 -5.0522143128751217e-02  -4.3143431162058897e-02 -8.1772008393794865e-02 -5.3046580636626282e-02  -4.1629691973937753e-02 -8.5868484696246791e-02 -5.1339385018134731e-02  -4.2875296562145185e-02 -8.3719368251866447e-02 -5.1711264344601257e-02  -4.2185193070158993e-02 -8.0446948365415771e-02 -5.3634145277938958e-02  -4.0848836455229492e-02 -8.4480448461002916e-02 -5.2411481866837029e-02  -4.1942281724785112e-02 -8.2251660294766119e-02 -5.3004489796726562e-02  -4.1253409121847759e-02 -7.9346031054392224e-02 -5.4378593373310885e-02  -4.0087076159854823e-02 -8.3303455856072572e-02 -5.3619976697705039e-02  -4.1023520381614983e-02 -8.1001679337065660e-02 -5.4431555051093816e-02  -4.0357212549238776e-02 -7.8426023048403723e-02 -5.5260521104644703e-02  -3.9362873985540781e-02 -8.2290364418015696e-02 -5.4989901597353875e-02  -4.0143712100903513e-02 -7.9910118007572542e-02 -5.6023161665109969e-02  -3.9519648415263578e-02 -7.7663394509790984e-02 -5.6272630974894246e-02  -3.8695937329009486e-02 -8.1429628290092579e-02 -5.6539123190826004e-02  -3.9336467617908578e-02 -7.8945326159359355e-02 -5.7800763283810098e-02  -4.1126045978854442e-02 -9.5205397452505475e-02 -4.5926847693150925e-02  -4.0686320781149345e-02 -9.3247691900699189e-02 -4.7619081735963957e-02  -4.0178594621008160e-02 -9.1684067138993131e-02 -4.9156771519759557e-02  -3.9653322510626116e-02 -9.0387904390939550e-02 -5.0714130478119984e-02  -3.9140887978654622e-02 -8.9273837392940397e-02 -5.2394712943018715e-02  -3.8666736388950400e-02 -8.8290438762893081e-02 -5.4281086716158902e-02  -3.8249767284782868e-02 -8.7421015151519621e-02 -5.6453822454563672e-02  -3.9340548261928468e-02 -8.9623806733752906e-02 -5.1662111339883882e-02  -4.1373249762751634e-02 -8.5774477831965124e-02 -5.4363628714514577e-02  -4.0477636691284069e-02 -8.4965988349458260e-02 -5.4259182220944481e-02  -3.8610269400971640e-02 -8.8614877724218583e-02 -5.1740146519833524e-02  -3.9604467542926645e-02 -8.4315470950135252e-02 -5.4249673187358530e-02  -3.7904527236951736e-02 -8.7808227087202845e-02 -5.1938915263599963e-02  -3.8727322870049284e-02 -8.3845894141563751e-02 -5.4302720662538953e-02  -3.7211080250802844e-02 -8.7174584265071242e-02 -5.2236697556991840e-02  -3.7841941171696855e-02 -8.3578694574436452e-02 -5.4425234139990002e-02  -3.6514508806323592e-02 -8.6673303153973522e-02 -5.2632982268023182e-02  -3.9275248640831754e-02 -8.8014746077094003e-02 -5.3785000058481282e-02  -3.8448855721897233e-02 -8.7449877306951890e-02 -5.3583312475561654e-02  -3.7606466880210306e-02 -8.7061487950671229e-02 -5.3435543638387185e-02  -3.6735502018629990e-02 -8.6890399128234111e-02 -5.3358911157691563e-02  -4.2742648558379885e-02 -8.5434226257295756e-02 -6.5858334191153708e-02  -4.4464433497557923e-02 -8.0246261879024949e-02 -6.6160568414218010e-02  -4.3175884942767216e-02 -8.3956912333946726e-02 -6.7590908014910911e-02  -4.5340616134759398e-02 -8.2021724256436113e-02 -6.6355732906416498e-02  -4.3653722117847772e-02 -8.6637593426138068e-02 -6.6308233239799563e-02  -4.2100367316154567e-02 -8.1986182201924288e-02 -6.6940237522647161e-02  -4.1518707489671514e-02 -8.4341534696221201e-02 -6.4920590332768605e-02  -4.3250960233006952e-02 -7.8402717459688714e-02 -6.5583910954977107e-02  -3.6843225569117538e-02 -9.0148363194229919e-02 -5.1018178864383854e-02  -3.6211706978036357e-02 -8.9561326118287793e-02 -5.1131552567602136e-02  -3.5562280931072332e-02 -8.9136026232819271e-02 -5.1311199528542184e-02  -4.3505578288380711e-02 -7.6830560672973794e-02 -6.6489920610289133e-02  -4.1673646707545274e-02 -9.1862767880820803e-02 -4.9368399196681859e-02  -4.1005405844804839e-02 -8.9793586589899832e-02 -4.9977821657966902e-02  -4.0324653362580301e-02 -8.8214280842844037e-02 -5.0747334283418009e-02  -3.9650308748296517e-02 -8.6921017738164297e-02 -5.1625700674915752e-02  -3.8998338161578390e-02 -8.5830212479597004e-02 -5.2633847320432414e-02  -3.8380443380344076e-02 -8.4901248411172359e-02 -5.3800093262193649e-02  -3.7799303719577231e-02 -8.4124516024682669e-02 -5.5144880386726866e-02  -4.7367182979981541e-02 -8.7755129017898684e-02 -4.6387300850002630e-02  -4.5732342556755595e-02 -8.9927305343013200e-02 -4.5940837653033730e-02  -4.4709382096065953e-02 -8.7856972468977612e-02 -4.8512738103026261e-02  -4.6027028847979615e-02 -8.5716423281684356e-02 -4.9199185196787475e-02  -4.3655661023247111e-02 -8.6252272689121987e-02 -5.0748002567195749e-02  -4.4704687398901162e-02 -8.4274531510981660e-02 -5.1335723346122727e-02  -4.2617138060858137e-02 -8.4931608267525077e-02 -5.2910127323591273e-02  -4.3425873167476106e-02 -8.3093916311051286e-02 -5.3386058201255866e-02  -4.1605867943410625e-02 -8.3761690883445844e-02 -5.5203958556854338e-02  -4.2194387907857615e-02 -8.2030891073971685e-02 -5.5607345480998292e-02  -4.0630258932142935e-02 -8.2670285436843585e-02 -5.7785979289457265e-02  -4.0995591528999384e-02 -8.1003535681307776e-02 -5.8205391933001276e-02  -3.9688386088558805e-02 -8.1611074873532058e-02 -6.0779196936375755e-02  -3.9806890907174798e-02 -7.9942021481044456e-02 -6.1391145180963572e-02  -3.9776766130947348e-02 -9.6421218959862776e-02 -4.6088998008286655e-02  -3.9417809273917942e-02 -9.4550078835233378e-02 -4.7426731742146726e-02  -3.8982228970477033e-02 -9.3034314633608436e-02 -4.8634862951748209e-02  -3.8530495469730697e-02 -9.1783594110182831e-02 -4.9878739931343827e-02  -3.8092466686254663e-02 -9.0718845128007902e-02 -5.1244499931106489e-02  -3.7690671028594872e-02 -8.9792135832990796e-02 -5.2799911958609849e-02  -3.7340034302199725e-02 -8.8976250861418943e-02 -5.4612171552272007e-02  -3.9308053102882962e-02 -1.0017520723552371e-01 -4.3028293556779944e-02  -3.9131284298655991e-02 -9.8509992272677815e-02 -4.5126217452147371e-02  -3.8892662856557306e-02 -9.7054266999503536e-02 -4.7020627734521370e-02  -3.8619956884964016e-02 -9.5793971029450559e-02 -4.8874471463741478e-02  -3.8348395143083497e-02 -9.4681486124378877e-02 -5.0810484487417720e-02  -3.8105573111056994e-02 -9.3675061894238465e-02 -5.2936478846559380e-02  -3.7912915321116777e-02 -9.2739343004760916e-02 -5.5348797100308711e-02  -4.9587534350512087e-02 -7.8089095883244738e-02 -5.2200349432625845e-02  -4.8030012426900727e-02 -7.5886483099917731e-02 -5.2782618113379635e-02  -4.6462523842556745e-02 -7.4142454140978836e-02 -5.3548230156613280e-02  -4.4903144991777937e-02 -7.2688520255814904e-02 -5.4476469547179593e-02  -4.3373498876022772e-02 -7.1424640227327210e-02 -5.5543352355090163e-02  -4.1882772407145295e-02 -7.0302953651887268e-02 -5.6743859167880162e-02  -4.0425329672530937e-02 -6.9296727707581579e-02 -5.8080861330997768e-02  -5.2699875089189323e-02 -6.5885877608259091e-02 -6.3150170937620875e-02  -5.2560027658846431e-02 -6.6858536727955276e-02 -6.2465771935173851e-02  -5.2747223638687037e-02 -6.6002297898050566e-02 -6.2991299900631584e-02  -5.3230410960396372e-02 -6.5174070104815199e-02 -6.2696508805217169e-02  -5.2505482374834898e-02 -6.6503788974827130e-02 -6.1754723560091276e-02  -5.2992960716690310e-02 -6.5469302324696763e-02 -6.2567260524215212e-02  -5.3825850041044364e-02 -6.3695147393208432e-02 -6.2484106774251952e-02  -5.2542892788787952e-02 -6.5422315616944893e-02 -6.1377070810807767e-02  -5.3365422717884373e-02 -6.3994040970742919e-02 -6.2402592689563434e-02  -5.4501894096414989e-02 -6.1907336760715373e-02 -6.2290816933400800e-02  -5.2645004299718426e-02 -6.4056783442321255e-02 -6.1133235180920599e-02  -5.3813003176822041e-02 -6.2188949771796627e-02 -6.2376270215230574e-02  -5.5218934968748121e-02 -6.0106836623170193e-02 -6.2026469307634204e-02  -5.2774432578110611e-02 -6.2755148007508268e-02 -6.0853046457084489e-02  -5.4311146323135294e-02 -6.0463344990868445e-02 -6.2283985251183435e-02  -5.5936331658240676e-02 -5.8566076576724135e-02 -6.1581688292796061e-02  -5.2896833905080792e-02 -6.1802032853428883e-02 -6.0405848113602792e-02  -5.4825397700820636e-02 -5.9168894669770052e-02 -6.1963112298498643e-02  -5.6623386801903014e-02 -5.7587374149349668e-02 -6.0833477190390013e-02  -5.2988729266277866e-02 -6.1470697914555276e-02 -5.9710222017862732e-02  -5.5294385470397778e-02 -5.8749608449790415e-02 -6.1245853332392332e-02  -4.1812021121063622e-02 -8.5724066320824438e-02 -5.7658871508876865e-02  -4.0937657137344916e-02 -8.5193329998697234e-02 -5.7338391457315091e-02  -4.0009807540934403e-02 -8.4855095070195785e-02 -5.6971241872988465e-02  -3.8969189915095938e-02 -8.4791182153471839e-02 -5.6537542291649631e-02  -5.5444116700092215e-02 -4.8743499963196921e-02 -5.3469420380333824e-02  -5.6513118145794787e-02 -4.3111092770229315e-02 -4.8492486205707792e-02  -5.4425717705204109e-02 -4.7129464996698740e-02 -5.1739216406763690e-02  -5.5660176774697478e-02 -4.7085511898823956e-02 -4.8130310163814097e-02  -5.4849618653004091e-02 -5.2236512263066165e-02 -5.3277281617717255e-02  -5.4912519411679080e-02 -4.3042641350592277e-02 -5.2059172245954799e-02  -5.6012555867081017e-02 -4.5068752063475735e-02 -5.3495917749339518e-02  -5.7383974163749130e-02 -3.8830224836848212e-02 -4.8803462887377864e-02  -3.8015960347707684e-02 -1.0098339599554347e-01 -4.3190137934521242e-02  -3.7903324515309651e-02 -9.9317385768952923e-02 -4.4928001790080711e-02  -3.7716971758821258e-02 -9.7877686720092741e-02 -4.6534123778933435e-02  -3.7496275985839482e-02 -9.6636922896756003e-02 -4.8121732778592829e-02  -3.7277718599263786e-02 -9.5549516939914661e-02 -4.9796029506344319e-02  -3.7093066098628141e-02 -9.4575869412009725e-02 -5.1643148772177565e-02  -3.6969588742545849e-02 -9.3680292457389014e-02 -5.3739664241450776e-02  -3.8384948077205210e-02 -9.7994952191898840e-02 -4.5889590445735262e-02  -3.8067260727094161e-02 -9.6140072754342082e-02 -4.6949234360719752e-02  -3.7697984359561558e-02 -9.4661685619437622e-02 -4.7883258365918092e-02  -3.7311668133907419e-02 -9.3450065687242248e-02 -4.8864001234657825e-02  -3.6937433183735817e-02 -9.2427548796084794e-02 -4.9962381506712457e-02  -3.6596887522603698e-02 -9.1544866064558361e-02 -5.1233463386959541e-02  -3.6308048061787765e-02 -9.0760569857229259e-02 -5.2746657250208169e-02  -5.1721551152193290e-02 -6.9864017416313998e-02 -6.0813250160379008e-02  -5.2376896105918766e-02 -6.8579364217349531e-02 -6.2071044593242135e-02  -5.2177670904800473e-02 -6.8003305268313483e-02 -6.1549419024852163e-02  -5.1087979731464485e-02 -6.9346282584915556e-02 -5.9931172404796153e-02  -5.0598276953753747e-02 -6.8340948335592525e-02 -5.9532480920350322e-02  -5.2113071153035075e-02 -6.6868035545957535e-02 -6.1214869688354767e-02  -5.0170340903676711e-02 -6.7214406686200184e-02 -5.9301796946555844e-02  -5.2123316442789148e-02 -6.5501691774376508e-02 -6.0940731109776096e-02  -4.9765716989658690e-02 -6.6194198489818432e-02 -5.9067069766874918e-02  -5.2164516225550364e-02 -6.4154536769916004e-02 -6.0619192481975691e-02  -4.9350309967751381e-02 -6.5478403082127976e-02 -5.8728497444906831e-02  -5.2188370664892868e-02 -6.3054226223267590e-02 -6.0152856246437916e-02  -4.8907546570361470e-02 -6.5237047141544116e-02 -5.8239300624052574e-02  -5.2147552646252142e-02 -6.2446195775424790e-02 -5.9462926531178621e-02  -5.0505911053306568e-02 -7.2946740148782302e-02 -5.8794532208681381e-02  -4.9767912220543747e-02 -7.4786943141377113e-02 -5.9350344881738772e-02  -4.8841407837129015e-02 -7.4038083092647422e-02 -5.8531223169680603e-02  -4.9471528887677134e-02 -7.2073566438702108e-02 -5.7854382383388775e-02  -4.8037549516418546e-02 -7.3033385870525547e-02 -5.8186734208616947e-02  -4.8579735467998000e-02 -7.1011238074677796e-02 -5.7524029565444272e-02  -4.7303182387644443e-02 -7.2002508204381005e-02 -5.8039450718419663e-02  -4.7731889415497858e-02 -6.9977084394803254e-02 -5.7431085467088402e-02  -4.6588338668888098e-02 -7.1097564977480501e-02 -5.7930372470451644e-02  -4.6901232525686343e-02 -6.9092812030569675e-02 -5.7392660689218243e-02  -4.5865071142652279e-02 -7.0435528075902837e-02 -5.7783377558746254e-02  -4.6082938212356934e-02 -6.8458310737732050e-02 -5.7325319023340031e-02  -4.5113569687008637e-02 -7.0099815231096291e-02 -5.7571051324036233e-02  -4.5295555738210445e-02 -6.8147656696788864e-02 -5.7193314366371019e-02  -5.2851439550429306e-02 -6.7469814262208522e-02 -6.1957869699441996e-02  -5.3016417762236923e-02 -6.6391097800530999e-02 -6.1794477590505090e-02  -5.3314346358788255e-02 -6.4879879154686973e-02 -6.1619249064417028e-02  -5.3690316538638878e-02 -6.3136329672289965e-02 -6.1409968342359518e-02  -5.4094820637427300e-02 -6.1367531900429817e-02 -6.1109090355267952e-02  -5.4472936879368869e-02 -5.9777661169637994e-02 -6.0634146769049914e-02  -5.4776688297238987e-02 -5.8613959125921801e-02 -5.9910059034562639e-02  -3.6271608595257306e-02 -9.7779898058031431e-02 -4.7011998951054797e-02  -3.6106348162602296e-02 -9.6704177194816415e-02 -4.8441548954069769e-02  -3.5972705313839601e-02 -9.5754463365207307e-02 -5.0017918406682231e-02  -3.5909791441535673e-02 -9.4888394699249423e-02 -5.1796215579533657e-02  -5.2280173263184314e-02 -6.5281142859598337e-02 -6.3692867215127000e-02  -5.2802609371280902e-02 -6.5616051612860091e-02 -6.1720814656530829e-02  -5.3619996223409308e-02 -6.4041613149738844e-02 -6.1770102348670704e-02  -5.3643773302348839e-02 -6.3701941762517034e-02 -6.3689867047518653e-02  -5.4536406091877848e-02 -6.2043240011143697e-02 -6.1737625900136484e-02  -5.5048594486668885e-02 -6.1423613078858283e-02 -6.3695594041830991e-02  -5.5525026897613600e-02 -5.980628821