<?xml version="1.0"?>
<VTKFile type="UnstructuredGrid"  version="0.1"  >
<UnstructuredGrid>
<Piece  NumberOfPoints="718" NumberOfCells="2994">
<Points>
<DataArray  type="Float64"  NumberOfComponents="3"  format="ascii">6.293197301815034 1.625421749358413 1.253431246722047  6.27364656475822 1.491143008196747 1.341452511140558  6.391690980661442 1.565669861567606 1.306706433267877  6.38416800755081 1.600744863658552 1.356028033474773  6.302550088074621 1.592960204761974 1.20383678762928  6.283210235156846 1.453693452495211 1.294506408250718  6.399336415039286 1.530731787135682 1.257497343118414  6.292796321852919 1.416325957935642 1.24766772937297  6.311933057863657 1.560592170862288 1.154379353223212  6.407022133606283 1.495875807173152 1.208404450824032  6.302267184542239 1.379024669902349 1.20097314643551  6.321220412273778 1.528273037724109 1.105053413924843  6.414662304536792 1.461098253737708 1.159494981803283  6.311425656802648 1.341749469512329 1.154456080600428  6.330190793608695 1.496002735422186 1.055911422946877  6.422106674469466 1.426414732375662 1.110836138668561  6.370142224470033 1.640945212756055 0.9749623108460997  6.256690422743075 1.710775936506654 0.9200054559464246  6.213077794410689 1.578873326829883 0.9850190553148758  6.362021348657262 1.670975207165629 1.025143868334318  6.399407468720925 1.371400472671183 1.668192085021196  6.27736734547757 1.405805006640331 1.593518731302049  6.394446678056792 1.448897459389938 1.56391136550219  6.402013722532634 1.40373104649299 1.520852134123718  6.285978070269195 1.358611652002643 1.553680669606272  6.407849726845731 1.320234655256392 1.632077100934915  6.409760658291209 1.358806379837016 1.477826920773256  6.294822097268161 1.311634010218779 1.51384348155154  6.416468258561867 1.269296709881409 1.595933866714303  6.417605886042821 1.314045520947972 1.434869309217113  6.303789443905083 1.264805913064749 1.474060720876272  6.42518716073932 1.218518896289959 1.559816866751533  6.425490120852493 1.269396823069324 1.392019954590381  6.312781586976456 1.218073647939037 1.434358367525118  6.433941144578889 1.167848716526569 1.523768504598063  6.433356168059331 1.224848159167062 1.349346337155369  6.321687545730988 1.17141364609113 1.394783022404374  6.442664008860942 1.117271930636397 1.487843956384546  6.441008778484916 1.180380721880215 1.306905054308686  6.330363643918145 1.124824675385418 1.355402356874943  6.451234115683985 1.066816277539306 1.452131741925589  6.488718910873065 1.587031610085069 1.457830120654309  6.376775037871307 1.635959540067177 1.40554488535917  6.485178574600392 1.679346238605477 1.389133158109627  6.489947027474532 1.645225150307146 1.338025736212638  6.493943502059325 1.548026159965623 1.409514116843837  6.494743916325944 1.611217774290675 1.287121471785315  6.499208887081362 1.509196829518136 1.361340872613457  6.499602099790047 1.577337277843625 1.236364809485948  6.504542982735749 1.470517249882245 1.313280284143344  6.504497241593102 1.543546869345791 1.185752532549311  6.509916149499253 1.431932193799958 1.265345439250489  6.509413397948987 1.509843036672293 1.135324766579526  6.51531734986238 1.393432892013745 1.217580148742847  6.514303000845648 1.476247577918677 1.085173991364418  6.520719048040111 1.355059337615398 1.170093850358279  6.919935994666382 1.656715491140761 1.388551807442606  6.813700877555132 1.654982659833158 1.408156181718905  6.889247436518016 1.735928278239675 1.3364980763142  6.879775204946228 1.700026409352153 1.285130531607466  6.808511145664947 1.616169086572886 1.357029077819834  6.910788164735791 1.616842868082017 1.339113455399254  6.86995585666985 1.664189071248751 1.233954469553713  6.803050548352581 1.577485643239917 1.306058059375796  6.901274562967308 1.57706535945285 1.289846408042878  6.859932933639044 1.628393613285344 1.182950988509245  6.797443661823501 1.538875282517544 1.255249298023814  6.891577411785214 1.537335296372076 1.240725367155564  6.849885160583908 1.592645859249751 1.132072346269014  6.791832967183504 1.50032516514365 1.204575474962905  6.881867432316049 1.497656482797607 1.19171913234838  6.83999734942337 1.556966288721719 1.08129983441048  6.7863696400936 1.461848970954788 1.154023354517917  6.872314601660951 1.458056735027089 1.142815434282112  6.830533425397327 1.521400758693508 1.030619078593029  6.781201416811379 1.423477908509344 1.103624615550264  6.863170346728377 1.418580169244189 1.094022137944291  6.292290217831377 1.318900130748111 1.71719331846123  6.302735243347526 1.266976336830907 1.683214262507399  6.31345410053991 1.21528519224771 1.649199926388924  6.324306586065184 1.16372498456704 1.615193283669533  6.335184098100453 1.112253494645148 1.581237495518549  6.345959615822566 1.060840822438941 1.547377566592261  6.356409233276399 1.00948764097136 1.513702238453221  6.366586395423996 2.061530440976808 1.153164215797549  6.52806963598552 2.123123467033186 1.132478630526978  6.478333175533376 2.009110448860296 1.192871555650079  6.482429710708997 1.979414998253198 1.140156302438601  6.530094919520506 2.094267340208124 1.07830557374045  6.372338443277701 2.033520958317863 1.100057170229417  6.378196814065006 2.005485285194645 1.04711393047052  6.532110161217732 2.065397169568693 1.024324111655363  6.486567179932168 1.949736270312508 1.087671993555888  6.384114013670238 1.977474340757584 0.9943623172784719  6.534111686917257 2.036535690828228 0.970523964911235  6.490724329389269 1.920081423099535 1.035386961055582  6.390039595500721 1.949511559613327 0.9417634950023761  6.536099779936093 2.007704077877214 0.916887144399714  6.494886885067417 1.890463649439953 0.9832593689884199  6.39593098934338 1.921633049775709 0.8893109430423775  6.538133217606242 1.978964845085666 0.8633953168634505  6.499070384579991 1.860939559740645 0.9312914023450325  6.401695009368838 1.893911866843719 0.8370175308061242  6.540260392045887 1.950429308057869 0.8100663155847416  6.50324674005464 1.831639944289534 0.8795603793405878  6.210443347371302 1.438601153303761 1.071877960090587  6.249445860002999 1.074910951782551 1.396912555960465  6.136406337716967 1.028570700854571 1.423371830573066  6.227102014864093 0.9692363516890981 1.52411802456703  6.215372750593108 1.021015583243576 1.557062006518852  6.238064783494198 1.122258262834716 1.434889017632087  6.389825687165458 2.181434657118738 1.094394590348907  6.394219152152285 2.154079785182964 1.039830626815867  6.398660004562691 2.126717501841038 0.9854804234823967  6.403137678156908 2.099370378362727 0.9313202569025708  6.407618225909756 2.072045232762626 0.8772986600120092  6.41208578142062 2.044800586627737 0.823417403230526  6.416491017329003 2.017724578835097 0.7696878661153139  6.214498156782717 1.217040062760276 1.51120776294464  6.226341431244154 1.169628899081339 1.473002679376408  6.535473087912125 2.22609729526658 1.008497272202875  6.535712325152235 2.196832417491472 0.9534565777391718  6.535914604021046 2.167565306609437 0.8985800036166166  6.384673550882078 1.540588801084552 1.483063227413689  6.392280736055018 1.500712678588593 1.436276639453335  6.400037445520433 1.4610538981412 1.389658506749403  6.407912258570033 1.421541023976316 1.343117771097263  6.415828046465719 1.382124133955607 1.296685901254784  6.423706963596663 1.342777577322626 1.250405634423109  6.431409676448158 1.303527792442964 1.204383198499023  6.608731318387414 2.128315310618029 0.9908106379403749  6.642739724319901 2.207946545722412 0.9428326639222093  6.612064866412995 2.158014506797857 1.045419964891898  6.605311879437469 2.098610258595677 0.9363806144064513  6.637037606676 2.177799174842127 0.8880551224513689  6.778192244004611 1.769165336474852 1.331800305760797  6.771848788916561 1.733830838441158 1.279613342019775  6.765254797225357 1.698612932757307 1.227626555980954  6.758489261924598 1.663450053232139 1.175823716282997  6.751697532225162 1.628343488622229 1.12417539046443  6.745038174161222 1.593321989722544 1.072671393691994  6.738756240015112 1.55842204085347 1.021315117222281  6.203269752280018 1.072773040415901 1.590116082601639  6.336689670173165 1.761587406334808 1.176697570520928  6.402799812808304 1.662703404197053 1.24859875529472  6.409573588937445 1.630768283356456 1.198008589655448  6.345136121506139 1.731307385250476 1.126043312971966  6.416386401229776 1.598918426274916 1.147551108571288  6.353616563716107 1.701102539070005 1.075515376586734  6.423160759308437 1.567134859263853 1.097241411645095  6.429765699095309 1.535444526645679 1.047142899129221  6.248114151121457 1.196855557713056 1.266411626118095  6.160596944243173 1.11116439583388 1.328165690791951  6.237573725725974 1.23920272584022 1.309090317322812  6.17753576404321 1.299829764306376 1.162380132731416  6.113144749077733 1.188141035282476 1.243280234028445  6.884658939488586 1.829686847020908 1.274741705180851  6.87559607398174 1.79504406887921 1.223398810539287  6.866202451788945 1.760458222763055 1.172275192848335  6.856592633575468 1.725889316660295 1.121312961806181  6.846949923346465 1.691358018398743 1.070470524252959  6.837471342020859 1.656892731616967 1.019713389521971  6.828392746873009 1.622575991273824 0.9690420994672611  6.215654040760342 1.323948247511474 1.394846916622424  6.226671831500063 1.281554411893682 1.351911706639668  6.58115841034467 2.044053927222258 1.176497601449843  6.581053381526724 2.013996555880891 1.122832921311396  6.580891703079325 1.983952277774307 1.069403231341539  6.580679552091429 1.95392743830635 1.016173831800654  6.580446527557497 1.923941365027542 0.9631085926078407  6.580273520926554 1.894051391703545 0.9101970466204428  6.580334373105493 1.864383967448914 0.85747103735481  6.773265164576206 1.865784918402202 1.26553527772669  6.765509073212003 1.83233843071398 1.213049141198334  6.757520065559747 1.798956469092065 1.160794566060893  6.749341264224123 1.76560238689602 1.108723551723463  6.741128482949114 1.732299846844561 1.056810244025461  6.733059157212888 1.699105355614086 1.005060305951355  6.725438888663481 1.6
[...]
<PointData  Vectors="f_24"> 
<DataArray  type="Float64"  Name="f_24"  NumberOfComponents="3" format="ascii">1.3690197841366930e-03 -7.4601266784392509e-02 -4.1007556696103899e-03  1.9019462393398102e-03 -7.7063569361422515e-02 -1.3056141897771396e-03  3.8065653866705898e-04 -7.6116470546673684e-02 -1.7305436905545833e-03  6.2862537529460595e-05 -7.6934911698542441e-02 -2.1250085709344758e-03  1.7914965531288618e-03 -7.3655883902253347e-02 -3.8129081171264442e-03  2.1829270949064220e-03 -7.6306802465589615e-02 -8.4535933908784662e-04  6.7407604849242591e-04 -7.5225646318562697e-02 -1.4147897399194593e-03  2.4710105531117440e-03 -7.5634735235771938e-02 -4.0450185645846766e-04  2.1972433237895158e-03 -7.2725161077860256e-02 -3.4684588666414901e-03  9.5781834424891630e-04 -7.4389726653704052e-02 -1.0890098804572578e-03  2.7768754515186157e-03 -7.5151661049382493e-02 8.6494836850725600e-05  2.6005666147404286e-03 -7.1917820272054761e-02 -3.0078310682918139e-03  1.2580531814608466e-03 -7.3733898816850427e-02 -6.7385473369530133e-04  3.1235477632025081e-03 -7.4950615605017201e-02 6.8404325034880620e-04  3.0173085484614670e-03 -7.1329397988797866e-02 -2.3417817209054324e-03  1.5962516222367822e-03 -7.3387534625726641e-02 -1.1147744259136132e-04  2.2335666105769356e-03 -6.6075066188718737e-02 -3.9690484112212985e-03  3.9985719003682394e-03 -6.2359204366692442e-02 -5.4714151902835097e-03  4.9281945338287515e-03 -6.7983765339650795e-02 -5.0521822716929673e-03  1.8045892500697328e-03 -6.7326525673725435e-02 -4.4621090235870929e-03  1.5240458709714787e-03 -8.6354082697996201e-02 6.4920570738591270e-03  2.1690613112730389e-03 -8.3200206596537540e-02 3.2396530184375478e-03  8.0567124477241652e-04 -8.2583474936553491e-02 2.9191687264321408e-03  7.9701468687124724e-04 -8.1351121399771742e-02 3.6777630701388224e-03  2.0580342379200945e-03 -8.1933711678152735e-02 4.0032329632568768e-03  1.2537536091977693e-03 -8.4668905962167654e-02 6.8838382043495561e-03  7.7571091171870215e-04 -8.0233012227250114e-02 4.0828666526615300e-03  1.9813925576272055e-03 -8.0815496683965107e-02 4.4434806752558405e-03  1.0225972584404278e-03 -8.3224080046903584e-02 6.9932130497304245e-03  7.6439688793777396e-04 -7.9248250603101297e-02 4.2896584299866236e-03  1.9384360377915810e-03 -7.9850752001916783e-02 4.6867942154741240e-03  8.2345806056116850e-04 -8.2008622856724334e-02 6.8924128799465354e-03  7.7474651332595063e-04 -7.8450377838758023e-02 4.4060380478038357e-03  1.9305348529462319e-03 -7.9080230118744071e-02 4.8171193563401769e-03  6.5900233621448215e-04 -8.1029569229539952e-02 6.6581145500449676e-03  8.1824288491752777e-04 -7.7898686847033799e-02 4.5014604372430106e-03  1.9631376250439148e-03 -7.8547768586623157e-02 4.8989162495699477e-03  5.3250828053581615e-04 -8.0300507043957525e-02 6.3443628327581377e-03  9.1858574904429065e-04 -7.7657609684651241e-02 4.6295903419789879e-03  2.0412262681599905e-03 -7.8290314777619788e-02 4.9689199286210477e-03  4.4881810738335814e-04 -7.9825425296639996e-02 6.0020987847163474e-03  -1.0532637704688957e-03 -7.9123390960042575e-02 -5.1333517325302419e-04  -2.9299096358380067e-04 -7.7530128489236239e-02 -2.7397836732769450e-03  -1.6118605288925848e-03 -7.6956578814978749e-02 -2.2906515176974395e-03  -1.2438620777533783e-03 -7.6300800389381834e-02 -1.8805330176503831e-03  -8.2252969998893022e-04 -7.8394152167126835e-02 2.1610505082865410e-04  -9.3993184560911753e-04 -7.5383253034200834e-02 -1.6271266043464741e-03  -6.2763073792983226e-04 -7.7498306352154461e-02 6.7433096811829159e-04  -6.6461592369552113e-04 -7.4364466264584372e-02 -1.4363901547230931e-03  -4.5576524851999707e-04 -7.6575045832405306e-02 9.7869403910240600e-04  -3.9790575832477899e-04 -7.3383659598967324e-02 -1.2190871227698759e-03  -2.8591181600927672e-04 -7.5753205217340469e-02 1.2395950871696049e-03  -1.1641809772874756e-04 -7.2568968670871078e-02 -8.8901823408240178e-04  -9.7985194116241965e-05 -7.5146193004783937e-02 1.5445509178562771e-03  2.0277854864043143e-04 -7.2066383970344247e-02 -3.6569368624460340e-04  1.3402921033414791e-04 -7.4849580430207813e-02 1.9632736643371944e-03  -5.4703423333079329e-03 -7.6847962875635431e-02 7.9120083508638658e-05  -4.4919700985797265e-03 -7.7403228198080098e-02 -9.8048224038943193e-05  -5.5506020169322065e-03 -7.4912865545200019e-02 -8.1397690981133673e-04  -5.3672426863462354e-03 -7.3985691397591064e-02 -6.5494916684203470e-04  -4.2786145805589742e-03 -7.6548311142066519e-02 3.9494931720876199e-04  -5.2902987995833003e-03 -7.5880562541447344e-02 5.0368610418941593e-04  -5.2465970263462077e-03 -7.2799564556029345e-02 -6.1917787080118913e-04  -4.1411265423208334e-03 -7.5436010239495047e-02 6.3262762944123663e-04  -5.2027509969694973e-03 -7.4730085103572236e-02 6.8753450145157249e-04  -5.1560532432993631e-03 -7.1525456346921340e-02 -6.3595525145013253e-04  -4.0379103427200663e-03 -7.4272629870410140e-02 7.3174003560414998e-04  -5.1483222335578990e-03 -7.3554544802884966e-02 7.4820288695176746e-04  -5.0546249019877447e-03 -7.0295142969236848e-02 -6.3168707741142137e-04  -3.9354412078542438e-03 -7.3201011190836648e-02 8.0572329689873969e-04  -5.0894474519784941e-03 -7.2481926709263150e-02 7.8536600623239634e-04  -4.9075025624261892e-03 -6.9223998288365937e-02 -5.2327310319923419e-04  -3.8053772628197959e-03 -7.2348587191675182e-02 9.5601948385744956e-04  -4.9955486928405131e-03 -7.1623499059724094e-02 8.8451091530782587e-04  -4.6826858469672496e-03 -6.8447467371026180e-02 -2.1605417186704596e-04  -3.6185946235474842e-03 -7.1846214572089340e-02 1.2772149419010444e-03  -4.8528903848210417e-03 -7.1063746798913863e-02 1.0872672753751242e-03  2.7641142528290271e-03 -8.7601744437115575e-02 7.6041643803928926e-03  2.3681710601236973e-03 -8.5805800663743034e-02 7.8489140936596393e-03  2.0356984325750108e-03 -8.4273839796881508e-02 7.8009778273558693e-03  1.7625268441267522e-03 -8.2999958972415494e-02 7.5569242550517354e-03  1.5409941111421827e-03 -8.1978233658792712e-02 7.1861366050586751e-03  1.3679328982433259e-03 -8.1211268917755888e-02 6.7352251479544508e-03  1.2493748751161106e-03 -8.0722407594400900e-02 6.2350586680279063e-03  -2.1499274167192011e-03 -6.8171841030818039e-02 1.6669036068224946e-03  -3.7258275858382938e-03 -6.6523711545041719e-02 5.7444111010658012e-03  -2.9971601340286333e-03 -6.9946098410295268e-02 7.2105682173741984e-04  -2.5087681357173707e-03 -6.7892830782262506e-02 -2.2500109477133069e-04  -3.3499367832020557e-03 -6.3643416561827301e-02 4.4747073002956239e-03  -1.5371698082548325e-03 -6.5674008085600200e-02 6.2670763664523631e-04  -9.8942186913342418e-04 -6.3135099899243291e-02 -1.9041510214532983e-04  -3.0114990134762344e-03 -6.0781790762812496e-02 3.4380226022030142e-03  -2.0844052281508980e-03 -6.5740430927890947e-02 -9.7318083789334762e-04  -4.9212218494049749e-04 -6.0547747946038628e-02 -8.3067723986910617e-04  -2.7006260100942642e-03 -5.7892513323794852e-02 2.5773549090508580e-03  -1.7026506812637357e-03 -6.3514262312537734e-02 -1.5550181476114374e-03  -3.0847685153029307e-05 -5.7889537537728721e-02 -1.3216669027567198e-03  -2.4026386287496109e-03 -5.4934458128631465e-02 1.8549660196813338e-03  -1.3438405185490462e-03 -6.1223968188887180e-02 -1.9856258616269828e-03  4.0369646801312526e-04 -5.5124710177383171e-02 -1.6647849704395981e-03  -2.1076440824327543e-03 -5.1844190784451696e-02 1.2591796634364488e-03  -9.9516653721680058e-04 -5.8865170970817157e-02 -2.2470636323409982e-03  8.1037370920793736e-04 -5.2203948970033033e-02 -1.8410102811624973e-03  -1.8042033301000633e-03 -4.8540599162522020e-02 7.9893063314958386e-04  -6.4657577824008493e-04 -5.6399348627770247e-02 -2.2999212005664405e-03  4.8544758020330212e-03 -7.2516068924166260e-02 -2.5553494284076277e-03  2.7611787975121939e-03 -7.8701249592229489e-02 5.2427797838707352e-03  3.7716570244590202e-03 -7.8673885176714711e-02 5.0792952629313002e-03  2.3819642681587121e-03 -8.0463455139617529e-02 5.9826500243257436e-03  2.4861337903482406e-03 -8.0878596516277712e-02 6.4533682742103447e-03  2.7161861848085779e-03 -7.8974356529760162e-02 5.2281772211595166e-03  -2.7330333847675114e-03 -6.4247218870451345e-02 7.8195060795082285e-03  -2.1843897977778170e-03 -6.0862210682778285e-02 6.5273731469787846e-03  -1.6942434402996049e-03 -5.7573231584872646e-02 5.4776773633257378e-03  -1.2475197619694180e-03 -5.4303879235521157e-02 4.5950502930536003e-03  -8.2642555017122573e-04 -5.0972157957639111e-02 3.8258570158527468e-03  -4.2514858911202574e-04 -4.7480773049753483e-02 3.1394288705244655e-03  -3.5285864525221402e-05 -4.3711329313855761e-02 2.5311132407363820e-03  2.7714598705659847e-03 -8.0299360953019053e-02 5.1269003978870352e-03  2.7199900236345325e-03 -7.9515882498428961e-02 5.2096041377103480e-03  -3.7596169434449757e-03 -5.7717002809209064e-02 1.1747193949038018e-02  -3.4795944932253004e-03 -5.4092674788710181e-02 1.0464590382317373e-02  -3.2109801839611974e-03 -5.0553789790802793e-02 9.3383154481126978e-03  2.3504000887340578e-04 -7.9827332743774862e-02 -3.4407510701875904e-04  4.1973384817673993e-04 -7.9098572271867201e-02 5.0196750894772736e-04  5.8274583017404156e-04 -7.8224589076230963e-02 1.0474323002884764e-03  7.3431731507161350e-04 -7.7359283635078130e-02 1.4118727158032314e-03  8.9476910067139593e-04 -7.6616260579982567e-02 1.7134501501178002e-03  1.0815014546739291e-03 -7.6090319301041764e-02 2.0409356801655964e-03  1.3193325522667949e-03 -7.5863255498958421e-02 2.4805145090660272e-03  -4.0547576583998294e-03 -5.7754130902123967e-02 6.8672201165193682e-03  -4.6502195099227201e-03 -5.3216615200369459e-02 1.1595568210555679e-02  -4.2842158673406135e-03 -6.0974403252608694e-02 8.0780533663545092e-03  -3.8215323319324580e-03 -5.4558763337022836e-02 5.8278951275662358e-03  -4.4842864450208852e-03 -4.9671428394977457e-02 1.0410380546327234e-02  -4.6995521944252624e-03 -7.4792332316149165e-02 -1.1766652920084176e-03  -4.4555555117437914e-03 -7.3884497321361695e-02 -1.1646212789345365e-03  -4.2587719023164348e-03 -7.2705766602536109e-02 -1.1884629928238155e-03  -4.0815290459798566e-03 -7.1416340720194649e-02 -1.2316788713441194e-03  -3.8960823488112892e-03 -7.0147944987765304e-02 -1.2259761384907726e-03  -3.6728296893882798e-03 -6.9016145020000502e-02 -1.0883155155955021e-03  -3.3862610427704424e-03 -6.8121267827944532e-02 -7.1091176678755050e-04  2.6395169221618301e-03 -8.1559709168233172e-02 6.8794119533927686e-03  4.2758221770105914e-04 -7.1460650227565814e-02 -4.8417688898242280e-03  -6.6631140125602480e-05 -7.4209618745704420e-02 -3.3510415311603730e-03  3.0580850803061342e-04 -7.3138796912754656e-02 -3.1879625876507318e-03  9.1589342341676181e-04 -7.0091313178903755e-02 -4.8454894517312597e-03  6.6557640437759507e-04 -7.2071411973306826e-02 -2.9729187629914588e-03  1.3690721056044124e-03 -6.8687511237083443e-02 -4.7361605054586087e-03  1.0259068769253045e-03 -7.1114812443148046e-02 -2.6286947655800651e-03  1.4083851727798894e-03 -7.0385947455321785e-02 -2.0457331069557317e-03  3.4416542727528998e-03 -7.7029601179859658e-02 3.1870721402611269e-03  4.1226332391674728e-03 -7.7693388130445587e-02 4.0181061333837481e-03  3.2203028532829404e-03 -7.7171878169422906e-02 2.7863118521283710e-03  4.9258344824512921e-03 -7.5293725155648611e-02 2.2277124192683870e-04  5.2401418036763375e-03 -7.6625950173420845e-02 2.0850543389729047e-03  -5.8431500822853739e-03 -7.2667951102810505e-02 -8.7017759610140172e-04  -5.7002653881249067e-03 -7.1549612688357411e-02 -1.0778436418410931e-03  -5.6010989313203651e-03 -7.0193550632768359e-02 -1.2679882641599774e-03  -5.5183472592174408e-03 -6.8729869371782520e-02 -1.4355791451647133e-03  -5.4160681677238405e-03 -6.7270621755652890e-02 -1.5351674372870014e-03  -5.2556225950789624e-03 -6.5907688393846267e-02 -1.5058218373385191e-03  -4.9859096179604451e-03 -6.4703028886536978e-02 -1.2531773051320985e-03  2.9072290047888957e-03 -7.8223037802347323e-02 2.0532622410270895e-03  3.0470291757144921e-03 -7.7590169723720362e-02 2.4298469139370613e-03  -3.9352235052220203e-03 -6.8909607938966499e-02 2.6559625236641923e-03  -3.5927141221970614e-03 -6.6635219116600808e-02 1.5733246442100456e-03  -3.2787708734869697e-03 -6.4278743198946511e-02 6.9439003731265505e-04  -2.9823909052277818e-03 -6.1856470707422360e-02 -1.7128658616278485e-05  -2.6901283783948167e-03 -5.9364423250831320e-02 -5.7680992846886143e-04  -2.3855067496045502e-03 -5.6785963136617053e-02 -9.7559238821028863e-04  -2.0549894002629496e-03 -5.4095793487558087e-02 -1.1865312108749937e-03  -4.9866692845614118e-03 -7.2490146667378158e-02 -7.7508507842110599e-04  -4.7647635223425850e-03 -7.1246566219595853e-02 -1.1748552052496778e-03  -4.5676980098482483e-03 -6.9781584003454411e-02 -1.5122264066303218e-03  -4.3731247944780579e-03 -6.8205686715007471e-02 -1.7798653494426775e-03  -4.1561598791809359e-03 -6.6613528762777527e-02 -1.9372652522113868e-03  -3.8862329080386958e-03 -6.5088212664596926e-02 -1.9225824176722001e-03  -3.5350610855802928e-03 -6.3712531634782257e-02 -1.7080447255816446e-03  1.5778940049103606e-03 -7.9091720735768742e-02 1.9871490298681103e-03  1.6850646799602203e-03 -7.8227006387185397e-02 2.3586370286525662e-03  1.8146377708948825e-03 -7.7515259796927471e-02 2.6482772561325770e-03  1.9773063616590641e-03 -7.7026247221600980e-02 2.9347128749515269e-03  2.1876798900453253e-03 -7.6839420398313818e-02 3.2904046260098432e-03  1.3458058751919071e-03 -5.4403551025747288e-02 -4.0138645382370295e-04  1.8881089610568620e-03 -5.1261066357274086e-02 -7.8550110849330741e-04  2.4073480664942568e-03 -4.7904870255836694e-02 -1.0541540652958966e-03  -7.0790022223556244e-04 -7.3726187141868377e-02 -4.5970070437704041e-03  -1.4023554298081163e-03 -7.1018634606689612e-02 -2.4226359382624315e-03  -2.3409171254254097e-03 -7.2590082222460620e-02 -2.3284787343017233e-03  -1.8250188602946303e-03 -7.1209699009827682e-02 -2.8177553381032476e-03  -7.5326792613685911e-04 -6.9286861663932928e-02 -3.0941240486587508e-03  -1.0370999557721327e-04 -7.2707507752033954e-02 -4.7494858302712410e-03  -1.7390264906318902e-04 -6.7403198795783853e-02 -3.5891403192608523e-03  -1.3730667421265916e-03 -6.9629903540005617e-02 -3.1952511557184057e-03  3.5144968786893937e-04 -6.5424238933176698e-02 -3.9348410882327940e-03  -9.7022619202283072e-04 -6.7931983886740779e-02 -3.4635770615508870e-03  -5.9322113662135096e-04 -6.6180504067735318e-02 -3.5992776405963599e-03  8.3650012047849589e-04 -6.3383789142098357e-02 -4.1313896446366983e-03  -2.2194791061728856e-04 -6.4427262533429175e-02 -3.5586736577848054e-03  1.2952941108338024e-03 -6.1301224276793805e-02 -4.1535965001419503e-03  1.6346295965453286e-04 -6.2731620540718652e-02 -3.2524893911597395e-03  1.7363315774664933e-03 -5.9184302829350680e-02 -3.9510853775789221e-03  -3.0553274325411913e-03 -7.3608111091037112e-02 -2.1056038007939556e-03  -1.9059071032863481e-03 -7.4264778020112082e-02 -3.2896695349596220e-03  -1.4073854141977522e-03 -7.3295505480066331e-02 -3.4287169587643991e-03  -2.6432165068885753e-03 -7.2484903142408130e-02 -2.4108558743945905e-03  -9.7706404814212129e-04 -7.2089438408158457e-02 -3.5369480787362717e-03  -2.2946236076109680e-03 -7.1119650028620598e-02 -2.6637925732808788e-03  -5.8741046737588974e-04 -7.0755886690134009e-02 -3.5883049350421822e-03  -1.9826471115686117e-03 -6.9627134549566871e-02 -2.8424498264521883e-03  -2.1904868752193791e-04 -6.9398559153133574e-02 -3.5360083075272660e-03  -1.6828280542816939e-03 -6.8101617961598845e-02 -2.9065150470746542e-03  1.4864607385347666e-04 -6.8107350180820536e-02 -3.3164091665208173e-03  -1.3714222594338331e-03 -6.6627520116365940e-02 -2.7913258655253817e-03  5.3209833512081440e-04 -6.6971698711037100e-02 -2.8470731422680692e-03  -1.0185097012958824e-03 -6.5311645120976952e-02 -2.4275077596266252e-03  2.2637866070931234e-03 -6.0451688669452747e-02 -4.3522069861293682e-03  2.8322876073272351e-03 -5.8020159113668555e-02 -4.4291491959959350e-03  3.3592520215125366e-03 -5.5476161816742295e-02 -4.3117565189729930e-03  2.0709968747961781e-03 -9.0084139329478757e-02 9.7617680294852030e-03  1.6155692241869881e-03 -8.8043075524114472e-02 9.6054509375400870e-03  1.2120766809931018e-03 -8.6362173527833194e-02 9.1965475875254790e-03  8.6211059006606114e-04 -8.4959304723989215e-02 8.6194904830573932e-03  5.5417609704271845e-04 -8.3817643429624347e-02 7.9210186510549202e-03  2.8256375497921012e-04 -8.2934828150028339e-02 7.1312433096219381e-03  -3.5417344614831077e-03 -7.1336851427317369e-02 -1.9699314003406682e-04  -3.1435067094170272e-03 -6.9668263772068903e-02 -9.6697470555839903e-04  -2.7907353701301803e-03 -6.7834504683787600e-02 -1.5839296728165637e-03  -2.4662549461832764e-03 -6.5897100987174217e-02 -2.0643873989085815e-03  -2.1509547718105240e-03 -6.3902074975006926e-02 -2.4011275846536288e-03  -1.8255634559820396e-03 -6.1882385422216434e-02 -2.5610467649053040e-03  -1.4635538967512651e-03 -5.9848970950154366e-02 -2.4717351600657645e-03  1.8048583024103421e-03 -8.5585420813640997e-02 8.4084195192371466e-03  1.4563592255670134e-03 -8.4686377073495495e-02 7.3541654000562192e-03  1.1493778143779850e-03 -8.4041346239587603e-02 6.2457281923437875e-03  -8.3993118978805889e-04 -8.9879661630235405e-02 9.4020950277305271e-03  4.6725534022682238e-04 -9.2439319391982175e-02 1.1156536654745204e-02  -3.4820841181549346e-04 -8.7454647626472051e-02 7.5323272698954212e-03  -5.3319604321046287e-04 -8.5541750754885945e-02 7.6731588028959062e-03  7.6140569501408488e-05 -9.0154636140060099e-02 1.0631010613568331e-02  -1.0860568209790954e-03 -8.7694038765143853e-02 9.1297573832088471e-03  -7.3102263982220293e-04 -8.3932991218910152e-02 7.5858015460658988e-03  -3.0298303728398313e-04 -8.8202531884540122e-02 9.8728321485411132e-03  -1.3514473873609467e-03 -8.5881668971497946e-02 8.6281485041937254e-03  -9.2287003922210127e-04 -8.2583366104724582e-02 7.2885190994924492e-03  -6.5940299195172336e-04 -8.6572366686931024e-02 8.9733356108156904e-03  -1.6110167822156705e-03 -8.4375031780506260e-02 7.9474402201204671e-03  -1.1054056630929222e-03 -8.1479334396543854e-02 6.8472318427850567e-03  -9.9501382524230624e-04 -8.5230281739813799e-02 7.9648249222971021e-03  -1.8639087933986966e-03 -8.3143956296917204e-02 7.1352630676736022e-03  -1.2803886136034239e-03 -8.0624466063076064e-02 6.3072265871813669e-03  -1.3171632113304554e-03 -8.4155707012936939e-02 6.8667893137768030e-03  -2.1184534903345284e-03 -8.2172521958512240e-02 6.2218705690646157e-03  -1.4625435069795982e-03 -8.0031914618631766e-02 5.6879379501324238e-03  -1.6443255722546487e-03 -8.3347866303031024e-02 5.6909533210859221e-03  -2.4009765534763294e-03 -8.1436414285223926e-02 5.2198718444755121e-03  -9.5059555432587984e-04 -7.5814151532430860e-02 -3.7507092524323004e-03  -4.7689091517320523e-04 -7.5157684145929840e-02 -3.5199592346731455e-03  -4.8810131438288742e-03 -7.9292601807642998e-02 1.4439489136621687e-03  -4.7376405725559926e-03 -7.8152604269965564e-02 2.0504947231966292e-03  -4.6723514317663943e-03 -7.6901315958623359e-02 2.2828695037398240e-03  -4.6512792170948945e-03 -7.5685533714751951e-02 2.3170672213141123e-03  -4.6345104258537695e-03 -7.4618290489494740e-02 2.2799388330945096e-03  -4.5956190984503178e-03 -7.3794306750579269e-02 2.2668698864160620e-03  -4.5089374729193913e-03 -7.3327202038666869e-02 2.3638397354448976e-03  -3.1474890023961187e-03 -7.9059222657279368e-02 5.9935797717312422e-04  -2.4431043027094931e-03 -7.7941477059303155e-02 -8.4185189000822122e-04  -3.6631315108282131e-03 -7.6630091376273704e-02 -9.9435674009207492e-04  -3.3816361438751201e-03 -7.5856833114257338e-02 -6.5452594105432701e-04  -2.1569711309373653e-03 -7.7228904599047202e-02 -2.9266685763249960e-04  -2.9257600487048009e-03 -7.8188318741141793e-02 1.2792026596135104e-03  -3.1689898214815847e-03 -7.4793472751449583e-02 -5.0814832950866844e-04  -1.9322527284921271e-03 -7.6278532354956616e-02 2.3770588430123367e-05  -2.7807714403001835e-03 -7.7109569901944550e-02 1.6008856107948598e-03  -2.9858480644961512e-03 -7.3629619072989885e-02 -4.3489628233235703e-04 