<?xml version="1.0"?>
<VTKFile type="UnstructuredGrid"  version="0.1"  >
<UnstructuredGrid>
<Piece  NumberOfPoints="738" NumberOfCells="3087">
<Points>
<DataArray  type="Float64"  NumberOfComponents="3"  format="ascii">6.295917202692371 3.245075399111341 4.080354225475965  6.405817977821505 3.18736647556823 4.143558021735036  6.419617239215071 3.297253761916869 4.064938660382502  6.405809185813004 3.345403822625002 4.125821365540584  6.394698659229316 3.231275804179999 4.210275096036864  6.28374918258186 3.293445442216659 4.141858601372567  6.392138991369293 3.393474622013472 4.186658778910383  6.383676800464774 3.275101300998423 4.276914758215902  6.271671033661703 3.341690883525617 4.203360914028063  6.259660847282538 3.389865977874946 4.264851461958171  6.372716323003821 3.318858940762757 4.343497715672147  6.378552460465253 3.441468416981439 4.247451182638961  6.24769612769501 3.437997204352941 4.326320335086385  6.361788693089028 3.362546673934545 4.410047727421651  6.365004529759749 3.489401751383726 4.308214180729814  6.351447243964118 3.537269749213937 4.368970931041748  6.350865331109472 3.406156344882827 4.476579846795633  6.235732601403165 3.486084939663082 4.387779396332474  6.339913447568934 3.449681209108572 4.543141306270696  6.223737640074126 3.534152135148025 4.449228595108988  6.337819080634379 3.585059201665868 4.429732127645279  6.463650721461493 3.596470291605579 3.815613815099348  6.514693652701041 3.684607855587582 3.757997395579885  6.412589110386342 3.687830111799737 3.694709784888746  6.384195164126212 3.735559838424223 3.74174519373683  6.487821410903786 3.731465853434069 3.809339739438575  6.439561081444277 3.644455880912332 3.867387979129496  6.415770651763115 3.692470455571341 3.919177265305211  6.461297890976367 3.778380342688427 3.860666796580569  6.356161714658309 3.783369717657451 3.788845542183626  6.39212114824125 3.740454371605659 3.970964829558521  6.434927269426897 3.825278913592571 3.911978230444661  6.328286211916702 3.831194552911334 3.835979600730119  6.368492144241999 3.788391500765839 4.022742098100755  6.408572554260557 3.872123119234173 3.963269010409621  6.300418158706827 3.878996867194937 3.883131903845408  6.344762283102531 3.836259849953751 4.07449772496233  6.382115434285004 3.918874943031298 4.014510098339257  6.272404573011869 3.926747952435702 3.930271804744632  6.320795664815916 3.884006767424091 4.126216691744807  6.355415118810237 3.965450650812361 4.065665078334353  6.244042745678076 3.97437786696588 3.977362752051372  6.341426721009768 3.56899401801585 3.778843029556944  6.317520762134079 3.618956153816961 3.826787240957032  6.293896441686621 3.668924816681831 3.874826314186038  6.270416869278469 3.718877888988204 3.922909580963723  6.2469733826775 3.768828969175752 3.971012227655307  6.223432167198774 3.818799137081181 4.019120782896769  6.199538343552494 3.868780152301651 4.067229676585769  7.241015102650753 3.630563557155715 3.9686634451317  7.154103715495178 3.682094213486081 3.934586398363172  7.180707848430292 3.561229139229259 4.008533997785312  7.178116652159907 3.602291121635381 4.080467238012094  7.149425084700019 3.725481284749084 4.004561471359173  7.241266909988407 3.67288040033066 4.040321632302404  7.241520708790393 3.715144675823743 4.111715260704267  7.144800118737075 3.768798997972659 4.074274341374021  7.175557506954095 3.643328474381529 4.152140549667352  7.241751708589262 3.757330189008667 4.182890524097335  7.140192854181713 3.81201742064311 4.143777791538951  7.172995339249632 3.684304060963987 4.223623806219783  7.241924675538042 3.799449800693462 4.253921018029109  7.135559337780903 3.855143241029925 4.21311870229512  7.170411447421924 3.725206784395156 4.294966073731555  7.16781227566173 3.766023601253286 4.3662063933357  7.130900704287755 3.898188513681663 4.282333952759132  7.242080583292169 3.841461945106333 4.324821324554147  7.165215887602787 3.806650041539065 4.437395143817273  7.126233179707235 3.941073782570524 4.351451590912487  7.24224825623743 3.883293759560249 4.395618599574318  6.434544058385816 3.393733158370333 3.98996855186743  6.462617565992262 3.480251320225566 3.918268871835763  6.349676734903204 3.466827229027058 3.885540406975466  6.330178254033447 3.518428118543942 3.936354924479181  6.442189772941521 3.529017555537673 3.97285107698832  6.417942884403336 3.443728760452442 4.046521150839475  6.310893135909526 3.569972230810783 3.987235045504442  6.422015938835965 3.577748005814942 4.027410341729159  6.401521878382233 3.493668343395965 4.103057303496839  6.291722261216885 3.621462200632529 4.038139891236418  6.401967210359246 3.626429532361361 4.081949009382984  6.38519817451822 3.543545511778607 4.159565945473808  6.272592951476651 3.672928989778399 4.089043671431184  6.381957343148993 3.675058688722974 4.136466041295535  6.368909241284979 3.593364972623315 4.216051709849713  6.253412575380477 3.724378780521115 4.139942148290173  6.36189771444983 3.723621630316889 4.190960690962587  6.352585688508658 3.643117102055236 4.272527060347807  6.23407014727069 3.77581245345546 4.190842758838409  6.341650927108677 3.772070128054211 4.245431037789309  6.336152675098219 3.692800355532536 4.329015679571572  6.300082230746368 3.366923469186728 3.973644843077304  6.284994847798673 3.419161989412504 4.027901196048062  6.270053794315586 3.471294660060435 4.082208618489411  6.255198888052231 3.523364910503342 4.136530015799518  6.240383313139779 3.57541128866273 4.190847013185208  6.225540016639509 3.627447971178571 4.24516134981162  6.210618301665059 3.679497722640626 4.299477584029699  6.317628412536499 3.118399371689295 4.173093207679869  6.307690932586271 3.159980122447353 4.242322252962291  6.29781139609841 3.201449543085846 4.311481736250828  6.287979268715788 3.24284663597257 4.380588098312922  6.278180151926724 3.284186565927563 4.449659809154163  6.268395574142829 3.325467436089535 4.518713220382522  6.258613334383404 3.366680657234195 4.587767526533739  7.041044006488645 3.629187858254661 3.955255038508572  7.033123072454226 3.671386930859031 4.02432894380779  7.025266540089595 3.713530386693476 4.093134423666667  7.01744735869122 3.75559899012993 4.16175519686935  7.009657802306965 3.797561814695877 4.230240877104999  7.001866250870495 3.839444108781204 4.298599291660213  6.994041904137061 3.881154703020665 4.366847238870639  7.065050594666613 3.513210044831457 4.028160521004984  7.058870639843603 3.553158272124873 4.099352505862648  7.052748896222711 3.593104927692582 4.170324913850387  7.046656632292635 3.63299900518046 4.241118228348213  7.040577358186002 3.672809799594592 4.311787568545642  7.034511813700979 3.712529842161285 4.382365458915888  7.028410071788737 3.752071809061547 4.452902794331665  6.958540785615074 3.551940957398743 3.991647944142639  6.94839993462092 3.593500860320472 4.060042895380481  6.938343715864359 3.635044598605485 4.128220710451163  6.928335595980025 3.676527668264545 4.196225186801778  6.918365262629809 3.7179322582624 4.264105900030144  6.908417892491013 3.759242035547046 4.331892507220358  6.898424196722986 3.800369064397523 4.399622539244785  6.405757786025227 3.529775981859191 3.850288791723207  6.382365517039835 3.578405507849002 3.901870936238352  6.359263681684164 3.62702197216203 3.953497088991631  6.336296754135107 3.675597487880276 4.005139538262781  6.313369514363189 3.724140923072457 4.056780605835915  6.290370370743386 3.772653541560555 4.108412761232541  6.26712020544099 3.821102266640476 4.160040476385259  6.554726901933983 3.566448703191423 3.877567207969727  6.571956937214316 3.496237271486922 3.945126053015287  6.552719760836015 3.543770143821468 4.002715611586033  6.533720698946699 3.613607628869071 3.93336041290616  6.533720640451266 3.591292415066041 4.060216813564906  6.51296901852598 3.66077780280613 3.989091280097877  6.514836739402811 3.638766401669312 4.117646382156114  6.492356260662495 3.707900006844493 4.044766847056182  6.495991847337593 3.686178859558153 4.175020019799189  6.471781691345442 3.754958550769226 4.100396482536626  6.477110972148011 3.733493300299251 4.23234766962478  6.451158468730973 3.801927234471308 4.155976100482961  6.458094304282146 3.780627574913866 4.289664509823419  6.430385287430568 3.848731586220726 4.21152259137914  7.696637833463237 3.58797579244999 3.928827920415707  7.600270052275697 3.656449709165809 3.912206073106202  7.5955181378793 3.519693364885948 3.991503952125342  7.609801583245891 3.558408344535963 4.063241010711498  7.617670899451728 3.702731448321519 3.978279596747921  7.651827086105054 3.795207969643366 4.109908700464954  7.75216503322589 3.717873412645493 4.12528528721116  7.637898828103211 3.635884466910948 4.206120218788363  7.733834233940748 3.674616759729985 4.059919532550715  7.634821283754537 3.749000256460604 4.044160828373501  7.65183215422291 3.674516720745163 4.277377795915704  7.66877906673024 3.841315314925549 4.175552540233934  7.770461978232357 3.761048234921056 4.190566079412835  7.665769795886464 3.713013583158848 4.348549042032994  7.685746252556046 3.887275788283878 4.241105613850403  7.788804900690673 3.804098600603735 4.255750718928998  7.679766789647603 3.751316369826086 4.419649971059738  7.702788468015281 3.933057343684257 4.306570085439663  7.807239112727936 3.846956217341532 4.320810019059087  7.514149997505439 3.599049121657181 3.961435156667186  7.526445183976521 3.641079707947856 4.032853261494252  7.623909632085968 3.597165589887594 4.134755998232959  7.538573387581202 3.683097454646024 4.103971341937702  7.55056866606816 3.725069809670131 4.174915707657866  7.562492664851017 3.766945686151708 4.245736956131633  7.574388292386085 3.808667981176617 4.316468252378982  7.586334721987371 3.850206341899959 4.387078341852495  6.871715770134539 3.428623761303002 4.056873133553827  6.852098219529268 3.515323299029557 3.995037878346467  6.76761896112856 3.408829049139962 4.056815635832465  6.757956003306787 3.45362632726271 4.12246180302247  6.84187778836863 3.558257463754091 4.061533850
[...]
<PointData  Vectors="f_24"> 
<DataArray  type="Float64"  Name="f_24"  NumberOfComponents="3" format="ascii">-2.2740129333667509e-04 3.6650354099949822e-02 -3.8120334414162129e-03  6.0329959592598679e-04 2.6728898134285094e-02 -9.7043858633680952e-03  -1.5350388941539070e-03 3.7823416412812561e-02 -2.6380691031886398e-03  7.3114978789430270e-04 3.1165405931730530e-02 2.8326513612520691e-04  2.6883662405484663e-03 2.0096011920237473e-02 -8.1097143420243677e-03  1.9536954711405156e-03 2.9771054685106220e-02 -1.0853063022161402e-03  2.8936214660512231e-03 2.5214501936296235e-02 3.2914308669015962e-03  4.6859970124682069e-03 1.4336258242343263e-02 -6.1401823792585613e-03  4.0564882571901811e-03 2.3687864560311814e-02 1.8091221153269605e-03  6.0797857572774229e-03 1.8057619938532596e-02 5.0043547685598789e-03  6.5917441990725146e-03 9.0393561899251643e-03 -3.7447827388969921e-03  4.9704103904811663e-03 1.9671152099487572e-02 6.5221328246110096e-03  8.0331521409274017e-03 1.2640592014527746e-02 8.5740245512963536e-03  8.4214888328480817e-03 3.9556289963635733e-03 -8.8938767979565309e-04  6.9712773840513859e-03 1.4319922313957976e-02 1.0081887854938004e-02  8.8934440288769689e-03 8.9773443045827635e-03 1.4040932244282827e-02  1.0163464597541702e-02 -1.0801173984950490e-03 2.4485701947632200e-03  9.8989598255386450e-03 7.2562321763247678e-03 1.2582906562293276e-02  1.1792950112311001e-02 -6.2007862085347570e-03 6.2831722127903869e-03  1.1654861391035252e-02 1.7727440506889128e-03 1.7116825774728710e-02  1.0713078949671894e-02 3.4898317957842780e-03 1.8464420862698314e-02  -7.8343145607831666e-03 6.8702308179375990e-02 2.0189952262909087e-02  -9.0695489953799193e-03 7.4232933925662117e-02 2.5997315891650150e-02  -1.0408085199693865e-02 8.3146555674985967e-02 2.9090507541297432e-02  -7.7490293546066905e-03 7.8462738135023968e-02 3.3798908243611397e-02  -6.4291164103488655e-03 6.9106107519095183e-02 3.0295186206681965e-02  -5.2415882090005583e-03 6.3183135251589834e-02 2.4586495603349069e-02  -2.7709698898563924e-03 5.7845967905881458e-02 2.8833360538536430e-02  -3.9358059413223817e-03 6.4046266365528015e-02 3.4473808199852921e-02  -5.1967043618132442e-03 7.3790200439273188e-02 3.8351920014627935e-02  -3.8145963297493463e-04 5.2616264268972202e-02 3.3062705453912246e-02  -1.5320816666313318e-03 5.9037713498327989e-02 3.8639718863944551e-02  -2.7160690068466463e-03 6.9129187927080032e-02 4.2851786100843690e-02  1.9678886031436757e-03 4.7427937076978323e-02 3.7359626898494452e-02  8.3588895746273802e-04 5.4049942185571152e-02 4.2846693242352116e-02  -2.5272118969402668e-04 6.4455094091442414e-02 4.7368117145597438e-02  4.3221741234079174e-03 4.2187201885355817e-02 4.1774581033689730e-02  3.2304638423046044e-03 4.9046116807906638e-02 4.7116734623509758e-02  2.2566431251735400e-03 5.9737512450642814e-02 5.1930789422180233e-02  6.7433792043134532e-03 3.6768363210325200e-02 4.6336676732388039e-02  5.7417056978389704e-03 4.3979376625275346e-02 5.1414038230556562e-02  4.9066019733386033e-03 5.4935593620856774e-02 5.6509191768621868e-02  -8.3939012542739513e-03 7.5110837949559278e-02 2.1154522801533394e-02  -5.8380884136524690e-03 6.9764402356238750e-02 2.6045644017813171e-02  -3.3505916868932857e-03 6.4582181019461560e-02 3.0757359340346565e-02  -9.1298901932767185e-04 5.9507197171498959e-02 3.5420534527805338e-02  1.4964514817837947e-03 5.4457690765264938e-02 4.0138931412485764e-02  3.9023743993124764e-03 4.9321608424541440e-02 4.4993598354823347e-02  6.3317798226831873e-03 4.3952893331135029e-02 5.0019313370500265e-02  -6.3912643699094180e-03 4.0276431001447476e-02 4.1824783919135727e-03  -6.5528089214946308e-03 4.5550288177880434e-02 1.0032568571501492e-02  -5.7529732285866875e-03 3.5677866087192048e-02 3.3698300116876220e-04  -3.7212958968236482e-03 2.8700814920200532e-02 1.9338864471812292e-03  -4.5630467920577435e-03 3.8472720178071101e-02 1.2229692724222948e-02  -4.5227742435906470e-03 3.3047568446076675e-02 5.9829330952557731e-03  -2.8460622843643896e-03 2.6209341963345591e-02 8.1185503935980365e-03  -2.7827670525338837e-03 3.1700282558738059e-02 1.4697188222940295e-02  -1.8945262833440747e-03 2.2177080925405528e-02 3.8479444257962419e-03  -1.2420746032292727e-03 1.9656704524138577e-02 1.0610560600547721e-02  -1.0978250812877716e-03 2.5175048896309629e-02 1.7455608164419691e-02  -1.5938660402494057e-04 1.5936518810076288e-02 6.1243649766222902e-03  3.7185468181141529e-04 1.3282126735168404e-02 1.3442734500639450e-02  5.7329006872244414e-04 1.8818046673136871e-02 2.0497570555343011e-02  1.5717077122088241e-03 9.8551004928213431e-03 8.7622776934997079e-03  3.3503345884545541e-03 3.8229787519449073e-03 1.1741698125655646e-02  2.2776395295732821e-03 1.2541505512663564e-02 2.3802106453037278e-02  2.0457400498849151e-03 6.9826444704680175e-03 1.6588597627120626e-02  5.2280393778266418e-03 -2.2685160447375777e-03 1.5031090455114820e-02  4.0575294834069861e-03 6.2752760355516118e-03 2.7334607428527370e-02  3.8273502678542277e-03 6.6498475187123560e-04 2.0013788055408915e-02  -3.5334481217251601e-03 4.7743119191371503e-02 4.2742074547697968e-03  -5.4805624783857186e-03 5.6450697827770360e-02 1.0606292850781874e-02  -5.7868415762431062e-03 6.2133867222594674e-02 1.2199723876778435e-02  -3.3408714796556169e-03 5.6155289343519467e-02 1.6863178999547167e-02  -2.9999054997315853e-03 5.0371459830831293e-02 1.4706375302987608e-02  -1.1499082699819203e-03 4.1353703792516593e-02 8.0343441412130782e-03  -9.6162877660306166e-04 5.0562225271801889e-02 2.1329072361259159e-02  -6.2846866573507468e-04 4.4656911518711026e-02 1.8665970395295408e-02  1.1220412213204510e-03 3.5519339698510462e-02 1.1735452981410661e-02  1.3531248774562336e-03 4.5202795900520773e-02 2.5777853733587340e-02  1.6613039821523731e-03 3.9185472516544625e-02 2.2657639795730287e-02  3.3167622686239274e-03 3.0004905373646803e-02 1.5540053706106782e-02  3.6224663778335079e-03 3.9943204747499399e-02 3.0349383357326790e-02  3.8932785418903763e-03 3.3817393224252180e-02 2.6794099439673969e-02  5.4452216586453857e-03 2.4628066536755863e-02 1.9566199213737544e-02  5.8561703872950120e-03 3.4625463991041147e-02 3.5149192872354428e-02  6.0858184791355609e-03 2.8400961327156918e-02 3.1159257182356580e-02  7.5117073045854162e-03 1.9211607060324504e-02 2.3907050189363968e-02  8.0595985793171128e-03 2.9041827896625978e-02 4.0281453797183460e-02  8.2444436303887279e-03 2.2751452285567457e-02 3.5806114181161960e-02  9.5079815140310126e-03 1.3581733038037910e-02 2.8668970784363243e-02  -3.0693800453808220e-03 5.1378075771053508e-02 5.1599399112603472e-03  -7.5801734910926715e-04 4.4850315863009776e-02 9.3181931275987673e-03  1.4914523487017288e-03 3.8924263501170980e-02 1.3386680157939443e-02  3.6841235548131491e-03 3.3344732044340283e-02 1.7537413402954859e-02  5.8219593108030836e-03 2.7909932415215385e-02 2.1909111997258559e-02  7.8928484948006406e-03 2.2435890420703427e-02 2.6618302507614197e-02  9.8587348192472370e-03 1.6757756794460746e-02 3.1793697932813295e-02  1.9746571731223796e-03 2.2600048512649840e-02 -1.2161113451876364e-02  3.9685636322887930e-03 1.6091084391042822e-02 -1.1289867154700891e-02  5.8682443958388182e-03 1.0489326377885941e-02 -9.8408964272300725e-03  7.6815203587362654e-03 5.3666265397080788e-03 -7.8314761987577485e-03  9.4083262882501996e-03 4.6312460801490690e-04 -5.2839191232432990e-03  1.1044493917400531e-02 -4.3870131169392902e-03 -2.2146417073785085e-03  1.2575935955936379e-02 -9.2796339297028657e-03 1.3894394032612583e-03  -6.1183614056672239e-03 4.4089851548654496e-02 8.5854001121339184e-03  -3.9210448107592421e-03 3.7268127437915154e-02 1.0784071901965935e-02  -1.9373992351503369e-03 3.0753486473521604e-02 1.3157161855128845e-02  -7.6439892949108513e-05 2.4474342475691999e-02 1.5781856943608917e-02  1.7437264950625508e-03 1.8347739352059432e-02 1.8672084501476293e-02  3.5842341183320698e-03 1.2290756823445700e-02 2.1828418191809175e-02  5.4933320449497567e-03 6.2206173274257258e-03 2.5220768536323882e-02  -5.0899629704335685e-03 3.4447677385188322e-02 -5.5464183010095567e-04  -2.9261948190762157e-03 2.7700375084002634e-02 1.0198123734986471e-03  -9.6273075781159079e-04 2.1391406503556632e-02 2.8787472404596033e-03  8.9645106776720996e-04 1.5369293887410233e-02 5.0557238594961945e-03  2.7293044460852127e-03 9.5054810480413171e-03 7.5722134453563295e-03  4.5875377214569420e-03 3.6815503736666354e-03 1.0433475412425118e-02  6.5090114897674153e-03 -2.2181282077089592e-03 1.3628971737330501e-02  -5.3928606810630646e-03 4.0501429475096613e-02 4.6734869034319006e-03  -3.1160084351147454e-03 3.3857558087447101e-02 6.8230879158866177e-03  -1.0423699831359600e-03 2.7570183604005392e-02 9.1069885632122788e-03  9.1888418616024924e-04 2.1538459824790395e-02 1.1630802162927053e-02  2.8333394725399961e-03 1.5659004477277524e-02 1.4430286440789751e-02  4.7574392304179508e-03 9.8259058673977294e-03 1.7517996461903131e-02  6.7388843689554379e-03 3.9294126034400152e-03 2.0878380870797485e-02  -6.8744501876399590e-03 6.5561646862903875e-02 1.6140979286715124e-02  -4.3373378134967935e-03 5.9810656733553381e-02 2.0609676465740776e-02  -1.8950946119153801e-03 5.4299318138375297e-02 2.4943120646790939e-02  4.8039772855920887e-04 4.8956392218290797e-02 2.9257082419722229e-02  2.8126635666170341e-03 4.3674137266475913e-02 3.3665984947547502e-02  5.1226260841996723e-03 3.8323646216011642e-02 3.8257373701570487e-02  7.4221337515267792e-03 3.2742907573721405e-02 4.3081294071913571e-02  -6.7358214446263404e-03 5.9995399128206096e-02 1.5375214333589257e-02  -5.2653665624268747e-03 5.1645657229052587e-02 9.2776072762745469e-03  -2.7804505880499363e-03 4.5493825780555767e-02 1.2927180796712298e-02  -4.1823548386147064e-03 5.4082703388139627e-02 1.9301937680912623e-02  -4.4467030978431830e-04 3.9730413062689068e-02 1.6522519615452595e-02  -1.7693565077597942e-03 4.8429014245183769e-02 2.3120407945217372e-02  1.7901346030993249e-03 3.4211609472580326e-02 2.0188012665884585e-02  5.3689111763343214e-04 4.2951448419223430e-02 2.6957000020654615e-02  3.9623168438398058e-03 2.8801912705341302e-02 2.4018737392457804e-02  2.7838861188193989e-03 3.7558070791259640e-02 3.0899162542745450e-02  6.1042442693790295e-03 2.3358737219673343e-02 2.8076461174571687e-02  5.0194443263647586e-03 3.2143454988033331e-02 3.4999453279247937e-02  8.2412326757893440e-03 1.7719145879549071e-02 3.2398433910550868e-02  7.3042876131580543e-03 2.6564593913152714e-02 3.9277230351020459e-02  -8.8335774632872684e-03 4.0889327270685873e-02 -8.5030898920897078e-03  -8.2947992208613017e-03 4.4653399640238685e-02 -1.2464596478078183e-03  -7.8221822153382737e-03 3.2308335349011549e-02 -1.1483043223846334e-02  -6.6767106804546663e-03 2.4890209842771158e-02 -1.0818077943264883e-02  -7.5442645086172969e-03 3.6862646605464747e-02 8.9166600590724848e-04  -5.9112801495374307e-03 2.2778987007961233e-02 6.6938297716127538e-03  -6.7116093664807497e-03 1.9280139773003316e-02 -2.0049238782589626e-03  -4.4101457955190793e-03 1.1556361086002246e-02 -7.6655062086256991e-03  -7.5245816462115554e-03 2.6000824783872452e-02 -4.7041470735675363e-03  -6.7806013849377620e-03 2.9629984816319437e-02 3.5730878598387774e-03  -3.0532464759520958e-03 5.3126455188213257e-03 -5.3137278547717159e-03  -4.8684642058797831e-03 1.6156139460541560e-02 1.0184685307410592e-02  -5.6894108378973372e-03 1.2807924812032885e-02 1.1219747804631069e-03  -1.4469758177326313e-03 -8.4699261078162750e-04 -2.5588766000609049e-03  -3.6016470245968722e-03 9.6308731903216229e-03 1.3978633621048122e-02  -4.3923870296802316e-03 6.4392430796287063e-03 4.6056052356841272e-03  4.6550830047834387e-04 -7.0473593230651515e-03 5.2160819601598644e-04  -2.0881369060724597e-03 3.0975881462346091e-03 1.7991765224318390e-02  -2.7835574041949066e-03 4.8908000491223226e-05 8.3614508124678077e-03  -7.5477987802719726e-03 3.8146053698179659e-02 -3.9185412212691005e-03  -6.3287332343114752e-03 3.0481974197492222e-02 -2.5625332130564302e-03  -5.5864768183223239e-03 1.8027256753058753e-02 -9.5299765676140433e-03  -5.1814574359236630e-03 2.3325525976676979e-02 -6.6018816006170188e-04  -3.9815217985525861e-03 1.6546941227904725e-02 1.7329600264451481e-03  -2.6427184225471432e-03 9.9952435909623025e-03 4.5416578798519623e-03  -1.1133235697733965e-03 3.5363235034279101e-03 7.6974987732588568e-03  6.3546244819315939e-04 -2.9392327754776057e-03 1.1154651377279669e-02  -3.9102220934810333e-03 3.3407877669417677e-02 -2.4533415577273031e-03  -5.0925723144988272e-03 4.1491491402778455e-02 4.3678494260406290e-03  -3.4992597901885658e-03 3.4956576767989231e-02 -1.7373218563612746e-03  -1.2371340614176431e-03 2.8431080305908674e-02 5.6138774306382976e-04  -2.7554690496057097e-03 3.4892782157014815e-02 6.7520140682440308e-03  -1.7066304997731851e-03 2.6871141125583770e-02 -4.9590979182994981e-04  8.6808934161225547e-04 2.2529252859140519e-02 2.9826904459724578e-03  -6.0038959738739151e-04 2.8696299893913629e-02 9.2029264554498932e-03  3.4452052435985590e-04 2.0903199345125714e-02 1.6320614096336562e-03  2.8795417948261170e-03 1.6970562805949146e-02 5.6556122807631774e-03  1.4324295934959482e-03 2.2785636513329873e-02 1.1850022458676524e-02  2.3003300442157601e-03 1.5263023463593787e-02 4.0409304138991475e-03  4.8376416929787830e-03 1.1566210270579198e-02 8.6394825995407248e-03  3.4054277648797207e-03 1.7032167359858331e-02 1.4752195866540739e-02  4.2111964949962414e-03 9.7786423220136542e-03 6.7802280844393627e-03  6.7790120312795779e-03 6.1550954861790737e-03 1.1963400218058284e-02  5.3734983503799152e-03 1.1314055655538701e-02 1.7936292692844781e-02  6.1248617865881727e-03 4.3001011338583547e-03 9.8727800104906078e-03  8.7363607854595189e-03 5.8040316831378311e-04 1.5640768117928635e-02  7.3956224248492193e-03 5.5027226036869232e-03 2.1402377805302415e-02  8.0860491305172685e-03 -1.3151085875233754e-03 1.3337373034542766e-02  -4.7091123570004688e-03 4.3337172963616583e-02 5.1649259104693396e-03  -3.2050618481333924e-03 3.7203999031153887e-02 -1.1955939849409075e-03  -8.4334270154395614e-04 3.0703147206489156e-02 1.5076574430181978e-03  -2.2978448384677465e-03 3.6883070543691665e-02 7.9779221642531269e-03  1.3311185577885574e-03 2.4855256399284296e-02 4.2651548167940215e-03  -6.5213151315664711e-05 3.0855081348739811e-02 1.0835580898383535e-02  3.4065756789896746e-03 1.9374901017662503e-02 7.2443855110964272e-03  2.0515276629024712e-03 2.5107661765761333e-02 1.3842626458807059e-02  5.4200829898625501e-03 1.4053252869926983e-02 1.0519027583451581e-02  4.1060287670589574e-03 1.9501078245836849e-02 1.7077126093789353e-02  7.3920353302956050e-03 8.7176536258472322e-03 1.4132666579860851e-02  6.1467659165862810e-03 1.3897116281073535e-02 2.0579330394043745e-02  9.3199901567530274e-03 3.2048723890480656e-03 1.8112359658573721e-02  8.2214671303382589e-03 8.1571646635909493e-03 2.4355614070623526e-02  -5.1919291872566699e-03 2.1709568205797034e-02 -1.4101908423861671e-02  -5.3782465941795143e-03 2.8396390194538837e-02 -7.0893794459033037e-03  -4.2948923202755515e-03 1.8768034980176516e-02 -1.5610353586653067e-02  -2.4471854354139681e-03 1.2567364692393687e-02 -1.5830608753523250e-02  -3.4796330443992796e-03 2.1506243594049339e-02 -6.2694541958407913e-03  -3.4389469879395093e-03 1.5170828752222502e-02 -1.4113906258043691e-02  -7.3658381396258371e-04 6.9022422564767585e-03 -1.5450608928626527e-02  -1.7461312320688636e-03 1.5145876484725710e-02 -4.9827175884371942e-03  -1.8002711566610997e-03 9.1872636682158847e-03 -1.3490772316686500e-02  9.5911656975344135e-04 1.5670030316715761e-03 -1.4499303130469361e-02  -6.3032042781192165e-05 9.1039353460380581e-03 -3.2392261270874508e-03  -1.6567442829788570e-04 3.5269158701377794e-03 -1.2297282464039768e-02  2.7042500271094992e-03 -3.6090870285570829e-03 -1.3020758562405494e-02  1.6502403271428710e-03 3.2250039279577199e-03 -1.0563740810101321e-03  1.5420285297010671e-03 -1.9799182120459956e-03 -1.0586008819593647e-02  4.5312052363631217e-03 -8.7651228694920705e-03 -1.1059115924826309e-02  3.4449800063990062e-03 -2.6206049184024569e-03 1.5305910185908359e-03  3.3680550678700759e-03 -7.4683916878080557e-03 -8.4158325714736460e-03  6.4391061120067199e-03 -1.4027008436979809e-02 -8.6579777729155222e-03  5.3572075108065135e-03 -8.5476261576079848e-03 4.4732885647617397e-03  5.3360205714728598e-03 -1.3047628194121695e-02 -5.8539084903538249e-03  -6.5854550274169702e-03 5.1130971584349851e-02 1.5518229039140368e-02  -6.0559992521601463e-03 4.7694856417377723e-02 1.1171710138081480e-02  -3.6745395550950915e-03 4.1154448483064529e-02 1.3714667530841882e-02  -4.3159032662554303e-03 4.4571074569835611e-02 1.8196613796171400e-02  -1.5071124458421678e-03 3.4859763247841478e-02 1.6379775210696078e-02  -2.2638574014370010e-03 3.8231560100300807e-02 2.1043349639116606e-02  5.2964809466020152e-04 2.8773233155697051e-02 1.9213165819016643e-02  -3.3633330507916985e-04 3.2069190638831353e-02 2.4074396633904999e-02  2.5110308194487524e-03 2.2818925086143006e-02 2.2252474648773279e-02  1.5439465590876666e-03 2.6033626753553325e-02 2.7305039132554519e-02  4.5013849866518008e-03 1.6918423962265339e-02 2.5513146927056661e-02  3.4433949083403845e-03 2.0071294004759835e-02 3.0733545042229790e-02  6.5629114026468744e-03 1.1008469995285097e-02 2.8986466658623651e-02  5.4142914765908266e-03 1.4136014694610021e-02 3.4349577469240493e-02  -3.7537367333047803e-03 2.0510989563206752e-02 -1.3777699741973220e-02  -4.1685274298430691e-03 2.7452309676224224e-02 -7.3032383359640015e-03  -2.6898899712047468e-03 1.7973076464808790e-02 -1.5357748625595769e-02  -8.2664236006716688e-04 1.1931616663342139e-02 -1.5231346620515751e-02  -2.0848594632417250e-03 2.0879297474211040e-02 -6.3885688538426943e-03  -1.8150004368883896e-03 1.4269542379604849e-02 -1.3558118194825020e-02  9.3316578211708281e-04 6.5772216549197463e-03 -1.4607919351897123e-02  -1.6750524041495105e-04 1.4804052507611623e-02 -5.1401080949951957e-03  -2.0863764745599688e-05 8.6382838318570711e-03 -1.2882925191884859e-02  2.6631941737509904e-03 1.5836755631679490e-03 -1.3458385051926584e-02  1.6689432023249270e-03 9.0773436727643857e-03 -3.5047099063320831e-03  1.7300036377054225e-03 3.3555873481543497e-03 -1.1695826192294072e-02  4.4049622401212607e-03 -3.2564447550072913e-03 -1.1797667220815454e-02  3.4872906386291744e-03 3.5337116811222013e-03 -1.4644956757536938e-03  3.4953728517447681e-03 -1.7633898091513854e-03 -1.0015667545497242e-02  6.1904121722108222e-03 -8.0908584879633878e-03 -9.6484349483732298e-03  5.3329061258971409e-03 -1.9690038519243063e-03 9.8435837662932068e-04  5.3100524552675025e-03 -6.8635802739480363e-03 -7.8660578366599211e-03  8.0500045848578977e-03 -1.3025562142395093e-02 -7.0217717941215311e-03  7.2371403712131058e-03 -7.5529306191781925e-03 3.8550646747278153e-03  7.1900766488940619e-03 -1.2055560755764121e-02 -5.2462865482324778e-03  -4.5526720169878337e-03 4.5655262691926470e-02 5.5088449490871758e-03  -2.1034679827396287e-03 3.9279915498055616e-02 8.6801552456155576e-03  1.8489139525107448e-04 3.3347279086125399e-02 1.1850003265497247e-02  2.3612568227091629e-03 2.7705837748144967e-02 1.5136064193840594e-02  4.4714777461137270e-03 2.2201130102936829e-02 1.8630777617287375e-02  6.5484338112825205e-03 1.6681022147400582e-02 2.2391178941189339e-02  8.6122728861819965e-03 1.0987799360386239e-02 2.6449352277840909e-02  -4.6230206809528369e-03 2.5767116979546700e-02 -8.8936299959478486e-03  -2.5854166968131680e-03 1.9181820896257515e-02 -8.2452542637760241e-03  -7.4180569290148435e-04 1.3090253912112210e-02 -7.1403658497687624e-03  1.0401843695361957e-03 7.3297510145964775e-03 -5.5910527091885464e-03  2.8319113242689154e-03 1.7389321668495701e-03 -3.6036697396861495e-03  4.6746028439766654e-03 -3.8191172345200873e-03 -1.1928685772593282e-03  6.5725640120292582e-03 -9.4801196201239370e-03 1.6247638060165764e-03  2.9553753583097544e-03 1.2350456497466942e-02 -1.8081533453722178e-02  1.8290313644482965e-03 1.8226389975151754e-02 -1.4825157846