<?xml version="1.0"?>
<VTKFile type="UnstructuredGrid"  version="0.1"  >
<UnstructuredGrid>
<Piece  NumberOfPoints="728" NumberOfCells="3065">
<Points>
<DataArray  type="Float64"  NumberOfComponents="3"  format="ascii">4.511614752919308 3.726388910841423 1.856602971798113  4.646846367286075 3.709399246495501 1.971109052436611  4.634687217032644 3.716171305790817 1.818986364271276  4.639690702735361 3.783287677434159 1.819638750439394  4.649852948594093 3.774185750001577 1.975762295486776  4.517183859073683 3.794326211527095 1.859975367044378  4.644581186768231 3.85072614322776 1.820049962287954  4.652790178870608 3.839285240905199 1.980250673008536  4.522692379566541 3.862531857484717 1.863105673439938  4.649524161080386 3.918472186536102 1.820441888988334  4.655803325440061 3.904722149926699 1.984762332742755  4.528296862026227 3.931069674165788 1.866221180820246  4.654598871765488 3.986510081846824 1.820903026752511  4.658940198166417 3.970487884988843 1.989369625531633  4.534042014330577 3.999896309839787 1.869420847051062  4.659887275180521 4.054820017276163 1.821515187203459  4.662258296636631 4.036571083744064 1.994137523285543  4.5399969251021 4.068978873287217 1.872793119389609  4.665497071361693 4.123383452130735 1.822372132090137  4.665832235221535 4.102956118375928 1.999136543874138  4.546235988758008 4.138271663995244 1.876418660998884  4.719854099546744 3.697126351293713 2.09849458791518  4.649689348900099 3.678399343705731 2.243586191941718  4.773863781987311 3.689342927998752 2.19281153169982  4.773510806712225 3.750545181535811 2.198502613381345  4.646027468856695 3.739412322503009 2.252382788192726  4.720224526628498 3.759633250592431 2.103998043311728  4.773124897784905 3.812103058446992 2.204223706002681  4.642418119247194 3.800744227032163 2.261191287162744  4.720567706374075 3.822476484853714 2.109451121023376  4.772762840855648 3.87401715022891 2.210006801916794  4.638861182213087 3.862430516255344 2.270062576778237  4.720963115948114 3.885664779573323 2.114954135883177  4.772459357344665 3.936294618721239 2.215862095548029  4.635353651440987 3.924470560354147 2.279043015205787  4.721454036772113 3.949207092287867 2.120547107749385  4.772255959982823 3.998947598142939 2.221807107705724  4.631886708740599 3.986859082087508 2.288160035965204  4.722078712378764 4.013109336743559 2.1262696065251  4.772204963804291 4.061964286518846 2.227867757185061  4.628415834061511 4.049602128611805 2.297408952512173  4.722841575247744 4.077397853357831 2.132172078005885  3.710602855333923 3.591900872320883 2.522454649014461  3.847216742783836 3.553277917526136 2.48324731517081  3.733321998334836 3.664907989624336 2.401655892815362  3.757780234843811 3.714604392595506 2.435434922933678  3.861619203402311 3.604383245620997 2.512112985363661  3.733349953375995 3.641187544805316 2.551985208261895  3.875825553650906 3.655708047689112 2.540928616043027  3.755832433565638 3.690787617122364 2.581443113389978  3.782001693718974 3.764817287112639 2.469208403969116  3.889982222225108 3.707387266866827 2.569834720247397  3.778327084317127 3.740781222731395 2.610993531240626  3.806178282513322 3.815400501050201 2.503108823817597  3.800992060617962 3.791014015086966 2.640782503180398  3.904231024422254 3.759398639693288 2.598958338267787  3.830578608775987 3.866159599841324 2.537324964388749  3.824118202888442 3.841412650856274 2.670966925969855  3.918724544591897 3.811644956321495 2.628455263196958  3.855497813797319 3.917019798287274 2.571980038481186  3.848183302881134 3.891708501330407 2.701648887792016  3.934020132049492 3.864057385208968 2.65865558979419  3.88141367283847 3.967630674415863 2.607146202813667  3.897232268390501 3.69926066703088 2.241340705762831  4.006969139521496 3.628408001933695 2.319281516115487  4.02671475096032 3.678257916265545 2.217980815697803  4.037776555931083 3.737580236879904 2.245297702382113  4.014318405254678 3.684113706373174 2.349496384701712  3.914213162068862 3.757636905325153 2.270622324728238  4.048697128422743 3.797420842207055 2.272418379915447  4.021503739452367 3.740204502465574 2.379630126830658  3.930949622169928 3.816540865048471 2.299695417834996  4.028692607421542 3.796692798393314 2.409878049689565  3.947730612096887 3.875799949150332 2.32887573227977  4.05964671593785 3.857708184583495 2.299688413581693  4.036046276783788 3.853482040932752 2.440453706299667  3.964731166201515 3.935308886408123 2.358385798845284  4.070744276358309 3.918290233098743 2.327254640797492  4.043705176747811 3.910544669864212 2.471516623162496  3.982154229364757 3.994981203933732 2.388324137848044  4.082153282367368 3.979151823053906 2.355266437525765  4.051874049995759 3.967838105006139 2.503337968848044  4.00031735081107 4.054637998205963 2.418797867641692  4.094240566345587 4.04016928464195 2.383922257625401  4.503297994201095 3.713347259022025 2.001527768065009  4.506042146257785 3.778740508703704 2.010161209864719  4.508783236331586 3.844531334342836 2.018607765554167  4.511640104625824 3.910656057648673 2.027080390752946  4.514624601215457 3.977110325837219 2.035670575308254  4.517775057514169 4.043889764037064 2.044473737596909  4.521115488582731 4.110981290495326 2.053612159706247  3.863487314698119 3.626602169004602 2.36172063727528  3.756141896580768 3.724591380880959 2.29961612933629  3.779151183127904 3.78088402492423 2.32987965172517  3.879433210037945 3.67812766040199 2.395291470779043  3.895199815003878 3.730210632575336 2.428916462958068  3.801876192162091 3.837804874164732 2.360066362520172  3.910895807029065 3.782669536016532 2.462606737351136  3.824646793474535 3.895031714120636 2.390428861873454  3.926729189436263 3.835392278480882 2.496555477772778  3.847676997348758 3.952421093464702 2.421122846894868  3.942884968137419 3.888325499223396 2.530919389316874  3.871168792496409 4.009848741292398 2.452210862860989  3.959979255962687 3.941247432627515 2.566007731447383  3.895342987972225 4.067123851915004 2.48363508417586  4.442589489577021 3.563222086527959 2.578877281972679  4.550476423421854 3.560104843372415 2.711425404835  4.574711384579811 3.59873854248626 2.576888764330063  4.561100663112023 3.655187892163018 2.589639197006305  4.533956488956824 3.615545147681486 2.724040312162248  4.42835533852787 3.618305193101238 2.594601865943793  4.547633999495182 3.711983227793697 2.602582458820781  4.517565020146847 3.67131181362031 2.736901292567921  4.414223295957695 3.673701651760485 2.610503917634748  4.53415347918946 3.769107885512504 2.61563973764188  4.501146573357272 3.727375961153092 2.749875589680058  4.400086547365356 3.729404438697709 2.626559103979015  4.520549359400844 3.82656726368344 2.628783040357507  4.484579782917698 3.783769695465376 2.762899827069003  4.385833908040053 3.785479091446275 2.642752711944812  4.506713779612773 3.884400241162472 2.641988993984482  4.467720866531772 3.840484309267489 2.775909985259319  4.371350214802348 3.841963046635859 2.659099453103321  4.492507206350242 3.94265472672092 2.655200074910142  4.450432503208765 3.897546246865037 2.788854237413612  4.356396985978995 3.898951224011205 2.675569112773381  3.991192987125459 3.560176377940777 2.445757701768457  3.994829731007357 3.613474991849022 2.474670317400053  3.998346522369232 3.667208398750097 2.503643209149398  4.001844058198793 3.72122054215648 2.532725028676489  4.005460478285976 3.775539853827638 2.562084507454837  4.009350764853443 3.830260303070226 2.591963934457637  4.013484578234857 3.885676172454066 2.622809015342451  4.032515499661257 3.750199489070811 2.024813612493419  4.147704584299852 3.756519151157611 1.915648405306001  4.027761386060519 3.782540773352445 1.879790888227526  4.039728593112522 3.855031763400065 1.887807408555983  4.157422576745126 3.826357218240573 1.927783992427194  4.04520913411296 3.817653500781204 2.042586187630265  4.05161188818591 3.927912859573696 1.895518057301826  4.167104708015963 3.896601456422579 1.939647783475289  4.057746712941446 3.885516860588972 2.060048487100678  4.063524985387202 4.001092582105374 1.903157768867726  4.176859007725591 3.967162233541333 1.951482868427916  4.070373680963222 3.953749859055244 2.077556220245948  4.075568893276938 4.07447666388137 1.910893055542759  4.186755748655914 4.037988570497451 1.963433662471284  4.083168974931267 4.022257472863584 2.095251112201525  4.08784039684008 4.148011989137915 1.918836817542593  4.196876503150061 4.109015251953236 1.975635055607045  4.096258980592634 4.090951073739102 2.11325558907639  4.10040894525589 4.221641210157526 1.92707611788337  4.20734631766268 4.180176422905207 1.988217356733265  4.109793912734002 4.159715776861488 2.131686248578795  3.836387039648487 3.55256400887754 2.635961242690248  3.703869805897922 3.586878012767854 2.675151036474702  3.850778892547047 3.604620200165328 2.659365732643325  4.261039259623369 3.631647364327113 2.294342698335235  4.351250640812724 3.672382615583097 2.189201954758964  4.228645933706924 3.684727510185599 2.152324760741233  4.230699947518855 3.747048924971992 2.173272769936378  4.349347218296518 3.733407438468626 2.20829531625184  4.258170935220338 3.690309284546514 2.316455989865495  4.232715442238387 3.80981377150995 2.194039730836598  4.347484575094983 3.794863127576503 2.227270932546018  4.25531242029566 3.749304126226702 2.338475517657535  4.234840835424182 3.872962055946826 2.214902472928123  4.345701822029868 3.856723698956895 2.246363090701289  4.252497383722257 3.808688876811672 2.360627215424602  4.237099874167188 3.936456131178875 2.236002523304342  4.344002484887447 3.918941715906579 2.265656504588507  4.249751560235072 3.868428851494922 2.383045543387188  4.239548210673824 4.000264100253905 2.257474289496807  4.342364879534931 3.981519553220204 2.285268424075616  4.247073276400323 3.928556587825209 2.405845814103006  4.242222641630756 4.064359436028644 2.279522455374976  4.340777534071326 4.044494424456063 2.305400340816242  4.244418389612576 3.989168447077158 2.429243355631361  3.477227870540579 4.039374363655999 2
[...]
<PointData  Vectors="f_24"> 
<DataArray  type="Float64"  Name="f_24"  NumberOfComponents="3" format="ascii">6.8470611586203987e-03 1.2276914191293656e-01 7.1692233373063866e-02  3.8251740736291989e-03 1.4363774225855844e-01 7.5449755007714336e-02  4.8221103154643952e-03 1.2028602475450396e-01 7.3356043210379682e-02  3.4412037101807847e-03 1.1940428894299622e-01 6.3404159981309369e-02  2.4452449658901310e-03 1.4406759807366284e-01 6.6206953360122930e-02  5.1565446877268901e-03 1.2242540888672071e-01 6.1710363036473113e-02  2.2269325525374768e-03 1.1840069079514712e-01 5.4019127821010968e-02  1.2093433664141790e-03 1.4408440872964651e-01 5.7529334980890835e-02  3.6651369054151086e-03 1.2190716264196368e-01 5.2325566413819961e-02  1.0905259533718480e-03 1.1729455448180003e-01 4.4859979789750232e-02  6.1582578854981046e-05 1.4373794447682997e-01 4.9058198533209904e-02  2.2601269360383227e-03 1.2124985664792359e-01 4.3141822849719236e-02  -4.1092012635520199e-05 1.1608271883157714e-01 3.5605408916957466e-02  -1.0818126260024445e-03 1.4306135167861334e-01 4.0478725213823723e-02  8.6260923681821366e-04 1.2047174443243164e-01 3.3839836275056878e-02  -1.2434992496775411e-03 1.1477285001794106e-01 2.5962082203724778e-02  -2.3172708924620888e-03 1.4208636697087806e-01 3.1491250634567411e-02  -6.1730156130256140e-04 1.1960417671741048e-01 2.4132062610023233e-02  -2.6061368313886777e-03 1.1338308248519317e-01 1.5656784152580122e-02  -3.7515707525800621e-03 1.4087207870099214e-01 2.1802187976082920e-02  -2.2705289690702012e-03 1.1870435771870572e-01 1.3767084345253571e-02  1.1109533039709587e-03 1.6318723126512083e-01 7.7465326824053118e-02  2.0951365366569949e-03 1.7949475443068091e-01 7.8769467693577858e-02  -1.4559369013239908e-03 1.7604199301265866e-01 7.8279010863942150e-02  -2.4178019807489411e-03 1.7750572630353967e-01 7.1257178556850723e-02  5.5412914075909166e-04 1.8130910125623356e-01 7.2208376502091318e-02  -8.5610290900916042e-05 1.6428803456432686e-01 6.9376406837488899e-02  -3.2453689618088376e-03 1.7818076035450603e-01 6.4692608708798643e-02  -6.9850571701627880e-04 1.8228734785542189e-01 6.6058112297905688e-02  -1.1045439643092819e-03 1.6474095012835721e-01 6.1789909977333100e-02  -3.9934493426382065e-03 1.7817202821110692e-01 5.8295085577898337e-02  -1.7741199197989614e-03 1.8254438270757836e-01 6.0016736612859847e-02  -2.0392694704358142e-03 1.6463444408850469e-01 5.4387670105381196e-02  -4.7248986326119723e-03 1.7751852938953680e-01 5.1810199420789224e-02  -2.7798542396107015e-03 1.8215561150420470e-01 5.3824167573268702e-02  -2.9699436143274709e-03 1.6401045815027440e-01 4.6880403727832552e-02  -5.5251472209637163e-03 1.7622532650354208e-01 4.4990699981651644e-02  -3.8293779812470469e-03 1.8115677848698128e-01 4.7257148878607255e-02  -3.9880884866464504e-03 1.6289304438374935e-01 3.8990401188637697e-02  -6.4981260306452571e-03 1.7432993765404570e-01 3.7557374956259756e-02  -5.0072631365954221e-03 1.7949485649189664e-01 4.0116565642666815e-02  -5.2071863176749921e-03 1.6129510550962584e-01 3.0424695246015092e-02  1.8478189649669900e-02 1.7128649338040400e-01 7.6416510009910177e-02  1.8139649934113575e-02 1.7355750258703412e-01 7.8855922923213487e-02  1.7085877612338152e-02 1.6282579097322111e-01 7.3603336619933360e-02  1.5882964899488639e-02 1.6705061015380990e-01 7.0324179268723461e-02  1.6681131842160711e-02 1.7686273117314871e-01 7.6636791809194471e-02  1.7382863907403664e-02 1.7466998733963307e-01 7.4499009183366757e-02  1.5086647808633474e-02 1.7983694912566664e-01 7.4439292093576762e-02  1.5960410538489844e-02 1.7764409290170188e-01 7.2523417653761468e-02  1.4282321708927567e-02 1.7077190938614800e-01 6.7007543302363012e-02  1.3388053896558371e-02 1.8241612825654896e-01 7.2139184622638131e-02  1.4287480827155375e-02 1.8021394443757233e-01 7.0398483456113867e-02  1.2431839434938943e-02 1.7405508718546783e-01 6.3564910243707348e-02  1.2392950977776620e-02 1.8238196128080347e-01 6.7973689919002031e-02  1.1561016080175951e-02 1.8456386648634127e-01 6.9565877277064300e-02  1.0392178610506430e-02 1.7700322334418706e-01 5.9802412344220367e-02  1.0261580513318614e-02 1.8422931217640989e-01 6.4976007023347521e-02  9.5662799817626942e-03 1.8632377432212840e-01 6.6490259792827314e-02  8.1603642077485300e-03 1.7978313275913257e-01 5.5446284819112887e-02  7.8284935479126534e-03 1.8590977750940274e-01 6.0933553673377550e-02  7.3552490895627915e-03 1.8783971137251979e-01 6.2421464996487826e-02  5.7629629579008454e-03 1.8274692592551309e-01 5.0151267053249494e-02  1.5480979410732995e-02 1.5299265219960476e-01 7.2211922381855517e-02  1.6070554727803443e-02 1.6572021211489979e-01 7.7655280631841656e-02  1.4968556646272110e-02 1.5539697301499045e-01 7.4729117497816425e-02  1.2795396048689570e-02 1.5926757964577448e-01 6.8536409528334577e-02  1.3937036628015251e-02 1.6961165257958150e-01 7.3116758414595723e-02  1.3575110770332202e-02 1.5709720556140955e-01 6.6414152589143821e-02  1.0696677301592019e-02 1.6254100394149631e-01 6.2525183760027886e-02  1.1943349603548960e-02 1.7292109815306664e-01 6.8638259493912543e-02  1.1573954533386740e-02 1.6059093909890862e-01 6.0720873168206284e-02  1.0012811281592857e-02 1.7574225437750393e-01 6.4074193956776229e-02  9.5013794817774989e-03 1.6366586316279838e-01 5.4943084149458810e-02  8.6394226856821889e-03 1.6536808357556337e-01 5.6492165493752897e-02  8.0694869586436669e-03 1.7816640033461920e-01 5.9212434734592076e-02  7.3336611795107049e-03 1.6647707258207567e-01 4.8858071573237433e-02  6.5656264700085249e-03 1.6786661763075678e-01 5.0184768076142507e-02  6.0310548527195435e-03 1.8034701939745815e-01 5.3774859380448868e-02  5.0353487913312248e-03 1.6920026468308363e-01 4.2237250012663867e-02  4.3841656714287171e-03 1.7020235816794815e-01 4.3333071411989166e-02  3.7794705276926765e-03 1.8258663187287949e-01 4.7394173421115904e-02  2.5902676180847373e-03 1.7212260208462102e-01 3.4900562288470084e-02  1.9906072130634945e-03 1.7265429428266812e-01 3.5655552263213451e-02  6.9171120451649989e-03 1.4414268534003355e-01 7.4301278782495414e-02  5.1008281462205591e-03 1.4518026731388955e-01 6.5159051820629782e-02  3.5042361220309778e-03 1.4573044657837303e-01 5.6532409888327313e-02  2.0241905462116470e-03 1.4591750038838092e-01 4.8102556883823602e-02  5.6151636121995376e-04 1.4579240340781444e-01 3.9527870978322763e-02  -1.0024863691159137e-03 1.4541574233004070e-01 3.0502200137058840e-02  -2.8047154091198111e-03 1.4489332669491201e-01 2.0730770254036121e-02  1.6990440530803955e-02 1.6428618598492548e-01 7.6541003132999982e-02  1.5891052284979740e-02 1.5365725416015058e-01 6.9789610653102754e-02  1.4310215121849643e-02 1.5780680145310907e-01 6.4665686869909131e-02  1.5434984248420103e-02 1.6843657947216134e-01 7.2964893466013842e-02  1.3719432480212655e-02 1.7219664431144438e-01 6.9342817733179352e-02  1.2422058099654751e-02 1.6134575086482109e-01 5.9566638348283171e-02  1.1882713552159994e-02 1.7547961811892157e-01 6.5648382759718793e-02  1.0338623172379120e-02 1.6448193049010271e-01 5.4347337108604135e-02  9.9287856144969090e-03 1.7835333598324124e-01 6.1694015065929815e-02  8.0931282120286704e-03 1.6739433456376940e-01 4.8794915201037056e-02  7.8419244225587884e-03 1.8096231198636653e-01 5.7196096773004003e-02  5.6911104972217075e-03 1.7025382080983623e-01 4.2723048838200037e-02  5.6253420690526475e-03 1.8367686792383819e-01 5.1731917974872137e-02  3.1593135584560340e-03 1.7325772462780245e-01 3.6057617336074758e-02  6.9435664621926886e-03 1.9991162200091545e-01 8.0902456061229727e-02  2.1588190012882878e-03 2.0476459551480428e-01 7.8479447535263716e-02  2.1956365572485337e-03 2.0297653329369997e-01 8.0077957074139283e-02  2.2668263476778312e-04 2.0485309297146406e-01 7.8501797690066183e-02  2.2658583206022859e-04 2.0620194805539255e-01 7.8942673957937831e-02  4.5775374766874348e-03 2.0174812078036322e-01 7.9384692143124685e-02  -1.2305871444390527e-03 2.0583779383473133e-01 7.6898597353393328e-02  -1.1946213340594699e-03 2.0682768291673997e-01 7.9206571003421114e-02  2.7728878289589544e-03 2.0286607917990174e-01 7.7838961761011030e-02  -2.3147872059209470e-03 2.0600586650736422e-01 7.5195678353504464e-02  -2.2133678195736563e-03 2.0667877921843095e-01 7.9312599817487187e-02  1.3563147053155906e-03 2.0328086068786591e-01 7.6174979421618133e-02  -3.1154940996690160e-03 2.0536341502250891e-01 7.3309625051254157e-02  -2.8969094832449632e-03 2.0573626500828793e-01 7.9281171649017865e-02  2.1898614876330691e-04 2.0297425473263880e-01 7.4278994585824334e-02  -3.6876550499436024e-03 2.0385921423055711e-01 7.1136466703112744e-02  -3.2618519396089602e-03 2.0393527181430937e-01 7.9100838679282054e-02  -7.2422142201977366e-04 2.0187514351755537e-01 7.2004309517070833e-02  -4.0702366393147059e-03 2.0145738798149751e-01 6.8554916825512360e-02  -3.2604818660358771e-03 2.0112049473254906e-01 7.8726135000221659e-02  -1.5364913015648502e-03 1.9983747963779097e-01 6.9183955280444492e-02  1.7124571685361783e-02 1.7633298334327088e-01 7.9921227856984856e-02  1.5019451559053482e-02 1.7959588497680895e-01 7.7178042075134984e-02  1.3129621439946750e-02 1.8233677686875469e-01 7.4392540190040699e-02  1.1333593236331424e-02 1.8460289314447922e-01 7.1489501006202896e-02  9.5346283196650165e-03 1.8641302962000220e-01 6.8283500045243167e-02  7.6290974616137087e-03 1.8784067897684681e-01 6.4476144124693643e-02  5.4763835775450487e-03 1.8910386883461597e-01 5.9627476330084389e-02  1.3319042582965849e-02 1.3090343425608411e-01 6.7951026540935502e-02  1.1828058978640983e-02 1.1973490999972829e-01 6.6859861953779395e-02  1.2397529079545657e-02 1.1038046412406465e-01 6.3009827745422187e-02  1.0082539950873120e-02 1.1055955204937329e-01 5.3020916880427718e-02  9.5456655485743787e-03 1.2076633044356536e-01 5.7032470996308413e-02  1.1027909819717267e-02 1.3317062671550123e-01 5.8975135824743612e-02  7.9267733962563400e-03 1.1072048858539600e-01 4.3581820740061297e-02  7.4503917576132991e-03 1.2164879736592774e-01 4.7800471134079002e-02  8.8484254004248600e-03 1.3506073176799516e-01 5.0506428022453656e-02  5.8345308734408666e-03 1.1087662267169052e-01 3.4306624058817167e-02  5.4521137134648486e-03 1.2239581150889252e-01 3.8745743073281991e-02  6.7043235617266833e-03 1.3672088393896800e-01 4.2168375968949456e-02  3.7518524977565881e-03 1.1106283960367309e-01 2.4893968167473295e-02  3.4519012778202315e-03 1.2308230910628754e-01 2.9534334010152961e-02  4.5413847521745439e-03 1.3824989090218162e-01 3.3635727398068478e-02  1.6226949197588035e-03 1.1132441534056138e-01 1.5100105263969286e-02  1.3825012155332969e-03 1.2377670765539187e-01 1.9900967375871121e-02  2.2946916017793921e-03 1.3975368439323801e-01 2.4662806645307324e-02  -5.9073103216195294e-04 1.1172245777967793e-01 4.7391998024965106e-03  -8.1442782555395034e-04 1.2458874279879326e-01 9.6238578801172304e-03  -8.5671696166459956e-05 1.4135431432680881e-01 1.5049521864136278e-02  1.7167131988873631e-02 1.8264825237553317e-01 7.7534293909106405e-02  1.8277351719207063e-02 1.7961731871452880e-01 7.5968546688549771e-02  1.5694179096892993e-02 1.8488430632492794e-01 7.6599067470411106e-02  1.2738849297747474e-02 1.7293749973086825e-01 7.9778174408627028e-02  1.0557884966779993e-02 1.6429689444737594e-01 7.7688916725429408e-02  1.2543239067803637e-02 1.5522901599258343e-01 7.5744098626868192e-02  1.0174408330462653e-02 1.5815013983817275e-01 6.8335022787123390e-02  8.1892685036457202e-03 1.6701624820389768e-01 7.0689224292907207e-02  1.0227780496002840e-02 1.7597260714971535e-01 7.4314494820061069e-02  8.0775671775654093e-03 1.6046610856737850e-01 6.1249250027617823e-02  6.1937360380654172e-03 1.6909900386497573e-01 6.4029783343617586e-02  8.1043242381378233e-03 1.7832605055246836e-01 6.9061463783560276e-02  6.1418393492383341e-03 1.6233792962081212e-01 5.4228747123136793e-02  4.4148058312643004e-03 1.7064250912846063e-01 5.7452862750391055e-02  6.2347501781047348e-03 1.8010657571597236e-01 6.3780622943021892e-02  4.2491510507587441e-03 1.6385226288203808e-01 4.6978728574029065e-02  2.7176930232835871e-03 1.7173425945011819e-01 5.0667721992913681e-02  4.4797669662881593e-03 1.8140201471922207e-01 5.8223036425843727e-02  2.2663821042014348e-03 1.6513536047938177e-01 3.9194200634097315e-02  9.5435933681041810e-04 1.7246535629802526e-01 4.3355997923736921e-02  2.6860654785010561e-03 1.8231030872470264e-01 5.2089252223910816e-02  8.7519475118831164e-07 1.6637501393522705e-01 3.0520372013227458e-02  -1.0447925702498308e-03 1.7295077072762166e-01 3.5060513263773192e-02  6.3723379296860372e-04 1.8295717479644250e-01 4.5019847518431293e-02  1.0982002358184102e-02 1.1938174210994588e-01 3.8015876034991486e-02  1.1740332322158140e-02 1.4282132511131315e-01 4.7249023041986839e-02  1.0545417831560823e-02 1.2621244077300625e-01 4.1034652951230724e-02  8.1953530392684364e-03 1.2758693165723975e-01 3.3328314669908626e-02  9.3781840389758724e-03 1.4472744093608905e-01 4.0687135270479770e-02  8.6432087455228530e-03 1.2011383389498327e-01 3.0263916026580743e-02  5.7755052328115047e-03 1.2886260886638604e-01 2.5490159864851269e-02  6.8858279451929263e-03 1.4644804601040587e-01 3.3923560175386953e-02  6.2570990293064847e-03 1.2076363068659703e-01 2.2410389227160640e-02  3.2714019316345939e-03 1.3010066056290637e-01 1.7337299786216457e-02  4.2710035666390341e-03 1.4807963199832222e-01 2.6806486969126537e-02  3.8075530657638288e-03 1.2137694681767464e-01 1.4276211423718804e-02  6.8297003097160297e-04 1.3134906875563945e-01 8.7150538228059019e-03  1.5356924814256198e-03 1.4969584437351377e-01 1.9245120539337503e-02  1.2791482993568790e-03 1.2196445320918890e-01 5.7135951030254520e-03  1.4286573249848646e-02 1.2779781122437436e-01 6.2258080901820313e-02  1.5134949204951120e-02 1.4119824911320500e-01 6.6373290247824027e-02  1.4761957224630222e-02 1.3926075605433763e-01 6.7773262420670791e-02  1.2660284662867597e-02 1.4260686970545239e-01 6.0229347319648088e-02  1.3151698580971611e-02 1.4459403908573698e-01 5.9266526342189825e-02  1.2050240874333930e-02 1.3006267916927292e-01 5.3790374786958174e-02  1.0528163566844098e-02 1.4547105315881290e-01 5.3010330714067994e-02  1.1052585747820835e-02 1.4745613137341196e-01 5.2466004083974310e-02  9.8174400444843105e-03 1.3200844074248538e-01 4.5736064333833024e-02  8.3393286497033328e-03 1.4800561211673205e-01 4.5818350198815513e-02  8.8425270437184518e-03 1.4998440395140483e-01 4.5648496760979686e-02  7.5349044956049549e-03 1.3374095663399238e-01 3.7731971588020490e-02  6.0667850452922325e-03 1.5035925269658662e-01 3.8403474799265536e-02  6.5118040081301723e-03 1.5233912420382695e-01 3.8585292060393614e-02  5.1882789700535880e-03 1.3537206719985773e-01 2.9537118549152457e-02  3.6841244074575842e-03 1.5266041046648451e-01 3.0562964221196986e-02  4.0549565519891083e-03 1.5464724510082520e-01 3.1108804227040543e-02  2.7637776553050449e-03 1.3699447170670523e-01 2.0951783345662018e-02  1.1872780912570839e-03 1.5503284411384177e-01 2.2136905084815497e-02  1.4841935013607838e-03 1.5699535057192315e-01 2.3100043769795169e-02  2.5573905437649528e-04 1.3870618354604375e-01 1.1859032177233712e-02  -1.6686685035924801e-03 2.0512544143256156e-01 7.6613557895240839e-02  -5.6164128693660508e-03 2.0151778646492144e-01 7.4121551077240458e-02  -5.9878694712703143e-03 2.0677537147416999e-01 7.6556563174899284e-02  -6.9024835877839561e-03 2.0839121391849566e-01 7.7465192667381194e-02  -6.7460420513910622e-03 2.0249472203024360e-01 8.0389791905162863e-02  -4.1053927268638150e-03 2.0673027264535593e-01 7.9619041135587265e-02  -7.4300809214085835e-03 2.0894109806136602e-01 7.8152278761471433e-02  -3.1276309206867800e-03 2.0636803702545753e-01 7.8263518822714123e-02  -7.6668222735538681e-03 2.0855275829181003e-01 7.8690342505702351e-02  -6.8014743587902961e-03 2.0165735937314991e-01 8.3094116737794918e-02  -4.7024068196669074e-03 2.0626998893440160e-01 8.0787027343037360e-02  -7.6484840036390922e-03 2.0728836398230932e-01 7.9158374753652963e-02  -6.5563577326848864e-03 2.0002742303310231e-01 8.5760568652627156e-02  -4.9671722173754949e-03 2.0499648765205344e-01 8.1850574748198138e-02  -7.3573411091300694e-03 2.0515084772807507e-01 7.9656684233131547e-02  -5.9817477946729324e-03 1.9763105911340395e-01 8.8567906994882803e-02  -4.8951395534457516e-03 2.0287256226596911e-01 8.2906958254781740e-02  -6.7262566034883616e-03 2.0210932113600039e-01 8.0380803010629429e-02  -5.0104480105273184e-03 1.9448104921586853e-01 9.1700275421118804e-02  -4.4328537501130806e-03 1.9981575194610590e-01 8.4100518465361415e-02  4.8095655866989542e-03 1.6282110954157841e-01 7.7223481433257357e-02  3.1191711846261243e-03 1.6432220537242490e-01 6.9229398703198913e-02  1.6690454444619120e-03 1.6516890278792448e-01 6.1690138233103445e-02  3.6198874982565013e-04 1.6546387632990028e-01 5.4306870857272982e-02  -9.0059675759945098e-04 1.6526611982014822e-01 4.6783946687457931e-02  -2.2373689623995910e-03 1.6462611375743072e-01 3.8837187079476705e-02  -3.7991931534459571e-03 1.6356937312500164e-01 3.0166096105485776e-02  1.7534739904165011e-02 1.8362232020580302e-01 7.9926372367632115e-02  1.5638847537708573e-02 1.8612843878994093e-01 7.8756423368376863e-02  1.3846747767993132e-02 1.8825303347806119e-01 7.7525173540110834e-02  1.2126960954762180e-02 1.8995361114663692e-01 7.6179281906064822e-02  1.0413979144035992e-02 1.9116610360808997e-01 7.4599258425037937e-02  8.6194443395766780e-03 1.9182301741819152e-01 7.2540971496894008e-02  6.5597002820863802e-03 1.9191364246103035e-01 6.9479894702627901e-02  -3.2298584269447859e-03 1.9453823305484430e-01 8.9207335224445919e-02  -2.2053875041619054e-03 1.9964611753167230e-01 8.4630042363851479e-02  -1.9693611331829770e-03 2.0170905348424994e-01 8.3150558549606526e-02  -2.6271623690853926e-03 1.9135117341570826e-01 9.2447664763684059e-02  -2.0586615812758671e-03 1.9662677638535569e-01 8.6169086438194986e-02  -1.3926545349818885e-03 2.0294267328513077e-01 8.1635208305356477e-02  1.6161435094576638e-03 2.0393138626635102e-01 7.9488396826945890e-02  2.9494029156819932e-03 2.0388333142226298e-01 7.9489564575179986e-02  5.9503104230216187e-04 2.0326657884308399e-01 7.9296826482644273e-02  -1.6218671914920282e-04 2.0176874161427560e-01 7.8862716528076734e-02  -6.3208677685750152e-04 1.9924225457683409e-01 7.8150814258240220e-02  6.9524522784482432e-03 2.0187537452883236e-01 7.9035460147101291e-02  4.6770521172479537e-03 2.0319244868888192e-01 7.9329935109518079e-02  1.7266465885921619e-02 1.5068914219274790e-01 6.5473552988603315e-02  1.8010631505217502e-02 1.6307019405624004e-01 7.2265168681156913e-02  1.6637516523297001e-02 1.5295928563339503e-01 6.7874194036743690e-02  1.4971988442870128e-02 1.5691167633592079e-01 6.2928155582747627e-02  1.6825667257022052e-02 1.6702590272909862e-01 6.9327879829394881e-02  1.5493052125104415e-02 1.5440228475808709e-01 6.0552815302665826e-02  1.3476591487685281e-02 1.5736741565912146e-01 5.5736542016933087e-02  1.5242485238954927e-02 1.7036812853183300e-01 6.6343051918421880e-02  1.3066462508452840e-02 1.6017159131928715e-01 5.8037683148703327e-02  1.1230068936459352e-02 1.5990975104023897e-01 5.0820981849346553e-02  1.3378836943482915e-02 1.7325110907731717e-01 6.3199401838431493e-02  1.0938018343647729e-02 1.6301471800963002e-01 5.3030502246052991e-02  1.1275176273823009e-02 1.7579581154983542e-01 5.9742159748406833e-02  8.7915503170548290e-03 1.6221090062315743e-01 4.5639070284540131e-02  8.5993397470120071e-03 1.6563135400961479e-01 4.7710732865082067e-02  6.1426574392986176e-03 1.6440755565030959e-01 4.0038051618117299e-02  8.9044613791654219e-03 1.7814411627765994e-01 5.5666125333722540e-02  6.0771109355220185e-03 1.6815587225497999e-01 4.1911508586069249e-02  3.3349603737186416e-03 1.6661046591861542e-01 3.3909275878766632e-02  6.3307037883678519e-03 1.8061275797272591e-01 5.0735741423586077e-02  3.4255286988123007e-03 1.7077654781387394e-01 3.5571174459792208e-02  1.6104032459053900e-02 1.3779307180051817e-01 6.0643903218515413e-02  1.56478