<?xml version="1.0"?>
<VTKFile type="UnstructuredGrid"  version="0.1"  >
<UnstructuredGrid>
<Piece  NumberOfPoints="715" NumberOfCells="2891">
<Points>
<DataArray  type="Float64"  NumberOfComponents="3"  format="ascii">7.632856450548441 1.760811300761715 1.222590031346605  7.521914807488933 1.743486294555148 1.227971490240614  7.592825639395671 1.839040631407414 1.173086843561535  7.598097963276611 1.807714516921841 1.117446607790699  7.521581533607165 1.706151084868306 1.174838250531894  7.638520172098516 1.727387453391457 1.167547185323881  7.60334205708584 1.776167188127122 1.061658841556841  7.521028494840163 1.668602094109703 1.121631693086387  7.644147244532736 1.693714111286037 1.11239771818749  7.60857249621359 1.744534873525738 1.005734562115162  7.520415214065998 1.63095667681793 1.068336397332083  7.649759420874334 1.659957811951161 1.05713556009956  7.613798681672336 1.712899549786171 0.9496682641267675  7.519831619537139 1.59328964959122 1.014942182085192  7.655365129714078 1.626203956059272 1.001740511105749  7.619070439087767 1.681278148094266 0.8934442334316332  7.519352835508276 1.555628267869692 0.9614332535802456  7.661002916036892 1.592476613743852 0.9461955495433535  7.624393526737684 1.649646041874887 0.8370570859679677  7.519019858611442 1.517976982750804 0.907796377327169  7.666681897620948 1.558764533492915 0.8904496325765822  9.028753353487362 1.564015512433149 1.970094573748742  9.045215752327346 1.60120136991791 1.862382756492755  8.921148339019815 1.567725453908666 1.869438842538521  9.032859261027092 1.652487851683533 1.886084267880581  9.057675126896557 1.550139964589735 1.838613264785015  9.040331634885572 1.510552373372666 1.95310964182216  8.93408116757205 1.51541683638344 1.847062371321303  9.070155636989861 1.499268144743736 1.814845585270473  9.051945848609538 1.457248358021274 1.936075301526091  8.947049461692361 1.463279577545841 1.82467299682304  9.082588305273614 1.448533837584026 1.791138014135962  9.063530966643663 1.404053000410836 1.919050725818988  8.959964377218522 1.411266560454347 1.802330296507852  9.094876228116304 1.397897838185491 1.767564138109118  9.075010867911097 1.35093461086047 1.902098750499668  8.97271801693951 1.359353536991356 1.780100356748482  9.086312599977925 1.297901997065273 1.885339600912399  9.106869646813966 1.347328117143821 1.744178814351769  8.985238674543698 1.307508624112989 1.758050937192706  7.476359307639264 1.85181585383079 1.153312459322791  7.476356730643728 1.82007763823753 1.097283870065856  8.908329320417753 1.620291473448971 1.891734035138775  8.952552180600316 1.674521558992057 1.810109828037727  8.965119359282856 1.625553485336471 1.78132999236262  8.977778795383697 1.576848257142393 1.752519332935649  8.990468153276487 1.528325512211932 1.723726735232266  9.003109629622639 1.479916817520843 1.695004460827157  9.015616716150358 1.431575397143186 1.666411165809669  9.027886802143085 1.383244364305581 1.63796911507823  8.123911585525306 1.87816676617412 1.303442640614055  8.150126066475904 1.796513122903549 1.359444451037346  8.045334439157614 1.772608939384607 1.330546777305777  8.065998367639983 1.74053567769721 1.281468532499042  8.172461213226619 1.766701082985099 1.31055482398261  8.146208614351149 1.852174817350505 1.253392516292794  8.168976577771245 1.826219387498128 1.203512229567763  8.195251652549972 1.736961790295053 1.261833260656557  8.087078922816859 1.708447012705029 1.232476021819288  8.191927852891995 1.800292476011616 1.153694158562694  8.218200712564613 1.707258654785851 1.213172578298024  8.10830249324675 1.676351073039542 1.183493045128693  8.214837794739724 1.77437633027866 1.103867046364116  8.241092622643544 1.677562443071595 1.164506842974181  8.129483229298184 1.644239161101818 1.134463720597305  8.237502537230304 1.748441222430595 1.053957543271778  8.263735675148762 1.647843859276683 1.115767720236344  8.150480439204902 1.612095672636041 1.085329405160609  8.259722339917534 1.722453001902267 1.003844018526849  8.285941987834033 1.61805616245787 1.066859795158353  8.171193293710525 1.579894253044718 1.036015003006528  8.015431768323159 1.878715263999673 1.257673603897971  8.036114937528902 1.852270444445603 1.206377632847339  8.057248081882149 1.82580908007793 1.155170615909408  8.078538577614413 1.799342711403845 1.103969486286376  8.099786830161184 1.772870712021912 1.052715124765182  8.120828433477826 1.746375176035588 1.00134312995669  8.141543447289239 1.719835694641916 0.949773298970738  8.850413022153806 1.677329841143954 1.764828742562877  8.86393988667254 1.628944364317155 1.734656388380148  8.877589831439293 1.580822697384188 1.70443031363279  8.891287483528442 1.53286523396768 1.674220485642651  8.904938346217424 1.484991518253794 1.644071717520668  8.918442781135946 1.437128319315104 1.614020603647439  8.931683389801078 1.389267086620534 1.58414478640801  7.573683407230686 1.930914131683129 1.124837920521305  7.578822283671053 1.903918958192312 1.067678735460079  7.58390983009172 1.876772642627375 1.010346865643891  8.781075028593344 1.618105703770391 1.833016581986809  8.752879612485351 1.682959803461145 1.700281860557841  8.766631400483035 1.637067907472023 1.664894461659077  8.796550113533137 1.567539026072166 1.806477044136587  8.780477673391578 1.591458368555262 1.629480699635779  8.812240991359754 1.517236678734093 1.779859679021179  8.794344124129138 1.546023220420082 1.594143985518741  8.82801808533835 1.467092167352405 1.753241025798421  8.808133697630836 1.500683798653075 1.558908501041281  8.843761369244818 1.417031569649665 1.726667554357407  8.821729335452023 1.455407120676134 1.523812670479825  8.859341448118078 1.366996299175797 1.700178489004288  8.83510102955648 1.410168109029869 1.488897618080622  8.874501830866734 1.316910954720446 1.673795611090194  8.682492408494749 1.624445914097975 1.766172721728301  8.639107796299889 1.70266726322598 1.6494766269562  8.65473328507302 1.660831013468795 1.609796754147653  8.698288937933471 1.575558967047648 1.73512157806629  8.714306949672666 1.526931043582786 1.704049383050038  8.670515971262729 1.61927704803634 1.570129432464359  8.730411946958283 1.478446861461142 1.672992431397196  8.686371609579943 1.57786493215755 1.530516495879154  8.746463561823736 1.430031218642717 1.641990778984246  8.702191882899069 1.536520168086893 1.49097681139226  8.762314484779386 1.381608195598208 1.611077385934891  8.717868935368907 1.495193283046663 1.451514134717222  8.777778538516673 1.33313361419197 1.580321138281695  8.733206584498031 1.453899254490863 1.412123255828361  8.585509807451009 1.624221397325291 1.709250309538033  8.60352974430624 1.577176832014221 1.675133112053111  8.621838794126171 1.530417721098764 1.641027069621771  8.640218716729324 1.483793312717663 1.606976822159865  8.658535246892473 1.437236567348491 1.572993790854215  8.676632328560043 1.390712188766235 1.539096509199834  8.694186569043255 1.344091413788022 1.505292616322271  8.540293082437406 1.723475914761895 1.584821494533692  8.494407547342309 1.645412904995211 1.646338079015628  8.416996527306404 1.66770500187174 1.59008581357821  8.435801780409346 1.626139567422804 1.54937999286542  8.511164299525406 1.601332481971838 1.607706439793314  8.557418549314114 1.685237155451171 1.541808836514777  8.454915380750698 1.58480019824834 1.508743102896494  8.528170101476237 1.557486505733245 1.569108703354141  8.57477767295696 1.6472381176803 1.49888454987289  8.474154335045254 1.543569489853565 1.468174504566433  8.545272747660993 1.513763720257447 1.530570752025232  8.592221011466055 1.609384981217817 1.456060300279602  8.493345834510871 1.5023751101254 1.427658100924323  8.562311447502951 1.470088843780393 1.49209409560114  8.609603357301118 1.571597250922955 1.413331707909351  8.512320686522267 1.46116358963209 1.387170511346664  8.579123448846635 1.426406936487944 1.453669729064131  8.626763794228305 1.533824276112732 1.3706981845585  8.530897615744875 1.419880368020604 1.346690594635085  8.595598407681374 1.382675581219463 1.41529309389566  8.643538787087591 1.496001153367279 1.328155088106125  7.928112293015106 1.793367671968055 1.270065571631445  7.946656529599596 1.762227116959582 1.218746944584642  7.965581168223803 1.731012826517156 1.16745225382285  7.984618123629766 1.699765189970908 1.11611714717432  8.003606594955491 1.668498318958701 1.064698505572466  8.022437211294838 1.63722120120918 1.013148665821605  8.041032446428403 1.60592935380067 0.961420855664283  8.43343928058383 1.753383099845516 1.519844603302814  8.45280273368302 1.718749179587688 1.474510517242627  8.472496424399182 1.68434299551371 1.42931140332363  8.492329165293851 1.650064741339319 1.384219757739023  8.512121282728572 1.615837474322752 1.339205810460823  8.531681348270599 1.581599997446168 1.294244366997291  8.550747928540266 1.547295724429748 1.249306742764261  8.354895790135698 1.78365185476592 1.46213943961291  8.315426026229201 1.695238651142447 1.51318088766104  8.247624054401344 1.772214086895949 1.41967836370576  8.269549783398483 1.739892765867845 1.372696396477664  8.336546123397449 1.65696541419064 1.469871910893172  8.3767423211326 1.751971318104467 1.415518559267632  8.291901661916583 1.707695148691537 1.325884409328438  8.358058892437944 1.618894976897604 1.426673444386992  8.399007181456085 1.72047819875588 1.369078487801414  8.31441276008462 1.675564117445973 1.279160529220598  8.379718268581586 1.580918396128171 1.383550713333775  8.42144043573996 1.689095944764222 1.322752350344879  8.336866046155356 1.643449923660308 1.232465762042479  8.401325594835013 1.542968359489896 1.340469455510492  8.443826575443474 1.657758107412125 1.276494554500031  8.359059333916864 1.61130151925705 1.185739296034199  8.422695023582317 1.504990466061435 1.297394377422269  8.465938878697605 1.626403211064498 1.230260547994989  8.380802178982041 1.57906642977893 1.13889662167058  8.443610276371794 1.466906075795996 1.254258426966184  8.487469427193421 1.594943421266982 1.183950390444757  8.191770
[...]
<PointData  Vectors="f_24"> 
<DataArray  type="Float64"  Name="f_24"  NumberOfComponents="3" format="ascii">-1.1007362517599456e-02 -7.1134846050043055e-02 -7.0782985179637927e-03  -1.0550504288729980e-02 -7.1133751471576037e-02 -5.1295769082417772e-03  -1.0659216776672474e-02 -6.8876547530537333e-02 -6.9159522930928724e-03  -1.1893630239889218e-02 -6.7776955385706494e-02 -6.6017719328862173e-03  -1.1439822861388569e-02 -6.9921367181306926e-02 -4.5609136635390238e-03  -1.2250329260349023e-02 -7.0150753150207051e-02 -6.4843687754667931e-03  -1.3137950174219960e-02 -6.6368419124825245e-02 -6.5010083457420140e-03  -1.2389783496010305e-02 -6.8525337677753595e-02 -4.3513406015456384e-03  -1.3496357905590199e-02 -6.8861485466785666e-02 -6.3088409196481359e-03  -1.4385527058292462e-02 -6.4843986082996130e-02 -6.4916527273609342e-03  -1.3353196260169181e-02 -6.7116599177493241e-02 -4.3234448751808879e-03  -1.4739970094739057e-02 -6.7523345494935730e-02 -6.3152862818133685e-03  -1.5628100811933669e-02 -6.3361100792753533e-02 -6.4833735531530040e-03  -1.4308577360746704e-02 -6.5798098241668809e-02 -4.3688151779979782e-03  -1.5976964320052928e-02 -6.6269850943966660e-02 -6.3757261691196627e-03  -1.6857982272137459e-02 -6.2054008473660861e-02 -6.4103320242582936e-03  -1.5243511190326561e-02 -6.4651681144768186e-02 -4.4224613757382651e-03  -1.7202099340473974e-02 -6.5215100039404880e-02 -6.4072656296261087e-03  -1.8065844557490874e-02 -6.1033988441581151e-02 -6.2360005983018293e-03  -1.6151271120726441e-02 -6.3746080705923677e-02 -4.4302212919597461e-03  -1.8401872921697204e-02 -6.4474052206498961e-02 -6.3236187219004123e-03  -1.5636655628690342e-02 -1.0438392818470341e-01 -1.5385178340290280e-02  -1.6881688142562305e-02 -1.0161327093563255e-01 -1.9359780895339823e-02  -1.5833607424120492e-02 -1.0110279517187043e-01 -1.6227769716742783e-02  -1.5793294957133840e-02 -1.0312820983903222e-01 -1.9748717156810452e-02  -1.7868164508560647e-02 -1.0055659404217046e-01 -1.9127837321092255e-02  -1.6406347663810779e-02 -1.0300370631026769e-01 -1.5806182289323515e-02  -1.6855206266494220e-02 -9.9951288967741150e-02 -1.6212925711222740e-02  -1.8770217690924903e-02 -9.9828281354083559e-02 -1.9028918949361331e-02  -1.7100791681989989e-02 -1.0196721425574733e-01 -1.6278912073328024e-02  -1.7781947521868194e-02 -9.9122904354778163e-02 -1.6325509445159252e-02  -1.9601244454437172e-02 -9.9368911889194639e-02 -1.9041207757969095e-02  -1.7720068311897413e-02 -1.0120960194086653e-01 -1.6846426121720472e-02  -1.8621706941511825e-02 -9.8568008991943554e-02 -1.6559986500840628e-02  -2.0364999986805517e-02 -9.9152647828038551e-02 -1.9154171828339013e-02  -1.8273193929482061e-02 -1.0069274846827966e-01 -1.7526012619874035e-02  -1.9383788196097235e-02 -9.8259830913958665e-02 -1.6910884170356005e-02  -1.8776112979531447e-02 -1.0039185693409960e-01 -1.8330733790261778e-02  -2.1063288476332830e-02 -9.9175921873572992e-02 -1.9363096113137388e-02  -2.0081037497718314e-02 -9.8192387241201051e-02 -1.7377089432216920e-02  -1.0267815101844026e-02 -6.7815025074591584e-02 -4.9784226553314642e-03  -1.1236323268318357e-02 -6.6433447057681755e-02 -4.7632495908285430e-03  -1.4702328195772761e-02 -1.0270721651453228e-01 -1.6348253579863952e-02  -1.5472860011417804e-02 -1.0082938973138947e-01 -2.1529634097940481e-02  -1.6791048026240745e-02 -9.9662710206229271e-02 -2.0650520376153517e-02  -1.7987101342227932e-02 -9.8846839130164357e-02 -2.0029187208091260e-02  -1.9090678452422905e-02 -9.8345820962132666e-02 -1.9595475744428742e-02  -2.0116770585299367e-02 -9.8113375421235868e-02 -1.9291074388066168e-02  -2.1078282650981606e-02 -9.8130245624479209e-02 -1.9078804993104836e-02  -2.1985480347910116e-02 -9.8383828148418409e-02 -1.8925045719096523e-02  -1.0644543666303685e-02 -7.8241566126820275e-02 -1.9032975051019467e-02  -1.1372505446076325e-02 -8.0399399027005020e-02 -1.7694611179876762e-02  -1.1502044832617256e-02 -7.8286828324712926e-02 -1.4932314498794405e-02  -1.3499330836631254e-02 -7.8230995348686272e-02 -1.4419685737033269e-02  -1.3419738153048245e-02 -8.0626399469682197e-02 -1.7248925878125727e-02  -1.2659589611114269e-02 -7.8527480655862666e-02 -1.8954548880596788e-02  -1.4615098763939131e-02 -7.8403314151657674e-02 -1.9059272407328021e-02  -1.5338533419842815e-02 -8.0564792674949079e-02 -1.7140017497546258e-02  -1.5363833513357563e-02 -7.7923897494993899e-02 -1.4277589861649368e-02  -1.6551111769359850e-02 -7.8122851039898134e-02 -1.9199784996041552e-02  -1.7199452080004191e-02 -8.0427838202681970e-02 -1.7161283836139744e-02  -1.7156137187105819e-02 -7.7564497011412409e-02 -1.4301212461144033e-02  -1.8498651015503857e-02 -7.7878725057636905e-02 -1.9286866886961983e-02  -1.9035590990407591e-02 -8.0381870707048650e-02 -1.7194676197395030e-02  -1.8918123743553769e-02 -7.7303402856438275e-02 -1.4369762936206022e-02  -2.0484896791308528e-02 -7.7836116456348095e-02 -1.9249880677706381e-02  -2.0869899650873706e-02 -8.0558565908218110e-02 -1.7160252921712648e-02  -2.0673846720871532e-02 -7.7256053809551736e-02 -1.4410576025619634e-02  -2.2526670101470449e-02 -7.8139401987433896e-02 -1.9030671495090863e-02  -2.2702175647243548e-02 -8.1069764017221171e-02 -1.7020833942813427e-02  -2.2439475389155375e-02 -7.7517073971168679e-02 -1.4388320018002575e-02  -1.0718315435728929e-02 -7.5390828783587563e-02 -1.6325037572324539e-02  -1.2712329666196807e-02 -7.5360275369538862e-02 -1.6305145694355351e-02  -1.4632235491266656e-02 -7.4940330800239180e-02 -1.6421464922032364e-02  -1.6528700127974749e-02 -7.4367475295154931e-02 -1.6572511348314788e-02  -1.8438790227556227e-02 -7.3827570950738219e-02 -1.6677569002629782e-02  -2.0389237987831578e-02 -7.3472856458306299e-02 -1.6675555183751131e-02  -2.2396699751273303e-02 -7.3429790863087527e-02 -1.6522598305327339e-02  -1.4833749506773011e-02 -9.9044746405974771e-02 -2.1130061442109771e-02  -1.6274841635804997e-02 -9.8021321548609569e-02 -2.0090484332285902e-02  -1.7608708732022520e-02 -9.7356710494662699e-02 -1.9324934149896503e-02  -1.8839754476633476e-02 -9.6974956207468460e-02 -1.8785573985339383e-02  -1.9985011267465016e-02 -9.6841049262580525e-02 -1.8399556822827737e-02  -2.1056734967353049e-02 -9.6946208131571232e-02 -1.8114943757197646e-02  -2.2064032636693549e-02 -9.7301564886519684e-02 -1.7905424275958697e-02  -1.0280747440853475e-02 -6.6636111316803998e-02 -6.2555821832299156e-03  -1.1603717006987585e-02 -6.5253160585428890e-02 -6.2633864722354965e-03  -1.2906524257940593e-02 -6.3501705214497370e-02 -6.3216486810637436e-03  -1.4069962310156416e-02 -1.0036008838921974e-01 -1.5902417440496669e-02  -1.4465534362098548e-02 -9.6544907827821477e-02 -2.1279260812856360e-02  -1.6106979531750290e-02 -9.5839341931088506e-02 -2.0067011655192233e-02  -1.5431238301872291e-02 -9.8904385938868661e-02 -1.5574380192426329e-02  -1.7598476602261860e-02 -9.5471589222941938e-02 -1.9223447952354526e-02  -1.6651089851853984e-02 -9.7828022938101694e-02 -1.5420854619826669e-02  -1.8990750370040981e-02 -9.5331375349794759e-02 -1.8624855495709483e-02  -1.7762368981358755e-02 -9.7090253928454801e-02 -1.5425148751016625e-02  -2.0303587221260733e-02 -9.5413431707752849e-02 -1.8159727820568662e-02  -1.8779016562604809e-02 -9.6638729485898411e-02 -1.5561938651364805e-02  -2.1544965548702354e-02 -9.5743330505234592e-02 -1.7767263028062290e-02  -1.9709461083858869e-02 -9.6442465392153565e-02 -1.5808362229370869e-02  -2.2728021335156445e-02 -9.6346227511819885e-02 -1.7411044143957610e-02  -2.0541146204538500e-02 -9.6482701022136741e-02 -1.6149101461688520e-02  -1.3869712223425831e-02 -9.7645218572906520e-02 -1.6389645096759140e-02  -1.3443508685246103e-02 -9.4000257660229930e-02 -2.1392503289429616e-02  -1.5249813936227470e-02 -9.3721819694295161e-02 -2.0072561304313417e-02  -1.5359632801850065e-02 -9.6431490861723937e-02 -1.5677117089987282e-02  -1.6727705977566214e-02 -9.5572256949992135e-02 -1.5289514028258929e-02  -1.6914562799838103e-02 -9.3519864382074533e-02 -1.9217640037787569e-02  -1.7993459758989392e-02 -9.5016349266073219e-02 -1.5124651426273858e-02  -1.8476888298638753e-02 -9.3481290200150627e-02 -1.8631873722971797e-02  -1.9166174879336008e-02 -9.4728472927943522e-02 -1.5107421242892789e-02  -1.9958788260295183e-02 -9.3649758879908646e-02 -1.8179853651066356e-02  -2.0252422439891955e-02 -9.4695318155009714e-02 -1.5187071399202775e-02  -2.1373656032919155e-02 -9.4069662717525010e-02 -1.7778252107180936e-02  -2.1246489095679829e-02 -9.4939112074633319e-02 -1.5326221233017258e-02  -2.2723370164612948e-02 -9.4802514869632412e-02 -1.7385649160951189e-02  -1.3539445639641469e-02 -9.5146554577416553e-02 -1.6061407934000821e-02  -1.5246636254396909e-02 -9.4192679636276588e-02 -1.5207779375741411e-02  -1.6748643625085199e-02 -9.3537789452500922e-02 -1.4808049233059296e-02  -1.8134818297679177e-02 -9.3140670541649886e-02 -1.4642536438133230e-02  -1.9430417239856022e-02 -9.2998040537043997e-02 -1.4616586604549236e-02  -2.0639450238671284e-02 -9.3115534700458746e-02 -1.4673361775142023e-02  -2.1740436675733343e-02 -9.3479420513717285e-02 -1.4780571497604023e-02  -1.2947776878515036e-02 -9.1314895216424205e-02 -2.1489845682052318e-02  -1.3100230346858048e-02 -9.2554697497127442e-02 -1.6509115924805671e-02  -1.2670172277108668e-02 -9.0164596980660192e-02 -1.6838943522408091e-02  -1.4580822720709825e-02 -8.9755689570658145e-02 -1.5828949152939288e-02  -1.4888838538447217e-02 -9.1852271640552624e-02 -1.5503215605799026e-02  -1.4833465036220270e-02 -9.1372674075812746e-02 -2.0274705336760974e-02  -1.6314930748852815e-02 -8.9417646224614969e-02 -1.5280865314063691e-02  -1.6525957082927742e-02 -9.1327796594865299e-02 -1.4966171263868656e-02  -1.6601620144629046e-02 -9.1390927532042976e-02 -1.9506469779404546e-02  -1.7937560154049837e-02 -8.9226062727430069e-02 -1.5009422513800543e-02  -1.8049522224360660e-02 -9.1013292306633978e-02 -1.4702248263629092e-02  -1.8276647682693867e-02 -9.1493241651190549e-02 -1.8984894488478156e-02  -1.9473887322172506e-02 -8.9237862558427736e-02 -1.4873287052917796e-02  -1.9481637491157194e-02 -9.0929241475817615e-02 -1.4581986185428289e-02  -1.9881783928737715e-02 -9.1773327191810680e-02 -1.8568879540400405e-02  -2.0936725716367396e-02 -8.9497896961904841e-02 -1.4787323355136918e-02  -2.0833689551889693e-02 -9.1102464980494999e-02 -1.4527627990965663e-02  -2.1427528672550128e-02 -9.2311970104980823e-02 -1.8166698876409322e-02  -2.2330847102796137e-02 -9.0047682190513081e-02 -1.4704922843442353e-02  -2.2114547300780472e-02 -9.1561097899490129e-02 -1.4487989578388838e-02  -2.2918088969468540e-02 -9.3177021153942774e-02 -1.7720226580205365e-02  -1.1413381100948333e-02 -7.5029771693003219e-02 -1.2995509090832403e-02  -1.3301360292588358e-02 -7.4733664180880358e-02 -1.2585907983628578e-02  -1.5087344861827424e-02 -7.4159052654762414e-02 -1.2520262777227398e-02  -1.6824473318110270e-02 -7.3505739274295906e-02 -1.2590410869803269e-02  -1.8545870549874534e-02 -7.2933808011644452e-02 -1.2684218454771154e-02  -2.0267044615080641e-02 -7.2569788749924521e-02 -1.2732556271092120e-02  -2.1989406341270563e-02 -7.2520059810579490e-02 -1.2715193299639290e-02  -1.2181765713717325e-02 -8.8347668984681466e-02 -2.1330859060130231e-02  -1.4164556220549736e-02 -8.8665290374119562e-02 -2.0349948180902976e-02  -1.6025562594038950e-02 -8.8829628754753254e-02 -1.9761676977702747e-02  -1.7799408556009460e-02 -8.8998909394098838e-02 -1.9387690528859323e-02  -1.9515793808498615e-02 -8.9306060014304189e-02 -1.9086770766239054e-02  -2.1188183541948298e-02 -8.9859389154570216e-02 -1.8763832137614130e-02  -2.2815862082952290e-02 -9.0746527468354335e-02 -1.8363749361559403e-02  -1.1708280794713432e-02 -8.5881860733160342e-02 -2.1290230776339635e-02  -1.2258295586035337e-02 -8.6942530839469678e-02 -1.6842521734285694e-02  -1.1641228204331692e-02 -8.3370725202747145e-02 -1.8821906978839668e-02  -1.3702045652247391e-02 -8.3684803579835668e-02 -1.8180287315093500e-02  -1.4281898469034384e-02 -8.6800366449224411e-02 -1.5937555738960888e-02  -1.3738604517877971e-02 -8.6372303876663170e-02 -2.0544166518333767e-02  -1.5616162316741899e-02 -8.3761146283710369e-02 -1.7897413922274619e-02  -1.6120721664913604e-02 -8.6631106740732947e-02 -1.5510198251041820e-02  -1.5650445480027881e-02 -8.6611286747134419e-02 -2.0163454078912197e-02  -1.7455769039316345e-02 -8.3794361277205964e-02 -1.7777378504787521e-02  -1.7843297437950524e-02 -8.6551153775724990e-02 -1.5323290265442255e-02  -1.7489569558593442e-02 -8.6815014130172299e-02 -1.9948224928065320e-02  -1.9252994135340502e-02 -8.3937147400896514e-02 -1.7695546169850637e-02  -1.9487884340588887e-02 -8.6644935872458514e-02 -1.5243408191625781e-02  -1.9285629862295678e-02 -8.7132885213539582e-02 -1.9766848726698084e-02  -2.1026580799138828e-02 -8.4314013071231944e-02 -1.7569930202101545e-02  -2.1071931380418286e-02 -8.6978152411348972e-02 -1.5186914629572919e-02  -2.1051750233498565e-02 -8.7689669735021819e-02 -1.9527557403990588e-02  -2.2790821517122639e-02 -8.5029341813006476e-02 -1.7365677886876173e-02  -2.2594457318819528e-02 -8.7603655458781918e-02 -1.5099967994024301e-02  -2.2790632868659219e-02 -8.8584403376406454e-02 -1.9178238671390513e-02  -1.2096353895762335e-02 -8.4227000769125634e-02 -1.4476113324176998e-02  -1.4057170572137080e-02 -8.4010819454855140e-02 -1.3746210354660341e-02  -1.5883222474653104e-02 -8.3655694567424388e-02 -1.3432420016401127e-02  -1.7593127061121143e-02 -8.3402871227083383e-02 -1.3375330932092243e-02  -1.9226705942448821e-02 -8.3323514752758010e-02 -1.3433874057976672e-02  -2.0803701203038125e-02 -8.3477604788428902e-02 -1.3519371648072202e-02  -2.2338336426801959e-02 -8.3918682403054251e-02 -1.3576112599450922e-02  -1.7704048972301129e-02 -1.0022568509078722e-01 -1.6814396575714069e-02  -1.1956756897216274e-02 -8.1180033279803623e-02 -7.1804340179217755e-03  -1.1734946547335656e-02 -7.8061211916250317e-02 -7.0448217310917520e-03  -1.1886462097211106e-02 -7.7796620250075943e-02 -1.0613533287719143e-02  -1.3689378893007110e-02 -7.7139950249725725e-02 -9.9817433456801628e-03  -1.3249953974320295e-02 -7.6889547685899090e-02 -6.4850421633833102e-03  -1.3553204860452981e-02 -7.9923238745418221e-02 -6.7418699617534583e-03  -1.5357014670558991e-02 -7.6443110665039268e-02 -9.8154924942568788e-03  -1.4669716478477495e-02 -7.5835791741857353e-02 -6.4030282590048539e-03  -1.5015862504753823e-02 -7.8890062962745117e-02 -6.7490317705015427e-03  -1.6943314472247485e-02 -7.5804083836329195e-02 -9.8778655028862617e-03  -1.6020825943424181e-02 -7.4937762431587104e-02 -6.5846000143478193e-03  -1.6392342526012908e-02 -7.8064753247152910e-02 -7.0165134325144932e-03  -1.8479163729659465e-02 -7.5308047296808941e-02 -1.0046229479194292e-02  -1.7322158086393560e-02 -7.4222132846415365e-02 -6.9114317776445893e-03  -1.7702887691613423e-02 -7.7447558565586314e-02 -7.4352568209205975e-03  -1.9977935967289129e-02 -7.5020006558396843e-02 -1.0249810039306551e-02  -1.8577335639842724e-02 -7.3714057736897112e-02 -7.3149102146201307e-03  -1.8955763365093189e-02 -7.7048077601256315e-02 -7.9441767984626595e-03  -2.1449864585351003e-02 -7.4989796805482442e-02 -1.0446259556992060e-02  -1.9780441983318447e-02 -7.3430211734593048e-02 -7.7610187868107153e-03  -2.0151033756801117e-02 -7.6886261954993151e-02 -8.5141660551303726e-03  -1.7630201003744256e-02 -7.2904730072036197e-02 -5.8058895282286204e-03  -1.8007516473321061e-02 -7.5975324582524748e-02 -6.6976123212620408e-03  -1.1870001405253853e-02 -8.1365957268104874e-02 -1.4431974623416820e-02  -1.3890758739541549e-02 -8.1171862612242934e-02 -1.3765657496315841e-02  -1.5729717547299508e-02 -8.0897583890414987e-02 -1.3519239432330266e-02  -1.7473647091685370e-02 -8.0650994350271191e-02 -1.3496490393822145e-02  -1.9160973260096893e-02 -8.0544076003275802e-02 -1.3562273182343059e-02  -2.0808836824465687e-02 -8.0658567791589211e-02 -1.3638536873504890e-02  -2.2423874855643001e-02 -8.1052348549580128e-02 -1.3698888436917274e-02  -1.4927076266906409e-02 -9.7708266576395614e-02 -4.3674703490422850e-02  -1.3040442273678286e-02 -9.5680395589701386e-02 -4.3064851294759156e-02  -1.3954552792268680e-02 -9.7876598539760037e-02 -4.8772836275777734e-02  -1.4741022347955660e-02 -9.7003313085196385e-02 -4.2608057035854324e-02  -1.6506652994993074e-02 -9.9092507736684612e-02 -4.2703766809291020e-02  -1.5588932891117664e-02 -9.8969992886492386e-02 -4.8793698761376514e-02  -1.6423821422020035e-02 -9.7743553350513365e-02 -4.2201576308349843e-02  -1.8057095484747286e-02 -9.9972327351615931e-02 -4.1911307974507109e-02  -1.7216945358149501e-02 -9.9449885786681055e-02 -4.8702953450117367e-02  -1.8100918434398872e-02 -9.8209053526170945e-02 -4.1718764544931355e-02  -1.1558438122299203e-02 -9.3657865732221623e-02 -4.1269725236056515e-02  -1.0153992195701182e-02 -9.1274016138624472e-02 -3.8840980167677661e-02  -1.0448346173392832e-02 -9.3257044194373306e-02 -4.2390514641057517e-02  -1.2360857188435286e-02 -9.3546677172875445e-02 -4.3239527065793447e-02  -1.2070129842938659e-02 -9.1985983162391233e-02 -3.9263123801219060e-02  -1.3381436660321114e-02 -9.4709267811640421e-02 -4.1225978543409113e-02  -1.4247607058793483e-02 -9.3367943217896127e-02 -4.3823911026190571e-02  -1.3975212073556084e-02 -9.2201053798086741e-02 -3.9536340598278250e-02  -1.5177355107867316e-02 -9.5210761086747073e-02 -4.1116277879339400e-02  -1.6146368761037831e-02 -9.2890928345973706e-02 -4.4119944447815147e-02  -1.5895887310027529e-02 -9.2144076928762544e-02 -3.9605809503929716e-02  -1.6974717773134168e-02 -9.5435128832381380e-02 -4.0862417800835119e-02  -1.8093463812193993e-02 -9.2279738824753446e-02 -4.4071889794911528e-02  -1.7862787420668092e-02 -9.2014123002559664e-02 -3.9402178727122844e-02  -1.8798802086393840e-02 -9.5610379158349898e-02 -4.0371807793947778e-02  -2.0129834297925413e-02 -9.1710680580273776e-02 -4.3584701262421158e-02  -1.9911075262118594e-02 -9.2003755434639997e-02 -3.8837303166975784e-02  -2.0671930045047488e-02 -9.5952098398792304e-02 -3.9543647374331761e-02  -2.2287578391746929e-02 -9.1414081882657053e-02 -4.2539674514158528e-02  -2.2074388452448086e-02 -9.2292127107593339e-02 -3.7835423411934334e-02  -2.2608283603387246e-02 -9.6692010006324963e-02 -3.8294622312510657e-02  -1.1964677053186431e-02 -8.4599679919235643e-02 -6.9439064329338803e-03  -1.2170372397158078e-02 -8.1030261419811761e-02 -1.0779604040127899e-02  -1.4028628299273331e-02 -8.0261937549332918e-02 -1.0139535220092677e-02  -1.3563979810221548e-02 -8.3160669965696085e-02 -6.6692488115633808e-03  -1.5715477801773001e-02 -7.9607222839870456e-02 -9.9971470687151062e-03  -1.5025701678092238e-02 -8.2032155730345377e-02 -6.7892453323222888e-03  -1.7303025750068292e-02 -7.9077845721363407e-02 -1.0095930174499220e-02  -1.6384359421257221e-02 -8.1172427762165975e-02 -7.1603108786740888e-03  -1.8824095322891986e-02 -7.8725595912147492e-02 -1.0313981909218922e-02  -1.7663560611311201e-02 -8.0551437433441966e-02 -7.6848083169618548e-03  -2.0293583229881340e-02 -7.8595610850758710e-02 -1.0579850892309122e-02  -1.8874426047883041e-02 -8.0158975888082004e-02 -8.3060552625331789e-03  -2.1714202824064263e-02 -7.8723309471519551e-02 -1.0856240939967544e-02  -2.0016788336470755e-02 -7.9998311401592623e-02 -8.9914012909532055e-03  -1.1395454471739978e-02 -9.1917426018659265e-02 -3.6574418319114975e-02  -1.0437633569791025e-02 -8.9617380133317978e-02 -3.4751904503199156e-02  -1.2342728252820571e-02 -9.0578211190762425e-02 -3.4730845401604808e-02  -1.3240912367312792e-02 -9.3095772066277060e-02 -3.6112365058984915e-02  -1.4250442786190832e-02 -9.1043419128581743e-02 -3.4709084293297846e-02  -1.5058437931498213e-02 -9.3775681178986825e-02 -3.5757079273310170e-02  -1.6167410177178761e-02 -9.1271133885700767e-02 -3.4596873385778805e-02  -1.6867341658331165e-02 -9.4212638632450330e-02 -3.5382565435003607e-02  -1.8116427388678059e-02 -9.1478012772107403e-02 -3.4299695579020219e-02  -1.8688392940437015e-02 -9.4633726612930097e-02 -3.4873318396931079e-02  -2.0120293577889151e-02 -9.186414544