<?xml version="1.0"?>
<VTKFile type="UnstructuredGrid"  version="0.1"  >
<UnstructuredGrid>
<Piece  NumberOfPoints="7880" NumberOfCells="38068">
<Points>
<DataArray  type="Float64"  NumberOfComponents="3"  format="ascii">6.394698659229316 3.231275804179999 4.210275096036864  6.28374918258186 3.293445442216659 4.141858601372567  6.405809185813004 3.345403822625002 4.125821365540584  6.295917202692371 3.245075399111341 4.080354225475965  6.392138991369293 3.393474622013472 4.186658778910383  6.383676800464774 3.275101300998423 4.276914758215902  6.271671033661703 3.341690883525617 4.203360914028063  6.259660847282538 3.389865977874946 4.264851461958171  6.372716323003821 3.318858940762757 4.343497715672147  6.378552460465253 3.441468416981439 4.247451182638961  6.24769612769501 3.437997204352941 4.326320335086385  6.361788693089028 3.362546673934545 4.410047727421651  6.365004529759749 3.489401751383726 4.308214180729814  6.351447243964118 3.537269749213937 4.368970931041748  6.350865331109472 3.406156344882827 4.476579846795633  6.235732601403165 3.486084939663082 4.387779396332474  6.339913447568934 3.449681209108572 4.543141306270696  6.223737640074126 3.534152135148025 4.449228595108988  6.337819080634379 3.585059201665868 4.429732127645279  5.83349320170168 2.396159728010131 4.232392342208047  5.991660867185877 2.365521959297128 4.230851136380902  5.954891390459629 2.511707350870121 4.259667658048257  5.95020889244117 2.501020180564715 4.342121305910991  5.98777254567937 2.342692910521508 4.309751047119654  5.831423365676634 2.377399662591351 4.312785350847534  5.945453596487776 2.490351016458935 4.424467096895794  5.98379693808737 2.31988494324799 4.388564596982912  5.829284845680042 2.358661909129329 4.393067542272558  5.940654760372648 2.479658978804046 4.506715615773973  5.979771038716313 2.297078588953686 4.467313158877489  5.827104997729361 2.339917856308037 4.473258726213913  5.935856781069462 2.468938066314953 4.588895952171259  5.97572777316647 2.274266234873029 4.546012510023073  5.824901982272516 2.321168300894866 4.553383073712863  5.822727596870475 2.302390599700626 4.633447796062099  5.971735443623333 2.251424767141494 4.624662560838557  5.9310951690378 2.45818960494154 4.671001083677912  5.820677696819946 2.283563739265053 4.713433169059269  5.967885816561587 2.228539138217999 4.703251852502311  5.926455940329285 2.447378319462262 4.753046056452628  4.902612084868541 1.468473936384188 3.42062816584029  4.987450543129818 1.528213147709057 3.512544599353532  4.846791063340706 1.531330489665432 3.547134383861237  4.853068316176036 1.47563817048588 3.578937226236635  4.993283683593704 1.472548114457358 3.543505878340805  4.909063684707703 1.414478745310096 3.450508335155616  4.9155248118881 1.36050659706965 3.480374428385462  4.999102514985604 1.416913238540713 3.574449787616349  4.859351300090709 1.41999648301774 3.610721664877022  4.865643574429752 1.36437997671261 3.642495312665719  5.004916998585844 1.361313525184234 3.605371618035668  4.92199292505489 1.306574654451077 3.510216162906475  4.928468762876191 1.252663187744085 3.540027856680713  5.010738345879608 1.305735503617145 3.636259630882622  4.87194410777092 1.308806467172365 3.674225849076081  4.878260012216465 1.253240376118202 3.705899304212136  5.016578052654402 1.250175827139156 3.667090599737562  4.934953891227254 1.198770498909557 3.569787968003235  4.884598880223742 1.19768853631513 3.737484226492301  5.022450006436156 1.194630608855595 3.697844959501749  4.941457475053717 1.144889421628005 3.599476817362736  6.136166158715032 3.822571241300565 3.274886713764307  6.222709764726726 3.903240936330124 3.233301474856872  6.159754876272062 3.893551683049547 3.147282827938702  6.124341676795716 3.944699879429323 3.168865309765043  6.185014255098896 3.953153403802282 3.258233508213139  6.105755736591256 3.876258330530458 3.300292664108877  6.075609419627858 3.930134289264108 3.32573086346799  6.147660909661735 4.003454231840695 3.283207162570597  6.089237524357851 3.996198876695072 3.190469208989109  6.045545838065894 3.984212870036775 3.351248995851003  6.110405055972965 4.053934815241482 3.308259444701666  6.054216409314396 4.04792004140217 3.212155883768835  6.0154319766718 4.038395630702425 3.376848665546305  6.073073968944207 4.10450700499042 3.333379983959187  6.019111480349337 4.099765041198624 3.233916986313173  5.983742961802297 4.151664299348034 3.255712749459991  6.035459349720901 4.155098954266355 3.358541155388977  5.98509901820474 4.092702798264269 3.402504169489289  5.947713189505186 4.203452815253006 3.277561785392614  5.997129415149553 4.205497362368132 3.38373999971797  5.954215323704203 4.147139456752471 3.428239807947751  5.46416211743795 2.745381363019189 4.248333246495232  5.445185818525446 2.583683449095705 4.262065620326183  5.577223024224714 2.615426168780923 4.261161341783235  5.577223809725 2.618916380294633 4.346028667088579  5.444124763210901 2.584099983043564 4.346994615351176  5.462190897623173 2.760343159600615 4.332259774689946  5.460129636970285 2.775265876016151 4.416009361948674  5.44299127908713 2.584521435166526 4.431728621824349  5.577131977078432 2.622407515446983 4.430702311519294  5.458015081390811 2.790116899844765 4.499594853850535  5.4418149906305 2.584902252258735 4.516302721522528  5.576997338517426 2.625859480615969 4.515223540682702  5.455892326288686 2.804895899880462 4.583061817719599  5.440645391814512 2.58523960664923 4.600761864375573  5.576860311569167 2.629265198859982 4.599637843110506  5.576750469346861 2.632640727124401 4.683985206098123  5.439505318622793 2.585547272194503 4.685148156962217  5.453814326464903 2.819622866524005 4.666420285521215  5.576727473489903 2.635957368153128 4.768284752294345  5.438472957667394 2.585788881219743 4.769475529212078  5.451847215506798 2.834269349409657 4.749712374908502  4.861670944494636 3.165642018257675 3.969432872330497  4.972270084964597 3.243188431727228 3.934015046188039  4.857860567867924 3.284027439306707 3.855140114663827  4.837777269009974 3.339935298520955 3.905851870072503  4.955311386469166 3.297582252231833 3.989975307383427  4.842870825161622 3.215918869002716 4.028548150025074  4.938490999650435 3.351749849901056 4.045847886923026  4.824229835059772 3.265990731918052 4.087600929343006  4.817890211022088 3.395645979332228 3.956545552688279  4.921750381652297 3.405737429068002 4.101607831019436  4.805696135288549 3.315890985007071 4.146552002191843  4.798115406539701 3.451208390374647 4.007209678807024  4.905037675325085 3.459605717992267 4.157277260562692  4.787202792849564 3.365676505255861 4.205416745268582  4.778371157419731 3.506668045950752 4.057824166559065  4.888330755926765 3.513372306051767 4.21288208534404  4.768711382728425 3.415365498055563 4.264202828318795  4.758611388891127 3.562033511681428 4.108378065226894  4.750185937677251 3.464993233871438 4.322908828393242  4.871615163478406 3.567029418033611 4.268396341718221  4.738764482033834 3.617349461235469 4.15881979420285  4.755963811952966 3.55320928867869 3.144393419384071  4.823007902742329 3.555106341630957 3.256487652765234  4.893408661389307 3.603591711770878 3.128850266462325  4.874868056987044 3.665663882403504 3.139709546193596  4.801019433433549 3.616971478171557 3.270655166191208  4.733919969620834 3.612866108831938 3.156485794165069  4.856435953334105 3.727834769923489 3.150812713509319  4.779232149795428 3.678945777122737 3.285087405764902  4.712101490424113 3.672682078890457 3.168881859438726  4.838000626649798 3.790124404057205 3.162024149145082  4.757472199755759 3.741022517707266 3.299613033595397  4.690280725855395 3.732667567089998 3.181350770002287  4.819492048211599 3.852500976423631 3.173220106109538  4.735635089472883 3.803163917499305 3.31412535642938  4.668347070175083 3.792778723417174 3.193783467648143  4.800857293718729 3.914917367703012 3.184300195057684  4.713635193831054 3.865318835747629 3.328532429118347  4.646207149392318 3.852960141051493 3.206090598904638  4.782066214560719 3.977317500786588 3.195179943447914  4.691397741995742 3.927412837355647 3.342751538538561  4.623758330655575 3.913130821149139 3.218186272403378  3.309510379629804 0.8863836409368193 2.616154815527406  3.444182813441553 0.9209586002677446 2.667203884134563  3.328980118271651 0.9521439490552337 2.762453947971372  3.332655598933088 0.8967213002316559 2.78851043660581  3.448401826589566 0.8642325253604897 2.690585360521831  3.31579258608076 0.8280953931305725 2.639930694748617  3.336298194938632 0.8413373348870876 2.81455400698196  3.452574480522336 0.80754298103268 2.713933865372631  3.322102618770432 0.7698559053450988 2.663701515376427  3.339910520426894 0.7859891466894402 2.840585789008104  3.456712043473359 0.750882338130715 2.737273256320213  3.328411795279227 0.7116554172552569 2.687465679565256  3.343493472723937 0.7306761786724061 2.866610772541831  3.46082049465365 0.6942531242978898 2.760607165345694  3.334688177644538 0.6534862464869524 2.711227281879887  3.347039831482192 0.6754069919168225 2.892629007199851  3.464900777326104 0.637659013888338 2.783938243179442  3.340883402761118 0.5953598670357796 2.734980830220038  3.350535924438287 0.6201925860512225 2.918629191040643  3.468950506189825 0.581140988175765 2.807258238499981  3.346915821363121 0.5372907205274948 2.758713401790215  5.141563786684137 3.607884958165014 3.454101691302056  5.131607342116907 3.632093277006738 3.318290031878065  5.034061699394991 3.600039508988027 3.35168706989639  5.015075259735809 3.666329458205038 3.367088171994258  5.118240100753837 3.700374677759064 3.331174099472396  5.127120676155678 3.676424044843346 3.476569684830307  4.996238644968346 3.732527438912947 3.382704890668565  5.104834610466369 3.768553401121352 3.344321149277741  5.112674330468192 3.744825674673646 3.499198148441698  4.977435780583378 3.798690728058967 3.398413335253037  5.091420066725593 3.836723916054514 3.357559764078015  5.098228287823832 3.813176513773776 3.521878809410847  4.958612864066199 
[...]
<PointData  Scalars="f_14"> 
<DataArray  type="Float64"  Name="f_14"  format="ascii">4.8498928153246301e-01  4.9292618018844570e-01  4.8338803438787070e-01  4.9292012386447476e-01  4.8341072717823563e-01  4.8500485678152905e-01  4.9293510913931016e-01  4.9295100958530597e-01  4.8502482557228488e-01  4.8343713307551495e-01  4.9297069806967730e-01  4.8504019493590683e-01  4.8345748265196892e-01  4.8346479541999432e-01  4.8504065494269977e-01  4.9299423309165569e-01  4.8500282331712380e-01  4.9303683758820277e-01  4.8345007816281765e-01  5.3275159264011274e-01  5.2169332424172765e-01  5.2324475561946460e-01  5.2328301192916260e-01  5.2175256283787752e-01  5.3277810836177797e-01  5.2337477420332523e-01  5.2188053537383483e-01  5.3285564220901693e-01  5.2349219094514843e-01  5.2203939168897906e-01  5.3295150241740941e-01  5.2360631920484690e-01  5.2218514856059539e-01  5.3305658304677550e-01  5.3316316311352707e-01  5.2227334311498086e-01  5.2368912595338002e-01  5.3322211332068470e-01  5.2227248419720751e-01  5.2371516144016372e-01  6.1235048838851858e-01  6.0494721799069484e-01  6.1553265999687012e-01  6.1552471429009259e-01  6.0494536676828015e-01  6.1234251940973072e-01  6.1231760695441095e-01  6.0493707971832977e-01  6.1550082407298456e-01  6.1545756746521663e-01  6.0491747184278000e-01  6.1227490673167517e-01  6.1221406410223389e-01  6.0488288706731907e-01  6.1539244524228875e-01  6.1530098027479951e-01  6.0482858284432173e-01  6.1213442196287127e-01  6.1517454942018990e-01  6.0474981933088423e-01  6.1203151854514404e-01  5.0436270675138606e-01  4.9720190345718623e-01  5.0269623171001621e-01  5.0274389540923881e-01  4.9727654819642841e-01  5.0439684923145989e-01  5.0445299118527442e-01  4.9748492815672896e-01  5.0285717586107037e-01  5.0452729173817323e-01  4.9774210328135543e-01  5.0300259744345432e-01  5.0458677140867514e-01  4.9796336662154328e-01  5.0311957102140659e-01  5.0311741718141811e-01  4.9802712954765754e-01  5.0457123902490586e-01  5.0281416918547106e-01  4.9770947255902287e-01  5.0439293644863858e-01  5.5688896313256464e-01  5.5940948991519179e-01  5.4936584095526309e-01  5.4932933549272422e-01  5.5937531414953379e-01  5.5685007681789889e-01  5.5676517292864380e-01  5.5928871057142882e-01  5.4923293957838337e-01  5.5665927305197094e-01  5.5918132358240780e-01  5.4911364515719618e-01  5.5656022599116572e-01  5.5907453036159371e-01  5.4901032042033537e-01  5.4896023596934962e-01  5.5899077464603042e-01  5.5648720664656925e-01  5.4899792930380353e-01  5.5895573234958629e-01  5.5643954823585562e-01  6.0281224689794766e-01  5.9369820501491533e-01  6.0345268230711535e-01  6.0346021324790744e-01  5.9369992885564826e-01  6.0280743331375086e-01  5.9370170839654490e-01  6.0278456677766556e-01  6.0345050666488531e-01  5.9368138615853838e-01  6.0274099349113353e-01  6.0341700767298190e-01  5.9362841868200356e-01  6.0266078600035211e-01  6.0334749684368105e-01  5.9353293981609578e-01  6.0253250341444009e-01  6.0323095797251192e-01  6.0236006119577312e-01  5.9338035268151468e-01  6.0306564253501727e-01  6.1949414671835190e-01  6.1201308213292915e-01  6.0687590921408430e-01  6.0687105297342181e-01  6.1201456391264730e-01  6.1950211864611815e-01  6.0685562888241418e-01  6.1202200820023223e-01  6.1952519182552190e-01  6.0681046916560433e-01  6.1200741824391192e-01  6.1953558862350488e-01  6.0671617452089255e-01  6.1194082476001310e-01  6.1949796093369691e-01  6.0655659274404272e-01  6.1179475747657364e-01  6.1937966975568959e-01  6.0632031254375962e-01  6.1154976883673706e-01  6.1915129254620682e-01  7.5216607088831178e-01  7.4122192052489400e-01  7.4942146954340372e-01  7.4945937953185604e-01  7.4126131511714466e-01  7.5217846396923171e-01  7.4955570992687426e-01  7.4135831872397051e-01  7.5222971579999309e-01  7.4970341717745326e-01  7.4150575141329456e-01  7.5232578061775901e-01  7.4989757716975425e-01  7.4169619237883622e-01  7.5248067401775309e-01  7.5013536145983151e-01  7.4192379995437652e-01  7.5271387884994989e-01  7.5041209000424447e-01  7.4219113941824888e-01  7.5305347846010728e-01  5.8156795086511714e-01  5.8358092798057792e-01  5.9218176497629782e-01  5.9221599220883125e-01  5.8358260416293672e-01  5.8159998394244283e-01  5.9230716362703306e-01  5.8357049519098247e-01  5.8162065503762117e-01  5.9238240103615503e-01  5.8353189640283498e-01  5.8161148215435965e-01  5.9239935334929295e-01  5.8345484669488334e-01  5.8156347820091669e-01  5.9232310423353296e-01  5.8332991731574557e-01  5.8147249564306824e-01  5.9211980552385690e-01  5.8316001068066936e-01  5.8135342494641640e-01  7.0363571026110117e-01  6.9265711928595575e-01  6.9515422783105063e-01  6.9515060611616475e-01  6.9265403274224435e-01  7.0363852179299047e-01  6.9514058918904076e-01  6.9264272194043741e-01  7.0365013014206124e-01  6.9511880228727385e-01  6.9262287507429754e-01  7.0366100143497545e-01  6.9508157792129199e-01  6.9259179014000061e-01  7.0366418340398684e-01  6.9502527525105395e-01  6.9254614329556252e-01  7.0365299354081523e-01  6.9494584199770171e-01  6.9248462336095562e-01  7.0361748120039225e-01  6.1315404596584244e-01  6.0707379471312628e-01  6.0135801729907379e-01  6.0136012277691497e-01  6.0707780688677715e-01  6.1315122191520866e-01  6.0136736488517850e-01  6.0707469050037965e-01  6.1312459506642658e-01  6.0135260500671239e-01  6.0704505157543931e-01  6.1307090448152124e-01  6.0129129934999015e-01  6.0697103010193809e-01  6.1296880336915649e-01  6.0116490427205160e-01  6.0683792673959713e-01  6.1280057623927275e-01  6.0096051624163260e-01  6.0663227615949222e-01  6.1258943338717342e-01  4.9203611966410760e-01  4.9965061558206497e-01  4.9971397409508289e-01  4.9969212742222718e-01  4.9964046604475854e-01  4.9200748527050120e-01  4.9963096634945131e-01  4.9961398667615220e-01  4.9193946508776681e-01  4.9954586239763366e-01  4.9957160568391068e-01  4.9184673519228761e-01  4.9945071398225793e-01  4.9951739551454244e-01  4.9173983587672121e-01  4.9935945151433192e-01  4.9945512696884176e-01  4.9162963685105004e-01  4.9928795087294364e-01  4.9938501589499423e-01  4.9153389741712228e-01  5.3576162775373715e-01  5.3094436471155537e-01  5.2562722482922086e-01  5.2565883154138016e-01  5.3093202887894431e-01  5.3576121862499926e-01  5.2573982546103193e-01  5.3089752436809212e-01  5.3576417024108502e-01  5.3087273478832431e-01  5.3577867245063104e-01  5.2584535000543098e-01  5.3086423934374161e-01  5.3581889811553129e-01  5.2597122390391238e-01  5.3087976694399797e-01  5.3590223128079306e-01  5.2611344902341739e-01  5.3097647105961843e-01  5.3604464609246794e-01  5.2624690727777301e-01  7.6386369908100515e-01  7.7339621913275869e-01  7.6217235144067785e-01  7.6219169948786314e-01  5.3209515749008296e-01  5.3208728886430789e-01  5.3209099198002308e-01  5.3210125688985077e-01  5.3212304934434829e-01  5.3216445337843954e-01  5.3222890878782769e-01  6.3770283699767549e-01  6.2722355417387721e-01  6.3127116732305222e-01  6.3124175054800158e-01  6.2721852587072124e-01  6.3766870373035844e-01  6.3117781391328565e-01  6.2719871710267039e-01  6.3758129334171332e-01  6.3109033661391256e-01  6.2716022225596535e-01  6.3746783828564813e-01  6.3099278923607305e-01  6.2710514851753785e-01  6.3734425141092899e-01  6.3089672654690687e-01  6.2703261273204502e-01  6.3722782353341523e-01  6.3081290510271648e-01  6.2693111229539267e-01  6.3713880212898832e-01  7.6093089523327717e-01  7.5536777505199015e-01  7.5539529483125956e-01  7.6092696826346873e-01  7.6095000244601130e-01  7.5547462346505534e-01  7.6101104899103011e-01  7.5559918256954850e-01  7.6112622446421385e-01  7.5576789641761966e-01  7.6131491899341630e-01  7.5598111645318056e-01  7.6161058733735076e-01  7.5623959232861526e-01  5.7945063308310962e-01  5.7553299130761681e-01  5.6897227997059618e-01  5.6897879815213426e-01  5.7554155785859551e-01  5.7945880965777419e-01  5.7556298174034826e-01  5.7947824304223472e-01  5.6899638289213994e-01  5.7558798897072672e-01  5.7949898950581313e-01  5.6901677628052239e-01  5.7560950129077115e-01  5.7951455752940462e-01  5.6903326818355027e-01  5.7562038189875253e-01  5.7951933255872956e-01  5.6903935116790461e-01  5.7560985629103278e-01  5.7950290387788328e-01  5.6902826323133315e-01  6.1165648033349995e-01  6.0308012867543415e-01  6.0033750893507265e-01  6.0030276760801748e-01  6.0308146263244955e-01  6.1164654728394363e-01  6.0022345358271179e-01  6.0305190263417874e-01  6.1160902292245078e-01  6.0011703590906051e-01  6.0299963245547916e-01  6.1154360141992836e-01  5.9999825525913586e-01  6.0293287280743835e-01  6.1145372446872981e-01  6.0285865619870371e-01  6.1134033962492917e-01  5.9987693298764344e-01  6.0278229431783814e-01  6.1119822126138201e-01  5.9975991062902834e-01  6.9930963000157875e-01  6.9051820166343636e-01  6.8986586427585994e-01  6.8987688513891798e-01  6.9052706662255903e-01  6.9932163544162462e-01  6.9055440488483089e-01  6.9935588011964078e-01  6.8990656305937426e-01  6.9940564198319988e-01  6.9059449960245833e-01  6.8994730349377043e-01  6.9946566652107678e-01  6.9064333317239268e-01  6.8999267740198678e-01  6.9953108843245515e-01  6.9069898056658696e-01  6.9003672437597596e-01  6.9959634010980243e-01  6.9076073726631682e-01  6.9007438067442173e-01  7.1558417805670571e-01  7.0399924942184755e-01  7.1141279721852579e-01  7.1141505813137362e-01  7.0398588088089531e-01  7.1558119061476766e-01  7.0393115264918193e-01  7.1557056171325961e-01  7.1142960797357147e-01  7.0385113216302575e-01  7.1555788054878355e-01  7.1145063034727496e-01  7.0375582503766332e-01  7.1555088843026027e-01  7.1148906581284421e-01  7.0366229670403113e-01  7.1555758999246233e-01  7.1155830417728849e-01  7.1556872822693973e-01  7.0360751564447843e-01  7.1165414969505247e-01  6.1082841015713307e-01  6.0179707159256401e-01  6.0998185352434808e-01  6.0998161751684721e-01  6.0181210693610454e-01  6.1082598497443386e-01  6.1081194279327222e-01  6.0183025733507245e-01  6.0999855149628768e-01  6.1077471302603603e-01  6.0182488964685554e-01  6.0999804527725321e-01  6.1070017909421670e-01  6.0178426917344607e-01  6.0995787947802260e-01  6.1057797043058770e-01  6.0169554320683227e-01  6.0985866161704627e-01  6.1040425971480794e-01  6.0153688257330662e-01  6.0967591731048143e-01  5.8491762359306243e-01  5.8516315141206376e-01  5.7702363614161412e-01  5.7696574356981389e-01  5.8513095462484044e-01  5.8488569136833324e-01  5.8505701408148869e-01  5.8479506365742129e-01  5.7680827458725004e-01  5.8495025886558283e-01  5.8466274563923060e-01  5.7660505281524455e-01  5.8481038436395627e-01  5.8450405336146083e-01  5.7638723664115532e-01  5.8463747010935596e-01  5.8432940700681757e-01  5.7618218725624837e-01  5.8414112875129609e-01  5.8443704511200545e-01  5.7602297894968590e-01  7.0147084263161907e-01  7.0147277274924447e-01  7.0147724752330332e-01  7.0149385699303490e-01  7.0152607025243219e-01  7.0157775804549383e-01  7.0165867392524495e-01  5.1155114885766328e-01  5.0387799640270903e-01  5.1193086730610182e-01  5.1191464459806135e-01  5.0389514235113375e-01  5.1155615810878452e-01  5.0394615908661233e-01  5.1156893169587503e-01  5.1185195234495540e-01  5.0401658111431802e-01  5.1159533061275031e-01  5.1178047542998895e-01  5.0411039618844122e-01  5.1164861720297061e-01  5.1173802297973381e-01  5.0423524529480068e-01  5.1174389326203684e-01  5.1177117053410004e-01  5.1190156365801176e-01  5.0436321836483844e-01  5.1195180452538969e-01  5.9991314589695821e-01  5.9137619205643788e-01  5.9443062831941762e-01  5.9444623747811887e-01  5.9142247132965342e-01  5.9990772424733119e-01  5.9989129152163256e-01  5.9151903646307946e-01  5.9445068019705138e-01  5.9984889224434834e-01  5.9159066891714696e-01  5.9442305251348704e-01  5.9434889523657342e-01  5.9160707033805082e-01  5.9975586688360016e-01  5.9421241853837192e-01  5.9154087453470594e-01  5.9959094012137215e-01  5.9399470091795359e-01  5.9134558510278867e-01  5.9933781666518238e-01  6.8745308667790317e-01  6.7692014102535258e-01  6.8890548525568085e-01  6.8888081673857915e-01  6.7692545127598713e-01  6.8743490826001974e-01  6.8884684022754827e-01  6.7690580007618872e-01  6.8738449727011841e-01  6.8879824806590373e-01  6.7687227663484917e-01  6.8730697544190567e-01  6.7681459499567209e-01  6.8720362540793223e-01  6.8874147997208313e-01  6.7670869032182690e-01  6.8707311059985932e-01  6.8867867550830220e-01  6.7654103538603882e-01  6.8691419398073850e-01  6.8861834867008898e-01  5.1745709810702867e-01  5.1991827349635156e-01  5.2698751595358084e-01  5.1992027938160001e-01  5.1993154098249528e-01  5.1750694855772184e-01  5.2699781210227337e-01  5.1995231200190772e-01  5.1756799870084746e-01  5.2701177700744906e-01  5.1996997810271806e-01  5.1761024952194346e-01  5.2702505487642193e-01  5.1995544057495147e-01  5.1758900571162836e-01  5.2702713662389344e-01  5.1742380431238388e-01  5.1985246836278209e-01  5.2698233701607911e-01  5.1413531544800051e-01  5.1403849921297384e-01  5.1408770965145323e-01  5.1423932684465101e-01  5.1447132877063761e-01  5.1421457196155274e-01  5.1474275429834404e-01  5.1437567167723686e-01  5.1499585429791017e-01  5.1452696198095871e-01  5.1462463377649681e-01  5.1517655832586717e-01  5.1518857400225737e-01  5.1461228209952847e-01  7.3655076127444274e-01  7.2500987331311773e-01  7.2916996944153400e-01  7.2916324087860696e-01  7.2501416553443687e-01  7.3653445962657726e-01  7.2501619028243347e-01  7.3648401495828286e-01  7.2912888834144729e-01  7.2500437097395065e-01  7.3641356290463567e-01  7.2907352725620034e-01  7.2497651349734393e-01  7.3633304711208725e-01  7.2900641263034283e-01  7.3625336660457597e-01  7.2493478141424350e-01  7.2893354136822075e-01  7.3618932612776433e-01  7.2485974058253200e-01  7.2886080161789668e-01  6.4383883498321992e-01  6.5540160253076873e-01  6.4308542837789462e-01  6.5517465660870111e-01  6.4379570831343691e-01  6.4317284615109060e-01  6.4383180142244745e-01  6.5559879192126813e-01  6.4320150253302855e-01  6.4376102113911970e-01  6.5568534786842425e-01  6.3074311836324803e-01  6.2070472971034329e-01  6.1873112215842030e-01  6.1875728512931139e-01  6.2071581763670480e-01  6.3070899283521575e-01  6.3061169202467016e-01  6.2073424863465720e-01  6.1881319491481046e-01  6.3046634412431235e-01  6.2073153193222952e-01  6.1885544127215530e-01  6.3027591447205655e-01  6.2068279076854405e-01  6.1885696989764416e-01  6.3004756027915576e-01  6.2056491957066862e-01  6.1879011914379300e-01  6.2981487305941009e-01  6.2036227249768061e-01  6.1861720570571410e-01  6.1504449220067459e-01  6.1503160607680540e-01  6.1502012297562436e-01  6.1499065495060301e-01  6.1491537235425109e-01  6.1477018880543299e-01  6.1453855078159381e-01  5.7774806756430586e-01  5.7487850998841650e-01  5.6611076959578888e-01  5.6611686328439548e-01  5.7488748596723516e-01  5.7775544639664911e-01  5.7777453367914888e-01  5.7491016332013767e-01  5.6613356490199052e-01  5.7779843265342479e-01  5.7493935033375576e-01  5.6615491557555608e-01  5.7782083135579931e-01  5.7496819375531572e-01  5.6617488587372566e-01  5.7783590269937601e-01  5.7498978278736945e-01  5.6618767103708167e-01  5.7783760497440040e-01  5.7499676378855158e-01  5.6618823639419802e-01  7.8841750189318083e-01  7.9222145012425094e-01  7.8163897742814514e-01  7.8165341154756740e-01  7.9226444085816450e-01  7.8845781763762879e-01  7.8856743059431544e-01  7.9237002477710083e-01  7.8173163229324050e-01  7.8872273019825334e-01  7.9251585471260011e-01  7.8185540254562924e-01  7.8890672066340639e-01  7.8201330708208716e-01  6.4604065474601446e-01  6.3633864020678066e-01  6.4242651824732966e-01  6.4240647158037623e-01  6.3632141044449753e-01  6.4605236530249743e-01  6.3626279845899825e-01  6.4605690457331577e-01  6.4233288296486823e-01  6.4602376967480257e-01  6.3616302772237943e-01  6.4221769385487104e-01  6.4593485187507660e-01  6.3602047862918798e-01  6.4205684698445953e-01  6.4576842937707712e-01  6.3583647139527200e-01  6.4185078508831128e-01  6.4548479272746750e-01  6.3564374468026286e-01  6.4163055248503087e-01  5.6412634281089491e-01  5.6379754552783945e-01  5.5367853302404402e-01  5.5362184188377550e-01  5.6375916784969804e-01  5.6409080999730099e-01  5.6366344950031844e-01  5.6401663716141726e-01  5.5348378584759494e-01  5.6392502518489751e-01  5.6354426850177053e-01  5.5332691945379076e-01  5.6383902816887987e-01  5.6343461242838011e-01  5.5319960476747310e-01  5.6377165452756217e-01  5.6335632755707188e-01  5.5314611552788406e-01  5.6371685379084002e-01  5.6331018677673361e-01  5.5319411748967429e-01  5.3576887063385303e-01  5.3100381155914989e-01  5.2468638211279728e-01  5.2467044776509297e-01  5.3100966121234816e-01  5.3575745554873633e-01  5.3573828355965314e-01  5.3101857838467015e-01  5.2462755900949665e-01  5.3571862125638003e-01  5.3103029401876678e-01  5.2458122367470994e-01  5.3570453992950418e-01  5.3104608944596265e-01  5.2454012982090104e-01  5.3570189918272859e-01  5.3106875780687290e-01  5.2451624598673507e-01  5.2453911579672519e-01  5.3110015794258070e-01  5.3571070003328936e-01  5.4856199298079145e-01  5.5890775444400931e-01  5.5828392407195693e-01  5.5907664089104425e-01  5.4865610942923460e-01  5.5812369501104009e-01  5.4847064129330625e-01  5.5873736770507210e-01  5.5801977214324772e-01  5.4843916203793142e-01  5.5862316169970816e-01  5.5807065814432522e-01  5.4856692522730777e-01  5.5864471915539182e-01  7.7342054026751628e-01  7.5923425349566964e-01  7.5925610552578660e-01  7.7341576558965330e-01  7.6224571194626789e-01  7.5933673326022066e-01  7.7338738760722248e-01  7.6227912244639517e-01  7.5940451025217581e-01  6.6417829686852770e-01  6.5719531830471878e-01  6.5341382867270603e-01  6.5340830492429525e-01  6.5719273951939461e-01  6.6417594786234291e-01  6.5339385970389841e-01  6.5718988264009504e-01  6.6419098068571170e-01  6.5337074595165745e-01  6.5718260535694040e-01  6.6420915525282997e-01  6.5716696099309468e-01  6.6422177417250738e-01  6.5334077015137570e-01  6.5713888241932084e-01  6.6422108710690742e-01  6.5330457640509609e-01  6.5710280590030146e-01  6.6420009452511897e-01  6.5325391191122162e-01  6.8758925702230356e-01  6.7482665672631525e-01  6.7901359134576678e-01  6.7900390284744139e-01  6.7481567668911613e-01  6.8757715725188495e-01  6.7478404275064796e-01  6.8753457389845352e-01  6.7896385061964271e-01  6.8746810732904284e-01  6.7472962532635739e-01  6.7889355829017894e-01  6.8738061058705302e-01  6.7465159355056992e-01  6.7879295556135322e-01  6.8727463311882520e-01  6.7454970735985620e-01  6.7866213216079851e-01  6.8715612235242296e-01  6.7442290981074060e-01  6.7850000624581930e-01  6.2883213912567959e-01  6.1986701939628919e-01  6.2969056292667314e-01  6.2969421808052850e-01  6.1987645172477446e-01  6.2884120462563931e-01  6.2886143422664242e-01  6.1988092720806931e-01  6.2969973060790896e-01  6.2967657187985171e-01  6.1986171901916187e-01  6.2885750356525649e-01  6.2960018350778302e-01  6.1979762657959259e-01  6.2879396125708442e-01  6.2944552225671768e-01  6.1967408098196908e-01  6.2863659768516067e-01  6.2917876499826120e-01  6.1948874707259849e-01  6.2837625346722470e-01  6.3696332019151547e-01  6.2747517330664337e-01  6.3368297386093675e-01  6.3370349568391038e-01  6.2750083600537632e-01  6.3695205502129526e-01  6.2754857082977911e-01  6.3689938386351830e-01  6.3374118602669272e-01  6.2756844533326916e-01  6.3679770787516443e-01  6.3374762369076798e-01  6.2752952561373354e-01  6.3663765585346554e-01  6.3369341403173007e-01  6.2740127624709274e-01  6.3640222500685473e-01  6.3354438883706865e-01  6.3605123764297677e-01  6.2714475713023399e-01  6.3322520895642886e-01  6.2707089454055576e-01  6.1571559425764899e-01  6.2388763735638653e-01  6.2389672296321896e-01  6.1569334747838111e-01  6.2703747228231943e-01  6.2695496779422777e-01  6.1562676256140592e-01  6.2387452840505275e-01  6.2683317390257176e-01  6.1552917781412642e-01  6.2381728566499384e-01  6.1540749990993049e-01  6.2667534356946064e-01  6.2371817707730082e-01  6.1526853148492178e-01  6.2648157821441197e-01  6.2357218085806820e-01  6.1511780955737783e