<?xml version="1.0"?>
<VTKFile type="UnstructuredGrid"  version="0.1"  >
<UnstructuredGrid>
<Piece  NumberOfPoints="983" NumberOfCells="4245">
<Points>
<DataArray  type="Float64"  NumberOfComponents="3"  format="ascii">1.790473408364985 4.016172545180251 1.536912093950385  1.903074918425123 4.038412914746047 1.669123903517955  1.914756744511855 3.995249942819004 1.509930377067344  1.922176617250014 4.068373234816239 1.487803500470629  1.909270854960658 4.11117360639391 1.653196645272388  1.796190853977514 4.089281918804936 1.516904904640935  1.801736221250897 4.162307321318176 1.496944332572499  1.91530294736388 4.183807808932712 1.637335320689515  1.929392048626509 4.141417671941715 1.465740805291567  1.936510946699707 4.214364635069387 1.443702406798688  1.921254418600705 4.256354958243357 1.621484265433211  1.807186721166672 4.235179113021578 1.477014843818907  1.943606580482338 4.287209852579352 1.421656198827101  1.927184077043987 4.328768979774442 1.605626269771988  1.81262351285447 4.307935984162016 1.457079372407438  1.950755601877356 4.359959854462751 1.399574131932408  1.933143252651837 4.401083585330181 1.589724803392464  1.818119133858744 4.380542315396425 1.437118667643772  1.958041217486873 4.43262830422282 1.377436498637106  1.939227149282546 4.473255465815862 1.573779769944089  1.823765573667297 4.453031034162179 1.41710472893359  1.987566522635452 3.594228991788682 0.8936841033191905  2.079550990475215 3.65279713333547 0.9543375697357158  2.139634259952488 3.558908750427282 0.8919534704686998  2.151007654171191 3.604198540329747 0.8213448037642879  2.091230474337025 3.706909230004768 0.8909001472790349  1.997173703348715 3.642593144236913 0.8254260900077008  2.006616231639379 3.691004130747001 0.7571831345436324  2.102737712785111 3.76106119005507 0.8274696781785014  2.162235057559706 3.649542948116427 0.750743515487386  2.015995258372449 3.739402282732506 0.6889333361932896  2.114184321332381 3.815205286420081 0.7640199599715356  2.173421131185759 3.694876274156475 0.6801180194429366  2.025374403889601 3.787763740597907 0.620676420256987  2.12563176132885 3.869321317453146 0.70054767138606  2.184614106644177 3.740181461136635 0.6094604373707715  2.195847204018817 3.785454271467785 0.5387660715457421  2.137129082399169 3.923397981318159 0.6370438085042359  2.034814937765926 3.836077572984371 0.5524082602230885  2.207167580940153 3.830694943417757 0.4680240102592114  2.148750592687733 3.977429128870122 0.5735031282482571  2.044351541009723 3.884330531755303 0.4841166504504843  2.283021603990135 3.96096962292933 1.513887819470633  2.272035887914794 4.000913156606151 1.663724800412715  2.415496698209911 3.978765562570008 1.614341330471688  2.279737738146166 4.07525372963166 1.647825388261515  2.290302763375482 4.035269360474468 1.489849900776532  2.422017179463774 4.054381667232915 1.596346527236592  2.287315344563661 4.149583988162409 1.631977199321231  2.204942948735122 3.669475143565603 0.9907839527721305  2.273642781712398 3.571889549623214 0.924364614340606  2.285461654180129 3.620597175099521 0.8559363637132119  2.216237952379778 3.727055261878287 0.9302332825926268  2.297158026938065 3.669354363102045 0.7875052344983784  2.227385838465381 3.784680970010135 0.8696853639691521  2.308819598006042 3.718107548656127 0.7190462797634352  2.238492716798018 3.842300298172151 0.8091026448561698  2.320483224178521 3.766839855720908 0.65054684915988  2.249600664345746 3.899901399291876 0.7484864317227926  2.332173302467771 3.815553623430465 0.5819940157732991  2.260759535724763 3.957478062280138 0.6878259384277311  2.343945370662565 3.864251573169256 0.5133675153189846  2.271995920611591 4.015034196002515 0.6271083452021234  2.028801269011404 3.968752424816497 1.468248741696953  2.033655422156091 4.014139313947031 1.615121326371466  2.151645821237697 3.989185801141555 1.564612938214981  2.158769911349415 4.062971225597811 1.543480783921342  2.040332408396287 4.087440891829811 1.596419643937921  2.03643263002583 4.042024859707964 1.443525799980549  2.165754346610068 4.136729466712679 1.522400333188365  2.046858000292705 4.160682560928285 1.577783350710528  2.043889668648519 4.115257895193372 1.418853532150432  2.172658922660547 4.21044486562228 1.501336474009267  2.053296345955887 4.233839901932283 1.559169416409528  2.051255298935414 4.188429502072318 1.394199683133948  2.179534315060716 4.284109289661574 1.480258700169515  2.059711175924428 4.306914285540704 1.540538887368661  2.058593923686737 4.261530603683885 1.369535606644111  2.1864289788456 4.357728173970825 1.459140284222463  2.066157435049382 4.379906778365292 1.521863828609614  2.065968218667088 4.334559547346839 1.344836049536054  2.193401919416072 4.431317509058744 1.437960489546042  2.072694395307199 4.452838163122023 1.503133663394622  2.073454204920515 4.407520743103348 1.320078748477501  2.251553744850396 4.042017486380335 2.013153874279778  2.284956404306805 4.038566050896942 2.138752941815341  2.375692651984524 4.02457400894105 2.015451782083523  2.384410022780154 4.096419967425221 2.014185501301291  2.294449406362914 4.108651547649915 2.13960364611229  2.260992642092908 4.113312253737861 2.011512657562841  2.393008780497234 4.168224603895079 2.012975267077366  2.303803635539512 4.178686021036653 2.14050921098991  2.270278701986277 4.184549257479142 2.009926857735866  2.40153546542911 4.239962778474783 2.011790061792853  2.313071935213945 4.248625378840359 2.141439302620898  2.279476605980889 4.255706771887829 2.008365085956465  1.774896768849943 3.821266947876219 1.099132480211494  1.866714694751507 3.761422434396414 1.027374035301392  1.772688554703636 3.724146192109664 0.9754291018705841  1.780098138473904 3.783123441039283 0.917239176366353  1.873274071958096 3.825195580326686 0.974811308886914  1.78143285545783 3.887872010880142 1.052142678636546  1.787752583119127 3.954426949972238 1.005230656053586  1.879643385370146 3.888963256041079 0.9223103487167504  1.787269642885295 3.842079487202289 0.8591444934551473  1.7939471426907 4.020897192964259 0.9583744509378379  1.885913451028807 3.952681172722337 0.8698443730638363  1.794327423819119 3.90097412727446 0.8011098942980773  1.892165427393022 4.016332370796992 0.8173936590400024  1.800114656762207 4.087263619484371 0.9115534106063868  1.801365282583349 3.959786323681531 0.7431181960295991  1.806347214044435 4.153515445460504 0.864734822788192  1.898480792138349 4.079900766644581 0.7649480570845276  1.808471133755371 4.018498028854735 0.6851491577491892  1.812748509350451 4.219656393730229 0.8179085238986555  1.904910100129781 4.143405573762313 0.7124595813413896  1.815756105069644 4.077108435629564 0.6271728225555716  2.398680058404701 4.003260424359119 1.757805539415065  2.406127577013462 4.077961162981383 1.74703079316369  2.156003467843872 4.024195088835892 1.709778278901941  2.163330723581689 4.097762125893322 1.695385089259567  2.170515095918109 4.171274624236339 1.681062013243044  2.294816697914024 4.223876015947027 1.616146997615975  2.177620537101686 4.244731000331335 1.666758108245929  2.302285841541003 4.298124469841355 1.600305260459891  2.184697908893618 4.318122613690353 1.652440844541133  2.309760770825546 4.372334199873141 1.584426149333631  2.191799379401616 4.39145296962655 1.638082402875186  2.317283206911457 4.446521033020494 1.568482632695256  2.1989754457113 4.464721155923155 1.623650474043642  1.573109499448191 4.015308209569227 0.6647385915107729  1.43122354338561 3.963466722781981 0.5960231046808284  1.554053893259048 3.898419183265155 0.5453636078169591  1.57014982967687 3.956751950874259 0.7231342660990886  1.433349847814561 4.019663278924696 0.5341548732482251  1.576354272493038 4.073705257530133 0.6063469866303924  1.557522913707922 3.950345200488883 0.479955643751196  2.297482426833231 4.109576160337097 1.465846752726537  2.304595630964064 4.183865634928198 1.441855162550786  2.311678423194969 4.258127686284997 1.417847594311979  2.318763340897528 4.332366364685004 1.393799225435426  2.325886357374689 4.406598595105878 1.369686141480405  1.802244960847932 4.07134863666772 1.805223719065028  1.778758967606242 4.045012962721056 1.657603132642092  1.783604219392351 4.117644737634052 1.641883609337818  1.806002547213472 4.143331080270713 1.795216358685253  1.788284365732945 4.190090375217077 1.626231040936225  1.809662032378418 4.215164010163208 1.785250769642805  1.813272435449342 4.286833497549215 1.77529817965017  1.792886179097487 4.262374852528442 1.610599660210536  1.816876064532781 4.35836394291655 1.765333430009568  1.797474855947157 4.334517255069067 1.594959029367774  1.820509785793698 4.429754528251181 1.755334778052254  1.802117030844129 4.406527410230494 1.579285524639288  1.80688452000766 4.478413214472174 1.56357446073909  1.824231936312007 4.501016228829728 1.745299507518681  2.150422435015009 4.056079383078362 2.097315311861633  2.159272191175894 4.126208624186454 2.09722132399071  2.167963973621961 4.196226696539916 2.097178619106567  2.176564450173387 4.266134121709621 2.097154711449122  2.322310507683724 4.318471898539953 2.142357625367205  2.185137574124413 4.335929475605081 2.097117629199715  2.288645505297647 4.326779551673274 2.006792488781218  2.331570190506974 4.388230762868932 2.143231970087048  2.193743181733871 4.405612048685393 2.097036600127641  2.297841539054628 4.397771904064106 2.00517546403567  2.340917155101385 4.457915559051974 2.144025272857702  2.202443862104513 4.475171421259872 2.096872001292317  2.307134101986626 4.468686007485548 2.003472453120952  1.666743351624876 3.76838351041185 1.008434319868907  1.672232594728891 3.831281859079667 0.9546428853470859  1.67746672802005 3.894123958177911 0.900962853627758  1.682565222934928 3.956873512822855 0.847378201884727  1.687630527980823 4.019510296930626 0.7938648669680672  1.692781659843327 4.08203295334854 0.7404038168103015  1.698179322959757 4.144440602330318 0.6869126605364841  2.208058680399384 3.773051710462024 1.113680961217945  2.229092631543801 3.853598394708
[...]
<PointData  Scalars="f_14"> 
<DataArray  type="Float64"  Name="f_14"  format="ascii">8.8229209860174451e-01  8.7265096545330267e-01  8.7205808378139749e-01  8.7204161552834469e-01  8.7263691001281263e-01  8.8229703035120677e-01  8.8228899446737041e-01  8.7259780311839052e-01  8.7198230290961876e-01  8.7189868091258915e-01  8.7254075873412196e-01  8.8227587402935614e-01  8.7180140024338715e-01  8.7246852539421804e-01  8.8225725554385837e-01  8.7169842832722588e-01  8.7238103900272490e-01  8.8222984635714774e-01  8.7160154936246481e-01  8.7227624032108531e-01  8.8219434092631965e-01  8.6806493989806410e-01  8.6031719606353962e-01  8.5570744615541705e-01  8.5565609700797940e-01  8.6025810172793638e-01  8.6805881415646646e-01  8.6803560093368259e-01  8.6011280755057240e-01  8.5554138862013462e-01  8.6799209733195581e-01  8.5993152376253101e-01  8.5539386752547286e-01  8.6793622450341457e-01  8.5974053707151599e-01  8.5523642259511701e-01  8.5508956932299729e-01  8.5956496961012085e-01  8.6787374899321634e-01  8.5498790983513540e-01  8.5945778351250179e-01  8.6778678878532756e-01  8.4226242673472695e-01  8.4247701978418466e-01  8.3129436751269414e-01  8.4245034533244290e-01  8.4223685693047579e-01  8.3127714308297507e-01  8.4238049879057497e-01  8.5009952698133306e-01  8.4481440617269576e-01  8.4474545901817455e-01  8.5005788103787372e-01  8.4457857620656218e-01  8.4995543016118646e-01  8.4437126532872187e-01  8.4981091053924762e-01  8.4415286728795413e-01  8.4965825228352365e-01  8.4395606184904837e-01  8.4952607451267437e-01  8.4385426906441585e-01  8.4940795977334826e-01  8.6289441591771143e-01  8.6209585419980328e-01  8.5266049095574936e-01  8.5264900573205826e-01  8.6208971806399426e-01  8.6287669075350426e-01  8.5261866661901720e-01  8.6207467299709650e-01  8.6283148169553037e-01  8.5256436085645693e-01  8.6203983781494586e-01  8.6276347266399234e-01  8.5248254734631390e-01  8.6198273178180052e-01  8.6267551380431062e-01  8.5237030434692429e-01  8.6189986486306258e-01  8.6257008914541689e-01  8.5222596972552833e-01  8.6177868364524923e-01  8.6244991229699786e-01  8.4253053862229266e-01  8.3936106360881901e-01  8.3252849930667427e-01  8.3249649386615487e-01  8.3932527349296304e-01  8.4248942272425031e-01  8.3241574253796147e-01  8.3922526256494179e-01  8.4237856026628966e-01  8.3229847008494562e-01  8.3908636169438022e-01  8.4222624273036562e-01  8.8483265644144693e-01  8.7768213167505826e-01  8.8536976192836891e-01  8.8536795743101038e-01  8.7771185059079848e-01  8.8485292563253015e-01  8.8489641468071778e-01  8.7779416752158212e-01  8.8535584730722561e-01  8.8494471702280686e-01  8.7787915897480839e-01  8.8534668063609345e-01  8.7794703985074041e-01  8.8498688991810359e-01  8.8532921084887539e-01  8.8500994977556580e-01  8.7796920677799406e-01  8.8529502359960410e-01  8.8500054362752822e-01  8.7788318045779579e-01  8.8527395991292790e-01  8.3189056578187037e-01  8.3186766928928901e-01  8.5172838794796113e-01  8.5171559159125898e-01  8.5167645614278231e-01  8.4227408572383589e-01  8.5160880450562693e-01  8.4213623202303711e-01  8.5151490307228894e-01  8.4197050077510338e-01  8.5139612337323156e-01  8.4177913853590980e-01  8.5125294939586771e-01  9.0372478222340757e-01  9.1486265881548379e-01  9.0548332410202648e-01  9.0351748175704272e-01  9.1508460479018383e-01  9.0387420611251057e-01  9.0563536237727271e-01  8.4218429907545556e-01  8.4210160566416370e-01  8.4198605737506604e-01  8.4183634581741451e-01  8.4165674609146801e-01  8.8082445022033595e-01  8.8300948322688066e-01  8.8301167063191099e-01  8.8081728956528660e-01  8.8300160054198618e-01  8.8080948473677423e-01  8.8079851878307558e-01  8.8298683621366736e-01  8.8077617568216138e-01  8.8296676182955991e-01  8.8073366343042059e-01  8.8293843380408166e-01  8.8290325391393987e-01  8.8067618158582095e-01  8.5054412432971505e-01  8.5051226180421902e-01  8.5042760231816283e-01  8.5030627601253128e-01  8.3892806275677934e-01  8.5017065214583831e-01  8.4205372995513195e-01  8.3876952762824153e-01  8.5004095510218325e-01  8.4188124605423253e-01  8.3863718364151230e-01  8.4992704004428610e-01  8.4173520299989224e-01  8.9390883562044010e-01  8.9394582397743361e-01  8.9401563578900889e-01  8.9410555365931732e-01  8.9420028534080076e-01  8.9428741470172124e-01  8.9435918004697190e-01  8.4935738455369048e-01  8.4731060864555130e-01  8.4021825476708556e-01  8.4930134152140468e-01  8.4724809676204127e-01  8.4019618562486198e-01  8.4913472310913407e-01  8.4709617309744412e-01  8.4012827388797340e-01  8.4892026718225622e-01  8.4230112361175491e-01  8.3678617649103948e-01  8.4224535647804144e-01  8.3672909967964060e-01  8.4209619150762005e-01  8.3659891850769297e-01  8.4190338299489642e-01  8.3643439752333093e-01  8.4169816396870512e-01  8.3625207509637167e-01  8.4151021449968277e-01  8.3606498361413606e-01  8.4138347013212056e-01  8.3592847324666497e-01  8.5494568035270146e-01  8.4515234979333176e-01  8.5492853041160821e-01  8.4513682969884185e-01  8.5487519676561508e-01  8.4509066761677420e-01  8.5479210874110056e-01  8.4501503503958864e-01  8.4690179281414668e-01  8.5468924282353231e-01  8.4491242147200485e-01  8.4668824841060275e-01  8.5457717827807955e-01  8.4478556006107253e-01  8.4648124465267138e-01  8.5447182313606629e-01  8.4463693231550330e-01  8.4634001990224406e-01  8.9222373525123622e-01  8.9225886801819554e-01  8.9233199738753100e-01  8.9242449988244577e-01  8.9251902892945567e-01  8.9259839916168060e-01  8.9264550193423731e-01  8.5621347341195908e-01  8.5617857944276798e-01  8.5608398778706751e-01  8.5595747650808240e-01  8.5581953049495008e-01  8.4869384079708654e-01  8.5569403383801856e-01  8.4848895600167584e-01  8.5560994135898627e-01  8.4835187931946798e-01  8.5038570927071189e-01  8.4093502155917188e-01  8.5202764089327732e-01  8.5200735037672370e-01  8.4089732891514157e-01  8.5034637853189265e-01  8.5194427634350667e-01  8.4079368815489097e-01  8.5024279784093815e-01  8.5184875088840428e-01  8.4064776137247299e-01  8.5009963893458529e-01  8.5173209922009208e-01  8.4047877045074915e-01  8.4993993706705462e-01  8.5160439838180391e-01  8.4030390100004027e-01  8.4978507125168745e-01  8.5146892894403536e-01  8.4014044827706147e-01  8.4965139057278316e-01  8.6560540828900678e-01  8.6852386921660896e-01  8.6852361220940677e-01  8.6561365771490828e-01  8.6850765586452028e-01  8.6561520881556520e-01  8.6847682824913275e-01  8.6559779755467248e-01  8.6843015464943396e-01  8.6556369664955990e-01  8.6836416635105806e-01  8.6551199115036592e-01  8.6826784053067174e-01  8.6542956384187752e-01  8.5391037860238994e-01  8.5390381934106774e-01  8.5389266097333227e-01  8.5386015427035555e-01  8.5380303730897744e-01  8.5371793887307723e-01  8.5359256901532432e-01  9.1370825005333867e-01  9.1157161757234240e-01  9.0284431284803246e-01  9.1163303050094180e-01  9.1378730713770662e-01  9.0291304670595740e-01  9.1178639807749517e-01  9.1399002923798656e-01  9.0307787389878702e-01  9.1200309792648993e-01  9.1426553763711760e-01  9.0329019359662877e-01  9.1225052323845435e-01  9.1456986565723619e-01  9.1249148656357149e-01  9.1269248380798695e-01  8.6086417376930158e-01  8.6084704710655846e-01  8.6080728694480080e-01  8.6074416232024620e-01  8.6065929923173135e-01  8.6055395634228160e-01  8.6042547524037527e-01  8.7458132703611202e-01  8.7456340501024565e-01  8.7451592200610329e-01  8.7445579677009055e-01  8.7438223397207115e-01  8.7429078740094479e-01  8.7418301695818978e-01  8.9099095587906441e-01  8.8107982898982917e-01  8.8104976733513096e-01  8.9099864694422426e-01  8.8098521436490840e-01  8.9102563334230123e-01  8.8091239620534978e-01  8.9106503417723182e-01  8.8083454570489228e-01  8.9111104890940773e-01  8.8075466950523629e-01  8.9115536349404256e-01  8.8069321973692616e-01  8.9118271312060593e-01  8.5762075001218308e-01  8.5754937431042244e-01  8.5737605709266740e-01  8.5716397338228456e-01  8.5694504432575680e-01  8.5675526584304218e-01  8.5666299803801182e-01  8.5043815814727530e-01  8.5040379617784367e-01  8.5031103702957544e-01  8.5018333992926753e-01  8.5004384702511704e-01  8.4991370462340377e-01  8.4980811302333337e-01  8.5975378075167996e-01  8.5975205991049175e-01  8.5970398904375567e-01  8.5970170994426187e-01  8.5957368083269703e-01  8.5955494919510456e-01  8.5940321336146819e-01  8.5936464166685600e-01  8.5922671174603693e-01  8.5916661689123552e-01  8.5907561529411103e-01  8.5899436983702804e-01  8.5898161036027865e-01  8.5888941990213996e-01  8.9452352688924419e-01  8.9458718715818775e-01  8.9466837436762625e-01  8.9475292296067088e-01  8.9482846249352188e-01  8.9488246716411513e-01  9.5489128181952820e-01  9.4513803633145177e-01  9.4689137267124490e-01  9.4693556525374367e-01  9.4519473266331655e-01  9.4564026872418050e-01  9.5549225589701714e-01  9.4734428857606023e-01  9.4707926086884386e-01  9.4604081990464661e-01  9.5596339587408863e-01  9.4773275653640887e-01  9.4656227992942821e-01  9.5657103838037605e-01  9.4824231546110027e-01  9.4720172705855166e-01  9.5729102016116285e-01  9.4888831152779263e-01  8.6093186814372924e-01  8.6089377355503705e-01  8.6078634766118189e-01  8.6064468928783899e-01  8.6049015972543330e-01  8.6034322638417893e-01  8.6022697666860481e-01  8.7005979691224511e-01  8.7039493510925303e-01  8.7037955234477671e-01  8.7005654617579042e-01  8.7034109972614704e-01  8.7001136864034756e-01  8.7028284736212236e-01  8.6994238765283671e-01  8.7020917580228407e-01  8.6986199409711651e-01  8.7012283989913264e-01  8.6978172618021343e-01  8.7002052136752361e-01  8.6970703511105685e-01  8.9552265864658964e-01  8.9553665464287113e-01  8.9557538407777615e-01  8.9563334577434939e-01  8.9570320379480239e-01  8.9577607491211675e-01  8.9584040053354286e-01  9.1735796270578041e-01  9.0910116556661758e-01  9.0913971008857475e-01  9.1741685926875405e-01  9.0924818126457352e-01  9.1758812595799444e-01  9.0940977851721438e-01  9.1783464710871698e-01  9.0960263479575953e-01  9.1812697798231080e-01  9.0979695869923560e-01  9.1842724443153956e-01  9.0996573281228421e-01  9.1869311288188915e-01  9.3838914452080990e-01  9.3843837922090245e-01  9.4535888246471178e-01  9.3859004003462065e-01  9.3884886699702608e-01  9.3921479918857409e-01  9.3968179209310909e-01  9.4024164640664554e-01  8.8207850856908443e-01  8.8208345872105054e-01  8.8209210001082883e-01  8.8209832142483657e-01  8.8210012483691680e-01  8.8209298319559026e-01  8.8206195064984472e-01  9.1944769595769038e-01  9.1155424556718490e-01  9.1024451530180639e-01  9.1028666715723339e-01  9.1161018484480016e-01  9.1950289401516627e-01  9.1040100122876388e-01  9.1175389529691442e-01  9.1965128944666319e-01  9.1057077879076309e-01  9.1195767092020674e-01  9.1987722403739502e-01  9.1078120619184921e-01  9.1220174670735743e-01  9.2016549578225026e-01  9.1101339833408090e-01  9.1246295571638880e-01  9.2049447752935520e-01  9.1123703021373992e-01  9.1269703894472953e-01  9.2083206589877875e-01  8.7286710672001588e-01  8.7283871184693707e-01  8.7276290409201862e-01  8.7266440530606915e-01  8.7255446485403787e-01  8.7244281290118819e-01  8.7234921543143473e-01  8.6873838074788923e-01  8.6167972646809687e-01  8.6165803496913151e-01  8.6870787083856538e-01  8.6159959870853153e-01  8.6863947185700241e-01  8.6151350683848338e-01  8.6854700432601140e-01  8.6140901982984952e-01  8.6843903108350740e-01  8.6129441102752535e-01  8.6832201163028089e-01  8.6117597265460222e-01  8.6820586290238466e-01  9.4652980773659146e-01  9.3751918455588690e-01  9.3758854775382305e-01  9.4661608951444054e-01  9.3777572047412749e-01  9.4685727659183838e-01  9.3807397584025154e-01  9.4723081823310118e-01  9.3847374938480088e-01  9.4772897817358370e-01  9.3895218154572890e-01  9.4832873712378019e-01  9.3948850004533568e-01  9.4897394263778867e-01  8.9152366973172226e-01  8.9172130061062582e-01  8.9173604849542321e-01  8.9153687298917939e-01  8.9177808947189641e-01  8.9157191963021942e-01  8.9183620026326693e-01  8.9162165925887038e-01  8.9190051455589869e-01  8.9167944981834746e-01  8.9195988506213875e-01  8.9173790254906693e-01  8.9200282176635914e-01  8.9178783466851919e-01  9.2947656379020582e-01  9.2953053120386175e-01  9.2968933059660908e-01  9.2994658463872260e-01  9.3028921396077491e-01  9.3069590006853531e-01  9.3114522315015946e-01  8.4142344884303599e-01  8.4138119104022269e-01  8.4126508284576762e-01  9.0052812561674400e-01  9.0054698696988278e-01  9.0058641612631662e-01  9.0065041973821391e-01  9.0073682427607871e-01  9.0084102950848122e-01  9.0095575397525896e-01  9.0123495246243468e-01  9.0126041088910080e-01  9.0133311410826733e-01  9.0143941957859908e-01  9.0156953482517455e-01  9.0171275604723455e-01  9.0185162941270214e-01  8.6496264522239086e-01  8.6496715840579486e-01  8.6496727933556405e-01  8.6494910038451667e-01  8.6491443670969814e-01  8.6486058715192771e-01  8.6475566268706971e-01  8.6943992881060628e-01  8.6937478450756223e-01  8.6925592185015699e-01  8.6911389168612885e-01  8.6896434334671124e-01  8.6882376746476375e-01  8.6871883558863139e-01  9.2801688945354033e-01  9.2061469167037890e-01  9.2068589596204997e-01  9.2811883940014428e-01  9.2086578648313222e-01  9.2837091092140145e-01  9.2112863115751742e-01  9.2872651023095854e-01  9.2145569907554958e-01  9.2915952879774266e-01  9.2181652670164482e-01  9.2963193729613935e-01  9.2215311048573645e-01  9.3007848915156099e-01  9.3845142421087757e-01  9.2990831305102906e-01  9.2807432607210938e-01  9.2815637653977712e-01  9.2995345869644408e-01  9.3852811394443880e-01  9.2838342604310042e-01  9.3011752889656463e-01  9.3872778813333912e-01  9.2870778930329856e-01  9.3038116003260785e-01  9.3903637434059706e-01  9.2910407912691106e-01  9.3072412327869702e-01  9.3944119822925054e-01  9.2953320742656631e-01  9.3112046948350513e-01  9.3992120841853577e-01  9.2993850801326006e-01  9.3156835715378905e-01  9.4045053472517992e-01  8.7363351677157108e-01  8.7359261051941983e-01  8.7349957277906654e-01  8.7338476157036826e-01  8.7325924235961228e-01  8.7313145228926436e-01  8.7301645386157156e-01  9.2044797620066143e-01  9.2049250063505905e-01  9.2063773316906972e-01  9.2086264486661840e-01  9.2114997554366373e-01  9.2147716792276202e-01  9.2181636263101685e-01  9.2136682950067583e-01  9.2143984261627099e-01  9.2162710591265629e-01  9.2189893261283362e-01  9.2222392645572793e-01  9.2256758476489265e-01  9.2290676473986222e-01  9.3018936215335124e-01  9.3024233937495793e-01  9.3039547781889531e-01  9.3064191173450095e-01  9.3096324365727245e-01  9.3134337429842617e-01  9.3179135531744695e-01  8.9225884831849134e-01  8.9227070565266420e-01  8.9230275634878475e-01  8.9234891329471355e-01  8.9240498648204170e-01  8.9246360925312052e-01  8.9250135677193532e-01  9.3820672240236136e-01  9.3824042043122158e-01  9.3835826685150558e-01  9.3858165220981360e-01  9.3890233274507551e-01  9.3930921587593497e-01  9.3982796818173076e-01  9.1234105254557318e-01  9.0333811757039029e-01  9.0335817402898244e-01  9.1237757791034013e-01  9.0342109475992360e-01  9.1249149962471832e-01  9.0352169345248068e-01  9.1266404850471117e-01  9.0364727191844374e-01  9.1287580249770006e-01  9.0378060179428699e-01  9.1309618497306566e-01  9.0391387444263482e-01  9.1329316224708768e-01  8.9052922181681249e-01  8.9055845847529314e-01  8.9064034363491740e-01  8.9073991311286727e-01  8.9083421425282516e-01  8.9089965733713117e-01  8.9090384453369809e-01  9.0184343462563110e-01  9.0187167041245853e-01  9.0194511456673243e-01  9.0205413643556331e-01  9.0218536546707673e-01  9.0232565473655491e-01  9.0245956263298255e-01  8.6364081278267679e-01  8.6362046778330270e-01  8.6355583441729289e-01  8.6346442237474430e-01  8.6335651882441278e-01  8.6324218818191245e-01  8.6313215250023967e-01  8.7091014829104707e-01  8.6083973795448610e-01  8.5968640154863318e-01  8.5964609348358345e-01  8.6080697894895641e-01  8.7092041768080664e-01  8.5952604288867351e-01  8.6072584785207762e-01  8.7094181521570990e-01  8.5936928815826796e-01  8.6062079111213718e-01  8.7095342749377180e-01  8.5920675837674898e-01  8.6039670889525510e-01  8.7090154168399536e-01  8.5906756189962019e-01  8.7094291226364429e-01  8.5898531222885921e-01  8.6030208639517836e-01  8.7082178810835220e-01  9.3693213664864561e-01  9.2849060783708182e-01  9.2835727190002104e-01  9.2841615440276948e-01  9.2854998430243485e-01  9.3699197449349692e-01  9.2858875522580486e-01  9.2872063617101352e-01  9.3716840581339222e-01  9.2885590564039444e-01  9.2898344253764009e-01  9.3745259617735921e-01  9.2920491510086267e-01  9.2932707080656873e-01  9.3783876146409051e-01  9.2961766626019648e-01  9.2973668372421814e-01  9.3832033362082312e-01  9.3006767062866647e-01  9.3019101392946180e-01  9.3889348396520689e-01  8.8289163398403647e-01  8.8288777785068218e-01  8.8288778407566715e-01  8.8288456486847888e-01  8.8287780988836739e-01  8.8286257577189409e-01  8.8282512915876987e-01  8.8074478276052748e-01  8.8077633381240827e-01  8.8083923956863441e-01  8.8090461285862698e-01  8.8095285506197862e-01  8.8096480784349962e-01  8.8091533023739166e-01  9.2098631250045238e-01  9.1082877203237123e-01  9.1086553007843674e-01  9.2105866085713939e-01  9.1095714728661747e-01  9.2126016123581478e-01  9.1109974583659825e-01  9.2155044882692327e-01  9.1128336327068848e-01  9.2189902619969732e-01  9.1149062562328009e-01  9.2226529205959540e-01  9.1171001638986748e-01  9.2259400477472775e-01  9.0280661084018865e-01  9.0285358225560042e-01  9.0298386761734539e-01  9.0315961764387631e-01  9.0335397928050920e-01  9.0354006970101508e-01  9.0367837658245065e-01  9.1993362724789751e-01  9.1101404022969512e-01  9.1105388473869076e-01  9.1997922087030970e-01  9.1117015925526246e-01  9.2011351291771792e-01  9.1134261127051530e-01  9.2032171380216377e-01  9.1155075365715399e-01  9.2058838033050239e-01  9.1177385864403659e-01  9.2089413266300157e-01  9.1198831353418908e-01  9.2121893452864068e-01  8.7752949750124576e-01  8.7756204522830494e-01  8.7763442565381922e-01  8.7770834409526310e-01  8.7776661159115388e-01  8.7778958367430338e-01  8.7772940542616706e-01  8.4110572304468478e-01  8.4091967586022898e-01  8.4072402317753547e-01  8.4054851030392463e-01  8.5059638420586703e-01  8.5005368715410234e-01  8.5055802368930666e-01  8.5002606905488542e-01  8.5046959705591263e-01  8.4995035444787270e-01  8.5035235214996563e-01  8.4984347784617331e-01  8.5010698094119141e-01  8.4961395506024762e-01  8.4972544055508459e-01  8.5001313923293009e-01  8.4951785000956193e-01  9.0186179696652446e-01  9.0190677443315825e-01  9.0202515689952589e-01  9.0218161142916964e-01  9.0235547604989863e-01  9.0252019931689587e-01  9.0263241282765183e-01  9.2511696049152115e-01  9.1546083456467353e-01  9.1118740264235965e-01  9.1122889687916520e-01  9.1133347943972920e-01  9.1149075223794918e-01  9.1169065669747451e-01  9.1191770646845149e-01  9.1215466985228277e-01  9.2807074975701809e-01  9.2811799078208335e-01  9.2826064599379798e-01  9.2849648868830736e-01  9.2881469858733567e-01  9.2920250157849882e-01  9.2964870727082161e-01  8.9980015833720173e-01  8.8987832068647077e-01  8.9986068711858225e-01  8.9989634975405242e-01  8.8991528051334945e-01  9.0941518146507960e-01  9.0965637423179047e-01  9.0969557173088678e-01  8.7957739611290686e-01  8.7957003429189407e-01  8.7959372334096053e-01  8.7962172616603274e-01  8.7962763060137006e-01  8.7958735661639953e-01  8.7948871837163511e-01  9.1905789261910908e-01  9.1884451090005492e-01  9.1888481675221312e-01  9.0049828194199555e-01  8.9086170672834553e-01  8.9976185528478603e-01  8.9980100006789754e-01  8.9088374883296673e-01  9.0054964950666161e-01  8.9991269742716595e-01  8.9093914760287696e-01  9.0069705466603123e-01  9.0006478529000422e-01  8.9101210004592368e-01  9.0088674778890143e-01  9.0022646693654040e-01  8.9107607739212713e-01  9.0108264462863619e-01  9.0036708181079395e-01  8.9110717994668753e-01  9.0124698220455302e-01  9.0045069851379778e-01  8.9109810359785557e-01  9.0131612117724569e-01  9.0165757966702675e-01  9.0165914289731375e-01  9.0167213601754970e-01  9.0171132354228511e