<?xml version="1.0"?>
<VTKFile type="UnstructuredGrid"  version="0.1"  >
<UnstructuredGrid>
<Piece  NumberOfPoints="1007" NumberOfCells="4327">
<Points>
<DataArray  type="Float64"  NumberOfComponents="3"  format="ascii">7.934440710294164 3.997439614449585 2.198130916549096  7.832696423679625 4.000708113402715 2.139686622857154  7.86853945463513 3.989685264426098 2.295754972297622  7.871337222044698 4.047120218036699 2.300233483382296  7.8345960521989 4.059753398786164 2.142443208276615  7.933718358233222 4.055547616982287 2.203091091996743  7.836391882886629 4.118991856269262 2.145160288893846  7.932960985698721 4.113867507161552 2.208005606545632  7.874037363446805 4.10481355364467 2.304732446270388  7.838121782580591 4.178465119965788 2.147883021778873  7.932181097251869 4.1724353526761 2.212935413651445  7.876702759779946 4.162741737316836 2.309248784603636  7.839843905707599 4.23817754441224 2.150642093706682  7.931399212220525 4.231271056683665 2.217919857422229  7.879386235185541 4.220928294232024 2.313803539795805  7.841603294341793 4.298156419125681 2.153467800950978  7.930630483257713 4.290433839191646 2.223007611554669  7.882151188105116 4.279430253612083 2.318413133843713  7.929857522858907 4.349974512343684 2.228260961943342  7.843497111981597 4.358537995520314 2.156427973154706  7.885095326526407 4.338329901853133 2.323126905538317  8.207475029603891 3.967695244631578 2.47057760246273  8.171864728267227 3.982341062613199 2.369459403059518  8.087444406710059 3.973848497477081 2.415720925543038  8.086574877081913 4.029484126079774 2.423634102753222  8.168632146551568 4.03787766554902 2.378107055287793  8.20550590422692 4.022391793229614 2.480602212822068  8.085721376337629 4.085357329266033 2.431530702328439  8.165464825771934 4.093685546858451 2.386686239087987  8.203595160127625 4.077335990856516 2.490588676655047  8.084879726262763 4.141492720306021 2.439461980442442  8.16230581811867 4.149748577596275 2.395299018409189  8.20169358416679 4.132537791930126 2.500614019783844  8.084039612131679 4.197915058000834 2.447469683684047  8.159116339320475 4.206078407331259 2.404003137026968  8.199771187598893 4.18802489099375 2.510723389529691  8.083190475446944 4.254691792651064 2.455594620413413  8.155844599490791 4.262701187666272 2.412853185922518  8.197784683976572 4.243846040476119 2.520979962881519  8.082264986000348 4.311919540489148 2.463895897236507  8.152429197691882 4.319718417676606 2.421904758239475  8.19571086165174 4.300096826737729 2.531458913783163  8.144909257366267 4.007286675836069 2.563094986742033  8.145033731006141 4.062119986655923 2.572562614889263  8.145181086948975 4.117221348506737 2.582056185523195  8.145347308488459 4.172624725008237 2.591618395128133  8.145542097081975 4.228406477803728 2.601282778316311  8.145681757268314 4.28466246339261 2.611135735169881  7.750478744671098 4.00154869779594 2.267713075281797  7.755952496677304 4.059777013513634 2.270668032482279  7.761272887095173 4.118278540516778 2.273673120305146  7.766542138638913 4.176982569528078 2.276704075308301  7.771849793436668 4.235919165618624 2.279750978358936  7.777294102554839 4.295151378380817 2.282826251955457  7.783004268265292 4.354807095701696 2.285956139562538  8.294816223362385 4.049261228695586 1.967635809802287  8.173430951253961 4.020466724583418 2.077507408631679  8.311303499710379 4.038644455776517 2.085645466780971  8.301314028768589 4.097631990500277 2.092046214211678  8.166433489209712 4.079687122053372 2.082519817117849  8.282535861433791 4.11017266339964 1.971674489761229  8.270523184886772 4.171289698658777 1.975513169044637  8.159564805173561 4.139155299367092 2.087383775420166  8.291546283481079 4.156929643442346 2.098273926503519  8.152706005418073 4.198827267661041 2.092233166946296  8.258575972086913 4.232614474175747 1.979327006626255  8.281819394883978 4.216420062928576 2.104473600375389  8.145762453433161 4.258709272714468 2.097175136945506  8.246534022581084 4.294090790446432 1.983226429171328  8.271994341994377 4.276076238640846 2.110757888602808  8.234261738735649 4.355692881251115 1.987258321554007  8.13866060033668 4.318873674400593 2.10227512559805  8.261941554448029 4.335860647034629 2.117183879328102  8.221486929936338 4.417436731622852 1.991501554946359  8.131284171890417 4.379374826281685 2.107593686497002  8.251500654600827 4.395870596503079 2.123837790335006  8.863713397737618 4.042471805275261 1.302634377542037  8.72390637190086 4.025993198228575 1.329497282865088  8.797870702052752 4.083990365694747 1.421130434442841  8.784602704513889 4.150843498321073 1.391042412136392  7.968698968981044 4.010230575738307 1.813500500081994  7.87490901612593 4.008125162806969 1.888262517025648  7.957214907475893 4.011391285706919 1.907339266605891  7.954010650749837 4.073298272932183 1.90680715582847  7.872812886690507 4.070342641182775 1.887053032533219  7.964680928045239 4.07354192197507 1.810719026877772  7.950800498681646 4.135424943201987 1.90610956211482  7.870662076712049 4.132762475984286 1.885693405938894  7.960663829673428 4.137038050254168 1.807735089370143  7.947529118330603 4.197780309162228 1.905381781765047  7.868450401113043 4.19538834789525 1.884302756468349  7.956578961724018 4.200731465733663 1.804713986302218  7.944179045432949 4.260366466597012 1.904709754407747  7.866183433816296 4.258241663446713 1.882957737812539  7.952408682793303 4.264643690275234 1.801741110634246  7.940763495898951 4.323207711233263 1.90414662407188  7.863887352110127 4.321361688586125 1.881705517350889  7.948164658267104 4.328802384271987 1.798873032210585  7.937333450136081 4.386334170620517 1.90375398734405  7.861575115874005 4.384783737538389 1.880619011897668  7.943893601698388 4.393255085425012 1.796181506440157  8.851699482370449 4.106844196563225 1.26371754011219  8.886550248088632 4.156990641374469 1.357552877277795  8.873817110678383 4.223884167561258 1.326220950510992  8.16599814673874 4.031075829130984 1.93808329003652  8.158313967931692 4.092681801976757 1.939055375397602  8.150751190592052 4.15452507392535 1.939831763111831  8.14317620075261 4.216581550600152 1.940597700282415  8.135501015017077 4.278835870019332 1.941435148775635  8.127644304015236 4.341312067930456 1.942400032715373  8.119559628845932 4.404087396917643 1.943545720192631  8.980347016428576 4.091714841892723 2.375714233287916  8.950787244282248 4.130685335992926 2.242382029309165  8.876142600290281 4.089197535295416 2.347588758868751  8.86907845556552 4.144008504589112 2.366283225463278  8.945141437711648 4.188662905339514 2.257824435179705  8.975051382098368 4.146214383095935 2.394052919473817  8.862097548574022 4.198945441365408 2.38477701218976  7.881367125674176 4.003458631684627 1.754699813170548  7.878168406318741 4.067359474378886 1.748566858266403  7.874923337878071 4.131447590727731 1.742233468965526  7.871596956215917 4.195718950996588 1.73585837291229  7.86820397395907 4.260197528301141 1.729510578619706  7.864761692617803 4.324916924284755 1.723245363256932  7.861268879602404 4.389901541804673 1.717102732365115  8.641158003751638 4.109384749881825 2.148948306547229  8.519330082205501 4.082375140360138 2.134451673456707  8.593792322857924 4.071531364738894 2.242418308059487  8.581680015762974 4.127695976569326 2.257838487620647  8.50460147378662 4.140487023922005 2.146179148986045  8.62836458447064 4.168122815414575 2.162884459349742  8.569855334184085 4.184069621277464 2.27303088972296  8.490226419037391 4.198819369208998 2.157699298695921  8.615870248209896 4.227003554647759 2.176586808689933  8.558101456099829 4.240573213543382 2.28819908723852  8.475942941982137 4.25728443170374 2.169199286938852  8.603429508828077 4.285963728813301 2.190279097248888  8.546273502502078 4.297155171763295 2.303459790007211  8.461575369512028 4.315833230345671 2.180787339266409  8.590917310138911 4.344949133078616 2.204041016723417  8.534246311046781 4.353753491489198 2.318878470561119  8.446951752638228 4.374421904865243 2.192522382382966  8.578236709969996 4.403874505510972 2.217919101869957  8.521863335947629 4.410239304122749 2.334515950232033  8.431842236955722 4.432918124382285 2.204475043771142  8.565321349110906 4.462614839007496 2.231936553694808  7.497787081455797 4.099294431888091 2.256013946941791  7.650834269011981 4.070544319435917 2.281697378677197  7.600266086793752 4.08176591965973 2.388413327328278  7.642616140219157 4.011966955351608 2.28062206349786  7.611803229711202 4.140428274731293 2.387728849106447  7.508850641259559 4.158623685604143 2.254153724204332  7.65882225624116 4.129312356245068 2.282861262423659  7.623254488301717 4.199271365823028 2.387083211495771  8.600157413984315 4.002043190026303 2.659990807645748  8.699752227741014 3.97686158163255 2.754762765166923  8.545346445110837 3.958421845110029 2.783376802012124  8.703504692983365 3.926478746397023 2.737216955425222  8.60492256597805 3.950696752948628 2.643635325104742  8.543358656859057 4.009931871893698 2.799130168393453  8.595518333356223 4.0536512283433 2.676252213095669  8.696094698030722 4.027489880064721 2.772246150982338  8.541414152917351 4.061720881216752 2.814926857845337  8.590917499992118 4.105495764842038 2.69254881173383  8.692463804676892 4.0783557654534 2.78976822223495  8.539464611417213 4.113783656772204 2.830831514211695  8.586293612927912 4.157563231503593 2.708953947419596  8.688817074205929 4.129450454608144 2.80739173885484  8.53746454070972 4.16613529995451 2.846899418579576  8.581579891071625 4.209846615240068 2.725551501524776  8.685103283464601 4.180772894767726 2.825191372646821  8.535363461800378 4.218779369874963 2.863197715476147  8.576662862862596 4.2623400291978 2.742448544974738  8.681273381289442 4.232320240054051 2.84328382523663  7.590640341269856 4.021125766104293 2.186498232548862  7.486432067078452 4.04014318086602 2.257990083623953  7.598435615133078 4.080469708065624 2.186307270661044  7.605996659612665 4.140011403901066 2.18617645835893  7.613469902398928 4.199724568492456 2.186060598687
[...]
<PointData  Scalars="f_14"> 
<DataArray  type="Float64"  Name="f_14"  format="ascii">3.4128628439213893e-01  3.4958527918619409e-01  3.4776049440309070e-01  3.4779669608415870e-01  3.4958363186341773e-01  3.4131591526109301e-01  3.4959463715269629e-01  3.4140247105626481e-01  3.4787029059053393e-01  3.4961946928165638e-01  3.4151679755373876e-01  3.4797535677319347e-01  3.4965218447310115e-01  3.4164266554502648e-01  3.4810806772988057e-01  3.4968742965942368e-01  3.4176090953296001e-01  3.4826322984080754e-01  3.4181352128486636e-01  3.4973858748195352e-01  3.4843109264835054e-01  3.1994677222218093e-01  3.2205697219970569e-01  3.3002310130832135e-01  3.3005094616106656e-01  3.2207153520885762e-01  3.1995617155572625e-01  3.3011917611458319e-01  3.2210305601451816e-01  3.1998315919009285e-01  3.3021820778201605e-01  3.2214696447587732e-01  3.2002956283457012e-01  3.3033221683107483e-01  3.2218948731911345e-01  3.2008454671170178e-01  3.3043883020303721e-01  3.2221396733922975e-01  3.2013553266346717e-01  3.3050451511462781e-01  3.2221161173481588e-01  3.2018448526114396e-01  3.2649256941764798e-01  3.2659910963065863e-01  3.2675455994090580e-01  3.2694222853325328e-01  3.2713589592649300e-01  3.2727034491845047e-01  3.5762986167681732e-01  3.5765247541531459e-01  3.5771936230310752e-01  3.5782422336150554e-01  3.5796054108850478e-01  3.5812080137472824e-01  3.5828259111806005e-01  3.0693126542789223e-01  3.1886025075494312e-01  3.0649725384160426e-01  3.0648828929812238e-01  3.1884788807488790e-01  3.0694560765338752e-01  3.0696947690637044e-01  3.1882071430607667e-01  3.0642612568136685e-01  3.1877012016368528e-01  3.0698175821558316e-01  3.0633711670431585e-01  3.1869147812286891e-01  3.0695102575276834e-01  3.0620689263113432e-01  3.0683103962332797e-01  3.1857515487124216e-01  3.0600826303929651e-01  3.0654313902071240e-01  3.1839985517492153e-01  3.0574373481304890e-01  2.4815998888407095e-01  2.6165290260240281e-01  2.5464315684513650e-01  2.5464777990135173e-01  3.3492755443300654e-01  3.4401617541607477e-01  3.3669855701722112e-01  3.3667716197148345e-01  3.4401517115404240e-01  3.3490184661100952e-01  3.3662582556098186e-01  3.4400899544801755e-01  3.3483535322528629e-01  3.3655520673664263e-01  3.4399605913010400e-01  3.3473950774566430e-01  3.3646686412374277e-01  3.4396932707811850e-01  3.3462085605878866e-01  3.3636233819417782e-01  3.4391785813798326e-01  3.3448690794295655e-01  3.3625876833080248e-01  3.4383198400403547e-01  3.3434830465581994e-01  2.4814036459721067e-01  2.4489902521975876e-01  2.4497121670160824e-01  3.1811722918110974e-01  3.1808158599022729e-01  3.1798897528876835e-01  3.1785464311177786e-01  3.1768024879737766e-01  3.1746584028288732e-01  3.1723976185489833e-01  2.4468129846607414e-01  2.4570467705884769e-01  2.5473706152687398e-01  2.5474247499426961e-01  2.4569518212075600e-01  2.4466799319022040e-01  2.5475547801430309e-01  3.4253816538417686e-01  3.4252262882898393e-01  3.4248995569953400e-01  3.4243905256894197e-01  3.4236573401805626e-01  3.4226435435665387e-01  3.4212693397075378e-01  2.7558611058293575e-01  2.8760610341323328e-01  2.8158466964959694e-01  2.8160884450479118e-01  2.8765632213903103e-01  2.7560928713621274e-01  2.8168276100992568e-01  2.8779077691355592e-01  2.7567643919415163e-01  2.8176767899528149e-01  2.8794241638351620e-01  2.7574756159374209e-01  2.8181768396479334e-01  2.8804596586286635e-01  2.7578300721428134e-01  2.8177936403124193e-01  2.8802530996966141e-01  2.7574802282965238e-01  2.8159688258512300e-01  2.8780388046929356e-01  2.7562407632234648e-01  3.7992794359871274e-01  3.6685665162793168e-01  3.7202586730871479e-01  3.6681961687565789e-01  3.7210082658915222e-01  3.8000346591758594e-01  3.6693686236280953e-01  3.7222875129555877e-01  2.8534753861547685e-01  2.7708938462059535e-01  2.9230556794443002e-01  2.7708586967825288e-01  2.8532547199936870e-01  2.9234279351205655e-01  2.8539156120328213e-01  2.7709998756944443e-01  2.9240378220768998e-01  2.8545099013699182e-01  2.7712316196885550e-01  2.9248287776127113e-01  2.8551297010799698e-01  2.7715628570829032e-01  2.9256983548982574e-01  2.8556115559973339e-01  2.7719554272737257e-01  2.9265260268903148e-01  2.8557141618870585e-01  2.7724085108111041e-01  3.7073853460694056e-01  3.7990239413268090e-01  3.7077145600647993e-01  3.7083960504027308e-01  3.7094155365368520e-01  3.1046123737316966e-01  3.1044535555915448e-01  3.1039967163344118e-01  3.1032916485722339e-01  3.1021539210456306e-01  3.1003216074070716e-01  3.0975828633154529e-01  2.8004774300289814e-01  2.8009568111184685e-01  2.8021966610256632e-01  2.8035037378695488e-01  2.8043682778048079e-01  2.8043458021849998e-01  2.8029845593471187e-01  3.5309686881280700e-01  3.5317288193842883e-01  3.5329655680641603e-01  3.5346926823175162e-01  3.5369384882731886e-01  3.5397295544871571e-01  3.0112363479086524e-01  3.1214765065035865e-01  3.0289409950106488e-01  3.0286864311190520e-01  3.1213062252042090e-01  3.0114589342902065e-01  3.0280324062733865e-01  3.1208689040595966e-01  2.5061926904063531e-01  2.9645558910918896e-01  2.9644946527315219e-01  2.9644861027981684e-01  2.9645277794911118e-01  2.9645908216580430e-01  2.9647466901149544e-01  3.6230797970300049e-01  3.6240185197367070e-01  3.6254876368370814e-01  3.6274405055680270e-01  3.6298243194206609e-01  3.6325541896566160e-01  2.5656259635498835e-01  2.6378026339471455e-01  2.6456087491233676e-01  2.6453312945518570e-01  2.6375301852386940e-01  2.5651174552000999e-01  2.6446916162490874e-01  2.6370212562839074e-01  2.5640376127392361e-01  2.6437984549162058e-01  2.6362727274862741e-01  2.5627014343170690e-01  2.6427749469753015e-01  2.6353296390416364e-01  2.5613251892774591e-01  2.6417101782026797e-01  2.6342097831260752e-01  2.5601059210593724e-01  2.6406344941215115e-01  2.6329644389966117e-01  2.5592533493978004e-01  3.1336242966486078e-01  3.1334540423156554e-01  3.1331345662121007e-01  3.2903266233815465e-01  3.2900788235868306e-01  3.2894863166946892e-01  3.2886520338428071e-01  3.2875994611179032e-01  3.2863571704982336e-01  3.2849873387211531e-01  2.6127185965486327e-01  2.6129574930554988e-01  2.5065896660069797e-01  2.5477230697816189e-01  2.6132770155900387e-01  2.5071065993657254e-01  2.5478296452631921e-01  2.6135137161306871e-01  2.5075994603508422e-01  3.0758459088757628e-01  3.0157467547226213e-01  3.1121832893267559e-01  3.1119869342521017e-01  3.0151727851744159e-01  3.0756323830001353e-01  3.1115061933876259e-01  3.0137506145375076e-01  3.0751880807690862e-01  3.1107710876689715e-01  3.0119495112518602e-01  3.0745651803013541e-01  3.1097147596178271e-01  3.0097723667040044e-01  3.0737251002840016e-01  3.1082827646663652e-01  3.0071812818496585e-01  3.0726246573099292e-01  3.1066807724953943e-01  3.0049370199708053e-01  3.0712958673998003e-01  2.7362081629351764e-01  2.7358493360891123e-01  2.7349289785271713e-01  2.7337229025533105e-01  2.7322763476520406e-01  2.7306260162668022e-01  2.7289214939120598e-01  2.9265107941166646e-01  2.9265703962960232e-01  2.9270247085605205e-01  2.9275074491920844e-01  2.9276628390245929e-01  2.9270205981067710e-01  2.9245190517958608e-01  3.2643073788680482e-01  3.2643503766340026e-01  3.2643658850814700e-01  3.2644250237064759e-01  3.2644412672481182e-01  3.2642742195470964e-01  3.2639318835098846e-01  3.1704797276169833e-01  3.1706255083633378e-01  3.1711780575553972e-01  3.1718288157926544e-01  3.1723585379042407e-01  3.1724887001769364e-01  3.1715769900790103e-01  2.6343822425507818e-01  2.6513012047978773e-01  2.6512302236760110e-01  2.6344404036997499e-01  2.6510226962959615e-01  2.8925340533649435e-01  2.9645913480837216e-01  2.8925119019061157e-01  2.8925100761364669e-01  2.8925312685207100e-01  2.8924846821298811e-01  2.8922582035122385e-01  2.8917414289463134e-01  3.3697175633434351e-01  3.3699638077462285e-01  3.3706052674805737e-01  3.3715058844632262e-01  3.3725518908388646e-01  3.3735638665692730e-01  3.3741692377061877e-01  2.7570903986537842e-01  2.7571668729071330e-01  2.7573630493618478e-01  2.7576498440391156e-01  2.6508310866172047e-01  2.7579577865906874e-01  2.6506665547925168e-01  2.7582025594627374e-01  2.6505367998299006e-01  2.7582182431097585e-01  2.6505678282382078e-01  3.3838515086810855e-01  3.3838113739031850e-01  3.3837207707141520e-01  3.3835434156918903e-01  3.3832364328140568e-01  3.3827275395418993e-01  3.3819813527252440e-01  2.3823358058532165e-01  2.4344254140067795e-01  2.3325111574125595e-01  2.3324621238551640e-01  2.4341007090861502e-01  2.9988585037009524e-01  2.9987661038739077e-01  2.9984672868493095e-01  2.9981182554774932e-01  2.9976983349066688e-01  2.9971916652506819e-01  2.9967864771875219e-01  2.4819733424119184e-01  2.5307827912159037e-01  2.5303427247894711e-01  2.4816617021228971e-01  2.5292401803010539e-01  2.4807705160513638e-01  2.4332320809919317e-01  2.5278647715547825e-01  2.4796505403390692e-01  2.4321888163955108e-01  2.5264449534339972e-01  2.5374905908068052e-01  2.5370870256274441e-01  2.5361695400288725e-01  2.5350410154621200e-01  2.5339008060611895e-01  2.5329202339434814e-01  2.5323596633995116e-01  2.5879784782112497e-01  2.5876062060539201e-01  2.5866186361048599e-01  2.5853877373629752e-01  2.5841440185389453e-01  2.5830679909460663e-01  2.5823220330312957e-01  2.5504091769080534e-01  2.5504726039296360e-01  3.3818188216012235e-01  3.2818532541928647e-01  3.2816659755739386e-01  3.3818271069930839e-01  3.2810886512980902e-01  3.3818713009159213e-01  3.2802988160049240e-01  3.3819339874891219e-01  3.2793280384097534e-01  3.3819496414717765e-01  3.2781984085458454e-01  3.3818231729360537e-01  3.2771636634160711e-01  3.3815262866427898e-01  3.6151096369239771e-01  3.6152933962162426e-01  3.6159278309895926e-01  3.6168188457358619e-01  3.6179045327112308e-01  3.6190889093006323e-01  3.6201160566525153e-01  2.3661715191645361e-01  2.3660911162210921e-01  3.4119806026273880e-01  3.3552602697736617e-01  3.3562086206863873e-01  3.4125723714930278e-01  3.3576796257495262e-01  3.4135430784568960e-01  3.3595402384857881e-01  3.4148289027528961e-01  3.3615799796293161e-01  3.4163326714561004e-01  3.3635126829068113e-01  3.4179981567586104e-01  2.6542634369501295e-01  2.6543531586957897e-01  3.4437314848842138e-01  3.5388194742124890e-01  3.4648885547662750e-01  3.4644562702182735e-01  3.5385937592049443e-01  3.4432043675914492e-01  3.4632950531403273e-01  3.5378843825874901e-01  3.4418997407388963e-01  3.4617721601453144e-01  3.5368844278024802e-01  3.4401027304651405e-01  3.4600062857997460e-01  3.5206641139988987e-01  3.5208474999056805e-01  3.5213767484857134e-01  3.5219466791421783e-01  3.5223903340264667e-01  3.5224614728388220e-01  3.5215638427779106e-01  3.2588646031070184e-01  3.3469867337714926e-01  3.2755630822711634e-01  3.2748963973913980e-01  2.3820249405454533e-01  2.3815036712964752e-01  2.8155699727500000e-01  2.9102940078533440e-01  2.8290745253989236e-01  2.8288908753614406e-01  2.7272313741987053e-01  2.7524687017286364e-01  2.7525767218180980e-01  2.7274037527264394e-01  2.7528246723854272e-01  2.8283845941551927e-01  2.7275119034094297e-01  2.7529145708390967e-01  2.7726666278719964e-01  2.8754381962012843e-01  2.8027424355657449e-01  2.8026965265098391e-01  2.8758761914561193e-01  2.7726712609355336e-01  2.8024458902333277e-01  2.8768831079127988e-01  2.7726017178922735e-01  2.8019813895854762e-01  2.8778341099692006e-01  2.7723159949429332e-01  2.8011345844311542e-01  2.8782827936787891e-01  2.7715984848810371e-01  2.7997574775201661e-01  2.8777713102050823e-01  2.7702595554342591e-01  2.7978173002308199e-01  2.8757395366607147e-01  2.7682651766191296e-01  2.5950458125742487e-01  2.5949467615421812e-01  2.5946337662603380e-01  2.5940997077281830e-01  2.5933646941466304e-01  2.4784915168908619e-01  2.5924360825988618e-01  2.4774453061048432e-01  2.5251771609933743e-01  2.5912535113800084e-01  2.4766065969547338e-01  2.5243036658410822e-01  2.6690769347722898e-01  2.6693791889715385e-01  2.6700477427040958e-01  2.6544118041453396e-01  2.6705622081125402e-01  2.6543222105387393e-01  2.6706853867050484e-01  2.7526079571442730e-01  2.6539004167596214e-01  2.6701827301392550e-01  2.7516924234154111e-01  2.4716609199328909e-01  2.4712569614112584e-01  2.4702585475014255e-01  2.4690363021435441e-01  2.4678519009912825e-01  2.9962017483185382e-01  2.9959788331142279e-01  2.9957095183723054e-01  2.9952988422182170e-01  2.9944956833238368e-01  2.9929375358109023e-01  2.9900708016545885e-01  3.2165279910801364e-01  3.2162346850250140e-01  3.2154483538909895e-01  2.8508403457295861e-01  2.9504080816463979e-01  2.9505611998183623e-01  2.8509539738432160e-01  2.9508783185900767e-01  2.8512629014322166e-01  2.9510565558647761e-01  2.8514038900004718e-01  2.9507601807484662e-01  2.8510829587640485e-01  2.9496255981551694e-01  2.8500240264642929e-01  2.9471744722387327e-01  2.8479722800420204e-01  3.4873891228786463e-01  3.4876163054690512e-01  3.4882801384543383e-01  3.4890714550616758e-01  3.4898701375725349e-01  3.4904931149145069e-01  3.4904453726869972e-01  2.7001077066214713e-01  2.7000182546317458e-01  2.6996660467456723e-01  2.6990608365927937e-01  2.6981498516422170e-01  2.6968694668694726e-01  2.6951679711855553e-01  2.5754519573653389e-01  2.5754846448003238e-01  2.5755049808663649e-01  3.4608964082353871e-01  3.4123643535921017e-01  3.4142391759233282e-01  3.4629577518685073e-01  3.4167572105786392e-01  3.4655854224633614e-01  3.4202146751209178e-01  3.4687393120555998e-01  3.2274662456037634e-01  3.1528951332936966e-01  3.1526007670293732e-01  3.2270675101503365e-01  3.1519088114931587e-01  3.2260645385892001e-01  3.1508540752649156e-01  3.2246175983949205e-01  3.1325008834748413e-01  3.1493789947639905e-01  3.2227746555794057e-01  3.1314160658161022e-01  3.1473931182219422e-01  3.2205395764118927e-01  3.1296838014073713e-01  3.1447890128696915e-01  3.3207009225316159e-01  3.3206502421485995e-01  3.3205334261070302e-01  3.3204039270602348e-01  3.3202083772356905e-01  3.3198857381618929e-01  3.3195034004699331e-01  3.4593996943652860e-01  3.5485513213014513e-01  3.5485805551155009e-01  3.5487140331952116e-01  3.5488724287315387e-01  3.5489752692103982e-01  3.5489102800874628e-01  3.5484137751103889e-01  3.5283943178656357e-01  3.5278683279787848e-01  3.5265449354365092e-01  3.5804576125194210e-01  3.5804564248479664e-01  3.5803831515317613e-01  3.5803526622647092e-01  3.5803519447762416e-01  3.5803521595601223e-01  3.5804890136812750e-01  2.7630543934060986e-01  2.6995544994880161e-01  2.6995710469913664e-01  2.7630743176682937e-01  2.6993412321265919e-01  2.7629435369646638e-01  2.6989546554000837e-01  2.7626493877227620e-01  2.6983588959712224e-01  2.7620592211488182e-01  2.6975398547535351e-01  2.7610890439180147e-01  2.6965982755944456e-01  2.7598378367079179e-01  3.4895251420648910e-01  3.4894109365034803e-01  3.4891834462616533e-01  3.4888075140817965e-01  3.4882257566405095e-01  3.4873607382233329e-01  3.4861775414908303e-01  2.9277540624364584e-01  2.9278069158732017e-01  2.9277863270234145e-01  3.0270122442462394e-01  2.9274864924272370e-01  3.2215246652978186e-01  3.2214844375477525e-01  3.2214883200917466e-01  3.2214194563618120e-01  3.2211691304560475e-01  3.2205794319225312e-01  3.2192988608000822e-01  3.1810781868197197e-01  3.1806974475579319e-01  2.7204653775029769e-01  2.7607234498774846e-01  2.8291998260499801e-01  2.8292291401454445e-01  2.7607517856023928e-01  2.7204860250446461e-01  2.8293639048162250e-01  2.7608482027306697e-01  2.7205780963618792e-01  2.8295107820131515e-01  2.7609560939574745e-01  2.7206957582068958e-01  2.8294971568140054e-01  2.7608443279590777e-01  2.7206841052953279e-01  2.8290757041195597e-01  2.7602373449741480e-01  2.7203415533514774e-01  2.8278996349199848e-01  2.7588931422400198e-01  2.7194667080280049e-01  3.6821459154556901e-01  3.6823284912752163e-01  3.6829480833303579e-01  3.6838178342628869e-01  3.6848381822143594e-01  3.6859025930872463e-01  3.6866927008238087e-01  3.7265056454336370e-01  3.6473255207167066e-01  3.7241103784560731e-01  3.6512201553010859e-01  3.7294159660987830e-01  2.5876079584948131e-01  2.6394736699760374e-01  2.6979373087715869e-01  2.6981053972075381e-01  2.6392179117141196e-01  2.5875664172685869e-01  2.6986305327103755e-01  2.6384806807977079e-01  2.5874026523486648e-01  2.6991897948154270e-01  2.6375625083462528e-01  2.5871791834353330e-01  2.6995119159803604e-01  2.6365650727274287e-01  2.5868866357479081e-01  2.6993402612611983e-01  2.6356095669384744e-01  2.5865373479886056e-01  2.6984156939943915e-01  2.6349370710384901e-01  2.5862674068490649e-01  2.5648161141767600e-01  2.5648445143816040e-01  2.5646859599854521e-01  2.5643342268595726e-01  2.5637246128130647e-01  2.5628062771450139e-01  2.5616771121638754e-01  2.4653023381367048e-01  2.4652945897902931e-01  2.4650807534250446e-01  2.4647312758281179e-01  2.4566909175936377e-01  2.4563838148051922e-01  2.4561363656953092e-01  2.4560388374073891e-01  2.5477832235239939e-01  3.3677067378095299e-01  3.2981237265577007e-01  3.2976408843669991e-01  3.3672545827360778e-01  3.2730874532814269e-01  3.3660508270949246e-01  3.2963908186001556e-01  3.2706791813904618e-01  3.2946649308824016e-01  2.8368021260211945e-01  2.8367110420525060e-01  2.8365411723021433e-01  2.8362070473471873e-01  2.8354764170381991e-01  2.8341947489834163e-01  2.8324132066021795e-01  2.6687457479091159e-01  2.5337739238305401e-01  2.5333857240648122e-01  2.5324389133478287e-01  2.5313090900362001e-01  2.5302218596870696e-01  2.5293869626784776e-01  2.5290250904730249e-01  3.0557887585141402e-01  3.0770790004579096e-01  3.0770340540028041e-01  3.0555737397078891e-01  3.0769605683748502e-01  3.0549523648959181e-01  3.0766882474685597e-01  3.0540265666547534e-01  3.0759582442713912e-01  3.0526234982777756e-01  3.0744436309580381e-01  3.0505648037355498e-01  3.0717318013948203e-01  3.0478922455098639e-01  2.6521232743026080e-01  2.6522849958103861e-01  2.6527312223087640e-01  2.6532577317205058e-01  2.6536319428207639e-01  2.6536191137040094e-01  2.6529398481040500e-01  3.3172739848080124e-01  3.3192182982154256e-01  3.3216792380292415e-01  3.3244856629232594e-01  3.3272383860083637e-01  2.9315008570620721e-01  2.9314928703080495e-01  2.9315057759568464e-01  2.9314798034388706e-01  2.9312581174628655e-01  2.9306521088924731e-01  2.9294052007969129e-01  2.8767237023150866e-01  2.8770845147188628e-01  2.8780283490281927e-01  2.8790520975307005e-01  2.8795928770535673e-01  2.8791115996935629e-01  2.8773244570191903e-01  2.9064447358315204e-01  2.9068295831987090e-01  2.9078228554508917e-01  2.9088403833827881e-01  2.9093691443005926e-01  2.9088976594219296e-01  2.9068948024530766e-01  3.6706006813293035e-01  2.8709722195324905e-01  2.8712258470735480e-01  2.8719897860320565e-01  2.8728327125471081e-01  2.8733798357112850e-01  2.8731430820066234e-01  2.8713080038147598e-01  3.6722071078020818e-01  3.6740935162257826e-01  3.6762147542559787e-01  3.5563451836521587e-01  3.5603131768607044e-01  2.4124643481864297e-01  2.4122901947291642e-01  2.4117494515386345e-01  3.3464657857418989e-01  3.0277844093438805e-01  3.0692253892992405e-01  3.1316080887288505e-01  3.0701384840161899e-01  3.0288423571635653e-01  3.1326258658223999e-01  3.0711604858290270e-01  3.0301332517657020e-01  3.1339811725848660e-01  3.0720734459315102e-01  3.0314764522752852e-01  3.1356248061886816e-01  3.0724604734294342e-01  3.0325065855010763e-01  3.1373686439185261e-01  2.5754903633467946e-01  2.5754734038765609e-01  2.7891951974396184e-01  2.7892337664295935e-01  2.7894147107590112e-01  2.7896669917762429e-01  2.7898364713177870e-01  2.7897420159005631e-01  2.7891751945769666e-01  2.9718631836433118e-01  2.9716819217799312e-01  2.9712302871493085e-01  2.9705991528272901e-01  2.9697003491202434e-01  2.9683526095305524e-01  2.9664170394324479e-01  3.0974545209648513e-01  3.0685897859661609e-01  3.1680041960064453e-01  3.0683580919483483e-01  3.0972826819179244e-01  3.1686127873746467e