<?xml version="1.0"?>
<VTKFile type="UnstructuredGrid"  version="0.1"  >
<UnstructuredGrid>
<Piece  NumberOfPoints="1028" NumberOfCells="4434">
<Points>
<DataArray  type="Float64"  NumberOfComponents="3"  format="ascii">4.175382251215987 1.89066375862255 1.144366198394927  4.313284334003245 1.95468364794356 1.106753064570696  4.287614506885986 1.829307452007339 1.165007799849791  4.284912375386953 1.805585176997481 1.112407859812531  4.311323540088407 1.930539169255838 1.053571194242713  4.171890653569598 1.866609157204545 1.091800203606474  4.168364479207303 1.842544222456423 1.039252785929369  4.309371829710147 1.906404750164555 1.000392487616996  4.282192576205251 1.78186608842668 1.059823247876976  4.16482307413039 1.81848097355563 0.9867364924676982  4.307424935169019 1.882281016172825 0.9472370215204715  4.279467639224284 1.758152344116575 1.007264227228767  4.161283360985188 1.794415780014712 0.9342539410393367  4.305478056876718 1.858155126212672 0.8941157115568364  4.276749072752347 1.73443750465004 0.9547367328162232  4.274047902031289 1.710709729549123 0.9022383728245272  4.303527175555101 1.834007721261991 0.8410319034833015  4.15776291719644 1.770342048045877 0.8818051377582298  4.27137484032178 1.686959915350061 0.849761111743159  4.301565867489618 1.809818242556465 0.7879790960280576  4.154286378044515 1.746253364326318 0.8293729132263149  4.188180891407814 2.014385291188322 1.085720962555146  4.184952370527328 1.989495563592784 1.032372570798143  4.18170423350564 1.964608741176338 0.9790364919870546  4.178445376738425 1.939730825804205 0.9257257894549836  4.175183227995509 1.914851264505092 0.8724505589401018  4.171926502057516 1.889950586115682 0.8192138501450428  4.168686688428177 1.865004070754936 0.766008072549753  3.889196771455666 2.429817746526651 0.9168041119062502  4.009979877976614 2.539324876406854 0.8506611535304324  4.024546835361051 2.399958985081481 0.9127232670111758  4.017865423969321 2.371828261720735 0.8529495698804811  4.002484037568657 2.513962682106721 0.7858152364855281  3.880408277124418 2.402552812243542 0.856223942373469  4.011140640514372 2.343760007280813 0.7931911044012412  3.994962555855104 2.488668938732329 0.7210090798086518  3.871573818584828 2.375333489240692 0.7956941760756397  4.004379002071939 2.315748295473622 0.7334632534375121  3.987408951817756 2.463443167766464 0.6562560149988848  3.862695812267338 2.348173330967778 0.7352141193753393  3.997605383888107 2.28774995111154 0.6737879384488289  3.979848346736107 2.438233953929716 0.5915687171051813  3.853806355374683 2.321035106629362 0.6747948375061561  3.990841804651547 2.259715987443957 0.6141813765250402  3.972296772987649 2.412989219278312 0.5269577269117294  3.844941035992138 2.293876469393893 0.6144519743960768  3.984126657207476 2.231585840564439 0.5546556512160238  3.964779967719696 2.387650707858071 0.4624240210288523  3.836165023461747 2.266644797441099 0.5542013784246884  4.38853744187291 2.426156435544905 0.8865530472082751  4.393545286871927 2.573654749748284 0.8300678393413992  4.506103329340281 2.463048783749543 0.8806729050420987  4.511400237478399 2.438780279493171 0.81945646105428  4.397873331625642 2.551121362766317 0.7647198882152438  4.391317298279108 2.400107341994399 0.8260143930921933  4.51681371126633 2.414601995763615 0.7582724677685134  4.402292402799242 2.52868228799264 0.6994243435298292  4.394187966869479 2.374147298662178 0.7654802559528673  4.522276096308402 2.390503149748616 0.6971373577354718  4.406747463199887 2.506320968917198 0.634187471357393  4.397082825882157 2.348247647210023 0.7049799396154256  4.527720008563594 2.366431217217489 0.6360694760455742  4.411189026126294 2.483986722171002 0.5690215766019178  4.399955521386781 2.322363858654221 0.6445379345268188  4.533079805474897 2.342324694687852 0.5750838146660519  4.415558821083992 2.46161325624182 0.5039401485621138  4.402758195673483 2.296440227063772 0.5841754451583261  4.538287288746044 2.318112823829341 0.5141861675731786  4.419791549735211 2.439133486514415 0.4389483580676237  4.405436691305242 2.270415086103693 0.5239071869034657  3.68422890083767 2.21604337823327 1.041538996904296  3.802249177754729 2.246259520028435 1.014798859737778  3.821032046325574 2.137800910146742 1.061363168695634  3.815074387350271 2.112885909938997 1.006402622112045  3.795229880025774 2.220122032713872 0.9584134776115585  3.67812992576827 2.19098249996088 0.9852933282247315  3.80907314049061 2.087974150959856 0.9514840123998786  3.788170464831659 2.194001073860056 0.9020729192770331  3.672016389173439 2.165937242439991 0.9291042672820834  3.78107315984964 2.167917517931352 0.8457727782808503  3.665881022281332 2.140919037918856 0.8729547382657046  3.803043091441481 2.063086147573613 0.8966127160973891  3.773964841605658 2.141848200252917 0.7895261320002909  3.659736064683524 2.115914510494426 0.8168603949203412  3.797004845057244 2.038205005765189 0.8417903692135659  3.766872902167437 2.115764019141086 0.7333438220156753  3.653596903831477 2.090902534167427 0.760841110337239  3.790982241315071 2.013310154432674 0.7870230492619444  3.759854031029766 2.089625335406437 0.6772373552695551  3.647497501664601 2.065858304900824 0.7049189908582469  3.785024981407958 1.98838266074744 0.7323170304135477  4.248159025964814 1.505340007202361 1.321973297753712  4.351924107207393 1.503041531184378 1.320311511153946  4.305829071564053 1.412550496372835 1.373176630185792  4.30399079006736 1.381109625929971 1.322678585828039  4.350564973212967 1.474624196002761 1.268790945712405  4.245381118551156 1.477609447911858 1.270335194931556  4.302059107993758 1.349677124556326 1.272190106551788  4.34917486245984 1.446213217623986 1.217273170869401  4.242517603163643 1.449881703624002 1.218721957497598  4.300102380377305 1.318254247402713 1.221725259581369  4.347777196558892 1.41780595576206 1.165775517944097  4.239628496630354 1.422160187007695 1.16714200250821  4.298165427042485 1.286838601050674 1.171285490847435  4.346398230718478 1.389401201622474 1.114301458977561  4.236758095426308 1.394446095999389 1.11559366529347  4.296287439938344 1.255427079020634 1.120863108128958  4.345058903378312 1.360997851005602 1.062845128000913  4.233946770236571 1.366741637702883 1.064068949836872  4.294512928128361 1.224012974898517 1.070442478139736  4.343764726195083 1.332591918359069 1.01139078494052  4.231237999218727 1.339044488685998 1.012547365473219  3.450187668713248 2.13676030613993 1.096237968007939  3.5515785663922 2.263811817015082 1.033982841254719  3.587134280571705 2.155461272661626 1.078820748183404  3.582230109743364 2.131556673043518 1.023144829598809  3.546131670930459 2.238964269384286 0.9767102490562386  3.44637283873471 2.11357765770288 1.040325754253915  3.577342288332191 2.107670426186398 0.9675290347467502  3.540702409422216 2.214141232278735 0.9194937453496426  3.442610828764723 2.090424072178568 0.9844610151736908  3.572451020929614 2.083807433984637 0.9119596853341295  3.535270640392636 2.189351324015817 0.862332742002079  3.438869888055595 2.067291442579184 0.9286414730297001  3.567553129878124 2.059952230621985 0.8564426161103428  3.52983003241817 2.164575917123745 0.8052319979314957  3.435124742992504 2.044163915013533 0.8728726913673417  3.562643811717838 2.036086923391519 0.8009897270170266  3.52437839756623 2.139792981274578 0.748208774448373  3.431342347303774 2.021025142335997 0.8171706750735135  3.557723641399615 2.01219002562318 0.7456240801004096  3.518924112841849 2.114974133991385 0.691291097051713  3.427486722987552 1.997850085457382 0.7615689270025245  3.910440066608796 2.766822875670182 0.7970906728574483  4.028803323536591 2.82020968875207 0.7695571735939716  4.030399465765532 2.686521714652442 0.8009631230390306  4.022918596592762 2.66723164601748 0.7303945385526197  4.020581163463466 2.812226201619986 0.6937874479839734  3.898892955286708 2.754031429861648 0.7236893894640636  4.015424020965329 2.64803708919117 0.6599307038554009  4.012353373937184 2.80426549898097 0.6181804502058688  3.887318224576136 2.741257931072743 0.6504451676916531  4.007938112192291 2.628903288624252 0.5895532494902581  4.004147806898046 2.796329974296385 0.5426975058527067  3.875766922195925 2.72850599259636 0.5773114944763806  4.000454008863499 2.609784803765456 0.5192528216896751  3.99596208932851 2.788408827571186 0.4673094922399474  3.864230168638112 2.715769364444321 0.5042702186377968  3.992971199936914 2.590631972520622 0.4490283908284779  3.987782837799847 2.780456395810971 0.3920128544102836  3.852712953538602 2.703014704440363 0.4313227965908036  3.98549821588809 2.571392100163541 0.3788721922401105  3.979598823270891 2.772415118959195 0.3167884257252859  3.841253024211631 2.690210259546784 0.358466653284516  4.099737772544419 1.539261646837002 1.31503633818492  4.164993929227124 1.426417561912783 1.373464793286182  4.161041261100372 1.395787017126675 1.322974576599398  4.095673239502194 1.512162342741677 1.263616926771195  4.156925911331787 1.365170666259285 1.272532080925548  4.091490070638594 1.485063919830052 1.212244159171705  4.152755233370506 1.334571149059495 1.222129544965464  4.087264741128473 1.457976530417482 1.160918204576066  4.148600827422636 1.303987675792389 1.171762917421817  4.083051228978681 1.430902527811656 1.109633266724624  4.144533512312154 1.27341916861283 1.121426617155371  4.078903948953269 1.403845562890224 1.058385282185851  4.14065440924525 1.242859114370871 1.071106866918142  4.074910850656671 1.376806234647638 1.007163922609267  3.204618717852869 1.782924745426742 1.236761688189237  3.37217632139525 1.808870398547637 1.226655945803085  3.315435341178792 1.705928878309265 1.266569709806456  3.315930778372022 1.684096382120992 1.211569398453743  3.371729851255738 1.787776405270695 1.171891988547196  3.20460884439087 1.762229284451772 1.180935507985557  3.316591637662154 1.662258639340599 1.156598142866289  3.371418756598993 1.766675580027501 1.117157549443292  3.204765790428771 1.741542418913601 1.12511503
[...]
<PointData  Scalars="f_14"> 
<DataArray  type="Float64"  Name="f_14"  format="ascii">6.8804486572465051e-01  6.7610286027427768e-01  6.7825684304019518e-01  6.7825964933236571e-01  6.7610664628451456e-01  6.8805316834264652e-01  6.8807887825665359e-01  6.7612016872440472e-01  6.7827641423527707e-01  6.8811286009616068e-01  6.7613839639050766e-01  6.7829766097038746e-01  6.8814696431771050e-01  6.7615998925763965e-01  6.7831577078742145e-01  6.7832293206011829e-01  6.7618363873968135e-01  6.8817321411862453e-01  6.7831131479049456e-01  6.7620787156098117e-01  6.8818218171516377e-01  6.8707157842048139e-01  6.8708287945363355e-01  6.8710979171896081e-01  6.8714689954914288e-01  6.8718843369618754e-01  6.8722869106458961e-01  6.8726332821947722e-01  7.1366790253662826e-01  7.0340028871065663e-01  7.0194068491321460e-01  7.0197071691346902e-01  7.0344221815183283e-01  7.1370977896262522e-01  7.0205814931566923e-01  7.0354520353012096e-01  7.1381421948394685e-01  7.0217300610575983e-01  7.0367771388548050e-01  7.1394955991346920e-01  7.0228990352137111e-01  7.0381017292807202e-01  7.1407878446723416e-01  7.0238603477897765e-01  7.0391919783388390e-01  7.1416560918521632e-01  7.0243684177461752e-01  7.0398947857467886e-01  7.1417239827894397e-01  6.6973340538798731e-01  6.6939749313985231e-01  6.5932302602111348e-01  6.5930308086119194e-01  6.6937686914237460e-01  6.6972749650812435e-01  6.5926664524809031e-01  6.6933123450033938e-01  6.6970995696851998e-01  6.5923996798247253e-01  6.6929815679785531e-01  6.6970703521956076e-01  6.5925185036268219e-01  6.6930555618329679e-01  6.6973913772659777e-01  6.5932817970867452e-01  6.6937721705544351e-01  6.6982556260744475e-01  6.5948726377540245e-01  6.6953632676356267e-01  6.6998743267929262e-01  7.3024698768292129e-01  7.2055558391042085e-01  7.1870374218208155e-01  7.1871906314651368e-01  7.2057915968114883e-01  7.3025960290201641e-01  7.1876048164706796e-01  7.2063761747507415e-01  7.3029411093052088e-01  7.2071417507675495e-01  7.3033999154009954e-01  7.1881505164454296e-01  7.2078736760112849e-01  7.3038431194944808e-01  7.1886733164932504e-01  7.2083459597279120e-01  7.3041187179167955e-01  7.1890068640837601e-01  7.2082571726377254e-01  7.3040627181171980e-01  7.1889502185024279e-01  6.8134174959762794e-01  6.7227350993938728e-01  6.7622740019062944e-01  6.7623052898807046e-01  6.7226297495564813e-01  6.8134513982544720e-01  6.7623780908211795e-01  6.7222962421652499e-01  6.8136039816207794e-01  6.7623931584775976e-01  6.7218386600648439e-01  6.8137467211627289e-01  6.7622809902974768e-01  6.7212694361708003e-01  6.8137725025757423e-01  6.7619827939218347e-01  6.7206110236454508e-01  6.8135901480885119e-01  6.7614169650785338e-01  6.7199717943498638e-01  6.8131266503335008e-01  7.4912772304467035e-01  7.4120108368997784e-01  7.3805742763480675e-01  7.3806988015210739e-01  7.4121014565047194e-01  7.4914820251561320e-01  7.3809451949325888e-01  7.4123924753202153e-01  7.4918482726478852e-01  7.3812942291987316e-01  7.4127870259680828e-01  7.4923016215293625e-01  7.3816690269958574e-01  7.4131887705107258e-01  7.4928211666610822e-01  7.3819933151827499e-01  7.4134859190636204e-01  7.4933837567861161e-01  7.3822354012767188e-01  7.4135519048481768e-01  7.4938692705057186e-01  7.1250274589573126e-01  7.0221676989774484e-01  7.0185000637965411e-01  7.0190231314731988e-01  7.0228448853232928e-01  7.1259477379846492e-01  7.0202668281719449e-01  7.0246226423914770e-01  7.1283726300804451e-01  7.0218147513098861e-01  7.0267556132726039e-01  7.1313133980211174e-01  7.0233700389042464e-01  7.0287770468817001e-01  7.1340638442426607e-01  7.0246979337077031e-01  7.0303039365465392e-01  7.1359852941415902e-01  7.0256212721400657e-01  7.0310795816364646e-01  7.1364578698339287e-01  6.9422954506765322e-01  6.8855615450763952e-01  6.8859114357747864e-01  6.9424836874744833e-01  6.8867942656723025e-01  6.9430327687648197e-01  6.8878232708358433e-01  6.9437003633030259e-01  6.8887057431967746e-01  6.9442678615410469e-01  6.8891610140840787e-01  6.9445172236058672e-01  6.8888905918426913e-01  6.9441827340313877e-01  7.6805391664626399e-01  7.5459056389304402e-01  7.5890970868793284e-01  7.5890845343259183e-01  7.5458810164773704e-01  7.6805040336244834e-01  7.5890707596747853e-01  7.5458251645203556e-01  7.6804373844454388e-01  7.5891916691417949e-01  7.5458585560311775e-01  7.6804933196713066e-01  7.5896025610905682e-01  7.5461076587176190e-01  7.6808187809995920e-01  7.5904726791062982e-01  7.5467171307151837e-01  7.6815780000095613e-01  7.5919655184091128e-01  7.5478716419140157e-01  7.2931246072715661e-01  7.1760676424392855e-01  7.1761888088173675e-01  7.2932465998193863e-01  7.1765616008383704e-01  7.2936312726051677e-01  7.1770526934674939e-01  7.2941514152279519e-01  7.1775491084970977e-01  7.2946794354953104e-01  7.1779242135968169e-01  7.2950764831876047e-01  7.1780015958984211e-01  7.2951523364914217e-01  7.7527117786551314e-01  7.6252384093278536e-01  7.6252025615975649e-01  7.7527370997174838e-01  6.9333966068142816e-01  6.9151481628041267e-01  6.8212277096197060e-01  6.8210930838643491e-01  6.9151918716614691e-01  6.9334994419283835e-01  6.9340275764435078e-01  6.9154705368018354e-01  6.8209952436137089e-01  6.9348347902907070e-01  6.9159737427154855e-01  6.8211194250248897e-01  6.9357956923099306e-01  6.9166763623148986e-01  6.8215770400466791e-01  6.9368255525074374e-01  6.9175702619368318e-01  6.8224764359175949e-01  6.9379046291209612e-01  6.9186465682990139e-01  6.8238953089936238e-01  6.9009800219733564e-01  6.7894114220556956e-01  6.7743660212242318e-01  6.7743890214725566e-01  6.7893328755007654e-01  6.9011301875007702e-01  6.7893749595639996e-01  6.9015812195297965e-01  6.7745590767748720e-01  6.9022362851653851e-01  6.7895748762988095e-01  6.7748644754236020e-01  6.9030011697530613e-01  6.7899995517034439e-01  6.7753363576613279e-01  6.9038042235856223e-01  6.7907173721403580e-01  6.7760149499686140e-01  6.9045971044603061e-01  6.7917564069539105e-01  6.7769064453814398e-01  7.6251376600211318e-01  7.6251599624117594e-01  6.5505147039643641e-01  6.4480052226732831e-01  6.5572841711011576e-01  6.5570030600098017e-01  6.4475177299440900e-01  6.5502175347766667e-01  6.5566449263326565e-01  6.4470358879806433e-01  6.5500365210745060e-01  6.5561804839775972e-01  6.4465961275719230e-01  6.5500557812777749e-01  7.2682894258008957e-01  7.3665318429760951e-01  7.3646265127158128e-01  7.2675891116020386e-01  7.3644708607475717e-01  7.3669596240565172e-01  7.2688277598513262e-01  7.3647104065304603e-01  7.7110235864221444e-01  7.7110472990840362e-01  6.4969883829245112e-01  6.6069387342110852e-01  6.5142501058953273e-01  6.6069103728500722e-01  6.6069876531543070e-01  6.4967699210861962e-01  6.5141395674753566e-01  6.6069714801530433e-01  6.4964120254326396e-01  6.5138859588950415e-01  6.4958939583337305e-01  6.6068245301503148e-01  7.2201957439527731e-01  7.1058197247203325e-01  7.1296092902014130e-01  7.1297610148327117e-01  7.1059784010147264e-01  7.2202934312649703e-01  7.2205783265992685e-01  7.1063544461197325e-01  7.1301507542439158e-01  7.2209955757883781e-01  7.1068496052255703e-01  7.1306818398971628e-01  7.2214908661031529e-01  7.1073480618331375e-01  7.1312334638352703e-01  7.2220050355934795e-01  7.1077251318884560e-01  7.1316699273083639e-01  7.1318254510120038e-01  7.1078364824078666e-01  7.2224906392093624e-01  6.9739979692870802e-01  6.9740649879993100e-01  6.9742767441918074e-01  6.9745726688678833e-01  6.9748752960355820e-01  6.9751106802676144e-01  6.9752617559880181e-01  7.2760850203863903e-01  7.2034031305109003e-01  7.2012912987451649e-01  7.2764616218957567e-01  7.2042012430083135e-01  7.2918508558026274e-01  7.2918966108145888e-01  7.2920835479051582e-01  7.2923707539481541e-01  7.2927029473830474e-01  7.2930109721123570e-01  7.2932314908047891e-01  6.8833255347106914e-01  6.7580768740963071e-01  6.7581246238878390e-01  6.8834707715473409e-01  6.8838237452852435e-01  6.7583026126589452e-01  6.8843299632594801e-01  6.7585795629781675e-01  6.8849224982734347e-01  6.7589624572283025e-01  6.8855468970148848e-01  6.7594623747379434e-01  6.8861726708447024e-01  6.7600629055939598e-01  7.5122429041162730e-01  7.5122940465257393e-01  7.5124387929078107e-01  7.5126680102761623e-01  7.5129426461420012e-01  7.5132275229350021e-01  7.5134859628841233e-01  6.8041146452778023e-01  6.8041925755927313e-01  6.8042933999680077e-01  6.8045803791161319e-01  6.8051774732197923e-01  6.8061989577578552e-01  6.8076996971980819e-01  6.5735237542738278e-01  6.5550546845917468e-01  6.4759036611429788e-01  6.5552280927990081e-01  6.5736967948659486e-01  6.4756124354447619e-01  6.5730691382079687e-01  6.5545924750184359e-01  6.4752998984905608e-01  6.5726183868694699e-01  6.5540736067782002e-01  6.4751716338241805e-01  6.5724170084922628e-01  6.5536915299476983e-01  6.4754471822948945e-01  6.5727167735243663e-01  6.5536456232598328e-01  6.4763342216880437e-01  6.5738298826661523e-01  6.5542243232419983e-01  6.5966590372978184e-01  6.4970677028137669e-01  6.5966851543335936e-01  6.5966066390643907e-01  6.5964429137770886e-01  6.5961786985898574e-01  6.5958111847235024e-01  7.4613031614916614e-01  7.3385487475131062e-01  7.3925167094268029e-01  7.3925055939173057e-01  7.3385342314973290e-01  7.4612536961007259e-01  7.3925585973372632e-01  7.3385861961653698e-01  7.4611503549771874e-01  7.3927410992452502e-01  7.3387502871098220e-01  7.4611321418244747e-01  7.3931459986971382e-01  7.3390611706656084e-01  7.4613323080061600e-01  7.3938856858940027e-01  7.3395568723605420e-01  7.4619002598270601e-01  7.3950995009608511e-01  7.3403114355457910e-01  7.4630200252019907e-01  6.6449699186888833e-01  6.6303527042523691e-01  6.5527510991679083e-01  6.6301862869412187e-01  6.6441080588212220e-01  6.5523139521463269e-01  6.6298840441455964e-01  6.3675016129864614e-01  6.2859001988376273e-01  6.2871258892857951e-01  6.3670601605869737e-01  6.2855872656288136e-01  6.2868883780178453e-01  6.3660010543131129e-01  6.2848636654971790e-01  6.2864608350861184e-01  6.3649600076573498e-01  6.2841917154780558e-01  6.2861202742817301e-01  6.3643566482166791e-01  6.2839297631852897e-01  6.2861325045960814e-01  6.3646779608566173e-01  6.2844384787984175e-01  6.2868295877792435e-01  6.3665284167232572e-01  6.2863563209056550e-01  6.2886298979604527e-01  7.4244372760271882e-01  7.4244344102313398e-01  7.4243971177092538e-01  7.4244300520015127e-01  7.4246100635763923e-01  7.4250194579258155e-01  7.4258025289992280e-01  7.2521055124379064e-01  7.2520936255099999e-01  7.2522436295366888e-01  7.2525389813404606e-01  7.2529656191458958e-01  7.2535137995837906e-01  7.2541550865449711e-01  7.3228899129258285e-01  7.3233528405602022e-01  7.3244426396533491e-01  6.6629002314565178e-01  6.5512297955140852e-01  6.5576862285553061e-01  6.6628980706935159e-01  6.5511147715149420e-01  6.5576403716053078e-01  6.6628747420001211e-01  6.5508433390821097e-01  6.5574970374594821e-01  6.6628464584426506e-01  6.6628249519212501e-01  6.6628295576030827e-01  6.6629130888415222e-01  6.4537452161311071e-01  6.3569977296648816e-01  6.3573674209405584e-01  6.4538816960581591e-01  6.6615255315548294e-01  6.6614599471822677e-01  6.6613090684114706e-01  6.6612093663127681e-01  6.6613023240967351e-01  6.6617390017631639e-01  6.6626751538863449e-01  7.3842176045025665e-01  7.3843133681538820e-01  7.3845765254319140e-01  7.3849543685868058e-01  7.3853863980730483e-01  7.3858065323746436e-01  7.3861268488018916e-01  6.6304378977019485e-01  6.6457386361319226e-01  6.6304191724159578e-01  6.6456016952479890e-01  6.6431400318438139e-01  6.6294216907613457e-01  6.6422174981052806e-01  6.6288093255327141e-01  6.6415698982577254e-01  6.3390589525318097e-01  6.3400091138959658e-01  7.1089679286664309e-01  7.1092326055418564e-01  7.1099711631997731e-01  7.1109280278922549e-01  7.1118500963386733e-01  7.1124729448387802e-01  7.1125067275979992e-01  7.1797841292294029e-01  7.0892117794817167e-01  7.0893951409700040e-01  7.1799069539608806e-01  7.0898670552222642e-01  7.1802104955558022e-01  7.0904581564946800e-01  7.1806292644001712e-01  7.0910453668237494e-01  7.1810812147792347e-01  7.0914883028079911e-01  7.1814798841139027e-01  7.0915293981782934e-01  7.1817412163756489e-01  6.8146020302520316e-01  6.7017095681207850e-01  6.7342246598565869e-01  6.7342504753956323e-01  6.7017502632460924e-01  6.8146360836489717e-01  6.7342926920351065e-01  6.7018901159746180e-01  6.8147426345737006e-01  6.7342890014441836e-01  6.7020140321240784e-01  6.8148572763378068e-01  6.7341756381683959e-01  6.7020345097770961e-01  6.8149006157239256e-01  6.7338963049871858e-01  6.7018650870548735e-01  6.8147955885533174e-01  6.7333997049971950e-01  6.7013985691049793e-01  6.8144821163386149e-01  6.6925577130991343e-01  6.6925930778206877e-01  6.6927048290233748e-01  6.6928205435552757e-01  6.6928716389009335e-01  6.6927868017378334e-01  6.6924831148646735e-01  7.1414379973772157e-01  7.1423157328599363e-01  7.1442806312613849e-01  7.1466259674226362e-01  7.1488469959192669e-01  7.1504427017398720e-01  7.1508567562178083e-01  7.4918909980250747e-01  7.4918740939266038e-01  7.4918669308565067e-01  7.4919099512722709e-01  7.4920475245375506e-01  7.4923313291927929e-01  7.4928399224397668e-01  6.4538399341851893e-01  6.6515002860002892e-01  6.6514447739087479e-01  6.6513379045987553e-01  6.6512561021790639e-01  6.6512705472530387e-01  6.6514677917971321e-01  6.6519904617645542e-01  6.4543819324991492e-01  6.4540844496347427e-01  6.4612788335239235e-01  6.4610180401085293e-01  6.4625079708325517e-01  7.0149508265684857e-01  6.9086618495142660e-01  6.9088129049311575e-01  7.0151044161366594e-01  7.0155716763713982e-01  6.9093326843427105e-01  7.0162364803662813e-01  6.9100795172036644e-01  7.0169379375358576e-01  6.9109575971604276e-01  7.0175247117219619e-01  6.9118908497624376e-01  7.0179146865082997e-01  6.9128148161946312e-01  6.4973207910246900e-01  6.4729184014727559e-01  6.4725894915581239e-01  6.4970256038951402e-01  6.4963786070455698e-01  6.4718291350088475e-01  6.4957720225968074e-01  6.4710391055027827e-01  6.4955707816133335e-01  6.4705890177595604e-01  6.4961258375574693e-01  6.4708573692103766e-01  6.4977677085132302e-01  6.4722738855601403e-01  6.6749135233306689e-01  6.6748562887986396e-01  6.6747510579400160e-01  6.6747511645292523e-01  6.6750122666981948e-01  6.6756921020279425e-01  6.6769375351520610e-01  6.8499576424591457e-01  6.8500392858810233e-01  6.8502210447665002e-01  6.8504156916385461e-01  6.8505224869806514e-01  6.8504528646765994e-01  6.8501498998293875e-01  6.9267565353954974e-01  6.9268784891638480e-01  6.9272199789281541e-01  6.9276250086133773e-01  6.9279629764512285e-01  6.9281047747419389e-01  6.9279127979597321e-01  6.5890667112097179e-01  6.5889160827394955e-01  6.5886115441822923e-01  6.5884399367769098e-01  6.5886838285724736e-01  6.5896103625840374e-01  6.5914030840131499e-01  7.2247857466879484e-01  7.1212837441406418e-01  7.2158972843065261e-01  7.2166006027617391e-01  7.1219921356913352e-01  7.2255948116609137e-01  7.2184447603459112e-01  7.1236914113247307e-01  7.2275994886053974e-01  7.2207087322599794e-01  7.1257734494255254e-01  7.2300399128804360e-01  7.2228559036598938e-01  7.1277258482617856e-01  7.2323352650762263e-01  7.2243389098245425e-01  7.1290714120676169e-01  7.2339018338782213e-01  7.2244223537772467e-01  7.1293563883905697e-01  7.2340742792124246e-01  7.4315207285578044e-01  7.4315819586046072e-01  7.4317963378344498e-01  7.4320886020609356e-01  7.4323665130707539e-01  7.4325136005625858e-01  7.4324213965843344e-01  7.3634430135492890e-01  7.2646559301172742e-01  7.2649249827309659e-01  7.3634614430876755e-01  7.3637744080320411e-01  6.5851808168625459e-01  6.5851371562556416e-01  6.5848731388565596e-01  6.5846767925842009e-01  6.5848083716674211e-01  6.5855385801257771e-01  6.5871278844692094e-01  7.1963361705429740e-01  7.1966429015588051e-01  7.1974697442621627e-01  7.1985229312340682e-01  7.1995178447282426e-01  7.2001458690399411e-01  7.1999769240253264e-01  7.5871251091103831e-01  7.5871093430706515e-01  7.5870743244516969e-01  7.5870811518706005e-01  7.5871837583992041e-01  7.5874328466807761e-01  7.5878800014878789e-01  6.8977653234160374e-01  6.8976016389751482e-01  6.8974568794733548e-01  6.8975710383036815e-01  6.8979474537996821e-01  6.8986392160586596e-01  6.8997667466078638e-01  7.3408479170778473e-01  7.3008897085345614e-01  7.3010708345788156e-01  7.3410263028627520e-01  7.3014905780518347e-01  7.3414475779796129e-01  7.3020402707667753e-01  7.3419946158567473e-01  7.3025482202771352e-01  7.3424887142216277e-01  7.3028177127758798e-01  7.3427162564254167e-01  7.3026417964518597e-01  7.3424423063048627e-01  7.5113077664513717e-01  7.4076329223003157e-01  7.4077149358837080e-01  7.5112719937772932e-01  7.4079453555944641e-01  7.5111608315657596e-01  7.4082808422398994e-01  7.5110993329507059e-01  7.4087232754788657e-01  7.5111853022200892e-01  7.4092767736369058e-01  7.5115368150659456e-01  7.4098786803860350e-01  7.5123575762610928e-01  7.1108837208843534e-01  7.1692394981730223e-01  7.1158382374620266e-01  7.1730599597598588e-01  7.1206078110664106e-01  7.1767700191714900e-01  7.1242800212288115e-01  7.1796362502937161e-01  7.1257778765281221e-01  7.1805389556152699e-01  7.3194875369968970e-01  7.3198454320996786e-01  7.3208362529926796e-01  7.3641555450922924e-01  7.3220692581476254e-01  7.3232204394871314e-01  7.3239778665851885e-01  7.3240984370977302e-01  7.0854495373974535e-01  7.0988392023982572e-01  6.9955122416540438e-01  6.9956689261080807e-01  7.0990376186505411e-01  7.0855602530733186e-01  6.9961274899851233e-01  7.0995483866842368e-01  7.0858641549162615e-01  6.9967539643514431e-01  7.1002167402162941e-01  7.0862788259467802e-01  6.9974186018494178e-01  7.1008725495508940e-01  7.0866904250008300e-01  6.9979978866668702e-01  7.1013317108396579e-01  7.0869761142741694e-01  6.9983818453768820e-01  7.1013575523372763e-01  7.0870252656584221e-01  7.5973085910969373e-01  7.5972304110491695e-01  7.5970557078571788e-01  7.5969155213137785e-01  7.5969213533117408e-01  7.5972000114886862e-01  7.5979291596303855e-01  7.1649512402859294e-01  7.1661229046972930e-01  7.3168054415782080e-01  7.3168785271509806e-01  7.3171290050098081e-01  7.3175043019421759e-01  7.3179757807937995e-01  7.3185093542326951e-01  7.3190204799412817e-01  6.9575971067541953e-01  6.9588729819706163e-01  6.9602174971983677e-01  6.9614597083810192e-01  6.9625086043811535e-01  6.4624359841833290e-01  6.4618928680437848e-01  6.4613242097838253e-01  6.9120173774929472e-01  6.9121906941320366e-01  6.9127093766523162e-01  6.9134637196602189e-01  6.9143737299517360e-01  6.9153776496971264e-01  6.9164316979134632e-01  6.3634394400148131e-01  6.3648935529170947e-01  7.3180748456808109e-01  7.2498118933139533e-01  7.2501285052735021e-01  7.3183489255875345e-01  7.2509897566595338e-01  7.3190237854760576e-01  7.2520814845227832e-01  7.3198792103298504e-01  7.2531079530043929e-01  7.3206627249024192e-01  7.2537457321230436e-01  7.3210898426823134e-01  7.2536076313275966e-01  7.3208742813467875e-01  7.4441184216581147e-01  7.4456957504605137e-01  7.8732516881864034e-01  7.8182770892896902e-01  7.0419165149194618e-01  7.0140196192171411e-01  7.0141558389988146e-01  7.0420540412818911e-01  7.0145437301732660e-01  7.0424671066189615e-01  7.0150280799951026e-01  7.0430013810373027e-01  7.0154703724614775e-01  7.0434923280798634e-01  7.0157194106418641e-01  7.0437615268287224e-01  7.0155981667638134e-01  7.0436119711893552e-01  7.7156216423217683e-01  7.7155636567113173e-01  7.7154887741105349e-01  7.7155845952923052e-01  7.7160102346936843e-01  7.4850815382665903e-01  7.3817655069224142e-01  7.4229533424185712e-01  7.4231682044008518e-01  7.3821287689660320e-01  7.4852853546721809e-01  7.4236244209510827e-01  7.3829986470245712e-01  7.4857058772064866e-01  7.4241767130786596e-01  7.3840373792508562e-01  7.4862103241284617e-01  7.4246916452802325e