<?xml version="1.0"?>
<VTKFile type="UnstructuredGrid"  version="0.1"  >
<UnstructuredGrid>
<Piece  NumberOfPoints="1019" NumberOfCells="4406">
<Points>
<DataArray  type="Float64"  NumberOfComponents="3"  format="ascii">10.47859488461395 1.743199149549865 2.310221683024858  10.39011876681951 1.746475835728203 2.389186253413879  10.38273083948475 1.724029119284048 2.239661572515492  10.38905879737766 1.667763615780034 2.242278509007262  10.39683539946244 1.69240529673649 2.398864054048915  10.48597589267946 1.688015048236318 2.317507211734648  10.39525864057125 1.611415413315949 2.244792593467745  10.40347460904878 1.638254956620224 2.408512436685674  10.49329241959396 1.63275112263528 2.32471043883513  10.40142678604492 1.555024175394698 2.247285859556934  10.41008562860593 1.58403959932603 2.418148189787025  10.50060100487238 1.577426358742889 2.331893258842316  10.41672859369495 1.529787024632423 2.427807391808069  10.50795116995733 1.522058110705792 2.339107318438697  10.40764227875548 1.498597133978777 2.249807817571164  10.42344169225265 1.475503761082034 2.43752695641128  10.51537027436656 1.466659465806737 2.346397574449021  10.41395715113066 1.442143086847034 2.252394613525482  10.43023782909035 1.421187278292761 2.447327135254973  10.52285832381607 1.411205931080995 2.35380424121657  10.4203808474043 1.385644156210024 2.255083961648562  10.19504683088765 1.728761504654526 2.022000283859359  10.20844646622608 1.70816188518386 2.128451625072066  10.0947105917528 1.702891132348889 2.133114244430004  10.09693146857657 1.646484370595371 2.127370360064911  10.21183358923589 1.651283410139894 2.123806259890633  10.1978496550444 1.673404958623024 2.007485854029059  10.09874866479027 1.590069447768875 2.121500219723802  10.21493822334777 1.59437065551028 2.11903531707719  10.20036090587878 1.618022151465165 1.992820804473827  10.10043300113196 1.533667086909613 2.115595610885951  10.21796245780892 1.537454090423338 2.114235527226385  10.20277781034868 1.562626892319416 1.978109479470885  10.10216275928515 1.477289076311859 2.109709405133873  10.22103996446715 1.48053563270176 2.109460680214795  10.20523674013423 1.507228575274416 1.963414663582168  10.10411401222196 1.420948762015484 2.103886974784413  10.22428613509263 1.423610479877239 2.104753104319987  10.20784621588217 1.451825782625738 1.948778547685905  10.10650293879604 1.364622251196227 2.098157166450642  10.2278007973906 1.366638204004045 2.100144113222089  10.21070478527804 1.396392610051209 1.934241686476412  10.02916198723676 1.720385710616813 2.013038084891143  10.1343339382761 1.754490659011443 1.930767037585727  10.13659900110318 1.70068314668729 1.911420990124234  10.03079350543319 1.665323105936841 1.998243406054094  10.13856509178087 1.646924925562483 1.891879833941186  10.03207430661722 1.610320886080363 1.983282289679005  10.14042613735607 1.593197940852753 1.872284828333369  10.03323603370873 1.555386887684028 1.968273192691691  10.14232865346718 1.53949183037878 1.8527071255365  10.03443577803979 1.500509332271816 1.953288288554775  10.14441076186029 1.485786306442207 1.833195060084365  10.03582234176071 1.445685574143829 1.938388785002756  10.14680589105507 1.432054670147035 1.813805637428353  10.03757810598724 1.390866608292743 1.923624048672997  10.75551151635523 1.784058705103561 2.005521691742546  10.66061109222855 1.76869702417188 2.074578686285489  10.65284610100074 1.77874381278011 1.94232667488286  10.65721122581665 1.721175515712972 1.932262516866031  10.66675519009116 1.711727372119526 2.070608634821387  10.76072868135851 1.726490711198767 2.000211796981598  10.66137666573213 1.663534562138034 1.922036186763983  10.67276322656562 1.654663424756005 2.066496184760392  10.76579149547398 1.668781152802846 1.994757340295042  10.66552228009309 1.605839979193222 1.911774272835915  10.6787544907778 1.597508533975713 2.062333819161765  10.77085434465547 1.610952555428156 1.98926200563428  10.6697655952806 1.548091564482889 1.901550969768912  10.68481441326139 1.540283814982124 2.058188696267266  10.77601203132772 1.553035935602705 1.98379413644085  10.6741932828901 1.490293748980559 1.891424681755945  10.69100718505469 1.48301231716266 2.054108134434568  10.78133348088108 1.495045813778869 1.978398789696409  10.67884824846661 1.432460021451823 1.881429558759123  10.69736435600483 1.425713587100671 2.050147406311897  10.78688278232497 1.436990526440031 1.973113841042062  10.27152196064401 1.716801932954888 2.300138723315616  10.27699425532111 1.661195147128171 2.304883785151629  10.28232460014057 1.605517142029648 2.309582582328512  10.28759464672217 1.549815811955658 2.314261329287917  10.29290140189602 1.494102782507372 2.318959808634514  10.29831887022975 1.43838533612635 2.323713682689108  10.30388424073986 1.382626064677627 2.328544645217313  11.45375371973424 1.862504408884632 1.74297697409685  11.33605292085519 1.854409119717372 1.784673748056624  11.34526589828675 1.877712380031892 1.649717228641862  11.34519962757693 1.810214041864694 1.633527898770111  11.33794696433819 1.78767911156842 1.775903062837526  11.45425525683664 1.792771350402872 1.733598178879462  11.34491703892734 1.742396735454493 1.617580194997502  11.33969358451382 1.720726358777528 1.767492102935496  11.45454077435324 1.722644467061094 1.724874957391681  11.34460700862836 1.674304344798901 1.601712871503583  11.34135794599467 1.653546167126559 1.759215087893359  11.4547275855246 1.652184039314498 1.716313443592381  11.34442122138629 1.605942598926831 1.585793193934863  11.34305017019214 1.58615428550546 1.750879830567998  11.45490515567182 1.581446504254773 1.707583847629985  11.34442720510969 1.537302058866871 1.569664579163162  11.34486167671669 1.518533528000199 1.742318001388743  11.45517975164427 1.510416180988439 1.698493943285337  11.34469242473423 1.468395980751833 1.553238003599732  11.34700692111584 1.450617814358389 1.733538713753087  11.45566200589856 1.438999309413215 1.688962970036281  10.54184322306077 1.761474902302025 1.997790978445383  10.54634493402915 1.704345486144606 1.988747533058993  10.5506768931671 1.647160600366312 1.979537814448617  10.55497288527846 1.589934312859228 1.970284391304784  10.55933303272696 1.532666885364015 1.961053629195455  10.56382248853327 1.4753673084511 1.951901200978644  10.56850863181401 1.418027365679931 1.942886646125753  10.77124998123129 1.777112260003167 2.098165771029697  10.77679100471132 1.719777174509554 2.095772377205888  10.78216950184065 1.662355720701122 2.093258967679913  10.78755454465316 1.604860002051778 2.090713427689579  10.793029512569 1.547297755613097 2.088199660875326  10.79865448524552 1.489691916020999 2.085764465988298  10.80449346487146 1.432069714388184 2.083429457234092  11.22591657205205 1.870634019108108 1.675488066839275  11.2264391597693 1.805789797436217 1.660005122674704  11.22677783214896 1.740670325640972 1.644563256052682  11.22711407939331 1.675351632734488 1.629156889499763  11.22761179038925 1.609814885195161 1.613754149677606  11.22840107858511 1.5440305126732 1.598301453016983  11.22950438818295 1.477952453107786 1.582726334633818  11.57487166300479 1.848675461541851 1.964108191161091  11.45898052353584 1.846071208047333 1.990288860961184  11.46388144210895 1.850996503926498 1.853936474149327  11.46560748102377 1.782101637113494 1.849782159138011  11.46133682223827 1.77892825911717 1.99042567097783  11.57582467700539 1.778540361697408 1.963685872640453  11.467198148465 1.712890185401128 1.846436943759403  11.46365662015445 1.711634486880575 1.991305510117151  11.57675085902558 1.708135237828359 1.964366460290508  11.46868713658866 1.643415489184802 1.843258313015676  11.46595990621118 1.644142038852064 1.992405487306282  11.57765596444489 1.637483507561045 1.965230334468618  11.47016293890795 1.573696472378398 1.839929148076121  11.46832428500051 1.576460702492202 1.993440390288805  11.57859908088574 1.566592389354655 1.965853202944869  11.47165777529869 1.503737094285867 1.8362075785005  11.47083486080488 1.508589640751824 1.994205564251137  11.5796135709961 1.495454477079735 1.965995502686565  11.47327980019533 1.433413961753841 1.832028511259977  11.47372228681357 1.440463374890469 1.994555537707036  11.58063666941911 1.423993071457835 1.965781542987924  11.22363184984027 1.908947457881894 1.550932395896849  11.22234919522922 1.846170011547253 1.524234036898645  11.22089958406677 1.783173854956967 1.497395029361355  11.21955414953399 1.719947799861903 1.470567154944733  11.21849880298948 1.656457720694911 1.443797640973852  11.2177043417395 1.592712949467186 1.416957297829228  11.21715039957179 1.528752419099052 1.389989301847973  11.69599999999867 1.849018448174723 1.974040829611435  11.57642017697061 1.851377239895465 2.097129585191988  11.57724635852742 1.782880104592229 2.099918326522737  11.69599999999864 1.775829186409969 1.975294905120287  11.57817340055032 1.714326553276553 2.103735537945169  11.69599999999862 1.702316256848156 1.977784528190894  11.57912116902385 1.645581194730747 2.107763081536294  11.6959999999986 1.628535688310954 1.980395460403975  11.58013651523253 1.576683939793488 2.111664598991385  11.69599999999857 1.554456034739846 1.982671101408117  11.58125908282457 1.507633017864934 2.115135967600182  11.69599999999855 1.480046044357554 1.984353451264536  11.58289608499321 1.438125361062638 2.118077100273767  11.69599999999852 1.405298195975283 1.985951119345618  9.993224154593424 1.644638107774639 2.134876664611916  9.995639219521449 1.588828507326044 2.128845896935446  9.997912819977088 1.533036461030285 2.122751010200489  10.00020136033432 1.477273756273297 2.116658979989209  10.00265864967595 1.421539682918943 2.110630005690222  10.00546763837768 1.365852960936424 2.104720988042745  11.35984314074808 1.844877949022942 1.895842533365475  11.36297716998751 1.778726042753767 1.892523787667621  11.36606750695384 1.712380330725193 1.889659523543811  11.36910769312305 1.64583701689086 1.886978721024005  11.37218792052488 1.579108897676627 1.884
[...]
<PointData  Scalars="f_14"> 
<DataArray  type="Float64"  Name="f_14"  format="ascii">-2.6608898175617006e-14  -2.8877493776358043e-14  -2.8891204915396569e-14  1.9908645242991901e-01  1.8308950213455980e-01  1.9209829689409194e-01  3.8060696070068589e-01  3.5941576108873557e-01  3.7051275775070452e-01  5.5097842650891493e-01  5.2888628674196470e-01  5.4033961661295304e-01  6.9172985524631558e-01  7.0262994937920920e-01  7.1184286895005766e-01  8.4848201778810040e-01  8.5728215123799345e-01  8.6285264359880987e-01  1.0000000000002052e+00  1.0000000000002076e+00  1.0000000000002052e+00  -3.3213549324969776e-14  -3.3096343554606490e-14  -3.5961543109285671e-14  1.9927232345979942e-01  2.0735014033576371e-01  1.9656757408420913e-01  3.8111416725044511e-01  3.9082182876601684e-01  3.7869742744350438e-01  5.5150507085618206e-01  5.6141014592834670e-01  5.4922988153845842e-01  7.1201365852961662e-01  7.2111976194908378e-01  7.0940025372322857e-01  8.6270181776748456e-01  8.6970268718008659e-01  8.5982681392192206e-01  1.0000000000001981e+00  1.0000000000002010e+00  1.0000000000002010e+00  -3.7363584290389989e-14  -3.4523564148298507e-14  1.9233268312891846e-01  2.0312853375683784e-01  3.7357204657147430e-01  3.8571169720087223e-01  5.4395406014338654e-01  5.5609805608420670e-01  7.0451539616775016e-01  7.1619384022767318e-01  8.5617239807197454e-01  8.6580143116820740e-01  1.0000000000001996e+00  1.0000000000001967e+00  -1.9565876038233775e-14  -2.1887786142606264e-14  -2.1910643291946335e-14  1.9634993479712096e-01  1.7905801901151785e-01  1.7899325616667974e-01  3.7626261923529020e-01  3.5369091794698748e-01  3.5413645207453159e-01  5.4610577458298648e-01  5.2249699789277282e-01  5.2301441246408631e-01  7.0754602311059045e-01  6.8556683994140566e-01  6.8586739507121453e-01  8.6029931017220229e-01  8.4386494283831581e-01  8.4371131962866475e-01  1.0000000000002123e+00  1.0000000000002123e+00  1.0000000000002147e+00  -3.1740286129575577e-14  1.9632180036701721e-01  3.7653016304599030e-01  5.4668405495824457e-01  7.0797692349728714e-01  8.6032927523066305e-01  1.0000000000002023e+00  -4.4918016940286786e-15  -6.7678639650596075e-15  -6.5341460810375191e-15  1.9506824300269673e-01  1.8281660344013911e-01  1.8678269830520663e-01  3.7602078414650325e-01  3.5809902236206365e-01  3.6504096073649278e-01  5.4633292573255399e-01  5.2707894889737927e-01  5.3532915357979383e-01  7.0728420216808252e-01  6.9010179700370733e-01  6.9789194240621888e-01  8.5914710757928325e-01  8.4757938742367556e-01  8.5295955082944386e-01  1.0000000000002280e+00  1.0000000000002278e+00  1.0000000000002300e+00  -2.4649206227971113e-14  1.9330167621482669e-01  3.7226899224335142e-01  5.4206688431039973e-01  7.0380313034197661e-01  8.5753363125866422e-01  1.0000000000002094e+00  -1.9329211524697946e-14  1.8418700320559295e-01  3.5854138824098741e-01  5.2702988003652340e-01  6.9036504103565144e-01  8.4893439621388123e-01  1.0000000000002147e+00  -8.9024028731810247e-15  1.9236864667963105e-01  3.7168677920292276e-01  5.4148935276550514e-01  7.0297805072756170e-01  8.5655721170088150e-01  1.0000000000002256e+00  -2.2604755866006083e-15  -4.4566342759289042e-15  -4.3256559221036255e-15  1.8079423432417940e-01  1.7433810083926662e-01  1.8001179830341782e-01  3.5564454319018179e-01  3.4531404947342892e-01  3.5479289554721255e-01  5.2494389437557099e-01  5.1344773985538694e-01  5.2503406477361303e-01  6.8879605793459919e-01  6.7855938444437558e-01  6.8997069113590193e-01  8.4723464960734807e-01  8.4077963073069384e-01  8.4854596918826741e-01  1.0000000000002303e+00  1.0000000000002300e+00  1.0000000000002323e+00  -8.8648748149958979e-15  2.0500255586928678e-01  3.8873161136291978e-01  5.5899881341851221e-01  7.1784772539407393e-01  8.6578285878589611e-01  1.0000000000002258e+00  0.0000000000000000e+00  -2.2569408311543542e-15  1.7315613194019455e-01  1.8713288692561628e-01  3.4551660440214726e-01  3.6805678571056388e-01  5.1487615728007452e-01  5.4336773345795208e-01  6.8018886270142143e-01  7.1156451440285040e-01  8.4068120129286483e-01  8.6876122174415571e-01  1.0000000000002323e+00  1.0000000000002340e+00  1.8597511696584701e-01  3.6504510642897764e-01  5.3507240499268549e-01  6.9656344346401966e-01  8.5035126542596629e-01  1.0000000000001954e+00  -6.3383356854290776e-15  1.7702996949951480e-01  3.4915494572694877e-01  5.1725389229516883e-01  6.8154252332071819e-01  8.4245812519729879e-01  1.0000000000002283e+00  -1.1277910344694414e-14  2.0581676715553507e-01  3.8954627869344582e-01  5.5984954110645113e-01  7.1894181762876141e-01  8.6688501099375270e-01  1.0000000000002234e+00  -2.3742661979789404e-15  -4.8308413615995606e-15  -4.6925303486018392e-15  1.6973992321822004e-01  -1.1539752279794209e-14  1.8849524026642916e-01  3.6710102029611436e-01  5.3671510021653801e-01  6.9830271865546356e-01  8.5259882108701157e-01  1.0000000000002229e+00  -8.9759423679602329e-15  1.7844910284482296e-01  3.5082245709631921e-01  5.1869302562114783e-01  6.8252617678915217e-01  8.4270043574242459e-01  1.0000000000002256e+00  -9.1294278854249429e-15  1.7981472464828654e-01  3.5470284434076521e-01  5.2335710370719968e-01  6.8627365156120501e-01  8.4436395748699500e-01  1.0000000000002254e+00  -4.8045017374196829e-15  -7.2661756416122969e-15  -6.9724361389576190e-15  1.7015003489083036e-01  1.7822643867061091e-01  1.7376401815100503e-01  3.3881757815646230e-01  3.4903288270829225e-01  3.4406717617481208e-01  5.0525435028140731e-01  5.1610196234738670e-01  5.1140908677795460e-01  6.6984311717631406e-01  6.8041437991899989e-01  6.7608618995636049e-01  8.3365698129071142e-01  8.4217636328381662e-01  8.3851931286456782e-01  1.0000000000002276e+00  1.0000000000002274e+00  -1.1598035109771702e-14  1.8675842965413175e-01  3.6225638193202547e-01  5.3092919115971771e-01  6.9369674715796426e-01  8.5089467992443302e-01  1.0000000000002229e+00  -1.4136733660339792e-14  1.8488103889958327e-01  3.6269850629219863e-01  5.3218662966837349e-01  6.9399621744492468e-01  8.4925193528943654e-01  1.0000000000002203e+00  0.0000000000000000e+00  -2.4226017447527095e-15  1.8426015922774391e-01  -1.4208752577123085e-14  1.7992628133057251e-01  3.5492487197133221e-01  5.2347968571964110e-01  6.8600094690797064e-01  8.4356211294440009e-01  1.0000000000002203e+00  3.3902827919233769e-01  5.0623663111574690e-01  6.7113172989691838e-01  -7.2266430936059728e-15  -9.6958182080489318e-15  -9.3397173025878913e-15  1.7591596229771753e-01  1.7054222419277293e-01  1.6996920936860430e-01  3.4594958037059775e-01  3.3975475645186670e-01  3.3841901383460316e-01  5.1302743957135488e-01  5.0648989873492145e-01  5.0511458072494264e-01  6.7785709783873982e-01  6.7112969052771321e-01  6.7037038131458349e-01  8.4069819436198057e-01  8.3460401186972411e-01  8.3490271024176610e-01  1.0000000000002252e+00  1.0000000000002249e+00  1.0000000000002274e+00  -7.0429155067712378e-15  1.7573538573072744e-01  -9.4838049551748194e-15  1.7911925358630104e-01  3.4994863273315141e-01  5.1708377074648049e-01  6.8144976150466063e-01  8.4324130489046012e-01  1.0000000000002252e+00  0.0000000000000000e+00  1.8316076511593124e-01  3.6212463133692097e-01  5.3663476565031853e-01  7.0497835582656787e-01  8.6406787550822550e-01  1.0000000000002340e+00  -3.0928564169403683e-14  1.9339608158305774e-01  3.7500345591390810e-01  5.4564453135954027e-01  7.0629852624889844e-01  8.5761659780957911e-01  1.0000000000002032e+00  -3.2145808321298040e-14  1.8861362780482976e-01  3.6620087977139221e-01  5.3581765444715834e-01  6.9826621695104751e-01  8.5357707030237362e-01  1.0000000000002021e+00  -1.3776825557674983e-14  2.0992947386970914e-01  3.9324283691794742e-01  5.6338228469149398e-01  7.2280805778664659e-01  8.7089591927979770e-01  1.0000000000002207e+00  0.0000000000000000e+00  1.8036400552730400e-01  0.0000000000000000e+00  -2.3346157691873045e-15  1.7276022190786991e-01  1.8694116881952344e-01  3.4502080342934799e-01  3.5987430533606474e-01  3.6661620191853450e-01  5.1441808706215475e-01  5.3503555537806069e-01  5.4141303762810822e-01  6.7994413916061880e-01  7.0412363819928114e-01  7.0997174151033049e-01  -1.1481998558377078e-14  1.8214407962608450e-01  3.5567612260182824e-01  5.2383688936954642e-01  6.8747485667098795e-01  8.4684334340554557e-01  1.0000000000002229e+00  3.4561645879346775e-01  5.1247552879892322e-01  6.7701567180947064e-01  8.3970914010553410e-01  0.0000000000000000e+00  1.8719930491514511e-01  3.7013985854276438e-01  5.4635788012858000e-01  7.1398160546574041e-01  8.6970771084902643e-01  1.0000000000002340e+00  -1.7165632073781941e-14  -1.6737901527696959e-14  1.8368348088613753e-01  1.8394005632785540e-01  3.5935420757665493e-01  3.5849318548398135e-01  5.2817345119086634e-01  5.2697245983362506e-01  6.9094389922775745e-01  6.9020590541623106e-01  8.4822907564962446e-01  8.4845481891781049e-01  1.0000000000002176e+00  1.0000000000002172e+00  -1.1961315908208117e-14  1.7887683985614500e-01  3.5037198287615279e-01  5.1788279811381532e-01  6.8224674595206181e-01  8.4363317474217014e-01  1.0000000000002225e+00  -1.1725066880876528e-14  -1.4067689535674966e-14  1.8624395625842655e-01  1.7244975107337204e-01  3.6109464265491398e-01  3.4330788882483199e-01  5.2947006783973050e-01  5.1067410354606435e-01  6.9244414722444336e-01  6.7474212473008643e-01  8.5020573995067616e-01  8.3653605782366258e-01  1.0000000000002205e+00  1.0000000000002227e+00  -2.5763423176724335e-15  1.7489843590672038e-01  3.4666247686960555e-01  5.1543648079103310e-01  6.8065932877106472e-01  8.4186013411800575e-01  8.6818499126035353e-01  1.0000000000002320e+00  1.0000000000002340e+00  -2.7519736104739084e-14  -2.8072790448646745e-14  -3.0337667088367136e-14  2.0948563708556883e-01  1.8888335612010962e-01  1.9474632880807594e-01  3.9313658868176848e-01  3.6885969223627990e-01  3.7466031815668438e-01  5.6355126428987312e-01  5.3910972901038368e-01  5.4466797806046385e-01  7.2297623994648563e-01  7.0038410499491954e-01  7.0580613977527373e-01  8.7069309160767061e-01  8.5368331272625053e-01  8.5831518707598042e-01  1.0000000000002038e+00  1.0000000000002063e+00  1.0000000000002067e+00  -2.2532164362808662e-15  1.9228776330491584e-01  3.7379291039137652e-01  5.4593147337321191e-01  7.0836371425209466e-01  8.6028948328174415e-01  1.0000000000002323e+00  -1.2611528667540673e-14  1.7411977733752290e-01  3.4494231541545178e-01  5.1227701385669588e-01  6.7653097532665374e-01  8.3841942333250941e-01  1.0000000000002218e+00  -3.4064625938031097e-14  -3.6862412167030809e-14  2.0430533623761610e-01  1.9646267748650190e-01  3.7767773549595784e-01  3.8642000305775470e-01  5.4793240793512810e-01  5.5660368647092784e-01  7.0846919447789847e-01  7.1678208057230774e-01  8.5957359715139103e-01  8.6679499441957963e-01  1.0000000000001972e+00  1.0000000000002001e+00  -1.4420801320594969e-14  1.8016961542497875e-01  3.5338975499661579e-01  5.2143308209657868e-01  6.8501652115540312e-01  8.4466793495245152e-01  1.0000000000002200e+00  -2.9922600249807964e-14  1.8999831842390202e-01  3.6968120771481017e-01  5.3971493745699606e-01  7.0088438644324391e-01  8.5414572292203927e-01  1.0000000000002043e+00  -9.1542547164124451e-15  1.7335928262036415e-01  3.4350058704242470e-01  5.1066967342128833e-01  6.7522316051425035e-01  8.3790889082461228e-01  1.0000000000002254e+00  -6.8501638435018728e-15  1.7157402543328307e-01  3.4038452286835702e-01  5.0713349845932609e-01  6.7217386118470868e-01  8.3613045704678102e-01  1.0000000000002278e+00  -2.5898836297483212e-14  1.9644628824218141e-01  3.7605155169082288e-01  5.4589714478138174e-01  7.0738174691989908e-01  8.6015959711594558e-01  1.0000000000002083e+00  -2.3921600876403390e-14  -2.4253415597779654e-14  -2.6518854523447595e-14  2.0568315817119248e-01  1.9489551454965379e-01  2.0026848047303125e-01  3.8768407298992391e-01  3.7569419946391680e-01  3.8197208657294196e-01  5.5782959283292077e-01  5.4585527527289246e-01  5.5205604266592678e-01  7.1814919034752567e-01  7.0675941120542074e-01  7.1232187715100104e-01  8.6806129954859756e-01  8.5879880713560219e-01  8.6295480383846723e-01  1.0000000000002074e+00  1.0000000000002098e+00  1.0000000000002105e+00  3.5898116109296851e-01  5.2888279086508905e-01  -2.1388437012820588e-14  -2.1829832858076090e-14  1.8783266230730569e-01  1.8602744892681128e-01  3.6685048043357327e-01  3.6472741805932091e-01  5.3653342675294258e-01  5.3440146596488181e-01  6.9771377570508675e-01  6.9552721833095554e-01  8.5159034379092846e-01  8.4926417680865740e-01  1.0000000000002125e+00  1.0000000000002129e+00  -2.1310627530448886e-15  1.8210716505877747e-01  3.5975512437605173e-01  5.3115107126180394e-01  6.9542419940225897e-01  8.5157140220650640e-01  1.0000000000002323e+00  -1.0017051185456755e-14  1.7340319116322511e-01  3.4406642397839049e-01  5.1133672398097563e-01  6.7566440008562501e-01  8.3776785168855794e-01  1.0000000000002245e+00  -1.5379207926857496e-14  -1.8548576313928079e-14  -1.7430477936782918e-14  1.7856954689152107e-01  1.7953089146463549e-01  1.8243288553555223e-01  3.5173509706166134e-01  3.5218037925741918e-01  3.5542044160451991e-01  5.1982414015363865e-01  5.2017502780818048e-01  5.2340723770284081e-01  6.8343685386323461e-01  6.8410018079727253e-01  6.8735305626539389e-01  8.4315696316437450e-01  8.4434885629897216e-01  8.4727493485359007e-01  1.0000000000002167e+00  1.0000000000002156e+00  1.0000000000002189e+00  -7.3914311068717532e-15  0.0000000000000000e+00  2.0065838148584339e-01  3.8797090235436604e-01  5.6475183246012406e-01  7.2984361477020898e-01  8.7961044639845209e-01  1.0000000000002340e+00  -3.1947535747322899e-14  1.9429131662706089e-01  3.7478085603996081e-01  5.4485787145385045e-01  7.0568589801529613e-01  8.5787531550704577e-01  1.0000000000002023e+00  -1.2773414152840661e-14  -1.2133615731423407e-14  1.8108052716474332e-01  1.7837695204942880e-01  3.5332547960216204e-01  3.5051583223871446e-01  5.2107009866361875e-01  5.1821038520803631e-01  6.8528835299389601e-01  6.8213366879480120e-01  8.4598259407588949e-01  8.4268793123630858e-01  1.0000000000002223e+00  1.0000000000002216e+00  -1.0044482165887441e-14  -1.2781668813166454e-14  -1.2244460246302505e-14  1.7786354598991735e-01  -4.6337309970645715e-15  -4.8737415529583096e-15  1.7309385436891633e-01  1.6884638157019663e-01  3.3779713932856520e-01  3.4234008399913191e-01  5.0483497539667022e-01  5.0943585460465046e-01  6.6982469443351023e-01  6.7464506597380092e-01  8.3358380571065649e-01  8.3831908433752689e-01  1.0000000000002298e+00  -2.1237507432990649e-14  -2.4147329897632327e-14  -2.2961303280666647e-14  1.8968155145412718e-01  1.8616361789049554e-01  1.7232945011724704e-01  3.6629381584930709e-01  3.6241705947414687e-01  3.4436225319210512e-01  5.3537977738964448e-01  5.3153168425926589e-01  5.1239402910541487e-01  6.9810769700304520e-01  6.9434746461536978e-01  6.7618153241818268e-01  8.5428863668399935e-01  8.5101489631090699e-01  8.3684320168380166e-01  1.0000000000002114e+00  1.0000000000002101e+00  1.0000000000002129e+00  -9.6030831649379017e-15  1.7571793560544055e-01  3.4648389140507618e-01  5.1376413806260357e-01  6.7825638269183097e-01  8.4045552491020281e-01  1.0000000000002249e+00  3.4972834741783249e-01  5.1729510441331916e-01  6.8135847889287404e-01  8.4237173308840230e-01  1.0000000000002223e+00  -1.6747486885881876e-14  1.9090579477719971e-01  3.6936676776611643e-01  5.3872923486363877e-01  7.0013976012230128e-01  8.5437186456568304e-01  1.0000000000002176e+00  -1.7402226373745835e-14  1.7629363845585444e-01  3.4870736423726650e-01  5.1661400867890972e-01  6.8041168722770429e-01  8.4079860090971537e-01  1.0000000000002167e+00  -2.6028428061889353e-14  1.9959017890642511e-01  3.8161625325362730e-01  5.5193188650366798e-01  7.1234158989232232e-01  8.6290385101910694e-01  1.0000000000002081e+00  -1.6787296567517546e-14  1.9010946686413907e-01  3.6770750320999435e-01  5.3670804030378882e-01  6.9845781392977757e-01  8.5339586595123573e-01  1.0000000000002176e+00  -2.4420964240313047e-14  -2.6179106289655277e-14  -2.7454810607469930e-14  1.8066997065830934e-01  1.7773949916696910e-01  1.7932603779822753e-01  3.5378866855589869e-01  3.5044375554935803e-01  3.5234030400387323e-01  5.2213829251488486e-01  5.1872195297269375e-01  5.2065398103450322e-01  6.8630278335750905e-01  -4.4916121929474021e-15  1.6928427670815629e-01  3.3845490809525458e-01  5.0579977780086882e-01  6.7102132449539875e-01  8.3466495668233120e-01  1.0000000000002300e+00  -1.5575024242597581e-14  -1.4600402618273609e-14  1.7739545957418529e-01  1.8431672748308955e-01  3.4968026957983173e-01  3.5839544311153232e-01  5.1750408538581782e-01  5.2668440301523178e-01  6.8146057231277024e-01  6.9024812653056156e-01  8.4207924784892085e-01  8.4897714652742318e-01  1.0000000000002198e+00  1.0000000000002187e+00  -1.5799445909004281e-14  -1.4806173326421192e-14  1.8155140704273809e-01  -1.9466682966124333e-14  2.0115023424441197e-01  3.8074920899797454e-01  5.5018813945173894e-01  7.1128442052698915e-01  8.6341901853773395e-01  1.0000000000002147e+00  -1.8478732247708271e-14  -2.1399855048382439e-14  -1.9886914328344676e-14  1.7977643068819898e-01  1.7540497921803791e-01  1.8501361407568595e-01  3.5267229839234909e-01  3.4778821926946213e-01  3.5936791456868844e-01  5.2074085785543622e-01  5.1593923690287125e-01  5.2781308919592906e-01  6.8463640605125042e-01  6.7993787841875974e-01  6.9136964417023627e-01  8.4475502916485834e-01  8.4039788629877121e-01  8.4989521878838281e-01  1.0000000000002143e+00  1.0000000000002127e+00  1.0000000000002156e+00  -1.4635848539193438e-14  1.7732619432777472e-01  3.4960846740148260e-01  5.1742601031228819e-01  6.8134892215615683e-01  8.4195236215163338e-01  1.0000000000002198e+00  -2.0189860404983809e-14  1.8151911410626231e-01  3.5529146975014536e-01  5.2363048338858720e-01  6.8714717211002285e-01  8.4615884454590540e-01  1.0000000000002141e+00  -1.8718001751516377e-14  -1.7659785186658985e-14  1.8038512077309046e-01  -2.0534260547858350e-14  1.8488419660142946e-01  3.5922166948690382e-01  5.2782737576356176e-01  6.9165634122608144e-01  8.5037472938490377e-01  1.0000000000002136e+00  -2.1924406891813285e-15  -3.6268948210550251e-14  1.9067762337467536e-01  3.7075597474021038e-01  5.4077111515115894e-01  7.0183191881751505e-01  8.5479286256370712e-01  1.0000000000001978e+00  -2.6005154870479669e-14  1.8205103142939691e-01  3.5590204213920512e-01  5.2447145393191164e-01  6.8844269635588085e-01  6.8470758045423685e-01  8.4777284151767496e-01  8.4621283705885741e-01  8.4466969298198380e-01  1.0000000000002081e+00  1.0000000000002067e+00  1.0000000000002096e+00  -2.8539071301329411e-14  1.8582656619529656e-01  3.6510127958103294e-01  5.3523961414060051e-01  6.9658045624285880e-01  8.5041152642387208e-01  1.0000000000002056e+00  -2.3514779018502483e-14  2.0123188476760634e-01  3.8293121828097937e-01  5.5296285494703934e-01  7.1324763619172082e-01  8.6379072925726497e-01  1.0000000000002107e+00  -4.4021539081665587e-15  2.0085092425374892e-01  3.8354635556789102e-01  5.5445779371929993e-01  7.1466209636182843e-01  8.6421340548187620e-01  1.0000000000002303e+00  -2.2660012412285567e-14  1.8234267284268940e-01  3.5605326090988787e-01  5.2451726082175998e-01  6.8834277646385689e-01  8.4762543634163967e-01  1.0000000000002116e+00  3.5466478725556944e-01  5.2270250227973714e-01  6.8656617184805657e-01  8.4631808123849417e-01  1.0000000000002196e+00  -2.3006531403941762e-14  1.7900543803239155e-01  3.5204386887819727e-01  5.2035113575272951e-01  6.8429577504369821e-01  8.4412436312664396e-01  1.0000000000002112e+00  -2.5594991864648538e-14  1.8090120931105241e-01  3.5574026503761402e-01  5.2468951060720437e-01  6.8809784856952605e-01  8.4639743668239531e-01  1.0000000000002085e+00  3.5380825171014213e-01  5.2203488346297211e-01  6.8577123503541515e-01  8.4529381708612994e-01  1.0000000000002165e+00  -3.0365239742916466e-14  -3.3289142126874802e-14  -3.1662961588662224e-14  1.7887575353928267e-01  1.7668787552377987e-01  1.788988464430640