<?xml version="1.0"?>
<VTKFile type="UnstructuredGrid"  version="0.1"  >
<UnstructuredGrid>
<Piece  NumberOfPoints="7706" NumberOfCells="37121">
<Points>
<DataArray  type="Float64"  NumberOfComponents="3"  format="ascii">4.835772757098651 2.791863139997921 0.8231085654265681  4.859928352991076 2.966519487149783 0.8183280400299996  4.949323731928574 2.869646665403472 0.8220359210997742  4.843521516621431 2.781842784593771 0.7532801393072164  4.866740759856238 2.970598572727202 0.7452098626654561  4.956062980280707 2.864062794301271 0.7507973375668849  4.873568306354763 2.974639002367988 0.6722999655919009  4.851306776570583 2.771900293154121 0.6837477350422345  4.962797925284274 2.858514698176455 0.6798111205590183  4.880382228919934 2.978634506368365 0.5996339798982626  4.859086882358516 2.761970267253339 0.6143829702742524  4.969527458429766 2.852958361178944 0.6090659181115927  4.976219049453461 2.847393387007213 0.5384750965050916  4.887156881809866 2.982580393679036 0.5271957003041294  4.866828159728683 2.752062490643786 0.5452154866531981  4.98285040471854 2.841799469860263 0.4680650084130542  4.893878821355813 2.986481289898671 0.4549328513053388  4.874502658587133 2.742135600302739 0.4761878719129477  4.882053048121235 2.732132608100691 0.4072860272503801  4.900534241582029 2.990314871835532 0.3827595389055295  4.989456808370991 2.836150255856923 0.397882056176699  4.962784031710258 1.293045238675167 1.490551399308133  5.105886206246026 1.331693092184997 1.462177062742162  5.055082997187112 1.226162325459813 1.567558455624586  4.966610660549288 1.248503110515437 1.446405362401406  5.108774075814583 1.286803856881697 1.417618717373047  5.060253048729423 1.175310018832864 1.529138153213091  5.065426033657087 1.124467847239486 1.490731843009584  5.111621026850292 1.241921492504202 1.373058788594523  4.970440606088959 1.203962354472619 1.402261890831803  5.114455259866244 1.197037019583796 1.32849412604692  4.974276024554077 1.159419033082869 1.358119209772663  5.070599503634564 1.07363815742558 1.452339529027189  5.117296298941304 1.152148254223819 1.28392678357191  4.978125719527868 1.114872207586361 1.313979038325401  5.075778711794074 1.022818722008378 1.413960806182099  5.12016219722773 1.107254660765508 1.239358268704936  4.982005100079654 1.07031981843913 1.269840337600471  5.0809693432266 0.9720097422042466 1.375596551165643  5.123085246542178 1.062354715158384 1.194787122735284  4.985919124786845 1.025764160161407 1.225700351416196  5.086175052418638 0.9212059760869394 1.337235187417911  5.402918909482917 2.243528021096917 1.011976667639334  5.379425003637693 2.39572027624683 0.9652633235387037  5.52907998028894 2.384025407040352 0.967173068745708  5.528517355552086 2.366840169578951 0.9080577412460787  5.379442180700587 2.378303046256443 0.9061339070510999  5.402511587187947 2.225100416277317 0.9547785402576925  5.527884766860235 2.349753976245521 0.8490118247953485  5.379385759153642 2.360989018890285 0.8470700676502831  5.402044930328969 2.206799338754962 0.8976158315746752  5.527229949671312 2.332741298224752 0.7900379684662701  5.379294484131769 2.343760454752045 0.7880955098821724  5.401576074500954 2.188585030357211 0.840482127496155  5.379213770547203 2.326574388442459 0.7291911674153402  5.401118772057029 2.170404199749932 0.7834250302977354  5.526590182123279 2.315768056950167 0.7311523117410365  5.379156133055583 2.309364839388086 0.6704093878308425  5.400687746811999 2.152177514004141 0.7264612484444326  5.525980785606465 2.298768697023315 0.6723846511595915  5.379151544468373 2.292045986493209 0.6117959524632721  5.400311186792324 2.133813827666956 0.6696428597822749  5.525436962987882 2.281660192244893 0.6137726776848073  5.306936773862561 1.478147184569765 1.342841744257135  5.431646300963628 1.539833854688553 1.310323694592891  5.400766854091552 1.40466668143374 1.407392983621027  5.404577285737751 1.363377709249192 1.360540218522222  5.435343759281626 1.50589843016073 1.259326954007451  5.309762481715098 1.441763228210676 1.29259593157693  5.439047439923111 1.471998454666813 1.208264453448424  5.312569692568461 1.405413320850734 1.242307684035264  5.408339641300547 1.322074892714629 1.313660384580059  5.442755857182456 1.438106238532473 1.15716862799821  5.315368495685066 1.369070552676681 1.191996008419319  5.412092523509864 1.280770377697097 1.266761905432902  5.446460644612246 1.404202857272767 1.106062523066131  5.318166072780261 1.332717195934646 1.141676642876013  5.415841912696975 1.239455189291636 1.219856284407288  5.419598172461962 1.198126030321218 1.172948800066714  5.45015173616558 1.370266575010157 1.054946109700851  5.320963960355313 1.296340362589517 1.091359420388516  5.423404409227358 1.156779988912746 1.12603296664226  5.453838472825557 1.336274895297523 1.003821693869088  5.323765913469516 1.259934416402939 1.041043517707271  5.566766002724495 1.144823603117242 1.816405754110598  5.519953705433203 1.20487383832047 1.678270835802572  5.659319875850104 1.188117128223023 1.730200451804818  5.665949590037132 1.13219157317234 1.701581666106229  5.525185478883181 1.14992015942403 1.647659729030212  5.572453771992858 1.086465730737662 1.793226259957517  5.578130107379636 1.028096289102976 1.770038175130706  5.530371670483865 1.094955454272502 1.617016060807108  5.672579640539618 1.076272009661317 1.672933106757287  5.583806812010304 0.9697264103098755 1.746840156846531  5.535543811375545 1.039984193657171 1.586354801953545  5.679221305316328 1.020371565535936 1.644273010081553  5.589477909980356 0.9113549812895434 1.723645167683951  5.540713880182842 0.985008418236775 1.555694042196977  5.685857562706119 0.9644784403121364 1.61562602517811  5.545901301239079 0.9300227150736777 1.525046305186628  5.59513436583499 0.852978163243497 1.700472729196797  5.692485084527492 0.9085852061034614 1.587015870768711  5.551151034743182 0.8750274773498782 1.494412865701651  5.600794952215168 0.7946030235738967 1.677322880369505  5.69912709241704 0.8526813568669636 1.558431503903338  4.175382251215987 1.89066375862255 1.144366198394927  4.313284334003245 1.95468364794356 1.106753064570696  4.287614506885986 1.829307452007339 1.165007799849791  4.284912375386953 1.805585176997481 1.112407859812531  4.311323540088407 1.930539169255838 1.053571194242713  4.171890653569598 1.866609157204545 1.091800203606474  4.168364479207303 1.842544222456423 1.039252785929369  4.309371829710147 1.906404750164555 1.000392487616996  4.282192576205251 1.78186608842668 1.059823247876976  4.16482307413039 1.81848097355563 0.9867364924676982  4.307424935169019 1.882281016172825 0.9472370215204715  4.279467639224284 1.758152344116575 1.007264227228767  4.161283360985188 1.794415780014712 0.9342539410393367  4.305478056876718 1.858155126212672 0.8941157115568364  4.276749072752347 1.73443750465004 0.9547367328162232  4.274047902031289 1.710709729549123 0.9022383728245272  4.303527175555101 1.834007721261991 0.8410319034833015  4.15776291719644 1.770342048045877 0.8818051377582298  4.27137484032178 1.686959915350061 0.849761111743159  4.301565867489618 1.809818242556465 0.7879790960280576  4.154286378044515 1.746253364326318 0.8293729132263149  3.991541217480066 3.698556371658856 1.338207427536615  4.060714809303454 3.728606006988149 1.41515125202811  4.080048611877761 3.664302473949722 1.281925884378632  4.068574280932948 3.803880642204564 1.388777533080252  3.998485250475829 3.771287279839985 1.302273199381589  4.085126691681688 3.736092660097749 1.244824380231953  4.090196836218716 3.80770264771449 1.207595249243451  4.076379752410499 3.87904807206725 1.362223893017007  4.005390843172163 3.843844935978267 1.266234846768009  4.095265813690426 3.879179223265395 1.170305369885368  4.084173728449354 3.954173149286275 1.335573267985906  4.012278852909829 3.916298426332924 1.230125258313313  4.100348991048904 3.95058672782868 1.132997327357653  4.092002784165613 4.029292952809569 1.308900840828561  4.019171912743835 3.988695077793561 1.193989442292742  4.105460013727268 4.021962323985676 1.095711099570032  4.09990701194763 4.104426596647175 1.282263795677475  4.026086927496404 4.061063344925469 1.157865609609095  4.110600760888282 4.093339944131435 1.058468460267769  4.107922957487274 4.17957420511393 1.255703355068646  4.033069475306254 4.133414894587321 1.121786892770985  5.755497550682214 1.269757884438477 1.622533513531514  5.816670473971783 1.205905608718916 1.740783904975435  5.825031166646473 1.150860053679428 1.711412663378449  5.764020125239694 1.218327730389087 1.587885319636424  5.772676340763902 1.166923705773865 1.553178461649709  5.833528602659278 1.095842085152632 1.681995365691325  5.781389435926479 1.115531000680428 1.518455007776412  5.842085584189857 1.040844083440466 1.652561648931696  5.790096385313126 1.064133399166551 1.483734948979564  5.850631090535593 0.9858531971026894 1.623137913773353  5.79874720795094 1.012708850012136 1.449028115058556  5.859098304603876 0.9308458066415936 1.593736672956307  5.807306168591518 0.9612343566170012 1.414339932020516  5.86744862309561 0.8757937975145894 1.564345404684406  4.190893101958958 3.696714739879053 1.365050046211961  4.169529763305832 3.628124615009745 1.220226622475653  4.172520951722637 3.698366950060533 1.180664768001333  4.196800930119218 3.770082972776359 1.335807466422174  4.202670818676204 3.843301296671298 1.306379396143864  4.175527689470416 3.768377143626642 1.14097337892361  4.208541518404242 3.91645779930616 1.276843895840576  4.1785488760881 3.838249765218564 1.101223174002235  4.214446975961749 3.98959523820072 1.247278437066202  4.181589531719256 3.908041434438896 1.061460649187771  4.220416465104409 4.062734897487825 1.217743710522166  4.184656564226708 3.977794606646579 1.021725522928574  4.226480739844852 4.135884431190777 1.188313377416915  4.187717879216183 4.04754450228771 0.9820448504324897  6.033015285135861 3.957036522866772 2.485090290710156  6.005692477651858 3.926858314443983 2.623887975571126  6.112815556335619 4.00406
[...]
<PointData  Scalars="f_14"> 
<DataArray  type="Float64"  Name="f_14"  format="ascii">1.8873791418627661e-15  2.1094237467877974e-15  1.8873791418627661e-15  1.9630561374069261e-01  1.9694138376297599e-01  2.0834390704052957e-01  3.7960680121380985e-01  3.7711397904071092e-01  3.9114123417711599e-01  5.4985830121212320e-01  5.4732503667801902e-01  5.6127558142745770e-01  7.2131313264823882e-01  7.0904134060301183e-01  7.0810745845467582e-01  8.7074026940522942e-01  8.5834816814941017e-01  8.5963272320650885e-01  9.9999999999999889e-01  9.9999999999999889e-01  9.9999999999999889e-01  2.1094237467877974e-15  1.9984014443252818e-15  1.8873791418627661e-15  1.8697809021639350e-01  1.8819523183131420e-01  2.0459858554731525e-01  3.8767471860659769e-01  3.6823835742578614e-01  3.6637199622150063e-01  5.3911691882582014e-01  5.3665584812610401e-01  5.5834791700339548e-01  7.0105224938912669e-01  6.9811825135833960e-01  7.1867593442037625e-01  8.5466684666957515e-01  8.5174004190520802e-01  8.6788548414270394e-01  9.9999999999999878e-01  9.9999999999999878e-01  9.9999999999999878e-01  1.7763568394002505e-15  1.7763568394002505e-15  1.6653345369377348e-15  1.7340663423263269e-01  1.6899412095548511e-01  1.6950264639012802e-01  3.4328004697837822e-01  3.3688344506330314e-01  3.3727562108754694e-01  5.1062486625402070e-01  5.0350403551749801e-01  5.0386618908521408e-01  6.6912955534363749e-01  6.6951736086017610e-01  6.7574496901444869e-01  8.3418324182614834e-01  8.3469230789130167e-01  8.3889872783850938e-01  9.9999999999999867e-01  9.9999999999999867e-01  9.9999999999999867e-01  1.8873791418627661e-15  1.7763568394002505e-15  1.7763568394002505e-15  2.0047082095714069e-01  1.9013468739204797e-01  1.9620315357886309e-01  3.6976151594072598e-01  3.7705656552328776e-01  3.8312629922962516e-01  5.3993091768713886e-01  5.4734276408805860e-01  5.5368356888163406e-01  7.0134258071302447e-01  7.0830704726490568e-01  7.1392821426920428e-01  8.6390372153943573e-01  8.5453434390364480e-01  8.6006874420072710e-01  9.9999999999999878e-01  9.9999999999999867e-01  9.9999999999999867e-01  1.7763568394002505e-15  1.7763568394002505e-15  1.6653345369377348e-15  2.0245371942449525e-01  1.9110696791572740e-01  1.8827708319806769e-01  3.6707846629029850e-01  3.7150165052801143e-01  3.8447902358354885e-01  5.3688780619989773e-01  5.4168359368220487e-01  5.5472887420416550e-01  6.9838847736569087e-01  7.0269924128537475e-01  7.1493645571500808e-01  8.5533741586639311e-01  8.5234031356900286e-01  8.6503280139713534e-01  9.9999999999999867e-01  9.9999999999999867e-01  9.9999999999999867e-01  2.1094237467877974e-15  1.8873791418627661e-15  2.1094237467877974e-15  1.7035259778751166e-01  1.7062921304583112e-01  1.6720298358192831e-01  3.3408185079967023e-01  3.3872736415184684e-01  3.3859183170756557e-01  5.0031710847372779e-01  5.0545094699379145e-01  5.0531329236054467e-01  6.6609410444133654e-01  6.7127773977504401e-01  6.7084858929189739e-01  8.3559209872985740e-01  8.3639332146419632e-01  8.3197254914025165e-01  9.9999999999999900e-01  9.9999999999999911e-01  9.9999999999999900e-01  2.3314683517128287e-15  2.2204460492503131e-15  2.1094237467877974e-15  2.0078388099491246e-01  1.9020496422477062e-01  1.9167903976895817e-01  3.7244980831275826e-01  3.8253244710566586e-01  3.7126266208487463e-01  5.4259328366144277e-01  5.5273704678178326e-01  5.4154758563154903e-01  7.0313265545562231e-01  7.1307072769376190e-01  7.0211446456393511e-01  8.5518995486005356e-01  8.6359953409380841e-01  8.5402358382122645e-01  9.9999999999999911e-01  9.9999999999999911e-01  9.9999999999999911e-01  1.6653345369377348e-15  1.6653345369377348e-15  1.9804826760511623e-01  1.9332405186734186e-01  3.7479279585596903e-01  3.8008510486285918e-01  5.4519893100957117e-01  5.5046336779101079e-01  7.0553872937791529e-01  7.1058987888123648e-01  8.5677314036663876e-01  8.6092805059920741e-01  9.9999999999999856e-01  9.9999999999999856e-01  2.1094237467877974e-15  2.1094237467877974e-15  1.9720216416774372e-01  1.9805876272070855e-01  3.7915497671744391e-01  3.7867884203622842e-01  5.4911523974372844e-01  5.4873615300710776e-01  7.0935137139506832e-01  7.0876579890843561e-01  8.6041959122673317e-01  8.5986132656322545e-01  9.9999999999999911e-01  9.9999999999999911e-01  1.5543122344752192e-15  1.5543122344752192e-15  1.5543122344752192e-15  1.7192089562404600e-01  1.6663850571007149e-01  1.6580146268861851e-01  3.3014445063311992e-01  3.3144912772239843e-01  3.4104667743122835e-01  4.9535518124496886e-01  4.9763244075709090e-01  5.0841879260522849e-01  6.6345712728014394e-01  6.6456266657666907e-01  6.7415082171091001e-01  8.3229542433308179e-01  8.3411660557347456e-01  8.3811760623117793e-01  9.9999999999999845e-01  9.9999999999999845e-01  9.9999999999999845e-01  1.8873791418627661e-15  1.9294377278326158e-01  3.7146534966107247e-01  5.4118550546782807e-01  7.0329834572384820e-01  8.5760861429132462e-01  9.9999999999999878e-01  1.9984014443252818e-15  1.8873791418627661e-15  1.8873791418627661e-15  1.7453716727917362e-01  1.6755707126912728e-01  1.6722825232678284e-01  3.3446993157747934e-01  3.3455493769984601e-01  3.4475910074888033e-01  5.0098771136174158e-01  5.0086052956340232e-01  5.1232257198064024e-01  6.6661733337245088e-01  6.6701291845777433e-01  6.7759561849041139e-01  8.3212816621272889e-01  8.3324428321844723e-01  8.4052358693419049e-01  9.9999999999999889e-01  9.9999999999999878e-01  9.9999999999999878e-01  2.3314683517128287e-15  2.3314683517128287e-15  2.3314683517128287e-15  1.9424773334812817e-01  1.9308906975798745e-01  1.9552688120042505e-01  3.7469507830314897e-01  3.7284122549478743e-01  3.7955791960199314e-01  5.4507741080869898e-01  5.4309038337235227e-01  5.5106158317662035e-01  7.0626195129219649e-01  7.0496037893034247e-01  7.1082071752135345e-01  8.5853874327874402e-01  8.5822178127568649e-01  8.5980250232659838e-01  9.9999999999999933e-01  9.9999999999999933e-01  9.9999999999999933e-01  1.9984014443252818e-15  1.9984014443252818e-15  1.9984014443252818e-15  1.7195718646508656e-01  1.7250040892517488e-01  1.7844398999334687e-01  3.4205490664753058e-01  3.4156494386171066e-01  3.5070824753001906e-01  5.0959659352047593e-01  5.0869027007227829e-01  5.1908439141979645e-01  6.7469342653526276e-01  6.7421246114412914e-01  6.8386897912682687e-01  8.3769658498664512e-01  8.3808456095350481e-01  8.4489689863109763e-01  9.9999999999999900e-01  9.9999999999999889e-01  9.9999999999999889e-01  1.6653345369377348e-15  1.5543122344752192e-15  1.6653345369377348e-15  1.7423956045662381e-01  1.6330565352215226e-01  1.7926272226882362e-01  3.4520922372930085e-01  3.2885527751987054e-01  3.4991205900920475e-01  5.1302815075340780e-01  4.9503438832942093e-01  5.1791538817430027e-01  6.7800762857062147e-01  6.6164796009047600e-01  6.8428774973138218e-01  8.4009757514214467e-01  8.2904185716217904e-01  8.4785469288478965e-01  9.9999999999999856e-01  9.9999999999999845e-01  9.9999999999999867e-01  1.9984014443252818e-15  1.8873791418627661e-15  1.8873791418627661e-15  1.7289224080215260e-01  1.7110700411611840e-01  1.7151199045435733e-01  3.4046650640331938e-01  3.3966899046534016e-01  3.3938752439736636e-01  5.0693025769809663e-01  5.0630233791804524e-01  5.0590004891794560e-01  6.7299814186605811e-01  6.7173847044903945e-01  6.7162184005377079e-01  8.3868995530972279e-01  8.3635523050140792e-01  8.3659840615453485e-01  9.9999999999999878e-01  9.9999999999999889e-01  9.9999999999999889e-01  2.3314683517128287e-15  2.1094237467877974e-15  2.2204460492503131e-15  1.5755772466714957e-01  1.1230869428220158e-01  1.3539509317590093e-01  2.4771528904690848e-01  2.8329005402405233e-01  3.1765665428009732e-01  3.9886466660267200e-01  4.4214681596947325e-01  4.8275332699112311e-01  6.1281184788160481e-01  5.6576036486656678e-01  6.5407367944629380e-01  7.9782594761741898e-01  7.5441424211804409e-01  8.3097152140851749e-01  9.9999999999999911e-01  9.9999999999999911e-01  9.9999999999999911e-01  1.6653345369377348e-15  1.5543122344752192e-15  1.6653345369377348e-15  1.9082940312193009e-01  1.8780244403319196e-01  1.9429286122307349e-01  3.6983314562859176e-01  3.6770503303238466e-01  3.7516885000374545e-01  5.3961467058965917e-01  5.3789424199114377e-01  5.4529409442430876e-01  7.0110463581418137e-01  6.9893397394201484e-01  7.0596281066403965e-01  8.5486300814935423e-01  8.5209302396755948e-01  8.5785085387832649e-01  9.9999999999999867e-01  9.9999999999999856e-01  9.9999999999999867e-01  1.6653345369377348e-15  1.7763568394002505e-15  1.6653345369377348e-15  1.9853029080874640e-01  1.8926668212059367e-01  1.9000455413924455e-01  3.6708648264111154e-01  3.7122009260539213e-01  3.7991507754612319e-01  5.3649174776381070e-01  5.4142250351411025e-01  5.5016122632595810e-01  7.0169206519645710e-01  6.9869704291140355e-01  7.1077110332542304e-01  8.5338584829894426e-01  8.5400891407722856e-01  8.6197008313892942e-01  9.9999999999999867e-01  9.9999999999999867e-01  9.9999999999999867e-01  1.8873791418627661e-15  1.9984014443252818e-15  1.8873791418627661e-15  1.9118461061656378e-01  1.9551172978152276e-01  1.9169638333921662e-01  3.7236306992546275e-01  3.7868715909632761e-01  3.7026252699802054e-01  5.4274169713366294e-01  5.4945433936471333e-01  5.3991980724225974e-01  7.0340735193761472e-01  7.0941877497657702e-01  7.0171382238481217e-01  8.5536340070946260e-01  8.5965504737288279e-01  8.5581079286645800e-01  9.9999999999999867e-01  9.9999999999999867e-01  9.9999999999999878e-01  2.3314683517128287e-15  2.2204460492503131e-15  2.1094237467877974e-15  1.5847493520036260e-01  1.4577275576319948e-01  1.6725787632154610e-01  3.2064315923465098e-01  2.9965123911717489e-01  3.3326256243453178e-01  4.6107609276452721e-01  5.0034487962613505e-01  4.8582959671519427e-01  6.3055759651328624e-01  6.6873895420940555e-01  6.5424790317945947e-01  8.0930356631467482e-01  8.3718474669040377e-01  8.2598863232466746e-01  9.9999999999999911e-01  9.9999999999999911e-01  9.9999999999999911e-01  1.9984014443252818e-15  1.9984014443252818e-15  1.8873791418627661e-15  1.8194601375620523e-01  1.8684213529062066e-01  1.9264853912718088e-01  3.6300427545036879e-01  3.7136783240295557e-01  3.5865036016791479e-01  5.3221918481482478e-01  5.4111670845886906e-01  5.2828943181296228e-01  6.9532829845467703e-01  7.0308361025571320e-01  6.9089847204570631e-01  8.5221358996294483e-01  8.5710046217330416e-01  8.4723482545371764e-01  9.9999999999999889e-01  9.9999999999999889e-01  9.9999999999999889e-01  1.5543122344752192e-15  1.6653345369377348e-15  1.5543122344752192e-15  2.0873960596170149e-01  1.9119856056131529e-01  2.0537325820840241e-01  3.9033959630007570e-01  3.7345310275032584e-01  3.9255995517598419e-01  5.6119485646645939e-01  5.4419444862329236e-01  5.6303693510520980e-01  7.0444194415403816e-01  7.1994024678767632e-01  7.2203525304702687e-01  8.5539613626363031e-01  8.6723842686645214e-01  8.6992413239409849e-01  9.9999999999999867e-01  9.9999999999999867e-01  9.9999999999999845e-01  2.3314683517128287e-15  2.4424906541753444e-15  2.2204460492503131e-15  2.0504070706967692e-01  1.9462679756847734e-01  2.1199825963626340e-01  4.0132612657899136e-01  3.7693122030240001e-01  3.9148141138158388e-01  5.7323448467126226e-01  5.4757054192008536e-01  5.6268466720426691e-01  7.3020079393323378e-01  7.0738045941350980e-01  7.2096258463946494e-01  8.7323453902305204e-01  8.5736599037833849e-01  8.6695369936231959e-01  9.9999999999999922e-01  9.9999999999999933e-01  9.9999999999999922e-01  2.1094237467877974e-15  2.2204460492503131e-15  2.1094237467877974e-15  1.9432972129992465e-01  1.9859062649034442e-01  1.9201724967454681e-01  3.7597975253726301e-01  3.7982519352340527e-01  3.7378004998709552e-01  5.4627833459326647e-01  5.5003909593579703e-01  5.4424443270717660e-01  7.0636993051298058e-01  7.1059489832731049e-01  7.0450788521159979e-01  8.5733446777215505e-01  8.6235181357212198e-01  8.5573954651221229e-01  9.9999999999999911e-01  9.9999999999999911e-01  9.9999999999999911e-01  2.4424906541753444e-15  2.3314683517128287e-15  2.3314683517128287e-15  1.6015592252952537e-01  1.6038780281763154e-01  1.5925550633379393e-01  3.2153175893760527e-01  3.2430894326948934e-01  3.2306164288235867e-01  4.8805241943892147e-01  4.8980625008931894e-01  4.8617789880855145e-01  6.5517735540148769e-01  6.5675664019534175e-01  6.5341479408552949e-01  8.2504795924659524e-01  8.2570955840299942e-01  8.2402334234119967e-01  9.9999999999999933e-01  9.9999999999999933e-01  9.9999999999999933e-01  1.5543122344752192e-15  1.7763568394002505e-15  1.8873791418627661e-15  1.4358035563505772e-01  1.4218885639711687e-01  1.4135322258371380e-01  2.9166252749110622e-01  2.9328869690265330e-01  2.9551131892345828e-01  4.5079227640981517e-01  4.5290889695737890e-01  4.5541684484800421e-01  6.2187444090050092e-01  6.1994826686991544e-01  6.2450020180305288e-01  8.0241934576421858e-01  8.0162703201098773e-01  8.0455125519332404e-01  9.9999999999999867e-01  9.9999999999999867e-01  9.9999999999999867e-01  2.1094237467877974e-15  1.7554386945488892e-01  3.4626259917641788e-01  5.1405043675191120e-01  6.7943243327774738e-01  8.4221216350342820e-01  9.9999999999999889e-01  1.2910583434338418e-01  1.8412632557561182e-01  2.2204460492503131e-15  2.7853654028659808e-01  3.5551790956627993e-01  4.3825131545443302e-01  5.2442144099835408e-01  6.0786114265180524e-01  6.9168620580086426e-01  7.8984457924201179e-01  8.5445007086949953e-01  9.9999999999999911e-01  9.9999999999999911e-01  1.7763568394002505e-15  1.7763568394002505e-15  1.6653345369377348e-15  1.8775006706475206e-01  1.8669253678496173e-01  1.9288841983685001e-01  3.6458299885745049e-01  3.6532160246007123e-01  3.7129355813987136e-01  5.3374050094690395e-01  5.3501355382180960e-01  5.4057111420471271e-01  6.9595524053718749e-01  6.9650714665446467e-01  7.0210710552301991e-01  8.5177414550747232e-01  8.5101363204749836e-01  8.5608083198830942e-01  9.9999999999999867e-01  9.9999999999999867e-01  9.9999999999999867e-01  2.4424906541753444e-15  2.3731359035150723e-01  4.3037027448771675e-01  6.0143638535161525e-01  7.5477069522769846e-01  8.9054073183077009e-01  9.9999999999999922e-01  1.6653345369377348e-15  1.6653345369377348e-15  1.7763568394002505e-15  1.8727507701274609e-01  1.8643851530118921e-01  1.9707907558933091e-01  3.7714086773920097e-01  3.6471687686878151e-01  3.6561775859450940e-01  5.4700526545745387e-01  5.3444746245653918e-01  5.3537542603303634e-01  6.9717202138000067e-01  6.9622632721568678e-01  7.0825528142126448e-01  8.5169917265145456e-01  8.5090752630929478e-01  8.6067076950457011e-01  9.9999999999999867e-01  9.9999999999999867e-01  9.9999999999999867e-01  1.5543122344752192e-15  1.7763568394002505e-15  1.5543122344752192e-15  1.5154209728339418e-01  1.4795667757732134e-01  1.9984014443252818e-15  1.8873791418627661e-15  1.6201413239504503e-01  1.6626050388639163e-01  3.2649886916903820e-01  3.3184434177363820e-01  4.9762186465993052e-01  4.9195577648594047e-01  6.5845105779439406e-01  6.6389669556485509e-01  8.2680523151199847e-01  8.3116344814486309e-01  9.9999999999999889e-01  9.9999999999999889e-01  1.9984014443252818e-15  1.8873791418627661e-15  1.9885890523357569e-01  2.0490513865672311e-01  3.8978732104040648e-01  3.8212187943933978e-01  5.6043390765984691e-01  5.5267687260845588e-01  7.1873875062531423e-01  7.1223629019502432e-01  8.6582578319876435e-01  8.6205283581843362e-01  9.9999999999999889e-01  9.9999999999999889e-01  1.9984014443252818e-15  1.9984014443252818e-15  1.9984014443252818e-15  1.6329424389079678e-01  1.5794919406388930e-01  1.5298902558991490e-01  3.2643477353650885e-01  3.1893386674891833e-01  3.1028125013403862e-01  4.9113242044995320e-01  4.8286223923326876e-01  4.7236000915631216e-01  6.5827686339631997e-01  2.1094237467877974e-15  1.6923786293163245e-01  3.3669494794423516e-01  5.0316532340544318e-01  6.6895930190975994e-01  8.3442987905429411e-01  9.9999999999999911e-01  1.6653345369377348e-15  1.6653345369377348e-15  1.8716227775682442e-01  1.9776025514469942e-01  3.7785555590134801e-01  3.6641498997087868e-01  5.4773196270908442e-01  5.3648890494430201e-01  7.0892934548913900e-01  6.9779909044065547e-01  8.6136081818513133e-01  8.5138936988427183e-01  9.9999999999999845e-01  9.9999999999999856e-01  1.8873791418627661e-15  2.0699869490634787e-01  3.9200471616139754e-01  5.6222472230377452e-01  7.2007924442359705e-01  8.6659475393656704e-01  9.9999999999999889e-01  1.9984014443252818e-15  1.3294494772394483e-01  2.7695787706499786e-01  4.3293095312131441e-01  6.0295472479296264e-01  7.9089448166235943e-01  9.9999999999999911e-01  1.6653345369377348e-15  1.6653345369377348e-15  1.6653345369377348e-15  1.5137789335524249e-01  1.4682980019136010e-01  1.5653444478487200e-01  3.0779049388525598e-01  3.0209422437403249e-01  3.1744221202721018e-01  4.7025990151833097e-01  1.8873791418627661e-15  1.8873791418627661e-15  1.8873791418627661e-15  1.9357029607817589e-01  1.9668221519840784e-01  1.9035778479169224e-01  3.6886858761384994e-01  3.7836294061411263e-01  3.7438273502167591e-01  5.4497751402284433e-01  5.4908907521803429e-01  5.3869067793263514e-01  7.0629647930010109e-01  7.0995849245155918e-01  7.0074457831149628e-01  8.5856711481884651e-01  8.6090131413950299e-01  8.5524834984645759e-01  9.9999999999999878e-01  9.9999999999999867e-01  9.9999999999999889e-01  1.7763568394002505e-15  1.6653345369377348e-15  1.7763568394002505e-15  1.8239962822942690e-01  1.8279880842762858e-01  1.8328133782098655e-01  3.5703875491201154e-01  3.5911713894942976e-01  3.5720202779231580e-01  5.2558526290642882e-01  5.2822862974985141e-01  5.2594499141304518e-01  6.8921748549180761e-01  6.9111779745015656e-01  6.8923723841540008e-01  8.4794123309339486e-01  8.4819766102263106e-01  8.4741936296353659e-01  9.9999999999999867e-01  9.9999999999999867e-01  9.9999999999999867e-01  2.4424906541753444e-15  2.5535129566378600e-15  2.3314683517128287e-15  1.6682495167267819e-01  1.6422264833748967e-01  1.6345697483554100e-01  3.2727589859742112e-01  3.2914628737257468e-01  3.3292483977532678e-01  4.9233113982491977e-01  4.9471404192208623e-01  4.9885401465244372e-01  6.6129247110417788e-01  6.5913980866500799e-01  6.6495474556143053e-01  8.2933791031908410e-01  8.2822180658406297e-01  8.3170874707489828e-01  9.9999999999999933e-01  9.9999999999999933e-01  9.9999999999999933e-01  1.7763568394002505e-15  1.7763568394002505e-15  1.8570232338026299e-01  2.0186452114580367e-01  3.6370553415200713e-01  3.8386597736364819e-01  5.3360284345979869e-01  5.5444623732363563e-01  6.9578605852072228e-01  7.1522976954755335e-01  8.5071953620460072e-01  8.6556009211964446e-01  9.9999999999999889e-01  9.9999999999999889e-01  1.5543122344752192e-15  1.5543122344752192e-15  1.4988010832439613e-15  1.7544862852487897e-01  1.7183553345194202e-01  1.8204343333267192e-01  3.4093845272220269e-01  3.5523089570176813e-01  3.4509724348089588e-01  5.0778016995919228e-01  5.2322171708560716e-01  5.1209755083956932e-01  6.8709829978519699e-01  6.7283791039368757e-01  6.7719323959135991e-01  8.4676294491550763e-01  8.3666284293914428e-01  1.9984014443252818e-15  1.9984014443252818e-15  1.9984014443252818e-15  1.8656062434313503e-01  1.7995983691976358e-01  1.8951376071364645e-01  3.6348455195028079e-01  3.5457124793770539e-01  3.6880154817175920e-01  5.3280886590171184e-01  5.2334036693033514e-01  5.3878623281234517e-01  6.9509352707598593e-01  6.8659063770059559e-01  7.0027986673923170e-01  8.5089318208659215e-01  8.4503426702621987e-01  8.5386508165305808e-01  9.9999999999999889e-01  9.9999999999999889e-01  9.9999999999999900e-01  1.6653345369377348e-15  1.6653345369377348e-15  2.0642410853959769e-01  1.9235462722342694e-01  3.7290339494259850e-01  3.8913799127221949e-01  5.4299682126142657e-01  5.5940034223442170e-01  7.0377350570511144e-01  7.1899217310655861e-01  8.5597690746727950e-01  8.6777316293978635e-01  9.9999999999999867e-01  9.9999999999999867e-01  1.8873791418627661e-15  1.9933638873583809e