<?xml version="1.0"?>
<VTKFile type="UnstructuredGrid"  version="0.1"  >
<UnstructuredGrid>
<Piece  NumberOfPoints="7820" NumberOfCells="37808">
<Points>
<DataArray  type="Float64"  NumberOfComponents="3"  format="ascii">7.942863510534979 1.389919556947329 1.940959907789745  7.963620646833376 1.378370874575523 2.047418823898493  7.849989199692477 1.36308492061138 2.047228763556958  7.858131697061848 1.302278403813664 2.039522421197939  7.971808028995327 1.317835925855169 2.039498211596534  7.95154971187922 1.32922095891475 1.930885128722055  7.979898000330548 1.257283061675143 2.031651930826067  7.960166929365987 1.268503568183073 1.920868453077597  7.866200958446051 1.241476239815363 2.031907599565401  7.987944164897611 1.196730114377325 2.023838077426058  7.968752555680919 1.207783312664105 1.910882130199208  7.874231478348332 1.180679270441912 2.024331353070509  7.995974312189677 1.136186319768582 2.016046199499069  7.977326963326565 1.147067925590649 1.900919187930322  7.882238443261408 1.119891631777941 2.016776919856702  8.00402063908744 1.075659158487262 2.008268199172972  7.985912355161016 1.08636491215615 1.890978353520554  7.890233219842706 1.059120496073546 2.009232845376658  7.994541776316323 1.025673189216565 1.881048091207197  8.012147910110968 1.015165250965818 2.000470993416982  7.89824032246281 0.9983988421008605 2.001663107738845  6.918415688494489 1.342291281204931 1.78675641445025  6.870668226604906 1.304320388270824 1.875220355999042  6.814789887347318 1.353323796106977 1.762682499087119  6.816369599106427 1.29268514894722 1.734022409945216  6.874024211251125 1.240290755089247 1.853793687887143  6.918397721127083 1.280534828936567 1.760772854251563  6.877208014272616 1.176370813957901 1.832341795267029  6.918102701924384 1.21888531108611 1.734763703683339  6.81772493046383 1.23221632309025 1.705323681235388  6.917690533370862 1.157322920943074 1.708770125492908  6.880307690830349 1.112559998861172 1.810900631994961  6.818984036203301 1.171855305672971 1.676635360219514  6.917262798780683 1.095834157524221 1.682813271224162  6.883407406952685 1.048839900364557 1.789493327082652  6.820244221321617 1.111580839328489 1.647987814709853  6.916913545023544 1.034398309214658 1.656905236708547  6.886594258627589 0.9852113428875742 1.768144119153902  6.821617369919287 1.051369784790754 1.619402593573405  6.916759417494692 0.9729773418505598 1.63103656591355  6.889936372629981 0.9216168395391917 1.746833298618195  6.823247104645914 0.9912132699966306 1.59089701585272  8.123963870888062 3.031974882518874 0.8525083330028909  8.062703390031361 2.955567925177228 0.8521412388386504  8.032128368178475 3.092276104198452 0.8458160966112692  8.037936290068743 3.093385738973185 0.7766207560153507  8.073565353376337 2.944767355376157 0.7857748748764195  8.133079056443346 3.026177435772532 0.7841489845661386  8.084464375073898 2.93391195261643 0.7194425315704228  8.142239769194484 3.020306137171641 0.7158048174275504  8.043729862777251 3.094459485787887 0.7074106971852143  8.151438911859241 3.014370591868898 0.6474893197501572  8.095401095383085 2.923007395622081 0.6531549802706634  8.049548975826514 3.095473060358844 0.6381904452000667  8.160669442654651 3.008385973708942 0.5792022167337173  8.10635993687753 2.912055245952138 0.5869036493941394  8.055398117026648 3.096429650902681 0.5689699871181255  8.169922566881707 3.002367963514136 0.5109367073323179  8.117330192871481 2.901063805497584 0.5206816208900307  8.061277839457814 3.097331523933728 0.4997522991739667  8.179194589204972 2.99632815773972 0.4426932636569148  8.128298304375338 2.890050980044395 0.4544774168028328  8.0671952496579 3.098179490855676 0.430535374745681  6.184910132361958 2.78488344507499 0.8838095097948688  6.164392362223007 2.922550316075103 0.8766550127968332  6.286937458583039 2.859884846904098 0.8773129689654955  6.284906730356818 2.85570544921371 0.8086238319674433  6.163296499035368 2.922261128219102 0.8072200713719937  6.184641795285208 2.778316424033469 0.8162029585594126  6.282840632142329 2.85140721800177 0.7400783988047731  6.162163775264244 2.921860292949516 0.7379263744575028  6.184360152784739 2.771651941677639 0.7487377775511295  6.280762239183895 2.847010093528368 0.6716616948676541  6.161014070104855 2.92134929360025 0.6687468944010105  6.184076549387163 2.764904493240222 0.6814111170851653  6.27869721710415 2.842553092082316 0.6033569255487439  6.159878532489712 2.920768392395819 0.5996833105486674  6.183791145481136 2.758118462065066 0.6142004170676693  6.276650044966149 2.838117797146153 0.5351466076937459  6.158761453821255 2.920201132749966 0.5307136220273811  6.183508977681953 2.7513591939958 0.5470909801992284  6.274638769463772 2.833770575759379 0.4670342547659785  6.157681317132066 2.919719119725295 0.46182769172886  6.18325137753023 2.744677025376244 0.4800975208679201  6.922849954344042 1.515369999233821 3.037944157662339  6.822895803690695 1.521314061370262 3.080370089301905  6.864060687842186 1.456588252250405 2.953375343635163  6.873766394529201 1.403476554501645 2.983646325744158  6.831980885317869 1.468117764281875 3.109624240646931  6.931928917858954 1.461728608925128 3.067336497354194  6.883537083679422 1.350364282090402 3.013841386199951  6.841124178219464 1.414919677169152 3.138817527842669  6.94106850115194 1.408086928881741 3.096657096976019  6.893341268838345 1.29726248451328 3.043985510933136  6.85030092551171 1.361728857563416 3.167966021716765  6.950238599594964 1.354455157763663 3.12592499215103  6.903150401668 1.244178273289527 3.074106434849339  6.859489818619156 1.308551611097121 3.197091251289118  6.95941373320454 1.300841774443105 3.155165967057411  6.912940200501258 1.191119732643149 3.104237730946874  6.868674185107411 1.255393787685109 3.226219092664391  6.968571964934531 1.247251948085013 3.184412231413023  6.922708329695618 1.138097665317629 3.134431081901669  6.877854759062106 1.202258306019394 3.255382280317952  6.977697785003233 1.193681395844586 3.213710276449535  8.343726342201517 3.94649873602344 1.337671600620535  8.239969820286356 3.919744049257905 1.325989551393637  8.313488361973585 3.984345728894108 1.431192176324541  8.299362810092113 4.049046138419655 1.404785612938534  8.228720571008056 3.982263070026244 1.29197226741454  8.330439592025614 4.009245224871819 1.303349356603288  8.285451393068659 4.113810506600871 1.378245206062355  8.217580714647086 4.044803701304532 1.257819529650936  8.31732070659897 4.072009071604265 1.26894055411169  8.271602657925657 4.178638669634904 1.351624072986166  8.206463296881161 4.107384829021377 1.223579667695483  8.304257199970186 4.134802043561025 1.234460929268231  8.257709560738704 4.243527719697726 1.324958400263295  8.195297506779962 4.170011079288298 1.189276657086578  8.29115692327203 4.19762391777882 1.19992193951389  8.24366057370926 4.308470005871381 1.298273355035456  8.184016265587744 4.23268588341095 1.154930903256453  8.277928814169051 4.26046624004281 1.1653301286072  8.229260341801965 4.373434978107928 1.271587946262003  8.172521172201725 4.295448759630711 1.120552910519801  8.26447042177897 4.323290073448154 1.130705623305655  6.406692251307141 3.035970257345332 0.8753398260070576  6.301320668870709 2.977133513848819 0.8731694484470893  6.303878149434143 3.0847921388085 0.8874413259134392  6.301621594461698 3.09354664352631 0.8172734668644759  6.298796838047096 2.980919711725473 0.8032364965874812  6.400343017113677 3.044044433889778 0.8057907269344509  6.299303309753518 3.10215080890297 0.7471924406789582  6.296228618167379 2.984564860273435 0.7334194034228465  6.393961640599115 3.051962137133233 0.7363195634653199  6.296964838235135 3.110627730279011 0.6771980607748833  6.293643404877982 2.988096523118263 0.6637050148009986  6.387561663737602 3.05976385524048 0.6669308006102734  6.294651805252496 3.119026394953655 0.6072896027010359  6.291081431310021 2.991557369991565 0.5940890349396114  6.381183302329513 3.067494607264015 0.5976226474734203  6.292390936180598 3.127404408755939 0.5374619767096845  6.288547601464575 2.995029579656288 0.5245633994107524  6.374842876496089 3.075222588839635 0.5283878438507125  6.290174041731952 3.135875998950351 0.4677102720136472  6.286052811710815 2.998592867828775 0.4551281835912001  6.368550221790547 3.08304184962903 0.4592430134828564  6.240671788210547 3.514846693786072 1.065953019613514  6.367206236022347 3.569187191204862 1.097619927284759  6.360750213363687 3.471283438508877 1.02799167223292  6.358121032525562 3.510454229823186 0.9683888406255  6.363794190776734 3.614387366168157 1.042913105910904  6.237596745453668 3.557383268546298 1.007929097675646  6.360380994584374 3.65954135912988 0.9882204258125437  6.234483233203054 3.599814548774606 0.9499059831585698  6.355452076597214 3.549523748218779 0.9087885134398822  6.356989867654926 3.704659061377571 0.933559990155602  6.231393865364121 3.642180539428586 0.8919294892696314  6.352800694381867 3.588536766255745 0.8492122470476197  6.353627077091907 3.749725744332925 0.8788954437362944  6.228360254123748 3.684497735448031 0.8339955750271026  6.35018620025489 3.627507031944072 0.7896527189019833  6.350321586183621 3.794755797221705 0.8242174343194764  6.22539688160957 3.726772687999354 0.7760814383097042  6.347623738540637 3.666445997554543 0.7301033595814008  6.222531446128237 3.769023410742726 0.7181743164872251  6.347069782234482 3.839756586261773 0.7695236619051236  6.345135650757308 3.705364925613309 0.6705699570266711  8.012256321013862 1.557331764620685 2.883399768510336  7.909690654241443 1.572431076726343 2.924486961336409  7.953959780203164 1.513293336318582 2.81017847784722  7.958426166725816 1.462420280870411 2.837432570456956  7.914357830519021 1.52330878949829 2.953920864236319  8.01762482243779 1.508019037529038 2.912213497277862  7.918904925045229 1.47418357528477 2.983354999374136  8.022891477249509 1.458706435546555 2.941044398686539  7.96275063449369 1.411531809070797 2.864680620877128  7.92339115869385 1.4250625406
[...]
<PointData  Scalars="f_14"> 
<DataArray  type="Float64"  Name="f_14"  format="ascii">1.1657341758564144e-15  1.1102230246251565e-15  1.2212453270876722e-15  1.8040528350822740e-01  1.8167809312005762e-01  1.8493777436602057e-01  3.5746285268334704e-01  3.6123611263234312e-01  3.5542954238828595e-01  5.2646636028782456e-01  5.3035592732093040e-01  5.2417462756688427e-01  6.8912062708184085e-01  6.9284422459377804e-01  6.8693551203739522e-01  8.4623549760586503e-01  8.4937120556987367e-01  8.4466175249405051e-01  9.9999999999999800e-01  9.9999999999999811e-01  9.9999999999999822e-01  1.4432899320127035e-15  1.4988010832439613e-15  1.4988010832439613e-15  1.8295262688820918e-01  1.9639109990845360e-01  1.9015585716187400e-01  3.7749278190849561e-01  3.7049672175252513e-01  3.6286181263310519e-01  5.4111172754391546e-01  5.4898224814195640e-01  5.3420961116211618e-01  7.0258825122057345e-01  7.1169608958322339e-01  6.9702635858099171e-01  8.5528270232779846e-01  8.6458057898026064e-01  8.5168078788055845e-01  9.9999999999999845e-01  9.9999999999999845e-01  9.9999999999999833e-01  9.9920072216264089e-16  1.0547118733938987e-15  1.1102230246251565e-15  1.9016115027377106e-01  2.0558110775117711e-01  2.0565040597056725e-01  3.8731423113304486e-01  3.8759082999525268e-01  3.7081439104513619e-01  5.5745916140103824e-01  5.5709127781624201e-01  5.4068380412445360e-01  7.1712559665746256e-01  7.1734120408528068e-01  7.0091351066690877e-01  8.6700049551061731e-01  8.6749152076604696e-01  8.5297144963492788e-01  9.9999999999999800e-01  9.9999999999999800e-01  9.9999999999999789e-01  1.5543122344752192e-15  1.5543122344752192e-15  1.4988010832439613e-15  1.8140654766392700e-01  1.8797095198981711e-01  1.8461143634849164e-01  3.5708924910887918e-01  3.6600211486476542e-01  3.6104614390378181e-01  5.2615098167059038e-01  5.3562927295377871e-01  5.3017242786081509e-01  6.8893101318382999e-01  6.9766414657149267e-01  6.9260698958068834e-01  8.4636843834830866e-01  8.5270310131735139e-01  8.4885239340107588e-01  9.9999999999999845e-01  9.9999999999999845e-01  9.9999999999999856e-01  1.4432899320127035e-15  1.3877787807814457e-15  1.4432899320127035e-15  1.6845137843467817e-01  1.6331437585242953e-01  1.6325184142373356e-01  3.3631955907225480e-01  3.2817330098399411e-01  3.2892847757059196e-01  5.0337659980273219e-01  4.9389001112100778e-01  4.9530293721148833e-01  6.6955953553325998e-01  6.6048893446637102e-01  6.6215838020585327e-01  8.3498151100858009e-01  8.2859374270537489e-01  8.2974552086466535e-01  9.9999999999999822e-01  9.9999999999999822e-01  9.9999999999999833e-01  9.4368957093138306e-16  9.4368957093138306e-16  9.4368957093138306e-16  1.9018079107896280e-01  1.9065144905688919e-01  1.9267924634454692e-01  3.6930070057610948e-01  3.6995757306691640e-01  3.7325518788514778e-01  5.3914019989318718e-01  5.3981738655180234e-01  5.4345126163130353e-01  7.0075071776349085e-01  7.0115991482366335e-01  7.0432409845129906e-01  8.5473070489125891e-01  8.5444867291044480e-01  8.5667820074256773e-01  9.9999999999999778e-01  9.9999999999999800e-01  9.9999999999999778e-01  1.4432899320127035e-15  1.5543122344752192e-15  1.4988010832439613e-15  1.8169587229205530e-01  1.9001861453281937e-01  1.8041814714180865e-01  3.6030726404346725e-01  3.6763536043139644e-01  3.5795829309929561e-01  5.3027393007748969e-01  5.3704352215205398e-01  5.2761724679558963e-01  6.9206618401505238e-01  6.9903429388029437e-01  6.8939009849540700e-01  8.4702185387669593e-01  8.5421987252159715e-01  8.4459299917637931e-01  9.9999999999999845e-01  9.9999999999999845e-01  9.9999999999999845e-01  1.5543122344752192e-15  1.5543122344752192e-15  1.4988010832439613e-15  1.9265553340980435e-01  1.9563862957120531e-01  1.8996863236888012e-01  3.7562395631805234e-01  3.7070742470085793e-01  3.7337490901851556e-01  5.4537689918762333e-01  5.4103782420463709e-01  5.4335234442671732e-01  7.0619375893951508e-01  7.0172046952679801e-01  7.0393150070327648e-01  8.5872649573723570e-01  8.5375188423075321e-01  8.5577213032691390e-01  9.9999999999999845e-01  9.9999999999999845e-01  9.9999999999999845e-01  1.1657341758564144e-15  1.1657341758564144e-15  1.2212453270876722e-15  1.7921313053037952e-01  1.7710660212149826e-01  1.8427535644114593e-01  3.4820535261678964e-01  3.5806600648691217e-01  3.5358428203225140e-01  5.1579571121514023e-01  5.2661924035513774e-01  5.2235427589179007e-01  6.9072249209461978e-01  6.8050511954630477e-01  6.8579658312550562e-01  8.4997798792955215e-01  8.4238289034579505e-01  8.4445800869847010e-01  9.9999999999999811e-01  9.9999999999999811e-01  9.9999999999999800e-01  1.5543122344752192e-15  1.4432899320127035e-15  1.4988010832439613e-15  1.7439741509872309e-01  1.7819527921619310e-01  1.6979996874364006e-01  3.4578123506988045e-01  3.5049006320703380e-01  3.3849466555036090e-01  5.1411490795367665e-01  5.1858675244054930e-01  5.0551634409378932e-01  6.7926707291982846e-01  6.8294050868157397e-01  6.7095357949143319e-01  8.4135030781719489e-01  8.4371428353512612e-01  8.3519214906553474e-01  9.9999999999999845e-01  9.9999999999999845e-01  9.9999999999999845e-01  1.4432899320127035e-15  1.4988010832439613e-15  1.4432899320127035e-15  1.8616994509345036e-01  1.8640692909718404e-01  1.9089756456905216e-01  3.6946079784246783e-01  3.6505955776402110e-01  3.6374476992372684e-01  5.3933977681028900e-01  5.3480324190762318e-01  5.3346101482383967e-01  7.0144380714012244e-01  6.9624082669283416e-01  6.9574653063699510e-01  8.5601097690744798e-01  8.5035907422624313e-01  8.5129906052485171e-01  9.9999999999999845e-01  9.9999999999999845e-01  9.9999999999999833e-01  8.3666284293914428e-01  8.4676294491550763e-01  8.4060236051428017e-01  6.7719323959135991e-01  9.9999999999999845e-01  9.9999999999999845e-01  9.9999999999999845e-01  7.7715611723760958e-16  8.3266726846886741e-16  8.8817841970012523e-16  1.9159173485028941e-01  2.0633815606500169e-01  2.0558125190666704e-01  3.7443562574766931e-01  3.9108569535586346e-01  3.9282220135864576e-01  5.4527421113397878e-01  5.6108142926082172e-01  5.6380748485967880e-01  7.0496248851886145e-01  7.1919212649575559e-01  7.2119877206549765e-01  8.5527889956403635e-01  8.6649779356593848e-01  8.6662328365680841e-01  9.9999999999999767e-01  9.9999999999999756e-01  9.9999999999999767e-01  1.5543122344752192e-15  1.4432899320127035e-15  1.5543122344752192e-15  1.9669352552925995e-01  2.0036179772856066e-01  1.9337008658058136e-01  3.7809367919261683e-01  3.8240327439107258e-01  3.7489146640282794e-01  5.4824533999654934e-01  5.5252996760640449e-01  5.4532352473663837e-01  7.0870432794968918e-01  7.1263575900123943e-01  7.0577877986889948e-01  8.6007517362264374e-01  8.6293660261780569e-01  8.5694981002668902e-01  9.9999999999999856e-01  9.9999999999999845e-01  9.9999999999999845e-01  1.4432899320127035e-15  1.5543122344752192e-15  1.4988010832439613e-15  1.6485737339813361e-01  1.6352557609805551e-01  1.6238364127527821e-01  3.3027511696400980e-01  3.2789628671795557e-01  3.2681243700275181e-01  4.9600535016514069e-01  4.9320455536804653e-01  4.9218596042960400e-01  6.6224222834358915e-01  6.5976215995294996e-01  6.5861205843180970e-01  8.2963711490514602e-01  8.2826741385645231e-01  8.2682909001349358e-01  9.9999999999999833e-01  9.9999999999999845e-01  9.9999999999999845e-01  9.4368957093138306e-16  9.4368957093138306e-16  9.4368957093138306e-16  2.0883092780686474e-01  1.8889229159842746e-01  2.1608913215993214e-01  3.9283634838282533e-01  3.7250670084938664e-01  4.0112469908853310e-01  5.6314034356660270e-01  5.4355534229392999e-01  5.7159921559232885e-01  7.2226723946732974e-01  7.0298580575360980e-01  7.2995365812780888e-01  8.7026868513846378e-01  8.5230145036944349e-01  8.7685303528123837e-01  9.9999999999999800e-01  9.9999999999999800e-01  9.9999999999999800e-01  1.2767564783189300e-15  1.4432899320127035e-15  1.3322676295501878e-15  1.7898246014132568e-01  1.8281626090472161e-01  1.8172345551358096e-01  3.5300099404833890e-01  3.5736431818864595e-01  3.5722948533224008e-01  5.2150014065717909e-01  5.2603387359633280e-01  5.2611185033864627e-01  6.8483641721514688e-01  6.8950291693787569e-01  6.8881971245873541e-01  8.4374107321906400e-01  8.4788698574851196e-01  8.4614387306848260e-01  9.9999999999999822e-01  9.9999999999999822e-01  9.9999999999999822e-01  1.4432899320127035e-15  2.0118456373253379e-01  3.8219426648568644e-01  5.5223981278508882e-01  7.1250869968927644e-01  8.6388609385944837e-01  9.9999999999999845e-01  1.1657341758564144e-15  1.1657341758564144e-15  1.1657341758564144e-15  1.9941875962055144e-01  2.0707536166438908e-01  2.0751694749852728e-01  3.8456292055192887e-01  3.9511395913333003e-01  3.9585126856866565e-01  5.5611068032201616e-01  5.6703188577570474e-01  5.6770648728104822e-01  7.1520846600162935e-01  7.2467084195041143e-01  7.2506607292862713e-01  8.6291549162478809e-01  8.6897381813822316e-01  8.6930833787488138e-01  9.9999999999999811e-01  9.9999999999999822e-01  9.9999999999999811e-01  1.2212453270876722e-15  1.2767564783189300e-15  1.3322676295501878e-15  1.9916793001464381e-01  1.9299772994311476e-01  1.9057234435404571e-01  3.7930865653967438e-01  3.7086751549346958e-01  3.6923861490893667e-01  5.4919692502049777e-01  5.4035505740776624e-01  5.3896214285494137e-01  7.1039392778803734e-01  7.0278171576020421e-01  7.0074238864724925e-01  8.6225573036784964e-01  8.5811762905963729e-01  8.5486018734917946e-01  9.9999999999999822e-01  9.9999999999999822e-01  9.9999999999999822e-01  1.3877787807814457e-15  1.3322676295501878e-15  1.4432899320127035e-15  1.9152385558977775e-01  1.9449820069128296e-01  2.0620301678078917e-01  3.7342132786692095e-01  3.7637450699751923e-01  3.8859081065030993e-01  5.4373144473543045e-01  5.4658607437560491e-01  5.5854234835621397e-01  7.0352532536583068e-01  7.0657184173884602e-01  7.1820559981858700e-01  8.5430114917120448e-01  8.5746240546773222e-01  8.6765729259571467e-01  9.9999999999999833e-01  9.9999999999999822e-01  9.9999999999999822e-01  1.1657341758564144e-15  1.8138677493846228e-01  3.5708828699905126e-01  5.2623681857877602e-01  6.8900002308140706e-01  8.4626690838981622e-01  9.9999999999999822e-01  1.1657341758564144e-15  1.2212453270876722e-15  1.1657341758564144e-15  1.8797973441688043e-01  1.8197392334379314e-01  1.8831503279513864e-01  3.6628818967669008e-01  3.5868241196532474e-01  3.6536312495611106e-01  5.3552805712887042e-01  5.2811484689625821e-01  5.3448011378665938e-01  6.9682116407091654e-01  6.9051120988191572e-01  6.9658549859575136e-01  8.5110980059634089e-01  8.4683672576698710e-01  8.5225062114103567e-01  9.9999999999999822e-01  9.9999999999999822e-01  9.9999999999999822e-01  1.0547118733938987e-15  1.9371907259825910e-01  3.7368613255211625e-01  5.4334928393124660e-01  7.0386182544180476e-01  8.5622422515781715e-01  9.9999999999999789e-01  1.4432899320127035e-15  1.9440534294492195e-01  3.7223762970525981e-01  5.4182715339905974e-01  7.0427805213296479e-01  8.5900295809196803e-01  9.9999999999999833e-01  1.5543122344752192e-15  1.9603333539381357e-01  3.7825566814091471e-01  5.4873202511534291e-01  7.0900356293075595e-01  8.5960508350599540e-01  9.9999999999999845e-01  1.5543122344752192e-15  1.9581457601218755e-01  3.7513552295505687e-01  5.4486146930634738e-01  7.0609093919976162e-01  8.5916787678525341e-01  9.9999999999999845e-01  1.5543122344752192e-15  2.0162091676804994e-01  3.8348638294294013e-01  5.5363179531330775e-01  7.1393237525668940e-01  8.6441507286350028e-01  9.9999999999999845e-01  1.4432899320127035e-15  1.6633414107316596e-01  3.3303442853773485e-01  4.9932072729320243e-01  6.6528177887820139e-01  8.3151895179883450e-01  9.9999999999999833e-01  9.9920072216264089e-16  1.8612118420736662e-01  3.6279762291345496e-01  5.3191962091657929e-01  6.9432214276270354e-01  8.5071612110360129e-01  9.9999999999999800e-01  1.4988010832439613e-15  1.4988010832439613e-15  1.5543122344752192e-15  1.7072848222197445e-01  1.7544862852487897e-01  1.7404612538542763e-01  3.3821750975526010e-01  3.4509724348089588e-01  3.4400434402553770e-01  5.0448022125855374e-01  5.1209755083956932e-01  5.1104941766272638e-01  6.7028328401073756e-01  6.7565733333478173e-01  8.3604622544953910e-01  8.3843175995800290e-01  9.9999999999999845e-01  9.9999999999999845e-01  1.3877787807814457e-15  1.4432899320127035e-15  1.4432899320127035e-15  1.7077979259811277e-01  1.7028586859143585e-01  1.7993673871146770e-01  3.3932960653521999e-01  3.4080743474162106e-01  3.5200605506392413e-01  5.0619127537370945e-01  5.0917829847906881e-01  5.1984351452510469e-01  6.7164813276440216e-01  6.7492871199691995e-01  6.8399043392702585e-01  8.3621637842471652e-01  8.3809166920118416e-01  8.4487188752872244e-01  9.9999999999999822e-01  9.9999999999999833e-01  9.9999999999999833e-01  1.3877787807814457e-15  1.8432181540646667e-01  3.6214692640606794e-01  5.3168623499307088e-01  6.9350417459444413e-01  8.4871179081117631e-01  9.9999999999999822e-01  9.4368957093138306e-16  9.9920072216264089e-16  9.9920072216264089e-16  1.6080623363299021e-01  1.6297157077644225e-01  1.5628137054349298e-01  3.1691919913412925e-01  3.2693272884095581e-01  3.2419061164588497e-01  4.8089263419642764e-01  4.9220581491376947e-01  4.8925992032152643e-01  6.4849532014919054e-01  6.5916155618773464e-01  6.5614606806899933e-01  8.2055409589264705e-01  8.2823834959237397e-01  8.2549666770093144e-01  9.9999999999999800e-01  9.9999999999999800e-01  9.9999999999999778e-01  1.5543122344752192e-15  1.4432899320127035e-15  1.4988010832439613e-15  1.5713864743324535e-01  1.5798220604724533e-01  1.6255472212760652e-01  3.2646267245799809e-01  3.1892999896129237e-01  3.1824736014346350e-01  4.9151417226334843e-01  4.8304264588692614e-01  4.8210633255101121e-01  6.5818199290045820e-01  6.5045500043008264e-01  6.4917022074854580e-01  8.2719257072966068e-01  8.2208017115745113e-01  8.2052364800526911e-01  9.9999999999999845e-01  9.9999999999999845e-01  9.9999999999999845e-01  1.4988010832439613e-15  1.4432899320127035e-15  1.4432899320127035e-15  1.9801867175587468e-01  1.9623054735125545e-01  1.9567880501641483e-01  3.7607668195546973e-01  3.7750074931733008e-01  3.7799988312793587e-01  5.4575500764008089e-01  5.4769971277123219e-01  5.4750074067701116e-01  7.0626577821026648e-01  7.0815839577861861e-01  7.0814866323943337e-01  8.5951873523423616e-01  8.5828392064488968e-01  8.6005239609919670e-01  9.9999999999999845e-01  9.9999999999999845e-01  9.9999999999999845e-01  9.9999999999999845e-01  9.9999999999999856e-01  9.9999999999999845e-01  8.3424487276982040e-01  8.3817856875174512e-01  1.1657341758564144e-15  1.7660787832465905e-01  3.4927573489561509e-01  5.1757851251858145e-01  6.8176953104856075e-01  8.4225075841173014e-01  9.9999999999999822e-01  1.4988010832439613e-15  1.5543122344752192e-15  1.8753151930881634e-01  1.9179252551245651e-01  3.7018466462881072e-01  3.6545075569410479e-01  5.3934079120604106e-01  5.3460154566233242e-01  7.0058908329948921e-01  6.9595554745955313e-01  8.5446478058536368e-01  8.5048583997694815e-01  9.9999999999999845e-01  9.9999999999999845e-01  1.3322676295501878e-15  2.0396071780016301e-01  3.8643009111307036e-01  5.5639819239762145e-01  7.1594010383878859e-01  8.6539056409038162e-01  9.9999999999999822e-01  1.1657341758564144e-15  1.8946166638702672e-01  3.6798534172122765e-01  5.3765541313633602e-01  6.9931826212783643e-01  8.5363379383592952e-01  9.9999999999999811e-01  1.2212453270876722e-15  1.9007013356048319e-01  3.6687706721997526e-01  5.3594075500832572e-01  6.9819662616802902e-01  8.5420364049406028e-01  9.9999999999999845e-01  8.8817841970012523e-16  8.8817841970012523e-16  8.8817841970012523e-16  2.0798020412629314e-01  6.9797759699051221e-01  8.5260902052151455e-01  9.9999999999999845e-01  1.2212453270876722e-15  2.1575492192254248e-01  4.0109550626450502e-01  5.7195413114737592e-01  7.3067807064720780e-01  8.7657293171103989e-01  9.9999999999999811e-01  1.3322676295501878e-15  1.4432899320127035e-15  1.3322676295501878e-15  1.6416510171204773e-01  1.6788345136119348e-01  1.6688636976870508e-01  3.3491815256511714e-01  3.2957944596549749e-01  1.3877787807814457e-15  1.8059716813620946e-01  3.5324860374604095e-01  5.2143508408779560e-01  6.8578408321958206e-01  8.4623528326089914e-01  9.9999999999999822e-01  1.6141685410844492e-01  3.2538627599519654e-01  1.4432899320127035e-15  1.6187893994371577e-01  3.2592532628455639e-01  4.9103067003033268e-01  6.5757851306451709e-01  8.2631048466754986e-01  9.9999999999999845e-01  1.2212453270876722e-15  1.2212453270876722e-15  1.2212453270876722e-15  2.1295595734759268e-01  2.0743924922622359e-01  2.0409037577804839e-01  3.8999706159868941e-01  3.9338262622890408e-01  3.9962358839750861e-01  5.6114223823377052e-01  5.6431644106728918e-01  5.7042198378970665e-01  7.2232238044743746e-01  7.1922152157102537e-01  7.2786818966876365e-01  8.6818209324182782e-01  8.6541010962514031e-01  8.7240857476289069e-01  9.9999999999999811e-01  9.9999999999999822e-01  9.9999999999999822e-01  1.0547118733938987e-15  1.0547118733938987e-15  1.1102230246251565e-15  1.9886406680370988e-01  1.9766065298002669e-01  1.8840374947819610e-01  3.6599518738895109e-01  3.7836715949113930e-01  3.8209868094569838e-01  5.3567592135158482e-01  5.4870491304946623e-01  5.5289940906628643e-01  6.9818844374653599e-01  7.0993746087204757e-01  7.1256544939199440e-01  8.5368552771638484e-01  8.6203936068484788e-01  8.6171244063814811e-01  9.9999999999999822e-01  9.9999999999999778e-01  9.9999999999999800e-01  1.4988010832439613e-15  1.5543122344752192e-15  1.4432899320127035e-15  1.7230903729934677e-01  1.5892594013589012e-01  1.5692270644144879e-01  3.2041939872021374e-01  3.2168503976944335e-01  3.4061801243769768e-01  4.8689963871572245e-01  4.8628346400649192e-01  5.0841388354748174e-01  6.5422861851648750e-01  6.5404998408112425e-01  6.7595777214586095e-01  8.2427101393127722e-01  8.2429950927888906e-01  8.4231673935598494e-01  9.9999999999999845e-01  9.9999999999999822e-01  9.9999999999999845e-01  9.9920072216264089e-16  2.0347761534771794e-01  3.8621812160294156e-01  5.5637833035361650e-01  7.1593337247863020e-01  8.6556074315120024e-01  9.9999999999999800e-01  1.5543122344752192e-15  1.7547342320013631e-01  3.4723313106535469e-01  5.1484685491662163e-01  6.7882978302600983e-01  8.3985800280942069e-01  9.9999999999999845e-01  1.5543122344752192e-15  1.7615599410417843e-01  3.4755044083707104e-01  5.1540552406920259e-01  6.8011737946308648e-01  8.4181613040006353e-01  9.9999999999999845e-01  1.4432899320127035e-15  1.5162569152934058e-01  3.1278565104681844e-01  4.7776752653114657e-01  6.4599681156771616e-01  8.1807526510773632e-01  9.9999999999999845e-01  8.3266726846886741e-16  1.9264821755332068e-01  3.7332949155589512e-01  5.4347479870038262e-01  7.0366461717434547e-01  8.5600932958602649e-01  9.9999999999999778e-01  2.0566950424524427e-01  1.9325964783354710e-01  7.1894191332327562e-01  7.0514987343414970e-01  8.6812739646662873e-01  8.5691649674185233e-01  9.9999999999999856e-01  9.9999999999999845e-01  1.4432899320127035e-15  1.9183049559134424e-01  3.7183092103908033e-01  5.4197152167281848e-01  7.0321962457285037e-01  8.5611664316222746e-01  9.9999999999999822e-01  1.4432899320127035e-15  1.6268963643872308e-01  3.2876630613237900e-01  4.9564348461052643e-01  6.6304951863745232e-01  8.3094040810023806e-01  9.9999999999999833e-01  1.4432899320127035e-15  1.3322676295501878e-15  1.8034224218679051e-01  1.7282611042944945e-01  3.5390909119256758e-01  3.4318340574700040e-01  5.2287421592252603e-01  5.1140775665074867e-01  6.8751597972967082e-01  6.7736712084422823e-01  8.4733820968030171e-01  8.4077954259993626e-01  9.9999999999999822e-01  9.9999999999999845e-01  1.3877787807814457e-15  1.4432899320127035e-15  1.7770351273071366e-01  1.9199287120397074e-01  3.5180399610178453e-01  3.7082943025767245e-01  5.2134369334229602e-01  5.4167561957109833e-01  6.8627062519000304e-01  7.0513119291496096e-01  8.4617970817195221e-01  8.6009310746791745e