<?xml version="1.0"?>
<VTKFile type="UnstructuredGrid"  version="0.1"  >
<UnstructuredGrid>
<Piece  NumberOfPoints="959" NumberOfCells="4107">
<Points>
<DataArray  type="Float64"  NumberOfComponents="3"  format="ascii">6.463650721461493 3.596470291605579 3.815613815099348  6.514693652701041 3.684607855587582 3.757997395579885  6.412589110386342 3.687830111799737 3.694709784888746  6.384195164126212 3.735559838424223 3.74174519373683  6.487821410903786 3.731465853434069 3.809339739438575  6.439561081444277 3.644455880912332 3.867387979129496  6.415770651763115 3.692470455571341 3.919177265305211  6.461297890976367 3.778380342688427 3.860666796580569  6.356161714658309 3.783369717657451 3.788845542183626  6.39212114824125 3.740454371605659 3.970964829558521  6.434927269426897 3.825278913592571 3.911978230444661  6.328286211916702 3.831194552911334 3.835979600730119  6.368492144241999 3.788391500765839 4.022742098100755  6.408572554260557 3.872123119234173 3.963269010409621  6.300418158706827 3.878996867194937 3.883131903845408  6.344762283102531 3.836259849953751 4.07449772496233  6.382115434285004 3.918874943031298 4.014510098339257  6.272404573011869 3.926747952435702 3.930271804744632  6.320795664815916 3.884006767424091 4.126216691744807  6.355415118810237 3.965450650812361 4.065665078334353  6.244042745678076 3.97437786696588 3.977362752051372  6.341426721009768 3.56899401801585 3.778843029556944  6.317520762134079 3.618956153816961 3.826787240957032  6.293896441686621 3.668924816681831 3.874826314186038  6.270416869278469 3.718877888988204 3.922909580963723  6.2469733826775 3.768828969175752 3.971012227655307  6.223432167198774 3.818799137081181 4.019120782896769  7.241015102650753 3.630563557155715 3.9686634451317  7.154103715495178 3.682094213486081 3.934586398363172  7.180707848430292 3.561229139229259 4.008533997785312  7.178116652159907 3.602291121635381 4.080467238012094  7.149425084700019 3.725481284749084 4.004561471359173  7.241266909988407 3.67288040033066 4.040321632302404  7.241520708790393 3.715144675823743 4.111715260704267  7.144800118737075 3.768798997972659 4.074274341374021  7.175557506954095 3.643328474381529 4.152140549667352  7.241751708589262 3.757330189008667 4.182890524097335  7.140192854181713 3.81201742064311 4.143777791538951  7.172995339249632 3.684304060963987 4.223623806219783  6.434544058385816 3.393733158370333 3.98996855186743  6.462617565992262 3.480251320225566 3.918268871835763  6.349676734903204 3.466827229027058 3.885540406975466  6.330178254033447 3.518428118543942 3.936354924479181  6.442189772941521 3.529017555537673 3.97285107698832  6.205451846345365 4.22635626504315 2.672453405062706  6.216682890509758 4.21113877381593 2.853334023670448  6.289715395711887 4.287549697958701 2.752543517139334  6.252561326600092 4.344418015933704 2.758294252855424  6.17721254944169 4.264329591939813 2.863981484426617  6.168401081669483 4.280904509198016 2.676889838263557  6.21546370304655 4.401173984810493 2.764072637404557  6.137747695182673 4.317491287944208 2.874677857363377  6.13138494054353 4.335406689301482 2.681377099110424  6.178270346813735 4.457697360686915 2.769872676884617  6.098123594174035 4.37046611621648 2.88541910193603  6.094222518126272 4.389703984618903 2.685908320026167  6.140863324292661 4.513879251004543 2.77568698150929  6.463011384840682 4.447892165566166 2.503532403336042  6.333104523335903 4.397797362737105 2.630691726822029  6.333477341594358 4.38987644604431 2.466594681633456  6.364532210981133 4.336931726951797 2.63109205134821  6.305339206528576 4.450830874801172 2.46157719095067  6.44086616511166 4.51261393559802 2.496727392336971  6.301779038089305 4.45848683359867 2.630295015318184  6.277164345983062 4.511537294740768 2.45657831395137  6.4186737123263 4.577110693226421 2.489998435280091  6.270421132595978 4.518940666396166 2.629907098612235  6.248755428575539 4.571924677633542 2.451657799532345  6.396322433771247 4.641331703551149 2.483393544614171  6.238828832012846 4.579060907308867 2.629646232890659  7.041044006488645 3.629187858254661 3.955255038508572  7.033123072454226 3.671386930859031 4.02432894380779  7.025266540089595 3.713530386693476 4.093134423666667  7.01744735869122 3.75559899012993 4.16175519686935  6.255523373992585 3.697694511933386 3.705322479688196  6.229703894461503 3.748812093112151 3.748172341648022  6.204024792911872 3.799962867124957 3.791095591973557  6.211084347917674 4.31509306177179 2.54708038055015  6.177148854946936 4.371734684550891 2.547489605297348  6.143125532974137 4.42815241028551 2.547917694468687  6.10885640994248 4.484203070638053 2.548347531323828  6.405757786025227 3.529775981859191 3.850288791723207  6.382365517039835 3.578405507849002 3.901870936238352  6.359263681684164 3.62702197216203 3.953497088991631  6.310893135909526 3.569972230810783 3.987235045504442  6.336296754135107 3.675597487880276 4.005139538262781  6.291722261216885 3.621462200632529 4.038139891236418  6.313369514363189 3.724140923072457 4.056780605835915  6.272592951476651 3.672928989778399 4.089043671431184  6.290370370743386 3.772653541560555 4.108412761232541  6.253412575380477 3.724378780521115 4.139942148290173  6.26712020544099 3.821102266640476 4.160040476385259  6.433476433687435 4.154713375006312 3.057309681665361  6.506423901432536 4.219719491521031 3.030031242762612  6.464482187217543 4.215187688615488 2.929425751532187  6.425922985252949 4.274818754513857 2.940131586165983  6.471463833714085 4.282181793995038 3.046349681263517  6.389466869595572 4.208135960502291 3.07516797191653  6.387942801393215 4.33453219918128 2.950704245711454  6.437052379033549 4.344608159454704 3.062501579858102  6.346053070645667 4.261820287238678 3.092945676249151  6.350208742944023 4.394166633622571 2.961231283888904  6.40285802344444 4.40693835152533 3.078595202975915  6.302845395544102 4.315526430754735 3.110697759032367  6.312512927826847 4.453648823688211 2.971737678017228  6.368723809753261 4.469113524072429 3.094650885830136  6.259638617789639 4.369131335916306 3.128449259292189  6.274746619041654 4.512912176164666 2.982239398060833  6.334562728037166 4.531080873777639 3.110693287752059  6.216299537247099 4.422512174574041 3.146194923289874  6.236814409162728 4.571903537847724 2.992799156114263  6.30027972275844 4.592792749006757 3.126758273229456  6.396265006913554 4.275948897654887 2.63150345042143  6.056735518471721 4.443603546213046 2.690470592076047  6.554726901933983 3.566448703191423 3.877567207969727  6.571956937214316 3.496237271486922 3.945126053015287  6.552719760836015 3.543770143821468 4.002715611586033  6.533720698946699 3.613607628869071 3.93336041290616  6.533720640451266 3.591292415066041 4.060216813564906  6.422015938835965 3.577748005814942 4.027410341729159  6.51296901852598 3.66077780280613 3.989091280097877  6.514836739402811 3.638766401669312 4.117646382156114  6.401967210359246 3.626429532361361 4.081949009382984  6.492356260662495 3.707900006844493 4.044766847056182  6.408434503443205 3.834127999802419 3.532332228145272  6.506249119800857 3.830182738744907 3.617648435409911  6.500088226189926 3.90241336779687 3.53720116563983  6.465134402216361 3.950275651388036 3.580814161627535  6.474357862719951 3.877524667003433 3.664470044880315  6.374025481371288 3.882044295050191 3.573016614124848  6.340037445848613 3.930189751954375 3.613772991384103  6.442872363133895 3.925008141433393 3.71130700888269  6.430633255130899 3.998320983175234 3.624434868197777  6.306211915524442 3.978398027201646 3.654591203196887  6.411539402844958 3.972490924886534 3.758156899642612  6.396274598351173 4.046375380121797 3.668080714398241  6.272356730109612 4.026588631135444 3.695439311686399  6.380200423969815 4.01991687165294 3.804994614011227  6.361903541928635 4.094371855583406 3.711714157634735  6.2383027252098 4.074690833422824 3.736273537351519  6.348724796217488 4.067226739516419 3.851777986616019  6.327383566710181 4.142234407648265 3.755292048547791  6.203868887912596 4.122585468932238 3.777039234038875  6.317004925414279 4.114346661789289 3.898439314715724  6.292602204254998 4.189847422505236 3.798762411132592  6.471781691345442 3.754958550769226 4.100396482536626  6.381957343148993 3.675058688722974 4.136466041295535  6.451158468730973 3.801927234471308 4.155976100482961  6.36189771444983 3.723621630316889 4.190960690962587  6.430385287430568 3.848731586220726 4.21152259137914  6.341650927108677 3.772070128054211 4.245431037789309  6.441402145987162 3.929832996240397 3.453960878711816  6.40415698735035 3.978279482375925 3.492507509278248  6.367369575158355 4.026993861570049 3.531101255015312  6.330716468333111 4.075753417513495 3.569747179984351  6.294025270379641 4.124473937464824 3.608406726281966  6.257141917287242 4.173060041884769 3.64703541104895  6.219926971953262 4.22137189072464 3.685586682920305  6.245097587972038 4.258354855858705 2.546708457496594  6.838155018585018 3.839328362967101 3.769180056203329  6.741891241675317 3.86386339525707 3.715014764622325  6.783279613643912 3.755147571689992 3.81569574879296  6.764276040987083 3.801190271109987 3.87629720386351  6.718569165483397 3.911779898421214 3.771839980578431  6.818839907627107 3.886613924704059 3.829624241144246  6.745463790733703 3.847173746299733 3.936695969295646  6.695502022347353 3.959652967427213 3.828509387174267  6.799728877680132 3.933812261897329 3.889858060476915  6.726781986433571 3.893088061399006 3.996948637912988  6.672585372331891 4.007455720970686 3.885043526987618  6.780737333084946 3.980916021524804 3.949926313630206  6.708166247177464 3.938922716239521 4.057079279417544  6.649736840293038 4.055175012131248 3.941459659008732  6.761815192662241 4.027926185159551 4.009856173155846  6.689570255109239 3.984646457283571 4.117099131683765  6.626886351926474 4.10278242788169 3.997763420487582  6.742897795371343 4.074835818062708 4.069647405920596  6.670906627112911 4.030209896705137 4.176991290331312  6.603930022273063 4.150243691223229 4.053926312448088  
[...]
<PointData  Scalars="f_14"> 
<DataArray  type="Float64"  Name="f_14"  format="ascii">-1.1209968942775989e-13  -1.1104642218890986e-13  -1.1297427464287014e-13  1.6685227248413123e-01  1.7653813821691750e-01  1.7507593340277641e-01  3.4423167657819043e-01  3.4797377144152675e-01  3.3401482655517922e-01  5.1077164646931184e-01  5.1540158441793404e-01  4.9976369890057354e-01  6.7563514312606110e-01  6.7953180278158898e-01  6.6482871558958745e-01  8.3936063946779937e-01  8.4107658920951334e-01  8.3030867859250801e-01  1.0000000000001219e+00  1.0000000000001230e+00  1.0000000000001210e+00  -1.1438432019268178e-13  1.6239622714663862e-01  3.2594491378461288e-01  4.9035703581644113e-01  6.5623417718250143e-01  8.2507101430846341e-01  -9.7872614746302011e-14  -9.9364932248938439e-14  -9.9105746658792070e-14  2.0036849711054672e-01  2.0100187774282410e-01  2.0226112228792323e-01  3.8782170723023063e-01  3.8570252854137105e-01  3.8405362358182316e-01  5.5905998124422962e-01  5.5670147015341720e-01  5.5487658534059481e-01  -1.1278577046477868e-13  -1.1223410697213147e-13  -1.1427728735584383e-13  1.6287755116160399e-01  1.7196056513436395e-01  3.6827926699367097e-01  3.6616304532947874e-01  3.9474594098630161e-01  5.6550576743211023e-01  5.3611835244797645e-01  5.3825012458709454e-01  7.2424544277844938e-01  6.9837207662909873e-01  7.0017151111460851e-01  8.7100685746606032e-01  8.5318994017295036e-01  8.5429569873602118e-01  1.0000000000001215e+00  5.7914400341918182e-01  5.7132206430184451e-01  5.7277051804707457e-01  4.0005491744008137e-01  7.2973066760142968e-01  7.3381482079238614e-01  7.2806470723205263e-01  8.7363535811902238e-01  8.7363779156197008e-01  8.7129841302605926e-01  1.0000000000001228e+00  1.0000000000001250e+00  1.0000000000001230e+00  -1.0148219586137078e-13  1.9195769665470502e-01  3.7317401706123249e-01  5.4344015779001820e-01  1.6270157613296130e-01  3.2445230781047069e-01  4.8802804872219674e-01  5.4456564732901969e-01  7.0527869044172620e-01  8.5719244845547304e-01  1.0000000000001203e+00  -1.1324180217082309e-13  1.6945690584847722e-01  3.3599741203929051e-01  3.2899581441391607e-01  5.0163615144415352e-01  4.9464005275761713e-01  6.6685579179828758e-01  6.6006734385360355e-01  8.3282088557693901e-01  8.2667212345450292e-01  1.0000000000001206e+00  -1.1145265694048176e-13  -1.0956202923536037e-13  -1.1049112457419435e-13  2.2817095630245920e-01  2.3949343986229565e-01  2.1004970280376123e-01  4.2097094827603965e-01  4.3467285196312577e-01  3.9812520573842136e-01  5.9234267910763994e-01  6.0564043183067229e-01  5.6983454925062071e-01  7.4628946032792731e-01  7.5694937065618506e-01  7.2775138432722419e-01  8.8353268478698666e-01  8.9011032680297142e-01  8.7260124896514446e-01  1.0000000000001235e+00  1.0000000000001246e+00  2.1154187428393870e-01  1.0000000000001195e+00  -1.1044589599266118e-13  -1.1020820862149427e-13  1.8057628133215042e-01  1.7381442141119241e-01  3.5337693915021695e-01  3.4154641140061626e-01  3.4515303259193925e-01  5.2131992308732444e-01  5.0838057943499892e-01  5.1256965006954813e-01  -1.1285267940384475e-13  -1.1092770087973495e-13  -1.1088669230898923e-13  1.9156521398174070e-01  1.8716388861506572e-01  1.7171630483116593e-01  3.4210307025946091e-01  3.6316131294373111e-01  3.6997799371106932e-01  5.0933539280549689e-01  5.3201623440616597e-01  5.3961735874370687e-01  6.7380199261382157e-01  6.9485741628526376e-01  7.0163233110592216e-01  8.3636485010808959e-01  8.5170380610907159e-01  8.5621807387753446e-01  1.0000000000001212e+00  1.0000000000001232e+00  1.0000000000001232e+00  6.7644264572415280e-01  6.7289343935010792e-01  8.3778199797392305e-01  8.3601026535786394e-01  1.0000000000001237e+00  1.0000000000001217e+00  -1.1196455359944903e-13  1.8931786026572556e-01  3.6595114467950457e-01  5.3522266480530101e-01  6.9808942082067094e-01  8.5463334278451542e-01  1.0000000000001221e+00  3.7427256421832555e-01  -1.0468975153524670e-13  -1.0638058499982735e-13  -1.0587153375614047e-13  1.9228933367518258e-01  1.9980986726781685e-01  1.9987960628192122e-01  3.7272891518910345e-01  3.8336807079865509e-01  3.8367976123016334e-01  5.4280626396200671e-01  5.5408550300026238e-01  5.5444079216069797e-01  7.0354272632883275e-01  7.1346829080239849e-01  7.1358174125280405e-01  8.5570491357069201e-01  8.6233285328215814e-01  8.6226635190184087e-01  1.0000000000001283e+00  1.0000000000001279e+00  1.0000000000001295e+00  -1.1325466212943077e-13  -1.1148139464418228e-13  -1.1242872750896060e-13  1.8919506870278871e-01  2.0341833167581169e-01  1.9422703189218007e-01  3.7114875607864073e-01  3.8792808126957912e-01  3.7235149975018517e-01  5.4232646292133146e-01  5.5907483012999093e-01  5.4197009796304718e-01  7.0338275621830104e-01  7.1831695337723667e-01  7.0431395469362623e-01  8.5526302049131764e-01  8.6604776793296057e-01  1.9307780714946490e-01  3.7469238802838117e-01  5.4558286045969084e-01  7.0655608364584988e-01  8.5821288764885462e-01  -1.0895738984050237e-13  -1.1075506235666451e-13  2.1498760735568168e-01  2.3252724952030238e-01  4.0527566403568549e-01  4.2774134105482398e-01  5.7694176957451226e-01  5.9905348812819603e-01  7.3255267876848362e-01  7.5093042945107613e-01  8.7369678878388679e-01  8.8533612897057745e-01  1.0000000000001235e+00  1.0000000000001252e+00  -1.1122721287470204e-13  -1.0917137286890891e-13  -1.0929999560942542e-13  2.2662198348786433e-01  2.1367695173137866e-01  4.0690664744105370e-01  4.1748158555105974e-01  5.7898872516494926e-01  5.8847464526124693e-01  7.3329690439858164e-01  7.4257611190838257e-01  8.7237666376162348e-01  8.8196711576499098e-01  1.0000000000001248e+00  1.0000000000001248e+00  -1.1251082881773374e-13  1.7822617414354955e-01  3.4818002545218985e-01  5.1508780606716198e-01  6.7987788387971748e-01  8.4338384905689157e-01  -1.0772613941318129e-13  -1.0942308771448728e-13  -1.0888653975639440e-13  1.8684775687628274e-01  1.9657586251554071e-01  2.0311110033177637e-01  3.8680904961572704e-01  3.7821509425925431e-01  3.6562837792197722e-01  5.5749028710300463e-01  5.4858106269200690e-01  5.3545153327495765e-01  7.1682663036890382e-01  7.0904397914202655e-01  6.9717033442378751e-01  8.6556463477743195e-01  8.5993584502859377e-01  8.5139284347017208e-01  1.0000000000001252e+00  1.0000000000001248e+00  1.0000000000001263e+00  1.8132710092016227e-01  1.8263120586031092e-01  3.5866817766799802e-01  3.5261541388875223e-01  5.2773736791783388e-01  5.1993881643941386e-01  6.9066184705479428e-01  8.6096851644756955e-01  8.6198721942081113e-01  8.6088097276371955e-01  1.0000000000001206e+00  1.0000000000001226e+00  -1.0279263540554811e-13  -1.0424758307848366e-13  1.8972251985359501e-01  2.0067573416728310e-01  3.6841528846452232e-01  3.8215469266791940e-01  5.3797429870851499e-01  5.5224887233833719e-01  6.9929791739791047e-01  7.1226912909720141e-01  7.0371534380597212e-01  8.5330289100184087e-01  8.6300337746992706e-01  8.5518364463518426e-01  1.0000000000001299e+00  1.0000000000001312e+00  1.0000000000001326e+00  -1.0761908744531013e-13  1.9471839901504098e-01  3.7397983330828105e-01  5.4377775833872932e-01  7.0510694754327818e-01  8.5837780963614763e-01  1.0000000000001266e+00  -1.1446561811055678e-13  -1.1285175877829276e-13  1.6774771286881884e-01  3.3548268115333013e-01  5.0155035891811484e-01  -9.9858292617559010e-14  -1.0134097304254272e-13  -1.0151257507521842e-13  2.0508225600978811e-01  2.2175429441338676e-01  2.1233938257805660e-01  3.9223487831072462e-01  4.1305613096605104e-01  4.0339396393920712e-01  5.6347989343488969e-01  5.8430103294309921e-01  5.7521915106867461e-01  7.2082697558591946e-01  7.3860556981984360e-01  7.3042355484768118e-01  8.6600332125940349e-01  8.7784377237589095e-01  8.7133399268267386e-01  1.0000000000001326e+00  1.0000000000001328e+00  1.0000000000001343e+00  2.0217672508106135e-01  3.8832765034150429e-01  5.5983901632946809e-01  7.1837208122242557e-01  8.6502290893995515e-01  1.0000000000001219e+00  -1.1101598069167083e-13  1.9367930146569240e-01  3.7511162529519054e-01  5.4575143871677201e-01  7.0660937470579577e-01  8.5817469853775918e-01  8.4790469339889496e-01  1.0000000000001230e+00  -1.0893783373572207e-13  2.1546647656550286e-01  4.0752749528541415e-01  -1.1420003100273709e-13  1.6305821872564186e-01  3.2787136621048185e-01  4.9265584036287491e-01  7.2994103676231337e-01  8.7219380507644606e-01  1.0000000000001241e+00  -1.0204227797477608e-13  -1.0398281297364626e-13  -1.0350537413113399e-13  2.2013735256421513e-01  2.2283752728257655e-01  2.1069007698474229e-01  4.1178063984900959e-01  -1.0301300555206787e-13  2.1323105976611972e-01  4.0082820901186916e-01  5.7176727464971355e-01  7.2849830080974165e-01  8.7214263111373280e-01  1.0000000000001310e+00  -9.9912689020492122e-14  2.1107676814143353e-01  3.9931531775505774e-01  5.7069785777268467e-01  7.2737213171078841e-01  8.7098562918523881e-01  1.0000000000001341e+00  -1.1136446772798402e-13  1.9450803101622985e-01  3.7684704590240969e-01  5.4762911610705711e-01  7.0789664353833115e-01  8.5845436198408565e-01  8.5888781687130189e-01  1.0000000000001228e+00  -1.0972334676604407e-13  2.0199790311018259e-01  3.8611723514896512e-01  5.5707013512952719e-01  7.1649462591743751e-01  8.6474893115748841e-01  1.0000000000001243e+00  -1.0559463069842705e-13  2.2330131220588795e-01  4.1726372438338571e-01  4.1460717981890627e-01  5.8843199256952683e-01  5.8549833352871516e-01  5.8297321821277326e-01  7.4105461818128460e-01  7.3936193180410392e-01  7.3703424540651863e-01  8.7792843312871749e-01  8.7809995836686550e-01  8.7622483697414388e-01  1.0000000000001286e+00  1.0000000000001301e+00  1.0000000000001306e+00  -1.0102450886765898e-13  2.0078831845403272e-01  3.8550706129358780e-01  5.5642212899846710e-01  7.1512751315590672e-01  8.6284788942029078e-01  1.0000000000001330e+00  -1.0334444735395422e-13  1.9657663187040611e-01  3.7978281665879449e-01  5.5042467373198400e-01  7.0985758050211190e-01  8.5938445002738351e-01  1.0000000000001308e+00  -1.0463936960526243e-13  1.9101140879251585e-01  3.7110976179667066e-01  5.4115341771659087e-01  7.0208699638047223e-01  8.5487190019410464e-01  1.0000000000001295e+00  -1.0905372799302618e-13  -1.0981418273812630e-13  -1.1044653452977195e-13  2.1726315255100026e-01  2.3970483237590276e-01  2.3094914823234708e-01  4.0685699081442961e-01  4.3403857033377435e-01  4.2420888525381589e-01  5.7819625957292564e-01  6.0485375131105013e-01  5.9507557084476814e-01  7.3444955142182811e-01  7.5687617394923157e-01  7.4762330404372768e-01  8.7658126240346135e-01  8.9034854546718167e-01  8.8364049419861002e-01  1.0000000000001235e+00  1.0000000000001243e+00  1.0000000000001252e+00  -1.0290098817779824e-13  2.1980443629530716e-01  4.1150812386681107e-01  5.8298236448056295e-01  7.3739877430234002e-01  8.7680905639040263e-01  1.0000000000001312e+00  -1.0450306979486337e-13  -1.0436170847291355e-13  -1.0600609731443378e-13  2.1303358994566468e-01  2.1393590052066538e-01  2.0824652097499491e-01  4.0120491368458738e-01  4.0582086396094874e-01  3.9632131837518159e-01  5.7246435998741629e-01  5.7765298139644916e-01  5.6773845468429218e-01  7.2908804935234017e-01  7.3245121201780239e-01  7.2468209113190563e-01  8.7225423241168687e-01  8.7261363056819274e-01  8.6871583032299471e-01  1.0000000000001283e+00  1.0000000000001297e+00  1.0000000000001297e+00  -1.0590876814659658e-13  -1.0585052042381864e-13  -1.0759972021564217e-13  2.1520208328708873e-01  2.2333451505879415e-01  2.1586845733474663e-01  4.0544643405228964e-01  4.1815187213028626e-01  4.0789514718202668e-01  5.7712909873126783e-01  5.9009264052615595e-01  5.7981037014563497e-01  7.3289711227034415e-01  7.4316529170994061e-01  7.3472873546607964e-01  8.7421497787370950e-01  8.7979549001241963e-01  8.7464684187955344e-01  1.0000000000001266e+00  1.0000000000001283e+00  1.0000000000001283e+00  -1.0112697547560973e-13  -1.0086007209182490e-13  -1.0264240226050874e-13  2.3162130472848319e-01  2.3770857330417963e-01  2.2400777234535621e-01  4.2678156230596132e-01  4.3545806734633175e-01  4.1973659162746402e-01  5.9801336119648862e-01  6.0678901457927281e-01  5.9162970405721416e-01  7.4960716583883469e-01  7.5693568795539112e-01  7.4388381995790587e-01  8.8401286040322591e-01  8.8885129563211962e-01  8.7932957882419194e-01  1.0000000000001317e+00  1.0000000000001332e+00  1.0000000000001330e+00  -1.0001710923052638e-13  -1.0196256754222802e-13  -1.0033497155240358e-13  2.4284244415516384e-01  2.2567761622681695e-01  2.3219985087683118e-01  4.3930217263032084e-01  4.2247057409124866e-01  4.2617245347782234e-01  6.0992869898681101e-01  5.9447825825248302e-01  5.9718548341281474e-01  7.5976465428189932e-01  7.4609865606634806e-01  7.4943382647556234e-01  8.9108243542315135e-01  8.8054851743463181e-01  8.8473110436822411e-01  1.0000000000001337e+00  1.0000000000001321e+00  1.0000000000001341e+00  -1.0415428506617389e-13  -1.0398420883762122e-13  2.3858529533572925e-01  2.4188038216343807e-01  4.3524889902626474e-01  4.3654616486095438e-01  6.0615302667051330e-01  6.0704097150495895e-01  7.5637393414979770e-01  7.5791529363242549e-01  8.8852777880390954e-01  8.9074748948249938e-01  1.0000000000001301e+00  1.0000000000001299e+00  -9.9342306324703716e-14  -9.9074530080084180e-14  2.3169269340820106e-01  2.5434535828370941e-01  4.3137068150112529e-01  4.5213287701774296e-01  6.0340636522902358e-01  6.2197200480162840e-01  7.5319513770988211e-01  7.6988099284574130e-01  8.8475181301963746e-01  8.9788357334482427e-01  1.0000000000001348e+00  1.0000000000001348e+00  4.5007332411196516e-01  4.4733281890434506e-01  6.2063081271809073e-01  6.1818113086026738e-01  7.6818368589887420e-01  7.6558356959141149e-01  8.9557560630754574e-01  8.9298348015311779e-01  1.0000000000001368e+00  1.0000000000001366e+00  -1.0235103814677654e-13  -1.0211565086049067e-13  2.2530940542825184e-01  2.2925259021991687e-01  4.2273242509407760e-01  4.2601184393085562e-01  5.9462713927562105e-01  5.9763497134551724e-01  7.4569656707827192e-01  7.4864294356230854e-01  8.7984081013166382e-01  8.8235197924234543e-01  1.0000000000001321e+00  1.0000000000001319e+00  -1.0066012969331028e-13  2.1990283222731105e-01  4.1749909372703553e-01  5.9018893657014238e-01  7.4190335243018191e-01  8.7678387075679365e-01  1.0000000000001334e+00  -1.0383642655594495e-13  -1.0375588826118752e-13  -1.0564356536674181e-13  2.4463439011047899e-01  2.3359169269582999e-01  2.5157203740665290e-01  4.4246933896994173e-01  4.3068166599895685e-01  4.4852884925120901e-01  6.1302798486638299e-01  6.0196666451251701e-01  6.1827184015478120e-01  7.6212836041244014e-01  7.5248556057229632e-01  7.6667728228376075e-01  8.9216889166738678e-01  8.8522332473658338e-01  8.9581267880072368e-01  1.0000000000001286e+00  1.0000000000001306e+00  1.0000000000001303e+00  7.4008526485489912e-01  8.7853048180412263e-01  1.0000000000001263e+00  -1.0534968563794815e-13  -1.0777678674902818e-13  -1.0648200683895978e-13  2.3508563218554945e-01  2.2331758933703999e-01  2.2361287513901906e-01  4.2855671496411663e-01  4.1526782842844379e-01  4.1596432616229845e-01  5.9894021826584642e-01  5.8627190676784580e-01  5.8687446976863911e-01  7.5086050442163454e-01  7.4042625133428630e-01  8.8586778056923321e-01  8.7853392325325963e-01  1.0000000000001277e+00  1.0000000000001288e+00  5.5167479157025245e-01  7.1170556844080435e-01  -1.0775596074995404e-13  2.1103401555264231e-01  3.9811609814606558e-01  5.6936110960243558e-01  7.2682622962412258e-01  8.7121540364047723e-01  1.0000000000001263e+00  -9.7507016016562835e-14  2.4641664308002334e-01  -1.0204108995812800e-13  2.1993664209947350e-01  4.1468015231494476e-01  5.8665379952178820e-01  7.3952034539122780e-01  8.7641499120165589e-01  1.0000000000001321e+00  -9.3736120447922244e-14  -9.5006382823896249e-14  -9.5654225597450097e-14  2.2618128985369018e-01  2.3088776326045546e-01  2.1689088595167863e-01  4.1042638958887667e-01  4.2510422350902854e-01  4.1723866862774706e-01  5.8297123645780868e-01  5.9675945922142093e-01  5.8863223545150900e-01  7.3768711603595682e-01  7.4956221684098334e-01  7.4334321695247474e-01  8.7640901629400059e-01  8.8520633575624730e-01  8.8234995116652692e-01  1.0000000000001403e+00  1.0000000000001390e+00  1.0000000000001383e+00  -1.0056522888290607e-13  2.2570151806309677e-01  4.1762550526111103e-01  5.8868196289250863e-01  7.4257935297044020e-01  8.8090519274657386e-01  1.0000000000001334e+00  -9.8816948194622205e-14  2.4852843592821328e-01  4.4649119256002051e-01  6.1675115807351755e-01  7.6521064904556368e-01  8.9410204202369936e-01  1.0000000000001352e+00  -9.4277984914187692e-14  -9.6245465513417684e-14  2.0495275055392398e-01  -1.0574443177725397e-13  2.2201460515665061e-01  4.1868131980048662e-01  5.9095251358692857e-01  7.4304801225669725e-01  8.7822554029511957e-01  1.0000000000001283e+00  -9.6949603486309482e-14  -9.7511969630674501e-14  2.0677289875967025e-01  2.1625012122403217e-01  3.9477049540408432e-01  4.0801963497213933e-01  5.6625382920516132e-01  5.7976142863253644e-01  7.2331680446427438e-01  7.3458578020082643e-01  8.6758170995431705e-01  8.7439249287669885e-01  1.0000000000001366e+00  1.0000000000001370e+00  -1.0694644154859232e-13  7.3252043684496382e-01  8.7344709552455457e-01  1.0000000000001272e+00  -9.6551715734889519e-14  2.2988894806448418e-01  4.2430371327484745e-01  5.9565789350033915e-01  7.4796190631796655e-01  8.8330932919997207e-01  1.0000000000001374e+00  7.4037495271899367e-01  8.8071808433276233e-01  1.0000000000001246e+00  -9.8386176016916540e-14  -9.8856278204146823e-14  2.1138882298490791e-01  2.1682780860736603e-01  3.9928136298685007e-01  4.0824673779002096e-01  5.7051210502655780e-01  5.7981926618935398e-01  7.2721569120256491e-01  7.3460131067385692e-01  8.7086581970214605e-01  8.7465744096352749e-01  1.0000000000001352e+00  1.0000000000001357e+00  -1.0452029396500033e-13  -1.0499701314714478e-13  -1.0654045567912313e-13  2.3876259863394633e-01  2.2166572376544641e-01  2.3239029990248589e-01  4.3616204955467441e-01  4.1628508017009314e-01  4.2803910609447449e-01  6.0697030182502376e-01  5.8784860524408367e-01  5.9903366519421886e-01  7.5687003956190735e-01  7.4041641058732988e-01  7.5020370848338969e-01  8.8843543388623392e-01  8.7703694444338887e-01  8.8429369232204058e-01  1.0000000000001277e+00  1.0000000000001292e+00  1.0000000000001297e+00  -1.0754084635022776e-13  2.2198970704949586e-01  4.1734382128296132e-01  5.8914676045325909e-01  7.4155396375630289e-01  8.7764659315345583e-01  1.0000000000001268e+00  -1.0136910663969829e-13  -1.0296663747299263e-13  2.2254566094211525e-01  2.1498676637751521e-01  4.1515035175616349e-01  4.0429348963985945e-01  5.8644946403442533e-01  5.7542505392326626e-01  7.4004940851586676e-01  7.3118680642855616e-01  8.7823609075373976e-01  8.7312417900692674e-01  1.0000000000001312e+00  1.0000000000001328e+00  4.2083663502775759e-01  5.9318440136841244e-01  7.1540624657195784e-01  8.6321706441720136e-01  1.0000000000001348e+00  -1.0773998872612370e-13  2.3125039193208027e-01  4.2550316883828931e-01  5.9638275912933725e-01  7.4854159077200100e-01  8.8393769500328712e-01  1.0000000000001263e+00  -1.0604185059498972e-13  2.4576679932779041e-01  4.4333481617325537e-01  6.1359536304388729e-01  7.6242512461552381e-01  8.9234980079255755e-01  1.0000000000001281e+00  4.2642365769613383e-01  5.9814640676552300e-01  7.4921077878156894e-01  -1.0723097317693462e-13  2.4412108224125040e-01  4.3902346522967800e-01  6.0916927265615073e-01  7.5947498718149686e-01  8.9148606427712684e-01  1.0000000000001270e+00  -1.0815945857263724e-13  -1.0775655491047932e-13  2.3046793494370052e-01  2.3779496698604952e-01  4.2905083778069447e-01  4.3536645324037687e-01  6.0085176964165388e-01  6.0648688960225161e-01  7.5120890269644913e-01  7.5654016279348446e-01  8.8356570743467278e-01  8.8813617805431555e-01  1.0000000000001266e+00  1.0000000000001261e+00  -1.0616769830336979e-13  1.8904677113505708e-01  3.6727069491431935e-01  5.3680404747709343e-01  6.9854026659286561e-01 