<?xml version="1.0"?>
<VTKFile type="UnstructuredGrid"  version="0.1"  >
<UnstructuredGrid>
<Piece  NumberOfPoints="964" NumberOfCells="4110">
<Points>
<DataArray  type="Float64"  NumberOfComponents="3"  format="ascii">8.319643491173018 3.697186942580402 3.569799973543017  8.209755681804555 3.732754879551128 3.541608330734075  8.270531038319993 3.655607916605709 3.658887967374937  8.279966809966416 3.714032049478897 3.693263443202586  8.222105633827887 3.792418340455118 3.569103869429402  8.329425764164545 3.756137916606239 3.598389825516353  8.339177517575854 3.815096839711512 3.627265553317838  8.234380501651586 3.852145944569824 3.5968936791587  8.289359823353108 3.772407970281509 3.727930689872625  8.348944255094917 3.874170679501815 3.656298094777132  8.246670865252579 3.91199429267202 3.624826750457384  8.298751760038778 3.830823718163463 3.762719933414696  8.358768510170126 3.933412156074551 3.685376802541644  8.259078077095994 3.97200664084288 3.65279839758519  8.308199476171934 3.889355059938033 3.797554125869482  8.27173611683817 4.032219416636341 3.680717791354044  8.368694472652463 3.992920538793599 3.714434472500275  8.317750179764142 3.948104935278569 3.832372513710823  8.378862496575172 4.05275447471956 3.743389800844183  8.284705454966016 4.092837631944665 3.708578380777751  8.327469583138106 4.007184536229238 3.867117620846085  8.207475029603891 3.967695244631578 2.47057760246273  8.087444406710059 3.973848497477081 2.415720925543038  8.144792245278499 3.95270647435495 2.553652667827423  8.144909257366267 4.007286675836069 2.563094986742033  8.146856179120785 3.696657975811645 3.625773379941781  8.160639385365798 3.754930876751613 3.660324381249795  8.174296233844931 3.813180635239865 3.695121015437744  8.187931665162644 3.871474416916759 3.730064762263255  8.201638939810138 3.929849626774744 3.76505178952973  8.21553181455471 3.988333113030436 3.800013952474672  8.229765723839185 4.046979108667266 3.834898251947536  8.896527013464288 3.825852286775401 3.101628448577795  8.938308606269832 3.869509059736925 2.963256761118864  8.801977227266025 3.840976379840709 3.023592456374373  8.798755602450578 3.892653072206757 3.038368010073994  8.93408000014438 3.92021297714988 2.978987093091362  8.892515603372233 3.878431044328029 3.115853191099767  8.795622144649553 3.944544934728655 3.053242507970128  8.929925716709658 3.97111500184896 2.994779615506154  8.888590787016541 3.931217799346595 3.130214861599225  8.792541187855146 3.996672940811393 3.068180280852149  8.925810203751551 4.022218088025737 3.010629539438528  8.884729225248314 3.984218122616571 3.144651517136657  8.789471949704728 4.049060976350285 3.083166144770087  8.921685499713199 4.073544495789157 3.026540819790161  8.88087766539191 4.037455988452161 3.159121980107157  8.78635690080684 4.101746193247229 3.098185179174368  8.792762202218224 3.696396151763398 3.54146591703225  8.649744830251441 3.672964733707389 3.583513280730143  8.772640778136937 3.649472854130215 3.640855401501173  8.768990284976448 3.708087580819491 3.670532989788787  8.64860134322425 3.731883573329672 3.610532770724431  8.789870981311777 3.755710788400667 3.563911384505068  8.765571630786777 3.766629567148566 3.700487936337559  8.647636642476499 3.790828349223517 3.637857941620996  8.787171507784793 3.8150590159227 3.586636354598007  8.762273762901915 3.825185344661968 3.730576406756405  8.646770006396023 3.849861090051864 3.665334656727977  8.784572750769483 3.874499469085732 3.609501065423363  8.759004420881773 3.883812837929738 3.760690491040727  8.645934523379527 3.909033462922631 3.692846838781268  8.781995826586932 3.934074158555823 3.632392358239761  8.75567081591549 3.942537541486445 3.790745651090375  8.6450503800005 3.968396397900934 3.720303721661851  8.779361369686253 3.993824165368165 3.655209844140292  8.752145149065868 4.001352442682048 3.82066697091783  8.644018039044875 4.028006387372064 3.747621345754881  8.776556969528061 4.053774785769324 3.677840915060511  8.192452217606577 3.619956645927086 3.738570748849374  8.202833154207765 3.676026534712004 3.780728377804022  8.2131280938814 3.731965290572147 3.823087415838177  8.223404291215315 3.787899927998474 3.865529845486331  8.233734027858612 3.843899377123442 3.908008341188749  8.244190900812288 3.900034813009527 3.950495465243272  8.254813307308691 3.956398424076886 3.992953939653114  8.704216122225265 3.7139097771242 3.47690925955811  8.702904048026133 3.772792182075671 3.496871773958057  8.701752446665697 3.831796050183871 3.51714259596698  8.700691789023731 3.890957588251408 3.537560992726517  8.699660935229529 3.950308680867158 3.558008931715351  8.698591949943504 4.009886358890847 3.57837856155736  8.697421595166396 4.069721622432352 3.598557352382036  8.703504692983365 3.926478746397023 2.737216955425222  8.60492256597805 3.950696752948628 2.643635325104742  8.54741901508455 3.907162251800965 2.767589484694996  8.545346445110837 3.958421845110029 2.783376802012124  8.645507321494515 3.890054223807828 2.833896071609368  8.642897982633635 3.940682711941303 2.850276829734281  8.699752227741014 3.97686158163255 2.754762765166923  8.543358656859057 4.009931871893698 2.799130168393453  8.696094698030722 4.027489880064721 2.772246150982338  8.640374889413634 3.991607245492688 2.866683445457233  8.541414152917351 4.061720881216752 2.814926857845337  8.692463804676892 4.0783557654534 2.78976822223495  8.637882360016977 4.042779658946714 2.883131168861514  8.539464611417213 4.113783656772204 2.830831514211695  8.688817074205929 4.129450454608144 2.80739173885484  8.63539258684435 4.094221648588507 2.899664910417975  8.53746454070972 4.16613529995451 2.846899418579576  8.685103283464601 4.180772894767726 2.825191372646821  8.632861842035695 4.145967448748226 2.916340125174083  8.535363461800378 4.218779369874963 2.863197715476147  8.681273381289442 4.232320240054051 2.84328382523663  8.630219968111104 4.198101586165339 2.933269123136095  8.250236339754766 3.842448553084338 3.098512530096466  8.201854686704827 3.865531508799678 3.010230893182188  8.156792330062045 3.852510585632493 3.141619658163875  8.170038410439728 3.90976613473241 3.15200621492904  8.211085970337809 3.921022791536321 3.019991851769271  8.258965938832581 3.898370741094769 3.110017756952692  8.183148041244173 3.967278400747528 3.162643882038809  8.220211746683251 3.976767914619356 3.029942466370115  8.267607386536083 3.954556370766664 3.121742910132826  8.196331787259741 4.025097028581134 3.173354731592234  8.229388138603584 4.03280911240632 3.039972704457743  8.276325695511034 4.011030161651362 3.133528481548479  8.209676956327613 4.083213922305274 3.184054200681956  8.238713994576999 4.089164436180187 3.049999900466438  8.285203937457544 4.067822149602925 3.145303063118238  8.223306777504424 4.141639186773681 3.194668780525185  8.248289380775345 4.145865983545948 3.0599759540262  8.294343260168596 4.124967891518275 3.156999318845513  8.237443383260455 4.200349874887842 3.205076254559073  8.258262983508299 4.202987418994402 3.069818734707637  8.303866701237535 4.182608057225996 3.168574193183616  8.074454912253051 3.669681685058384 3.696799090824312  8.090162004287937 3.726703573630894 3.736932750052444  8.105678957843793 3.783661350281219 3.777259207558901  8.121134749618372 3.840614196370445 3.817691409274783  8.136634098866072 3.897604347296144 3.858154173037596  8.152325059141107 3.954653477305579 3.898575302310462  8.168404468128054 4.011872412753982 3.938950710960126  8.910680143292728 4.003566914142301 2.887523943345037  8.841212600020709 4.024305650680372 2.812261683004634  8.828488394984484 3.97702182795335 2.949809705238122  8.824858430285433 4.027933460796423 2.966012486417316  8.836894168489238 4.074569616046895 2.829906045595228  8.906236428437648 4.05380924853706 2.904661833501768  8.821222460450592 4.07908275470528 2.982288292506203  7.696637833463237 3.58797579244999 3.928827920415707  7.600270052275697 3.656449709165809 3.912206073106202  7.5955181378793 3.519693364885948 3.991503952125342  7.609801583245891 3.558408344535963 4.063241010711498  7.617670899451728 3.702731448321519 3.978279596747921  7.715371431676097 3.631306808415239 3.99445417997874  7.623909632085968 3.597165589887594 4.134755998232959  7.634821283754537 3.749000256460604 4.044160828373501  7.733834233940748 3.674616759729985 4.059919532550715  7.637898828103211 3.635884466910948 4.206120218788363  7.651827086105054 3.795207969643366 4.109908700464954  7.75216503322589 3.717873412645493 4.12528528721116  7.65183215422291 3.674516720745163 4.277377795915704  7.66877906673024 3.841315314925549 4.175552540233934  7.770461978232357 3.761048234921056 4.190566079412835  7.665769795886464 3.713013583158848 4.348549042032994  7.685746252556046 3.887275788283878 4.241105613850403  7.788804900690673 3.804098600603735 4.255750718928998  7.679766789647603 3.751316369826086 4.419649971059738  7.702788468015281 3.933057343684257 4.306570085439663  7.807239112727936 3.846956217341532 4.320810019059087  8.48481103148543 3.942604840100119 2.63608222708574  8.482024718052601 3.99457778539741 2.65099067645131  8.076357174882535 3.887786713823428 3.048361430753219  8.090186724526438 3.944884969503273 3.056655475797461  8.103876002510457 4.002334496219481 3.065198703935767  8.117617199347418 4.06005459451498 3.073808239872693  8.131532306653339 4.118065896138431 3.082391088707706  8.14575624751002 4.176389131965327 3.090872361238358  8.160486813763159 4.23502359315848 3.099157185982016  9.003056694475823 3.569947517023636 3.791386873810843  8.974074714784079 3.63017503845702 3.693390042021607  8.885083600362723 3.563630430213043 3.795366095478767  8.882681370729099 3.616719741218734 3.839688836318679  7.514149997505439 3.599049121657181 3.961435156667186  7.526445183976521 3.641079707947856 4.032853261494252  7.538573387581202 3.683097454646024 4.103971341937702  7.55056866606816 3.725069809670131 4.174915707657866  7.562492664851017 3.766945686151708 4.245736956131633  7.5
[...]
<PointData  Scalars="f_14"> 
<DataArray  type="Float64"  Name="f_14"  format="ascii">-7.5695629885025441e-14  -7.7856475516424667e-14  -7.7045883706653925e-14  1.7559483707717069e-01  1.7925800527440017e-01  1.7536355637057721e-01  3.4473761362956307e-01  3.4861510321952133e-01  3.4700807450214483e-01  5.1127855062428984e-01  5.1495747097735745e-01  5.1399733163784900e-01  6.7591963585951331e-01  6.7942182821684749e-01  6.7765427178238147e-01  8.4261684560930927e-01  8.3955225694226354e-01  8.3936851179821081e-01  1.0000000000001581e+00  1.0000000000001557e+00  1.0000000000001568e+00  -7.4891861412027033e-14  -7.7250488310167852e-14  -7.6416555667120015e-14  1.5544276935428800e-01  -7.9410394489384344e-14  1.6789768172254532e-01  3.3698388057001960e-01  5.0331997620570790e-01  6.6692496829764003e-01  8.2956868130958483e-01  1.0000000000001541e+00  -6.1619424430645652e-14  -6.0225138454904546e-14  -6.3540085283716163e-14  1.5235689885828851e-01  1.5439978617438893e-01  1.5484630196624921e-01  3.1022184301669303e-01  3.1339573408641103e-01  3.1470087768666755e-01  4.7284600442046509e-01  4.7659053698242643e-01  4.7840719609138538e-01  6.4072528100876203e-01  6.4449055028244873e-01  6.4618490131506567e-01  8.1509838152366887e-01  -6.5342505714023955e-14  -6.8721633122604092e-14  -6.6146033272323319e-14  1.8576107417180743e-01  1.8152657069549388e-01  1.8421846984413523e-01  3.6437760873331559e-01  3.5544963102873645e-01  3.5917657919603890e-01  5.3424698002034421e-01  5.2395438879672274e-01  5.2829238752819763e-01  6.9605602181244330e-01  6.8754310635847915e-01  6.9212524222684757e-01  8.5064374872386894e-01  8.4644937435163026e-01  8.5060231443714318e-01  1.0000000000001676e+00  1.0000000000001652e+00  1.0000000000001685e+00  -7.8944916400596910e-14  1.8823070168043557e-01  3.6273215399221836e-01  5.3022081075716432e-01  6.9279340500070097e-01  8.5086553814985844e-01  1.0000000000001548e+00  -6.7143518190284953e-14  1.7202199914756136e-01  3.4261912853780901e-01  5.1055703789074203e-01  6.7597828065038379e-01  8.3902255802663328e-01  1.0000000000001668e+00  -6.4859152980118189e-14  -6.6787845836345928e-14  -6.8419766700298437e-14  1.5525535154595158e-01  -6.6460982363344778e-14  1.5251618690514282e-01  1.5694872258919254e-01  3.1411876289429586e-01  3.1756920193827798e-01  3.1035269575633190e-01  4.7730264701923419e-01  4.8157676891018947e-01  4.7291754600542124e-01  6.4545456635146548e-01  6.4940096610376596e-01  6.4086752928492474e-01  8.1935126233468070e-01  8.2170454132413029e-01  8.1537590207900279e-01  1.0000000000001656e+00  1.0000000000001692e+00  1.0000000000001674e+00  -7.5589482928845032e-14  -7.6322770931811655e-14  -7.7589005222752657e-14  1.5543360866494282e-01  1.4869471577937124e-01  1.5319302701675552e-01  3.1522039322182638e-01  3.0498014120223271e-01  3.1070984197356238e-01  4.7915124363329414e-01  4.6699838373533509e-01  4.7312868946706860e-01  6.4755946521607399e-01  6.3518258623709045e-01  6.4112427639595104e-01  8.2107823619321885e-01  8.1093985403228486e-01  8.1561838763720440e-01  1.0000000000001561e+00  1.0000000000001574e+00  1.0000000000001581e+00  -8.1080686915303150e-14  1.7061174172739421e-01  3.4174355016881425e-01  5.0892310755574710e-01  6.7217336000676098e-01  8.3325518632697071e-01  1.0000000000001525e+00  3.1396269363899432e-01  3.1630705848172214e-01  3.1251750430677305e-01  4.7536986849123630e-01  4.7996586095827209e-01  4.7732453689772369e-01  6.4328783672384293e-01  -8.9216760871549205e-14  -9.1002284519880323e-14  -9.1386361994665345e-14  2.0393114576596050e-01  2.1780039288230274e-01  2.0690254548291243e-01  3.9064480018630071e-01  4.0641181586815117e-01  3.9262356049429464e-01  5.6248568625174566e-01  5.7798545769046916e-01  5.6375758829952027e-01  7.2091883304141735e-01  7.3469025991787773e-01  7.2206436947937180e-01  8.6691237849862890e-01  8.7703411480042615e-01  8.6814939798852975e-01  1.0000000000001423e+00  1.0000000000001428e+00  1.0000000000001446e+00  -6.9393969243491227e-14  1.5534731037291213e-01  -7.8965994484617088e-14  1.5781100069939619e-01  3.1819701650429894e-01  4.8225486673646850e-01  6.5072541868629852e-01  8.2385915090190687e-01  1.0000000000001548e+00  -6.1157216970986861e-14  -6.1536721470399612e-14  -6.4000336547253050e-14  2.1571996286673895e-01  -9.2801063631648485e-14  2.0585206815489776e-01  3.9431469445837497e-01  5.6673989840745309e-01  7.2452337499536246e-01  8.6873806022756450e-01  1.0000000000001410e+00  -7.9758787862382416e-14  1.7457381518631057e-01  3.4514046398213571e-01  5.1258753513792754e-01  6.7764350008478769e-01  8.4031404662595355e-01  1.0000000000001541e+00  -6.1664566227697680e-14  -6.4260808873090527e-14  -6.2435852360288703e-14  1.5311635852612990e-01  1.5617394089983769e-01  1.5415783434345798e-01  3.1143895047936015e-01  4.7426493728850472e-01  6.4216801315221939e-01  6.4754872656675966e-01  8.1735089582971565e-01  8.1624276341026369e-01  8.1992673234982738e-01  1.0000000000001716e+00  1.0000000000001696e+00  1.0000000000001723e+00  -6.4335747522369172e-14  2.0006901292270221e-01  1.9517657234595229e-01  3.8339785452474062e-01  -8.1150158453289469e-14  1.7884921979768528e-01  3.5063748736604516e-01  5.1794826653181780e-01  6.8170384401563056e-01  8.4348019000097252e-01  1.0000000000001528e+00  -7.0146707432415079e-14  -7.2258336025816915e-14  -7.1495840900769587e-14  1.6130679462122852e-01  1.6328856166333541e-01  1.6227852305242976e-01  3.2627331402818527e-01  3.2562527315377293e-01  3.2575206278805680e-01  4.9198272749134148e-01  4.9030780077984903e-01  4.9105320130470109e-01  6.5844205970324610e-01  6.5804473080591108e-01  6.5840852033255581e-01  8.2651539018294062e-01  8.2914159587784142e-01  8.2820842616108714e-01  1.0000000000001623e+00  1.0000000000001614e+00  1.0000000000001636e+00  -6.5545713384845569e-14  1.5148190068423140e-01  3.0850806813138548e-01  4.7088645976914617e-01  6.3923045231399134e-01  8.1482026799590856e-01  1.0000000000001683e+00  -8.2824147923251412e-14  1.7615633087074070e-01  3.5012042658670656e-01  5.1855378667073415e-01  6.8186894586972135e-01  8.4116059049905345e-01  1.0000000000001510e+00  -7.3867379787178615e-14  1.6104351895881183e-01  3.2451046645911369e-01  4.8948829650496334e-01  6.5615319269277228e-01  8.2524108904916160e-01  1.0000000000001599e+00  -9.2419746352688434e-14  2.1535697699708384e-01  4.0646615682479326e-01  5.7884947455494051e-01  7.3479857688261729e-01  8.7559155529604904e-01  1.0000000000001414e+00  3.2350116420136227e-01  4.8843579475469162e-01  6.5550707493264671e-01  8.2527514187319295e-01  1.0000000000001721e+00  -8.3148994600878983e-14  1.8156124282255937e-01  3.5690426934149494e-01  5.2542291003191599e-01  6.8807175250240127e-01  8.4611004417141666e-01  1.0000000000001508e+00  -8.0410170634777024e-14  1.5854506454433209e-01  3.2064964853887562e-01  4.8539979249360149e-01  6.5274942505516831e-01  8.2314667718760426e-01  1.0000000000001532e+00  -7.4198666241237201e-14  1.5555115411899650e-01  3.1526898030896605e-01  4.7866596629194819e-01  6.4612890229538755e-01  8.1882856923302205e-01  1.0000000000001594e+00  -7.9279892854428535e-14  1.6222832792201472e-01  3.2579074483918535e-01  4.9117242631158037e-01  6.5868189269993926e-01  8.2831736467030381e-01  1.0000000000001543e+00  -7.4773619000722121e-14  -7.5906761668182628e-14  -7.7692249807304410e-14  1.8455634796460349e-01  1.8467926259783574e-01  1.8590048078074481e-01  3.6327588809640210e-01  3.5948614969229631e-01  3.6046208894511622e-01  5.3200061621907024e-01  5.2739785274953754e-01  5.2836251568182147e-01  6.9334112089441879e-01  6.8974489568631459e-01  6.8988053747896017e-01  8.4863418841857430e-01  8.4715866848231891e-01  8.4655016634691271e-01  1.0000000000001590e+00  1.0000000000001579e+00  1.0000000000001561e+00  -9.4277984914187692e-14  2.1345934783350159e-01  4.0362504194794985e-01  5.7592772808839243e-01  -8.0869834934259966e-14  1.6719103436226807e-01  3.3407146325673287e-01  5.0086094751021093e-01  6.6756400894294032e-01  8.3395628100314534e-01  1.0000000000001528e+00  -7.0243931607871492e-14  -7.3506340424036273e-14  -7.1929776541392455e-14  1.7462173466133413e-01  1.7040680384100210e-01  1.7680682394265013e-01  3.4626936996468277e-01  3.3851519227555887e-01  3.4709709714201015e-01  5.1390209348999694e-01  5.0497698690374071e-01  5.1464582433722017e-01  6.7798272694665818e-01  6.7024429355045256e-01  6.8010262567347091e-01  8.3933484418042503e-01  8.3486738615817979e-01  8.4328648451403465e-01  1.0000000000001619e+00  1.0000000000001603e+00  1.0000000000001636e+00  -8.4723529746969898e-14  2.0037907564080865e-01  3.7960494092550501e-01  5.4931783746053564e-01  7.1103526948035756e-01  8.6457638905435985e-01  1.0000000000001492e+00  1.9634872644970777e-01  3.7431418413644912e-01  5.4246324701428816e-01  7.0291339297162969e-01  8.5654077176446075e-01  1.0000000000001570e+00  -7.0795295882821364e-14  -6.8454620623770294e-14  1.8626731814812897e-01  1.8238913625959707e-01  3.6444127082049310e-01  3.5832759873565440e-01  5.3413650249706035e-01  5.2710805063295829e-01  6.9631421629015189e-01  6.8968447842420144e-01  8.5179732114176798e-01  8.4697360285243006e-01  1.0000000000001654e+00  1.0000000000001630e+00  -8.2509073484588649e-14  1.9746330838529375e-01  3.7380047784462783e-01  5.4260995950898772e-01  7.0544405417196654e-01  8.6143514521223896e-01  1.0000000000001510e+00  -8.4285854032368429e-14  1.8672387257919626e-01  3.6543632418691641e-01  5.3539103644382324e-01  6.9751894005661852e-01  8.5240033381680835e-01  1.0000000000001494e+00  -6.8759227191042872e-14  1.6502597059369209e-01  3.3134232499671312e-01  4.9770603939406005e-01  6.6401635667012571e-01  8.3068462529060860e-01  1.0000000000001652e+00  -6.9642490897281178e-14  2.0068912648115336e-01  3.8048616464259916e-01  5.4981414128961015e-01  7.1023822309228246e-01  8.6250968170965547e-01  1.0000000000001641e+00  -7.5766556513118580e-14  1.6260357167537867e-01  3.2534930425162084e-01  4.9015640891813245e-01  6.5738216201886868e-01  8.2761827703623481e-01  1.0000000000001579e+00  -7.8055653563657340e-14  -8.0274948485206167e-14  1.5954743132301011e-01  1.5178820754228506e-01  3.1945659970090040e-01  3.0939543582966522e-01  4.8318190640643061e-01  4.7213803360682999e-01  6.5196838540762059e-01  6.4066226439745433e-01  8.2594536063451907e-01  8.1598900227875604e-01  1.0000000000001534e+00  1.0000000000001557e+00  -8.2417116696011301e-14  1.6471484829753361e-01  3.3107574235948101e-01  4.9801623230515157e-01  6.6520369895657261e-01  8.3261681280715882e-01  1.0000000000001512e+00  -8.7173612178780470e-14  -8.7727441554526147e-14  2.0125797096737183e-01  2.0230456406674327e-01  3.8521243874330452e-01  3.8499913917360451e-01  5.5620544264784011e-01  5.5546392193229133e-01  7.1573005881938445e-01  7.1541529829211059e-01  8.6455068576084149e-01  8.6507670245364632e-01  1.0000000000001461e+00  1.0000000000001468e+00  -8.1362575274763147e-14  1.7184563564393052e-01  3.4333354511249292e-01  5.1159557761663854e-01  6.7704993138211644e-01  8.3982183960528800e-01  1.0000000000001523e+00  -8.2877563402474599e-14  1.8020574776604786e-01  3.5269432787888810e-01  5.2146869209562952e-01  6.8673707912701010e-01  8.4804802043113547e-01  1.0000000000001508e+00  -6.6311324092287523e-14  -6.5842935221098964e-14  -6.8122378345970291e-14  1.6072074464619809e-01  1.5848577377608078e-01  1.7094367700834531e-01  3.2362619310857066e-01  3.2048827232384453e-01  3.3810423097579373e-01  4.8868477687744233e-01  4.8531975208854528e-01  5.0488596383188300e-01  6.5612406698840831e-01  6.5321044439991183e-01  6.7172741622817211e-01  8.2615853470178835e-01  8.2455213094299162e-01  8.3834706385554336e-01  1.0000000000001656e+00  1.0000000000001681e+00  1.0000000000001676e+00  1.0000000000001705e+00  -8.9147619630090200e-14  1.9797237829046538e-01  3.8235587988024483e-01  5.5348860686921453e-01  7.1269040878649192e-01  8.6109736610756349e-01  1.0000000000001446e+00  -7.9297461230961986e-14  1.6902137555044586e-01  3.3595078168149162e-01  5.0254577755769636e-01  6.6912866724046782e-01  8.3598400152287733e-01  1.0000000000001543e+00  -8.6223119953900790e-14  1.9508316904569761e-01  3.7833448625651989e-01  5.4937203104210641e-01  7.0958674491559026e-01  8.5932218395894389e-01  1.0000000000001477e+00  5.3040385733706208e-01  5.6604000990870706e-01  5.5962962213559597e-01  3.9532668681757271e-01  6.9330391927824764e-01  7.2645578682563428e-01  7.1937061046057538e-01  8.4909717626956582e-01  8.7618151876257377e-01  8.6686392628430609e-01  1.0000000000001483e+00  1.0000000000001481e+00  1.0000000000001465e+00  -6.2194941654871856e-14  -6.1838541517651405e-14  -6.3990170656343451e-14  1.6475502330069369e-01  1.6261131200814871e-01  1.7474308313573919e-01  3.3007381250778001e-01  3.2679657181957628e-01  3.4446366102072457e-01  4.9613628469652182e-01  4.9250876318400988e-01  5.1212659029565688e-01  6.6301344694831033e-01  6.5992791006674945e-01  6.7801436691908146e-01  8.3060261428780691e-01  -7.4060022564941637e-14  -7.3966853414136417e-14  1.5229612856830096e-01  1.5498818487844632e-01  3.0858648013703066e-01  3.1286755912320652e-01  4.7058022366888430e-01  4.7556188034318636e-01  6.3939343431162843e-01  6.4392253433555557e-01  8.1619692529921217e-01  8.1896900432547537e-01  1.0000000000001599e+00  1.0000000000001597e+00  4.8886815140654905e-01  6.5652858841156758e-01  8.2764771216205679e-01  1.0000000000001525e+00  -6.3714482399386343e-14  1.5586079828366736e-01  3.1601570206492091e-01  4.7987299233692116e-01  6.4767183212167023e-01  8.2018410221930482e-01  -7.5750628257068810e-14  -7.7450098589049085e-14  1.6565289495812593e-01  1.4952440585735216e-01  3.2901883314441699e-01  3.0801536519463962e-01  4.9436294717665241e-01  4.7092885740659046e-01  6.6228023518300372e-01  6.3843758671750006e-01  8.3267839053446946e-01  8.1194777252575190e-01  1.0000000000001563e+00  1.0000000000001579e+00  -6.5688542813416333e-14  -6.7814107338805601e-14  1.4886494164623920e-01  1.5309919013342496e-01  3.0468461835325072e-01  3.1134257216960559e-01  4.6649896695093490e-01  4.7440922656682433e-01  6.3468042719450124e-01  6.4270660154511594e-01  8.1067574189416713e-01  8.1716413203179117e-01  1.0000000000001661e+00  1.0000000000001683e+00  -6.7792191592140147e-14  -6.9844523574586273e-14  1.5280747945391052e-01  1.5395600027381018e-01  3.1281498787068307e-01  3.1014631933259207e-01  4.7610992883580994e-01  4.7283085855458051e-01  6.4424772335962199e-01  6.4157720463125123e-01  8.1804321153928294e-01  8.1735027676863692e-01  1.0000000000001661e+00  1.0000000000001641e+00  -7.1906468305648940e-14  -7.2028558817411729e-14  1.4369097174916154e-01  1.4604160578736972e-01  2.9709260992065234e-01  3.0094801047699821e-01  4.5754445691842399e-01  4.6232449949894117e-01  6.2545170506149850e-01  6.3058145158042889e-01  8.0300925350764718e-01  8.0733912704484001e-01  1.0000000000001619e+00  1.0000000000001619e+00  -6.9906463580155738e-14  -7.0223215501396089e-14  1.5301363640757165e-01  1.4883252781572223e-01  3.0944451470369361e-01  3.0399637868088075e-01  4.7132722538254246e-01  4.6544385520897918e-01  6.3972144139533504e-01  6.3395311060358150e-01  8.1585454763181176e-01  8.1115578780227904e-01  1.0000000000001636e+00  1.0000000000001639e+00  -7.2074344677141026e-14  1.8607110865372453e-01  3.6491841348619503e-01  5.3433952407549024e-01  6.9544658168893247e-01  8.4949508479561986e-01  1.0000000000001616e+00  -8.5725732724474523e-14  2.1204985836134460e-01  -9.3736120447922244e-14  2.1689088595167863e-01  4.1042638958887667e-01  5.8297123645780868e-01  7.3768711603595682e-01  5.6612224232569852e-01  7.2415403811104695e-01  8.6924850948888288e-01  1.0000000000001461e+00  -6.8037132989863287e-14  1.4818217538890552e-01  3.0411591915678038e-01  4.6579150628991162e-01  6.3389436727403892e-01  8.1004682287964191e-01  1.0000000000001659e+00  -7.7609100996708204e-14  1.6295276644956866e-01  3.2877761497636881e-01  4.9454978934541410e-01  6.6059427464077414e-01  8.2772017487599936e-01  1.0000000000001561e+00  -7.4150382233192268e-14  -7.4659996853050739e-14  -7.6385821208977791e-14  1.4999040732739599e-01  1.5515765993017538e-01  1.4800062805601585e-01  3.0605441382900594e-01  3.1243030944073097e-01  3.0272870094975879e-01  4.6776488667426502e-01  4.7461505059834530e-01  4.6373965611229756e-01  6.3583904115517775e-01  6.4312869370657533e-01  6.3191014222068131e-01  8.1168199497234561e-01  8.1916347001132339e-01  8.0909373391750306e-01  1.0000000000001574e+00  1.0000000000001592e+00  1.0000000000001597e+00  -6.0732941215040559e-14  -6.3304714997646250e-14  1.9988146805706547e-01  1.9492152718048297e-01  3.8000498359492846e-01  -8.5617269129874650e-14  -8.6909180026854139e-14  2.0221433863710628e-01  1.9057010841726338e-01  3.8612565060949683e-01  3.7058062158708266e-01  5.5680690423319823e-01  5.4052438153839322e-01  7.1617803730904983e-01  7.0173683846353452e-01  8.6478515719691673e-01  8.5491583147573702e-01  1.0000000000001470e+00  1.0000000000001483e+00  -6.4617067119057423e-14  1.7010249259011465e-01  3.3968715676868017e-01  5.0724918846897638e-01  6.7261897558272055e-01  8.3609803423750662e-01  8.4182229413633070e-01  1.0000000000001694e+00  -8.4514250696183598e-14  3.5710784601927520e-01  5.2633442050223855e-01  6.9134993006104473e-01  8.5115747491476090e-01  1.0000000000001492e+00  -7.2475604374079779e-14  -7.3285726755544175e-14  1.5035598156214700e-01  1.4569194983057721e-01  3.0726241212255045e-01  3.0034913505701449e-01  4.6910798809634219e-01  4.6122759363224192e-01  6.3660995461573799e-01  6.2891608659108611e-01  8.1126969181157182e-01  8.0543344168119624e-01  1.0000000000001605e+00  1.0000000000001614e+00  -8.3957041103113005e-14  -8.5343155649441553e-14  1.8269803471318002e-01  1.8221244888645324e-01  3.6007162656978886e-01  3.5995578960452046e-01  5.2984167477676725e-01  6.9289150065363281e-01  8.4904676670227130e-01  1.0000000000001497e+00  -8.8971084192979566e-14  2.0136204868928437e-01  3.8804890372642009e-01  5.5967355622878556e-01  7.1790851523827603e-01  8.6396703113703222e-01  1.0000000000001448e+00  -9.0448449188434236e-14  -9.1788201770206624e-14  2.3068002041228888e-01  2.1054836798420778e-01  4.2340579698048703e-01  4.0063558316434600e-01  5.9532057796133397e-01  5.7288399771375420e-01  7.4948217806983364e-01  7.2948227651531083e-01  8.8685602574913980e-01  8.7172758091732505e-01  1.0000000000001421e+00  1.0000000000001434e+00  8.7640901629400059e-01  1.0000000000001403e+00  -8.7669663855624600e-14  2.0692938630056637e-01  3.9449674400542589e-01  -8.8059037781106689e-14  1.9510582464573215e-01  3.7804984403310316e-01  5.4882335728649934e-01  7.0870432121062776e-01  8.5860959005120996e-01  1.0000000000001457e+00  -8.8384349135715167e-14  2.1606874579754567e-01  4.0324253724418546e-01  5.7430227669871770e-01  7.3141969293057130e-01  8.7512786340541660e-01  1.0000000000001454e+00  -8.4644624988338465e-14  1.8842773962345274e-01  3.6600945085890474e-01  5.3546248001904362e-01  6.9770199299838953e-01  8.5394926349163303e-01  1.0000000000001492e+00  -6.9938901845071365e-14  1.5399889551676788e-01  3.1386950314032147e-01  4.7773199816647521e-01  6.4582664700152081e-01  8.1889122647959733e-01  1.0000000000001639e+00  -8.3660130127951253e-14  -8.5898199657198702e-14  1.9259162921341905e-01  1.9533055295329374e-01  3.7299388504828818e-01  3.7287637074462643e-01  5.4296791870805328e-01  5.4179829883574815e-01  7.0387008570703880e-01  7.0371108954946815e-01  8.5627524776134434e-01  8.5927670198731254e-01  1.0000000000001479e+00  1.0000000000001501e+00  -8.9760444400625885e-14  2.1125686101254104e-01  4.0234704727344889e-01  5.7455191876907274e-01  7.3060223044423689e-01  8.7207005153738182e-01  1.0000000000001441e+00  -8.2618193073118946e-14  -8.4488232312350893e-14  1.7390821769319834e-01  1.8719941427538977e-01  3.4904167574270073e-01  3.6490510103266105e-01  5.1724371710667749e-01  5.3430237644704837e-01  6.7896124263558566e-01  6.9641954061038691e-01  8.3573584099923226e-01  8.5253446567022706e-01  1.000000000000