<?xml version="1.0"?>
<VTKFile type="UnstructuredGrid"  version="0.1"  >
<UnstructuredGrid>
<Piece  NumberOfPoints="395" NumberOfCells="1500">
<Points>
<DataArray  type="Float64"  NumberOfComponents="3"  format="ascii">0 0 0.3  0 0 0.4  1 0 0.4  1 0.5 0.4  0 0.5 0.4  1 0.5 0.5  1 0 0.5  0 0 0.5  0 0.5 0.5  2 0 0.4  2 0.5 0.4  2 0.5 0.5  2 0 0.5  3 0 0.4  3 0.5 0.4  3 0.5 0.5  3 0 0.5  4 0 0.4  4 0.5 0.4  4 0.5 0.5  4 0 0.5  5 0 0.4  5 0.5 0.4  5 0.5 0.5  5 0 0.5  1 1 0.4  1 1 0.5  0 1 0.4  0 1 0.5  2 1 0.4  2 1 0.5  3 1 0.4  3 1 0.5  4 1 0.4  4 1 0.5  5 1 0.4  5 1 0.5  1 1.5 0.4  1 1.5 0.5  0 1.5 0.4  0 1.5 0.5  2 1.5 0.4  2 1.5 0.5  3 1.5 0.4  3 1.5 0.5  4 1.5 0.4  4 1.5 0.5  5 1.5 0.4  5 1.5 0.5  1 2 0.4  1 2 0.5  0 2 0.4  0 2 0.5  2 2 0.4  2 2 0.5  3 2 0.4  3 2 0.5  4 2 0.4  4 2 0.5  5 2 0.4  5 2 0.5  1 2.5 0.5  0 2.5 0.5  0 2.5 0.4  2 2.5 0.5  3 2.5 0.5  4 2.5 0.5  5 2.5 0.5  1 3 0.5  0 3 0.5  1 0.5 0.6  1 0 0.6  0 0 0.6  0 0.5 0.6  2 0.5 0.6  2 0 0.6  3 0.5 0.6  3 0 0.6  4 0.5 0.6  4 0 0.6  5 0.5 0.6  5 0 0.6  1 1 0.6  0 1 0.6  2 1 0.6  3 1 0.6  4 1 0.6  5 1 0.6  1 1.5 0.6  0 1.5 0.6  2 1.5 0.6  3 1.5 0.6  4 1.5 0.6  5 1.5 0.6  1 2 0.6  0 2 0.6  2 2 0.6  3 2 0.6  4 2 0.6  5 2 0.6  1 2.5 0.6  0 2.5 0.6  2 2.5 0.6  3 2.5 0.6  4 2.5 0.6  5 2.5 0.6  1 3 0.6  0 3 0.6  2 3 0.6  3 3 0.6  4 3 0.6  5 3 0.6  1 3.5 0.6  0 3.5 0.6  2 3.5 0.6  1 0.5 0.7  1 0 0.7  0 0 0.7  0 0.5 0.7  2 0.5 0.7  2 0 0.7  3 0.5 0.7  3 0 0.7  4 0.5 0.7  4 0 0.7  5 0.5 0.7  5 0 0.7  1 1 0.7  0 1 0.7  2 1 0.7  3 1 0.7  4 1 0.7  5 1 0.7  1 1.5 0.7  0 1.5 0.7  2 1.5 0.7  3 1.5 0.7  4 1.5 0.7  5 1.5 0.7  1 2 0.7  0 2 0.7  2 2 0.7  3 2 0.7  4 2 0.7  5 2 0.7  1 2.5 0.7  0 2.5 0.7  2 2.5 0.7  3 2.5 0.7  4 2.5 0.7  5 2.5 0.7  1 3 0.7  0 3 0.7  2 3 0.7  3 3 0.7  4 3 0.7  5 3 0.7  1 3.5 0.7  0 3.5 0.7  2 3.5 0.7  3 3.5 0.6  3 3.5 0.7  4 3.5 0.6  4 3.5 0.7  5 3.5 0.6  5 3.5 0.7  1 4 0.6  1 4 0.7  0 4 0.6  0 4 0.7  2 4 0.6  2 4 0.7  3 4 0.6  3 4 0.7  4 4 0.6  4 4 0.7  5 4 0.6  5 4 0.7  1 4.5 0.6  1 4.5 0.7  0 4.5 0.6  0 4.5 0.7  2 4.5 0.6  2 4.5 0.7  3 4.5 0.6  3 4.5 0.7  4 4.5 0.6  4 4.5 0.7  5 4.5 0.7  1 5 0.6  1 5 0.7  0 5 0.6  0 5 0.7  2 5 0.7  3 5 0.7  4 5 0.7  5 5 0.7  1 0.5 0.8  1 0 0.8  0 0 0.8  0 0.5 0.8  2 0.5 0.8  2 0 0.8  3 0.5 0.8  3 0 0.8  4 0.5 0.8  4 0 0.8  5 0.5 0.8  5 0 0.8  1 1 0.8  0 1 0.8  2 1 0.8  3 1 0.8  4 1 0.8  5 1 0.8  1 1.5 0.8  0 1.5 0.8  2 1.5 0.8  3 1.5 0.8  4 1.5 0.8  5 1.5 0.8  1 2 0.8  0 2 0.8  2 2 0.8  3 2 0.8  4 2 0.8  5 2 0.8  1 2.5 0.8  0 2.5 0.8  2 2.5 0.8  3 2.5 0.8  4 2.5 0.8  5 2.5 0.8  1 3 0.8  0 3 0.8  2 3 0.8  3 3 0.8  4 3 0.8  5 3 0.8  1 3.5 0.8  0 3.5 0.8  2 3.5 0.8  3 3.5 0.8  4 3.5 0.8  5 3.5 0.8  1 4 0.8  0 4 0.8  2 4 0.8  3 4 0.8  4 4 0.8  5 4 0.8  1 4.5 0.8  0 4.5 0.8  2 4.5 0.8  3 4.5 0.8  4 4.5 0.8  5 4.5 0.8  1 5 0.8  0 5 0.8  2 5 0.8  3 5 0.8  4 5 0.8  5 5 0.8  1 0.5 0.9  1 0 0.9  0 0 0.9  0 0.5 0.9  2 0.5 0.9  2 0 0.9  3 0.5 0.9  3 0 0.9  4 0.5 0.9  4 0 0.9  5 0.5 0.9  5 0 0.9  1 1 0.9  0 1 0.9  2 1 0.9  3 1 0.9  4 1 0.9  5 1 0.9  1 1.5 0.9  0 1.5 0.9  2 1.5 0.9  3 1.5 0.9  4 1.5 0.9  5 1.5 0.9  1 2 0.9  0 2 0.9  2 2 0.9  3 2 0.9  4 2 0.9  5 2 0.9  1 2.5 0.9  0 2.5 0.9  2 2.5 0.9  3 2.5 0.9  4 2.5 0.9  5 2.5 0.9  1 3 0.9  0 3 0.9  2 3 0.9  3 3 0.9  4 3 0.9  5 3 0.9  1 3.5 0.9  0 3.5 0.9  2 3.5 0.9  3 3.5 0.9  4 3.5 0.9  5 3.5 0.9  1 4 0.9  0 4 0.9  2 4 0.9  3 4 0.9  4 4 0.9  5 4 0.9  1 4.5 0.9  0 4.5 0.9  2 4.5 0.9  3 4.5 0.9  4 4.5 0.9  5 4.5 0.9  1 5 0.9  0 5 0.9  2 5 0.9  3 5 0.9  4 5 0.9  5 5 0.9  1 0.5 1  1 0 1  0 0 1  0 0.5 1  2 0.5 1  2 0 1  3 0.5 1  3 0 1  4 0.5 1  4 0 1  5 0.5 1  5 0 1  1 1 1  0 1 1  2 1 1  3 1 1  4 1 1  5 1 1  1 1.5 1  0 1.5 1  2 1.5 1  3 1.5 1  4 1.5 1  5 1.5 1  1 2 1  0 2 1  2 2 1  3 2 1  4 2 1  5 2 1  1 2.5 1  0 2.5 1  2 2.5 1  3 2.5 1  4 2.5 1  5 2.5 1  1 3 1  0 3 1  2 3 1  3 3 1  4 3 1  5 3 1  1 3.5 1  0 3.5 1  2 3.5 1  3 3.5 1  4 3.5 1  5 3.5 1  1 4 1  0 4 1  2 4 1  3 4 1  4 4 1  5 4 1  1 4.5 1  0 4.5 1  2 4.5 1  3 4.5 1  4 4.5 1  5 4.5 1  1 5 1  0 5 1  2 5 1  3 5 1  4 5 1  5 5 1  </DataArray>
</Points>
<Cells>
<DataArray  type="UInt32"  Name="connectivity"  format="ascii">0 1 2 3  0 1 4 3  1 2 3 5  1 2 6 5  1 7 6 5  1 4 3 5  1 7 8 5  1 4 8 5  2 9 10 11  2 9 12 11  2 6 12 11  2 3 10 11  2 6 5 11  2 3 5 11  9 13 14 15  9 13 16 15  9 12 16 15  9 10 14 15  9 12 11 15  9 10 11 15  13 17 18 19  13 17 20 19  13 16 20 19  13 14 18 19  13 16 15 19  13 14 15 19  17 21 22 23  17 21 24 23  17 20 24 23  17 18 22 23  17 20 19 23  17 18 19 23  4 3 25 26  4 3 5 26  4 8 5 26  4 27 25 26  4 8 28 26  4 27 28 26  3 10 29 30  3 10 11 30  3 5 11 30  3 25 29 30  3 5 26 30  3 25 26 30  10 14 31 32  10 14 15 32  10 11 15 32  10 29 31 32  10 11 30 32  10 29 30 32  14 18 33 34  14 18 19 34  14 15 19 34  14 31 33 34  14 15 32 34  14 31 32 34  18 22 35 36  18 22 23 36  18 19 23 36  18 33 35 36  18 19 34 36  18 33 34 36  27 25 37 38  27 25 26 38  27 28 26 38  27 39 37 38  27 28 40 38  27 39 40 38  25 29 41 42  25 29 30 42  25 26 30 42  25 37 41 42  25 26 38 42  25 37 38 42  29 31 43 44  29 31 32 44  29 30 32 44  29 41 43 44  29 30 42 44  29 41 42 44  31 33 45 46  31 33 34 46  31 32 34 46  31 43 45 46  31 32 44 46  31 43 44 46  33 35 47 48  33 35 36 48  33 34 36 48  33 45 47 48  33 34 46 48  33 45 46 48  39 37 49 50  39 37 38 50  39 40 38 50  39 51 49 50  39 40 52 50  39 51 52 50  37 41 53 54  37 41 42 54  37 38 42 54  37 49 53 54  37 38 50 54  37 49 50 54  41 43 55 56  41 43 44 56  41 42 44 56  41 53 55 56  41 42 54 56  41 53 54 56  43 45 57 58  43 45 46 58  43 44 46 58  43 55 57 58  43 44 56 58  43 55 56 58  45 47 59 60  45 47 48 60  45 46 48 60  45 57 59 60  45 46 58 60  45 57 58 60  51 49 50 61  51 52 50 61  51 52 62 61  51 63 62 61  49 53 54 64  49 50 54 64  49 50 61 64  53 55 56 65  53 54 56 65  53 54 64 65  55 57 58 66  55 56 58 66  55 56 65 66  57 59 60 67  57 58 60 67  57 58 66 67  63 62 61 68  63 62 69 68  7 6 5 70  7 6 71 70  7 72 71 70  7 8 5 70  7 72 73 70  7 8 73 70  6 12 11 74  6 12 75 74  6 71 75 74  6 5 11 74  6 71 70 74  6 5 70 74  12 16 15 76  12 16 77 76  12 75 77 76  12 11 15 76  12 75 74 76  12 11 74 76  16 20 19 78  16 20 79 78  16 77 79 78  16 15 19 78  16 77 76 78  16 15 76 78  20 24 23 80  20 24 81 80  20 79 81 80  20 19 23 80  20 79 78 80  20 19 78 80  8 5 26 82  8 5 70 82  8 73 70 82  8 28 26 82  8 73 83 82  8 28 83 82  5 11 30 84  5 11 74 84  5 70 74 84  5 26 30 84  5 70 82 84  5 26 82 84  11 15 32 85  11 15 76 85  11 74 76 85  11 30 32 85  11 74 84 85  11 30 84 85  15 19 34 86  15 19 78 86  15 76 78 86  15 32 34 86  15 76 85 86  15 32 85 86  19 23 36 87  19 23 80 87  19 78 80 87  19 34 36 87  19 78 86 87  19 34 86 87  28 26 38 88  28 26 82 88  28 83 82 88  28 40 38 88  28 83 89 88  28 40 89 88  26 30 42 90  26 30 84 90  26 82 84 90  26 38 42 90  26 82 88 90  26 38 88 90  30 32 44 91  30 32 85 91  30 84 85 91  30 42 44 91  30 84 90 91  30 42 90 91  32 34 46 92  32 34 86 92  32 85 86 92  32 44 46 92  32 85 91 92  32 44 91 92  34 36 48 93  34 36 87 93  34 86 87 93  34 46 48 93  34 86 92 93  34 46 92 93  40 38 50 94  40 38 88 94  40 89 88 94  40 52 50 94  40 89 95 94  40 52 95 94  38 42 54 96  38 42 90 96  38 88 90 96  38 50 54 96  38 88 94 96  38 50 94 96  42 44 56 97  42 44 91 97  42 90 91 97  42 54 56 97  42 90 96 97  42 54 96 97  44 46 58 98  44 46 92 98  44 91 92 98  44 56 58 98  44 91 97 98  44 56 97 98  46 48 60 99  46 48 93 99  46 92 93 99  46 58 60 99  46 92 98 99  46 58 98 99  52 50 61 100  52 50 94 100  52 95 94 100  52 62 61 100  52 95 101 100  52 62 101 100  50 54 64 102  50 54 96 102  50 94 96 102  50 61 64 102  50 94 100 102  50 61 100 102  54 56 65 103  54 56 97 103  54 96 97 103  54 64 65 103  54 96 102 103  54 64 102 103  56 58 66 104  56 58 98 104  56 97 98 104  56 65 66 104  56 97 103 104  56 65 103 104  58 60 67 105  58 60 99 105  58 98 99 105  58 66 67 105  58 98 104 105  58 66 104 105  62 61 68 106  62 61 100 106  62 101 100 106  62 69 68 106  62 101 107 106  62 69 107 106  61 64 102 108  61 100 102 108  61 100 106 108  61 68 106 108  64 65 103 109  64 102 103 109  64 102 108 109  65 66 104 110  65 103 104 110  65 103 109 110  66 67 105 111  66 104 105 111  66 104 110 111  69 68 106 112  69 107 106 112  69 107 113 112  68 106 108 114  68 106 112 114  72 71 70 115  72 71 116 115  72 117 116 115  72 73 70 115  72 117 118 115  72 73 118 115  71 75 74 119  71 75 120 119  71 116 120 119  71 70 74 119  71 116 115 119  71 70 115 119  75 77 76 121  75 77 122 121  75 120 122 121  75 74 76 121  75 120 119 121  75 74 119 121  77 79 78 123  77 79 124 123  77 122 124 123  77 76 78 123  77 122 121 123  77 76 121 123  79 81 80 125  79 81 126 125  79 124 126 125  79 78 80 125  79 124 123 125  79 78 123 125  73 70 82 127  73 70 115 127  73 118 115 127  73 83 82 127  73 118 128 127  73 83 128 127  70 74 84 129  70 74 119 129  70 115 119 129  70 82 84 129  70 115 127 129  70 82 127 129  74 76 85 130  74 76 121 130  74 119 121 130  74 84 85 130  74 119 129 130  74 84 129 130  76 78 86 131  76 78 123 131  76 121 123 131  76 85 86 131  76 121 130 131  76 85 130 131  78 80 87 132  78 80 125 132  78 123 125 132  78 86 87 132  78 123 131 132  78 86 131 132  83 82 88 133  83 82 127 133  83 128 127 133  83 89 88 133  83 128 134 133  83 89 134 133  82 84 90 135  82 84 129 135  82 127 129 135  82 88 90 135  82 127 133 135  82 88 133 135  84 85 91 136  84 85 130 136  84 129 130 136  84 90 91 136  84 129 135 136  84 90 135 136  85 86 92 137  85 86 131 137  85 130 131 137  85 91 92 137  85 130 136 137  85 91 136 137  86 87 93 138  86 87 132 138  86 131 132 138  86 92 93 138  86 131 137 138  86 92 137 138  89 88 94 139  89 88 133 139  89 134 133 139  89 95 94 139  89 134 140 139  89 95 140 139  88 90 96 141  88 90 135 141  88 133 135 141  88 94 96 141  88 133 139 141  88 94 139 141  90 91 97 142  90 91 136 142  90 135 136 142  90 96 97 142  90 135 141 142  90 96 141 142  91 92 98 143  91 92 137 143  91 136 137 143  91 97 98 143  91 136 142 143  91 97 142 143  92 93 99 144  92 93 138 144  92 137 138 144  92 98 99 144  92 137 143 144  92 98 143 144  95 94 100 145  95 94 139 145
[...]
<PointData  Vectors="f_18"> 
<DataArray  type="Float64"  Name="f_18"  NumberOfComponents="3" format="ascii">6.1959926012421715e-03 6.1356870857942215e-03 3.3128365665588875e-03  6.8743112762864921e-03 6.7193149328541608e-03 4.1964240932649962e-03  3.5448720997646923e-03 1.1429962888234222e-02 4.3005629364646280e-03  3.4138194716039675e-03 7.5663189865535730e-03 3.4530750004995591e-03  8.7527608992054376e-03 4.7196094668936622e-03 3.9048887667803966e-03  3.5818836332734034e-03 7.9386614183993790e-03 4.9228463856946462e-03  3.7223174820013890e-03 1.1784243133755383e-02 5.0930589225982462e-03  7.0890065362257662e-03 6.9056183161037132e-03 5.0032788896474563e-03  8.9889766498955255e-03 4.9478467344868044e-03 5.0797847765885170e-03  1.5400981118373319e-03 1.4438798300057395e-02 4.4583018015455760e-03  1.3419665617124047e-03 9.9859859197226862e-03 3.4624512195267402e-03  1.3842839802229120e-03 1.0474711077879876e-02 4.9205317602135212e-03  1.6112620784525832e-03 1.4912883704905421e-02 5.1268901553972500e-03  6.6040944786607944e-04 1.5610959804805379e-02 4.5070538999459784e-03  5.2752615648831585e-04 1.0912020379170682e-02 3.4083241199825130e-03  5.3734243923943476e-04 1.1449111675042825e-02 4.8844825460947648e-03  6.9697377145465714e-04 1.6141984304287718e-02 5.1360578279329638e-03  2.8483937994453390e-04 1.6049621024819289e-02 4.5267392321388811e-03  1.7050855835898195e-04 1.1263516073851131e-02 3.3966820658301667e-03  1.6181200598022890e-04 1.1817839887814525e-02 4.8791176969687020e-03  3.0407726578750852e-04 1.6601239512519846e-02 5.1417571920722993e-03  8.1172949016308668e-05 1.6163403743251471e-02 4.5328439229601744e-03  -2.6083366403417380e-05 1.1355729325747728e-02 3.3915885732848337e-03  -4.3873113217883431e-05 1.1914357548529118e-02 4.8759552414710640e-03  9.1174579325118996e-05 1.6720458194613694e-02 5.1435267672271696e-03  4.7312828183332907e-03 4.4084527460427911e-03 3.6718977894504403e-03  4.9667776973789050e-03 4.5864353666623192e-03 5.0059943369738114e-03  1.1348663839860848e-02 3.0243031675717879e-03 3.9923206935010705e-03  1.1672585784831982e-02 3.1619099655570814e-03 5.0990698336112125e-03  1.8722457339025876e-03 6.2477986998170877e-03 3.8483804733586927e-03  1.9490500006105857e-03 6.4960169895316982e-03 5.0869942215061130e-03  7.4882766427187815e-04 6.9754546674275367e-03 3.8456956863497024e-03  7.8791686449097116e-04 7.2513103235091842e-03 5.0670676367949420e-03  2.6568931351298044e-04 7.2478829845032651e-03 3.8620822727724355e-03  2.8260216485928233e-04 7.5334986896289508e-03 5.0752827110770319e-03  1.1523961361919202e-06 7.3175650893785877e-03 3.8645293959199598e-03  7.2945779683990060e-06 7.6055984330577649e-03 5.0749958183999265e-03  5.8011062515717637e-03 2.4518835038281530e-03 3.6697590297124598e-03  6.0812987375412561e-03 2.5544767403907400e-03 4.9855377784153816e-03  1.3116399222785548e-02 1.7900557456371532e-03 4.0433791692831350e-03  1.3499127733216966e-02 1.8701916689597023e-03 5.1077523056866523e-03  2.3393870409486152e-03 3.6472632942024462e-03 3.8449234060479519e-03  2.4292031400883567e-03 3.8058988027723870e-03 5.0508506264956990e-03  9.3213024787675556e-04 4.1537029017975893e-03 3.8201697060658651e-03  9.7319165774250585e-04 4.3342674399104216e-03 5.0067402574449906e-03  3.2913147526065118e-04 4.3455321780253220e-03 3.8314642400062897e-03  3.4174304965427200e-04 4.5342542637559014e-03 5.0092174539579414e-03  1.0084486772555681e-06 4.3938073847589430e-03 3.8303858216624698e-03  5.0805573680654677e-08 4.5845546347203833e-03 5.0052735741819582e-03  6.4202616366894685e-03 1.0973242384151602e-03 3.6709012718185480e-03  6.7279516007065134e-03 1.1422201237977492e-03 4.9766076844507314e-03  1.4078551363925289e-02 8.3770631388757611e-04 4.0711123517169299e-03  1.4493781046689759e-02 8.7492689262378201e-04 5.1127427443771094e-03  2.6374189110121055e-03 1.6793214056064864e-03 3.8677702194680015e-03  2.7391524915411618e-03 1.7523842284544850e-03 5.0511851163730472e-03  1.0527593778440912e-03 1.9399918478184984e-03 3.8422660008427920e-03  1.1000880521032171e-03 2.0235079699030207e-03 5.0045680620789505e-03  3.7029325840359545e-04 2.0372255178640686e-03 3.8568072871339801e-03  3.8571556412231566e-04 2.1246082778161976e-03 5.0095620361219548e-03  -3.1313500931559909e-07 2.0606325903135196e-03 3.8559961572820268e-03  -6.4836523973367915e-08 2.1488614489903551e-03 5.0056699887199218e-03  6.9328399303149818e-03 -6.8756057623315399e-06 4.9715370361912720e-03  1.4806838793280364e-02 3.0121782247048524e-05 5.1133894227034073e-03  1.4381867981222755e-02 2.8875341057669798e-05 4.0796514203184312e-03  2.8437062818157440e-03 1.1201590183076308e-05 5.0496419115125058e-03  1.1436567975144170e-03 8.7480248015229077e-06 4.9993244228491648e-03  4.0095591939196511e-04 3.2227083724677299e-06 5.0044850099955421e-03  -9.6936753148200445e-17 -6.0022443243446667e-17 5.0000000000000044e-03  6.7194690723438770e-03 -1.1595622304575604e-03 4.9675687274891205e-03  1.4498269750781424e-02 -8.0998648251346013e-04 5.1077072078349120e-03  3.4306476607753769e-03 7.6237430834213381e-03 6.4100954457922731e-03  3.5542232749660586e-03 1.1413551463715072e-02 5.9005307039050690e-03  6.8652642914373268e-03 6.7086267838176936e-03 5.8319421312204396e-03  8.7162515798758725e-03 4.7354312464722836e-03 6.2591626614049009e-03  1.3191897531535989e-03 1.0043621173810103e-02 6.3940877651464546e-03  1.5269590260404155e-03 1.4410734853823095e-02 5.8082797180174610e-03  5.1087248489775476e-04 1.0971161998172184e-02 6.3845693693011917e-03  6.5380254036218250e-04 1.5584514745384226e-02 5.7800485040680775e-03  1.4976324920534966e-04 1.1321252903812768e-02 6.3866083359026184e-03  2.7763894495581046e-04 1.6021301755652508e-02 5.7721236404147122e-03  -4.7196806426993027e-05 1.1412709436177790e-02 6.3860064720095708e-03  7.4539054394736300e-05 1.6134293381058821e-02 5.7695572697485436e-03  4.7674479172277462e-03 4.3977688015827548e-03 6.3461523072138688e-03  1.1304009697990525e-02 3.0231540396312797e-03 6.2073870788939270e-03  1.8667491860879539e-03 6.2274451980429031e-03 6.3114098452366962e-03  7.5951769007816879e-04 6.9498218534628405e-03 6.2774112998451020e-03  2.7379554288298457e-04 7.2192781278289054e-03 6.2744399244137076e-03  1.0442460772176213e-05 7.2880902870257986e-03 6.2711165816494796e-03  5.8354657789578745e-03 2.4510591150897210e-03 6.3104759941147986e-03  1.3062682084479096e-02 1.7863751098594915e-03 6.1739510647796422e-03  2.3242964480567532e-03 3.6562100144510398e-03 6.2491837250045713e-03  9.3448648247510674e-04 4.1629894511312432e-03 6.1954392811619649e-03  3.2646986166239760e-04 4.3546076084057901e-03 6.1879809164404678e-03  -7.9452381129667472e-07 4.4027181576837921e-03 6.1819462825543859e-03  6.4555008630612174e-03 1.0959497521566368e-03 6.2931361920039288e-03  1.4020089765040230e-02 8.3382478835938802e-04 6.1562720120459449e-03  2.6216019962979364e-03 1.6837532015181143e-03 6.2259404789324338e-03  1.0572812707573059e-03 1.9429712978959975e-03 6.1675179854750782e-03  3.6958146650071670e-04 2.0396053380291037e-03 6.1606663434785845e-03  2.1046727394028409e-07 2.0626777974930084e-03 6.1542075064030342e-03  6.6518179647510204e-03 -6.3813459458946602e-06 6.2854224429010471e-03  1.4321197858670089e-02 2.5855866866172170e-05 6.1488942803737392e-03  2.7216431225802178e-03 1.2753663248226927e-05 6.2162301200770070e-03  1.0991869738802829e-03 9.7813050236124963e-06 6.1541453274693812e-03  3.8406031993136794e-04 4.3949591456635840e-06 6.1468853175307009e-03  1.3592694401781118e-07 1.2320563763507919e-06 6.1397980056183028e-03  6.4469615347178414e-03 -1.1120539927284134e-03 6.2860757655323080e-03  1.4024474945346990e-02 -7.7720491661200731e-04 6.1512054460670486e-03  2.6210458591829624e-03 -1.6545658403869334e-03 6.2189305359521821e-03  1.0572971494380611e-03 -1.9248264236619750e-03 6.1573860864800002e-03  3.6959218095451263e-04 -2.0318138015821981e-03 6.1509717771375946e-03  3.1313500915497454e-07 -2.0606325903136402e-03 6.1440038427178524e-03  5.8200366428577130e-03 -2.4686720657162708e-03 6.2984644412311186e-03  1.3062409731664431e-02 -1.7148447481549318e-03 6.1711682738424334e-03  2.3214951509074036e-03 -3.6140122442562413e-03 6.2382485287623473e-03  2.9657501360135421e-03 6.6299295980294399e-03 7.7823839750907342e-03  3.0428163548227353e-03 1.0301244734503468e-02 6.8148007516294889e-03  6.1804495672515706e-03 6.1184872009602169e-03 6.7777139009163783e-03  7.9016524088993852e-03 4.0912221525339085e-03 7.4271655474533538e-03  1.1499338349145881e-03 8.7084396205612501e-03 7.7517399624689324e-03  1.2876024714764322e-03 1.2910833791325666e-02 6.6505835168065011e-03  4.4881429785268546e-04 9.4984506512305906e-03 7.7634657967526870e-03  5.2956600677686594e-04 1.3913097927394437e-02 6.6057629293896202e-03  1.3521337649826252e-04 9.7959609003290347e-03 7.7698842177640623e-03  2.0390739851546135e-04 1.4282936420841181e-02 6.5918095534692770e-03  -3.5486102313506861e-05 9.8734745215293528e-03 7.7711018706025830e-03  2.9195600800175375e-05 1.4377766745142049e-02 6.5869094060382171e-03  4.1360231130600101e-03 3.8437304624632869e-03 7.5976179673286279e-03  1.0203436485858841e-02 2.6119680168131877e-03 7.3211879388556268e-03  1.6276498200852362e-03 5.4450293171435507e-03 7.4667755429826867e-03  6.6274762033945883e-04 6.0753092569888530e-03 7.4245251735600851e-03  2.3882242820181098e-04 6.3100577204520418e-03 7.4114241239923570e-03  9.7050891632746346e-06 6.3699524928087590e-03 7.4058413835982797e-03  5.0669003097934756e-03 2.1423386279964584e-03 7.5537783731816754e-03  1.1765202412867160e-02 1.5403711870953856e-03 7.2605543509061676e-03  2.0278255614868852e-03 3.1984259833357253e-03 7.3916237698749736e-03  8.1558969313991344e-04 3.6400441779010310e-03 7.3371337720095665e-03  2.8384149248209282e-04 3.8067374800448157e-03 7.3215185131332676e-03  -1.3326259732536716e-06 3.8484339557266155e-03 7.3146014712919070e-03  5.6065389549822793e-03 9.5836802747134391e-04 7.5308374124151440e-03  1.2614536229396235e-02 7.1459777848362454e-04 7.2278986425356921e-03  2.2881888121850085e-03 1.4732655185432755e-03 7.3504778654981924e-03  9.2365102037279129e-04 1.6988026893218007e-03 7.2894760327535104e-03  3.2215940125642525e-04 1.7827851961310949e-03 7.2722514004098116e-03  3.0000157336377871e-07 1.8027259670118836e-03 7.2644205850743620e-03  5.7770627923098171e-03 -3.8751903435832694e-06 7.5215957232659487e-03  1.2881779985756266e-02 1.4871475773009920e-05 7.2154189917471023e-03  2.3756878803033897e-03 1.2836858055989278e-05 7.3347866889114889e-03  9.6041057064103321e-04 9.7596260002754890e-06 7.2707927820964552e-03  3.3479949143772530e-04 4.9030511623670433e-06 7.2527925299809828e-03  2.1651406418901151e-07 2.0447115465208103e-06 7.2444672029292291e-03  5.5982271532922815e-03 -9.6838472261728207e-04 7.5264155869186585e-03  1.2618551572699019e-02 -6.7965967626617088e-04 7.2243437812695363e-03  2.2877242288091427e-03 -1.4434813128229658e-03 7.3440544892228584e-03  9.2382797775515636e-04 -1.6800594710057789e-03 7.2818337978417481e-03  3.2214908525401769e-04 -1.7734666018289554e-03 7.2649204781337308e-03  3.9146195109015059e-07 -1.7986367521134318e-03 7.2568246920828375e-03  5.0512436221016753e-03 -2.1516763221886572e-03 7.5415630556036166e-03  1.1762870647388237e-02 -1.4889475024097236e-03 7.2510133724408791e-03  2.0254441013979876e-03 -3.1543222503721290e-03 7.3743528848603020e-03  9.3387703780849717e-04 -4.1427630835762369e-03 6.1810970722059435e-03  8.1554062773556417e-04 -3.6165724639748349e-03 7.3183665632491589e-03  3.2600642853816296e-04 -4.3422156643318482e-03 6.1762626659448072e-03  2.8369552358715111e-04 -3.7904168882837881e-03 7.3039912579228655e-03  -1.0084486773452917e-06 -4.3938073847590679e-03 6.1696141783372880e-03  -1.1216830264681905e-06 -3.8354163869991375e-03 7.2966256734899584e-03  4.7557755755816720e-03 -4.4117002201649411e-03 6.2541085488735694e-03  4.1259216741034895e-03 -3.8725698508026455e-03 7.5236704824135879e-03  1.1278733177745101e-02 -2.9485798659286046e-03 6.1057327423608993e-03  1.0188384560341174e-02 -2.5740129145336230e-03 7.2254027842503180e-03  1.8546467791360900e-03 -6.2179556545349287e-03 6.1947250677132169e-03  1.6222581749500340e-03 -5.4582268463269790e-03 7.3765917148429973e-03  7.4929379495289588e-04 -6.9729556187020569e-03 6.1434235517693510e-03  6.6003314721009175e-04 -6.1186275150561138e-03 7.3309150573321108e-03  2.6238324053852008e-04 -7.2475728639218064e-03 6.1402664445591804e-03  2.3449708596031622e-04 -6.3580693356018016e-03 7.3203890402930051e-03  -1.1523961362825087e-06 -7.3175650893787646e-03 6.1354706040797720e-03  5.3648551970581464e-06 -6.4189140106856802e-03 7.3151701767400984e-03  3.4870809598397706e-03 -7.4937489331942620e-03 6.5737858143260063e-03  2.9878467626551965e-03 -6.4745493827363058e-03 7.9137255938920657e-03  8.7181792423389470e-03 -4.7399034373167099e-03 6.4763718152514608e-03  7.8693401023699622e-03 -4.0890287520723443e-03 7.6721075949441738e-03  1.3855055411339720e-03 -9.9950744366580149e-03 6.6148669579883810e-03  1.1789066087363263e-03 -8.6142276975956673e-03 7.9099478399226753e-03  5.8435870358951357e-04 -1.0931058655537227e-02 6.6013074197139353e-03  4.8334384064615122e-04 -9.4082773774923113e-03 7.9090199748575538e-03  2.2249759226305207e-04 -1.1269579823755651e-02 6.6113215571329056e-03  1.6769900305573334e-04 -9.6933357728589027e-03 7.9157345606163422e-03  -2.2541206721529015e-06 -9.7654622060493242e-03 7.9132569893860544e-03  3.3318004672538274e-03 -1.1476960184942557e-02 5.6787092948212192e-03  2.8774721190819772e-03 -1.0363815946702146e-02 6.5935766851264359e-03  6.7863649115895422e-03 -6.9628919028030239e-03 5.4389926505569713e-03  6.2195781002787054e-03 -6.3362952414234988e-03 6.0747213818224495e-03  1.1880123391797301e-03 -1.2987032686811442e-02 6.3305650537097769e-03  4.4870880200456283e-04 -1.3973000297270515e-02 6.2649857708988316e-03  1.2577667454994067e-04 -1.4344068423178348e-02 6.2514026892842006e-03  -4.8998305803874106e-05 -1.4442929793526167e-02 6.2459160764870656e-03  2.2109617634182119e-03 4.9801400753859007e-03 8.9068993118045971e-03  2.2146521390468210e-03 8.3649360229997704e-03 7.9126128937474609e-03  4.9558464484209894e-03 5.0797463279798599e-03 7.9089139561967919e-03  6.4208531572517921e-03 3.0392925385158837e-03 8.5400597581289251e-03  8.7806647409874555e-04 6.5136989213879486e-03 8.8629368055141884e-03  9.0725977529080269e-04 1.0311879710764506e-02 7.7675959747986701e-03  3.5005244354300484e-04 7.0889236738435621e-03 8.8788243965554486e-03  3.3741192893518650e-04 1.1021875632199517e-02 7.7355930390374528e-03  1.1535851757606254e-04 7.3057877320434651e-03 8.8836952690828797e-03  9.5022577435937173e-05 1.1278333136171033e-02 7.7261101354119347e-03  -1.2426844818938277e-05 7.3620937527635391e-03 8.8849124608960939e-03  -3.4027694985112900e-05 1.1343117520072376e-02 7.7218998575411899e-03  3.0949130506236476e-03 2.9283118400056001e-03 8.6699250675757698e-03  8.2272439813985479e-03 1.9437561715685530e-03 8.4178908626093927e-03  1.2328214026467443e-03 4.1536822012586848e-03 8.5010964964763146e-03  4.9883509065960861e-04 4.6334094478010634e-03 8.4593131922360738e-03  1.7794946956348242e-04 4.8115855581807318e-03 8.4415297463385462e-03  4.7117536095447778e-06 4.8569303910729073e-03 8.4354570870039964e-03  3.8009967291967625e-03 1.6289452482472406e-03 8.6282362747564685e-03  9.4532096357222636e-03 1.1405281326691287e-03 8.3564983629995510e-03  1.5409188310897147e-03 2.4338154034257266e-03 8.4309636408353324e-03  6.1805792471760098e-04 2.7676481334322294e-03 8.3834714690725672e-03  2.1461546657501786e-04 2.8933662688347935e-03 8.3646330655435513e-03  -1.4060238070103781e-06 2.9246174012247279e-03 8.3582563227427679e-03  4.2081658844007087e-03 7.2933961550905319e-04 8.6037151356780795e-03  1.0118580608132047e-02 5.2118092779013692e-04 8.3226497237212493e-03  1.7396682486074215e-03 1.1213508825332473e-03 8.3834372861157375e-03  7.0062489081665097e-04 1.2920049527758361e-03 8.3287283269647665e-03  2.4406048888457686e-04 1.3554297212677684e-03 8.3068556473875621e-03  1.5444726043859339e-07 1.3703930275776710e-03 8.2993451671011242e-03  4.3363683196044967e-03 -4.4891099215537624e-07 8.5946218367120436e-03  1.0328156231489792e-02 -3.0332518058577354e-06 8.3102956040352581e-03  1.8064314781182358e-03 1.1033749076804831e-05 8.3663416786425530e-03  7.2871803143978171e-04 8.3627614694048586e-06 8.3095270871086473e-03  2.5375694224953117e-04 4.4444265120500213e-06 8.2868163287701056e-03  1.6773232481829298e-07 2.1633599986884606e-06 8.2790135927865785e-03  4.2006727667222021e-03 -7.3107900184201367e-04 8.6007879864681922e-03  1.0121204655205907e-02 -5.2204198663926670e-04 8.3200228524911574e-03  1.7393790217745916e-03 -1.0949754078386400e-03 8.3778207575335491e-03  7.0079689329060355e-04 -1.2749419835708462e-03 8.3232748977339708e-03  2.4400748004361065e-04 -1.3459728792168200e-03 8.3016180965477769e-03  1.8875308088752498e-07 -1.3651199835111121e-03 8.2940942317393761e-03  3.7866141192925656e-03 -1.6287228339372086e-03 8.6151991458883904e-03  9.4536945134251309e-03 -1.1225763146489312e-03 8.3411096326601302e-03  1.5397998380965526e-03 -2.3955658822415868e-03 8.4100605294729017e-03  6.1856378878136545e-04 -2.7470112770955043e-03 8.3622756672369902e-03  2.1492966967655213e-04 -2.8789609543768604e-03 8.3434806566770013e-03  -7.7416937312840607e-07 -2.9131276931138156e-03 8.3368780035000430e-03  3.0840118772462633e-03 -2.9498337036703787e-03 8.6392027186737233e-03  8.2238930160175045e-03 -1.9377959849785150e-03 8.3684452110827402e-03  1.2321787418997237e-03 -4.1636268110861229e-03 8.4671828963647777e-03  5.0059286318223349e-04 -4.6647829134311607e-03 8.4319113100820835e-03  1.7834635729100772e-04 -4.8459089576657864e-03 8.4180647315591963e-03  5.3256979213623904e-06 -4.8917262565103536e-03 8.4133030008674593e-03  2.1951566064139600e-03 -4.8268090582564939e-03 8.9498765231167173e-03  6.3386070099039757e-03 -3.0205317611304563e-03 8.7152308117565674e-03  8.6505098616468086e-04 -6.4091307994703760e-03 8.9003899341163241e-03  3.3943909690607428e-04 -6.9914064776376746e-03 8.8971460791489286e-03  1.0166422860659952e-04 -7.1990297901353912e-03 8.8965516293988342e-03  -2.5755589741074331e-05 -7.2511968949371258e-03 8.8941521890418141e-03  2.1371585060458030e-03 -8.4262474036051870e-03 7.6580025929871981e-03  5.1972260859790296e-03 -5.3341514190955114e-03 7.0573705746829075e-03  9.0699837074773384e-04 -1.0412149333462293e-02 7.3894575751607518e-03  3.5924831930053138e-04 -1.1116715657999789e-02 7.3603117052359092e-03  1.2162165823249337e-04 -1.1378779973843853e-02 7.3534342121130440e-03  -6.3781688551298497e-06 -1.1447156590360960e-02 7.3526002237727190e-03  1.2042155104357438e-03 2.7231411260325794e-03 9.6590515024869532e-03  1.1473708476243394e-03 5.2972450456766646e-03 9.1597705409073634e-03  3.0241980862816390e-03 3.3547606615406769e-03 9.1733322409149037e-03  3.9850591344597662e-03 1.6364850078709994e-03 9.4836863543288300e-03  4.9556956807523091e-04 3.5544962772437001e-03 9.6157262887038991e-03  4.3856672704988697e-04 6.2988285092950612e-03 9.1000342097644956e-03  2.0417956241696353e-04 3.8618877653149161e-03 9.6189466372430706e-03  1.2776314156767770e-04 6.6175197608109668e-03 9.0900517699741817e-03  7.6148335144967622e-05 3.9789983054607609e-03 9.6182015681275847e-03  -1.7628331448073474e-06 6.7273889319417633e-03 9.0869354842846584e-03  6.2445871714662870e-06 4.0093481813141471e-03 9.6179786444049037e-03  -7.0366818812856734e-05 6.7549509557621032e-03 9.0849035459982866e-03  1.6928874615321668e-03 1.6513512701546154e-03 9.4872192112975349e-03  5.0532179080296502e-03 1.0522019427486376e-03 9.4046965475210881e-03  6.8567888607879682e-04 2.3460470005155589e-03 9.3655738834223703e-03  2.7388846730753909e-04 2.6151484063263392e-03 9.3366956836539294e-03  9.4977785420415550e-05 2.7147224633219222e-03 9.3233048406375710e-03  -1.6231536137923205e-06 2.7399373686813654e-03 9.3191865743987665e-03  2.0894134682975496e-03 9.1152366300438709e-04 9.4578142391417690e-03  5.7782757814498010e-03 6.11243278872