<?xml version="1.0"?>
<VTKFile type="UnstructuredGrid"  version="0.1"  >
<UnstructuredGrid>
<Piece  NumberOfPoints="738" NumberOfCells="3056">
<Points>
<DataArray  type="Float64"  NumberOfComponents="3"  format="ascii">1.03060011208329 2.114735987778004 0.960245141545079  1.015695087570966 2.246819545346341 0.887211305375292  1.137248837827948 2.229303083608117 0.9075905938553848  1.144934975333585 2.195873742890878 0.8428553360405681  1.020658016552287 2.213001999160698 0.8197521485204585  1.036403256001891 2.079162395000457 0.8959002215715118  1.152782700489807 2.162828467606074 0.7778024123666173  1.025756522583049 2.179615164038179 0.7519940802086447  1.042412123985897 2.043971031668605 0.8311615151039439  1.16065508480747 2.129902294587991 0.7125639040134916  1.030847657808261 2.146382091281804 0.684075051737667  1.048454133057065 2.008857037939448 0.7661934151025284  1.168477217771151 2.096911886319048 0.647271832664253  1.035830129149379 2.113130466154525 0.6161041171757391  1.054479334127521 1.973643008026936 0.7011502207860135  1.176200382103217 2.063715855002128 0.5820546739065544  1.040726927941035 2.07972786083983 0.5481887228616921  1.060456375561315 1.938198880935778 0.6361587839220849  1.184012733772377 2.030107594222272 0.5170587568901794  1.045808576216511 2.045836398042771 0.4805309542179788  1.066463148802034 1.902340803371398 0.5713577981106961  0.9005176110450267 2.203921600864311 0.9040772047794796  0.9035262693953179 2.168635592032861 0.8355235147391571  0.9066950908291056 2.133767734271238 0.766656213351757  0.909863009304154 2.09905252144973 0.6976037710077301  0.9129412144956167 2.064332660657514 0.6284741490892121  0.9159203854384246 2.029484960171035 0.5593707098350608  0.9191150178645318 1.994155523627886 0.490548269284533  1.031821266009403 1.607119314768782 1.287461451795425  0.9127129103207532 1.676139559074788 1.203453291033653  0.9153295865423352 1.588064586759601 1.303805229715064  0.9101126112069072 1.727534614377724 1.252893593097417  0.9175122685965673 1.532798297334002 1.259837744422735  1.035181294137744 1.554458097091209 1.242927770871042  0.9155136002053691 1.624559720616801 1.153627386311073  0.919725211038026 1.477228945176278 1.215736169598475  1.038589799173103 1.501527697959846 1.198267522030253  0.9183651518725725 1.572695071411591 1.103599004090305  0.9218488422925273 1.421323960135746 1.171571662998972  1.041906207438229 1.448282880898148 1.153544610768347  0.9211864454667661 1.520496802559223 1.053476658326245  0.9238135164701821 1.365049748733252 1.127389183709  1.045052270301818 1.394679951846122 1.108794723659548  0.9239404683301922 1.467910955530799 1.003317438873814  0.9256073144983141 1.308385376868582 1.08322545015455  1.048012289838259 1.340689488419257 1.064014275029671  0.926639261684868 1.414870836834186 0.9531231359262168  1.107919446778555 2.345231700583724 0.8471486988734575  1.24019339590453 2.350962506314265 0.8608697146349124  1.11411981152856 2.313396400482949 0.7791817098625836  1.249284933056099 2.319296428836306 0.7955037785241781  1.120409086679201 2.281979617854807 0.7109756152715827  1.258489249417352 2.287982703276295 0.7299048436050777  1.126679674036326 2.250723951355057 0.6426423931003628  1.267715329823054 2.256795157967408 0.6641691945499993  1.132833904889073 2.219456214870594 0.5742817927085765  1.27689687325127 2.225572868139079 0.5983981709120263  1.138926241972773 2.188034744400068 0.5060006867417811  1.285990082887176 2.19418267940049 0.5327020317185492  1.145207521205075 2.156187346045348 0.4379703427151617  1.295160630181139 2.16241733383854 0.4672121605285741  0.7901843441868376 1.807727939643819 1.166601663410335  0.7885063132823793 1.71398120741801 1.260151620253778  0.7896303194974211 1.660039532290009 1.210138334538388  0.7912112789397492 1.757302188298132 1.11133829788434  0.7908893512299655 1.60586345065846 1.159760623576341  0.7923893694253378 1.706811402676113 1.055675624327433  0.7921987606930336 1.551398349592358 1.10919950180357  0.7936401097009672 1.656109337429039 0.999768425875543  0.793504495311284 1.496589738977557 1.058545222389981  0.7949280307858397 1.605108266473562 0.9437427882646481  0.7947685951686924 1.441384364728692 1.007862866462348  0.7962362756441302 1.553731604326935 0.8876851600584361  0.7959834549970464 1.385736075782399 0.9572009197885799  0.7975789560075592 1.501915105059077 0.8316640027618213  1.407910226593648 1.782486465886353 1.250861303862064  1.539856009828791 1.70288162746491 1.328285772056978  1.415052938528706 1.689069603448775 1.336826113237719  1.418340359983212 1.645650319008642 1.289803304024438  1.543357936608524 1.662829496356188 1.278643540504345  1.415239492779985 1.741571946812248 1.20102833193728  1.422043872157226 1.602081839311306 1.242583342543151  1.547264151387558 1.622700465238789 1.228893261353925  1.422997068189701 1.700692441664355 1.15093436933732  1.425920492235825 1.558330091829598 1.195211981199911  1.55133660431089 1.582448850285981 1.179048962461755  1.43091026494091 1.659665738735916 1.100679213907653  1.429779291117218 1.51438104793564 1.147740991141313  1.555394625478806 1.542056810165759 1.12912077089373  1.438790401982503 1.618427398475058 1.050327461575019  1.433462278853782 1.470226151722125 1.100168402962904  1.559281236805389 1.501527184354563 1.079103719165842  1.446496334361784 1.576916898109981 0.9999011565184717  1.436785647570289 1.42583732434338 1.05245662968972  1.562787209857176 1.460840817568151 1.028956807826405  1.453903890359362 1.535047229161526 0.9493835627533341  0.4057969753182139 2.504226173662519 0.7642662971990629  0.3981351659941509 2.39249710341981 0.8131219109212893  0.2765072819979336 2.397062930875575 0.8140900547890229  0.2755159856238301 2.357011214515496 0.7293756113255503  0.3958914917722223 2.354196046401598 0.7308456043424878  0.4043709637980051 2.469452774269271 0.6786042940644293  0.2746582468246514 2.315875764224877 0.644927486262093  0.3937742829492247 2.315592088013786 0.6487127790023046  0.4030637183165346 2.434496129023496 0.5931442388308386  0.2739231215640874 2.274452720252231 0.5604295651048539  0.3917762728111773 2.276913052710293 0.5666023218903886  0.4018003897900805 2.399534726683513 0.5077895935587047  0.2733049450674562 2.233122863274325 0.4757331652477492  0.3898859535191978 2.238318461167042 0.4843880046378625  0.4005089078185641 2.364713844009741 0.4224174816749042  0.2728136638270634 2.192118552428562 0.3907613543608416  0.3881379907048109 2.199892314795364 0.4020880340553368  0.3993232957901465 2.330097224168015 0.3369861515374815  0.2728874445444194 2.151380060152368 0.3057219985500378  0.3867832212127887 2.161566568318881 0.319802978947779  0.3985115170138381 2.295950824665224 0.2514664749216206  0.4072055987601611 2.092558376405856 0.9686094353262571  0.5355199305231264 2.1753153988381 0.9178660318318337  0.5269780881182463 2.076625732714295 0.9737069193144969  0.5249224477058846 2.034397217013336 0.901865395616273  0.533268859413655 2.135148069837326 0.8436923873090821  0.4051994077164008 2.049705382985011 0.8938038309851931  0.5230533692071125 1.992248887188184 0.8297578636003489  0.5312005426979535 2.095095107663433 0.7693285036285514  0.4033131148340731 2.006708279255165 0.818879369563793  0.5212868602947304 1.950040610189199 0.757474833481057  0.5292227586890047 2.055038576907417 0.6948488368089718  0.4015202927267613 1.963538443539634 0.7437973485113097  0.5196348523656155 1.907708604160147 0.6850632257995315  0.5273463156155457 2.014925014421527 0.6202774189544294  0.3998843862322738 1.920271856580262 0.6685092826470973  0.5180996705165962 1.865180967302026 0.6125605031316051  0.5255647236765923 1.974689253236958 0.5456390444970713  0.3984049008819209 1.876901997769885 0.593056457263041  0.5166740494174702 1.822348777478268 0.5400221521654861  0.5238856547399705 1.934213451832002 0.4709902417621201  0.3971198580580967 1.833391954817812 0.5174381447357508  0.894000350018836 2.317237423487414 0.8455004742818334  0.8971705018888438 2.284282069338842 0.773923263573862  0.9004558346156681 2.251803647552369 0.7021202766044645  0.9036768121171076 2.219524661344962 0.6302046103779155  0.9067427428988181 2.187297833504323 0.5582375527866912  0.9097640129270251 2.154954292649709 0.4863327980508644  0.9130424126417725 2.122145845506756 0.4147300050962355  0.1568499999983233 2.184764978054871 0.9208080553451836  0.287087081253698 2.284264816823853 0.8667457379273911  0.3009723584069256 2.183645199591211 0.9211332986760333  0.2998446390354384 2.140631875129214 0.8423170561466267  0.2858903590921815 2.242389706481463 0.7852270160911252  0.1568499999984138 2.138985416118524 0.8393677423046503  0.2987557708793579 2.096974363384018 0.7636136680438264  0.284765424322682 2.199662329216991 0.7038989360504566  0.1568499999985044 2.092020255607436 0.7581061018930548  0.2978063644907186 2.05304551485982 0.6847301688305177  0.2838076372221451 2.156697645063464 0.6224112441725284  0.1568499999985948 2.044793664030368 0.6765580167160584  0.2969959202507262 2.009097307446483 0.6055834039630468  0.2829604935070859 2.113783546196407 0.5407156377751878  0.1568499999986853 1.997529136711406 0.5946698521350979  0.296302578887619 1.965242868650604 0.52620722650879  0.282225945839375 2.071089311727077 0.4588345598776598  0.1568499999987758 1.950478237484902 0.512377131508545  0.2959260754724569 1.921654218772777 0.4466548078677797  0.2817742125059123 2.028845995648196 0.3767277607776626  0.1568499999988663 1.904195351169058 0.4296713013901083  0.6674071013258358 1.885434482050427 1.101679631979804  0.6606842769371112 1.797527500472022 1.177599549750857  0.660487168683048 1.745277502999347 1.120937973171665  0.6668782468850871 1.836248838272157 1.041017723195067  0.6604144353795366 1.69290210308207 1.06383869937503  0.6665065991758206 1.787095465726489 0.9799198903020483  0.6604521648585117 1.640281323449349 1.006474700768338  0.6662437918485495 1.737798514154618 0.9185497206843928  0.6605689911481006 1.587338997696055 
[...]
<PointData  Vectors="f_24"> 
<DataArray  type="Float64"  Name="f_24"  NumberOfComponents="3" format="ascii">5.3513010264968387e-02 -8.4954598298834588e-02 -1.1277343615876684e-01  5.3235291424112367e-02 -8.0145828468699457e-02 -1.0360341437727981e-01  5.2997849070041562e-02 -8.2705299892932044e-02 -1.0674665543859645e-01  5.1786332143534446e-02 -7.7820099889447159e-02 -1.0909336479155901e-01  5.2167353468708592e-02 -7.5035414874244491e-02 -1.0577365013863418e-01  5.2245207890136633e-02 -8.1147107099455343e-02 -1.1479449131771015e-01  5.0755382141260005e-02 -7.2956921844938127e-02 -1.1093850860356387e-01  5.1261472073143036e-02 -6.9958444848648701e-02 -1.0752232298328074e-01  5.1171079135218567e-02 -7.7219345849182705e-02 -1.1635784377465759e-01  4.9781593392125449e-02 -6.8002173247589101e-02 -1.1244570561002276e-01  5.0422212986729539e-02 -6.4818867404073957e-02 -1.0897616502531618e-01  5.0168940480148409e-02 -7.3116746351273978e-02 -1.1760605786011225e-01  4.8775394043074745e-02 -6.2873413976594003e-02 -1.1372884445195500e-01  4.9573045906005433e-02 -5.9531547361921129e-02 -1.1023690242909677e-01  4.9144444330055596e-02 -6.8815944261840511e-02 -1.1863326982117176e-01  4.7659515706977088e-02 -5.7503304682698139e-02 -1.1487318119971586e-01  4.8647825311947224e-02 -5.4023818942667431e-02 -1.1138174334126129e-01  4.8016841010093507e-02 -6.4307245018728504e-02 -1.1950948127843293e-01  4.6360600968892815e-02 -5.1839830532337400e-02 -1.1594914773623990e-01  4.7588334257197988e-02 -4.8235014879444475e-02 -1.1249636708176121e-01  4.6704849287450799e-02 -5.9607249101756035e-02 -1.2026597129510834e-01  5.3523169248288892e-02 -8.0489718959875500e-02 -1.0517511974356085e-01  5.2568187181564856e-02 -7.5721411431786387e-02 -1.0724054106437873e-01  5.1759435142215177e-02 -7.0954747241913141e-02 -1.0889761252095234e-01  5.1025291494646692e-02 -6.6100419466536289e-02 -1.1027900294906702e-01  5.0293345552715134e-02 -6.1096713339749531e-02 -1.1147685569287759e-01  4.9499866936425330e-02 -5.5892413223050351e-02 -1.1255940622092689e-01  4.8584028766443049e-02 -5.0451614238514936e-02 -1.1357073520492179e-01  4.9510632116868444e-02 -9.1154751550059337e-02 -1.2304809323096198e-01  5.0776778523755235e-02 -8.9733437067383057e-02 -1.2274898922710682e-01  4.9888707173071568e-02 -8.9112193230873007e-02 -1.2102189811950725e-01  5.2018176387492648e-02 -8.9488920416541259e-02 -1.2293467352189449e-01  4.8896637791581744e-02 -8.9678542546303613e-02 -1.1965556915874957e-01  4.8387938603610306e-02 -9.1721983927224485e-02 -1.2186551930683256e-01  4.9734711989809575e-02 -8.9646722869021089e-02 -1.2229099746333846e-01  4.7979208979406648e-02 -8.9944772373894158e-02 -1.1809128783115078e-01  4.7339666239897722e-02 -9.1967740332318332e-02 -1.2045490458561842e-01  4.8769952828102536e-02 -8.9259059225465023e-02 -1.2161459696055520e-01  4.7042720719534650e-02 -8.9936917738342892e-02 -1.1636272370967028e-01  4.6266418747784838e-02 -9.1909782429731357e-02 -1.1885496768309668e-01  4.7786224101386457e-02 -8.8604465267224708e-02 -1.2077524021514445e-01  4.5996463749283734e-02 -8.9671731348113945e-02 -1.1451811731844154e-01  4.5068719854705737e-02 -9.1554509244424029e-02 -1.1712599283294239e-01  4.6703437735653351e-02 -8.7713365994042794e-02 -1.1982553151028315e-01  4.4771013080014146e-02 -8.9169213724512614e-02 -1.1265516877515559e-01  4.3646799086547443e-02 -9.0957898200670267e-02 -1.1538675309346939e-01  4.5448714727800613e-02 -8.6584167193348563e-02 -1.1877118370048048e-01  5.2480716612352624e-02 -7.7492188436264209e-02 -9.6940876641757753e-02  5.1962693843303216e-02 -7.9610082382138556e-02 -9.8289574612739808e-02  5.1506239733325188e-02 -7.1512040127444873e-02 -9.9175057487214793e-02  5.0924537166713787e-02 -7.3623317636658095e-02 -1.0077828009967044e-01  5.0660772608051269e-02 -6.5694602829231424e-02 -1.0098927872460374e-01  5.0036448482819670e-02 -6.7829944233043074e-02 -1.0277879739198800e-01  4.9871545261628313e-02 -5.9894771071498772e-02 -1.0252874569487225e-01  4.9191216524773484e-02 -6.2044706262824663e-02 -1.0446540388731480e-01  4.9073046962641087e-02 -5.3973453857609419e-02 -1.0390680626822271e-01  4.8316625768768467e-02 -5.6119136086212926e-02 -1.0596621366739113e-01  4.8209934752062929e-02 -4.7812278342957322e-02 -1.0521456962535722e-01  4.7348970711267889e-02 -4.9922462671098476e-02 -1.0738185796159146e-01  4.7227286252547768e-02 -4.1304891191345075e-02 -1.0653492773792900e-01  4.6232885645993906e-02 -4.3322659452798944e-02 -1.0878465076266830e-01  5.2633729269398868e-02 -8.7986906108221838e-02 -1.2099636724649231e-01  5.1968447557761269e-02 -8.7883442184720370e-02 -1.2152864892159985e-01  5.0976448949389824e-02 -8.8112353405274346e-02 -1.2117727968075205e-01  5.1636408404276371e-02 -8.7336579665422409e-02 -1.2148572115784916e-01  5.0157888581659357e-02 -8.8030403787986128e-02 -1.2057881903396656e-01  5.0815541789630964e-02 -8.6395941905387935e-02 -1.2168855040685120e-01  4.9414553357474682e-02 -8.7671104647709067e-02 -1.1978554420384580e-01  5.0068913189699651e-02 -8.5198709560632857e-02 -1.2166792912722318e-01  4.8660714439644030e-02 -8.7068798774512804e-02 -1.1884223379283691e-01  4.9313231607910873e-02 -8.3778282773924365e-02 -1.2147951501330584e-01  4.7825044893429321e-02 -8.6256662666917491e-02 -1.1779602063158531e-01  4.8477615808960234e-02 -8.2170088027469487e-02 -1.2117851355592199e-01  4.6849525244786083e-02 -8.5279768647328960e-02 -1.1669526588467956e-01  4.7509299685083911e-02 -8.0403429855270200e-02 -1.2082215430967054e-01  5.0027755153873282e-02 -9.7666903332871091e-02 -1.3180111542590286e-01  4.7403394348516412e-02 -9.8020428365964071e-02 -1.3347981542388623e-01  4.8487315754521920e-02 -9.6060902613563898e-02 -1.3102465077842937e-01  4.7192291498620163e-02 -9.7552273079297550e-02 -1.3035035763520814e-01  4.6214887187256068e-02 -9.9661127038236041e-02 -1.3299459854470619e-01  4.8607826255092336e-02 -9.8301074343684930e-02 -1.3217620828659998e-01  4.6063242209900448e-02 -9.8589342409556940e-02 -1.2935975897283397e-01  4.5190265512355880e-02 -1.0078175161761938e-01 -1.3213730598946435e-01  4.7380881737310865e-02 -9.8495611905214803e-02 -1.3211782570146127e-01  4.5009299381833096e-02 -9.9255121509062072e-02 -1.2803145794450863e-01  4.4227563862927248e-02 -1.0151418519492744e-01 -1.3088718558067139e-01  4.6209655916184228e-02 -9.8312981318412151e-02 -1.3165658537108507e-01  4.3934832834515214e-02 -9.9596081041833734e-02 -1.2635500017087808e-01  4.3242318930637728e-02 -1.0192416814335661e-01 -1.2920777604198894e-01  4.4976321520961551e-02 -9.7786200429319362e-02 -1.3082053308944752e-01  4.2735960141680247e-02 -9.9615104547163463e-02 -1.2432104738909507e-01  4.2141951299661355e-02 -1.0203468913506279e-01 -1.2705693073069879e-01  4.3552897547351373e-02 -9.6914256579450686e-02 -1.2964355152288004e-01  4.1288436987431551e-02 -9.9204996035713353e-02 -1.2193069686475079e-01  4.0799534970841690e-02 -1.0183085334125792e-01 -1.2447238218599262e-01  4.1788263026508107e-02 -9.5682981317735588e-02 -1.2818375109541608e-01  5.3330802347596337e-02 -6.9028293976836297e-02 -7.8403163174950427e-02  5.3050700704050817e-02 -7.3366978212454706e-02 -8.8026335071801021e-02  5.2727816981185852e-02 -7.3895131042345519e-02 -8.7917049084657362e-02  5.3232697823934860e-02 -6.6656466805925810e-02 -9.0385272671848857e-02  5.3217313219924400e-02 -6.6464435345222325e-02 -9.0349815717171669e-02  5.3342755611500627e-02 -6.1239211271937356e-02 -8.0396741501144772e-02  5.3772019539042995e-02 -5.9967396572711891e-02 -9.2557770894870897e-02  5.3461378130835610e-02 -5.9932273768526376e-02 -9.2362595200076517e-02  5.3403078479514879e-02 -5.3979842094691172e-02 -8.2177042563680455e-02  5.4337490706364344e-02 -5.3487615951589143e-02 -9.4552635575479341e-02  5.3746782394998763e-02 -5.3539656706452866e-02 -9.4203377465151561e-02  5.3499675748386807e-02 -4.6937060740957479e-02 -8.3852168511936775e-02  5.4909618526402248e-02 -4.6924366910625258e-02 -9.6473604635681887e-02  5.4050126488695532e-02 -4.7067355049951132e-02 -9.5966699238812472e-02  5.3615653622595835e-02 -3.9840323980340084e-02 -8.5512925259017519e-02  5.5471856870176577e-02 -4.0014698790236988e-02 -9.8407412635690847e-02  5.4347705393291028e-02 -4.0317109143084430e-02 -9.7736485763000744e-02  5.3737696118157159e-02 -3.2462158832681547e-02 -8.7235410462042792e-02  5.6011256322449077e-02 -3.2506019187961741e-02 -1.0045647365374200e-01  5.4615025469787110e-02 -3.3129700449436077e-02 -9.9596393302156846e-02  5.3851103549242635e-02 -2.4600189134699614e-02 -8.9077472696176094e-02  5.2222527465088805e-02 -8.2224011191340152e-02 -1.0919329715705225e-01  5.3044742617651554e-02 -7.9864966574206483e-02 -1.0425553241400115e-01  5.2817814945575789e-02 -8.2324423502043345e-02 -1.1001203621769830e-01  5.2714136168735132e-02 -7.8640131531825558e-02 -1.1183318157914823e-01  5.2923180689964759e-02 -7.5181771937919459e-02 -1.0632651623219204e-01  5.2569399671044452e-02 -7.8250605033909695e-02 -1.1108991865671736e-01  5.2734617469943387e-02 -7.4840689786946191e-02 -1.1331385203670766e-01  5.2919806440944649e-02 -7.0495104203359832e-02 -1.0804757996232113e-01  5.3010051645210748e-02 -7.4203450511393515e-02 -1.1264382411695446e-01  5.2820970208037200e-02 -7.0900086291184744e-02 -1.1456172417268924e-01  5.2982688182566032e-02 -6.5738539073740096e-02 -1.0953082692799936e-01  5.3497234960496298e-02 -7.0036260566533642e-02 -1.1397179372853422e-01  5.2922139996810127e-02 -6.6797510412164487e-02 -1.1565244373973520e-01  5.3063961756248106e-02 -6.0846178323224732e-02 -1.1086500226612277e-01  5.3991870462904379e-02 -6.5704924501194556e-02 -1.1515021731155167e-01  5.2994729872919491e-02 -6.2520965763658620e-02 -1.1663121444455579e-01  5.3120802293272575e-02 -5.5756709804919764e-02 -1.1210835375974014e-01  5.4461823674727419e-02 -6.1175227009700066e-02 -1.1622714113519030e-01  5.2996740531641384e-02 -5.8084854332649392e-02 -1.1749206919019370e-01  5.3114920789888997e-02 -5.0420007094580693e-02 -1.1328497475919794e-01  5.4879263208764413e-02 -5.6436482082459299e-02 -1.1721570851645542e-01  5.3160201427153678e-02 -7.6178584367032912e-02 -9.6703463498863995e-02  5.2357364609784324e-02 -7.0353527775018243e-02 -9.8729694791026779e-02  5.1679163219797736e-02 -6.4660740140805542e-02 -1.0038865235137871e-01  5.1062648820352663e-02 -5.8961040193725743e-02 -1.0180987167735228e-01  5.0453586853580805e-02 -5.3142297663535641e-02 -1.0308852042012551e-01  4.9801406804065633e-02 -4.7110712473071657e-02 -1.0430285382659271e-01  4.9058054188715478e-02 -4.0819280767633789e-02 -1.0554393588892697e-01  5.0927373324879302e-02 -8.1025549194716523e-02 -1.0564596888935913e-01  5.2237175265825511e-02 -7.7532061140473951e-02 -9.7015616462761828e-02  5.1869434681343696e-02 -8.0512157252491626e-02 -1.0415121632948646e-01  5.2603059635955220e-02 -7.5447429208057609e-02 -1.0639399942394979e-01  5.2902531665043870e-02 -7.1401964068740567e-02 -9.9455959545431599e-02  5.2325003121756801e-02 -7.5737551718449772e-02 -1.0796829462463176e-01  5.3391748491688491e-02 -7.0501835737914978e-02 -1.0827321320147820e-01  5.3618079865248129e-02 -6.5579318135572565e-02 -1.0155151150741508e-01  5.3694798503452816e-02 -7.0737889015385594e-02 -1.0990472216785582e-01  5.4206803535232079e-02 -6.5544847082492350e-02 -1.0991545489307121e-01  5.4360858353487633e-02 -5.9851697851434127e-02 -1.0342189369700806e-01  5.5050890498795538e-02 -6.5750213422363993e-02 -1.1159239541040163e-01  5.5021703608339009e-02 -6.0452694745257052e-02 -1.1141753159247945e-01  5.5106053224463193e-02 -5.4014370674262652e-02 -1.0517524802724885e-01  5.6392367227449829e-02 -6.0609889851368663e-02 -1.1315297929300736e-01  5.5815108169747975e-02 -5.5111919779162903e-02 -1.1284763613988551e-01  5.5834693677758590e-02 -4.7879721532374561e-02 -1.0689495448504559e-01  5.7726454516306390e-02 -5.5168898447091254e-02 -1.1465962187290572e-01  5.6564401810570437e-02 -4.9399570060058073e-02 -1.1422545255622316e-01  5.6528001828198823e-02 -4.1238458694304508e-02 -1.0864600778098937e-01  5.9074233403690911e-02 -4.9266714724500484e-02 -1.1612194724157773e-01  5.2789998837425377e-02 -8.6182909569291768e-02 -1.1834730102729134e-01  5.2358557103582448e-02 -8.6856173004357953e-02 -1.2006084517912596e-01  5.1709914300119453e-02 -8.6266083925033585e-02 -1.2042975192300186e-01  5.2151980047979843e-02 -8.4697532439944573e-02 -1.1935425501526402e-01  5.1216053022382725e-02 -8.5389188196671573e-02 -1.2053722044082252e-01  5.1668738291001617e-02 -8.2965749200221234e-02 -1.2006387588072430e-01  5.0795537282375264e-02 -8.4261749978019565e-02 -1.2044582337515708e-01  5.1257777776504920e-02 -8.1012357705128990e-02 -1.2054343210075619e-01  5.0376353423266851e-02 -8.2923396475239927e-02 -1.2020262196552373e-01  5.0850693615147616e-02 -7.8870319306506897e-02 -1.2085120677643436e-01  4.9898264849974248e-02 -8.1416464387213672e-02 -1.1985178152510172e-01  5.0388762480518913e-02 -7.6573315161136801e-02 -1.2103927836329215e-01  4.9306247365345106e-02 -7.9785684513642680e-02 -1.1942287715589373e-01  4.9830251511513830e-02 -7.4145946222775802e-02 -1.2115913647687306e-01  5.3557607215717028e-02 -6.1336440129216178e-02 -8.0304198931474932e-02  5.3814443270856459e-02 -5.3918143870162333e-02 -8.2279274607352210e-02  5.4094961341108229e-02 -4.6783294145514256e-02 -8.4154231626960257e-02  5.4386293038703508e-02 -3.9580367928678986e-02 -8.6020778592667685e-02  5.4675105524035830e-02 -3.2010363937839396e-02 -8.7957730479107335e-02  5.4938933324491381e-02 -2.3790127759682665e-02 -8.9989552954891083e-02  5.1707261933449669e-02 -8.5334131522553994e-02 -1.0593650480886692e-01  5.1382753982666056e-02 -9.2384856812187874e-02 -1.1590649862877271e-01  5.2206429926417525e-02 -8.9972821952801110e-02 -1.1490698378410487e-01  5.0943904863196124e-02 -8.5869990427386286e-02 -1.1760728947750743e-01  5.0261280872491584e-02 -8.8206582506143993e-02 -1.1884589830838485e-01  5.0603981133233306e-02 -8.0016799160990928e-02 -1.0872098511566203e-01  4.9828134385126593e-02 -8.1710414788127961e-02 -1.1968974336198893e-01  4.9256942583622745e-02 -8.3987556665482507e-02 -1.2110189022605995e-01  4.9632362165003434e-02 -7.4789031325585273e-02 -1.1092155212540397e-01  4.8741714244798652e-02 -7.7385910767869201e-02 -1.2131936303446479e-01  4.8264253273349496e-02 -7.9607744200934596e-02 -1.2285976513534487e-01  4.8690660887855536e-02 -6.9501027683450081e-02 -1.1271536989126184e-01  4.7572025271508674e-02 -7.2810229875040933e-02 -1.2262917456006445e-01  4.7175517578375653e-02 -7.4951542458992979e-02 -1.2425778251315332e-01  4.7686568618534812e-02 -6.4011565433578624e-02 -1.1424601997121678e-01  4.6206946097775259e-02 -6.7908961806217458e-02 -1.2372194504391548e-01  4.5875633132979127e-02 -6.9906939359647383e-02 -1.2540593952611825e-01  4.6530197023113382e-02 -5.8192798158126224e-02 -1.1562942734212692e-01  4.4524285992535079e-02 -6.2618609611109224e-02 -1.2465862216454707e-01  4.4237290208569133e-02 -6.4373348947495759e-02 -1.2638344504979931e-01  4.5134132227993055e-02 -5.1930506795301951e-02 -1.1696220970266571e-01  5.0954771253704630e-02 -8.4695829685795851e-02 -1.1510605152085951e-01  5.1373394549049774e-02 -8.2725915349979653e-02 -1.1001879054005229e-01  5.1928773965857489e-02 -8.4171153496670884e-02 -1.1436749582183851e-01  5.2252436683300409e-02 -8.1439688962934395e-02 -1.1589904928673572e-01  5.2272311596952128e-02 -7.8678140202857919e-02 -1.1201082887526111e-01  5.1903501483491904e-02 -8.1871455018936140e-02 -1.1667565985136027e-01  5.2677599932625774e-02 -7.8522398453591935e-02 -1.1711363531037437e-01  5.3220080100617143e-02 -7.4607786186227321e-02 -1.1364491292534896e-01  5.2887898606428604e-02 -7.8889496528221234e-02 -1.1791072511617236e-01  5.3150753136275396e-02 -7.5425024113673758e-02 -1.1810533930611916e-01  5.4184400823499734e-02 -7.0448141589277091e-02 -1.1504178901916035e-01  5.3881434495205049e-02 -7.5740680972460533e-02 -1.1892013742439582e-01  5.3627878360025222e-02 -7.2154734935084897e-02 -1.1893579382528822e-01  5.5139594540702948e-02 -6.6129297476351101e-02 -1.1628618346019487e-01  5.4856677990282252e-02 -7.2420998723521202e-02 -1.1977239468454619e-01  5.4070596211158603e-02 -6.8728181204311942e-02 -1.1964423608009314e-01  5.6066338634672995e-02 -6.1594707478272295e-02 -1.1742995337418359e-01  5.5792893404269996e-02 -6.8933018360216813e-02 -1.2050800370877077e-01  5.4451321333376337e-02 -6.5171377416707060e-02 -1.2024604218402046e-01  5.6953085070235693e-02 -5.6798731509825458e-02 -1.1849163563499499e-01  5.6681660987278011e-02 -6.5275020620755381e-02 -1.2114158049890977e-01  5.1548818955484889e-02 -8.5451854424085080e-02 -1.1782542542538058e-01  5.2309220703931104e-02 -8.5562364618059078e-02 -1.1776658930572016e-01  5.2094232708751298e-02 -8.4008797170691624e-02 -1.1876139076317881e-01  5.1880528013266834e-02 -8.3859575905590428e-02 -1.1880807819786218e-01  5.2007483906746262e-02 -8.2199399552045277e-02 -1.1946770461732559e-01  5.2302848501879537e-02 -8.1999200374541184e-02 -1.1951029924074059e-01  5.1982080561788990e-02 -8.0166543964580950e-02 -1.1996074978585058e-01  5.2760542889827483e-02 -7.9923369579810555e-02 -1.2000628844509183e-01  5.1959856934984741e-02 -7.7948222338283524e-02 -1.2029359175999152e-01  5.3216401422442813e-02 -7.7673840235952807e-02 -1.2034679968448314e-01  5.1890434188370402e-02 -7.5583503704375318e-02 -1.2051015384647745e-01  5.3628006803290038e-02 -7.5283834498518859e-02 -1.2056332277275017e-01  5.1735644424598937e-02 -7.3116535574541355e-02 -1.2063983154626066e-01  5.3975037567161127e-02 -7.2818073793800661e-02 -1.2067041812032452e-01  5.3203904823328985e-02 -7.2122934205779962e-02 -8.7624047510087663e-02  5.2912767298636462e-02 -6.7210071045662123e-02 -7.7674531790309684e-02  5.3006741500201716e-02 -7.1662713771940820e-02 -8.7469367691188710e-02  5.2470444090414251e-02 -6.4991302014004174e-02 -8.9341520936120578e-02  5.2599160187341787e-02 -5.9744767305871797e-02 -7.9252510195812739e-02  5.2847015573748504e-02 -6.5444230172661225e-02 -8.9617646863672129e-02  5.2030789016894098e-02 -5.8573664551443284e-02 -9.0905493013624133e-02  5.2340438258126315e-02 -5.2673882259949352e-02 -8.0633368765555616e-02  5.2589815174783110e-02 -5.9045038426978405e-02 -9.1300749424854791e-02  5.1648255341203993e-02 -5.2229192731939753e-02 -9.2292087387980073e-02  5.2118480555705199e-02 -4.5748573509254459e-02 -8.1928338469155551e-02  5.2379750213250781e-02 -5.2728885814333507e-02 -9.2809082269710907e-02  5.1284521745107378e-02 -4.5800504055369187e-02 -9.3597508018251771e-02  5.1918505309481111e-02 -3.8768125689756801e-02 -8.3213898753729504e-02  5.2190003785959907e-02 -4.6331559568714015e-02 -9.4238464486448598e-02  5.0907538044358686e-02 -3.9156739841434522e-02 -9.4903079904386900e-02  5.1727352115928993e-02 -3.1566195340412606e-02 -8.4563738958182380e-02  5.1992456457087138e-02 -3.9711045038890100e-02 -9.5668151982445854e-02  5.0485753847766365e-02 -3.2200631036868807e-02 -9.6298297934708163e-02  5.1534049015223765e-02 -2.4011794488173418e-02 -8.6065611192324976e-02  5.1759303641321905e-02 -3.2745921482107233e-02 -9.7181127682143043e-02  5.3283354560544796e-02 -8.2467672262492520e-02 -1.1035624802237989e-01  5.3389007140839974e-02 -7.9469931913988309e-02 -1.0394450107847447e-01  5.3537323837861736e-02 -8.2794225911615338e-02 -1.1090697092068624e-01  5.2705769306925991e-02 -7.9127902717522472e-02 -1.1275953703973385e-01  5.2930565147539216e-02 -7.4729438598183123e-02 -1.0595901485328109e-01  5.2782887164588566e-02 -7.8837939700307683e-02 -1.1217986845158516e-01  5.2032971969588539e-02 -7.5337449258977715e-02 -1.1423757934914103e-01  5.2606418268845739e-02 -6.9968811023703281e-02 -1.0761806623777526e-01  5.2428413784510602e-02 -7.5090896824199047e-02 -1.1365009376407438e-01  5.1435924732324473e-02 -7.1391712690241971e-02 -1.1545017460241828e-01  5.2351062083754202e-02 -6.5132622133978996e-02 -1.0903401624915152e-01  5.2146920529225774e-02 -7.1197591790979287e-02 -1.1487342391551082e-01  5.0842505656511904e-02 -6.7277222307008624e-02 -1.1647828726049236e-01  5.2110134498638778e-