<?xml version="1.0"?>
<VTKFile type="UnstructuredGrid"  version="0.1"  >
<UnstructuredGrid>
<Piece  NumberOfPoints="753" NumberOfCells="3082">
<Points>
<DataArray  type="Float64"  NumberOfComponents="3"  format="ascii">7.286632227865836 3.03274519213382 4.207078988381193  7.197695108995941 3.124988431660427 4.19570795435409  7.189396313753913 2.968405171405308 4.231253797694196  7.201590336437536 2.981442075427543 4.313743653418511  7.205649367047972 3.147810567551592 4.276279123075918  7.29920369902222 3.047042685783688 4.28950747971517  7.213713644126577 2.994555029804258 4.396187570130975  7.2135378064232 3.170719639667588 4.356764801740844  7.311715002371998 3.061414572176883 4.371880546419248  7.22581378567056 3.00767487495595 4.478585374698423  7.221401328214035 3.193641948154074 4.437175939979581  7.324203184368486 3.075789600140675 4.45419482082501  7.237911529162203 3.020760755205141 4.56094337226216  7.229259972247261 3.216525072833408 4.517530541239058  7.336685132302291 3.090123716142268 4.536461114178141  7.250019370335728 3.03378550778124 4.643277609795204  7.23712744044324 3.23933029927319 4.597853748380541  7.349165974553108 3.104380727559842 4.618697233410958  7.262159256667534 3.046705237058347 4.725619679809667  7.245015820755404 3.261997466048173 4.678187211027408  7.361647877226726 3.118529915653846 4.700926350412471  6.986995224276893 2.685967135271245 4.267232117622222  6.912851286054399 2.755152488753718 4.285507153711515  6.904120378896825 2.618057703749016 4.269854105591572  6.914076351629071 2.604343062132202 4.351815162846783  6.921683067417454 2.752813201667625 4.369326870768377  6.998977755830263 2.676682047154523 4.349766570128829  6.923972662547928 2.590676315658786 4.433789348809094  6.930455584006917 2.750519732168721 4.453129015503446  7.01089886569997 2.667435872830925 4.432301235893279  6.933861682294395 2.577014331085556 4.515761143780775  6.93921654139672 2.748233728022233 4.536915690296128  7.022806250519762 2.658190698212573 4.514827024925242  6.943765601234688 2.563331436936502 4.597722537678862  6.947993688023963 2.745927347392484 4.620688358083914  7.0347284838749 2.648929723484579 4.5973433307669  6.953698230184381 2.549607034597142 4.679671760004681  6.956805693411241 2.743569900219202 4.704451307124305  7.046676449940429 2.639631375439093 4.679850223550475  6.963680083429856 2.535821076691055 4.761610874701729  6.965672381847678 2.74112848706462 4.788216432732919  7.058665515259534 2.630264262212357 4.762357419391353  7.078276489861842 3.078160539303382 4.221169090290352  7.085992488744699 3.101627323300701 4.301302532877397  7.093638712190425 3.125161308232561 4.381350920583214  7.101261424114768 3.148704278930195 4.461330562551789  7.108886194183784 3.172209421159515 4.541264720896564  7.116552203968102 3.195652125171572 4.621180270859496  7.124272169566726 3.218960983301321 4.701118654349656  7.468208641950674 3.101794402455512 4.163648726314145  7.418466401535928 3.2064661827626 4.146877102028487  7.332546849990818 3.127800476646134 4.180323271572033  7.343898683905485 3.147598765932012 4.261873454982304  7.429038310457831 3.229478124000213 4.227698242945549  7.483142690069104 3.116036515842793 4.245396732683095  7.355187078403889 3.16748857877525 4.343330027158149  7.439547971259073 3.252582860484845 4.308395747204361  7.498011770874387 3.130345379118904 4.327067347781146  7.366449865451481 3.187383825078495 4.424705381147201  7.450023763433965 3.275686734672242 4.388994400947435  7.512854279725512 3.144649194441611 4.408657886150884  7.377701702424453 3.207230468184825 4.506019410479304  7.460480317331337 3.298732770214455 4.469518242072476  7.527685386039012 3.158902478446129 4.490184000028443  7.388948704274 3.226989915608926 4.587295793459119  7.470919450338905 3.321668756521091 4.549993657160817  7.542514858207786 3.173070010221123 4.571661847954044  7.400193231898595 3.246624525000084 4.668567052794643  7.481350823476999 3.344472089185301 4.630429587176312  7.557349955362561 3.187126931796892 4.653099027908879  6.760434199724414 3.031268088496447 4.252147480820289  6.752566307624556 2.89384017037231 4.285953109104801  6.840672518820599 2.96999643711373 4.268936180764642  6.842858350326619 2.988793270306744 4.350837993878026  6.755055005042832 2.908074922962994 4.368849125033425  6.759057920308705 3.055792431357359 4.33196404375954  6.757672061452213 3.080361563824576 4.411678869446511  6.757500991613427 2.922361799717657 4.451661720964077  6.845005634996367 3.007645543663469 4.432634255400757  6.759947177396054 2.936648003392238 4.534422130908533  6.756298975720928 3.10492534818621 4.491309735007145  6.847157232823135 3.026504011242833 4.514371618914414  6.75496074655226 3.129440848975606 4.570898673448966  6.762418818063145 2.950893714830571 4.617142259217467  6.849338806211382 3.045327560597288 4.59607632422356  6.753662644581636 3.15386115082714 4.650470448912627  6.764936465049373 2.965058666200306 4.699849306922621  6.8515596738092 3.064069356946781 4.677763038283826  6.752391439649059 3.178149056744239 4.730051405341423  6.767509942713211 2.979109307720776 4.782559672256353  6.85381906037817 3.082689536884403 4.759455255422494  7.38875642181271 3.015194890476496 4.190304390547722  7.404322704964906 3.026230525519039 4.272742788081057  7.419829344563563 3.037330026771596 4.35511955428223  7.435312140481209 3.048427191751383 4.437437530758329  7.450785632580601 3.059482030528751 4.51970403633393  7.466255021659199 3.070464022907469 4.601931741293953  7.481727321083979 3.081350579979563 4.684128817829277  6.796054387518032 2.652568772098213 4.286784344396852  6.805073254629777 2.642896332755083 4.36963452702301  6.814032587991504 2.63327880464968 4.452483897968827  6.822978306540522 2.623667347138493 4.535323920598536  6.831937122883463 2.614032266547273 4.618150104906979  6.84093007494268 2.604347868235635 4.700964876769324  6.849982883604065 2.594584938144584 4.783774465878424  6.660277424366673 2.992783056630364 4.259273033061682  6.658265184374438 3.017307108888927 4.338953182251768  6.656228938378888 3.041871078537238 4.418508245408129  6.654206815829832 3.066420778476192 4.497980410331361  6.652217479482476 3.090916992796401 4.57740540198028  6.650264562421577 3.115321194677652 4.656811576454463  6.648353716021818 3.139598989721736 4.7362239288643  7.770387370297348 2.916395362209368 4.114239276231005  7.749088863647986 3.021336541737583 4.117600757873099  7.649770391154993 2.977943531958256 4.141633204223855  7.666689511081853 2.982761010383214 4.221091628593651  7.766468710780987 3.028173302305289 4.195239914292971  7.787897679000459 2.915153514719344 4.191146614725576  7.683599666417891 2.987593393888026 4.300486160462469  7.783830454517751 3.03500842701905 4.272803364406879  7.805424134643955 2.913880773143771 4.267991458203156  7.700498345754356 2.992406859884283 4.379815296314055  7.80117885402685 3.041820100918962 4.350294388122862  7.822948994470151 2.912575185976773 4.344771567758952  7.818516490618102 3.048588645537564 4.427728799665644  7.840463121504788 2.911227243375305 4.421498137697552  7.717387226453662 2.9971800709852 4.459081167617963  7.835849492770503 3.055301397159667 4.505116281725866  7.857960942106604 2.90983410634598 4.498180812020925  7.734268758751052 3.001896099622873 4.538300118604146  7.853195533684761 3.061950278419348 4.582473709022223  7.875439136022266 2.908407323107809 4.574840353087378  7.75114628754545 3.00654559868325 4.617478083858899  6.819280287152956 2.521836626091575 4.261578177082985  6.829492261626423 2.499972004267888 4.34130384219929  6.839650763093399 2.478143034858648 4.421045470289369  6.849798819772141 2.456313289192816 4.500782267969891  6.859959700566347 2.434460613144489 4.580505223915586  6.870149559255236 2.412566884810039 4.660211287316168  6.88038116215389 2.390611537252404 4.739904044363982  7.65545345745675 2.85410992411247 4.13833169907562  7.674639839807348 2.847934322893389 4.216366329979082  7.693847011021663 2.841738778170165 4.294344724678292  7.713050484140778 2.835512537883707 4.372261973360028  7.732238957276956 2.829246659662395 4.450125690614372  7.751405378709181 2.82293808095367 4.527948419963705  7.770546970547794 2.816590884400966 4.605746202977956  6.518292061767609 2.886513217272681 4.287868206614553  6.414886666010758 2.828438760019545 4.300094531031327  6.539104172724381 2.79540343491445 4.304468809267575  6.538964977619434 2.803101905622879 4.38848305087555  6.409319769115878 2.84351793871333 4.382889843547717  6.515313272489648 2.908064888837294 4.369009788197206  6.538762983959554 2.810837768638015 4.472393863935589  6.403719367147415 2.858600491307051 4.465588294760209  6.51230599762596 2.929632359949406 4.450039547366128  6.538560517595534 2.818555374407924 4.556242058795321  6.398125972701378 2.873655135825055 4.54821268683351  6.509305468298466 2.951183049036095 4.530997061419291  6.538386427136715 2.826222537213772 4.640050882616968  6.392562890842965 2.888657092464841 4.630791515566786  6.506332517726893 2.972683645447318 4.611910400885458  6.538258872200716 2.833812974580159 4.723837820490933  6.387042760359718 2.903585273024044 4.713344309472524  6.503400258155998 2.994103910451622 4.692798952531911  6.538188229611221 2.841305707985847 4.807616849436891  6.381571550728668 2.918424228035057 4.795889585981294  6.500523082055797 3.015411030409501 4.773675236122117  6.436612316500061 2.700588267027124 4.304756185473353  6.433220977840971 2.702282238453268 4.388879426907413  6.429766719897874 2.704010392323708 4.472912680412295  6.426302157766407 2.705725510481791 4.556885381572786  6.422859474416689 2.707400264882334 4.640815549619278  6.707460071256402 2.552388664415056 4.283774735068264  6.716866814306838 2.533196709887851 4.364767204805332  6.726212252982296 2.514051689557354 4.445763977073996  6.735542430449474 2.494906120791183 4.526750497560464  6.744885601811126 2.475733148241161 4.607721186544528  6.754262333362409 2.456511397014257 4.688674039501657 
[...]
<PointData  Vectors="f_24"> 
<DataArray  type="Float64"  Name="f_24"  NumberOfComponents="3" format="ascii">-2.4870085505895273e-03 -1.4417857211602931e-03 -3.0524336107417293e-02  -2.4189179514583913e-03 5.1840816966482704e-03 -2.5693333711404854e-02  -1.2134315243118978e-03 -4.2572258461498064e-03 -3.0716618579911523e-02  -2.9492388858395684e-04 -6.9716866858729153e-03 -3.3592472253653118e-02  -1.0461696993760501e-03 6.2433216783996893e-04 -2.7531207169559289e-02  -1.4157861222677368e-03 -4.7463012778360359e-03 -3.3226335102790473e-02  7.8355692170960049e-04 -9.2706836264892720e-03 -3.5350609249512728e-02  3.6714795241998637e-04 -3.3964988725068046e-03 -2.8489675065465157e-02  -2.2207613670849213e-04 -7.6159622521436371e-03 -3.4882418870752573e-02  2.0200752982392073e-03 -1.1405979817540565e-02 -3.6203836689526744e-02  1.8578093340724771e-03 -7.1333543249303957e-03 -2.8679931057159411e-02  1.1138051386048056e-03 -1.0284966295892938e-02 -3.5676075011063950e-02  3.4017473834859050e-03 -1.3511938755969595e-02 -3.6321020691766466e-02  3.4474978338415630e-03 -1.0762986009224885e-02 -2.8207799674337012e-02  2.6045032195965143e-03 -1.2892413915746866e-02 -3.5748018827528281e-02  4.9198376798586822e-03 -1.5669904891184982e-02 -3.5827823910842542e-02  5.1474000978713932e-03 -1.4403631842119720e-02 -2.7158579312844704e-02  4.2535146877644096e-03 -1.5531820582987474e-02 -3.5211914867356454e-02  6.5694884056385783e-03 -1.7926602558674048e-02 -3.4799747986140515e-02  6.9575141982878624e-03 -1.8141747660602846e-02 -2.5593574293872601e-02  6.0404082154750663e-03 -1.8277206075733556e-02 -3.4183092127828593e-02  2.1574146536510025e-03 -1.9118426637714004e-02 -3.1470646708288363e-02  2.3053134716094505e-03 -1.4073345498793827e-02 -3.0892247329832315e-02  3.1178973448944443e-03 -2.2314032672661036e-02 -3.0410928494641071e-02  3.2472684925140935e-03 -2.0201254744092550e-02 -3.3417738557888446e-02  2.7891741862698907e-03 -1.4173152948091957e-02 -3.4145812646341783e-02  2.4140079427193029e-03 -1.7899357842230901e-02 -3.4693661683020127e-02  3.5842310520630494e-03 -1.8295122989454928e-02 -3.5145935286038966e-02  3.4646323608952426e-03 -1.4269703002257307e-02 -3.6084819743182422e-02  2.8937078120005746e-03 -1.6795047057267806e-02 -3.6624910270303367e-02  4.0927625856895331e-03 -1.6603102106588646e-02 -3.5878709111590371e-02  4.2789719152508199e-03 -1.4361740936810906e-02 -3.7026387535519338e-02  3.5492755111761263e-03 -1.5799298671647546e-02 -3.7554215439628946e-02  4.7255626222122522e-03 -1.5080793012882716e-02 -3.5835315759436860e-02  5.1986113989268019e-03 -1.4500048900378188e-02 -3.7181225419716704e-02  4.3415183472605232e-03 -1.4913743210832501e-02 -3.7703181364329021e-02  5.4435666652018315e-03 -1.3694348573189335e-02 -3.5166374666565518e-02  6.1928874458583990e-03 -1.4714774210726353e-02 -3.6699736667843999e-02  5.2356522840320309e-03 -1.4135907396179415e-02 -3.7223772730277577e-02  6.2013475811721359e-03 -1.2423024155828861e-02 -3.3944449990553204e-02  7.2232401040819467e-03 -1.5029456519230036e-02 -3.5724606461991208e-02  6.2197698409701338e-03 -1.3481562678567099e-02 -3.6176690685974872e-02  -1.1255164974200973e-03 3.7107684692960596e-03 -2.5666338413246701e-02  1.3939333105863219e-04 -6.5805254443182634e-04 -2.7519665405200427e-02  1.5011452905411553e-03 -4.4271096504545906e-03 -2.8457070112808101e-02  2.9442097348903605e-03 -7.9056328258337635e-03 -2.8613222786004262e-02  4.4697274073951555e-03 -1.1283722886114608e-02 -2.8106977587548210e-02  6.0868462081526443e-03 -1.4678488349351494e-02 -2.7028698004363461e-02  7.8138821601249145e-03 -1.8153608479882111e-02 -2.5436040625003438e-02  -4.5937609867557176e-03 1.4438732508110798e-03 -3.1409572164031140e-02  -4.7178727984826105e-03 8.3143237279475219e-03 -2.6263556093955535e-02  -3.4953819921311772e-03 3.9466897117547226e-03 -2.8002442903874155e-02  -2.2000586053269331e-03 -3.9046056567647428e-04 -3.0225527431814777e-02  -3.3262126354474289e-03 3.3643560862623156e-03 -2.8132531521641833e-02  -3.4859104167912431e-03 -2.2363370675181171e-03 -3.4176879889338888e-02  -8.5452066652157827e-04 -4.2097826852876474e-03 -3.1459161585208166e-02  -1.9288262004856589e-03 -1.1427513549175164e-03 -2.9046604332633074e-02  -2.2763881692184382e-03 -5.5882536257056926e-03 -3.5903340176671475e-02  6.0028086044985342e-04 -7.7974679700867841e-03 -3.1887839499675073e-02  -4.2528947874788452e-04 -5.3936067819071367e-03 -2.9169528001609279e-02  -9.1680489462616602e-04 -8.7377147446761200e-03 -3.6758167473877945e-02  2.1994616418418104e-03 -1.1298493386458386e-02 -3.1628706006516717e-02  1.2384901956940979e-03 -9.5387661319351735e-03 -2.8626818342019082e-02  6.4518375490524923e-04 -1.1805734016220372e-02 -3.6886353271329018e-02  3.9610420193263154e-03 -1.4820755431589880e-02 -3.0784100506097561e-02  3.0965337051835117e-03 -1.3693843843425594e-02 -2.7527333645142166e-02  2.4474138785463341e-03 -1.4888648904176903e-02 -3.6415066820954689e-02  5.8791916188921170e-03 -1.8437167705007272e-02 -2.9449254786330394e-02  5.1451976123929113e-03 -1.7948344727079665e-02 -2.5960561045413302e-02  4.5196093921284217e-03 -1.8073958324513452e-02 -3.5467331311984776e-02  1.2628169289415187e-03 5.1089175929765734e-03 -2.2939987951175810e-02  2.4252035115910832e-03 -3.5410067176686478e-03 -2.7115835336602914e-02  1.3556584268390492e-03 -2.5138404635745504e-04 -2.6181595045837391e-02  2.5834374340676400e-03 -3.8672183240757540e-03 -2.8444394741595835e-02  3.4720628235968220e-03 -6.3970208087028371e-03 -2.9798023447689725e-02  2.7509819280018026e-03 4.9102932000951545e-04 -2.4510609857642411e-02  4.2124821823539037e-03 -3.4930000598661784e-03 -2.5107970778960344e-02  4.5901998855038305e-03 -8.8086090715241202e-03 -3.1240286592204611e-02  3.8322735745433957e-03 -6.9590572435066543e-03 -2.9557163042345087e-02  5.7515148598176989e-03 -1.1031113556738033e-02 -3.1747821905298651e-02  5.6792299949271260e-03 -7.1303687673146500e-03 -2.4928914897767170e-02  5.1514986492965818e-03 -9.8109711222558217e-03 -2.9802611955697656e-02  7.1539856973267110e-03 -1.0605870056485894e-02 -2.4088981455413105e-02  6.9526140876278730e-03 -1.3174077879697382e-02 -3.1504599181866703e-02  6.5120596282139684e-03 -1.2562468853133038e-02 -2.9350056408642588e-02  8.6216851034996191e-03 -1.4059494281148376e-02 -2.2688591982920420e-02  8.1671389010005042e-03 -1.5338576046662172e-02 -3.0655121883439534e-02  7.8980252652660690e-03 -1.5325106632779369e-02 -2.8311810513410557e-02  1.0043354026544181e-02 -1.7582405971927183e-02 -2.0799520050196890e-02  9.3823449465520823e-03 -1.7588535190758960e-02 -2.9298983924535268e-02  9.2732131578720355e-03 -1.8173867020120065e-02 -2.6810183009660062e-02  -3.3235789146460670e-03 -3.2618854509585803e-03 -3.2570610028017484e-02  -2.3782045301968088e-03 -6.0093697898479992e-03 -3.5617203212183472e-02  -1.2795470317576744e-03 -8.4643495683546389e-03 -3.7580477718136662e-02  -6.9314529812836960e-06 -1.0765203304170341e-02 -3.8634497337238227e-02  1.4624981090160609e-03 -1.3027694254513765e-02 -3.8938118285840088e-02  3.1443640308232807e-03 -1.5332106445641727e-02 -3.8625032202108465e-02  5.0434871850848538e-03 -1.7736228497268493e-02 -3.7796768284896753e-02  3.6446927181344835e-03 -1.8765965976998502e-02 -2.9867809532180201e-02  3.8483603486541250e-03 -1.7544373212571445e-02 -3.3067426858906047e-02  4.2808070333688287e-03 -1.6438569980654492e-02 -3.4951390004637123e-02  4.8458258240560558e-03 -1.5451706654253312e-02 -3.5806856016667388e-02  5.5025446155568900e-03 -1.4576830836510126e-02 -3.5866964101713979e-02  6.2240113109853310e-03 -1.3805431389471981e-02 -3.5289908096753343e-02  7.0017656892917409e-03 -1.3139961860970686e-02 -3.4135442536279141e-02  2.1249232599304378e-03 4.6523396878610530e-03 -2.2920898351195488e-02  3.5258680517030695e-03 1.5549957145124762e-04 -2.4598692291202942e-02  4.9461650512603568e-03 -3.7016653931851965e-03 -2.5300088576031370e-02  6.3638852474040674e-03 -7.2102111506993196e-03 -2.5169754549462006e-02  7.7726702675703354e-03 -1.0557190148567337e-02 -2.4358746463913124e-02  9.1580368323763480e-03 -1.3875949135431768e-02 -2.2972062225067334e-02  1.0502654687508436e-02 -1.7237286388123448e-02 -2.1046988939191481e-02  -6.9823342712685040e-03 -1.0732771299560169e-02 -4.0879672486171824e-02  -7.2466270482911700e-03 -3.8570669844011844e-03 -3.8984105814582344e-02  -5.8426776928353586e-03 -6.6436831455217995e-03 -3.7999521248214901e-02  -5.1117324074355010e-03 -8.2114353056793113e-03 -4.1483751901642420e-02  -6.4971444466523417e-03 -5.8537658759182489e-03 -4.2470611788994632e-02  -6.3616412631339672e-03 -1.1125594990859590e-02 -4.4572786713319136e-02  -4.2018662856363725e-03 -9.6628818195788491e-03 -4.3835582998799770e-02  -5.5829703778690976e-03 -7.7584696473122433e-03 -4.4811750588067294e-02  -5.5537067235377890e-03 -1.1559247252981556e-02 -4.7150478669085574e-02  -3.0721328736730167e-03 -1.1091160436380735e-02 -4.5258131232457879e-02  -4.4647233381877437e-03 -9.6126921207610582e-03 -4.6230642142690889e-02  -4.5330939568456489e-03 -1.2035963305898151e-02 -4.8798659327397284e-02  -3.0841284209227353e-03 -1.1478858980095177e-02 -4.6875614687770212e-02  -3.2528218037980693e-03 -1.2548112664212414e-02 -4.9664884441595086e-02  -1.6669456759780125e-03 -1.2541195442510023e-02 -4.5915771463099476e-02  -1.3687650447124853e-03 -1.3382100206245817e-02 -4.6869849423754786e-02  -1.6544600863608869e-03 -1.3122526979780873e-02 -4.9868301353976310e-02  4.9557588335382033e-05 -1.4053188979407985e-02 -4.5937829067607704e-02  7.5948436702230214e-04 -1.5353714225824551e-02 -4.6358306606662951e-02  3.3926268970686004e-04 -1.3779177624503740e-02 -4.9518492873196977e-02  2.1207929553354213e-03 -1.5652847025308666e-02 -4.5448215885639805e-02  4.2299811773987327e-03 -2.7501068428386819e-02 -2.8615471882540808e-02  4.1183776498277995e-03 -2.4050382448214370e-02 -3.1077488226794282e-02  4.2410511427585064e-03 -2.1008735901044351e-02 -3.2287628490893727e-02  4.5263691456046921e-03 -1.8274365106863324e-02 -3.2555250569315401e-02  4.9229778354645520e-03 -1.5764072678743305e-02 -3.2078931204170602e-02  5.3938663740349460e-03 -1.3413999419436237e-02 -3.0992977474721278e-02  5.9159289848929354e-03 -1.1175025753250059e-02 -2.9400860914105695e-02  -5.1721042629759304e-03 -1.4716844323774578e-02 -3.9372319927584637e-02  -4.6862316023755929e-03 -1.4341087938119399e-02 -4.2987472175127217e-02  -3.9685095257077632e-03 -1.4082108395703091e-02 -4.5499170431584628e-02  -3.0030545242031403e-03 -1.3866212602525225e-02 -4.7081199835252892e-02  -1.7648679593208240e-03 -1.3697083878062686e-02 -4.7884782349037008e-02  -2.1765645341926973e-04 -1.3588901262928471e-02 -4.8040326364635046e-02  1.6975038076859235e-03 -1.3577871739071825e-02 -4.7671765210534733e-02  3.7347718733282730e-03 -3.0305949642147720e-05 -2.4791896907022482e-02  4.6916727373594461e-03 -2.5009706126787553e-03 -2.5315619634327602e-02  4.3003549421263181e-03 -6.3292907906174027e-03 -2.7021954862484446e-02  5.2537894871176804e-03 -8.3838846250941200e-03 -3.0061191910601835e-02  5.9437120875964998e-03 -5.3020502291648416e-03 -2.7977185614200581e-02  4.9984504586855381e-03 -3.5446954313158143e-03 -2.7036646453054206e-02  6.2301103781169653e-03 -1.0119939355208156e-02 -3.1713346641960252e-02  7.1431443093279067e-03 -7.7635346993282870e-03 -2.9202526460301376e-02  6.2596285734459623e-03 -6.4687148674595464e-03 -2.8042428346179083e-02  7.2069375081994192e-03 -1.1670307170951789e-02 -3.2350857777029042e-02  8.2776908519822476e-03 -1.0027850882253279e-02 -2.9463530607938250e-02  7.5030287091194447e-03 -9.1756124105036394e-03 -2.8106902083927219e-02  8.1633345083656043e-03 -1.3145697250164007e-02 -3.2201549632867699e-02  9.3485739605890777e-03 -1.2219265550928853e-02 -2.8963387553538309e-02  8.7159131986851192e-03 -1.1819204703983966e-02 -2.7424409648264432e-02  9.0916401522509824e-03 -1.4622577009291024e-02 -3.1427134232829480e-02  1.0343724501622239e-02 -1.4410664711971909e-02 -2.7836465152737147e-02  9.8848093320460951e-03 -1.4478836827678181e-02 -2.6133881425144029e-02  1.0003117373174710e-02 -1.6179335800590427e-02 -3.0156557793037640e-02  1.1240491484606553e-02 -1.6666562859689895e-02 -2.6239399434653053e-02  1.1001347760921473e-02 -1.7140456659321839e-02 -2.4367645657485643e-02  5.2483360179733504e-03 -1.0455722341081948e-02 -2.7130976865406782e-02  6.0979784671585310e-03 -1.1194025332264160e-02 -3.0404429010264158e-02  6.9144006725069948e-03 -1.1814972208047650e-02 -3.2299643111061441e-02  7.6965494450895455e-03 -1.2396950068117883e-02 -3.3097628064197429e-02  8.4379447547140978e-03 -1.2998892087195171e-02 -3.3070972410954580e-02  4.7611937461917962e-03 -2.3901624838269214e-02 -2.8718941115630420e-02  4.6812520908901083e-03 -2.1216043794735562e-02 -3.1470830716190619e-02  4.8787587886956526e-03 -1.8886419437373094e-02 -3.2875525156079430e-02  5.2064537818855196e-03 -1.6793176894672589e-02 -3.3289260649751296e-02  5.6110207250067556e-03 -1.4860735764343012e-02 -3.2931437900458986e-02  6.0678271037251782e-03 -1.3052884283028086e-02 -3.1955003564449067e-02  6.5864647216971424e-03 -1.1351518357102087e-02 -3.0505411850417993e-02  -7.0961348820751712e-03 2.1787007385696542e-03 -3.5396231173181282e-02  -6.1780506812286846e-03 -1.2543682870205062e-03 -3.8421233615696222e-02  -5.1507665567063002e-03 -4.4359642106797745e-03 -4.0399741170877086e-02  -3.9395058792285748e-03 -7.4677164090970792e-03 -4.1469252908232106e-02  -2.4728447398405890e-03 -1.0432820099435617e-02 -4.1787209414787987e-02  -6.8122942586717854e-04 -1.3402804874918005e-02 -4.1487743980549600e-02  1.5088910108507164e-03 -1.6437383617913994e-02 -4.0684725581629014e-02  -5.8065251809906277e-03 6.0117612354325628e-04 -3.3853532035158215e-02  -4.8045846668780031e-03 -2.6447816354493101e-03 -3.6915420713818724e-02  -3.7226816500580719e-03 -5.6986615329567072e-03 -3.8936601409449843e-02  -2.4603911046848278e-03 -8.5850617165922297e-03 -4.0041724659632613e-02  -9.6030749745182374e-04 -1.1396847169719870e-02 -4.0396384956136358e-02  8.3390517793627771e-04 -1.4216981849532634e-02 -4.0138766409117413e-02  2.9896215836717433e-03 -1.7125111034341715e-02 -3.9367258433073982e-02  1.5274489837367306e-03 -6.3914802279660685e-03 -1.9899299975288640e-02  2.5014579413258080e-03 -8.0187494096896888e-03 -2.2954306345049788e-02  4.2959582750945443e-03 -1.2471911476094371e-02 -2.1609077959171646e-02  3.3925047765700693e-03 -1.1336552556256253e-02 -1.8278316158452289e-02  6.2103987388196676e-03 -1.7026042077433079e-02 -1.9777451881798105e-02  5.4148503988602145e-03 -1.6387608659568658e-02 -1.6228550737554265e-02  3.2966888932646462e-03 -2.3714712202711290e-03 -2.6146036151131251e-02  4.4221068706898669e-03 -5.4573734178276429e-03 -2.8684175821072622e-02  5.5738481037237685e-03 -8.0258121686872710e-03 -2.9912689518794552e-02  6.7519389417981636e-03 -1.0395422267371626e-02 -3.0205653332965522e-02  7.9304384472251004e-03 -1.2708712676112153e-02 -2.9753026083832883e-02  9.0978689795758495e-03 -1.5043415684791494e-02 -2.8690485062998546e-02  1.0260809373467227e-02 -1.7431846318372104e-02 -2.7148958516433772e-02  -3.9311981463636264e-03 1.1446847110723924e-02 -2.2233216110272000e-02  -2.3081002102649183e-03 5.9761842042553937e-03 -2.3440946360548283e-02  -7.5653561759589849e-04 1.0509269099814012e-03 -2.3951875545492093e-02  8.2625707512124413e-04 -3.5558876160014250e-03 -2.3761139394525590e-02  -1.9420524486990919e-03 1.0729631119102865e-02 -2.0926035033637901e-02  -3.4394138936625512e-04 5.3042014729226946e-03 -2.1868445734787901e-02  1.2425657282135046e-03 5.5943463311543728e-04 -2.2100327889379778e-02  2.8449621547408750e-03 -3.8232512342938323e-03 -2.1687890335617219e-02  4.4924699858497454e-03 -8.0558108564863715e-03 -2.0688269333337960e-02  6.2075088600060261e-03 -1.2279154481357833e-02 -1.9152688169726019e-02  8.0132394015715539e-03 -1.6595785908276418e-02 -1.7117105255008633e-02  3.4339599838649907e-03 5.6469525928026622e-03 -2.1960872547835922e-02  2.9553753583097544e-03 1.2350456497466942e-02 -1.8081533453722178e-02  4.0898106598322185e-03 5.8661275806829952e-03 -2.1513330036082672e-02  4.9773860325669434e-03 1.0718054116252555e-03 -2.3457982813413207e-02  4.7526230158509951e-03 6.7982711447270592e-03 -1.8773910533979615e-02  5.6967097310220080e-03 1.3405367305700305e-03 -2.3087776788258674e-02  6.4478159839674015e-03 -2.8201756168753367e-03 -2.4037224083545666e-02  6.4468320772310449e-03 1.9881321887006932e-03 -1.8590126852932532e-02  7.1962866712084149e-03 -2.4972290638167025e-03 -2.3721385617611050e-02  7.8674301195541807e-03 -6.3506596979281136e-03 -2.3747927820921291e-02  5.2977185024049933e-03 -3.2466376217006959e-02 -2.6285446400781350e-02  5.0170244012578040e-03 -2.7861912189378755e-02 -2.7996456333854308e-02  4.9397038419283510e-03 -2.3888578139368889e-02 -2.8681419055513233e-02  5.0102369485202211e-03 -2.0342534894971162e-02 -2.8481196835666252e-02  5.1775104989828244e-03 -1.7074938551108292e-02 -2.7562868953769214e-02  5.4038946181579530e-03 -1.3985340115977692e-02 -2.6052510813854603e-02  5.6613357786955646e-03 -1.1017386145900532e-02 -2.4008375139796208e-02  -8.0861514706173580e-05 -2.4739403231466969e-03 -2.8709927680787249e-02  8.9051476001122281e-04 -5.6547011415715104e-03 -3.1310647821458100e-02  2.0441398000672502e-03 -8.3583235317589138e-03 -3.2778138804946538e-02  3.3127185050003741e-03 -1.0847173587021856e-02 -3.3376297146676087e-02  4.6816008038017588e-03 -1.3272853412530029e-02 -3.3263407917841700e-02  6.1489823644567147e-03 -1.5728826734128329e-02 -3.2557517494011458e-02  7.7326827377147724e-03 -1.8276466767669416e-02 -3.1368506303900208e-02  -6.7033251753260683e-03 1.7994420197628873e-03 -3.1136984798869265e-02  -6.6437226430113823e-03 -3.1095432935712101e-03 -4.0661763810867987e-02  -5.2106483860369958e-03 -3.2446043746044003e-03 -3.6861382959716020e-02  -7.7485795939692065e-03 9.3581884711530460e-04 -3.9956589573529794e-02  -3.7865944785200637e-03 -7.3737639221388394e-03 -3.6719815760242393e-02  -5.3821437130556838e-03 -3.2347880907029531e-03 -3.0079643861571595e-02  -5.2886856762840518e-03 -7.0047568133766768e-03 -4.0621660689801296e-02  -2.0280663292645495e-03 -1.1447144436001590e-02 -3.5987918813803067e-02  -3.7034778106380083e-03 -8.2012058976288771e-03 -2.8454808090641132e-02  -3.5973014939161521e-03 -1.0834874912527721e-02 -3.9957952924402566e-02  1.7325776698088851e-04 -1.5550915947494144e-02 -3.4769214311521808e-02  -1.5959793713192798e-03 -1.3200209073066040e-02 -2.6383066643906012e-02  -1.4896152791811614e-03 -1.4683250449398505e-02 -3.8708311942599639e-02  3.0929195644012154e-03 -1.1609509947659889e-02 -2.9474714066522210e-02  4.3001674047831468e-03 -1.6137241170995423e-02 -2.9238376083354434e-02  4.5625016800816855e-03 -1.5554207967252700e-02 -3.2518878349054446e-02  3.6618399575575056e-03 -1.2339420782193041e-02 -3.2715096722123041e-02  5.0638440038708946e-03 -1.4984294592901397e-02 -3.4406902426291755e-02  4.4025536022405205e-03 -1.2940443580895172e-02 -3.4637424114585175e-02  5.6816350884529698e-03 -1.4508973819178528e-02 -3.5259128212673747e-02  5.2508659101224093e-03 -1.3522430116837753e-02 -3.5543241518181168e-02  6.3642810182093935e-03 -1.4139894940311126e-02 -3.5310195396498580e-02  6.1715493221781948e-03 -1.4127671609740721e-02 -3.5654689051427005e-02  7.0914992348520903e-03 -1.3871200079304870e-02 -3.4726033140548687e-02  7.1400654938703631e-03 -1.4796405938381564e-02 -3.5128782708177514e-02  7.8685366073328947e-03 -1.3681095856185359e-02 -3.3607954453889061e-02  8.1289055417592578e-03 -1.5547474436510849e-02 -3.4069042838847187e-02  3.7766911871709029e-03 -9.1582349375472598e-03 -2.8313978569914747e-02  4.8343325943810021e-03 -1.3060254162533676e-02 -2.8265756253772673e-02  5.3993495772293879e-03 -1.3257590362336577e-02 -3.1562850156258988e-02  4.4504881934004335e-03 -1.0481478186354339e-02 -3.1437009430727990e-02  6.0543101523635465e-03 -1.3318494320802505e-02 -3.3447323963059092e-02  5.2822667392417580e-03 -1.1636814109460143e-02 -3.3285349196911902e-02  6.7525947055697595e-03 -1.3420678708067625e-0