<?xml version="1.0"?>
<VTKFile type="UnstructuredGrid"  version="0.1"  >
<UnstructuredGrid>
<Piece  NumberOfPoints="697" NumberOfCells="2872">
<Points>
<DataArray  type="Float64"  NumberOfComponents="3"  format="ascii">3.043337470832685 3.893618346309415 2.516291880899538  3.171609049366181 3.87286483450106 2.490000571147053  3.087798057669787 3.917798524558844 2.390938770672379  3.100068746045136 3.986679719396641 2.406217108565277  3.189780426668619 3.937017967640141 2.512142779613798  3.058048653443291 3.959331837489706 2.535455499325632  3.072629858494173 4.025016123243442 2.554580916281363  3.207731134543272 4.00123690506112 2.534209508750396  3.11222365165228 4.055480385464032 2.421455740326946  3.087126577165476 4.090655244845169 2.57367948018021  3.225597639964185 4.065490386986919 2.556268225717969  3.124294686886377 4.124235852928926 2.436668903568791  3.101595944389625 4.156252966510735 2.592770270060065  3.243470314686859 4.129735858119296 2.578342823125424  3.136328223147776 4.192948788633448 2.451869455965109  3.148360327494768 4.261610757842181 2.467062592527846  3.261412337820681 4.193932759584754 2.600438559553552  3.116076457221233 4.221786456845985 2.611855269395502  3.160416617749657 4.330196412968883 2.482263537373534  3.279469054816594 4.258040411934458 2.622554988535147  3.130607439357192 4.287250560798807 2.630930292895758  2.263739095604346 3.989393029589581 2.675945984533044  2.353332177045723 3.994619097826134 2.592558501573133  2.256276178222203 4.015416106807783 2.526298349788457  2.264968825426187 4.082125262391201 2.536177822936178  2.362181260409959 4.061099769480291 2.604097458431347  2.271501186037751 4.054915535039754 2.690033470458574  2.370953939071256 4.127457379380338 2.615659680856523  2.279208577712434 4.120307232794939 2.70411118756  2.273557138964084 4.148675326484358 2.546076117649395  2.37967178116498 4.193684129113223 2.62721700500717  2.286867058172065 4.185550555348672 2.718165349011371  2.282081941706424 4.215086121270216 2.555969156549196  2.38835590426643 4.259788413870996 2.638759640997301  2.294495572600272 4.250657298503577 2.732199004058616  2.29057960994721 4.281364681450384 2.565847390619986  2.302112217365663 4.315644889956825 2.746210558234514  2.39702612923506 4.325764659646089 2.650276687471055  2.299075905012622 4.347511951149433 2.575701648977112  2.309755593434202 4.38051575762164 2.760168831391613  2.405725256870031 4.391619731732896 2.661740250436861  2.307613155229197 4.41352349930434 2.585508145750961  2.763697831002166 3.80656762028744 2.924302968967245  2.937841376857757 3.745683902424954 2.924913756808267  2.864841965034201 3.817713144340849 2.839041648790874  2.882830809276775 3.876076891256537 2.866633481769498  2.958527547519826 3.799981706566086 2.955295621813418  2.782259133316284 3.863797288864566 2.952854799841286  2.900656232552805 3.934441026662773 2.894151159603251  2.979001729636716 3.854389493958998 2.985598182607595  2.800646822256732 3.921021146388345 2.98133106196736  2.918395470011302 3.992781882119343 2.921633509939295  2.999397417380621 3.908834387853551 3.015883249079161  2.818947796413277 3.978209414798778 3.009767575638004  2.936114936464128 4.051069292741908 2.949102566650463  3.019801061690873 3.963262369460008 3.046175643611598  2.837223469155231 4.035334156693275 3.03818788263315  2.953867836754327 4.109270322943645 2.976563075990807  3.040285360772465 4.017619132174453 3.076485436260492  2.855519120443873 4.092359774850128 3.066600049902711  2.971702606167059 4.167359087584215 3.004002917931622  3.060918687257533 4.071839953802469 3.106811374301039  2.873900491734001 4.149251655122272 3.094990719994813  2.916104813198131 3.953040536428476 3.13618114088367  2.935945281642192 4.007069761203581 3.16736410711395  2.955898714666129 4.060968549148182 3.198554770292423  1.584888979483782 3.971873803048069 2.81805364813742  1.704589237651633 3.954768489740561 2.893389942584836  1.715408841158685 3.988306171441774 2.769973055781669  1.714167204545384 4.051216040728891 2.786196891033152  1.703640590982044 4.017080313249979 2.912142386588269  1.583429463856866 4.034245349245229 2.834717634993238  1.713051795102597 4.114075718146214 2.802339031270728  1.702829985391363 4.079360550549228 2.930812926266258  1.582094707263336 4.096603241440952 2.851291969631515  1.712008630220043 4.176857338584278 2.818418340494244  1.702094495581182 4.141591416487471 2.949424525139237  1.580832205226649 4.158928619491455 2.867804714065569  1.710979495598554 4.239567081180092 2.834465843035621  1.701371301387602 4.203770883452809 2.968008199909121  1.579587865525417 4.22121513459572 2.884296872488574  1.709910108931396 4.302204138890175 2.850509711557904  1.700597866968399 4.265891147974536 2.986594679845594  1.578305037920851 4.28345425226337 2.900807280331195  1.708714785254853 4.364760046885119 2.866601862397621  1.699685988150501 4.327938806256348 3.005236971467744  1.576903205957737 4.345636209256211 2.917386135441189  2.794191844673088 3.90488545313696 2.669328444773721  2.921140361878709 3.899845557949112 2.587871617952234  2.816849937370849 3.934525772453309 2.523120351328311  2.828482681919545 4.001959111653444 2.537283542134021  2.934777867499268 3.965204442430245 2.607001253406865  2.808397633846603 3.969242349457228 2.688973643869843  2.840027887005366 4.069284300979682 2.551458561369035  2.94830676643261 4.030476038107774 2.626105409122631  2.822484751245394 4.033529126249054 2.70860613217586  2.851511346418542 4.136513606291817 2.565624701521581  2.961763186563983 4.095677968069948 2.645191528207802  2.836501890747275 4.097738246721776 2.728220820838875  2.86295682343348 4.203659886701319 2.579775555449288  2.975188240398183 4.160812453399219 2.664262524602912  2.850486131424828 4.161864426641857 2.74781623233423  2.874390247104927 4.270726823769182 2.593901389900857  2.988618925550502 4.225872938986453 2.683313451105667  2.864473169409977 4.225900750832853 2.767383025443874  2.885837663531267 4.337718291971792 2.607984841311268  3.002087161550537 4.290853182798684 2.702335970455302  2.878502719150611 4.289831070265084 2.78690223378837  2.985814052791135 3.804206092899993 2.787799745308837  3.113319936793327 3.78533303162311 2.725971621106687  3.019808268997354 3.857579050138642 2.654316635228986  3.036908559155329 3.919151848739952 2.67934191289151  3.135201337393985 3.840749000570707 2.756185540299115  3.005504908109335 3.86132384021976 2.816621557242786  3.053841544950082 3.980728516074576 2.704294784749723  3.156834457289667 3.896319890317935 2.786303476440875  3.024998159002847 3.918519990714322 2.845363423041979  3.070700097390565 4.042295015562946 2.729224802565482  3.17838688636772 3.951959272531123 2.816412385912273  3.044414648690567 3.975738204794887 2.87408469966871  3.087552458603553 4.103826766898949 2.754155456186254  3.199972073489881 4.007595711296102 2.846549998479365  3.063836496865434 4.03293154694686 2.90281073209882  3.104446885541222 4.165297832764605 2.779094311363818  3.221663100232127 4.063158716789412 2.876727087730811  3.083328516659992 4.090056831169459 2.931550801662935  3.121418147653789 4.226696540324741 2.804044059276406  3.243509183426055 4.11857492457797 2.906943342548374  3.102945750671807 4.147077674273476 2.960303624474087  2.479026530147378 4.004140519563579 2.360655055358905  2.474209205106387 3.989116910784032 2.518497675677448  2.599596721167602 3.982085677946185 2.420502409723984  2.608425856893569 4.050772035535102 2.428066657576303  2.483586044213898 4.056582653611043 2.527767777150448  2.487846639952106 4.072977689610798 2.366275121682658  2.617195064539969 4.119354484928551 2.435681411829941  2.492880159577567 4.123937983198792 2.537081735565025  2.496587725657866 4.141736225487158 2.371950660934822  2.625915694398504 4.187834528522152 2.443313455367598  2.502122501431157 4.191176315430861 2.546407622215531  2.505272352914959 4.210399794152516 2.377645323737837  2.634600951175105 4.25622138249325 2.450935167974691  2.511332550980254 4.258305427737445 2.555720167622411  2.513924462247128 4.278968813308092 2.383330064513384  2.643267716729138 4.324521844821421 2.458522114908496  2.520531754969742 4.325332359198433 2.564999671320288  2.522570776573911 4.34744718829856 2.388978009652117  2.65192770256256 4.3927464733226 2.466043800284172  2.529758024457526 4.39226532252666 2.574219461337246  2.531246683386859 4.415835104767713 2.394555765932863  2.251553744850396 4.042017486380335 2.013153874279778  2.284956404306805 4.038566050896942 2.138752941815341  2.375692651984524 4.02457400894105 2.015451782083523  2.384410022780154 4.096419967425221 2.014185501301291  2.294449406362914 4.108651547649915 2.13960364611229  2.260992642092908 4.113312253737861 2.011512657562841  2.393008780497234 4.168224603895079 2.012975267077366  2.303803635539512 4.178686021036653 2.14050921098991  2.270278701986277 4.184549257479142 2.009926857735866  2.40153546542911 4.239962778474783 2.011790061792853  2.313071935213945 4.248625378840359 2.141439302620898  2.279476605980889 4.255706771887829 2.008365085956465  2.410030119533031 4.311632528549443 2.010596230454291  2.322310507683724 4.318471898539953 2.142357625367205  2.288645505297647 4.326779551673274 2.006792488781218  2.418533319840984 4.383240248419674 2.009360128145485  2.331570190506974 4.388230762868932 2.143231970087048  2.297841539054628 4.397771904064106 2.00517546403567  2.427085352884996 4.454804359049592 2.008045794941782  2.340917155101385 4.457915559051974 2.144025272857702  2.307134101986626 4.468686007485548 2.003472453120952  2.380081097848244 4.019101889046135 2.327913997087775  2.372673137536565 4.00898445816174 2.455348556457895  2.381559256457029 4.076729834307405 2.462656000162058  2.389106053784304 4.087885817139696 2.331856762819568  2.390353465222385 4.144342542334065 2.470008694277799  2.398034250067921 4.156602453606675 2.335853060400968  2.399081950688024 4.21182964557263 2.477368956167144  2.406893017193565 4.225212251796034 2.339
[...]
<PointData  Vectors="f_24"> 
<DataArray  type="Float64"  Name="f_24"  NumberOfComponents="3" format="ascii">2.1195577211867420e-02 1.4056285912974043e-01 5.7604053146897670e-02  2.0051913870336523e-02 1.4431329201960527e-01 5.9553964573238333e-02  1.9816345976551773e-02 1.3346203026641118e-01 5.5214004533929321e-02  1.7329374872040434e-02 1.3476653619576959e-01 4.9717753166029041e-02  1.7563435058182718e-02 1.4654507802173547e-01 5.5109557773695653e-02  1.8618898865016397e-02 1.4220560744153468e-01 5.3459882407383044e-02  1.6129559941041118e-02 1.4335306678995313e-01 4.9374009668758934e-02  1.5099256250661039e-02 1.4814797088080289e-01 5.0771996720397970e-02  1.4937527019919759e-02 1.3566778141995170e-01 4.4375062872916191e-02  1.3630379279181246e-02 1.4412927721218483e-01 4.5223955467351168e-02  1.2572766720253103e-02 1.4933950125922379e-01 4.6360198712668818e-02  1.2537390640808976e-02 1.3624693523932896e-01 3.9047291051232232e-02  1.1057490182462881e-02 1.4463580516227173e-01 4.0926298759525623e-02  9.9234696592836544e-03 1.5025841012157753e-01 4.1757502684874756e-02  1.0082550994974531e-02 1.3658732594065195e-01 3.3610274381488732e-02  7.5385191019872611e-03 1.3674602935673713e-01 2.7973520286487075e-02  7.1264119924491567e-03 1.5100336167125136e-01 3.6886623420497658e-02  8.3767458694200825e-03 1.4494277686656867e-01 3.6446780685795134e-02  4.8935455533988623e-03 1.3678183938326313e-01 2.2069043963227765e-02  4.1547412120096433e-03 1.5161181622307141e-01 3.1654728008312004e-02  5.5457678464064242e-03 1.4503967098733067e-01 3.1752773677681527e-02  2.5348622103768190e-02 1.2338060009842972e-01 4.5968152318073850e-02  2.4672967458797126e-02 1.2286822182190643e-01 4.6313393096192972e-02  2.4976145673081037e-02 1.1864030630750048e-01 4.4175792689937911e-02  2.3803184708233227e-02 1.1895825133249853e-01 4.1391780964059079e-02  2.3194724553384415e-02 1.2320187030844013e-01 4.3924048148808570e-02  2.3904832871487900e-02 1.2362657812159271e-01 4.4384429150622663e-02  2.1660175035599423e-02 1.2323496033529120e-01 4.1463329776438608e-02  2.2396411871434159e-02 1.2358059396370277e-01 4.2677528345425465e-02  2.2539499772066263e-02 1.1896051649974469e-01 3.8581058344324286e-02  2.0092616582049319e-02 1.2301338340894880e-01 3.8942479453683655e-02  2.0856312063534960e-02 1.2328397048408424e-01 4.0886849688965658e-02  2.1228270532371085e-02 1.1869958828015058e-01 3.5739032201190409e-02  1.8507684421568475e-02 1.2256584410442721e-01 3.6379263876245800e-02  1.9303265709169026e-02 1.2276406524945843e-01 3.9046365055642081e-02  1.9897218645574560e-02 1.1821073448751160e-01 3.2861122503849864e-02  1.7753782798604661e-02 1.2203634428073963e-01 3.7186697005071649e-02  1.6918675385777703e-02 1.2191161201239477e-01 3.3794274175162523e-02  1.8569578123506760e-02 1.1751588654377224e-01 2.9948094822479097e-02  1.6229479158853911e-02 1.2111367314580650e-01 3.5341785582638452e-02  1.5337768555807591e-02 1.2108679645451030e-01 3.1218869063147192e-02  1.7258872798294200e-02 1.1660215975321116e-01 2.6997126042280998e-02  2.5773662492107899e-02 1.4071461419279263e-01 5.8942858441250350e-02  2.5655811177418053e-02 1.4845338597131508e-01 6.3316061961207842e-02  2.4955006831898004e-02 1.4481082627973227e-01 6.0383461462272262e-02  2.2177785561268492e-02 1.4592684537131362e-01 5.9774164528321204e-02  2.2917167867204106e-02 1.4950895666376260e-01 6.3715248892517673e-02  2.2977313011811305e-02 1.4137542947375403e-01 5.9108024152174067e-02  1.9529648511880004e-02 1.4657094208020141e-01 5.8992242454149378e-02  2.0293522632013544e-02 1.5003642761417144e-01 6.3850922124154261e-02  2.0314395150056286e-02 1.4165681610372355e-01 5.9055240649372835e-02  1.6881581685182653e-02 1.4685167651146971e-01 5.8022626635977556e-02  1.7648327947758724e-02 1.5016437365993721e-01 6.3731823684642197e-02  1.7667111192270442e-02 1.4163895658830108e-01 5.8808843492852460e-02  1.4134682273521043e-02 1.4685769267939053e-01 5.6856283427504102e-02  1.4864278917528092e-02 1.4999614958969007e-01 6.3363606476119064e-02  1.4941685423030577e-02 1.4138704427992610e-01 5.8395321934515659e-02  1.1208996708345739e-02 1.4666201370367624e-01 5.5489119369243854e-02  1.1831432452744173e-02 1.4961383888675581e-01 6.2742269413402427e-02  1.2058362132659366e-02 1.4095243194653193e-01 5.7837794016332905e-02  8.0458775027113395e-03 1.4637191192637952e-01 5.3913145630129444e-02  8.4342231712455952e-03 1.4905162594620389e-01 6.1833457113975622e-02  8.9466713263854809e-03 1.4034036680520010e-01 5.7134344451082834e-02  1.5263447463356070e-02 1.4251687140921321e-01 6.3725745799067077e-02  1.2239217125908874e-02 1.4177182684148090e-01 6.3781506724642459e-02  8.9026273997394583e-03 1.4088888885596229e-01 6.3727368034432214e-02  3.0684655890841295e-02 1.1499970738413463e-01 3.9283217437004823e-02  2.9485392487823420e-02 1.1567502201245294e-01 4.0722798169309050e-02  2.9469584895382282e-02 1.1666355881117496e-01 4.0299245751462279e-02  2.8518663398395233e-02 1.1670558917997653e-01 4.0062159105166570e-02  2.8436196695674678e-02 1.1531424512505928e-01 4.1310197922782524e-02  2.9733207726573063e-02 1.1492844216170553e-01 3.9484851475248085e-02  2.7557664792580202e-02 1.1642856599626585e-01 3.9595302018752207e-02  2.7379440067151133e-02 1.1473693910933255e-01 4.1603134041395873e-02  2.8783747718826944e-02 1.1457667979932418e-01 3.9416310387930482e-02  2.6604485619901069e-02 1.1587210266689792e-01 3.8989006577425885e-02  2.6333044770221189e-02 1.1394833326752107e-01 4.1727085981234938e-02  2.7851331768114836e-02 1.1396429226272965e-01 3.9188894668484499e-02  2.5682409768428432e-02 1.1505004891627711e-01 3.8317007396647104e-02  2.5313675476255026e-02 1.1293999658240621e-01 4.1794774441821968e-02  2.6944883086613573e-02 1.1309520303088340e-01 3.8896385909906239e-02  2.4817942629943867e-02 1.1395099654794884e-01 3.7645012945227985e-02  2.4340168886830320e-02 1.1168649351877352e-01 4.1906196250628275e-02  2.6077759180094504e-02 1.1194668272025135e-01 3.8624768380579939e-02  2.4045967501803715e-02 1.1253999120742003e-01 3.7033241402469975e-02  2.3434967782943589e-02 1.1016185685787455e-01 4.2159490895478248e-02  2.5270497755836101e-02 1.1046117441014183e-01 3.8468980366402727e-02  2.3522670381004217e-02 1.3807810660302114e-01 5.5532406782749032e-02  2.2451947354131037e-02 1.3959947628316680e-01 5.6689854218267333e-02  2.2442425468315066e-02 1.3245591867195666e-01 5.3341256312206896e-02  2.0133170743060095e-02 1.3334745876514731e-01 4.9568710390418533e-02  1.9874249500319865e-02 1.4091634735225936e-01 5.3386135779618565e-02  2.1003784867640606e-02 1.3911095736428541e-01 5.3184570922343175e-02  1.7866202599943495e-02 1.3389410781727018e-01 4.5791516680600587e-02  1.7391932636887573e-02 1.4180515473598429e-01 5.0077421896178240e-02  1.8549635666050671e-02 1.3976551531575010e-01 5.0769408571027755e-02  1.5600339861831026e-02 1.3415315938068301e-01 4.1965435207498840e-02  1.4911085491512084e-02 1.4234311960836607e-01 4.6687232703757846e-02  1.6098053490946482e-02 1.4010583825825465e-01 4.8248422510960023e-02  1.3306575901144650e-02 1.3417242043732261e-01 3.8052230495645746e-02  1.2371824372945772e-02 1.4261051585044593e-01 4.3164029745180209e-02  1.3595281817619155e-02 1.4019018030028332e-01 4.5608047093836930e-02  1.0960810805239444e-02 1.3398860548355176e-01 3.4031505555835437e-02  9.7324703089381442e-03 1.4267581079094235e-01 3.9475247937040076e-02  1.1001551792262025e-02 1.4007423954908690e-01 4.2848177536578338e-02  8.5374095010095612e-03 1.3360851742540406e-01 2.9897748680163854e-02  6.9630177443147671e-03 1.4259100286157983e-01 3.5620101069408633e-02  8.2947124476459109e-03 1.3985886823715740e-01 4.0005674752436438e-02  2.4136044343143918e-02 1.4950783527153375e-01 6.2615065882787174e-02  2.3175533468864369e-02 1.5392704780461353e-01 6.4860569143497318e-02  2.2489029842463037e-02 1.4683220983323525e-01 6.0300850979037056e-02  1.9829358359342908e-02 1.4862666318442486e-01 5.7735130672617839e-02  2.0703696388642247e-02 1.5619467113545768e-01 6.3430166289692960e-02  2.1466570353643692e-02 1.5113423351294350e-01 6.1611026259062347e-02  1.7259516048334742e-02 1.4984420182303149e-01 5.5122990817409179e-02  1.8277710346854052e-02 1.5773868989195405e-01 6.1891018449951866e-02  1.8877450794403297e-02 1.5217359476157874e-01 6.0463293223845561e-02  1.4659461348303057e-02 1.5064171408450619e-01 5.2373257587299993e-02  1.5757060143236953e-02 1.5877182795209480e-01 6.0159088968761862e-02  1.6252504148765699e-02 1.5277804916091051e-01 5.9117911226483681e-02  1.1940556695901066e-02 1.5114176637443982e-01 4.9423813386597772e-02  1.3051730666206107e-02 1.5945760821178720e-01 5.8153384340477877e-02  1.3488690347258586e-02 1.5307272606588196e-01 5.7529935771595264e-02  9.0496221301998563e-03 1.5144474911870748e-01 4.6235558468120753e-02  1.0093256814942100e-02 1.5994339628373708e-01 5.5786627338238762e-02  1.0503897668875165e-02 1.5316581854282169e-01 5.5647153643491612e-02  5.9586772864989495e-03 1.5166147333277977e-01 4.2786456895133863e-02  6.8344425247262126e-03 1.6036119133367119e-01 5.2928775220623343e-02  7.2327353970981154e-03 1.5316133773041202e-01 5.3415396316752468e-02  2.3249173909341267e-02 1.1395415874466258e-01 4.5554601693455730e-02  2.3859828127254751e-02 1.2253703421604617e-01 4.7302859970404079e-02  2.2892387642416048e-02 1.2029617256899414e-01 4.8125997274949685e-02  2.1220985810921654e-02 1.2060870567805376e-01 4.3894355644463041e-02  2.2275774819848465e-02 1.2289282854743515e-01 4.4098850393401084e-02  2.1928890745983431e-02 1.1409138743811721e-01 4.1089596486043628e-02  1.9524015195356435e-02 1.2063963631965539e-01 3.9701648767995763e-02  2.0646811039995241e-02 1.2295237489899029e-01 4.0867478348247901e-02  2.0545249746985992e-02 1.1396878522105981e-01 3.6709395440614231e-02  1.7807765973211240e-02 1.2043674474652613e-01 3.5506133620787458e-02  1.8989166165325030e-02 1.2276072429801864e-01 3.7594369901108093e-02  1.9126532567941942e-02 1.1362609107897285e-01 3.2351950748370238e-02  1.6078895545983289e-02 1.2002904013497000e-01 3.1266523812850208e-02  1.7314978090373051e-02 1.2234729477963377e-01 3.4274786912428357e-02  1.7692324169552694e-02 1.1308807447941480e-01 2.7963608346040197e-02  1.4343152523450687e-02 1.1942814975370040e-01 2.6954278089007657e-02  1.5631743177434338e-02 1.2172984960704691e-01 3.0911585078779131e-02  1.6258527894165219e-02 1.1235813668267292e-01 2.3502255798205453e-02  1.2606719691938367e-02 1.1860978191701971e-01 2.2558202571658879e-02  1.3939925879995273e-02 1.2092792871728582e-01 2.7539190928897738e-02  1.4841126294540610e-02 1.1141995151754476e-01 1.8926628031511090e-02  2.3894200232543617e-02 8.3425609663262665e-02 3.8644009263874166e-02  2.3863066626502550e-02 9.4728131220055717e-02 4.0456169892398960e-02  2.2936968295269644e-02 8.4755391057620769e-02 4.0613864119996915e-02  2.2230466581164482e-02 8.3751583565991203e-02 3.4177740065181018e-02  2.3159406231665826e-02 9.4235404695491576e-02 3.4805026111945241e-02  2.3363072715853434e-02 8.2427572897620233e-02 3.2427461371408686e-02  2.1462661458208070e-02 8.2735278114744501e-02 2.8102919687094306e-02  2.2363849930902832e-02 9.3580100940537050e-02 2.9419179259918254e-02  2.2743833787418278e-02 8.1399485706455957e-02 2.6558502085938469e-02  2.0648253857130865e-02 8.1706605092290982e-02 2.2176384703039446e-02  2.1520928045421880e-02 9.2802922555833126e-02 2.4142807877245660e-02  2.2083024842030848e-02 8.0344861419307884e-02 2.0830284646418850e-02  1.9826116733218154e-02 8.0653562254678790e-02 1.6216406347322694e-02  2.0663435842589607e-02 9.1911197849478030e-02 1.8838947620625324e-02  2.1414148145199725e-02 7.9251912001909688e-02 1.5065042548958399e-02  1.9031691798241282e-02 7.9555967413960871e-02 1.0051422234066694e-02  1.9819568644213484e-02 9.0891943536999323e-02 1.3378759824074172e-02  2.0773889625527731e-02 7.8099770454298778e-02 9.1018222452562223e-03  1.8307399938830543e-02 7.8383418134424426e-02 3.5029795308506675e-03  1.9014098557140993e-02 8.9717762567000411e-02 7.6292016416171808e-03  2.0195861359549469e-02 7.6854939712012724e-02 2.7850411475529848e-03  2.3709274890505803e-02 1.1009334937787595e-01 4.3774016549854390e-02  2.4155547463009814e-02 1.1742267852156096e-01 4.5071242400482214e-02  2.2885864097043605e-02 1.1767459809545985e-01 4.1527020705655969e-02  2.2619996072862851e-02 1.1009020688360990e-01 3.9226031610804339e-02  2.1542963713421955e-02 1.1762753437280327e-01 3.7996323197079671e-02  2.1453559400359479e-02 1.0983249809082625e-01 3.4777490225629114e-02  2.0161209149507097e-02 1.1733336781265101e-01 3.4450762128429534e-02  2.0244088317128660e-02 1.0936114557742918e-01 3.0360838562095718e-02  1.8761361629778567e-02 1.1682261639716524e-01 3.0870055969415170e-02  1.9016747298555618e-02 1.0869983589333401e-01 2.5911174521516818e-02  1.7360364917709852e-02 1.1611116463653598e-01 2.7243754105694771e-02  1.7792790742603284e-02 1.0785095112903682e-01 2.1375819525094184e-02  1.5974107105755531e-02 1.1519676039102909e-01 2.3573079703356328e-02  1.6589531837146006e-02 1.0680365608005774e-01 1.6726794038779039e-02  2.1204292968965633e-02 1.3220902894468811e-01 5.3940866623818987e-02  1.8819820269800260e-02 1.3325487873701458e-01 4.9258903822976409e-02  1.6490739436002703e-02 1.3395322510938382e-01 4.4659140692132296e-02  1.4168703586046247e-02 1.3434845673980994e-01 4.0051671711777606e-02  1.1809278990005398e-02 1.3449824268866420e-01 3.5352505748488236e-02  9.3855479958260876e-03 1.3444225948967414e-01 3.0504807326489195e-02  6.8878071504432968e-03 1.3422880298484791e-01 2.5443969778058493e-02  2.5705315198474459e-02 1.2006776181226468e-01 4.3812149556463877e-02  2.4547499111445752e-02 1.2036844765718489e-01 4.1853070508268725e-02  2.3296085364989123e-02 1.2033784946353537e-01 3.9817782286206485e-02  2.2002110404895969e-02 1.2003628659285442e-01 3.7721859457878731e-02  2.0695395930501830e-02 1.1950014905788449e-01 3.5578516745112622e-02  1.9397901831722367e-02 1.1875194724788381e-01 3.3397370286520449e-02  1.8121758975830130e-02 1.1778486892643340e-01 3.1167615996894320e-02  3.0517886897958337e-02 1.1537693423058949e-01 3.9174540312072313e-02  2.9619102027893571e-02 1.1553746688928755e-01 3.8780398025783112e-02  2.8721494260528117e-02 1.1535027821431228e-01 3.8168455764450715e-02  2.7838050080905615e-02 1.1486620443128702e-01 3.7424799408515209e-02  2.6984090488580772e-02 1.1409873866626340e-01 3.6614259938362238e-02  2.6178761803579496e-02 1.1303390743731377e-01 3.5793541676724674e-02  2.5449157609549640e-02 1.1163592809499523e-01 3.5009980453708130e-02  2.3407217258201017e-02 1.3213641148226171e-01 5.2367694680246893e-02  2.1196261456622158e-02 1.3288077772876833e-01 4.9517602991899883e-02  1.8999987628485582e-02 1.3330627012045460e-01 4.6606563745469495e-02  1.6802217122296195e-02 1.3345428676606391e-01 4.3624251604740059e-02  1.4576512557757357e-02 1.3336695829733358e-01 4.0561298337517149e-02  1.2302786624485827e-02 1.3308042269552800e-01 3.7420560428938758e-02  9.9606239359306663e-03 1.3262509208720677e-01 3.4219152629460924e-02  2.4866728184393460e-02 9.0089830853927411e-02 3.8085051904068683e-02  2.4370204661894036e-02 8.9444618913340893e-02 3.2389504379726985e-02  2.3787732186252575e-02 8.8656572602322042e-02 2.6999149432819648e-02  2.3156628283098959e-02 8.7762411502233642e-02 2.1729980294535274e-02  2.2513320533866427e-02 8.6763840161112896e-02 1.6434890010859550e-02  2.1887773989314185e-02 8.5648392557437308e-02 1.0979713374541095e-02  2.1302758055538683e-02 8.4384609948570083e-02 5.2321011083415886e-03  2.3917151415235718e-02 1.4375704042234197e-01 5.9083652051440436e-02  2.1199711237621269e-02 1.4510666643653869e-01 5.7261710448862954e-02  1.8609275464886318e-02 1.4601285268139863e-01 5.5362132272805210e-02  1.6022320563709180e-02 1.4653798904350346e-01 5.3325741081829005e-02  1.3354559784248975e-02 1.4677986267028983e-01 5.1123199822200767e-02  1.0549555767639088e-02 1.4682428196022596e-01 4.8737828652005141e-02  7.5653905500971926e-03 1.4672406825147608e-01 4.6147761323041894e-02  2.4578195296942343e-02 1.1255934144232019e-01 4.2754356129248480e-02  2.3584374175436837e-02 1.1270491272896921e-01 3.8915594975132695e-02  2.2498038050587556e-02 1.1255491101497427e-01 3.5134842831622097e-02  2.1361232230164694e-02 1.1216179239402116e-01 3.1359492420683199e-02  2.0203511356994865e-02 1.1155326566032732e-01 2.7550954597445318e-02  1.9046466998242244e-02 1.1074191687531663e-01 2.3682547758508317e-02  1.7904755337497122e-02 1.0974135543991782e-01 1.9745394213589371e-02  2.4701001258180130e-02 1.5564955502134828e-01 6.6493213271850718e-02  2.2233116137692327e-02 1.5734228573772149e-01 6.6575330866637084e-02  1.9817740352590943e-02 1.5836520821722552e-01 6.6387299899302282e-02  1.7307870981909890e-02 1.5889188855079051e-01 6.5925138504767389e-02  1.4593850439259166e-02 1.5904942112215220e-01 6.5151183646923141e-02  1.1572393264323542e-02 1.5895429179753456e-01 6.4014758293857360e-02  8.1386086198560297e-03 1.5870017489039676e-01 6.2442635157902271e-02  2.7294306992043459e-02 1.1561770637384575e-01 4.0474133542020195e-02  2.8369286346661710e-02 1.1717688659311749e-01 4.0724466748902767e-02  2.7300897276462052e-02 1.1875588913543415e-01 4.2051987756466742e-02  2.6288636082635902e-02 1.1893946133652651e-01 4.0891628720652759e-02  2.7468849080462373e-02 1.1739760270965643e-01 3.9622791040843257e-02  2.6454588179496915e-02 1.1594340536172008e-01 3.8330621260972912e-02  2.5225586020703506e-02 1.1877668962601561e-01 3.9596277807272415e-02  2.6531096602523261e-02 1.1725326277908606e-01 3.8374371115967552e-02  2.5548357709257907e-02 1.1588233269322111e-01 3.6142748275615415e-02  2.4143924116517012e-02 1.1832564742142808e-01 3.8209432481518500e-02  2.5589767920923188e-02 1.1680173623121769e-01 3.7029277177497405e-02  2.4622491774581583e-02 1.1550799799568047e-01 3.3909633984991076e-02  2.3078002756320815e-02 1.1761772386082092e-01 3.6759372741939557e-02  2.4678291391700378e-02 1.1607327848545630e-01 3.5617556286363032e-02  2.3714783995519219e-02 1.1486396804151337e-01 3.1619549329910554e-02  2.2059045205353189e-02 1.1667001859386036e-01 3.5259754311771009e-02  2.3833983418989509e-02 1.1507685544866868e-01 3.4157766989272122e-02  2.2860513261966135e-02 1.1397796050610762e-01 2.9252642763310636e-02  2.1125399999583280e-02 1.1549366120206014e-01 3.3710473639318665e-02  2.3102446601859498e-02 1.1381427188437437e-01 3.2654773053047099e-02  2.2085382420201048e-02 1.1289177652245881e-01 2.6768368396579534e-02  2.6081763714227862e-02 1.2289042095154505e-01 4.5534935458746650e-02  2.4663104320063387e-02 1.2294248115320568e-01 4.4826041824291209e-02  2.3181513578708599e-02 1.2272788484585637e-01 4.3934659489235327e-02  2.1674346244066365e-02 1.2228048312477553e-01 4.2929137653815827e-02  2.0162864183812343e-02 1.2161946866802346e-01 4.1865243302678032e-02  1.8666826254297771e-02 1.2075363917677066e-01 4.0792289220064087e-02  1.7203259416208955e-02 1.1967739543085851e-01 3.9752656522919906e-02  2.8102968908754709e-02 1.1850534009438579e-01 4.1886150479768944e-02  2.7204168748838201e-02 1.2009394419668518e-01 4.3307836010827758e-02  2.6026828958958595e-02 1.2004892041907780e-01 4.2916099627788196e-02  2.7061757495012249e-02 1.1848777227803775e-01 4.1525266406401695e-02  2.4805261965282637e-02 1.1971656418487087e-01 4.2323096913304617e-02  2.5986060253079226e-02 1.1817351675290697e-01 4.0962024452005745e-02  2.3568780178020363e-02 1.1913831311892550e-01 4.1607350240456240e-02  2.4905601316323557e-02 1.1759640830183245e-01 4.0268424943296008e-02  2.2345828807863188e-02 1.1833251498333022e-01 4.0833022740281208e-02  2.3850118067060153e-02 1.1677292157287800e-01 3.9510932474226400e-02  2.1163765838959122e-02 1.1730060330919037e-01 4.0050392254084272e-02  2.2850525984819865e-02 1.1569925103450888e-01 3.8740040285212315e-02  2.0057094999157407e-02 1.1602331686297000e-01 3.9279069649257640e-02  2.1938834623734964e-02 1.1435143065190966e-01 3.7986837898817939e-02  2.1399387458702304e-02 1.5085535313478293e-01 6.2561131335209588e-02  1.8907248954