<?xml version="1.0"?>
<VTKFile type="UnstructuredGrid"  version="0.1"  >
<UnstructuredGrid>
<Piece  NumberOfPoints="7595" NumberOfCells="36493">
<Points>
<DataArray  type="Float64"  NumberOfComponents="3"  format="ascii">10.89120664377067 4.113844853993423 0.9923997686974888  10.83845635050178 4.008594166425236 0.9226943936388814  10.77217775176884 4.138345705857528 1.018016856440448  10.76454197213542 4.189073856773939 0.9584616360840722  10.83303960429854 4.049856156087908 0.8552060096616328  10.88265015856132 4.162002603761521 0.9285440981659938  10.75728687263333 4.239697259625288 0.8992439783850347  10.82796489394984 4.091110124504421 0.7880594416845789  10.87451462896663 4.210035839606575 0.8650987932544891  10.75031672766627 4.290121856844523 0.8403215102117338  10.82316189180318 4.132228712982715 0.7212736971349542  10.86667326837487 4.257844462271557 0.8020074874004868  10.7435116626241 4.340290995770124 0.7817006090095578  10.81845662736617 4.173158909723794 0.6548114739225905  10.85897885375239 4.305326735838661 0.7392715409271126  10.73667892496839 4.390190692406029 0.723426970722528  10.81376986975677 4.213961249338126 0.5887133585205394  10.85130076874424 4.352547234629028 0.6769220289782582  10.72941745948475 4.439670574299743 0.6654833615019531  10.80878383757522 4.254413224076732 0.5230271564568912  10.84330174393554 4.399315306573809 0.6149813071581555  10.27356651637048 4.319828743558679 2.358382440224674  10.21359279215627 4.32133676225956 2.265529879762787  10.19863396400362 4.283379111967577 2.393747582619989  10.17965640463456 4.33544421484231 2.40959428517251  10.19339958324865 4.375127959269911 2.279456885206564  10.25346234790946 4.372827333096942 2.373278870223571  10.16102662180116 4.387622928212991 2.425341209123668  10.17362081552194 4.428988149800396 2.293285616341496  10.23376555733843 4.425858756814476 2.388067151688395  10.14258223310031 4.439832418547776 2.441023188711301  10.15409504546793 4.482824691961875 2.307035605870816  10.21431058688513 4.478846362788022 2.402766694116114  10.12415903249523 4.491987974415847 2.456673014682255  10.13464316845184 4.536563084433662 2.320731376813001  10.19493216806104 4.531712953119619 2.417404646583659  10.10558733471603 4.54399922261197 2.472317325697901  10.11508387863723 4.590115813479801 2.334385059974007  10.17546535832004 4.584356688105304 2.431986848531248  10.08667228633378 4.595761974287822 2.488007199088726  10.09519517157963 4.643370066563987 2.347995268948226  10.15572468999148 4.636638942253356 2.446528384572166  9.094173925064778 3.680739223457439 3.609707729621877  8.974074714784079 3.63017503845702 3.693390042021607  9.084317025112236 3.627439826924734 3.70405588382302  9.082913863021151 3.684079227111119 3.739611611864856  8.972825159620786 3.68777162096141 3.727149345104348  9.092603799532878 3.738575932422564 3.63876107865531  9.081642680694999 3.740499543181694 3.775286901079671  8.971713691786661 3.745186745264281 3.761085090129324  9.091146337311054 3.796295879651527 3.668001403069121  9.080422894800144 3.796824793264273 3.811004212718834  8.970675018714399 3.80252304475256 3.795091095115665  9.089746064283009 3.853976273407076 3.697324202202906  9.079221103720979 3.853114763700719 3.846709808996577  8.969652156462031 3.859843879510161 3.82909398321589  9.088365329535279 3.91166346862527 3.726649839389772  9.078006095967552 3.909389081764435 3.882357467883452  8.968600608306199 3.917172031237474 3.863032797915008  9.086977039454791 3.969380426832473 3.755913006459457  9.076726087554711 3.965636916718212 3.91788752958675  8.967493775225321 3.9745230544923 3.896843728713279  9.08553622675373 4.027128515339742 3.785047074177867  9.934620869223124 3.893722256974707 3.20251320624355  9.866795192279152 3.921606578204871 3.113111358860062  9.826582413044678 3.86458465614687 3.249921202810234  9.822477909236369 3.91807358628391 3.271212235507683  9.860356257996092 3.973502932433574 3.132112009068786  9.92861826726979 3.946112066927183 3.224184323330544  9.818308047458123 3.971630877699502 3.292627886642588  9.853887762680918 4.025496044157539 3.151221112458557  9.922588942366817 3.998595693256586 3.245949656945938  9.81410229740287 4.02530509878747 3.314121361652903  9.847397976414888 4.077626474464172 3.170401935992226  9.916536521435074 4.051206812301688 3.267784093565078  9.809894438500972 4.079114304890538 3.3356409917651  9.84088936705289 4.129918753222813 3.189617716990079  9.910473769699379 4.103966600286645 3.289658899093128  9.805723444980469 4.133075608001336 3.357139265101383  9.834372912078761 4.182405509270577 3.208828018052984  9.904421796193928 4.15690422491158 3.311543053633461  9.801661441440991 4.187206364227761 3.378551975459983  9.827879006177616 4.23512901959733 3.227986887845084  9.898403936491572 4.210069561502609 3.333407740142931  11.34256211003533 2.559963610454043 3.662915467942084  11.23041676328445 2.651653979168271 3.732827329951541  11.22654493170889 2.522080549939639 3.633936557215388  11.2271424548698 2.477950412016679 3.68647644053894  11.2316603871206 2.61342959716206 3.792986449823797  11.34344321932059 2.516540269140279 3.719197409562518  11.22683132920075 2.433268100843837 3.739509264215929  11.23210012896514 2.574863378073209 3.853805701071212  11.34349062990687 2.472472411856851 3.776051356920952  11.22632456455674 2.38806773681234 3.793078386235965  11.2324778456343 2.535774501879789 3.915195505496533  11.34338486626016 2.427893090400786 3.833572194690457  11.22595042096629 2.342372571446584 3.847169088995505  11.23306406960327 2.496233284094554 3.977182685592514  11.34336844321755 2.382831595205946 3.891820545401331  11.22588065665453 2.296166667219494 3.901752853016943  11.23407283180669 2.456215594717369 4.039769359013426  11.34360242476936 2.337248358748571 3.950832103395797  11.22636577811407 2.24940938010779 3.956835608451353  11.23579182069453 2.415617451933174 4.102895289599583  11.34433312903732 2.290924857888474 4.010715215094062  9.266978080709009 4.166478734772276 1.461046206063056  9.181768326342784 4.153615163234046 1.421440012136226  9.229812892498522 4.183596148910432 1.545720100192326  9.225001213600809 4.254451996702117 1.5337098141396  9.17400880206511 4.22344805382868 1.39674741981919  9.263232953275427 4.237649187408688 1.443965941454983  9.166191513624447 4.293112367824737 1.372141042290828  9.259310704723765 4.308623509436723 1.426907863363632  9.220046346096956 4.325110014086564 1.521687216944611  9.158361504909907 4.362663866517195 1.347575475591854  9.255343013428973 4.379477167119222 1.409873776556618  9.215048862955515 4.395650355535002 1.509669553804112  9.25138991077514 4.45025554072018 1.392837444509859  9.150549658893723 4.432124608178785 1.323006380251303  9.210072711207522 4.46610708926888 1.497648021670934  9.247514519552405 4.52096626322079 1.375778919970283  9.142773484578768 4.501502849637824 1.298418775276526  9.205180501720591 4.536489008118264 1.485609917042559  9.243839590198354 4.591600647925072 1.358677650669061  9.135065068563895 4.570767056322967 1.273755527870728  9.200454247405888 4.606764068328688 1.473540843889851  11.46918238537791 3.73144422164939 3.690194489027493  11.34371061177841 3.833511991213953 3.624466178810795  11.35291028153968 3.700808976165242 3.712626405680792  11.35681082491192 3.740928279920273 3.781021273376167  11.34473509392808 3.881579040355123 3.687341419570479  11.47180675023099 3.772836754733573 3.76066206336606  11.34547945836829 3.930155655795188 3.750051684343204  11.47404260221692 3.814443242983587 3.831407470748881  11.36022369092216 3.781632713248555 3.849542419029982  11.34618252976586 3.978959755774821 3.81278426391396  11.47599470384265 3.856380046820278 3.902415013121464  11.36348271973778 3.822643717379771 3.91824786588638  11.34684031348935 4.027945674179016 3.875607689522013  11.47789784378288 3.898645463317317 3.973709511716842  11.36675242175493 3.863833160843714 3.98721199949969  11.47965987768687 3.941261307144691 4.045192685947126  11.34740185876545 4.077055397616475 3.938712801316399  11.37004611918152 3.905134767778785 4.056456018808102  11.48088569169225 3.984144492222966 4.117032307301804  11.34791824705297 4.126127915275148 4.002179110151451  11.37316019227145 3.946266847151567 4.126251059751003  10.10045521657062 3.293531735918288 3.825672093657032  9.999230122857304 3.338935986229512 3.810729469843685  9.994608010491566 3.225259736244798 3.855491712405533  10.00328720448549 3.243528652932193 3.919760468420326  10.00404089133932 3.364408668619846 3.872219962209264  10.1040087490871 3.313722129144391 3.889571991261783  10.01176718085974 3.261617343990179 3.984158431946041  10.00867100552684 3.389730705202493 3.933875881713112  10.10739282852106 3.333746126972152 3.953620347215611  10.02017767936987 3.279636607614367 4.048637589784755  10.01324026731882 3.415010847291644 3.995624725730937  10.11072689706094 3.353724727905309 4.017766154144434  10.02860884934516 3.297634790674067 4.113166503951819  10.01784198890073 3.440294933427788 4.057427395824183  10.11408566871473 3.37371346543202 4.081993663837004  10.03714507755204 3.315637275164977 4.177727736049881  10.02256601064767 3.465601877383448 4.119267409944608  10.11754272014504 3.393758414603044 4.146333550073638  10.04591182118902 3.333713936424501 4.24230775208205  10.0274831095871 3.491010323740006 4.181202787987784  10.12117405315929 3.413916307591572 4.210831668926923  10.06552139815354 4.208937317655034 2.460435624898474  9.972242923280124 4.203500142649458 2.389095435010698  9.993371518633724 4.166142787080622 2.521888869580193  9.978560644805228 4.215590518788404 2.539418242970495  9.957496185879299 4.254794096028794 2.405266654502211  10.04847156260536 4.258937214260218 2.477564651819143  9.963903576996808 4.265253353706453 2.556925450555786  9.94293793522008 4.306288817212056 2.421375563098602  10.03166980001423 4.309151250777934 2.494633203480846  9.949295436024798 4.315072656904184 2.574465019664328  9.928461827159362 4.357
[...]
<PointData  Scalars="f_14"> 
<DataArray  type="Float64"  Name="f_14"  format="ascii">6.0146530935763630e-02  6.4758346468192216e-02  6.9917673634226338e-02  6.9813480026998623e-02  6.4664166850923202e-02  6.0106916289670340e-02  6.9539012027554886e-02  6.4402792162420952e-02  5.9932633694801507e-02  6.9145101166320375e-02  6.4013852911040448e-02  5.9631568026802147e-02  6.8650765411757395e-02  6.3516361875517277e-02  5.9208857162765430e-02  6.8084724978639197e-02  6.2910079888266093e-02  5.8663866476600844e-02  6.7537813499530433e-02  6.2223784156936308e-02  5.7966337910133489e-02  1.1844622852522567e-01  1.2399298012986859e-01  1.2616572413462845e-01  1.2614389659046879e-01  1.2399757560848602e-01  1.1843891865059666e-01  1.2608285007368247e-01  1.2399261884355517e-01  1.1840609061320007e-01  1.2598804656877821e-01  1.2396447095319715e-01  1.1833949006127953e-01  1.2585360022124598e-01  1.2389814293588355e-01  1.1822916788918195e-01  1.2567840355870102e-01  1.2378014614597303e-01  1.1806821275759152e-01  1.2548483531519183e-01  1.2359858611978360e-01  1.1785057894200390e-01  2.4960033736491305e-01  2.6289205563648549e-01  2.5187346508453007e-01  2.5192309522853457e-01  2.6289322584213715e-01  2.4960866171039184e-01  2.5204911637344196e-01  2.6290923740735400e-01  2.4965180229337125e-01  2.5220277415998765e-01  2.6294537045478428e-01  2.4971899238839187e-01  2.5237367652405063e-01  2.6300198582556361e-01  2.4980880891234020e-01  2.5255014465400805e-01  2.6308017540346962e-01  2.4992032276677204e-01  2.5269766844780894e-01  2.6318479516573129e-01  2.5003509868348406e-01  1.5861691691177143e-01  1.6477732906729059e-01  1.6994778137826996e-01  1.6994184266049839e-01  1.6476863795745725e-01  1.5861436560487555e-01  1.6991926787827713e-01  1.6474200297529792e-01  1.5860566143191152e-01  1.6988939691415567e-01  1.6470516731353307e-01  1.5858956464303683e-01  1.6986787545425530e-01  1.6466846627533410e-01  1.5857586002072788e-01  1.6987487270924373e-01  1.6464500896351866e-01  1.5857672938643891e-01  1.6993498277740993e-01  1.6465765011268957e-01  1.5859590031822288e-01  3.0301335128774750e-02  4.0284607211761844e-02  4.0911435607890449e-02  4.0938041945390947e-02  4.0298215765669991e-02  3.0315625162663389e-02  4.0938877969264785e-02  4.0243793702544405e-02  3.0294140468166010e-02  4.0847033468693977e-02  4.0075784221942003e-02  3.0171650000423801e-02  4.0637687020409971e-02  3.9792373585246212e-02  2.9924283389383844e-02  4.0299748371388999e-02  3.9400898005409392e-02  2.9533572986765740e-02  3.9807366827580015e-02  3.8919751018671643e-02  2.8978658128830135e-02  2.0934421300975364e-01  2.1758828371525857e-01  2.1313249891487832e-01  2.1309434131922755e-01  2.1758222710877223e-01  2.0924053547121085e-01  2.1755887875566537e-01  2.0900607928762904e-01  2.1298642104990539e-01  2.1753684248509661e-01  2.0875073818878584e-01  2.1286718280670186e-01  2.0852427972776572e-01  2.1752585276936762e-01  2.1277185592411627e-01  2.0837403719524755e-01  2.1752986262520158e-01  2.1273273840878387e-01  2.0837333825061019e-01  2.1752856722866706e-01  2.1277756664288414e-01  1.7016910967176720e-02  2.6704154451687331e-02  2.6155787632188069e-02  2.6065756923874576e-02  2.6627287030148810e-02  1.6952270910180648e-02  2.6381437472585818e-02  1.6775365112277636e-02  2.5796668137177289e-02  2.5997814360401966e-02  1.6499126572833787e-02  2.5393500610755508e-02  2.5508647950778507e-02  1.6108880356798957e-02  2.4883201648131386e-02  1.5586106626968603e-02  2.4942100169716364e-02  2.4288769374529548e-02  1.4902612523628617e-02  2.4321358892720080e-02  2.3661572823191483e-02  1.5015002037989744e-01  1.5987495022756393e-01  1.6134816397057444e-01  1.6133954392697833e-01  1.5996130996381472e-01  1.5018589210963251e-01  1.6131764702270746e-01  1.6013446374960322e-01  1.5025884221339170e-01  1.6128868532588977e-01  1.6033408929175297e-01  1.5034556897671636e-01  1.6128091029453928e-01  1.6055792581657871e-01  1.5043343799058392e-01  1.6133411455660127e-01  1.6081970585327299e-01  1.5051243234138453e-01  1.6147963463039117e-01  1.6106368986643652e-01  1.5053609728226730e-01  1.4021227352239826e-01  1.4870056729224990e-01  1.4773807004311268e-01  1.4773062176805743e-01  1.4868571168159347e-01  1.4021645993272183e-01  1.4770776267292796e-01  1.4864297933043127e-01  1.4021733545779960e-01  1.4766689627803192e-01  1.4857796335766391e-01  1.4020306994398643e-01  1.4759738835947520e-01  1.4848705428517339e-01  1.4015702750204953e-01  1.4748843708802120e-01  1.4836635599765496e-01  1.4005956363698580e-01  1.4733888342029197e-01  1.4822825315441357e-01  1.3988390785976990e-01  2.0097209338845016e-02  2.7994705129426489e-02  3.0823763682543553e-02  3.0752376657109386e-02  2.7986860775946403e-02  2.0129170563278242e-02  2.7860627703122788e-02  2.0065145745757986e-02  3.0484613671563198e-02  2.7614415829948447e-02  1.9907353748324426e-02  3.0100241930524789e-02  1.9656490188845209e-02  2.7264986100879084e-02  2.9631526536678148e-02  1.9289911254283296e-02  2.6822034631357895e-02  2.9111625497890446e-02  1.8754053138297738e-02  2.6259518437304449e-02  2.8587021101709038e-02  3.9295670064151182e-02  3.9212281691668287e-02  3.8984356103984909e-02  3.8640950707315498e-02  3.8208209897538134e-02  3.7710385735928463e-02  3.7190230870104313e-02  2.5947710032103460e-01  2.5953165530670758e-01  2.5961380443118948e-01  2.5971755424827209e-01  2.5999099371874507e-01  4.9669192397289390e-02  4.2726964609858975e-02  4.2749899333018031e-02  4.9752784335255963e-02  4.2655462737858654e-02  4.9821820684753028e-02  4.2454320115664697e-02  4.9806791113523124e-02  4.2159825539715673e-02  4.9681046908475308e-02  4.1794247974430397e-02  4.9434498077343618e-02  4.1417639092810175e-02  4.9062259262038291e-02  2.1405898993098635e-01  2.2461995582079800e-01  2.2356721334760560e-01  2.2359200524368139e-01  2.2467270398860642e-01  2.1406889837721074e-01  2.2365019351497276e-01  2.2478031911042026e-01  2.1408772851054192e-01  2.2373890985940548e-01  2.2492338310582999e-01  2.1412861027945554e-01  2.2385971819177294e-01  2.2509105316341266e-01  2.1420356350460701e-01  2.2401327352520506e-01  2.2527097286263698e-01  2.1432007228518574e-01  2.2417889849290809e-01  2.2544907794362412e-01  2.1446753677317218e-01  1.1713753208662850e-01  1.2795796342606164e-01  1.1657473732159465e-01  1.1659163218123125e-01  1.2796728832303930e-01  1.1714337767073117e-01  1.1662921404767625e-01  1.2800990400706516e-01  1.1716138796299969e-01  1.1666073291212987e-01  1.2806666889569324e-01  1.1717553994576903e-01  1.1666854313507485e-01  1.2812204699159047e-01  1.1717096665176847e-01  1.1663768254049861e-01  1.2816537928270869e-01  1.1713673925826922e-01  1.1655081020047234e-01  1.2819298999132270e-01  1.1708721993178642e-01  9.9867716483076768e-02  1.0779335000578680e-01  1.1530486291667105e-01  1.1534287019996742e-01  1.0783303015981392e-01  9.9904998797472611e-02  1.1543086740890858e-01  1.0793190146400945e-01  9.9994204974481485e-02  1.1551914701904602e-01  1.0803345131511689e-01  1.0007376617628265e-01  1.1556284781448536e-01  1.0807853722654508e-01  1.0008478169368835e-01  1.1551394423944027e-01  1.0800154138008533e-01  9.9967032273454423e-02  1.1529554222961731e-01  1.0771323803196958e-01  9.9653188811570301e-02  1.0054748656225423e-02  1.7990488130395704e-02  1.9264657948017645e-02  1.9365132802482709e-02  1.8007002863086166e-02  1.0147638496408803e-02  1.9455595382644558e-02  1.7967540864757044e-02  1.0259372513244715e-02  1.9439233009461897e-02  1.7822242123975422e-02  1.0288822760116653e-02  1.9286481159886716e-02  1.7572522038789964e-02  1.0187601360439886e-02  1.8959102511431486e-02  1.7205891000401419e-02  9.9058542024204402e-03  1.8370205493350972e-02  1.6667006379776798e-02  9.2577519604075849e-03  7.5528153045522864e-02  7.5448478600478250e-02  7.5235650715330046e-02  7.4914651621594844e-02  7.4514870782075027e-02  7.4071096610738074e-02  7.3623283533413922e-02  2.3885660344532184e-01  2.4889308770769114e-01  2.5163998927973641e-01  2.5162227304316831e-01  2.4893029801225439e-01  2.3878334109763560e-01  2.5161561685048733e-01  2.4901606511282273e-01  2.3863325951054939e-01  2.5162490756105166e-01  2.4912176163909822e-01  2.3847732519922424e-01  2.5165097296355637e-01  2.4923300371080542e-01  2.3835795146918803e-01  2.5169384600726913e-01  2.4933652559660593e-01  2.3831061002946932e-01  2.5174323129764770e-01  2.4942583934220441e-01  2.3836969856613269e-01  1.3432098968177369e-01  1.3431914380669965e-01  1.3430218835320692e-01  1.3426558161608737e-01  1.3419670620113705e-01  1.3408316075924090e-01  1.3392692450260774e-01  2.2756824174417198e-01  2.2756680610485330e-01  2.2757806871787800e-01  2.2759383051402071e-01  2.2761421676622084e-01  2.2763656301416893e-01  2.2764633064412740e-01  6.2008625138587160e-02  7.0234610688562168e-02  6.6095181175046425e-02  6.6009646102624456e-02  7.0139480211902958e-02  6.1899460805802629e-02  6.1629551335318722e-02  6.9900827033141766e-02  6.5758697062102189e-02  6.1228608851449776e-02  6.9546022942828162e-02  6.5378985110875712e-02  6.0723809551944861e-02  6.9097397711957970e-02  6.4905868767064168e-02  6.0142157619369890e-02  6.8586225779209017e-02  6.4382714479511771e-02  5.9530247474851791e-02  6.8046729464468603e-02  6.3828257803227290e-02  1.5739748964711234e-01  1.6716644942623846e-01  1.6571629463761436e-01  1.6571137633529345e-01  1.6714754411105229e-01  1.5743550536939108e-01  1.5754820029455185e-01  1.6712481980096938e-01  1.6572508248332848e-01  1.5768393537564002e-01  1.6709878664587782e-01  1.6574794963340808e-01  1.5782741439369552e-01  1.6708552602555968e-01  1.6578948424753526e-01  1.6710215934525011e-01  1.5795718436612088e-01  1.6586159528168531e-01  1.5798518453284913e-01  1.6716357919906272e-01  1.6595893875255940e-01  5.2830107012339173e-02  5.2953756401789585e-02  5.3145345882970894e-02  5.3259105319305160e-02  5.3248002744193682e-02  5.3069794185549163e-02  5.2685054654141701e-02  1.7887913908408271e-01  1.7887818791675994e-01  1.7886970649968270e-01  1.7885820064764421e-01  1.7885109476930106e-01  1.7885795418629372e-01  1.7889172114136315e-01  1.8059752237630569e-01  1.9224708358645648e-01  1.8584114845364133e-01  1.8583165231211460e-01  1.9224549343086209e-01  1.8057999009108430e-01  1.8054084409468882e-01  1.9224567193315273e-01  1.8580531721018162e-01  1.8050408869516218e-01  1.9226109224175009e-01  1.8578047268442160e-01  1.8049175044747268e-01  1.9230273405166690e-01  1.8577874981296716e-01  1.8052880395345072e-01  1.9238446143200624e-01  1.8582300092792031e-01  1.9251255963164490e-01  1.8064911180679924e-01  1.8593973287695398e-01  1.7038097535550586e-01  1.7029874613841542e-01  1.7003214060454333e-01  1.6970503465294040e-01  1.6939198982753806e-01  1.6918979440824100e-01  1.6939777068361900e-01  5.1679727693909758e-02  5.1706120810062400e-02  5.1692690548329971e-02  5.1590537630549549e-02  5.1378860150943492e-02  5.1050998194684033e-02  5.0598007956991195e-02  3.4935965333537988e-02  3.4878693209137050e-02  3.4652652930029462e-02  3.4292235546546555e-02  3.3829510467596448e-02  3.3308424721710819e-02  3.2791646878683384e-02  2.8356744350890011e-02  3.8996380304159348e-02  3.8989521066529385e-02  2.8321573277833988e-02  3.8834971602667197e-02  2.8130684464897845e-02  3.8552795130208310e-02  2.7803795495757792e-02  3.8183251411078326e-02  2.7383131405452222e-02  3.7764359011648652e-02  2.6906463781375699e-02  3.7328948555185058e-02  2.6402371040535798e-02  1.5899839224742790e-01  1.5898894095717805e-01  1.5897812741666248e-01  1.5895583113140643e-01  1.5891575123263424e-01  1.5885052584564696e-01  1.5874384098446509e-01  2.5757624356717695e-01  2.6562656619046643e-01  2.6716813704249442e-01  2.6719232244208502e-01  2.6568298356395603e-01  2.5757036873871753e-01  2.5758368380446073e-01  2.6583869299808305e-01  2.6726094752313617e-01  2.5761421471540868e-01  2.6602499741384866e-01  2.6735078101217175e-01  2.5766194791233049e-01  2.6621015793586222e-01  2.6744604885703849e-01  2.6636141972056626e-01  2.5773172552510387e-01  2.6753368145486905e-01  2.6642532571926936e-01  2.5782641110505222e-01  2.6759810964592401e-01  1.5546068419310094e-01  1.6034606784764971e-01  1.6033127729303942e-01  1.5547833262821842e-01  1.5553937423142800e-01  1.6030817698230959e-01  1.5561030506211534e-01  1.6028158034208689e-01  1.6026507553851999e-01  1.5568588518583371e-01  1.6027691873960942e-01  1.5575185604238340e-01  1.5576091766210112e-01  1.6032829739275548e-01  2.0795541727131092e-01  2.1837963125729387e-01  2.0947992806294566e-01  2.0947644808523860e-01  2.1837686065191689e-01  2.0794035476867673e-01  2.0792020696883226e-01  2.1837660467508851e-01  2.0947357855515644e-01  2.0790289689430244e-01  2.1838082705274961e-01  2.0947652072091613e-01  2.1839980004823900e-01  2.0790583356494913e-01  2.0949784048198472e-01  2.1844150918363614e-01  2.0794474109166688e-01  2.0954888997908844e-01  2.0802469038885313e-01  2.1850840512879779e-01  2.0962983401495305e-01  1.7323159959869744e-02  2.7952152661118734e-02  2.7239162290212653e-02  2.7149895010668241e-02  2.7868649808342055e-02  1.7183207214963196e-02  1.6829593230475837e-02  2.7608105100979528e-02  2.6855539365217573e-02  1.6343049779967665e-02  2.7216676397768751e-02  2.6420566026677528e-02  1.5770902845091698e-02  2.6743027234126641e-02  2.5904851324322971e-02  1.5140624475171525e-02  2.6224054093210443e-02  2.5356588408558520e-02  2.5685110008232731e-02  1.4489529662548508e-02  2.4822692132191071e-02  2.3415466257373332e-01  2.3413462446662553e-01  2.3410309774811078e-01  2.3408941357458657e-01  2.3410739752318221e-01  2.3417421519344764e-01  2.3433184362871451e-01  1.5412614085366688e-02  2.2867419922386098e-02  2.2163441497319480e-02  2.2101837453570288e-02  2.2790394468250770e-02  1.5446106250312999e-02  1.5432565219390102e-02  2.2556963458915266e-02  2.1855464482157288e-02  1.5284842278307427e-02  2.2155014229660052e-02  2.1443571424064327e-02  1.4946947301620196e-02  2.1561477302951312e-02  2.0864272630878072e-02  2.0736852913970812e-02  1.4368025710746808e-02  2.0108962195515202e-02  1.9641307079454395e-02  1.3403341857698549e-02  1.9115857895747337e-02  1.3017473024812190e-01  1.3018511168324803e-01  1.3023702883006652e-01  1.3030291998555274e-01  1.3037653413020123e-01  1.3046012269316440e-01  1.3055634964558002e-01  5.1087679582592686e-02  6.0837024379068953e-02  6.0148985100769270e-02  6.0265078305662259e-02  6.0949526713173781e-02  5.1192774642715218e-02  6.0475659366005921e-02  6.1144900169396554e-02  5.1292211294801431e-02  6.0633907405970404e-02  6.1279074426839185e-02  5.1300968238556517e-02  6.0668283342873462e-02  6.1289344239867316e-02  5.1192605189362021e-02  6.0522684147957140e-02  6.1128928816953303e-02  5.0955135847171706e-02  6.0132473180576150e-02  6.0759751660932046e-02  5.0602020997541894e-02  3.8404199768701394e-02  4.8723565646424521e-02  4.7642340094248462e-02  4.7649108210993454e-02  4.8709617770801697e-02  3.8333718419073688e-02  4.7560296228179220e-02  4.8575814333139455e-02  3.8071040636535936e-02  4.7365341236554601e-02  4.8336256423563234e-02  3.7680639974019457e-02  4.7079886661324954e-02  4.8012401358059668e-02  3.7216316520153177e-02  4.6726815485031749e-02  4.7636732776265969e-02  3.6735220695086453e-02  4.6341397046678834e-02  4.7245621096217924e-02  3.6287792054932329e-02  2.1561382908959950e-01  2.1559819323105142e-01  2.1557100609961116e-01  2.1554361803236263e-01  2.1553464447220030e-01  2.1556236575618123e-01  2.1564360185755663e-01  2.7539172397077254e-02  3.6794365259828113e-02  3.5754371628469450e-02  3.5685847242009558e-02  3.6750889910775082e-02  2.7443519489437691e-02  3.5441310835813512e-02  3.6554821293793886e-02  2.7167732620290781e-02  3.5073157998297452e-02  3.6226744248046491e-02  2.6764853193199583e-02  3.4624623773710880e-02  3.5800861071742601e-02  2.6262415425711647e-02  3.4143957481981735e-02  3.5321814325571951e-02  2.5701272738945152e-02  3.3682001172963993e-02  3.4828743010048936e-02  2.5143280269362807e-02  1.9333495435983858e-01  1.9692767823317966e-01  2.0555534207051532e-01  2.0557624439763963e-01  1.9692262115352815e-01  1.9330818930300878e-01  2.0562939956174037e-01  1.9692019280067441e-01  1.9326450046253860e-01  2.0570757994552549e-01  1.9693614310768315e-01  1.9323375289151212e-01  2.0581762792076347e-01  1.9699573452347324e-01  1.9324553810846518e-01  2.0595716164002348e-01  1.9712081578640658e-01  1.9331962848236550e-01  2.0611603089350800e-01  1.9731477144259893e-01  1.9346026221415175e-01  6.3012539136881651e-02  6.1810360342385774e-02  6.1867590366396788e-02  6.3058774498415737e-02  6.1914250884170192e-02  6.3105405779325469e-02  6.1887454843629050e-02  6.3084563987474765e-02  6.1753765644469709e-02  6.2953379095180270e-02  6.1490624795777320e-02  6.2684613595146724e-02  6.1085882976668920e-02  6.2280143632115752e-02  1.9480861112455526e-02  3.0407721111654257e-02  3.0429400066883636e-02  1.9494966020402616e-02  3.0441015610258339e-02  1.9490815064002263e-02  3.0372054017465649e-02  1.9405445668067425e-02  3.0174821722988920e-02  1.9181676381169119e-02  2.9828566749361473e-02  1.8808156629243455e-02  2.9290346340847699e-02  1.8287333737317748e-02  1.9784612389676062e-01  1.9780724263864163e-01  1.9774702145068049e-01  1.9770099877886857e-01  1.9769510633367429e-01  1.9775485212545282e-01  1.9789275664220415e-01  3.7616593683816729e-02  4.6938397831034047e-02  4.6902372290887812e-02  4.6836752300187912e-02  4.6898427085018977e-02  3.7569173230892060e-02  4.6629854970812012e-02  4.6766056516410998e-02  3.7398731921844668e-02  4.6281989292952082e-02  4.6504796313748903e-02  3.7080141926593140e-02  4.5783123638014234e-02  4.6096151019175684e-02  3.6605080366087804e-02  4.5114505798364110e-02  4.5508889188908129e-02  3.5964798000830675e-02  4.4282040948242403e-02  4.4737295999570915e-02  3.5165249396233458e-02  7.2616924830770938e-02  8.2931314777422827e-02  8.2847688295679595e-02  7.2521038598702972e-02  7.2282824782789801e-02  8.2620936497976874e-02  7.1938558992534860e-02  8.2305433758390056e-02  7.1511704229478390e-02  8.1931579510567204e-02  7.1032197832629262e-02  8.1544049163374197e-02  7.0572940218181821e-02  8.1174593625643887e-02  1.7750687462163051e-01  1.9099583900128719e-01  1.8095118291617721e-01  1.8093671272805220e-01  1.9099065922895200e-01  1.7750084186590018e-01  1.8089811480343201e-01  1.9097426013990906e-01  1.7748789644133972e-01  1.8084862071123636e-01  1.9095229687971257e-01  1.7747050867339800e-01  1.8080096125121600e-01  1.9094108063103116e-01  1.7745682365681917e-01  1.8077116625855366e-01  1.9095814551861526e-01  1.7745560687337023e-01  1.8078265407516830e-01  1.9101246064311767e-01  1.7747140682225468e-01  7.5409005784575711e-02  7.5289751562856777e-02  7.4980378949409385e-02  7.4551920426920645e-02  7.4048398094913065e-02  7.3525452065514474e-02  7.3063203772710500e-02  8.5476046199877295e-02  8.5380842441946575e-02  8.5140178715665565e-02  8.4816764569065867e-02  8.4432424718254989e-02  8.4026650723833446e-02  8.3691189378984759e-02  1.7492134524480416e-01  1.7487203326235998e-01  1.7472857811635117e-01  1.7456573257118310e-01  1.7442272057160760e-01  1.7434387722850228e-01  1.7443557244887298e-01  1.0230798757366008e-01  1.0679436811802158e-01  1.1800367582135478e-01  1.1801205469178470e-01  1.0673932781738599e-01  1.0225099289304901e-01  1.1804053204242937e-01  1.0664043766223000e-01  1.0213095698020500e-01  1.1805822189677592e-01  1.0649467183689809e-01  1.0195579135527692e-01  1.1803830684861460e-01  1.0630821395450799e-01  1.0173716574963863e-01  1.1795764815485867e-01  1.0609972369497001e-01  1.0149434883218314e-01  1.1781203962358845e-01  1.0589281616903769e-01  1.0125394892201163e-01  1.9893306461213386e-01  1.9893826693714162e-01  1.9895655946329024e-01  1.9898829574337706e-01  1.9904454688210763e-01  1.9913454056838018e-01  1.9925714483941992e-01  2.6247462738224903e-01  2.6252396274967621e-01  2.6265337047822523e-01  2.6280787953928914e-01  2.6296127073780778e-01  2.6309308000297527e