<?xml version="1.0"?>
<VTKFile type="UnstructuredGrid"  version="0.1"  >
<UnstructuredGrid>
<Piece  NumberOfPoints="1048" NumberOfCells="4415">
<Points>
<DataArray  type="Float64"  NumberOfComponents="3"  format="ascii">4.691397741995742 3.927412837355647 3.342751538538561  4.623758330655575 3.913130821149139 3.218186272403378  4.782066214560719 3.977317500786588 3.195179943447914  4.646207149392318 3.852960141051493 3.206090598904638  4.511614752919308 3.726388910841423 1.856602971798113  4.646846367286075 3.709399246495501 1.971109052436611  4.634687217032644 3.716171305790817 1.818986364271276  4.639690702735361 3.783287677434159 1.819638750439394  4.649852948594093 3.774185750001577 1.975762295486776  4.517183859073683 3.794326211527095 1.859975367044378  4.644581186768231 3.85072614322776 1.820049962287954  4.652790178870608 3.839285240905199 1.980250673008536  4.522692379566541 3.862531857484717 1.863105673439938  4.649524161080386 3.918472186536102 1.820441888988334  4.655803325440061 3.904722149926699 1.984762332742755  4.528296862026227 3.931069674165788 1.866221180820246  4.654598871765488 3.986510081846824 1.820903026752511  4.658940198166417 3.970487884988843 1.989369625531633  4.534042014330577 3.999896309839787 1.869420847051062  4.659887275180521 4.054820017276163 1.821515187203459  4.662258296636631 4.036571083744064 1.994137523285543  4.5399969251021 4.068978873287217 1.872793119389609  4.665497071361693 4.123383452130735 1.822372132090137  4.665832235221535 4.102956118375928 1.999136543874138  4.546235988758008 4.138271663995244 1.876418660998884  4.719854099546744 3.697126351293713 2.09849458791518  4.649689348900099 3.678399343705731 2.243586191941718  4.773863781987311 3.689342927998752 2.19281153169982  4.773510806712225 3.750545181535811 2.198502613381345  4.646027468856695 3.739412322503009 2.252382788192726  4.720224526628498 3.759633250592431 2.103998043311728  4.773124897784905 3.812103058446992 2.204223706002681  4.642418119247194 3.800744227032163 2.261191287162744  4.720567706374075 3.822476484853714 2.109451121023376  4.772762840855648 3.87401715022891 2.210006801916794  4.638861182213087 3.862430516255344 2.270062576778237  4.720963115948114 3.885664779573323 2.114954135883177  4.772459357344665 3.936294618721239 2.215862095548029  4.635353651440987 3.924470560354147 2.279043015205787  4.721454036772113 3.949207092287867 2.120547107749385  4.772255959982823 3.998947598142939 2.221807107705724  4.631886708740599 3.986859082087508 2.288160035965204  4.722078712378764 4.013109336743559 2.1262696065251  4.772204963804291 4.061964286518846 2.227867757185061  4.628415834061511 4.049602128611805 2.297408952512173  4.722841575247744 4.077397853357831 2.132172078005885  4.503297994201095 3.713347259022025 2.001527768065009  4.506042146257785 3.778740508703704 2.010161209864719  4.508783236331586 3.844531334342836 2.018607765554167  4.511640104625824 3.910656057648673 2.027080390752946  4.514624601215457 3.977110325837219 2.035670575308254  4.517775057514169 4.043889764037064 2.044473737596909  4.521115488582731 4.110981290495326 2.053612159706247  5.141846657912321 3.665971703260448 3.046885086779868  5.123808410043225 3.652131364840413 3.199740957476425  5.220586764512992 3.667750110694033 3.146750609073546  5.213889458552988 3.734802394298384 3.153237101306836  5.112301649035835 3.719035913324348 3.208946441955603  5.1333188427127 3.730974515801723 3.051155778784976  5.100705401615745 3.785964491701702 3.218453314399533  5.124659150727254 3.7960738056715 3.055719868000291  5.206978165518203 3.801928768158593 3.160045718345202  5.089080352995 3.852960880831647 3.228061596087005  5.115968540756288 3.861327667680671 3.06037790931956  5.200031531583803 3.869170200481841 3.166932026555998  5.07744963836163 3.920019028536302 3.237643722463416  5.107279603084974 3.926720993411085 3.064998552949237  5.193104450632705 3.936516741698731 3.173778246348113  5.06582431853546 3.98710790163361 3.247103844777592  5.09861869795444 3.992219355594718 3.069461260510736  5.186247877788747 4.003939748282669 3.180479428261002  5.090009707744787 4.057757984175857 3.07365807203241  5.054239822769903 4.054180175667316 3.256346999759104  5.179528188107484 4.071390739997454 3.186936999049807  4.442589489577021 3.563222086527959 2.578877281972679  4.550476423421854 3.560104843372415 2.711425404835  4.574711384579811 3.59873854248626 2.576888764330063  4.561100663112023 3.655187892163018 2.589639197006305  4.533956488956824 3.615545147681486 2.724040312162248  4.42835533852787 3.618305193101238 2.594601865943793  4.547633999495182 3.711983227793697 2.602582458820781  4.517565020146847 3.67131181362031 2.736901292567921  4.414223295957695 3.673701651760485 2.610503917634748  4.53415347918946 3.769107885512504 2.61563973764188  4.501146573357272 3.727375961153092 2.749875589680058  4.400086547365356 3.729404438697709 2.626559103979015  4.520549359400844 3.82656726368344 2.628783040357507  4.484579782917698 3.783769695465376 2.762899827069003  4.385833908040053 3.785479091446275 2.642752711944812  4.506713779612773 3.884400241162472 2.641988993984482  4.467720866531772 3.840484309267489 2.775909985259319  4.371350214802348 3.841963046635859 2.659099453103321  4.492507206350242 3.94265472672092 2.655200074910142  4.450432503208765 3.897546246865037 2.788854237413612  4.356396985978995 3.898951224011205 2.675569112773381  4.755963811952966 3.55320928867869 3.144393419384071  4.893408661389307 3.603591711770878 3.128850266462325  4.818614366196211 3.599390064823308 3.0163897914172  4.800028546708705 3.659411934044889 3.025692785674072  4.874868056987044 3.665663882403504 3.139709546193596  4.733919969620834 3.612866108831938 3.156485794165069  4.856435953334105 3.727834769923489 3.150812713509319  4.712101490424113 3.672682078890457 3.168881859438726  4.781580318897682 3.719620421154206 3.035281211231347  4.838000626649798 3.790124404057205 3.162024149145082  4.690280725855395 3.732667567089998 3.181350770002287  4.763097345845821 3.780005324715014 3.044935019233825  4.819492048211599 3.852500976423631 3.173220106109538  4.668347070175083 3.792778723417174 3.193783467648143  4.744501528507025 3.840539480762743 3.054555189349272  4.800857293718729 3.914917367703012 3.184300195057684  4.725725349357137 3.901178863608068 3.064044655111895  4.706716873841025 3.961859462076341 3.07330175105155  5.563865951473497 3.902064709942175 2.894109601144146  5.444360074313928 3.888254597584394 2.880111309212777  5.465452930258591 3.88941142236364 2.741625006301554  5.451614408175535 3.825473409575642 2.878043619382386  5.456452289901243 3.950555944559524 2.743207413303725  5.551949851296381 3.963823834131482 2.897313664988106  5.437107814048909 3.951339167275243 2.882124934636916  5.447455330782049 4.012134104266432 2.744645617897098  5.540036917205076 4.025966796576565 2.900390681456372  5.42994285218681 4.014755982839329 2.883964307249526  5.438673141601651 4.074258508419518 2.745780119978708  5.528311821043026 4.088708087746531 2.903142870689836  5.423045463570574 4.078506725011112 2.885465905384661  5.690801891088028 3.899443119381925 3.242083475714558  5.582997245465041 3.884026084874768 3.28674360553566  5.618951851843954 3.90242259450542 3.14620151570556  5.589403745703884 3.816827270313137 3.274373059074244  5.701304135744074 3.834717571379743 3.22894279797745  5.608831160476917 3.967205754329596 3.155847108263964  5.680317475369669 3.964379473651932 3.255221968532396  5.576651387146993 3.951408991951602 3.299086178404563  5.598838272547632 4.032298995544594 3.165375960218519  5.669933319024179 4.029622868252724 3.26828671979898  5.570499917498432 4.019003879187211 3.31130759558737  5.589196621094043 4.097790148898678 3.174655789794303  5.659910860726291 4.095337252207694 3.281149627434973  5.564765155299812 4.086788352083408 3.323265098948913  5.329969017448806 4.005144584399792 2.252248339895806  5.370973888055492 4.027397562826971 2.102457293030227  5.436360838448304 4.029977204798141 2.220479948354265  5.383396460404095 3.966222331670606 2.098517855264732  5.338806040483099 3.944752136216885 2.248707234585976  5.420969128663419 4.090046159999485 2.225243960424578  5.321045550244237 4.066087066847752 2.255866553297248  5.358204159925323 4.089157358235858 2.106621516431397  5.541681288098943 3.834639126795683 3.023477793397781  5.415877681096664 3.825149312971714 3.025786679072453  5.45880494507574 3.762967067220749 2.876062912225014  5.422134756535258 3.760011373954019 3.021970866769694  5.5329419422884 3.89881503919002 3.028100328551554  5.409576990954912 3.890507777930155 3.029679362106091  5.524209439950317 3.963252269878565 3.032687812880462  5.403318559471871 3.956105589470408 3.033511507644988  5.515589433098116 4.027999793463842 3.037121958652877  5.39719917878017 4.021945449261182 3.037164554703876  5.507293872221504 4.093093700830772 3.041245689868256  5.391340776591313 4.08798431256286 3.04051568570966  5.428134835026212 3.695023888558883 3.018483740824926  5.511472441123128 3.692581103162119 3.135254136060803  5.55881550690816 3.706945425095934 3.014709235893305  5.5055967782908 3.758875930630484 3.142416544319491  5.550355287244929 3.770678038355483 3.018951016345894  5.499429817255145 3.825326146880347 3.149911914587835  5.493212391428644 3.891948325123946 3.157494152743664  5.487041667516745 3.958779517925625 3.165033446107695  5.481038419679479 4.025840741027628 3.172422738585356  5.47541006649807 4.093105530820012 3.179537973276982  5.755068613492419 3.924968009001234 3.502866504584249  5.689093046841083 3.951095696122523 3.36527365299579  5.779691529031465 3.965516176999863 3.328337882944437  5.697526863730086 3.884642808202452 3.349539028876519  5.765444678647925 4.028995002918108 3.345948083415771  5.748132733132847 3.990577946751532 3.52717293340203  5.680826961097271 4.017854862356945 3.380936529769377  5.751403745389759 4.092973981821013 3.363455315944771  5.741716135329139 4.056624985057346 3.55137516
[...]
<PointData  Scalars="f_14"> 
<DataArray  type="Float64"  Name="f_14"  format="ascii">6.1154976882997281e-01  6.1915129253180690e-01  6.0632031249589036e-01  6.1937966973483938e-01  6.5367649571827369e-01  6.4045570716211520e-01  6.4266359320045718e-01  6.4268300455410987e-01  6.4048008475220253e-01  6.5370665820016371e-01  6.4274810652359793e-01  6.4055122887091520e-01  6.5379641936428612e-01  6.4286737105437974e-01  6.4067651593758523e-01  6.5395027209216461e-01  6.4305910719965576e-01  6.4087289096148115e-01  6.5418759389526571e-01  6.4334419192113856e-01  6.4115898836602803e-01  6.5452475893610051e-01  6.4374566396660227e-01  6.4155964724787551e-01  6.5496988038267501e-01  6.3278794479589440e-01  6.3836351348209330e-01  6.2693041257963356e-01  6.2692560796612473e-01  6.3840546826415279e-01  6.3281083788585968e-01  6.2693409526184529e-01  6.3851820310286433e-01  6.3289354953103705e-01  6.2696834439071336e-01  6.3869233659999070e-01  6.3302451987381114e-01  6.2704693003014500e-01  6.3891888538609609e-01  6.3321182339393745e-01  6.2718441341368836e-01  6.3919111785464811e-01  6.3346086180444150e-01  6.2738500640770523e-01  6.3949528949517853e-01  6.3376151924049007e-01  6.5345250114416931e-01  6.5349789481904907e-01  6.5361471758131540e-01  6.5380254357132606e-01  6.5407222310216084e-01  6.5443213205595763e-01  6.5487864601883539e-01  5.8491762349047138e-01  5.8516315133157970e-01  5.7702363604002649e-01  5.7696574346823004e-01  5.8513095454729591e-01  5.8488569126581524e-01  5.8505701400399301e-01  5.8479506355501865e-01  5.7680827448561844e-01  5.8495025878610518e-01  5.8466274553698783e-01  5.7660505271359053e-01  5.8481038428685372e-01  5.8450405325941002e-01  5.7638723653951240e-01  5.8463747003061639e-01  5.8432940690503454e-01  5.7618218715468195e-01  5.8414112864987922e-01  5.8443704503590610e-01  5.7602297884847853e-01  6.5476619455050933e-01  6.4368502277245665e-01  6.4277485883391838e-01  6.4279303330696702e-01  6.4369641203351058e-01  6.5481554041773304e-01  6.4286422846941482e-01  6.4373713849399350e-01  6.5496651528488614e-01  6.4297141684142534e-01  6.4379570825885635e-01  6.5517465654946516e-01  6.4308542829764503e-01  6.4383883492876326e-01  6.5540160247162804e-01  6.4317284607083902e-01  6.4383180136795171e-01  6.5559879185984538e-01  6.4320150245264363e-01  6.4376102107127542e-01  6.5568534780743748e-01  6.1949414669259073e-01  6.0687590916272605e-01  6.1504449214810941e-01  6.1503160602444884e-01  6.0687105292226196e-01  6.1950211862003612e-01  6.0685562883178024e-01  6.1952519180584531e-01  6.1502012292395392e-01  6.0681046911565972e-01  6.1953558860000035e-01  6.1499065489973592e-01  6.0671617447492121e-01  6.1949796091226672e-01  6.1491537230411586e-01  6.0655659269895001e-01  6.1477018875586931e-01  6.1453855073238539e-01  5.4856199281027718e-01  5.5890775427614436e-01  5.5828392388274317e-01  5.5907664072069319e-01  5.5812369482687696e-01  5.4847064111682198e-01  5.5873736753880110e-01  5.5801977195786534e-01  5.4843916186325858e-01  5.5862316153463132e-01  5.5807065796039457e-01  5.4856692505369120e-01  5.5864471899123103e-01  5.3579113327326133e-01  5.4462090909868333e-01  5.4223278295754818e-01  5.4475255806768441e-01  5.3593189442356470e-01  5.4215332950684303e-01  5.3567108307776368e-01  5.4451972284851025e-01  5.4217329657657631e-01  5.3565004984411846e-01  5.4452877002277722e-01  5.4239099029824356e-01  5.3588721459354360e-01  5.4475805166390057e-01  5.7276568894069257e-01  5.6940578070061698e-01  5.6211760351815510e-01  5.6948956882780311e-01  5.7288751660134063e-01  5.6200612300550346e-01  5.7268671288113693e-01  5.6928826263023924e-01  5.5033226993410256e-01  5.6068486472962553e-01  5.5919871900934126e-01  5.6078637358102768e-01  5.5020189540617481e-01  5.6054549604773674e-01  5.5008389230494370e-01  5.6041133029867962e-01  5.5004459764672864e-01  5.6032964171231248e-01  5.5018311459310854e-01  5.6034135997202006e-01  5.6082099589195067e-01  5.5297855839994792e-01  5.5046015134313553e-01  5.5294443250495984e-01  5.5042768933019326e-01  5.5282910222404980e-01  5.5267796222935794e-01  5.5254727863822872e-01  5.5250525888817381e-01  5.5264041794321872e-01  5.2925436982255980e-01  5.3480444166384544e-01  5.2684090973087705e-01  5.3490688820109411e-01  5.2687144958793153e-01  5.2927661332619647e-01  5.3482859877730171e-01  5.2711166376437624e-01  5.2962007984991599e-01  5.3511963744033852e-01  6.4888758829200877e-01  6.3558700262754786e-01  6.4006955803812893e-01  6.4010560483029910e-01  6.3560719241054919e-01  6.4892212966544627e-01  6.4015899568906576e-01  6.3565148933768323e-01  6.4901703523087018e-01  6.4025159143564214e-01  6.3573220601356206e-01  6.4917344143193856e-01  6.4040291838282082e-01  6.3587037845738803e-01  6.4939884891092126e-01  6.4063776494163438e-01  6.3608805945438296e-01  6.4969909535851722e-01  6.4098874531289407e-01  6.3641626095832715e-01  6.5007632560129858e-01  6.3409478434634958e-01  6.2243711959326264e-01  6.2257615937152311e-01  6.2258960150395726e-01  6.2243258627026254e-01  6.3411298161065621e-01  6.2264902597318894e-01  6.2245425414995592e-01  6.3418254756754600e-01  6.2272081592538830e-01  6.2247254537179975e-01  6.3426720953128446e-01  6.2276916015341111e-01  6.2245228580113710e-01  6.3432607650946471e-01  6.2275641252660163e-01  6.2235997821603706e-01  6.3431543287084802e-01  6.2263288607811684e-01  6.2217144247579836e-01  6.3417682105916162e-01  6.1087164744815248e-01  6.1052501083755450e-01  6.1051005296468097e-01  6.1085219077902653e-01  6.1049468949621255e-01  6.1082951840728583e-01  6.1047452141096292e-01  6.1079111104322281e-01  6.1044194017554976e-01  6.1072449593836908e-01  6.1038716193042986e-01  6.1061701414577940e-01  6.1028558662315413e-01  6.1045406911672928e-01  6.4546886032456696e-01  6.4550228935531695e-01  6.4559005717180562e-01  6.4574170480486204e-01  6.4596325012395583e-01  6.4625941800755315e-01  6.4664428232150084e-01  6.3236031993551867e-01  6.2515481748552471e-01  6.2518540312953597e-01  6.3239297566904662e-01  6.2523612900138115e-01  6.3242673142877093e-01  6.2531215930111750e-01  6.3249066918241714e-01  6.2542696326271174e-01  6.3259617160263637e-01  6.2559695742019417e-01  6.3275612511454726e-01  6.2584435792908855e-01  6.3300856227632729e-01  6.4552490391962192e-01  6.3645673529170410e-01  6.3647071113238873e-01  6.4554348408940143e-01  6.3651422334403374e-01  6.4559665415636924e-01  6.3656108080028673e-01  6.4566469630693168e-01  6.3657221644650341e-01  6.4570602924781073e-01  6.3650450239956469e-01  6.4567500814871492e-01  6.3631865224606654e-01  6.4552778705572267e-01  5.9000919718346334e-01  5.7785265888055026e-01  5.7733587803627762e-01  5.7736966988643545e-01  5.7787732695079563e-01  5.9001785158708298e-01  5.7744460894965566e-01  5.7794502743956000e-01  5.9005580105479416e-01  5.7753708150544758e-01  5.7802657327785323e-01  5.9009990527690159e-01  5.7762913697123786e-01  5.7810263857348543e-01  5.9014454456237453e-01  5.7770540546110438e-01  5.7814646668209879e-01  5.9018427607824031e-01  5.7774472586201664e-01  5.7810648303616763e-01  5.9020979863440493e-01  6.5583948929902247e-01  6.5588641645680545e-01  6.5603630042683214e-01  6.5623860981528592e-01  6.5643799866373598e-01  6.2809642979998725e-01  6.2811091752880577e-01  6.2814368527619813e-01  6.2816950744994482e-01  6.2815368821800799e-01  6.2805985051691926e-01  6.2785627481703843e-01  6.2221932245154510e-01  6.2222335170471232e-01  6.2224692766027090e-01  6.2229105822582609e-01  6.2237380577346035e-01  6.2251551544965622e-01  6.2272569471660666e-01  5.9124998529543638e-01  5.8255337536276586e-01  5.9126021376382631e-01  5.9139480956528245e-01  5.8270665571323332e-01  5.9134408990022969e-01  5.9145164985285303e-01  5.8276060625282033e-01  5.9150543024104241e-01  5.8283442073975145e-01  5.7974095352241850e-01  5.7033603143867084e-01  5.6828778934336044e-01  5.6825996868129858e-01  5.7031154541729390e-01  5.7970927680085971e-01  5.7961766963613359e-01  5.7023312850475538e-01  5.6817498072781536e-01  5.7948443178253228e-01  5.7011526269683721e-01  5.6805088846841945e-01  5.6998680786984091e-01  5.7933514517785212e-01  5.6791878588369615e-01  5.7919623936401532e-01  5.6987517513077224e-01  5.6781299501000571e-01  5.7908849339103641e-01  5.6980188429582779e-01  5.6776611771647889e-01  6.1052049798980912e-01  6.1527239297591441e-01  6.1531783010120722e-01  6.1053324851831192e-01  6.1054373125322114e-01  6.1541517628511311e-01  6.1056009317913773e-01  6.1554075420429477e-01  6.1059705025608435e-01  6.1568985277229082e-01  6.1067085400682264e-01  6.1585419993099888e-01  6.1080952975336178e-01  6.1600129794891345e-01  5.9443062824334947e-01  5.9444623740222824e-01  5.9445068012261792e-01  5.9442305244014282e-01  5.9434889516191713e-01  5.9421241846647743e-01  5.9399470084649697e-01  5.6378833948345541e-01  5.7215833702070695e-01  5.7230397502300323e-01  5.6368569602356555e-01  5.7203158991162728e-01  5.6359713102436504e-01  5.7196485625285098e-01  5.6004113429164615e-01  5.5987643894804917e-01  5.5981688192047308e-01  5.4487329554830610e-01  5.4244285300646211e-01  5.4485173271933551e-01  5.4241586397468078e-01  5.4233685665867637e-01  5.6221249682954877e-01  5.6219073617354243e-01  5.6212485530465961e-01  5.6202648095709040e-01  5.6193176796426569e-01  5.6187623279046672e-01  5.6187329708503142e-01  6.6430294023952752e-01  6.6435071615822272e-01  6.6446522657982343e-01  6.6465571015904468e-01  6.6493481944290900e-01  6.6531290984283242e-01  6.6581216964492085e-01  5.7301398269732939e-01  5.7963825230194321e-01  5.6955045161347251e-01  5.7971167013748026e-01  5.7955332850757890e-01  5.7946741548098513e-01  5.7940240056142600e-01  5.9396463330001159e-01  5.8270057241168394e-01  5.8384616748148188e-01  5.8383546634508721e-01  5.8266822239183380e-01  5.9393554049070674e-01  5.8257498841611832e-01  5.9384692287475915e-01  5.8380679623408027e-01  5.9373175250790766e-01  5.8244774751072526e-01  5.8375906760112461e-01  5.9362129218661341e-01  5.8231495218963236e-01  5.8370860108674905e-01  5.9354782524925909e-01  5.8220666009370714e-01  5.8367064588457540e-01  5.9356416713651861e-01  5.8216580800359419e-01  5.8364142827711196e-01  5.7312597702579970e-01  5.3165648030568424e-01  5.3943522233189278e-01  5.3162240584957110e-01  5.3941109574988799e-01  5.3176188395899815e-01  5.3958487962471258e-01  5.9717040847097635e-01  5.8610624350113194e-01  5.8367281052754538e-01  5.8363749198025616e-01  5.8607560389316993e-01  5.9714886511121668e-01  5.8353076925657310e-01  5.8598100573753786e-01  5.9708301488918936e-01  5.8338580433322362e-01  5.8584962592068435e-01  5.9699572416448021e-01  5.8323584817772856e-01  5.8571149921397503e-01  5.9690927907264435e-01  5.8311849649642844e-01  5.8559699104790686e-01  5.9684365562757880e-01  5.8308528237833068e-01  5.8553754123117485e-01  5.9681062836076804e-01  6.4705039629066319e-01  6.5545926583308245e-01  6.5550987971451391e-01  6.4705883401102382e-01  6.5565657645882480e-01  6.4710369721534322e-01  6.5586845461356491e-01  6.4719589579367220e-01  6.5614223425801277e-01  6.4734238595835736e-01  6.5647341793122316e-01  6.4755495565128207e-01  6.5682892321801301e-01  6.4786924516551869e-01  5.9129822237191620e-01  6.3233116127278344e-01  6.2879172484399604e-01  6.2169970250384199e-01  6.2169233609918439e-01  6.2880954464624950e-01  6.3234587060179781e-01  6.2168353067958493e-01  6.2885139310759119e-01  6.3239901636217466e-01  6.2169076486031438e-01  6.2892681366821024e-01  6.3249042109706766e-01  6.2173689102422713e-01  6.2905551102105484e-01  6.3263743127484817e-01  6.2184885379587085e-01  6.2925858737497886e-01  6.3285853972647776e-01  6.2205847130819591e-01  6.2955335216252106e-01  6.3316854166360304e-01  5.8186318430928263e-01  5.7188125835319292e-01  5.7185240466436293e-01  5.8183771379283689e-01  5.7177122078191955e-01  5.8174906998251663e-01  5.7164847561988918e-01  5.8161608004278098e-01  5.7151228575536273e-01  5.8146282716466791e-01  5.7138595148900229e-01  5.8130759158353063e-01  5.7128610692635784e-01  5.8116406593605940e-01  5.9381779847844374e-01  5.9379614763484223e-01  5.9373708335898467e-01  5.9365671699792510e-01  5.9358069495897625e-01  5.9353328618400136e-01  5.9352888404079318e-01  6.5044367750788312e-01  6.5054468213428529e-01  6.5071831342701036e-01  6.5095226873953271e-01  6.5123638400184070e-01  6.5159123041145550e-01  6.0114508311709769e-01  6.0218314864894662e-01  5.9303186016224818e-01  5.9300497367145955e-01  6.0217627321933997e-01  6.0112351495216798e-01  5.9292010827234187e-01  6.0214756364513322e-01  6.0105354404588274e-01  5.9279521877224595e-01  6.0208673999871387e-01  6.0094875506511913e-01  5.9264274211878498e-01  6.0198588244032980e-01  6.0081880026564149e-01  5.9247055126269654e-01  6.0183571282073922e-01  6.0067140374352046e-01  5.9227575669122534e-01  6.0162235357971461e-01  6.0051045320311636e-01  5.6883161500799240e-01  5.7257108083185881e-01  5.7704068413457799e-01  5.7699842708576909e-01  5.7253232898908613e-01  5.6878537775397819e-01  5.7688515932004658e-01  5.7243734979298155e-01  5.6866924161895860e-01  5.7673236791177906e-01  5.6850753056345715e-01  5.7657046189091543e-01  5.6833545784530770e-01  5.7643636678728749e-01  5.6819663408749110e-01  5.7637433077011013e-01  5.6815028674749490e-01  5.9054461791002322e-01  5.7978376209651328e-01  5.9053271740889179e-01  5.7976450674336555e-01  5.9049389175955436e-01  5.9043740424024438e-01  5.9038054630235293e-01  5.9034014691397285e-01  5.9033320519927768e-01  6.1914293058645309e-01  6.0798363896266017e-01  6.0550567282581669e-01  6.0548492921892327e-01  6.0797266573893860e-01  6.1913195017906619e-01  6.0541314708847849e-01  6.0793345541910881e-01  6.1909449082797463e-01  6.0532726266121462e-01  6.0788366757919066e-01  6.1905954728579993e-01  6.0525156741038588e-01  6.0783712569427728e-01  6.1903577633484641e-01  6.0520994589672283e-01  6.0780506884418151e-01  6.1902998882227045e-01  6.0523217429731635e-01  6.0778122173548899e-01  6.1906063987551219e-01  6.1707278394427356e-01  6.2220679342863672e-01  6.2218989652547674e-01  6.1705124819490764e-01  6.2215596745790236e-01  6.1700291681285924e-01  6.2214001855639933e-01  6.1696141106353286e-01  6.2216868872193343e-01  6.1695281769930155e-01  6.2226893230222513e-01  6.1700357793989069e-01  6.2247049762322437e-01  6.1714223948935476e-01  5.9848939559521908e-01  5.9850626936778772e-01  5.9852467804751708e-01  5.9854809843517232e-01  5.9857875030179941e-01  5.9862176356302899e-01  5.9868669455409596e-01  6.5678493930896231e-01  6.5700874507631268e-01  6.5730959243055120e-01  6.5768372816052345e-01  6.5813289647849083e-01  6.1451136743835411e-01  6.1449858877513541e-01  6.1446211021235941e-01  6.1442704163790063e-01  6.1441627515644159e-01  6.1445147913722853e-01  6.1454142695967129e-01  5.5288654909108115e-01  5.6038739519364922e-01  5.6024442134837149e-01  5.5279959987303673e-01  5.6022299296926714e-01  6.0991087535966770e-01  6.0989624481805549e-01  6.0987111582223519e-01  6.0982287614731900e-01  6.0973797543039232e-01  6.0960412432515509e-01  6.0940684004481060e-01  6.2904167620871110e-01  6.2904733683591385e-01  6.2907062650181333e-01  6.2913043987568018e-01  6.2924524481915223e-01  6.2943377140559320e-01  6.2971858713885553e-01  6.4883383002734607e-01  6.4042818457353634e-01  6.4043609487385544e-01  6.4884054792656520e-01  6.4046333695544622e-01  6.4887786275397474e-01  6.4048785170344336e-01  6.4892358929543903e-01  6.4047448881028402e-01  6.4894044578603716e-01  6.4038277472318339e-01  6.4888305735536211e-01  6.4017296455542549e-01  6.4869933435719063e-01  5.4008034346444034e-01  5.4014244247494758e-01  5.4040505284663065e-01  6.7384484471367645e-01  6.8681798517937531e-01  6.7973065921087095e-01  6.8654198537148892e-01  6.7355794881100239e-01  6.8003280610957972e-01  6.7418218525617757e-01  6.8714892558172957e-01  6.8038526755716222e-01  6.7454834658345519e-01  6.8752207832561529e-01  5.6668698389059402e-01  5.7627556011822256e-01  5.7630554912331533e-01  5.6657145440899381e-01  5.7618322900315488e-01  5.6641315881079368e-01  5.7605322480674137e-01  5.6624580991639550e-01  5.7591295617873273e-01  5.6611429290175230e-01  5.7579441772361617e-01  5.6607157011783349e-01  5.7572676825422486e-01  6.5970079886992916e-01  6.6000563965011128e-01  6.6038274881738657e-01  6.2697810265837961e-01  6.2696662423261085e-01  6.2694350060622950e-01  6.2694189174535031e-01  6.2697714173932806e-01  6.2706093178764410e-01  6.2721569827322043e-01  6.0343958033891121e-01  6.0341296422579094e-01  6.0334061071430278e-01  6.0325518801872036e-01  6.0318321357233928e-01  6.0315327295905086e-01  6.0319926444380312e-01  6.8614991985294849e-01  6.8096381076790868e-01  6.7313138535057504e-01  6.8100655171179669e-01  6.8618998073808979e-01  6.7318333734751645e-01  6.8114034705342941e-01  6.8632928805102089e-01  6.7333370303189499e-01  6.8135162658200177e-01  6.8163652325109902e-01  6.8199501397409057e-01  6.8241927332647645e-01  6.2321895047303100e-01  6.5277362811219330e-01  6.4200238162965373e-01  6.4202977683675322e-01  6.5281702405338249e-01  6.4214410959119850e-01  6.5293926353929554e-01  6.4231526657810245e-01  6.5311923729954147e-01  6.4250760973333165e-01  6.5333368741459097e-01  6.4268667964116766e-01  6.5355523771429158e-01  6.4281926647432974e-01  6.5376102465281771e-01  6.8329510319844800e-01  6.7936854714183337e-01  6.6885757328566042e-01  6.6890067525191976e-01  6.7940200564059694e-01  6.8334750223333385e-01  6.8347154661130516e-01  6.7951175776006856e-01  6.6901740840323887e-01  6.8367157596559081e-01  6.7970638383189275e-01  6.6920620498099637e-01  6.8394676910164964e-01  6.7998954068632955e-01  6.6947370176644239e-01  6.8429913531802034e-01  6.8036808354073797e-01  6.6982384109527848e-01  6.8474335528413566e-01  6.8084731518398578e-01  6.7024485024719194e-01  6.0677579339819854e-01  6.0675993101265968e-01  6.0671386463014432e-01  6.0666329246654349e-01  6.0663453598004768e-01  6.0665614947637103e-01  6.0675275424907715e-01  6.6654895252387536e-01  6.6657875967623703e-01  6.6665833211554970e-01  6.6680917985875365e-01  6.6704817978034947e-01  6.6739013602030473e-01  6.6785571570197622e-01  6.4956751331263918e-01  6.4961860020934947e-01  6.4976040175038119e-01  6.4997048131606538e-01  6.5022481977129287e-01  6.5049617496179546e-01  6.5076736391538170e-01  6.0205771035933986e-01  5.9411891398597638e-01  5.9411669690315616e-01  6.0207308668241699e-01  5.9410699661207556e-01  6.0209270412208205e-01  6.0215298084628688e-01  5.9409034410966943e-01  5.9410504284200072e-01  6.0219874466320633e-01  6.0226905968997346e-01  5.9417233867502994e-01  6.8871181073296317e-01  6.9738746852050471e-01  6.8893016305959220e-01  6.9763391015254272e-01  6.8922090158036486e-01  6.9794724114547491e-01  6.8960893129877909e-01  6.9832966766027527e-01  6.4481920061502940e-01  6.5357609761252256e-01  6.5360556491427457e-01  6.4486367267457667e-01  6.5360099519329840e-01  6.4487012723118486e-01  6.4458036407808983e-01  6.5329163142564983e-01  6.3823430223655964e-01  6.3827356916846134e-01  6.3840351237691739e-01  6.3859151533510872e-01  6.3881408602812106e-01  6.3904222269868505e-01  6.3922205559887468e-01  6.7791760130061685e-01  6.7825942119309790e-01  6.7869909415704943e-01  6.7921739050630858e-01  6.6388602821309917e-01  6.6408477516239839e-01  6.6437247203024141e-01  6.6475221228940606e-01  6.6524173371624074e-01  6.1050393699255245e-01  6.1049504142949995e-01  6.1048077192366856e-01  6.1047121282391137e-01  6.1048421182066970e-01  6.1054346804035975e-01  6.1068887502135694e-01  6.2143778302482411e-01  6.2146818264020243e-01  6.2152711456326892e-01  6.2161162325140640e-01  6.2172456813956123e-01  6.3259169585629749e-01  6.3260478990843771e-01  6.3265338923556269e-01  6.3271849745228659e-01  6.3277256132126714e-01  6.3278715782823980e-01  6.3274040106742646e-01  5.9976249157399786e-01  5.9901694919595228e-01  5.9898110553943884e-01  5.9973071335352912e-01  5.9963585535829667e-01  5.9888210067435876e-01  5.9950905716879443e-01  5.9875623154305258e