<?xml version="1.0"?>
<VTKFile type="UnstructuredGrid"  version="0.1"  >
<UnstructuredGrid>
<Piece  NumberOfPoints="960" NumberOfCells="4045">
<Points>
<DataArray  type="Float64"  NumberOfComponents="3"  format="ascii">11.34256211003533 2.559963610454043 3.662915467942084  11.23041676328445 2.651653979168271 3.732827329951541  11.22654493170889 2.522080549939639 3.633936557215388  11.2271424548698 2.477950412016679 3.68647644053894  11.2316603871206 2.61342959716206 3.792986449823797  11.34344321932059 2.516540269140279 3.719197409562518  11.22683132920075 2.433268100843837 3.739509264215929  11.23210012896514 2.574863378073209 3.853805701071212  11.34349062990687 2.472472411856851 3.776051356920952  11.22632456455674 2.38806773681234 3.793078386235965  11.2324778456343 2.535774501879789 3.915195505496533  11.34338486626016 2.427893090400786 3.833572194690457  11.22595042096629 2.342372571446584 3.847169088995505  11.23306406960327 2.496233284094554 3.977182685592514  11.34336844321755 2.382831595205946 3.891820545401331  11.22588065665453 2.296166667219494 3.901752853016943  11.23407283180669 2.456215594717369 4.039769359013426  11.34360242476936 2.337248358748571 3.950832103395797  11.22636577811407 2.24940938010779 3.956835608451353  11.23579182069453 2.415617451933174 4.102895289599583  11.34433312903732 2.290924857888474 4.010715215094062  11.45017313350942 2.916924176512455 3.83578465703532  11.35592941900119 3.012875163010499 3.868285342044679  11.32664056721734 2.875209698350337 3.836812574918075  11.33154950168484 2.854299117138548 3.909020417914622  11.35971225008262 3.000459966062045 3.944533165793009  11.45315473437145 2.897308470834177 3.910023945454036  11.36306823277795 2.988143880511002 4.02141497589185  11.45561067174809 2.877287746080698 3.985203530891194  11.33601889371579 2.833174190201677 3.982113193773494  11.3663791788716 2.975590429717057 4.098924824119757  11.45782756665671 2.857071986891709 4.061257779094712  11.3402682997464 2.811794640376938 4.055866118100417  11.46001907804282 2.83669533639754 4.138080236025102  11.36991102595112 2.962672641634218 4.177255120840473  11.3445918043419 2.790083880484417 4.130277602418792  11.46252851047075 2.8159742797214 4.215786302428707  11.37390045941859 2.949499343180149 4.256304052496713  11.34930354527794 2.767986808706764 4.205469180081297  11.46549816718832 2.795067643106027 4.294536613596675  11.37854670792716 2.935950973824475 4.336258616164265  11.35501712784644 2.745517699430303 4.28152410317271  11.22985479022653 3.026625669198073 3.876304859304197  11.23335453612093 3.018413052135011 3.95146254081644  11.23627828083607 3.010526565785237 4.027429970613115  11.23921129221637 3.002344781110382 4.104050438440328  11.24234667037797 2.99384081514369 4.18127299065784  11.24587211410469 2.984989219893052 4.258998770081665  11.25008938314555 2.975803801660739 4.33712249278377  11.1218940323388 3.044060303420383 3.880338226641348  11.19743606152493 2.924460951123327 3.863682866623614  11.19839064254816 2.908150089363812 3.936746556067799  11.11958296308339 3.036435215624464 3.954473491081779  11.19882496566886 2.891867390446864 4.01059760425292  11.11660193799984 3.029139747688169 4.029263928522287  11.19925044920103 2.87526957583677 4.085059397090249  11.11357531471332 3.021541592705498 4.104690842319654  11.19988870878425 2.858295727640284 4.16008789451013  11.11076467463587 3.013622769508598 4.180608982433681  11.201007441164 2.840968084861712 4.23563275831653  11.10833633596535 3.005385522218571 4.256904058196389  11.20285678337005 2.823324772528568 4.3115682968244  11.10640862693329 2.996835461749688 4.333431198721572  10.63466443309029 2.40110381633999 3.522723604796444  10.55628298005653 2.461316273715987 3.577027574823821  10.4831908517984 2.393471218342823 3.521098624464123  10.4857741404746 2.352520911544397 3.56380890360632  10.55723405817466 2.421283787296829 3.62283059818201  10.63481157850055 2.358947290965796 3.565806856580581  10.48794745811372 2.31151189872338 3.606511335892026  10.55768977446951 2.381185206872638 3.668652176921114  10.6343954821987 2.316676178983172 3.608932732674373  10.48994243107649 2.270408226064786 3.649200257331383  10.55794112602073 2.340949388052442 3.714483280270574  10.6337735883993 2.274234879891481 3.652088994909125  10.49197264968439 2.229196423413705 3.691857099826545  10.55822296253674 2.300573920768089 3.760317827225499  10.63321382074632 2.231625019926884 3.695274829941322  10.49421564570415 2.187913732434148 3.734486920285571  10.55873931681514 2.260094025655073 3.806159976305058  10.63294322088776 2.188865959600459 3.738510037514444  10.49689500404515 2.146617499675637 3.777100297460225  10.55973739471617 2.219555662144724 3.852020197454712  10.63319915499756 2.145966031957449 3.781832817129321  11.57694427130069 2.701959091411587 3.752444259497754  11.47891133233145 2.801560487550037 3.802305400844375  11.4681068195285 2.666909767148381 3.727083072094366  11.46729900872911 2.628688596814997 3.79086973838677  11.48068461839901 2.772353385882574 3.873380243952731  11.57537676465182 2.66571202929006 3.820491479202544  11.46609878518946 2.589401289770934 3.855203135081244  11.48191061046881 2.742370276458251 3.945036950091243  11.57371471728053 2.628569706782815 3.889309454882811  11.46510942643102 2.549622921309886 3.920395344389827  11.48317650644342 2.712203333444647 4.017435215938757  11.57238650508054 2.591025730560782 3.959005713009034  11.46435398105588 2.509649526574528 3.986459618830391  11.48449533496621 2.682096363835602 4.090695092559328  11.57143320208519 2.553492742389152 4.029612451278301  11.46380237222378 2.469511492739694 4.053396345840538  11.48589744362979 2.65177477402838 4.16485433866134  11.5704755094579 2.516051296199172 4.101034832687248  11.46342109662802 2.429156188136206 4.121480014072626  11.48785497134932 2.62092575890281 4.240049610454774  11.56950800317497 2.479180568419862 4.173686503933427  11.09532023212082 2.915439758791479 3.856958806819461  11.09112934661492 2.896934617578685 3.927673317017779  11.08615049321809 2.878476756298743 3.999220314523061  11.08113753373887 2.859777246868817 4.071288214398636  11.0763021363637 2.840720248585022 4.143810679754251  11.07182909956799 2.821319100158869 4.216742777197508  11.06783571356518 2.801610614099016 4.290052308863984  10.54725485047735 2.328993176542256 3.450128961523271  11.111338661408 2.603931407627285 3.700937210508366  11.11138103402832 2.564032907316586 3.756854141223573  11.11052572833579 2.52376115782404 3.813473377042377  11.10948837291228 2.48303511169377 3.870539337136218  11.10861516077439 2.441856626335174 3.92804459477413  11.1081262961732 2.400200922708723 3.985974142754576  11.10831548248506 2.357954111550768 4.04435073136652  11.34711222588896 3.125502288126574 3.875353960343597  11.22673002907236 3.177930931417255 3.887121552248308  11.22971001043798 3.179119851232588 3.963879870338087  11.35204391653452 3.124127405397821 3.952728785618473  11.23222857827469 3.180646150449876 4.041434083969869  11.35667077794471 3.122992841876151 4.031007269388716  10.99590131832242 2.667183912761411 3.743697142249931  11.00894829471487 2.557170516299885 3.668570607195092  11.00765022304195 2.516683168005676 3.721775791355416  10.99370551901126 2.630548105005758 3.801675193868071  11.00550135350706 2.475887190652232 3.775432498534585  10.99064149828743 2.593750463007338 3.860184444998419  11.00317250871224 2.434702899483114 3.829424783972728  10.98740262525774 2.556571512184684 3.919098703986928  11.00099468771735 2.393143547558628 3.883739729632233  10.98431484301641 2.519047333230071 3.978359464404167  10.99920134861257 2.35120476634134 3.938367184872984  10.98160338997068 2.48117017395989 4.037908205581781  10.99799350970947 2.308865549615402 3.993250828283929  10.97948463022573 2.442892381917607 4.097684766776819  11.46618780322006 2.474018099904171 3.58749821580792  11.34275019667294 2.451007298585803 3.566407370808347  11.3433502967663 2.401948034667151 3.614760033191668  11.46701199374217 2.423848565385487 3.638587173036723  11.34301694766881 2.352108518792078 3.663409434152228  11.46683237726445 2.372624873303039 3.689972845612852  11.34238704621252 2.301717567921824 3.712655071180107  11.46634062579481 2.320944077112729 3.742181040117805  11.34189165703889 2.250728653621713 3.762435454929811  11.46601323880985 2.268561441897495 3.794971377517592  11.34160734904361 2.19918288560303 3.812731434335227  11.46565556556824 2.215565403699849 3.848392637204505  11.34166248333207 2.147192547151444 3.863671322605801  11.46514972877693 2.161899367327969 3.902768461962622  11.33942664551487 2.759538181325618 3.787768851404315  11.34183981066864 2.72592249099198 3.853729611813945  11.34370029764655 2.691755919222033 3.920520894645199  11.34551995614745 2.657097227367063 3.987904004851524  11.34762742558213 2.622135511163692 4.055986391600079  11.35015035673586 2.586802163756406 4.124830872786459  11.35342161512545 2.550944970454594 4.19454403258246  10.44181539444125 2.477508863071608 3.597588423061135  10.35522496711082 2.372840902870155 3.514419245089863  10.36150471661226 2.332068587154308 3.555889130039863  10.44594760440062 2.4388576049347 3.64405948838986  10.44971401900184 2.400162659995479 3.690506525516652  10.36752931947376 2.291286093686942 3.597317339063786  10.45329671739187 2.361372874261888 3.73692721595241  10.37341401717198 2.250453492105694 3.638708566285687  10.45688690250551 2.32248233219086 3.783312916261361  10.37929747431206 2.20956764062116 3.680057304999411  10.46064780455571 2.283524043315617 3.82966651982758  10.38532867323845 2.168650489506581 3.721343492995683  10.46478204942752 2.244561260808111 3.875969914213658  10.39165838634134 2.127766756368403 3.762541290159273  11.0954723638665 2.811037948319765 3.822800507263602  10.97093964663555 2.870508524532141 3.834653419293678  10.96434990721256 2.85043925022649 3.902467892879363  11.09419464541603 2.783781320381613 3.889648745598826  10.9
[...]
<PointData  Scalars="f_14"> 
<DataArray  type="Float64"  Name="f_14"  format="ascii">-7.0928154063525288e-15  -9.4296598062848189e-15  -9.5763852973133285e-15  1.8547330349645194e-01  1.9558210604771406e-01  1.8991791500658184e-01  3.6260163903427090e-01  3.7567103964930154e-01  3.6765531845467408e-01  5.3212840229547165e-01  5.4582171297628734e-01  5.3721652385790997e-01  6.9457688586799715e-01  7.0709303073850227e-01  6.9938883377476824e-01  8.5040995002957642e-01  8.5957315845876969e-01  8.5448913741819188e-01  1.0000000000002247e+00  1.0000000000002249e+00  1.0000000000002274e+00  -4.7042744083031415e-15  -6.5528886532717881e-15  -7.2151033810167859e-15  1.9936058061058576e-01  2.0427596447424967e-01  1.8470888535999913e-01  3.8746369153078242e-01  3.6530974007358413e-01  3.8228438798296621e-01  5.5761075862417353e-01  5.3561606109840931e-01  5.5210906943627736e-01  6.9592997753498254e-01  7.1696646863755886e-01  7.1077313832250311e-01  8.4782188801991887e-01  8.6625424837407228e-01  8.5960640803904753e-01  1.0000000000002296e+00  1.0000000000002280e+00  1.0000000000002274e+00  -9.1981733441218979e-15  2.0374277975488123e-01  3.8934287664481676e-01  5.6007478700831281e-01  7.1820538967608627e-01  8.6482280518718901e-01  1.0000000000002254e+00  -1.1626365995293625e-14  -1.0001357051712429e-14  2.1957838451416731e-01  2.0520743714610382e-01  4.0584716239513907e-01  3.9146052999755498e-01  5.7642540570628320e-01  5.6289511386138169e-01  7.3379840672048502e-01  7.2122939837605116e-01  8.7791799528688408e-01  8.6721494421079315e-01  1.0000000000002245e+00  1.0000000000002225e+00  -2.3376635817910377e-14  -2.5231836479200695e-14  -2.6990101353283362e-14  1.7294399131253596e-01  1.7043881800464575e-01  1.7653393291043051e-01  3.4177644239378380e-01  3.4034099407990215e-01  3.4770942569812757e-01  5.0860626112899443e-01  5.0762751304003229e-01  5.1547914115591786e-01  6.7395909858224556e-01  6.7254597871275057e-01  6.8028856200309451e-01  8.3805685123680085e-01  8.3573446938872942e-01  8.4226774932492554e-01  1.0000000000002072e+00  1.0000000000002089e+00  1.0000000000002107e+00  -2.3535753637324077e-15  -4.2111415391664404e-15  -4.5093941080171395e-15  1.8115196736033212e-01  1.9849016316364712e-01  1.9765810115578439e-01  3.5932408680502725e-01  3.7980820002790172e-01  3.7976982636111178e-01  5.2969629568148269e-01  5.4990421491474306e-01  5.5106509348890609e-01  6.9177740857475067e-01  7.1004520870330956e-01  7.1194625598710282e-01  8.4676319292561797e-01  8.6082031552252358e-01  8.6223680241647682e-01  1.0000000000002298e+00  1.0000000000002303e+00  1.0000000000002318e+00  -1.2366260243135179e-14  2.0785569730107595e-01  3.9452985552382297e-01  5.6606817673905530e-01  7.2456399931887405e-01  8.7026438846298548e-01  1.0000000000002218e+00  -2.5468669275187523e-14  -1.2096984076873984e-14  1.8983500797766992e-01  3.6917434502163632e-01  5.3937272944008585e-01  7.0110520968623891e-01  8.5487348075124858e-01  1.0000000000002223e+00  -6.6376333508684182e-15  -9.1281167991909627e-15  2.0907344173266845e-01  1.9585158229886970e-01  3.9575057506923311e-01  3.7901825026270491e-01  -1.4749723268119224e-14  -1.4468322051038391e-14  1.9277074748073075e-01  1.9465134588097158e-01  3.7188232922365627e-01  3.7606334936970809e-01  5.4185181518033299e-01  5.4676338567764016e-01  7.0366711883068012e-01  7.0773911595864203e-01  8.5736298089968110e-01  8.5923253539430577e-01  1.0000000000002198e+00  1.0000000000002196e+00  -4.5600020959162670e-15  -7.1177177899492301e-15  1.8601723877548207e-01  1.9209067724799417e-01  3.6224971060977190e-01  3.7037440789250969e-01  5.3157252593023363e-01  5.4051059313779259e-01  6.9459561336073583e-01  7.0321704428445375e-01  8.5121852152637589e-01  8.5791656331334476e-01  1.0000000000002272e+00  1.0000000000002298e+00  -7.0469715815282175e-15  1.9397084848147253e-01  3.7492028382834297e-01  5.4515386869121485e-01  7.0582829770559863e-01  8.5803080767194750e-01  1.0000000000002274e+00  -2.7922116125173312e-14  -3.0038110943462033e-14  1.7056541980087883e-01  1.6915940486948830e-01  3.3764276677021898e-01  3.3879725927515741e-01  5.0424841934004128e-01  5.0544212743639028e-01  6.6925651875584469e-01  6.7100358215790368e-01  8.3340857257860479e-01  8.3582991704650089e-01  1.0000000000002063e+00  1.0000000000002041e+00  -1.2380602042870689e-14  -1.5295732119357438e-14  1.9641235373829480e-01  2.0847876731974108e-01  3.7933169685240675e-01  3.9430220370437591e-01  5.5009182098308707e-01  5.6549998326483419e-01  7.1015090391010927e-01  7.2403347270507323e-01  8.6026266023011866e-01  8.6999657859744062e-01  1.0000000000002187e+00  1.0000000000002220e+00  -1.5378983242269250e-14  2.0430793542588865e-01  3.8744549179754328e-01  5.5794662430231079e-01  7.1769043338464444e-01  8.6663564246822644e-01  1.0000000000002187e+00  -1.6934899885359564e-14  -1.7938609536781187e-14  -1.9307338399340735e-14  1.8682396962794459e-01  1.8993241059364652e-01  1.9338184126264424e-01  3.6379243241173093e-01  3.6894795258505991e-01  3.7394905593282457e-01  5.3304900662242127e-01  5.3859204119228365e-01  5.4433735421521590e-01  6.9542750653860552e-01  7.0005432081587304e-01  7.0574855935508063e-01  8.5125113585909873e-01  8.5390077955941002e-01  8.5839758613206762e-01  1.0000000000002147e+00  1.0000000000002160e+00  1.0000000000002172e+00  -1.7421457429632632e-14  -2.0344339516911066e-14  -1.7254993601385378e-14  1.8951613991068222e-01  1.8392888150349565e-01  1.9092530265541893e-01  3.6727599787210319e-01  3.5955785762778336e-01  3.6963605176285891e-01  5.3688045640627724e-01  5.2853579569164766e-01  5.3946386685492642e-01  6.9927528746482737e-01  6.9156357735310947e-01  7.0134624424989100e-01  8.5446300760210225e-01  8.4882780722652462e-01  8.5552289001186177e-01  1.0000000000002169e+00  1.0000000000002138e+00  1.0000000000002167e+00  -1.2059251978460749e-14  1.8942681434711572e-01  3.6694959620812589e-01  5.3643375947003558e-01  6.9871551802522258e-01  8.5390098866186859e-01  1.0000000000002223e+00  1.0000000000002320e+00  1.0000000000002296e+00  8.4866161052995925e-01  -3.0797471360044611e-14  1.7315017512231043e-01  3.4220663516988248e-01  5.0914227481518892e-01  6.7451307493959156e-01  8.3879693430772806e-01  1.0000000000002034e+00  -1.9983466249154183e-14  1.8517748402882486e-01  3.6075807123317782e-01  5.2983174127627586e-01  6.9310392795902176e-01  8.5051483467563604e-01  1.0000000000002141e+00  -2.1204449186279747e-14  1.8286515248341725e-01  3.5719880652264574e-01  5.2558331322171759e-01  6.8884314062984975e-01  8.4769248209181070e-01  1.0000000000002127e+00  -2.4262848014405213e-14  -2.7778458328158635e-14  -2.5379313106060095e-14  1.6579479287302576e-01  1.8359270853025036e-01  1.7018346757165553e-01  3.3518825869098151e-01  3.5583123947925843e-01  3.4069749821833445e-01  5.0207084432930182e-01  5.2350635248866662e-01  5.0799642413806723e-01  6.6627738951198301e-01  6.8763815407688555e-01  6.7179723104632350e-01  8.2938187628377213e-01  8.4863585454422152e-01  8.3342444038422858e-01  1.0000000000002087e+00  1.0000000000002065e+00  1.0000000000002098e+00  -1.4079433978360892e-14  -1.4240487457276633e-14  -1.6780723899558040e-14  1.9237427288628151e-01  1.9843208032126999e-01  0.0000000000000000e+00  -2.3174901576203353e-15  1.9537358165029789e-01  2.1331338749999904e-01  4.0148387746556607e-01  3.7767246104045787e-01  5.7659423334450233e-01  5.5061060624596636e-01  7.3881189132384151e-01  7.1375029113853750e-01  8.8458882749638357e-01  8.6532441343560484e-01  1.0000000000002340e+00  1.0000000000002318e+00  -2.2962679507373866e-14  1.8198127160909314e-01  3.5518039786849770e-01  5.2327845641933368e-01  6.8721434665322478e-01  8.4716522135281913e-01  1.0000000000002112e+00  -2.6512813223078704e-14  1.7915032117698715e-01  3.5316577708735253e-01  5.2131731564548867e-01  6.8454015251655442e-01  8.4386424982221930e-01  1.0000000000002078e+00  3.8284671035887624e-01  5.5412438202387593e-01  7.1357157533127313e-01  8.6212626219659672e-01  -2.2708577322594717e-14  1.7765830659727577e-01  3.5040691762920345e-01  5.1867639424951884e-01  6.8298582397678487e-01  8.4363146525539567e-01  1.0000000000002114e+00  -1.4980879571893993e-14  2.1377125692374399e-01  3.9797554320032580e-01  5.6873325550851095e-01  7.2811304570954938e-01  8.7520696124326292e-01  1.0000000000002192e+00  8.4940014264354180e-01  1.0000000000002247e+00  -9.7130251922678900e-15  -1.2215669028152250e-14  1.9574647477909862e-01  1.9206780974265447e-01  3.7793908849706437e-01  3.7430294534016723e-01  5.4873780038158682e-01  5.4527797502038655e-01  7.0908100523680839e-01  7.0579069866423283e-01  8.5959651862262465e-01  8.5670502863629561e-01  1.0000000000002223e+00  1.0000000000002247e+00  -2.9831076597814766e-14  1.7819162973389480e-01  3.5268154393141443e-01  5.2125973003247827e-01  6.8439205502045841e-01  8.4276751190241683e-01  1.0000000000002043e+00  -2.3656552682749836e-15  -2.3185764443913620e-15  1.9014901512922122e-01  1.8164055901293258e-01  3.7018762739677724e-01  3.5849785520127497e-01  5.4211846382729434e-01  5.2900165209774663e-01  7.0566989385518242e-01  6.9248744745453339e-01  8.5916960768222728e-01  1.0000000000002320e+00  -3.3043769721730408e-14  -3.4243675764321514e-14  -3.6463657209382814e-14  1.8084704304020455e-01  1.8254367460626564e-01  1.7514210935673763e-01  3.5544049928235782e-01  3.5682949732982661e-01  3.4584774751886005e-01  5.2414991864722960e-01  5.2515637798656734e-01  5.1318819567689677e-01  6.8753664442348816e-01  6.8850220409293961e-01  6.7764497130481616e-01  8.4592741063122667e-01  8.4725815056668052e-01  8.3972045285672114e-01  1.0000000000001976e+00  1.0000000000002001e+00  1.0000000000002012e+00  1.9499348103773334e-01  2.0169154037978795e-01  1.9065645295901076e-01  -2.4350579738121569e-14  3.7041615498100561e-01  3.7437999476850581e-01  3.8281132156710634e-01  5.4006553200809848e-01  5.4379086167049684e-01  5.5256073822857110e-01  7.0100552414184625e-01  7.0497144989921900e-01  7.1290487645849121e-01  8.5414768565160704e-01  8.5799270300951058e-01  8.6430938794149925e-01  1.0000000000002067e+00  1.0000000000002072e+00  1.0000000000002098e+00  -1.7038622342904536e-14  2.0304044211324393e-01  0.0000000000000000e+00  1.8477326789987650e-01  3.6554848091389641e-01  5.4011725621440865e-01  7.0648555189456952e-01  8.6252901770174173e-01  1.0000000000002340e+00  1.0000000000002272e+00  -3.5563134823032396e-14  1.7823594110129154e-01  -2.8928345171044606e-14  1.9113729600945209e-01  3.6896885108856853e-01  5.3798182842808762e-01  6.9988435255903192e-01  8.5495843323300247e-01  1.0000000000002054e+00  -9.6933249855938428e-15  2.0780680668162896e-01  3.9317619777204782e-01  5.6419228706597779e-01  7.2290640749259338e-01  8.6966579780697384e-01  1.0000000000002247e+00  0.0000000000000000e+00  -2.0657235411855705e-15  -2.1083656729761158e-15  1.9155884593729100e-01  1.8778977558322399e-01  1.9695945168363579e-01  3.7303618343378403e-01  -2.2331409967408814e-14  1.8011502610033217e-01  3.5309521674941063e-01  5.2113718930482855e-01  6.8496157032454963e-01  8.4526621074544539e-01  1.0000000000002116e+00  -2.1475665110929713e-14  -2.2353548027135697e-14  1.9928416795330162e-01  1.8281077311763272e-01  3.8025182930916046e-01  3.6247524950518850e-01  5.5001439767127513e-01  3.6182311830402963e-01  5.3022124145010319e-01  6.9250989606694568e-01  8.5004923026669799e-01  1.0000000000002038e+00  0.0000000000000000e+00  1.9244529496918378e-01  3.7826453751138572e-01  5.5308527919061945e-01  7.1663125534774641e-01  8.6772396845853739e-01  1.0000000000002340e+00  0.0000000000000000e+00  1.9144921056021727e-01  3.7544344410333941e-01  5.5151640105197708e-01  7.1796305270861205e-01  8.7189733881383702e-01  1.0000000000002340e+00  -2.2449578183921502e-14  -2.0325395743332552e-14  -2.1742279674677509e-14  1.8946505918579662e-01  1.9095129061145302e-01  1.9503998125296723e-01  3.6970063326923086e-01  3.6837367909651436e-01  3.7446444040829641e-01  5.3919211840972459e-01  5.3723511278422587e-01  5.4349862059157605e-01  6.9939527994874817e-01  6.9825484088009837e-01  7.0408758337179778e-01  8.5217207925264715e-01  8.5294958091990092e-01  8.5720906912164885e-01  1.0000000000002127e+00  1.0000000000002141e+00  1.0000000000002121e+00  1.0000000000002340e+00  1.0000000000002320e+00  8.6783811956561208e-01  -1.8113826677951622e-14  1.8513686148975586e-01  3.6256402949495459e-01  5.3185711758744592e-01  6.9371721758757088e-01  8.4950198205781990e-01  1.0000000000002158e+00  -1.9275000198463809e-14  1.8120868405504284e-01  3.5965941016164821e-01  -6.9319285844778822e-15  1.8361907838281982e-01  3.6133453841606578e-01  5.3086427207598375e-01  6.9240246260707039e-01  8.4721048833553259e-01  1.0000000000002276e+00  2.1261620009180565e-01  -4.2032161366359078e-15  1.9176691414782959e-01  -4.3157506714623437e-15  2.0368526980113719e-01  3.8550541167976760e-01  3.7226189657760395e-01  5.5547337184453860e-01  5.4195350375939289e-01  5.4956587827867043e-01  7.1523975762303615e-01  -3.4016010559778414e-14  -3.3873836668534376e-14  -3.6542087033993744e-14  1.9155850985055220e-01  1.8121609563315508e-01  1.8473436080472677e-01  3.7007560141993734e-01  3.5696751190164827e-01  3.6163290123387687e-01  5.3908831636729238e-01  5.2511152337484612e-01  5.3021924968763356e-01  7.0021266529143766e-01  6.8667075383796472e-01  6.9161995335146642e-01  8.5436774371102775e-01  8.4345397527913157e-01  8.4701103337196659e-01  1.0000000000001976e+00  1.0000000000002005e+00  1.0000000000002001e+00  -2.0428450498205530e-14  -2.2007880477299422e-14  -2.3279279445757189e-14  1.7589915780799384e-01  1.7807995776691465e-01  1.8365785116063613e-01  3.4919071142871838e-01  3.5278918498988687e-01  3.5850032934386078e-01  5.1722646818478335e-01  5.2125790355476420e-01  5.2681987388623452e-01  6.8018589234583515e-01  6.8363412951339653e-01  6.8937984388774864e-01  8.3943373455539294e-01  8.4168875715105040e-01  8.4734101469362211e-01  1.0000000000002109e+00  1.0000000000002123e+00  1.0000000000002136e+00  -3.6947124195129147e-14  -3.7767733122413237e-14  -3.9689829479608023e-14  1.8391243262562446e-01  1.8065941885464559e-01  1.8024932044107062e-01  3.6150468366820160e-01  3.5447231335799612e-01  3.5591236008709753e-01  5.3051942495002069e-01  5.2235002040024980e-01  5.2408531130060731e-01  6.9202099170705866e-01  6.8506561880255235e-01  6.8586991102589911e-01  8.4747745745878000e-01  8.4378745441572534e-01  8.4275202314543551e-01  1.0000000000001945e+00  1.0000000000001963e+00  1.0000000000001970e+00  1.0000000000002245e+00  -3.1218759028598462e-14  -3.2682414372285347e-14  -3.4983144037308661e-14  1.7701604647887056e-01  1.6639081642697962e-01  1.6834347179456663e-01  3.3365555114129114e-01  3.4580770506695974e-01  3.3634004973041987e-01  4.9997355667547233e-01  5.1262147998706686e-01  5.0302372561910558e-01  6.6561619493130764e-01  6.7815588039402630e-01  -3.1902813772555882e-14  -3.2378969795250060e-14  1.8775488133811924e-01  1.7145448690922585e-01  3.6234965623815552e-01  3.4260569913553307e-01  5.3067743919945976e-01  5.1008724500111302e-01  6.9386602785390750e-01  6.7421235329808005e-01  8.5215443442171657e-01  8.3586858238847284e-01  1.0000000000002018e+00  1.0000000000002023e+00  -2.4572148692687686e-14  -2.7273167766828144e-14  1.9438521786893401e-01  3.7645531092253798e-01  5.4658578303376137e-01  7.0655897829938585e-01  8.5743847638726878e-01  1.0000000000002096e+00  -3.4870873590439335e-14  1.8433407390833775e-01  3.6130580292286191e-01  5.3028295713477080e-01  6.9239933016733357e-01  8.4859447869448135e-01  1.0000000000001994e+00  -3.1000644744229835e-14  2.1175767340641577e-01  3.9130671728749700e-01  5.6034111188470559e-01  7.2149623792899564e-01  8.7392271467601057e-01  1.0000000000002032e+00  -2.8788766549046285e-14  -2.9360208537290210e-14  -3.1206657680639276e-14  1.7567822804081060e-01  1.9195680947159452e-01  1.8550458260663716e-01  3.5100342090849734e-01  3.7028897619957302e-01  3.6390569765016850e-01  5.1940247825844621e-01  5.3921930227912385e-01  5.3304847236236641e-01  6.8124504566317057e-01  7.0048856723449182e-01  6.9415890522687429e-01  8.3871309793220938e-01  8.5548947390288410e-01  8.4808885672913903e-01  1.0000000000002029e+00  1.0000000000002045e+00  1.0000000000002052e+00  0.0000000000000000e+00  1.8930980640002967e-01  3.7646707587844724e-01  5.5385579125946927e-01  7.2068409753241136e-01  8.7416118711192603e-01  1.0000000000002340e+00  -2.4801505531627885e-15  1.9666022935126209e-01  3.7880660634896374e-01  5.5017718162939511e-01  7.1124519771349781e-01  8.6505456467408226e-01  8.6212850822852316e-01  1.0000000000002303e+00  1.0000000000002318e+00  -1.8413672098670282e-14  1.8954865215568115e-01  3.6737138738127945e-01  3.7308175507854235e-01  5.3661145759359796e-01  5.4327556175564795e-01  6.9805576407365022e-01  7.0393056619028582e-01  8.5283030615121946e-01  8.5621688909153748e-01  1.0000000000002156e+00  1.0000000000002174e+00  -2.4564771725585732e-14  2.2180960362775254e-01  4.0578601003088732e-01  5.7538869610861176e-01  7.3386496850947858e-01  8.7977528652888315e-01  1.0000000000002098e+00  -2.1642397138221722e-15  1.9276352348826520e-01  3.7460123902959702e-01  5.4578659929359408e-01  7.0668518731853702e-01  8.5722560423488670e-01  1.0000000000002323e+00  -2.5488049635520524e-14  1.8078365763919238e-01  3.5200497598812458e-01  5.1947347793395793e-01  6.8419813097623139e-01  8.4615448107200186e-01  1.0000000000002085e+00  -3.3114950415039970e-14  -3.5305291212661526e-14  1.6722263223772751e-01  1.6885395625119745e-01  3.3561640020214267e-01  0.0000000000000000e+00  2.0019706880271598e-01  3.8684502893947442e-01  5.4407478469193415e-01  5.6219009820803012e-01  7.0510824409982586e-01  7.2609251299740785e-01  8.5624929468909627e-01  8.7683380113831755e-01  1.0000000000002325e+00  1.0000000000002340e+00  -3.6126755641567981e-14  -3.8138293337714787e-14  1.9506104037336330e-01  2.0214385744475610e-01  3.7413967871893861e-01  3.8049338480488243e-01  5.4316338055112090e-01  5.4911276357652317e-01  7.0395573712856130e-01  7.1016735711822876e-01  8.5695860692056058e-01  8.6371268254497457e-01  1.0000000000001958e+00  1.0000000000001978e+00  -2.0186832294457419e-14  1.7705290817599018e-01  3.5233504289672668e-01  5.2096627474937818e-01  6.8311176068407287e-01  8.4050435860887740e-01  1.0000000000002141e+00  -1.4778177401070877e-14  1.8576502872734413e-01  3.6265594041557508e-01  5.3220178610346169e-01  6.9499349911143327e-01  8.5123511991406264e-01  1.0000000000002194e+00  -2.4002872466773856e-14  1.8654648312760788e-01  3.6498233727321716e-01  5.3407420428251207e-01  6.9535393720560967e-01  8.5017185994232958e-01  1.0000000000002105e+00  -1.9959712007550547e-14  2.0030899251398029e-01  3.8153824996271918e-01  3.6744455535270953e-01  3.7234779538167978e-01  3.6912086822237411e-01  1.9310265755312248e-01  1.8802055806682452e-01  5.3895729356531730e-01  5.3702592533761040e-01  5.4160204759642261e-01  3.8183514476328489e-01  5.5624144257032526e-01  -2.6777017789494381e-14  -2.7177973021101988e-14  2.0448925952387109e-01  2.0120454836845031e-01  3.8699468928041797e-01  3.8259958526639132e-01  5.5676449359739999e-01  5.5245850111603279e-01  7.1653740511838349e-01  7.1287372907798374e-01  8.6621757004205113e-01  8.6374009998310586e-01  1.0000000000002067e+00  1.0000000000002072e+00  1.0000000000002220e+00  8.5216853576287455e-01  -3.7448448762912136e-14  7.0246616558019748e-01  8.5559918598622042e-01  1.0000000000001965e+00  -4.0945868486603540e-14  7.1011696114981382e-01  8.6127004965672782e-01  1.0000000000002121e+00  -4.6581102104305290e-15  1.8794301079032663e-01  3.6606145059038575e-01  5.3607146271329886e-01  6.9826074830795237e-01  8.5270737142368458e-01  1.0000000000002298e+00  7.0883488612737422e-01  8.5832204399932088e-01  -2.7751411952384791e-14  1.7105354909364207e-01  3.4066725456384866e-01  5.0754270858300787e-01  6.7216118504239486e-01  8.3565108358452345e-01  1.0000000000002065e+00  -3.5049557079943149e-14  1.8237543115351321e-01  3.5561496602281323e-0