<?xml version="1.0"?>
<VTKFile type="UnstructuredGrid"  version="0.1"  >
<UnstructuredGrid>
<Piece  NumberOfPoints="1034" NumberOfCells="4469">
<Points>
<DataArray  type="Float64"  NumberOfComponents="3"  format="ascii">6.36569937289196 4.001045235570738 1.15646208010457  6.489876787156695 3.968842375809202 1.100481678989173  6.461494998480847 4.047460856620572 1.214315877764394  6.369525827340668 3.944980303322396 1.196860899573215  6.466615063703503 3.991198198445595 1.253096144483409  6.486831807787022 4.022489090909626 1.056887340707881  6.361923789088991 4.057024833150214 1.116020651997799  6.456416124015977 4.103644852605933 1.175487275491473  6.358254966665366 4.112921579471696 1.075503479007169  6.483877601796976 4.076075776380956 1.013222105786281  6.451373734064493 4.159732797502929 1.136556718901666  6.428590941215169 4.214921432922246 2.631812409407768  6.530764483731806 4.25194918132875 2.524068473558486  6.419406675993569 4.205967828306739 2.481753725718781  6.390292899445712 4.267424549390146 2.476705723277716  6.507756889337642 4.31763797384867 2.51721575548505  6.396265006913554 4.275948897654887 2.63150345042143  6.361733242036893 4.328729020701076 2.471631989917895  6.485255380016342 4.382925893856005 2.510355148875119  6.364532210981133 4.336931726951797 2.63109205134821  6.333477341594358 4.38987644604431 2.466594681633456  6.463011384840682 4.447892165566166 2.503532403336042  6.828309440057855 4.218263609012669 2.258354105292895  6.74586657189371 4.206282616837709 2.185594358679337  6.733412281732043 4.25120157494159 2.323741628143626  6.735653799507584 4.317935922036775 2.30688377115933  6.750199495680564 4.270607203670184 2.165774377462014  6.840165269298124 4.281885804047818 2.240001298399342  6.851635182107081 4.34516438069895 2.221812553550264  6.754355929858027 4.334445380099189 2.146178182054148  6.737788629186554 4.38406810970789 2.290206504479511  6.86292270134882 4.408119624364508 2.203762367562631  6.75842762819371 4.397937969861938 2.126739731987046  6.739872593080652 4.449853692710221 2.273657480777407  6.87414134931498 4.470830326677144 2.185821721925074  6.762467698048972 4.461167297545668 2.107418888575442  6.741939854448191 4.515362510337028 2.257221953408501  6.885426338254344 4.533313862736065 2.167981674160741  6.766537899549672 4.524156632965815 2.088192790117358  6.744020950770684 4.580621755355931 2.240905906630909  6.77067811707875 4.586900027158905 2.069052347503811  6.896854754737626 4.595494166833267 2.150274413747414  6.746136525315138 4.645621868036538 2.224749799814055  6.356462718759736 4.035304349075137 1.82067484517851  6.471637652441167 4.037108985945244 1.763805296911034  6.369050829662939 3.983547749721107 1.677050935669  6.357198508587206 4.044110464989201 1.65011387139156  6.462055049867159 4.098503749879158 1.738566838810449  6.34111976061353 4.096575465853004 1.799477501464601  6.326096247677894 4.157805967472506 1.778510859387479  6.452645103169371 4.159737848673586 1.71364408452616  6.345588993843263 4.104582535242765 1.623465869941414  6.311252306623349 4.218884402439375 1.757679073448985  6.44333982031392 4.220805552213272 1.688886523266082  6.334095872780841 4.164949803283259 1.596924989013301  6.296482507021746 4.279805534663522 1.736910419914982  6.43409383846797 4.281693806201044 1.664204582764516  6.322645219237498 4.225175027386309 1.570408699664451  6.424859568025592 4.342394622547496 1.639519517314485  6.281681618629505 4.340506845654118 1.716129086989315  6.311182509265048 4.28522092087708 1.543864277309505  6.266678589876293 4.40096551503181 1.695232181977155  6.415535779315552 4.402769284548292 1.614750907722355  6.299616256128354 4.345053881279282 1.517207838059711  6.22954816081508 4.019091153851382 1.89395089831353  6.256543886335306 3.978348683731157 1.741453082827983  6.239798705222205 4.039500902121226 1.719803546570341  6.208839443966969 4.079718641641276 1.877446690609185  6.188638579232532 4.140311734140022 1.861089734718401  6.223459608143853 4.100545200980853 1.69837891022618  6.168660249123916 4.200844563974486 1.844788962107896  6.207296435476046 4.161499640341808 1.67703847429066  6.148735768718803 4.261253012680008 1.82850471377035  6.19117822498084 4.222320792639147 1.655711347011134  6.128724927990167 4.321473992323151 1.812208343423722  6.175004655745601 4.282969416940674 1.634358967937418  6.509730653940379 3.989551468714543 1.648029937097091  6.502152335209696 4.049847238453049 1.619027889830988  6.494647283073411 4.110042093330772 1.590338426864516  6.487192775450334 4.170116114886303 1.561805022484494  6.479763613779903 4.230045282869062 1.533323765325948  6.472340350448581 4.289798290726162 1.504815772654476  6.464891524561206 4.349331230631266 1.476197360372843  6.13592747944629 4.01298335992382 2.083714326955133  6.243859412725136 4.078635919342954 2.17002887937067  6.231643908224388 4.051630074266047 2.025487287950667  6.207150861418306 4.111366330453637 2.013856138461418  6.216319374447822 4.137082704794157 2.161982123164749  6.107929442800984 4.070887283050194 2.076779426052044  6.183204916963791 4.171121778174772 2.002324563199875  6.189282340669039 4.195626683658507 2.153984968094894  6.080466064869229 4.128977440365476 2.069871875092686  6.159492693829831 4.230835568666313 1.990834232364296  6.697898266053205 4.099017404828223 1.880802695694323  6.585744613227277 4.128610753984817 1.966180907044145  6.690748409372921 4.141475455520474 1.987321475621865  6.69238462898605 4.203683866525089 1.963417180228485  6.579584251342544 4.191413740760018 1.943835507775306  6.699067618882652 4.16138424752432 1.858538864526218  6.693873151188368 4.265509409478605 1.939833094606362  6.573514868885333 4.253854536754841 1.921793518794428  6.700061576668314 4.223484706200118 1.836584767333719  6.695334825437231 4.327049980144861 1.916433803420918  6.567507397344844 4.31601729646512 1.899940497592228  6.701004365646807 4.285352529132965 1.814827475319135  6.696801463251889 4.388353623801561 1.893145903068163  6.561558166234856 4.377942977217389 1.878194431761751  6.701950862998714 4.347006878280984 1.793173606239286  6.698303486776353 4.449428454624766 1.869922957830269  6.55561581013706 4.439637198921434 1.856513700148368  6.702932628965637 4.408432670222746 1.771559686587478  6.699864989834349 4.510223715088871 1.84673795755147  6.54962045733178 4.501015384529748 1.834841137289576  6.704024039141832 4.469507500531041 1.749863163907147  6.437100061163116 3.934800511647613 1.561363388900435  6.428602785581957 3.994229954630836 1.530058510732187  6.42022910893325 4.053635367532241 1.499031435807184  6.411904944885149 4.112950208856653 1.468118011666083  6.403608132071742 4.172147166887781 1.437228489428672  6.395314875590135 4.231203501630608 1.406300220613553  6.38698757527945 4.290092321408071 1.375266782133579  6.627518513476136 4.211825903562075 2.215403582097231  6.620541735848988 4.277073326855589 2.197127261066446  6.613705530426337 4.341755678425685 2.179069296934287  6.606944910200085 4.406051497521323 2.161169839625109  6.600223212326989 4.470066631628675 2.143373103543341  6.593472602734042 4.533853876180566 2.125677633266163  6.586661524464913 4.597389777789473 2.108096333134603  6.279393440116539 4.201622293245148 2.546351101634833  6.245097587972038 4.258354855858705 2.546708457496594  6.211084347917674 4.31509306177179 2.54708038055015  6.554006701436572 4.166090109567939 2.09358790857206  6.660513999714381 4.180577269056974 2.089241894580611  6.658158703176268 4.244730165030305 2.06840299809989  6.543500577665526 4.22992587307581 2.074419016851381  6.655837914178238 4.30831878401302 2.047867930812003  6.533252945501239 4.29327877840625 2.055503276757428  6.653523904574283 4.371570346754786 2.027511185245722  6.523148317472195 4.356294122073062 2.036769860486893  6.651217760064343 4.434568245137917 2.007277857013876  6.513122639297064 4.419051757025959 2.018144837315099  6.648920112791436 4.497335731600165 1.987121654031059  6.503064728300682 4.481567848862493 1.999585901836671  6.646607825598446 4.55987440396187 1.966982388990109  6.492887990604557 4.543792326663636 1.981054175215275  6.045023645961355 3.875218996314583 1.601670477191759  6.146757604141928 3.876463687988092 1.539410672902792  6.05072778756143 3.816993651949412 1.453750525342978  6.038928027780043 3.88007193919009 1.424325226346472  6.133836224569852 3.939164667218571 1.513276247525616  6.02968613800151 3.939046643962609 1.580267854360715  6.027352786511203 3.943099569931244 1.394952546460537  6.121173972529717 4.001838796405857 1.487260618412507  6.014666985381367 4.002862770881962 1.558908315424109  6.015900709846358 4.006056295698167 1.365598557273572  6.108625820647899 4.064432667457139 1.461277065935408  6.146405700469193 3.964294970159395 1.793330944749525  6.126129393320211 4.025742156793748 1.776643810317882  6.10629167309835 4.087245117254464 1.760033388743074  6.086642792310076 4.148697772562776 1.743442896206497  6.067020582965464 4.210069933289661 1.726848241830317  6.047290040468973 4.271335649023044 1.710234757099518  6.458880433128973 4.121868098073777 2.002892747751644  6.349690540890327 4.105234829177167 2.07004678260262  6.447323299355091 4.150850075335446 2.11348390313922  6.428970025795404 4.213418464472048 2.097841197159939  6.327580910224412 4.166110413036763 2.056411103799773  6.444524320119239 4.184283267850669 1.983414072406057  6.411032043919745 4.275695570436516 2.082385633555111  6.305987761204176 4.226839788705708 2.042904765975096  6.430477584661499 4.246385680001496 1.964173848752508  6.393321500621242 4.337717313105565 2.067070522580195  6.284670746652537 4.287415371088613 2.029520408721003  6.416634250529913 4.308256473133884 1.945098979448846  6.375717498585003 4.39952414453027 2.051851618557318  6.263456932226793 4.347816665612873 2.016216783539967  6.402888552920092 4.369910986115801 1.926111979063615  6.358069949154124 4.461093196785421 2.036668520449816  6.242192298811499 4.407987678030584 2.002916567572
[...]
<PointData  Scalars="f_14"> 
<DataArray  type="Float64"  Name="f_14"  format="ascii">6.9624082669071496e-01  7.0144380713946897e-01  6.9574653063674052e-01  5.3480324190813544e-01  5.3346101482250108e-01  8.5601097690530470e-01  8.5035907422463441e-01  8.5129906052458681e-01  1.0000000000001208e+00  1.0000000000001235e+00  1.0000000000001230e+00  -1.1122721287470204e-13  -1.0893783373572207e-13  -1.1144252516911807e-13  2.1507630930086730e-01  2.1546647656550286e-01  2.1154187428393870e-01  4.0208296475040184e-01  4.0752749528541415e-01  4.0005491744008137e-01  5.7277051804707457e-01  5.7914400341918182e-01  -1.0234965252660628e-13  -1.0420429339507142e-13  -1.0447254257524309e-13  2.2727479284148155e-01  2.0596767454455622e-01  2.0345957921538194e-01  3.8775825420753129e-01  3.9155448124574127e-01  4.1738257766956266e-01  5.5822679564755939e-01  5.6221309420293364e-01  5.8784447202524714e-01  7.1709282010801101e-01  7.2016883628030992e-01  7.4244738868007276e-01  8.6508462616736770e-01  8.6633767284166707e-01  8.8170316229462153e-01  1.0000000000001299e+00  1.0000000000001319e+00  1.0000000000001297e+00  -1.1330992437208955e-13  -1.1073310941995871e-13  -1.1315344965963754e-13  1.9801867175580076e-01  1.9623054735116466e-01  1.9567880501632187e-01  3.7607668195534688e-01  3.7750074931725991e-01  3.7799988312786614e-01  5.4575500763990270e-01  5.4769971277119089e-01  5.4750074067692589e-01  7.0626577821008507e-01  7.0815839577862005e-01  7.0814866323936387e-01  8.5951873523429700e-01  8.5828392064481740e-01  8.6005239609920547e-01  1.0000000000001208e+00  1.0000000000001235e+00  1.0000000000001208e+00  -1.1616563345860778e-13  -1.1567973833545850e-13  1.8753151930879258e-01  1.9179252551256390e-01  3.7018466462871435e-01  3.6545075569392294e-01  5.3934079120528444e-01  5.3460154566173745e-01  7.0058908329576441e-01  6.9595554745863342e-01  8.5446478058338426e-01  8.5048583997630900e-01  -1.1001915727335377e-13  1.9183049559123388e-01  3.7183092103897980e-01  5.4197152167274398e-01  7.0321962457282516e-01  8.5611664316227387e-01  1.0000000000001239e+00  -1.1826717682113591e-13  -1.1568589297611492e-13  -1.1602523744981536e-13  1.9533269119242622e-01  1.8936310005965351e-01  1.7980095617958666e-01  3.7397639806042121e-01  3.6715091008267497e-01  3.5413426385294589e-01  5.4318305560411140e-01  -1.0546863669157512e-13  -1.0793604109274083e-13  -1.0552665269128497e-13  1.9857905157739608e-01  1.9918199203978815e-01  1.8636397471982369e-01  3.7977553468374076e-01  3.8234510614296102e-01  3.6516890533285218e-01  5.4964915085111266e-01  5.5274809827644356e-01  5.3493624165231324e-01  7.0978669547892403e-01  7.1208825739610193e-01  6.9630524463192389e-01  8.6097856390155791e-01  8.6128074592656589e-01  8.5033477663084289e-01  1.0000000000001286e+00  1.0000000000001261e+00  1.0000000000001288e+00  -1.1175840131123052e-13  1.8784649938462258e-01  3.6631601919550921e-01  5.3597561959970430e-01  6.9756616786934478e-01  8.5193808450028896e-01  1.0000000000001221e+00  -1.0685091705724114e-13  2.0780185939356288e-01  3.9579653227669170e-01  5.6683548724162380e-01  7.2350863885613170e-01  8.6761160632726708e-01  1.0000000000001272e+00  1.9329926659902430e-01  3.7427256421832555e-01  5.4456564732901969e-01  -1.0857367572299939e-13  -1.0616045253869352e-13  2.1515208415621356e-01  2.0248227354952952e-01  4.0049956476196530e-01  3.8809772150370547e-01  5.7062888444623916e-01  5.5891371943600454e-01  7.2814586668801973e-01  7.1702824854836944e-01  8.7308219531781794e-01  8.6380839200267179e-01  1.0000000000001279e+00  1.0000000000001255e+00  -1.2051155418488922e-13  -1.1827558778551025e-13  -1.2049864892325376e-13  1.9205316329529962e-01  1.9455766287288115e-01  1.8965638091952794e-01  3.7309559634062039e-01  3.7415271658944849e-01  3.6808830107173773e-01  5.4357360143343980e-01  5.4395049623461500e-01  -1.1812857873903571e-13  1.9136074334675146e-01  3.6888984747559000e-01  5.3790744120639655e-01  6.9992998307074394e-01  8.5506511767166826e-01  -1.1078941213009662e-13  -1.1328622294100494e-13  -1.1098900036296017e-13  2.0842745740866203e-01  1.9590731593561370e-01  2.0499307708826878e-01  3.9292672668937589e-01  3.7733160122907100e-01  3.8862618591679549e-01  5.6312485327327078e-01  5.4718835573759261e-01  5.5886159460074258e-01  7.2136126206838558e-01  7.0717814514599997e-01  7.1780369104559349e-01  8.6828122483440018e-01  8.5830001048145244e-01  8.6598800062518000e-01  1.0000000000001230e+00  1.0000000000001208e+00  1.0000000000001232e+00  4.7602751207840710e-01  4.6890543001214274e-01  4.7228573226058596e-01  3.0664344031710211e-01  3.1324756500667883e-01  6.4091830814818618e-01  6.4380753713787120e-01  6.3678188118001411e-01  8.1703439044817627e-01  8.1779122216850697e-01  8.1172462700998238e-01  1.0000000000001468e+00  1.0000000000001450e+00  1.0000000000001481e+00  4.7854358909219835e-01  6.4636298982214646e-01  8.1948872768191072e-01  1.0000000000001472e+00  -1.1053109572810304e-13  -1.1331948783728519e-13  1.9591920890134165e-01  1.9615038377745719e-01  3.7679257329518528e-01  3.7816989633898340e-01  5.4651054880194638e-01  5.4848296134242536e-01  7.0664745752056424e-01  7.0845217237424374e-01  8.5803074099448084e-01  8.5883415266483432e-01  1.0000000000001208e+00  1.0000000000001235e+00  -1.0798193332458818e-13  2.0349134182878825e-01  3.8560507669102273e-01  5.5573440272735497e-01  7.1569002952236593e-01  8.6546488721361514e-01  1.0000000000001261e+00  -9.8106640731527628e-14  -1.0073185709841082e-13  -9.9157633428833921e-14  1.6666236111858854e-01  1.8295363218129448e-01  1.7669170988511249e-01  3.3636796413034542e-01  3.5722081552289675e-01  3.4743049610949633e-01  5.0341527691457266e-01  5.2560783305235781e-01  5.1465067990856272e-01  6.6766585606280215e-01  6.8887179715174629e-01  6.7904087850047601e-01  8.3052959743661392e-01  8.4734689118415030e-01  8.4120775107911616e-01  1.0000000000001350e+00  1.0000000000001332e+00  1.0000000000001359e+00  -9.9324021490645787e-14  1.8572990172932546e-01  3.5972921148285575e-01  5.2793749425775482e-01  6.9127806996491714e-01  8.4993975618173534e-01  1.0000000000001348e+00  5.3630243228882912e-01  6.9788610205103152e-01  7.0444360221951252e-01  8.5249125766521550e-01  8.5786037559366946e-01  -9.0769285211378672e-14  -9.2965869270478758e-14  -9.1010727942821901e-14  1.6936211914285992e-01  1.7485320471456711e-01  1.6992546959355190e-01  3.3587975154028860e-01  3.4394788278428956e-01  3.3848242521997307e-01  5.0199925058193962e-01  5.1100501950047561e-01  5.0531612418824501e-01  6.6835346594731204e-01  6.7677107897087674e-01  6.7061245522159696e-01  8.3515259667939046e-01  8.4102347244834441e-01  8.3484280019255241e-01  1.0000000000001430e+00  1.0000000000001410e+00  1.0000000000001432e+00  -1.1384843112696018e-13  -1.1149174465887879e-13  -1.1133351226041701e-13  2.0401440885753452e-01  1.9900747634386626e-01  1.9878368880336486e-01  3.8902724300711472e-01  3.8463148351614251e-01  3.7982711757109477e-01  5.5956427935455522e-01  5.5563844202027557e-01  5.4969441812908404e-01  7.1778188996621839e-01  7.1383542156319724e-01  7.0990223724507129e-01  8.6492780300649430e-01  8.6088097276371955e-01  8.6096851644756955e-01  1.0000000000001228e+00  1.0000000000001226e+00  -9.2450160162538008e-14  1.7350372492904101e-01  3.4503451495819215e-01  5.1292068999923879e-01  6.7739148989452902e-01  8.3902182286356553e-01  1.0000000000001417e+00  -1.1885661039302136e-13  1.8228382986679051e-01  3.5705396665702499e-01  5.2562243700846190e-01  6.8859636254836409e-01  -8.6780994262694185e-14  -8.8511268532679417e-14  -8.8926033918499234e-14  1.5863546290635971e-01  1.5550889057588485e-01  1.5475609005343582e-01  3.1512212723164806e-01  3.1978890967145296e-01  4.8377556957764201e-01  6.5123504744825711e-01  8.2299402510899178e-01  1.0000000000001454e+00  -1.1326384694442921e-13  1.9161951815363554e-01  3.7256948703627141e-01  5.4249831938415016e-01  7.0264421997222382e-01  8.5438812970328515e-01  1.0000000000001208e+00  -1.1773908450178788e-13  -1.1927351885160707e-13  -1.1655017912423695e-13  2.0226280170851885e-01  1.9790608363510753e-01  1.9570321556673573e-01  3.8432878693852424e-01  3.8084695914381811e-01  3.7745382692181523e-01  5.5437384309557702e-01  5.5150329831814315e-01  5.4784786667125163e-01  7.1422598355181832e-01  7.1151476117133261e-01  7.0797531602925112e-01  8.6400496801714821e-01  8.6148758212204168e-01  8.5860357305336443e-01  1.0000000000001175e+00  -1.1571340272026994e-13  -1.1386002241550133e-13  -1.1550770377996666e-13  1.8931883680847844e-01  1.8486583720254396e-01  1.8913767139463580e-01  3.6830151081415363e-01  3.6278481540482688e-01  3.6694060509658410e-01  5.3790822328558419e-01  5.3210648208843270e-01  5.3614041824701097e-01  6.9915397545970792e-01  6.9351100602748805e-01  6.9752968862742959e-01  8.5292252637229593e-01  8.4824586317494410e-01  8.5200784267522989e-01  1.0000000000001186e+00  1.0000000000001201e+00  1.0000000000001181e+00  1.9957448178245402e-01  3.8148321962646792e-01  5.5167479157025245e-01  7.1170556844080435e-01  8.6198721942081113e-01  -9.5645471313416876e-14  -9.7734112934790222e-14  -9.6580188191546101e-14  1.8598352780098190e-01  1.9021125121288673e-01  1.9516654533876313e-01  3.6325075568357895e-01  3.6872134332464662e-01  3.7407564304902691e-01  5.3263205781438139e-01  5.3828955151118563e-01  5.4384679515311474e-01  6.9491118580071598e-01  6.9995345191458458e-01  7.0562683377703406e-01  8.5057986631464777e-01  8.5392771913300858e-01  8.5958824421634095e-01  1.0000000000001374e+00  1.0000000000001363e+00  1.0000000000001386e+00  -9.0712794856973164e-14  1.5918558054469367e-01  3.2036776524380917e-01  4.8438680653690236e-01  6.5182518589867233e-01  8.2358727848023083e-01  1.0000000000001432e+00  -1.1001550829512167e-13  2.1375499166975487e-01  4.0295377128328402e-01  5.7406327730148676e-01  7.2994103676231337e-01  7.2973066760142968e-01  -9.9614719829864008e-14  1.9381889520525117e-01  3.7170574042991017e-01  5.4092552938774163e-01  7.0267222673567398e-01  8.5711159377831792e-01  1.0000000000001343e+00  -9.4790384062216033e-14  1.7699970013347735e-01  3.4897759440310772e-01  5.1699127036146220e-01  6.8147424693221581e-01  8.4275088960415534e-01  1.0000000000001392e+00  1.0000000000001183e+00  7.0523997430025442e-01  8.5825596358384693e-01  1.0000000000001157e+00  -1.1816671140793238e-13  1.8368403625251190e-01  3.6068550992682485e-01  5.2994481292236884e-01  6.9204227899586590e-01  8.4805442366442085e-01  1.0000000000001157e+00  -1.1772534235174819e-13  2.0100479496701781e-01  3.8278067919474257e-01  5.5288448672459489e-01  7.1305607460420461e-01  8.6342758382043738e-01  1.0000000000001161e+00  -1.1098323983746968e-13  -1.1324978994297861e-13  -1.1282509359216060e-13  1.8368852936787577e-01  1.8640692909810577e-01  1.8616994509421189e-01  3.6150476091351258e-01  3.6505955776445503e-01  3.6374476992476357e-01  5.3100018085856937e-01  6.9267879848542369e-01  8.4757046086808319e-01  1.0000000000001212e+00  -1.1507505256554663e-13  1.9685218595146889e-01  3.7713928086909460e-01  5.4688750236179862e-01  7.0761353234015933e-01  8.5973095093231011e-01  1.0000000000001190e+00  8.7219380507644606e-01  1.9659938447374936e-01  3.7709310914780653e-01  -1.0014430807557133e-13  -9.9794471404753253e-14  1.8834875080381774e-01  1.9307384042126391e-01  3.6562566054625328e-01  3.7426946700936975e-01  5.3504577324770619e-01  5.4464573377521575e-01  6.9752138868881364e-01  7.0531489871925501e-01  8.5315315709979289e-01  8.5691956638049316e-01  1.0000000000001343e+00  1.0000000000001339e+00  -9.8391947871472698e-14  -1.0091633667886274e-13  1.8645390095537798e-01  1.8524519823074359e-01  3.6342079978445174e-01  3.6247868461638399e-01  5.3249585256658638e-01  5.3181068890835392e-01  6.9449436769314399e-01  6.9394748922276028e-01  8.5005614779982497e-01  8.4968751046534263e-01  1.0000000000001330e+00  1.0000000000001357e+00  2.1072816942882375e-01  3.9745911100113829e-01  5.6814570670865572e-01  7.2546146158092273e-01  8.7037731966687448e-01  1.0000000000001319e+00  -1.0948680591352828e-13  2.2502468278152671e-01  4.1462892959823150e-01  5.8514440151777203e-01  7.4037495271899367e-01  8.8071808433276233e-01  1.0000000000001246e+00  -1.2053543807878207e-13  1.8344335753567786e-01  3.0995007695103988e-01  3.0312688131782811e-01  4.6483183730545807e-01  6.3235754832698099e-01  8.0721658307655386e-01  1.0000000000001448e+00  7.0453385509889599e-01  8.5663268616963129e-01  -9.5813510235825496e-14  1.7087249435348192e-01  3.3983173341413314e-01  5.0676141610958314e-01  6.7190183863974973e-01  8.3575318725491465e-01  1.0000000000001381e+00  -9.5840744482514425e-14  1.9589534648747337e-01  3.7554207700498032e-01  5.4531695723393003e-01  7.0664268209185532e-01  8.5941253260074146e-01  1.0000000000001381e+00  -9.8804963545303839e-14  -1.0103530182102989e-13  -9.8890775963499249e-14  1.8406312672362019e-01  1.8923126610594998e-01  1.8583184900491545e-01  3.5920616591713606e-01  3.6635034435313701e-01  3.6257177006704511e-01  5.2774157863339943e-01  5.3548613023787717e-01  5.3159296543415491e-01  6.9056986954319755e-01  6.9766030872237694e-01  6.9377820816691438e-01  8.4814222605728595e-01  8.5313612587649645e-01  8.4968961527724896e-01  1.0000000000001352e+00  1.0000000000001330e+00  1.0000000000001352e+00  -1.0926620250869322e-13  2.0721454458254354e-01  3.9389946933574349e-01  5.6479172232095054e-01  7.2220292238803030e-01  8.6757405955522848e-01  1.0000000000001248e+00  -1.0540452879782138e-13  1.9676730509704424e-01  3.7667833472938816e-01  5.4645736727493621e-01  7.0755783391230198e-01  8.5996401438254000e-01  1.0000000000001286e+00  -1.0320489467895735e-13  -1.0110914015796644e-13  1.8095581580761463e-01  1.9021060472945994e-01  3.6773459485065452e-01  3.5631109036053255e-01  5.3705156394595810e-01  5.2507852309623693e-01  6.9906939048154237e-01  6.8788710409726617e-01  8.5419588024704007e-01  8.4554449476432758e-01  1.0000000000001308e+00  1.0000000000001328e+00  -1.1340751940239307e-13  1.9007538535140814e-01  3.6832955699833519e-01  5.3776186331172560e-01  6.9925125032286795e-01  8.5365398450336671e-01  1.0000000000001206e+00  6.9416172516197039e-01  6.6414751401054561e-01  6.8434096138229861e-01  4.9789529232911972e-01  5.3045056384751210e-01  8.4492057117840469e-01  8.5209713301521517e-01  8.3101886123815494e-01  1.0000000000001379e+00  1.0000000000001363e+00  1.0000000000001386e+00  -1.0694644154859232e-13  2.1577033482086713e-01  4.0626908957317642e-01  5.7744728281359603e-01  7.3252043684496382e-01  8.7344709552455457e-01  1.0000000000001272e+00  -9.5487881918841177e-14  -9.7550280461040225e-14  -9.5543878664796673e-14  1.7609766790232270e-01  1.5417652581208613e-01  1.6514203795222340e-01  3.4613568886861812e-01  3.1728617872123333e-01  3.3158382412307486e-01  5.1340006046719255e-01  4.8211456505279976e-01  6.7866449669551021e-01  6.4816682122717961e-01  8.4244080793995846e-01  8.1665418115230992e-01  1.0000000000001366e+00  1.0000000000001386e+00  -1.0372903725720255e-13  1.9690518486664702e-01  3.7861985021786315e-01  5.4862370498810664e-01  7.0872620711334378e-01  8.5969851653671303e-01  1.0000000000001303e+00  -9.1200025843724497e-14  -9.3411762779620480e-14  -9.1093814152389349e-14  1.5882827401285776e-01  1.5255048203290247e-01  1.5450032712967088e-01  3.2005755746014591e-01  3.1166432568954144e-01  3.1290252786382550e-01  4.8431741443604737e-01  4.7478707973160084e-01  4.7593486983685518e-01  6.5180794121328522e-01  6.4226731916966184e-01  6.4404334485964998e-01  8.2340169708640698e-01  8.1525764846469029e-01  8.1840276198149264e-01  1.0000000000001406e+00  1.0000000000001428e+00  1.0000000000001428e+00  -9.7849280629731490e-14  1.8629600563688117e-01  3.6147402117371447e-01  -8.5151683745835600e-14  -8.7383803431111405e-14  -8.5608326903788813e-14  1.7402065651491094e-01  1.8136323761893172e-01  1.7923968001418308e-01  3.4593362404773009e-01  3.5661982553948746e-01  3.5499086874621072e-01  5.1392277153659516e-01  5.2554668201871313e-01  -8.6190199720620731e-14  1.5746564096318050e-01  3.1848952522628171e-01  4.8252303139470765e-01  6.4993136305436705e-01  8.2157410337311199e-01  1.0000000000001479e+00  -1.0502174189684551e-13  -1.0723017895781511e-13  -1.0551563550579360e-13  1.8870160457530291e-01  1.8681779646397609e-01  1.8940693320799842e-01  3.6685362938506161e-01  3.6469160384127886e-01  3.6685410998308099e-01  5.3640069692091596e-01  5.3431311432099859e-01  5.3617675397107234e-01  6.9821310163221251e-01  6.9632280853925754e-01  6.9835815730756134e-01  8.5289306361738837e-01  8.5134782567034972e-01  8.5368247899888061e-01  1.0000000000001286e+00  1.0000000000001268e+00  1.0000000000001290e+00  -1.0167998033757315e-13  1.8894903018806639e-01  3.6672327456992887e-01  5.3602450395970536e-01  6.9792186137406542e-01  8.5290565579899524e-01  1.0000000000001323e+00  -1.1120929413754834e-13  1.8868108731026731e-01  3.6665506229125466e-01  5.3628541854927403e-01  6.9828719849086718e-01  8.5329162046016904e-01  1.0000000000001228e+00  -9.2873918589803052e-14  -9.5190795839469915e-14  1.6595269689761324e-01  1.5887582322066615e-01  3.3012242107191497e-01  3.2093616320279172e-01  4.9529978002097785e-01  4.8537728381654771e-01  6.6189754178707216e-01  6.5253321643447526e-01  8.3078747510718121e-01  8.2330872809272615e-01  1.0000000000001388e+00  1.0000000000001410e+00  -1.0857785641292924e-13  -1.0894874285833821e-13  1.8463519718822824e-01  1.8922008384480024e-01  3.6213935473088643e-01  3.6665122218930901e-01  5.3179421476679467e-01  5.3616782570282018e-01  6.9409879486915227e-01  6.9849970640251258e-01  8.4975778748009945e-01  8.5382277863744671e-01  1.0000000000001250e+00  1.0000000000001255e+00  -1.0777678674902818e-13  2.2331758933703999e-01  4.1526782842844379e-01  5.8627190676784580e-01  7.4008526485489912e-01  -9.4304832238873293e-14  -9.6659608594719065e-14  1.8600830322179690e-01  1.8895486794109892e-01  3.6138918324511132e-01  3.6519730497176356e-01  5.3020710826873341e-01  5.3433403691346149e-01  6.9330390559897370e-01  6.9751621708205780e-01  8.5072229775127228e-01  8.5431536844921019e-01  1.0000000000001374e+00  1.0000000000001397e+00  -1.0676774972441665e-13  1.8976222444608182e-01  3.6697204079314438e-01  5.3629932683908710e-01  6.9856118708803794e-01  8.5397268194182185e-01  1.0000000000001272e+00  -8.9698429849539617e-14  -9.2012948066126262e-14  -9.0112944546694271e-14  1.7378787974167420e-01  1.9196947520628613e-01  1.9241191007682695e-01  3.4580454018177886e-01  3.6829717759576280e-01  3.6929018331171143e-01  5.1384792867565188e-01  5.3727213996110779e-01  5.3846983879084043e-01  6.7829807835949385e-01  7.0000719481356943e-01  7.0122868180950104e-01  8.3979397345490781e-01  8.5592046900340613e-01  8.5719380334774886e-01  1.0000000000001439e+00  1.0000000000001421e+00  1.0000000000001446e+00  -9.3722131850999572e-14  -9.4104512414388778e-14  1.8063613797144096e-01  1.9408713262771035e-01  3.5754841543958704e-01  3.7417680812950116e-01  5.2703686311203513e-01  5.4414596516852864e-01  6.8950494258693229e-01  7.0543302947373354e-01  8.4603046361558842e-01  8.5815942238632426e-01  1.0000000000001401e+00  1.0000000000001403e+00  -1.0406253443085752e-13  1.8994193635550716e-01  3.6831970566310612e-01  5.3783907552088961e-01  6.9948816017108417e-01  8.5376341932308475e-01  1.0000000000001299e+00  -9.7194122912732379e-14  -9.9493215362330323e-14  1.7937089354863062e-01  1.6064931774368074e-01  3.5207887209810751e-01  3.2660857731604676e-01  5.2016689384091874e-01  4.9231180259896357e-01  6.8427428108172716e-01  6.5759284126534989e-01  8.4510452854890239e-01  8.2390237626659013e-01  1.0000000000001348e+00  1.0000000000001368e+00  -1.0325243118704378e-13  1.8602513451065575e-01  3.6324665259832817e-01  5.3263323819183750e-01  6.9485255503374632e-01  8.5060108269919543e-01  1.0000000000001308e+00  -9.1780294499268324e-14  1.8335861776311635e-01  3.6106840400914758e-01  5.3059347312766980e-01  6.9254969486854678e-01  8.4805230181070657e-01  1.0000000000001423e+