<?xml version="1.0"?>
<VTKFile type="UnstructuredGrid"  version="0.1"  >
<UnstructuredGrid>
<Piece  NumberOfPoints="1003" NumberOfCells="4273">
<Points>
<DataArray  type="Float64"  NumberOfComponents="3"  format="ascii">7.376440303582541 3.802851683860807 1.269222908809696  7.213932430564562 3.824005962749197 1.312733091601731  7.363152636850844 3.867090196564549 1.361568804020625  7.361460565744081 3.922729320920384 1.323266236745892  7.211412184539999 3.87812834156478 1.272330577219584  7.373663796969425 3.856919955424378 1.227921978144125  7.359641692293136 3.978384083680736 1.284970736061744  7.208783906327801 3.93227676196844 1.231973844040864  7.370789001081679 3.911000921438796 1.186607651118477  7.357733310872884 4.034047849805908 1.246656489493784  7.206083625128379 3.986432290788718 1.19162644885796  7.367842428163601 3.965089309148928 1.145265854345026  7.355781507836154 4.089715220685312 1.208300469503923  7.203349074258224 4.040576542109258 1.151255153418979  7.364854007154437 4.019182739547438 1.103881390599627  7.353829824210585 4.145387923002819 1.169885788485266  7.200623406227039 4.094694243730236 1.110830325906134  7.361850836560713 4.073289256015115 1.062444239096723  7.35193144879026 4.201054572154563 1.13139991967008  7.197940089070341 4.148773906989372 1.070324681678462  7.358863829490603 4.127405297002888 1.020934741341471  8.032128368178475 3.092276104198452 0.8458160966112692  8.062703390031361 2.955567925177228 0.8521412388386504  7.914583213520623 3.026891808092581 0.8315482885395671  7.92291789465583 3.025693483221596 0.7633375105642373  8.073565353376337 2.944767355376157 0.7857748748764195  8.037936290068743 3.093385738973185 0.7766207560153507  7.931239522704056 3.024479396107608 0.695118126586904  7.304210985964274 3.752458582419564 1.21118868904531  7.301266954788028 3.803798408840486 1.166318939314198  7.298244172240628 3.855160910815647 1.121432401252816  7.295158770529324 3.906525003695168 1.076525481346547  7.292037471576401 3.95788515858434 1.031579736369412  7.288907681160576 4.009248499613721 0.98657543490591  7.285813983058394 4.060635510095892 0.9414810017970964  7.377267140918786 2.852280727429805 0.7814537232897586  7.265002608982934 2.785665894069089 0.7869065705812438  7.288726453159245 2.937100169943909 0.7778717200081235  7.285289053008006 2.938909176421264 0.7088347614841961  7.262305719001437 2.778745977463883 0.7192803593123773  7.378550382229705 2.847997564613188 0.7131438294914709  7.379695790711088 2.843822755069381 0.6447763857753673  7.259423503885106 2.771917410060267 0.6516106212193177  7.281715055219191 2.94079236995977 0.6397777502905392  7.380798111059268 2.83965236778935 0.5763621519841439  7.256478710294472 2.76509193311217 0.5839057681052606  7.278094846242023 2.942667972884705 0.5707004477225343  7.253551014838111 2.758212292899559 0.5161788026618351  7.381913838305233 2.835424062047601 0.5079142351285512  7.27448577799184 2.944493190406823 0.5016035229004825  7.250697644255353 2.751233656584656 0.4484335607754075  7.3830844397933 2.83109017893869 0.4394458455697716  7.270930615095927 2.946234544330261 0.4324878829636776  7.38435138957931 2.826611918415128 0.3709671491856105  7.247966945044912 2.744122201714517 0.3806684913911628  7.267465010286293 2.947862622520165 0.363357315298877  7.171802221154011 2.896380349070776 0.7883053258005677  7.164671032845148 2.896908893586893 0.7199042130173113  7.157375937287695 2.897478407055701 0.6515076562009918  7.150015086807096 2.898043540815881 0.5831057134924846  7.142659300463317 2.898572454764628 0.5146968316135225  7.13536755944726 2.899036639538835 0.4462791990727252  7.128188431920657 2.899402229936931 0.3778463953196936  7.493404039023377 3.059764255259846 0.7844659632827613  7.407295076591783 2.985759333590051 0.7800060692118785  7.402113839017683 3.133233264640328 0.7990771946530392  7.401297106419205 3.146376877272068 0.7301087164013811  7.407936069919103 2.989051658047709 0.7106132056587394  7.496797433906421 3.067970126346344 0.7147864778549281  7.400386806703681 3.159560384659748 0.6611482392492236  7.40846751579692 2.992424368163452 0.6412011386285968  7.500102518487609 3.076218317951778 0.6451017797119731  7.399445417157009 3.172725512314134 0.5921664910748315  7.408966109253067 2.995793705377905 0.5717620642253979  7.503384595843474 3.084450023040481 0.5753966698575561  7.398506524557134 3.185846040032537 0.5231597889846746  7.40947541420623 2.999111433871609 0.5022991001033085  7.506678353205416 3.092631074025654 0.5056678857161138  7.39759732796295 3.198902257793424 0.4541330430069884  7.410029618734142 3.002340982254748 0.432817972791403  7.510011777507163 3.100734155056533 0.4359177613756673  7.396741552816261 3.211868127833151 0.3850962449717797  7.410658653028706 3.005445671856382 0.3633259524253584  7.51342067899511 3.108736946066828 0.3661528845320682  7.307042184146681 3.067866635636987 0.7897187763138147  7.302500196932831 3.078383746484314 0.7208593736958182  7.29785958358954 3.088944035658119 0.6520077084176443  7.293180847014543 3.099491304172826 0.5831426819887913  7.288505689420935 3.109993580176499 0.5142592493736057  7.283865097060287 3.120426606810484 0.4453565446639439  7.279284313897513 3.130771196602463 0.3764329644424146  7.935706902181098 3.180082045388536 0.8411551582390309  7.940365995766842 3.18870150358683 0.7715841974621293  7.302455782394397 3.206925851342042 0.8177639524813863  7.294982487427482 3.227189915930483 0.7507675735300148  7.287454713090968 3.247464490506573 0.6837791499390814  7.279899707018544 3.267715625735418 0.6167740254086665  7.27234256190554 3.287927632190799 0.5497462136921907  7.264798221660982 3.308084373785156 0.4826969082535906  7.257269152477213 3.328167576553947 0.4156357984472255  7.791810683480469 2.455633156735022 0.9357794172773297  7.649167272342809 2.401352040697841 0.9258245031846253  7.674492196639685 2.513231050694638 0.8883583318028311  7.686558433507233 2.491466649989625 0.8289972262913518  7.660466316685352 2.377906629964961 0.8678557877103177  7.807067973626362 2.433202385520922 0.8789807367162445  7.69868779233375 2.469828649808956 0.7694455780625494  7.671834633537833 2.354560575907408 0.8096823527687232  7.822493180636093 2.41086324509821 0.8220647573990675  7.710847259139709 2.448168192508672 0.7097831195140472  7.683246118444786 2.331205142721842 0.7513865001498393  7.837987793051381 2.388508517258253 0.7650721589891575  7.723011050247581 2.426403679444539 0.6500519189869269  7.778399453806268 2.551773318984294 0.8971864244453256  7.793007565507498 2.530879180056191 0.8384942082479158  7.807736646891238 2.510064633052083 0.7796605861925299  7.822518419065073 2.489225949171565 0.7207450671103566  7.837305935212329 2.468312272090426 0.6617814640995107  7.208963881190531 3.720569716407502 1.182988826745827  7.205689642394927 3.770802717426029 1.136787503916698  7.202361104738337 3.821057444144858 1.090564188538516  7.198983879159325 3.871317349863524 1.044322584592298  7.195577008569289 3.921572705353233 0.9980450563334717  7.192161515405636 3.971818763766791 0.9517116247213577  7.188768375155855 4.022053775289411 0.9052991021709977  7.141544816752846 2.775483817796172 0.7987472670054707  7.13336426133283 2.768185576585033 0.7316838804052332  7.124965087251348 2.760940167387036 0.6646287344956118  7.116478329864114 2.753696732806576 0.5975730810853386  7.108005967539857 2.746425222233321 0.5305170647895101  7.099629303080083 2.739094654618782 0.4634581919799891  7.091419827119944 2.731658934587577 0.3963807830430309  7.122208094724578 3.663479756028021 1.133557292524962  7.135919217194184 3.774643018304042 1.249162639485023  7.133435360018221 3.826779937139453 1.205742042448633  7.118721975750023 3.711857420085062 1.08529701896285  7.130845295272195 3.878960825608624 1.162338170764342  7.115188082963319 3.76023961124484 1.03701922464625  7.128199163263571 3.931154143197663 1.118930441466131  7.111617209482975 3.808625120927255 0.9887157439505261  7.125523671637408 3.983342266904981 1.075492433057511  7.108023194642942 3.857007125053393 0.9403763408564635  7.122847233495538 4.035514674557091 1.031998670877964  7.104415522937689 3.905376980297017 0.8919929940135303  7.120215844523657 4.087671137444048 0.9884471395425465  7.100812622730171 3.95372236692938 0.8435718701826378  7.835922647922792 3.109130422027162 0.8281557694579667  7.842498767866881 3.116712253731862 0.7593449097415123  7.944996898099297 3.197286678852763 0.7019962687402471  7.84903077556951 3.124273426764258 0.6905203086974357  7.939578599507342 3.023227154275873 0.626892608583617  7.949635107377173 3.20581898102049 0.632389072165169  7.855562335658841 3.131797646225096 0.6216800093004295  7.94794196290166 3.021922209900048 0.5586667077743549  7.954296127109854 3.214294808279415 0.562763496223819  7.862114653920537 3.139271492623932 0.552825389880586  7.956329683852723 3.020556476741135 0.4904441610319007  7.958993808514982 3.222710352017892 0.4931173128386105  7.868702467379578 3.146685410036731 0.4839575822267392  7.964751531344106 3.019124643098418 0.4222315249107816  7.963740994598663 3.231058955117251 0.4234432870292986  7.875353716062987 3.154032519012567 0.4150739886381014  7.377952350550697 2.746738250486285 0.792508649507247  7.379562112693976 2.736457906939193 0.7256991876063493  7.381015720668398 2.726300638776146 0.6587911480072357  7.382419939184531 2.716144363762941 0.591815356238923  7.383839900358177 2.70591754006299 0.5247999836953058  7.38532778593291 2.695568890701467 0.457764759700285  7.386928688833905 2.685055145840543 0.3907276115406169  7.214413526264138 3.141001351762449 0.8154635184568817  7.204410775819295 3.15777736635275 0.7484844475771084  7.194343405833803 3.174557933131037 0.6815185112331534  7.184240937631458 3.191323474511767 0.6145481529764463  7.174132968650096 3.208054267404665 0.5475644159340698  7.164042749833277 3.224732398402861 0.4805635243075766  7.153984720600643 3.241331056846269 0.41353712648166  7.213305127275
[...]
<PointData  Scalars="f_14"> 
<DataArray  type="Float64"  Name="f_14"  format="ascii">-9.1231199574476656e-14  -9.4826487835741123e-14  -9.1423512806792359e-14  1.8797973441602830e-01  1.8197392334353085e-01  1.8831503279471379e-01  3.6628818967521715e-01  3.5868241196458295e-01  3.6536312495543777e-01  5.3552805712711771e-01  5.2811484689494215e-01  5.3448011378589855e-01  6.9682116406939276e-01  6.9051120988043879e-01  6.9658549859511931e-01  8.5110980059551944e-01  8.4683672576606162e-01  8.5225062114074246e-01  1.0000000000001428e+00  1.0000000000001392e+00  1.0000000000001430e+00  -7.8261441889097609e-14  -7.7943543902501121e-14  -8.1007260762465835e-14  1.9371907259545065e-01  2.0558110774712796e-01  1.9016115026975555e-01  3.7368613254674904e-01  -9.2929334337331181e-14  1.9007013356011637e-01  3.6687706721940455e-01  5.3594075500767202e-01  6.9819662616748035e-01  8.5420364049381037e-01  1.0000000000001412e+00  -9.3396985958983384e-14  -9.6079234781358325e-14  -9.5183757611100608e-14  2.1295595734776726e-01  2.0743924922646823e-01  2.0409037577793737e-01  3.8999706159849329e-01  3.9338262622907200e-01  3.9962358839722045e-01  5.6114223823347609e-01  5.6431644106710721e-01  5.7042198378842313e-01  7.2232238044701480e-01  7.1922152157073360e-01  7.2786818966678668e-01  8.6818209324156037e-01  8.6541010962500919e-01  8.7240857476148714e-01  1.0000000000001408e+00  1.0000000000001379e+00  1.0000000000001388e+00  -9.7892093089487291e-14  2.0339715138114595e-01  3.8758924422166535e-01  5.5821736458120352e-01  7.1711636679703517e-01  8.6509107133881391e-01  1.0000000000001359e+00  -9.0240828330373639e-14  -9.2390920034783247e-14  -9.2128178362096288e-14  2.0852295829517767e-01  2.0800006417737504e-01  2.1910814214548263e-01  3.9688931789171727e-01  3.9529315747581867e-01  4.0687906457954248e-01  5.6829791345203295e-01  5.6656390007318036e-01  5.7784526235932243e-01  7.2522033999514901e-01  7.2392392327937494e-01  7.3471505514196345e-01  8.6900583912594687e-01  8.6838976163329373e-01  8.7786715672218441e-01  1.0000000000001419e+00  1.0000000000001417e+00  1.0000000000001439e+00  -9.4474518329344412e-14  2.1076950078706774e-01  3.9749115706151000e-01  5.6839466352779910e-01  7.2574941310179142e-01  8.7043216718812944e-01  1.0000000000001394e+00  -8.0136156488809327e-14  1.9855284287176977e-01  -9.4277102405118326e-14  2.2036802213832582e-01  4.0775217434933320e-01  5.7818434986643485e-01  7.3494386309056248e-01  8.7801718565708897e-01  1.0000000000001397e+00  -8.5420888312997334e-14  -8.8737927243705497e-14  -8.7824306197583674e-14  1.8803449635454220e-01  1.8718010487756490e-01  1.8759032824745134e-01  3.6704985722384997e-01  3.6478488213263693e-01  3.6408055518346927e-01  5.3727236759787411e-01  5.3452629277923425e-01  5.3344517689941551e-01  6.9910928335147060e-01  -8.5399704614556545e-14  1.8779375778758062e-01  3.6583259683333313e-01  5.3573879121027013e-01  6.9797639767567698e-01  -9.5116781180713993e-14  1.8864297933737204e-01  3.6598851508031577e-01  5.3541723715451617e-01  6.9787456126016290e-01  8.5359773792052429e-01  1.0000000000001390e+00  -9.8866301449414149e-14  2.0073977552896044e-01  3.8428309915291431e-01  5.5490574998061004e-01  7.1426537881481744e-01  8.6322314960925017e-01  1.0000000000001350e+00  -9.7158007671175277e-14  -9.6639690052481563e-14  1.9011098388714817e-01  1.8356053779781453e-01  3.6741242985215711e-01  3.6083029143818013e-01  5.3680501799503644e-01  5.3038088142592676e-01  6.9924606695718727e-01  6.9274313370266738e-01  8.5491530107237013e-01  8.4839834318921614e-01  1.0000000000001374e+00  1.0000000000001370e+00  -8.2492393288274844e-14  1.9092300363650438e-01  3.7997200769047162e-01  3.7111797696932236e-01  5.4334928392375692e-01  5.4969915814748715e-01  5.4087161235007997e-01  7.0386182543602394e-01  7.0968127937099246e-01  7.0113597654194071e-01  8.5622422515430607e-01  8.6065241417810290e-01  8.5329390788002546e-01  1.0000000000001532e+00  1.0000000000001541e+00  1.0000000000001517e+00  -9.3668728164063197e-14  2.0397107904765255e-01  3.8913730035999400e-01  5.6017152774878276e-01  7.1865118593980892e-01  8.6567194725417318e-01  1.0000000000001403e+00  -9.6435975611112030e-14  2.0003878516179785e-01  3.8317593640071973e-01  5.5342593859154177e-01  7.1250520514433702e-01  8.6160184251327399e-01  1.0000000000001372e+00  -9.6197327664878267e-14  1.9360692622775180e-01  3.7553610876758786e-01  5.4564877556734226e-01  7.0535736740929089e-01  8.5617918985537156e-01  1.0000000000001374e+00  -9.8659184152440694e-14  1.9050351431891455e-01  3.6742424891100212e-01  5.3672509065532270e-01  6.9921540049836017e-01  8.5517142425891024e-01  1.0000000000001354e+00  -8.3318153876561579e-14  -8.5107046108749479e-14  -8.5027795456273100e-14  1.9631881492358336e-01  2.0226749146397918e-01  2.0004526721134275e-01  3.7878293910791538e-01  3.8517430851132689e-01  3.8105544261590352e-01  5.4927837703133919e-01  5.5565955368845221e-01  5.5095065254550446e-01  7.0909274737594186e-01  7.1535485602418525e-01  7.1110947897875498e-01  8.5935787581566814e-01  8.6451187706488841e-01  8.6230257011227951e-01  1.0000000000001492e+00  1.0000000000001490e+00  1.0000000000001510e+00  -9.3440116320792201e-14  1.9602848473820128e-01  3.7582147727953247e-01  5.4549220349005900e-01  7.0652373287992976e-01  8.5913688481116424e-01  1.0000000000001406e+00  -8.9805513203951939e-14  2.0339209056409926e-01  3.8991879404110125e-01  5.6145731587768621e-01  7.1973425889776288e-01  8.6586935198504356e-01  1.0000000000001443e+00  -8.0059374146589529e-14  -8.2418069297057051e-14  -8.0694997943792364e-14  1.8924845130516899e-01  1.8900275945806491e-01  1.9010899208755438e-01  3.6855369784081438e-01  3.6778822047894444e-01  3.6824428746006693e-01  5.3811354633017172e-01  5.3715443264563845e-01  5.3746253976834646e-01  6.9905059089153587e-01  6.9801381935708584e-01  6.9888368759550523e-01  8.5234326588434661e-01  8.5149145281309035e-01  8.5332989462943121e-01  1.0000000000001519e+00  1.0000000000001541e+00  1.0000000000001537e+00  -9.0905294218161581e-14  2.0482365552531889e-01  3.9061401803059320e-01  5.6189157226373465e-01  7.2026511703300466e-01  8.6675264664213392e-01  1.0000000000001432e+00  -8.7601133920490607e-14  2.0110809216691683e-01  3.8608279159668191e-01  5.5724979665860475e-01  7.1608373953141735e-01  8.6363100953732364e-01  1.0000000000001465e+00  -8.0714819295616613e-14  1.8682714675655057e-01  3.6597706315497308e-01  3.8731423113294217e-01  5.3562414440057304e-01  5.5709127780166279e-01  6.9661533693315936e-01  -9.6932113155921187e-14  -9.8391947871472698e-14  -9.5840744482514425e-14  1.9589534648747337e-01  1.8524519823074359e-01  1.8739860709718167e-01  3.7554207700498032e-01  3.6247868461638399e-01  3.6483784404542602e-01  5.4531695723393003e-01  5.3181068890835392e-01  5.3431174605774256e-01  7.0664268209185532e-01  6.9394748922276028e-01  6.9657294344499265e-01  8.5941253260074146e-01  8.4968751046534263e-01  8.5228275691306477e-01  1.0000000000001381e+00  1.0000000000001357e+00  1.0000000000001372e+00  -8.0804949537052546e-14  -8.2798163831018182e-14  -8.2549217287634786e-14  1.9333465414847989e-01  1.9024358728777896e-01  2.0551735728631693e-01  3.7480472429233619e-01  3.7136186717414088e-01  3.8668707159058618e-01  5.4478281633210668e-01  5.4145278065664060e-01  5.5618218522181773e-01  7.0464519336523757e-01  7.0155852242576022e-01  7.1584193252629902e-01  8.5567062682465056e-01  8.5301059983567817e-01  8.6650179837689156e-01  1.0000000000001517e+00  1.0000000000001512e+00  1.0000000000001534e+00  -8.5212554987731532e-14  1.9877862024671916e-01  3.8179929120893180e-01  5.5234332086281790e-01  7.1183440075001392e-01  8.6135032327671479e-01  1.0000000000001490e+00  -9.0873107124984595e-14  -9.3579820978646095e-14  -9.3297211433497238e-14  1.9940678926470257e-01  -8.2822478566896162e-14  1.8501273514171310e-01  3.6471768879056765e-01  5.3473159825172545e-01  6.9566061248462108e-01  8.5034863955055429e-01  8.4913824931599347e-01  1.0000000000001532e+00  1.0000000000001514e+00  -7.8627751080956184e-14  1.9270637319395595e-01  3.7111221899424429e-01  5.4050316887230787e-01  7.0228939028593451e-01  -8.6795873627257459e-14  -8.6779240242748879e-14  -8.8962460332167888e-14  1.9284107137004483e-01  2.0642425342780493e-01  1.9103982845442441e-01  3.7363643821609405e-01  3.9031570299363716e-01  3.7160489422451576e-01  5.4397870438235385e-01  5.6092720530709284e-01  5.4195248642147942e-01  7.0477104891549958e-01  7.2025467926323672e-01  7.0301449213920963e-01  8.5673950953955258e-01  8.6850635586669467e-01  8.5539261742149475e-01  1.0000000000001452e+00  1.0000000000001472e+00  1.0000000000001472e+00  -8.2604942056604875e-14  -8.4721049025695407e-14  -8.2546654695331987e-14  1.9113259448665423e-01  1.9741314709145658e-01  1.8688527737297028e-01  3.7036448355037210e-01  3.7658017017133355e-01  3.6477271312023901e-01  5.3992666167056003e-01  5.4624034508773534e-01  5.3411302724577137e-01  7.0116312595745234e-01  7.0781308059665304e-01  6.9576516575831993e-01  8.5470807868374443e-01  8.6131608080244848e-01  8.5058058171998507e-01  1.0000000000001517e+00  1.0000000000001494e+00  1.0000000000001517e+00  -9.2978959886745887e-14  1.8280251080395482e-01  3.5915894276004762e-01  5.2820938042217969e-01  6.9049116221163354e-01  8.4687346787226170e-01  1.0000000000001412e+00  5.2554668201871313e-01  5.2417530347669150e-01  5.1392277153659516e-01  3.5499086874621072e-01  6.7808858663031601e-01  6.8857050132067199e-01  6.8711840905426835e-01  8.3922686593337348e-01  8.4635677299069034e-01  8.4481551159399071e-01  1.0000000000001485e+00  1.0000000000001470e+00  1.0000000000001490e+00  -8.4558367183014031e-14  -8.4674415090771284e-14  1.9781597591983158e-01  2.0650674119099363e-01  3.8148833544912197e-01  3.8928102986509128e-01  5.5204942630894727e-01  5.5945050803680207e-01  7.1139586453951065e-01  7.1910181305501963e-01  8.6055528418805927e-01  8.6798866188815904e-01  1.0000000000001497e+00  1.0000000000001497e+00  -9.0969821935854687e-14  1.8192135103864646e-01  3.5820434527419576e-01  5.2721401042101512e-01  6.8948686848170682e-01  8.4597277113225777e-01  1.0000000000001432e+00  -8.8965246997772461e-14  -8.9002345161507848e-14  1.8060120121925319e-01  1.9254675834985044e-01  3.5764428126555142e-01  3.7012652046372396e-01  5.2707861159628144e-01  5.3954127263738338e-01  6.8919968134293519e-01  7.0174147518031038e-01  8.4535645705838203e-01  8.5689926228404811e-01  1.0000000000001452e+00  1.0000000000001452e+00  -8.2591243661110866e-14  -8.4937888977119030e-14  -8.2835271795189466e-14  2.0070176474039866e-01  1.9898240800224806e-01  1.9305650484441689e-01  3.7131252086251160e-01  3.8102098403052592e-01  3.7901151514722531e-01  5.4069189390241446e-01  5.5078900156328547e-01  5.4852233423119590e-01  7.0265109113625235e-01  7.1176867942429833e-01  7.0931939321160276e-01  8.5725532474647648e-01  8.6355457137861502e-01  8.6151608532215151e-01  1.0000000000001514e+00  1.0000000000001492e+00  1.0000000000001517e+00  -8.0218552105135689e-14  -8.2265771145249283e-14  2.0112857632544895e-01  1.8862507282695617e-01  3.8203000497787154e-01  3.6890549983608312e-01  5.5162327190591554e-01  5.3847583220912409e-01  7.1149411109371441e-01  6.9868786752429013e-01  8.6244891251381217e-01  8.5127394799701817e-01  1.0000000000001521e+00  1.0000000000001541e+00  -8.6869906795006767e-14  -8.6958055138164803e-14  1.8697918989123347e-01  1.8839554941802517e-01  3.6569897091719239e-01  3.6633791386208781e-01  5.3530189633351466e-01  5.3604143578665742e-01  6.9670444426400524e-01  6.9814244284320792e-01  8.5086265631438762e-01  8.5306897068975795e-01  1.0000000000001472e+00  1.0000000000001472e+00  -8.7331630754362631e-14  -8.7602091120660563e-14  -8.9680908761267425e-14  2.0626004758093369e-01  2.0378347606150835e-01  2.0908871520280536e-01  3.9374609432553964e-01  3.8938458179749141e-01  3.9515340655007120e-01  5.6516342704931899e-01  5.6052641497390376e-01  5.6612867118466870e-01  7.2260408941046850e-01  7.1897694042767124e-01  7.2420728144673974e-01  8.6738765204234280e-01  8.6573817668311659e-01  8.7004481244898391e-01  1.0000000000001446e+00  1.0000000000001468e+00  1.0000000000001468e+00  -9.3578847545883798e-14  -9.3890913244108575e-14  -9.5953269838324398e-14  1.9337119690444107e-01  2.0766639949238180e-01  1.9607667945374910e-01  3.7389854941052236e-01  3.9281936774078396e-01  3.7723202003871270e-01  5.4393961987407191e-01  5.6319866088222825e-01  5.4724559410335460e-01  7.0450871557610506e-01  7.2139857796953200e-01  7.0745268654341542e-01  8.5655157167361884e-01  8.6812799388908957e-01  8.5871550749249526e-01  1.0000000000001379e+00  1.0000000000001401e+00  1.0000000000001406e+00  -9.1431694046566982e-14  -9.1724852427544382e-14  2.2382997743103283e-01  1.9846657629962969e-01  4.1201113303956977e-01  3.8260162979459755e-01  5.8247531565504895e-01  5.5330831665431213e-01  7.3848736716972052e-01  7.1221858574525165e-01  8.8003987478614920e-01  8.6061981594259096e-01  1.0000000000001426e+00  1.0000000000001428e+00  -8.4708422775389275e-14  1.8744734462354321e-01  3.6638186117243254e-01  5.3614741088633422e-01  6.9770190670720211e-01  8.5198459216920386e-01  1.0000000000001494e+00  -8.9319403801319334e-14  2.0513127787298374e-01  3.9129322660377130e-01  5.6236729683820896e-01  7.2039601582090007e-01  8.6650417128196311e-01  1.0000000000001450e+00  3.6851516817473001e-01  3.7975221895823846e-01  3.5661982553948746e-01  1.9973603190154157e-01  1.8969274757627003e-01  5.3822084215479660e-01  5.4955454360331712e-01  6.9991837804874080e-01  7.1086050840562753e-01  8.5403449731653946e-01  8.6337796671040345e-01  1.0000000000001448e+00  1.0000000000001470e+00  -8.9202697140157133e-14  -9.1449216663468946e-14  -8.9477097294920761e-14  2.0592328927468798e-01  1.9578559059071393e-01  3.8659712363043869e-01  3.7564410900408290e-01  5.5625950442795324e-01  5.4523564094959609e-01  7.1669887945582467e-01  7.0614077675238385e-01  8.6742110141899742e-01  8.5873545979260646e-01  1.0000000000001428e+00  1.0000000000001450e+00  -8.2818213987617308e-14  1.9014444468913672e-01  3.6812514323527551e-01  5.3750897285349364e-01  6.9924347268973819e-01  8.5411734048030274e-01  1.0000000000001514e+00  -8.6201624031174709e-14  -8.7950330988789280e-14  2.0489492412483018e-01  1.9499181241633026e-01  3.7773721608871996e-01  3.8970975995369012e-01  5.4858869375794439e-01  5.6080057662217631e-01  7.0853954120986284e-01  7.1977505249449214e-01  8.5858312285680705e-01  8.6726300564607772e-01  1.0000000000001479e+00  1.0000000000001461e+00  -8.4862547183170883e-14  2.0582970119007649e-01  3.8943437012823168e-01  5.5975490998749966e-01  7.1870385071205178e-01  8.6706494923568500e-01  1.0000000000001494e+00  -9.5344813560804839e-14  1.9092605069139795e-01  3.6896427864955739e-01  5.3852461382065719e-01  7.0059046141438719e-01  8.5541702457305480e-01  1.0000000000001388e+00  -8.9009684430680565e-14  1.8807742001459235e-01  3.6646796183487473e-01  5.3624377966509618e-01  6.9810753290611549e-01  8.5276775439022012e-01  1.0000000000001452e+00  -7.6014001277012661e-14  -7.7066121980667958e-14  1.7048363126705326e-01  1.8034782301916155e-01  3.5411419024475793e-01  3.4487328212062907e-01  5.2245778355635053e-01  5.1390921176311088e-01  -9.4108126028995333e-14  -9.6827690973888346e-14  -9.5131593053956727e-14  2.0343432808008183e-01  1.9598741427501629e-01  2.0239626913905262e-01  3.8831912079728303e-01  3.7933807593668267e-01  3.8600692478838133e-01  5.5923787309012962e-01  5.5021532987923338e-01  5.5673617169965439e-01  7.1793456963532110e-01  7.0976405883466998e-01  7.1602510842152711e-01  8.6526851750868827e-01  8.5914222941221929e-01  8.6457354470158987e-01  1.0000000000001390e+00  1.0000000000001372e+00  1.0000000000001399e+00  1.7923968001418308e-01  1.9620863401622116e-01  3.7461307144238992e-01  5.4378256637750677e-01  7.0505241179744527e-01  -8.8818745178449537e-14  -9.0034599213619830e-14  -9.1371410235254861e-14  2.0588459093324135e-01  1.9983961654247304e-01  1.9886954797023454e-01  3.9095277452760846e-01  3.8393035222866650e-01  3.8310327818651618e-01  5.6201761485804103e-01  5.5519039096139322e-01  5.5437232912430456e-01  7.2069018434866028e-01  7.1480655763765411e-01  7.1380318079204352e-01  8.6760235692043564e-01  8.6345230560524522e-01  8.6229742005845800e-01  1.0000000000001428e+00  1.0000000000001441e+00  1.0000000000001452e+00  -8.4896140549563658e-14  1.8542831829132211e-01  3.6329352122503361e-01  5.3289494390296965e-01  6.9488926217931413e-01  8.4996565589275974e-01  1.0000000000001492e+00  -9.7617959862598612e-14  -1.0021495508353020e-13  2.1013037980296928e-01  3.9509633930883703e-01  3.8401745523286618e-01  5.6577883029582743e-01  5.5452085587029398e-01  7.2424620067801904e-01  7.1436941661864262e-01  8.7059807718386983e-01  3.6328470746432234e-01  3.7277732046598538e-01  1.9428129261682531e-01  5.3259143424051270e-01  5.4233424523364804e-01  6.9484116253204120e-01  7.0423350444314170e-01  8.5052019460115236e-01  8.5858940560259156e-01  1.0000000000001339e+00  1.0000000000001354e+00  -9.8684745654642583e-14  1.8563021035069127e-01  3.6236919256973260e-01  5.3160797173311247e-01  6.9410536452800875e-01  8.5038637841331566e-01  1.0000000000001354e+00  -7.8148284262897180e-14  -8.0668198823884141e-14  -7.8633983321080232e-14  1.7681287825726175e-01  1.7517792723507722e-01  1.7753564842584804e-01  3.4914359144081730e-01  3.4544824600934748e-01  3.5036695606075829e-01  5.1721742953736327e-01  5.1284434911270305e-01  5.1857688620701492e-01  6.8126186408267553e-01  6.7792378026701139e-01  6.8253692045197811e-01  8.4181423569388680e-01  8.4076873852829026e-01  8.4270357382053340e-01  1.0000000000001534e+00  -8.3686736551172699e-14  -8.4779731732978981e-14  2.0212175265481586e-01  1.9289555345448933e-01  3.8467779786584727e-01  3.7368830187286889e-01  5.5513183076432471e-01  5.4374610765364151e-01  7.1516527238147765e-01  7.0408137236708668e-01  8.6481218690022210e-01  8.5582533740131250e-01  1.0000000000001492e+00  1.0000000000001505e+00  -9.6963006015841992e-14  2.0135388169520371e-01  3.8480713754092843e-01  5.5520831002763171e-01  7.1418551988511647e-01  8.6294652335832478e-01  1.0000000000001368e+00  -9.9388682662350200e-14  1.9490216621312254e-01  3.7745999851964646e-01  5.4822006907696186e-01  7.0848259991489271e-01  8.5890070213284064e-01  5.3422136752213290e-01  5.3556327826690431e-01  5.3771920120280747e-01  3.6582148566339057e-01  6.9966448250651059e-01  6.9610278123342040e-01  6.9719433847849388e-01  8.5440128370296797e-01  8.5103930076374446e-01  8.5169706798397049e-01  1.0000000000001372e+00  1.0000000000001354e+00  1.0000000000001383e+00  -8.7309451441484239e-14  -8.4746327235081109e-14  1.9072908861307908e-01  3.7016187154734598e-01  5.4007427985313339e-01  7.0153929626554845e-01  8.5522542328749229e-01  1.0000000000001494e+00  -8.3894378366681295e-14  -8.6586665588272384e-14  1.9501280392402534e-01  1.8839337974806042e-01  3.7639436002049548e-01  3.6715004638447529e-01  5.4710426448322280e-01  5.3715195920413861e-01  7.0809092796737472e-01  6.9912959280413722e-01  8.5962072164900716e-01  8.5353074690395925e-01  1.0000000000001474e+00  1.0000000000001501e+00  -9.1073489557115312e-14  1.8754173170773600e-01  3.6597502361005518e-01  5.3559396910587143e-01  6.9709267027743904e-01  8.5134567632708735e-01  1.0000000000001430e+00  -9.5828959276367912e-14  1.8730239236614829e-01  -9.5570363545407633e-14  1.9671588736726545e-01  3.7927761042328495e-01  5.4990857678500749e-01  7.0982798398788505e-01  8.5975749890202446e-01  1.0000000000001386e+00  8.5308217388419916e-01  8.5291241844634091e-01  1.0000000000001463e+00  1.0000000000001488e+00  -8.6910824137657095e-14  1.8692010957038371e-01  3.6484622473116890e-01  5.3448238770905709e-01  6.9658609534586291e-01  8.5161993576157857e-01  1.0000000000001472e+00  -8.9030408196848440e-14  -8.7391534532431566e-14  2.0305859503523802e-01  2.0019190690951152e-01  3.8656402153884428e-01  3.8294637931340408e-01  5.5734552188758446e