<?xml version="1.0"?>
<VTKFile type="UnstructuredGrid"  version="0.1"  >
<UnstructuredGrid>
<Piece  NumberOfPoints="976" NumberOfCells="8847">
<Points>
<DataArray  type="Float64"  NumberOfComponents="3"  format="ascii">10.27356651637048 4.319828743558679 2.358382440224674  10.21359279215627 4.32133676225956 2.265529879762787  10.19863396400362 4.283379111967577 2.393747582619989  10.17965640463456 4.33544421484231 2.40959428517251  10.19339958324865 4.375127959269911 2.279456885206564  10.25346234790946 4.372827333096942 2.373278870223571  10.16102662180116 4.387622928212991 2.425341209123668  10.17362081552194 4.428988149800396 2.293285616341496  10.23376555733843 4.425858756814476 2.388067151688395  10.14258223310031 4.439832418547776 2.441023188711301  10.15409504546793 4.482824691961875 2.307035605870816  10.21431058688513 4.478846362788022 2.402766694116114  10.12415903249523 4.491987974415847 2.456673014682255  10.13464316845184 4.536563084433662 2.320731376813001  10.19493216806104 4.531712953119619 2.417404646583659  10.10558733471603 4.54399922261197 2.472317325697901  10.11508387863723 4.590115813479801 2.334385059974007  10.17546535832004 4.584356688105304 2.431986848531248  10.08667228633378 4.595761974287822 2.488007199088726  10.09519517157963 4.643370066563987 2.347995268948226  10.15572468999148 4.636638942253356 2.446528384572166  10.25220847933876 4.338582036304633 1.513752386824482  10.14336783038785 4.331954493910048 1.621781776658025  10.26027845163239 4.366907562698741 1.629653349419529  10.24225241697515 4.431229062149934 1.616532640680742  10.12586420424736 4.396314604043849 1.609341889855246  10.23549912427386 4.403448301860593 1.495291700279745  10.22473875683696 4.495401663270222 1.603521896470008  10.1087946349225 4.460610207189747 1.596948778628717  10.21922561861116 4.468245919427577 1.476943745927814  10.20753699671294 4.559386217584593 1.590549520738273  10.09199153817808 4.524783279293167 1.584568404729446  10.20322677820336 4.532893703818655 1.458658292381387  10.19048052480231 4.62315116289204 1.577567612528617  10.07529515858642 4.588804190898318 1.572167383108527  10.18734279175933 4.597340709250579 1.440385915394989  10.17338315597876 4.686649592230349 1.564504272108333  10.05853699500224 4.652641933159619 1.559718670842898  10.17139950385488 4.661542135690604 1.422067613438369  10.15590331993107 4.749846415798849 1.551386892948414  10.04152269317798 4.716279503271734 1.547198439681895  10.15513669380878 4.725478467217985 1.403675198670255  10.10991051949587 4.284100320420548 2.266890137897748  10.0912908849652 4.3376395722662 2.280636492539363  10.07303356545648 4.39129259896701 2.294286455527059  10.05495829234815 4.444996229199461 2.307876120673078  10.03691113103212 4.498682833373786 2.32144141077225  10.01871024169592 4.552274814721025 2.335019624975713  10.00014937706115 4.605660742924165 2.348624549402193  10.11690508424155 4.297437889250502 1.502514823399019  10.10091210667655 4.362989191429574 1.485728011799619  10.08532106522823 4.42845203666774 1.469020483591491  10.06994304091309 4.49380901153485 1.452346765615136  10.05464940825493 4.559033743074187 1.435673867722463  10.03930265474628 4.624101760110408 1.418972197005224  10.02374335150811 4.688996292053606 1.402195455666293  10.41339667894499 4.431220870996158 2.093513705097723  10.36495670393908 4.425425127587103 1.993461950860477  10.26073298611181 4.380728429977245 2.064421678572368  10.23979686676259 4.43903503721195 2.071864846042307  10.34705749708592 4.487142590942662 1.996740310769184  10.39582183856257 4.492067251135623 2.099335496691658  10.21947061734104 4.497240855458362 2.079223541283881  10.32969942676158 4.548623245526887 2.000028258580378  10.37874628179161 4.552639915478354 2.105136321733721  10.19947648977254 4.555282657821633 2.086516917548409  10.31267571463381 4.609812322880755 2.003308432064483  10.36199123822777 4.612922889918035 2.110914844111477  10.179605389013 4.61312772583329 2.093753589187566  10.29582226958392 4.670719068513698 2.006556101143644  10.34539036255364 4.672898162653038 2.116647992009308  10.15967922934923 4.670717881360609 2.10093031553219  10.27888892431617 4.731302086407481 2.009658436502262  10.32872020444279 4.73252915011342 2.122240502360932  10.13935733755861 4.727937678169457 2.108022612713676  10.26155116703805 4.791506455427248 2.012623877279582  10.31170353444002 4.791699986438841 2.127696891517671  10.59832488420312 4.539337146076259 1.754188255119081  10.61088288801217 4.524831603896759 1.617943214533159  10.69236862794999 4.547910585559328 1.699672708444127  10.62214627444999 4.455404472774101 1.631321088246295  10.61013734784674 4.470896558416358 1.761780843948682  10.68292649879121 4.617743282699881 1.689366217592252  10.58690743527792 4.607322644413246 1.746766347868286  10.36065330052441 4.40144556513866 2.188396514474979  10.33985681554614 4.458713811157328 2.199645600881365  10.3196682275378 4.515797342233432 2.210789761008439  10.29978491783939 4.572663280066175 2.221866634813583  10.28003044058384 4.629275080213525 2.232903384752183  10.26020063420587 4.685586879506096 2.243824058059623  10.2399825069185 4.741488760569752 2.254633412014173  10.28143002458531 4.402502068016292 1.918303482798483  10.26190489733716 4.464062001682903 1.919436504498096  10.24295155740762 4.52545206894543 1.920562082521193  10.22432140902451 4.586646555702508 1.921660803141379  10.20583961404645 4.647601463751977 1.922724545046586  10.1872967887721 4.708261529917093 1.923688598210334  10.16834376424841 4.768554942544057 1.924554107283664  9.82988938536654 4.265518696504096 1.883244591082174  9.789196938333424 4.257904621376162 1.777621041032954  9.696650413065058 4.244299953148792 1.851032447883822  9.686520353310428 4.307572296726192 1.85355883090693  9.777381723782227 4.322087704745865 1.777301290293323  9.816644918395466 4.327435900718652 1.886192719448414  9.676441577017375 4.370908350777144 1.855965813188521  9.765687771588254 4.386300123759754 1.776874200709169  9.803567786825909 4.389418555965507 1.889029338621665  9.666399620967542 4.434294788835982 1.858310820774559  9.754078205108891 4.450525910666314 1.776383777678796  9.790591768362578 4.451442536522325 1.891802853906838  9.656377710066025 4.49772717266961 1.860643527054621  9.742497211510798 4.514759585807226 1.77587198777068  9.777642744598314 4.513489365569528 1.894560734943593  9.646350929809651 4.561237753178891 1.863016456943554  9.730888931668025 4.579013597001833 1.775372226122023  9.764634663635176 4.575554191705608 1.897349397356845  9.63626987133847 4.624873223613929 1.865496401863033  9.719217286054656 4.64333690163394 1.774927791634264  9.751468043842324 4.637675420494706 1.90022529256114  10.52669422077291 4.446434269485303 1.692522653969826  10.51256269295991 4.513948471982584 1.682483035281518  10.49896306733065 4.580992594627584 1.672617985615199  10.6000153372627 4.593801637076085 1.604752178713387  10.4857139682903 4.647637472302585 1.662866019255115  10.58945171249323 4.662307229226211 1.591661904622325  10.57582033983722 4.674815444515141 1.739487663981489  10.47264426888201 4.713874388350561 1.653064778127639  10.57907927908873 4.730354795633717 1.578556107899102  10.56488730308672 4.741847346397121 1.73219695610588  10.45944169457116 4.779669142672213 1.643180770572696  10.56856937321119 4.797900267651783 1.565393502953429  10.55386343436328 4.808396647508595 1.724802836915744  10.44580896114433 4.844982366291751 1.633125212600145  10.55758554944624 4.864905106916687 1.552100743223195  10.5424234414015 4.874423663117083 1.717220785337598  10.06743620007448 4.298270148193093 2.388489388878352  10.04946196173671 4.349855267406185 2.404197152980035  10.03163539401807 4.401534441334302 2.419870421457751  10.01380575448613 4.453235239779017 2.435548755618924  9.995807322799834 4.504891831060535 2.451269738829164  9.977410100993945 4.556421399745187 2.467061663432547  10.19402553348503 4.297021069651896 1.427674194377788  10.17899653124337 4.361380415732214 1.403047755633393  10.16433945044198 4.425681428488844 1.378544770598367  10.14990555859217 4.489862883451361 1.354097318262167  10.1355661454433 4.553893007108742 1.329660792693061  10.12117187824201 4.617746109642188 1.305189616536775  10.10653738403085 4.68143867225604 1.280647484391596  9.738844015671141 4.365240197860174 1.978251422107041  9.72781124500457 4.425978737408825 1.984022357542194  9.716792511945085 4.486780674009149 1.989789903098682  9.705732229954435 4.547657613558409 1.995610039075652  9.694575936848526 4.608635390988877 2.00153757478441  9.7056999700701 4.243294433754 1.707365230654933  9.695597556172189 4.309254473667909 1.705032384896883  9.685562110802609 4.375212283116864 1.702581605957062  9.675575288907485 4.4411668452484 1.70007599581938  9.665612559904895 4.507128315322534 1.697553675241504  9.655648625798237 4.573115142303231 1.695052044554796  9.645674020118175 4.639159390027605 1.692616421029403  10.08902408794522 4.254683865402099 1.379782561778639  10.07659658454535 4.320004264103579 1.353919749078919  10.06441965986929 4.38528131671295 1.328171896239549  10.05240426039578 4.450485525473864 1.302468726160448  10.04045069770149 4.515584306308117 1.276760568182472  10.02844793140533 4.580561496172215 1.251004807904124  10.01632649283803 4.645421060093886 1.225156370679999  10.19260649877015 4.367619682003435 1.973992083052131  10.17139892684468 4.426901549393002 1.979104148374028  10.15076956814614 4.486145242030273 1.984131965390646  10.13043093839248 4.545294054753322 1.98911434311572  10.11019276551406 4.604289028533597 1.994046609899925  10.08985992226826 4.663055884012625 1.998905049883071  10.06915904274356 4.721483967015391 2.003704426060277  9.856461486110096 4.388366419323197 1.987460673284119  9.870953115830503 4.328655258796945 1.981117192190877  9.842093029860882 4.448132808925477 1.993745698874639  9.827755008708074 4.507927967694975 2.000018929766331  9.813342635699506 4.567739807418133 2.00
[...]
<CellData  Scalars="f">
<DataArray  type="Float64"  Name="f"  format="ascii">1 18446744073709551615 18446744073709551615 1 18446744073709551615 18446744073709551615 1 18446744073709551615 18446744073709551615 18446744073709551615 18446744073709551615 18446744073709551615 18446744073709551615 18446744073709551615 18446744073709551615 18446744073709551615 1 18446744073709551615 18446744073709551615 1 18446744073709551615 18446744073709551615 18446744073709551615 18446744073709551615 18446744073709551615 18446744073709551615 1 18446744073709551615 18446744073709551615 18446744073709551615 18446744073709551615 18446744073709551615 18446744073709551615 18446744073709551615 18446744073709551615 1 18446744073709551615 18446744073709551615 1 18446744073709551615 18446744073709551615 18446744073709551615 1 18446744073709551615 18446744073709551615 18446744073709551615 18446744073709551615 18446744073709551615 18446744073709551615 18446744073709551615 18446744073709551615 18446744073709551615 18446744073709551615 18446744073709551615 18446744073709551615 18446744073709551615 18446744073709551615 1 18446744073709551615 18446744073709551615 18446744073709551615 18446744073709551615 18446744073709551615 18446744073709551615 18446744073709551615 18446744073709551615 18446744073709551615 18446744073709551615 18446744073709551615 18446744073709551615 18446744073709551615 18446744073709551615 18446744073709551615 18446744073709551615 18446744073709551615 18446744073709551615 18446744073709551615 18446744073709551615 18446744073709551615 18446744073709551615 18446744073709551615 18446744073709551615 18446744073709551615 18446744073709551615 18446744073709551615 18446744073709551615 18446744073709551615 18446744073709551615 18446744073709551615 18446744073709551615 18446744073709551615 18446744073709551615 18446744073709551615 18446744073709551615 18446744073709551615 18446744073709551615 18446744073709551615 18446744073709551615 18446744073709551615 18446744073709551615 18446744073709551615 18446744073709551615 18446744073709551615 18446744073709551615 18446744073709551615 18446744073709551615 18446744073709551615 18446744073709551615 18446744073709551615 18446744073709551615 18446744073709551615 18446744073709551615 18446744073709551615 18446744073709551615 18446744073709551615 18446744073709551615 18446744073709551615 18446744073709551615 18446744073709551615 18446744073709551615 18446744073709551615 18446744073709551615 18446744073709551615 18446744073709551615 18446744073709551615 18446744073709551615 18446744073709551615 18446744073709551615 18446744073709551615 18446744073709551615 18446744073709551615 18446744073709551615 18446744073709551615 18446744073709551615 18446744073709551615 18446744073709551615 18446744073709551615 18446744073709551615 18446744073709551615 18446744073709551615 18446744073709551615 18446744073709551615 18446744073709551615 18446744073709551615 18446744073709551615 18446744073709551615 18446744073709551615 18446744073709551615 18446744073709551615 18446744073709551615 18446744073709551615 18446744073709551615 18446744073709551615 18446744073709551615 18446744073709551615 18446744073709551615 18446744073709551615 18446744073709551615 18446744073709551615 18446744073709551615 18446744073709551615 18446744073709551615 18446744073709551615 18446744073709551615 18446744073709551615 18446744073709551615 18446744073709551615 18446744073709551615 18446744073709551615 18446744073709551615 18446744073709551615 18446744073709551615 18446744073709551615 18446744073709551615 18446744073709551615 18446744073709551615 18446744073709551615 18446744073709551615 18446744073709551615 18446744073709551615 18446744073709551615 18446744073709551615 18446744073709551615 18446744073709551615 18446744073709551615 18446744073709551615 18446744073709551615 18446744073709551615 18446744073709551615 18446744073709551615 18446744073709551615 18446744073709551615 18446744073709551615 18446744073709551615 18446744073709551615 18446744073709551615 18446744073709551615 18446744073709551615 18446744073709551615 18446744073709551615 18446744073709551615 18446744073709551615 18446744073709551615 18446744073709551615 18446744073709551615 18446744073709551615 18446744073709551615 18446744073709551615 18446744073709551615 18446744073709551615 18446744073709551615 18446744073709551615 18446744073709551615 18446744073709551615 18446744073709551615 18446744073709551615 18446744073709551615 18446744073709551615 18446744073709551615 18446744073709551615 18446744073709551615 18446744073709551615 18446744073709551615 18446744073709551615 18446744073709551615 18446744073709551615 18446744073709551615 18446744073709551615 18446744073709551615 18446744073709551615 18446744073709551615 18446744073709551615 18446744073709551615 18446744073709551615 18446744073709551615 18446744073709551615 18446744073709551615 18446744073709551615 18446744073709551615 18446744073709551615 18446744073709551615 18446744073709551615 18446744073709551615 18446744073709551615 18446744073709551615 18446744073709551615 18446744073709551615 18446744073709551615 18446744073709551615 18446744073709551615 18446744073709551615 18446744073709551615 18446744073709551615 18446744073709551615 18446744073709551615 18446744073709551615 18446744073709551615 18446744073709551615 18446744073709551615 18446744073709551615 18446744073709551615 18446744073709551615 18446744073709551615 18446744073709551615 18446744073709551615 18446744073709551615 18446744073709551615 18446744073709551615 18446744073709551615 18446744073709551615 18446744073709551615 18446744073709551615 18446744073709551615 18446744073709551615 18446744073709551615 18446744073709551615 18446744073709551615 18446744073709551615 18446744073709551615 18446744073709551615 18446744073709551615 18446744073709551615 18446744073709551615 18446744073709551615 18446744073709551615 18446744073709551615 18446744073709551615 18446744073709551615 18446744073709551615 18446744073709551615 18446744073709551615 18446744073709551615 18446744073709551615 18446744073709551615 18446744073709551615 18446744073709551615 18446744073709551615 18446744073709551615 18446744073709551615 18446744073709551615 18446744073709551615 18446744073709551615 18446744073709551615 18446744073709551615 18446744073709551615 18446744073709551615 18446744073709551615 18446744073709551615 18446744073709551615 18446744073709551615 18446744073709551615 18446744073709551615 18446744073709551615 18446744073709551615 18446744073709551615 18446744073709551615 18446744073709551615 18446744073709551615 18446744073709551615 18446744073709551615 18446744073709551615 18446744073709551615 18446744073709551615 18446744073709551615 18446744073709551615 18446744073709551615 18446744073709551615 18446744073709551615 18446744073709551615 18446744073709551615 18446744073709551615 18446744073709551615 18446744073709551615 18446744073709551615 18446744073709551615 18446744073709551615 18446744073709551615 18446744073709551615 18446744073709551615 18446744073709551615 18446744073709551615 18446744073709551615 18446744073709551615 18446744073709551615 18446744073709551615 18446744073709551615 18446744073709551615 18446744073709551615 18446744073709551615 18446744073709551615 18446744073709551615 18446744073709551615 18446744073709551615 18446744073709551615 18446744073709551615 18446744073709551615 18446744073709551615 18446744073709551615 18446744073709551615 18446744073709551615 18446744073709551615 18446744073709551615 18446744073709551615 18446744073709551615 18446744073709551615 18446744073709551615 18446744073709551615 18446744073709551615 18446744073709551615 18446744073709551615 18446744073709551615 18446744073709551615 18446744073709551615 18446744073709551615 18446744073709551615 18446744073709551615 18446744073709551615 18446744073709551615 18446744073709551615 18446744073709551615 18446744073709551615 18446744073709551615 18446744073709551615 18446744073709551615 18446744073709551615 18446744073709551615 18446744073709551615 18446744073709551615 18446744073709551615 18446744073709551615 18446744073709551615 18446744073709551615 18446744073709551615 18446744073709551615 18446744073709551615 18446744073709551615 18446744073709551615 18446744073709551615 18446744073709551615 18446744073709551615 18446744073709551615 18446744073709551615 5 18446744073709551615 5 5 18446744073709551615 18446744073709551615 5 5 5 5 5 18446744073709551615 18446744073709551615 5 5 5 5 5 1 18446744073709551615 18446744073709551615 1 18446744073709551615 18446744073709551615 1 18446744073709551615 18446744073709551615 18446744073709551615 18446744073709551615 18446744073709551615 18446744073709551615 18446744073709551615 18446744073709551615 18446744073709551615 18446744073709551615 18446744073709551615 18446744073709551615 1 18446744073709551615 18446744073709551615 18446744073709551615 1 18446744073709551615 18446744073709551615 18446744073709551615 1 18446744073709551615 18446744073709551615 18446744073709551615 1 18446744073709551615 18446744073709551615 18446744073709551615 18446744073709551615 1 18446744073709551615 18446744073709551615 18446744073709551615 18446744073709551615 18446744073709551615 18446744073709551615 18446744073709551615 18446744073709551615 18446744073709551615 1 18446744073709551615 18446744073709551615 18446744073709551615 1 18446744073709551615 18446744073709551615 18446744073709551615 1 18446744073709551615 18446744073709551615 18446744073709551615 1 18446744073709551615 18446744073709551615 18446744073709551615 18446744073709551615 18446744073709551615 18446744073709551615 18446744073709551615 1 18446744073709551615 18446744073709551615 18446744073709551615 1 18446744073709551615 18446744073709551615 18446744073709551615 18446744073709551615 18446744073709551615 18446744073709551615 18446744073709551615 18446744073709551615 18446744073709551615 18446744073709551615 18446744073709551615 18446744073709551615 18446744073709551615 18446744073709551615 18446744073709551615 18446744073709551615 18446744073709551615 18446744073709551615 18446744073709551615 18446744073709551615 18446744073709551615 18446744073709551615 18446744073709551615 18446744073709551615 18446744073709551615 18446744073709551615 18446744073709551615 18446744073709551615 18446744073709551615 18446744073709551615 18446744073709551615 18446744073709551615 18446744073709551615 18446744073709551615 18446744073709551615 18446744073709551615 18446744073709551615 18446744073709551615 18446744073709551615 18446744073709551615 18446744073709551615 18446744073709551615 18446744073709551615 18446744073709551615 18446744073709551615 18446744073709551615 18446744073709551615 18446744073709551615 18446744073709551615 18446744073709551615 18446744073709551615 18446744073709551615 18446744073709551615 18446744073709551615 18446744073709551615 18446744073709551615 18446744073709551615 18446744073709551615 18446744073709551615 18446744073709551615 18446744073709551615 18446744073709551615 18446744073709551615 18446744073709551615 18446744073709551615 18446744073709551615 18446744073709551615 18446744073709551615 18446744073709551615 18446744073709551615 18446744073709551615 18446744073709551615 18446744073709551615 18446744073709551615 18446744073709551615 18446744073709551615 18446744073709551615 18446744073709551615 18446744073709551615 18446744073709551615 18446744073709551615 18446744073709551615 18446744073709551615 18446744073709551615 18446744073709551615 18446744073709551615 18446744073709551615 18446744073709551615 18446744073709551615 18446744073709551615 18446744073709551615 18446744073709551615 18446744073709551615 18446744073709551615 18446744073709551615 18446744073709551615 18446744073709551615 18446744073709551615 18446744073709551615 18446744073709551615 18446744073709551615 18446744073709551615 18446744073709551615 18446744073709551615 18446744073709551615 18446744073709551615 18446744073709551615 18446744073709551615 18446744073709551615 18446744073709551615 18446744073709551615 18446744073709551615 18446744073709551615 18446744073709551615 18446744073709551615 18446744073709551615 18446744073709551615 18446744073709551615 18446744073709551615 18446744073709551615 18446744073709551615 18446744073709551615 18446744073709551615 18446744073709551615 18446744073709551615 18446744073709551615 18446744073709551615 18446744073709551615 18446744073709551615 18446744073709551615 18446744073709551615 18446744073709551615 18446744073709551615 18446744073709551615 18446744073709551615 18446744073709551615 18446744073709551615 18446744073709551615 18446744073709551615 18446744073709551615 18446744073709551615 18446744073709551615 18446744073709551615 18446744073709551615 18446744073709551615 18446744073709551615 18446744073709551615 18446744073709551615 18446744073709551615 18446744073709551615 18446744073709551615 18446744073709551615 18446744073709551615 18446744073709551615 18446744073709551615 18446744073709551615 18446744073709551615 18446744073709551615 18446744073709551615 18446744073709551615 18446744073709551615 18446744073709551615 18446744073709551615 18446744073709551615 18446744073709551615 18446744073709551615 18446744073709551615 18446744073709551615 18446744073709551615 18446744073709551615 18446744073709551615 18446744073709551615 18446744073709551615 18446744073709551615 18446744073709551615 18446744073709551615 18446744073709551615 18446744073709551615 18446744073709551615 18446744073709551615 18446744073709551615 18446744073709551615 18446744073709551615 18446744073709551615 18446744073709551615 18446744073709551615 18446744073709551615 18446744073709551615 18446744073709551615 18446744073709551615 18446744073709551615 18446744073709551615 18446744073709551615 18446744073709551615 18446744073709551615 18446744073709551615 18446744073709551615 18446744073709551615 18446744073709551615 18446744073709551615 18446744073709551615 18446744073709551615 18446744073709551615 18446744073709551615 18446744073709551615 18446744073709551615 18446744073709551615 18446744073709551615 18446744073709551615 18446744073709551615 18446744073709551615 18446744073709551615 18446744073709551615 18446744073709551615 18446744073709551615 18446744073709551615 18446744073709551615 18446744073709551615 18446744073709551615 18446744073709551615 18446744073709551615 18446744073709551615 18446744073709551615 18446744073709551615 18446744073709551615 18446744073709551615 18446744073709551615 18446744073709551615 18446744073709551615 18446744073709551615 18446744073709551615 18446744073709551615 18446744073709551615 18446744073709551615 18446744073709551615 18446744073709551615 18446744073709551615 18446744073709551615 18446744073709551615 18446744073709551615 18446744073709551615 18446744073709551615 18446744073709551615 18446744073709551615 18446744073709551615 18446744073709551615 18446744073709551615 18446744073709551615 18446744073709551615 18446744073709551615 18446744073709551615 18446744073709551615 18446744073709551615 18446744073709551615 18446744073709551615 18446744073709551615 18446744073709551615 18446744073709551615 18446744073709551615 18446744073709551615 18446744073709551615 18446744073709551615 18446744073709551615 18446744073709551615 18446744073709551615 18446744073709551615 18446744073709551615 18446744073709551615 18446744073709551615 18446744073709551615 18446744073709551615 18446744073709551615 18446744073709551615 18446744073709551615 18446744073709551615 18446744073709551615 18446744073709551615 18446744073709551615 18446744073709551615 18446744073709551615 18446744073709551615 18446744073709551615 18446744073709551615 18446744073709551615 18446744073709551615 18446744073709551615 18446744073709551615 18446744073709551615 18446744073709551615 18446744073709551615 18446744073709551615 18446744073709551615 18446744073709551615 18446744073709551615 18446744073709551615 18446744073709551615 18446744073709551615 18446744073709551615 18446744073709551615 18446744073709551615 18446744073709551615 18446744073709551615 18446744073709551615 18446744073709551615 18446744073709551615 18446744073709551615 18446744073709551615 18446744073709551615 18446744073709551615 18446744073709551615 18446744073709551615 18446744073709551615 18446744073709551615 18446744073709551615 18446744073709551615 18446744073709551615 18446744073709551615 18446744073709551615 18446744073709551615 18446744073709551615 18446744073709551615 18446744073709551615 18446744073709551615 18446744073709551615 18446744073709551615 18446744073709551615 18446744073709551615 18446744073709551615 18446744073709551615 18446744073709551615 18446744073709551615 18446744073709551615 18446744073709551615 18446744073709551615 18446744073709551615 18446744073709551615 18446744073709551615 18446744073709551615 18446744073709551615 18446744073709551615 18446744073709551615 18446744073709551615 18446744073709551615 18446744073709551615 18446744073709551615 18446744073709551615 18446744073709551615 18446744073709551615 18446744073709551615 18446744073709551615 18446744073709551615 18446744073709551615 18446744073709551615 18446744073709551615 18446744073709551615 18446744073709551615 18446744073709551615 18446744073709551615 18446744073709551615 18446744073709551615 18446744073709551615 18446744073709551615 18446744073709551615 18446744073709551615 18446744073709551615 18446744073709551615 18446744073709551615 18446744073709551615 5 5 5 5 5 18446744073709551615 5 18446744073709551615 18446744073709551615 5 5 5 5 18446744073709551615 18446744073709551615 5 5 5 5 18446744073709551615 18446744073709551615 18446744073709551615 18446744073709551615 18446744073709551615 18446744073709551615 1 18446744073709551615 18446744073709551615 18446744073709551615 18446744073709551615 18446744073709551615 18446744073709551615 18446744073709551615 18446744073709551615 18446744073709551615 18446744073709551615 18446744073709551615 18446744073709551615 18446744073709551615 18446744073709551615 18446744073709551615 18446744073709551615 18446744073709551615 18446744073709551615 18446744073709551615 18446744073709551615 18446744073709551615 18446744073709551615 18446744073709551615 18446744073709551615 18446744073709551615 18446744073709551615 18446744073709551615 18446744073709551615 18446744073709551615 18446744073709551615 18446744073709551615 18446744073709551615 18446744073709551615 18446744073709551615 18446744073709551615 18446744073709551615 18446744073709551615 18446744073709551615 18446744073709551615 18446744073709551615 18446744073709551615 18446744073709551615 18446744073709551615 18446744073709551615 18446744073709551615 18446744073709551615 18446744073709551615 18446744073709551615 18446744073709551615 18446744073709551615 18446744073709551615 18446744073709551615 18446744073709551615 18446744073709551615 18446744073709551615 18446744073709551615 18446744073709551615 18446744073709551615 18446744073709551615 18446744073709551615 18446744073709551615 18446744073709551615 18446744073709551615 18446744073709551615 18446744073709551615 18446744073709551615 18446744073709551615 18446744073709551615 18446744073709551615 18446744073709551615 18446744073709551615 18446744073709551615 18446744073709551615 18446744073709551615 18446744073709551615 18446744073709551615 18446744073709551615 18446744073709551615 18446744073709551615 18446744073709551615 18446744073709551615 18446744073709551615 18446744073709551615 18446744073709551615 18446744073709551615 18446744073709551615 18446744073709551615 18446744073709551615 18446744073709551615 18446744073709551615 5 5 5 18446744073709551615 18446744073709551615 18446744073709551615 18446744073709551615 18446744073709551615 1 18446744073709551615 18446744073709551615 18446744073709551615 1 18446744073709551615 18446744073709551615 18446744073709551615 1 18446744073709551615 18446744073709551615 18446744073709551615 18446744073709551615 18446744073709551615 18446744073709551615 18446744073709551615 18446744073709551615 18446744073709551615 1844