<?xml version="1.0"?>
<VTKFile type="UnstructuredGrid"  version="0.1"  >
<UnstructuredGrid>
<Piece  NumberOfPoints="981" NumberOfCells="8878">
<Points>
<DataArray  type="Float64"  NumberOfComponents="3"  format="ascii">10.47859488461395 1.743199149549865 2.310221683024858  10.39011876681951 1.746475835728203 2.389186253413879  10.38273083948475 1.724029119284048 2.239661572515492  10.38905879737766 1.667763615780034 2.242278509007262  10.39683539946244 1.69240529673649 2.398864054048915  10.48597589267946 1.688015048236318 2.317507211734648  10.39525864057125 1.611415413315949 2.244792593467745  10.40347460904878 1.638254956620224 2.408512436685674  10.49329241959396 1.63275112263528 2.32471043883513  10.40142678604492 1.555024175394698 2.247285859556934  10.41008562860593 1.58403959932603 2.418148189787025  10.50060100487238 1.577426358742889 2.331893258842316  10.41672859369495 1.529787024632423 2.427807391808069  10.50795116995733 1.522058110705792 2.339107318438697  10.40764227875548 1.498597133978777 2.249807817571164  10.42344169225265 1.475503761082034 2.43752695641128  10.51537027436656 1.466659465806737 2.346397574449021  10.41395715113066 1.442143086847034 2.252394613525482  10.43023782909035 1.421187278292761 2.447327135254973  10.52285832381607 1.411205931080995 2.35380424121657  10.4203808474043 1.385644156210024 2.255083961648562  10.19504683088765 1.728761504654526 2.022000283859359  10.20844646622608 1.70816188518386 2.128451625072066  10.0947105917528 1.702891132348889 2.133114244430004  10.09693146857657 1.646484370595371 2.127370360064911  10.21183358923589 1.651283410139894 2.123806259890633  10.1978496550444 1.673404958623024 2.007485854029059  10.09874866479027 1.590069447768875 2.121500219723802  10.21493822334777 1.59437065551028 2.11903531707719  10.20036090587878 1.618022151465165 1.992820804473827  10.10043300113196 1.533667086909613 2.115595610885951  10.21796245780892 1.537454090423338 2.114235527226385  10.20277781034868 1.562626892319416 1.978109479470885  10.10216275928515 1.477289076311859 2.109709405133873  10.22103996446715 1.48053563270176 2.109460680214795  10.20523674013423 1.507228575274416 1.963414663582168  10.10411401222196 1.420948762015484 2.103886974784413  10.22428613509263 1.423610479877239 2.104753104319987  10.20784621588217 1.451825782625738 1.948778547685905  10.10650293879604 1.364622251196227 2.098157166450642  10.2278007973906 1.366638204004045 2.100144113222089  10.21070478527804 1.396392610051209 1.934241686476412  10.02916198723676 1.720385710616813 2.013038084891143  10.1343339382761 1.754490659011443 1.930767037585727  10.13659900110318 1.70068314668729 1.911420990124234  10.03079350543319 1.665323105936841 1.998243406054094  10.13856509178087 1.646924925562483 1.891879833941186  10.03207430661722 1.610320886080363 1.983282289679005  10.14042613735607 1.593197940852753 1.872284828333369  10.03323603370873 1.555386887684028 1.968273192691691  10.14232865346718 1.53949183037878 1.8527071255365  10.03443577803979 1.500509332271816 1.953288288554775  10.14441076186029 1.485786306442207 1.833195060084365  10.03582234176071 1.445685574143829 1.938388785002756  10.14680589105507 1.432054670147035 1.813805637428353  10.03757810598724 1.390866608292743 1.923624048672997  10.75551151635523 1.784058705103561 2.005521691742546  10.66061109222855 1.76869702417188 2.074578686285489  10.65284610100074 1.77874381278011 1.94232667488286  10.65721122581665 1.721175515712972 1.932262516866031  10.66675519009116 1.711727372119526 2.070608634821387  10.76072868135851 1.726490711198767 2.000211796981598  10.66137666573213 1.663534562138034 1.922036186763983  10.67276322656562 1.654663424756005 2.066496184760392  10.76579149547398 1.668781152802846 1.994757340295042  10.66552228009309 1.605839979193222 1.911774272835915  10.6787544907778 1.597508533975713 2.062333819161765  10.77085434465547 1.610952555428156 1.98926200563428  10.6697655952806 1.548091564482889 1.901550969768912  10.68481441326139 1.540283814982124 2.058188696267266  10.77601203132772 1.553035935602705 1.98379413644085  10.6741932828901 1.490293748980559 1.891424681755945  10.69100718505469 1.48301231716266 2.054108134434568  10.78133348088108 1.495045813778869 1.978398789696409  10.67884824846661 1.432460021451823 1.881429558759123  10.69736435600483 1.425713587100671 2.050147406311897  10.78688278232497 1.436990526440031 1.973113841042062  10.27152196064401 1.716801932954888 2.300138723315616  10.27699425532111 1.661195147128171 2.304883785151629  10.28232460014057 1.605517142029648 2.309582582328512  10.28759464672217 1.549815811955658 2.314261329287917  10.29290140189602 1.494102782507372 2.318959808634514  10.29831887022975 1.43838533612635 2.323713682689108  10.30388424073986 1.382626064677627 2.328544645217313  10.12187354662648 2.023451590190072 3.113190321454531  10.05827430135474 2.065515669507915 3.195533959213763  9.980611037662829 2.0162215987653 3.141400803845674  9.988370498409887 1.971759910960195 3.168539980758404  10.06600434456413 2.02162620160527 3.22444541938774  10.12847002615854 1.979161503041123 3.140655171703289  9.996150573798641 1.927347483887534 3.19563058799724  10.07372411283473 1.97778436122914 3.253307849381268  10.1350074970474 1.934904716082493 3.168084471699196  10.00393262875889 1.882970244317182 3.222675341051092  10.08142776017558 1.933970432425944 3.282129519465911  10.14150852426371 1.890664219565491 3.195478261015096  10.01170954163524 1.838623739905114 3.249674221574906  10.08912727574698 1.89017566179102 3.310908440231145  10.14800890287883 1.846436468027522 3.222836565778182  10.01947469687073 1.794315355900225 3.276620720292324  10.09683628027408 1.846405892364079 3.339633910360154  10.15454964740501 1.802233145150412 3.25015094053725  10.02720955815926 1.750050411992349 3.303503850016738  10.10454790911452 1.802681232209535 3.368280747747131  10.16116415395965 1.758093633262549 3.277390632281457  10.05156397523807 1.974597703775644 3.047639077427889  10.05817723658448 1.93007154975189 3.073878461769327  10.06476307388691 1.885585550809186 3.100074846986188  10.07133032850467 1.841123387249235 3.12623191894464  10.07789677466032 1.796681034049244 3.152352657845217  10.08448352076774 1.752265632671572 3.178434630702502  10.09110532318362 1.707900888674237 3.204458572132321  10.04026633414281 1.709679861258228 2.418393358256904  9.987577938641103 1.722385719625658 2.494529301737767  9.938043659707755 1.695413937468635 2.376590788778683  9.942655348985683 1.640954270432488 2.382450866959082  9.993022836367262 1.670062497594853 2.507533725106371  10.04577070594899 1.655921042517942 2.4281930857771  9.947051154760715 1.586515068094505 2.388247263837176  9.998321539481406 1.617765609594029 2.520525735666978  10.05108032779657 1.602170531126936 2.437964629223955  9.951358096289303 1.532108548407614 2.394007140034475  10.00355248559587 1.565490855841283 2.533495152939288  10.05630844364171 1.548439213223589 2.447709751062076  9.955658336883801 1.47774785511537 2.399757095528017  10.00877177938712 1.513248580170085 2.546453554644015  10.06154046223057 1.494740011655598 2.457448865884452  9.960034198636817 1.423451998124484 2.405524395905887  10.01403486064783 1.461061492655311 2.559411324239057  10.06686958326793 1.441102704809535 2.467200054657757  9.964623268820157 1.369237084312045 2.411324878249173  10.01945203679638 1.408945418584924 2.572365542167287  10.07243775535158 1.387522075502756 2.476973676774345  10.39163410013394 2.220848143792308 3.342615390556269  10.29005362659952 2.171633129223085 3.297931852941563  10.40551595589035 2.133802160685357 3.223893315908657  10.29630772305541 2.128432824692815 3.330991719975573  10.54184322306077 1.761474902302025 1.997790978445383  10.54634493402915 1.704345486144606 1.988747533058993  10.5506768931671 1.647160600366312 1.979537814448617  10.55497288527846 1.589934312859228 1.970284391304784  10.55933303272696 1.532666885364015 1.961053629195455  10.56382248853327 1.4753673084511 1.951901200978644  10.56850863181401 1.418027365679931 1.942886646125753  10.03984147862216 2.226348394719944 3.421725925985607  10.01193616215183 2.296685405710492 3.520221804026187  9.923518264539888 2.205228622759854 3.434460237061309  9.93490343857925 2.161442049767071 3.467923667333565  10.02395079542228 2.254437363602232 3.558092662096177  10.05001830361192 2.183338746617562 3.456209560147581  9.946356211530489 2.117704904504752 3.501329887556471  10.03596240608238 2.212215437951124 3.59588774419749  10.06019095294298 2.14037309952941 3.490630943499025  9.91345397092762 1.395205801584429 2.565900758577749  10.77124998123129 1.777112260003167 2.098165771029697  10.77679100471132 1.719777174509554 2.095772377205888  10.78216950184065 1.662355720701122 2.093258967679913  10.78755454465316 1.604860002051778 2.090713427689579  10.793029512569 1.547297755613097 2.088199660875326  10.79865448524552 1.489691916020999 2.085764465988298  10.80449346487146 1.432069714388184 2.083429457234092  10.15432643819966 2.267898193265913 3.441424515395341  10.16313133533152 2.225669970576113 3.47791400602106  10.17185551679197 2.183472482602784 3.514333854673995  9.990467581282779 1.700449736213057 2.140763344103793  9.993224154593424 1.644638107774639 2.134876664611916  9.995639219521449 1.588828507326044 2.128845896935446  9.997912819977088 1.533036461030285 2.122751010200489  10.00020136033432 1.477273756273297 2.116658979989209  10.00265864967595 1.421539682918943 2.110630005690222  10.00546763837768 1.365852960936424 2.104720988042745  10.30788342190952 2.268925748011227 3.409665976846699  10.31473181991932 2.226816305518667 3.446494146676161  9.968164468417951 1.439381561231087 2.679171958832253  9.965290017675542 2.084123660553946 3.248528114137088  9.973951186249151 2.040028154593782 3.277659633842597  9.982649893054791 1.995975719606279 3.306745869436092  9.991357724972991 1.951960777068796 3.335786550784805  10.00005960130664 1.907968483725052 3.364782
[...]
<CellData  Scalars="f">
<DataArray  type="Float64"  Name="f"  format="ascii">1 18446744073709551615 18446744073709551615 1 18446744073709551615 18446744073709551615 1 18446744073709551615 18446744073709551615 18446744073709551615 18446744073709551615 18446744073709551615 18446744073709551615 18446744073709551615 18446744073709551615 18446744073709551615 18446744073709551615 1 18446744073709551615 18446744073709551615 18446744073709551615 1 18446744073709551615 18446744073709551615 18446744073709551615 18446744073709551615 1 18446744073709551615 18446744073709551615 18446744073709551615 18446744073709551615 18446744073709551615 18446744073709551615 18446744073709551615 18446744073709551615 18446744073709551615 1 18446744073709551615 18446744073709551615 18446744073709551615 1 18446744073709551615 18446744073709551615 18446744073709551615 1 18446744073709551615 18446744073709551615 18446744073709551615 1 18446744073709551615 18446744073709551615 18446744073709551615 18446744073709551615 18446744073709551615 18446744073709551615 18446744073709551615 18446744073709551615 1 18446744073709551615 18446744073709551615 18446744073709551615 1 18446744073709551615 18446744073709551615 18446744073709551615 1 18446744073709551615 18446744073709551615 18446744073709551615 18446744073709551615 18446744073709551615 18446744073709551615 18446744073709551615 18446744073709551615 18446744073709551615 18446744073709551615 18446744073709551615 18446744073709551615 18446744073709551615 18446744073709551615 18446744073709551615 18446744073709551615 18446744073709551615 18446744073709551615 18446744073709551615 18446744073709551615 18446744073709551615 18446744073709551615 18446744073709551615 18446744073709551615 18446744073709551615 18446744073709551615 18446744073709551615 18446744073709551615 18446744073709551615 18446744073709551615 18446744073709551615 18446744073709551615 18446744073709551615 18446744073709551615 18446744073709551615 18446744073709551615 18446744073709551615 18446744073709551615 18446744073709551615 18446744073709551615 18446744073709551615 18446744073709551615 18446744073709551615 18446744073709551615 18446744073709551615 18446744073709551615 18446744073709551615 18446744073709551615 18446744073709551615 18446744073709551615 18446744073709551615 18446744073709551615 18446744073709551615 18446744073709551615 18446744073709551615 18446744073709551615 18446744073709551615 18446744073709551615 18446744073709551615 18446744073709551615 18446744073709551615 18446744073709551615 18446744073709551615 18446744073709551615 18446744073709551615 18446744073709551615 18446744073709551615 18446744073709551615 18446744073709551615 18446744073709551615 18446744073709551615 18446744073709551615 18446744073709551615 18446744073709551615 18446744073709551615 18446744073709551615 18446744073709551615 18446744073709551615 18446744073709551615 18446744073709551615 18446744073709551615 18446744073709551615 18446744073709551615 18446744073709551615 18446744073709551615 18446744073709551615 18446744073709551615 18446744073709551615 18446744073709551615 18446744073709551615 18446744073709551615 18446744073709551615 18446744073709551615 18446744073709551615 18446744073709551615 18446744073709551615 18446744073709551615 18446744073709551615 18446744073709551615 18446744073709551615 18446744073709551615 18446744073709551615 18446744073709551615 18446744073709551615 18446744073709551615 18446744073709551615 18446744073709551615 18446744073709551615 18446744073709551615 18446744073709551615 18446744073709551615 18446744073709551615 18446744073709551615 18446744073709551615 18446744073709551615 18446744073709551615 18446744073709551615 18446744073709551615 18446744073709551615 18446744073709551615 18446744073709551615 18446744073709551615 18446744073709551615 18446744073709551615 18446744073709551615 18446744073709551615 18446744073709551615 18446744073709551615 18446744073709551615 18446744073709551615 18446744073709551615 18446744073709551615 18446744073709551615 18446744073709551615 18446744073709551615 18446744073709551615 18446744073709551615 18446744073709551615 18446744073709551615 18446744073709551615 18446744073709551615 18446744073709551615 18446744073709551615 18446744073709551615 18446744073709551615 18446744073709551615 18446744073709551615 18446744073709551615 18446744073709551615 18446744073709551615 18446744073709551615 18446744073709551615 18446744073709551615 18446744073709551615 18446744073709551615 18446744073709551615 18446744073709551615 18446744073709551615 18446744073709551615 18446744073709551615 18446744073709551615 18446744073709551615 18446744073709551615 18446744073709551615 18446744073709551615 18446744073709551615 18446744073709551615 18446744073709551615 18446744073709551615 18446744073709551615 18446744073709551615 18446744073709551615 18446744073709551615 18446744073709551615 18446744073709551615 18446744073709551615 18446744073709551615 18446744073709551615 18446744073709551615 18446744073709551615 18446744073709551615 18446744073709551615 18446744073709551615 18446744073709551615 18446744073709551615 18446744073709551615 18446744073709551615 18446744073709551615 18446744073709551615 18446744073709551615 18446744073709551615 18446744073709551615 18446744073709551615 18446744073709551615 18446744073709551615 18446744073709551615 18446744073709551615 18446744073709551615 18446744073709551615 18446744073709551615 18446744073709551615 18446744073709551615 18446744073709551615 18446744073709551615 18446744073709551615 18446744073709551615 18446744073709551615 18446744073709551615 18446744073709551615 18446744073709551615 18446744073709551615 18446744073709551615 18446744073709551615 18446744073709551615 18446744073709551615 18446744073709551615 18446744073709551615 18446744073709551615 18446744073709551615 18446744073709551615 18446744073709551615 18446744073709551615 18446744073709551615 18446744073709551615 18446744073709551615 18446744073709551615 18446744073709551615 18446744073709551615 18446744073709551615 18446744073709551615 18446744073709551615 18446744073709551615 18446744073709551615 18446744073709551615 18446744073709551615 18446744073709551615 18446744073709551615 18446744073709551615 18446744073709551615 18446744073709551615 18446744073709551615 18446744073709551615 18446744073709551615 18446744073709551615 18446744073709551615 18446744073709551615 18446744073709551615 18446744073709551615 18446744073709551615 18446744073709551615 18446744073709551615 18446744073709551615 18446744073709551615 18446744073709551615 18446744073709551615 18446744073709551615 18446744073709551615 18446744073709551615 18446744073709551615 18446744073709551615 18446744073709551615 18446744073709551615 18446744073709551615 18446744073709551615 18446744073709551615 18446744073709551615 18446744073709551615 18446744073709551615 18446744073709551615 18446744073709551615 18446744073709551615 18446744073709551615 18446744073709551615 18446744073709551615 18446744073709551615 18446744073709551615 18446744073709551615 18446744073709551615 18446744073709551615 18446744073709551615 18446744073709551615 18446744073709551615 18446744073709551615 18446744073709551615 18446744073709551615 18446744073709551615 18446744073709551615 18446744073709551615 18446744073709551615 18446744073709551615 18446744073709551615 18446744073709551615 18446744073709551615 18446744073709551615 18446744073709551615 18446744073709551615 18446744073709551615 18446744073709551615 18446744073709551615 18446744073709551615 18446744073709551615 18446744073709551615 18446744073709551615 18446744073709551615 18446744073709551615 18446744073709551615 18446744073709551615 18446744073709551615 18446744073709551615 18446744073709551615 18446744073709551615 18446744073709551615 18446744073709551615 18446744073709551615 18446744073709551615 18446744073709551615 18446744073709551615 18446744073709551615 18446744073709551615 18446744073709551615 18446744073709551615 18446744073709551615 18446744073709551615 18446744073709551615 18446744073709551615 18446744073709551615 18446744073709551615 18446744073709551615 18446744073709551615 18446744073709551615 18446744073709551615 18446744073709551615 18446744073709551615 18446744073709551615 18446744073709551615 18446744073709551615 18446744073709551615 18446744073709551615 18446744073709551615 18446744073709551615 18446744073709551615 18446744073709551615 18446744073709551615 5 5 18446744073709551615 5 18446744073709551615 18446744073709551615 5 5 5 5 5 5 5 18446744073709551615 18446744073709551615 5 5 5 1 18446744073709551615 18446744073709551615 1 18446744073709551615 18446744073709551615 1 18446744073709551615 18446744073709551615 18446744073709551615 18446744073709551615 18446744073709551615 18446744073709551615 18446744073709551615 18446744073709551615 18446744073709551615 18446744073709551615 18446744073709551615 1 18446744073709551615 18446744073709551615 18446744073709551615 1 18446744073709551615 18446744073709551615 18446744073709551615 18446744073709551615 1 18446744073709551615 18446744073709551615 18446744073709551615 1 18446744073709551615 18446744073709551615 18446744073709551615 18446744073709551615 1 18446744073709551615 18446744073709551615 18446744073709551615 18446744073709551615 18446744073709551615 18446744073709551615 18446744073709551615 1 18446744073709551615 1 18446744073709551615 18446744073709551615 18446744073709551615 18446744073709551615 18446744073709551615 18446744073709551615 18446744073709551615 18446744073709551615 18446744073709551615 18446744073709551615 1 18446744073709551615 18446744073709551615 18446744073709551615 1 18446744073709551615 18446744073709551615 18446744073709551615 1 18446744073709551615 18446744073709551615 18446744073709551615 18446744073709551615 18446744073709551615 18446744073709551615 18446744073709551615 18446744073709551615 18446744073709551615 18446744073709551615 18446744073709551615 18446744073709551615 18446744073709551615 18446744073709551615 18446744073709551615 18446744073709551615 18446744073709551615 18446744073709551615 18446744073709551615 18446744073709551615 18446744073709551615 18446744073709551615 18446744073709551615 18446744073709551615 18446744073709551615 18446744073709551615 18446744073709551615 18446744073709551615 18446744073709551615 18446744073709551615 18446744073709551615 18446744073709551615 18446744073709551615 18446744073709551615 18446744073709551615 18446744073709551615 18446744073709551615 18446744073709551615 18446744073709551615 18446744073709551615 18446744073709551615 18446744073709551615 18446744073709551615 18446744073709551615 18446744073709551615 18446744073709551615 18446744073709551615 18446744073709551615 18446744073709551615 18446744073709551615 18446744073709551615 18446744073709551615 18446744073709551615 18446744073709551615 18446744073709551615 18446744073709551615 18446744073709551615 18446744073709551615 18446744073709551615 18446744073709551615 18446744073709551615 18446744073709551615 18446744073709551615 18446744073709551615 18446744073709551615 18446744073709551615 18446744073709551615 18446744073709551615 18446744073709551615 18446744073709551615 18446744073709551615 18446744073709551615 18446744073709551615 18446744073709551615 18446744073709551615 18446744073709551615 18446744073709551615 18446744073709551615 18446744073709551615 18446744073709551615 18446744073709551615 18446744073709551615 18446744073709551615 18446744073709551615 18446744073709551615 18446744073709551615 18446744073709551615 18446744073709551615 18446744073709551615 18446744073709551615 18446744073709551615 18446744073709551615 18446744073709551615 18446744073709551615 18446744073709551615 18446744073709551615 18446744073709551615 18446744073709551615 18446744073709551615 18446744073709551615 18446744073709551615 18446744073709551615 18446744073709551615 18446744073709551615 18446744073709551615 18446744073709551615 18446744073709551615 18446744073709551615 18446744073709551615 18446744073709551615 18446744073709551615 18446744073709551615 18446744073709551615 18446744073709551615 18446744073709551615 18446744073709551615 18446744073709551615 18446744073709551615 18446744073709551615 18446744073709551615 18446744073709551615 18446744073709551615 18446744073709551615 18446744073709551615 18446744073709551615 18446744073709551615 18446744073709551615 18446744073709551615 18446744073709551615 18446744073709551615 18446744073709551615 18446744073709551615 18446744073709551615 18446744073709551615 18446744073709551615 18446744073709551615 18446744073709551615 18446744073709551615 18446744073709551615 18446744073709551615 18446744073709551615 18446744073709551615 18446744073709551615 18446744073709551615 18446744073709551615 18446744073709551615 18446744073709551615 18446744073709551615 18446744073709551615 18446744073709551615 18446744073709551615 18446744073709551615 18446744073709551615 18446744073709551615 18446744073709551615 18446744073709551615 18446744073709551615 18446744073709551615 18446744073709551615 18446744073709551615 18446744073709551615 18446744073709551615 18446744073709551615 18446744073709551615 18446744073709551615 18446744073709551615 18446744073709551615 18446744073709551615 18446744073709551615 18446744073709551615 18446744073709551615 18446744073709551615 18446744073709551615 18446744073709551615 18446744073709551615 18446744073709551615 18446744073709551615 18446744073709551615 18446744073709551615 18446744073709551615 18446744073709551615 18446744073709551615 18446744073709551615 18446744073709551615 18446744073709551615 18446744073709551615 18446744073709551615 18446744073709551615 18446744073709551615 18446744073709551615 18446744073709551615 18446744073709551615 18446744073709551615 18446744073709551615 18446744073709551615 18446744073709551615 18446744073709551615 18446744073709551615 18446744073709551615 18446744073709551615 18446744073709551615 18446744073709551615 18446744073709551615 18446744073709551615 18446744073709551615 18446744073709551615 18446744073709551615 18446744073709551615 18446744073709551615 18446744073709551615 18446744073709551615 18446744073709551615 18446744073709551615 18446744073709551615 18446744073709551615 18446744073709551615 18446744073709551615 18446744073709551615 18446744073709551615 18446744073709551615 18446744073709551615 18446744073709551615 18446744073709551615 18446744073709551615 18446744073709551615 18446744073709551615 18446744073709551615 18446744073709551615 18446744073709551615 18446744073709551615 18446744073709551615 18446744073709551615 18446744073709551615 18446744073709551615 18446744073709551615 18446744073709551615 18446744073709551615 18446744073709551615 18446744073709551615 18446744073709551615 18446744073709551615 18446744073709551615 18446744073709551615 18446744073709551615 18446744073709551615 18446744073709551615 18446744073709551615 18446744073709551615 18446744073709551615 18446744073709551615 18446744073709551615 18446744073709551615 18446744073709551615 18446744073709551615 18446744073709551615 18446744073709551615 18446744073709551615 18446744073709551615 18446744073709551615 18446744073709551615 18446744073709551615 18446744073709551615 18446744073709551615 18446744073709551615 18446744073709551615 18446744073709551615 18446744073709551615 18446744073709551615 18446744073709551615 18446744073709551615 18446744073709551615 18446744073709551615 18446744073709551615 18446744073709551615 18446744073709551615 18446744073709551615 18446744073709551615 18446744073709551615 18446744073709551615 18446744073709551615 18446744073709551615 18446744073709551615 18446744073709551615 18446744073709551615 18446744073709551615 18446744073709551615 18446744073709551615 18446744073709551615 18446744073709551615 18446744073709551615 18446744073709551615 18446744073709551615 18446744073709551615 18446744073709551615 18446744073709551615 18446744073709551615 18446744073709551615 18446744073709551615 18446744073709551615 18446744073709551615 18446744073709551615 18446744073709551615 18446744073709551615 18446744073709551615 18446744073709551615 18446744073709551615 18446744073709551615 18446744073709551615 18446744073709551615 18446744073709551615 18446744073709551615 18446744073709551615 18446744073709551615 18446744073709551615 18446744073709551615 18446744073709551615 18446744073709551615 18446744073709551615 18446744073709551615 18446744073709551615 18446744073709551615 18446744073709551615 18446744073709551615 18446744073709551615 18446744073709551615 18446744073709551615 18446744073709551615 18446744073709551615 18446744073709551615 18446744073709551615 18446744073709551615 18446744073709551615 18446744073709551615 18446744073709551615 18446744073709551615 18446744073709551615 18446744073709551615 18446744073709551615 18446744073709551615 18446744073709551615 18446744073709551615 18446744073709551615 18446744073709551615 18446744073709551615 18446744073709551615 18446744073709551615 18446744073709551615 18446744073709551615 5 5 5 5 5 5 5 5 5 5 5 5 5 18446744073709551615 1 18446744073709551615 18446744073709551615 18446744073709551615 18446744073709551615 18446744073709551615 18446744073709551615 18446744073709551615 18446744073709551615 1 18446744073709551615 18446744073709551615 1 18446744073709551615 18446744073709551615 18446744073709551615 1 18446744073709551615 18446744073709551615 18446744073709551615 18446744073709551615 18446744073709551615 18446744073709551615 18446744073709551615 18446744073709551615 1 18446744073709551615 18446744073709551615 18446744073709551615 1 18446744073709551615 18446744073709551615 18446744073709551615 18446744073709551615 18446744073709551615 18446744073709551615 18446744073709551615 18446744073709551615 18446744073709551615 18446744073709551615 18446744073709551615 18446744073709551615 18446744073709551615 18446744073709551615 18446744073709551615 18446744073709551615 18446744073709551615 18446744073709551615 18446744073709551615 18446744073709551615 18446744073709551615 18446744073709551615 18446744073709551615 18446744073709551615 18446744073709551615 18446744073709551615 18446744073709551615 18446744073709551615 18446744073709551615 18446744073709551615 18446744073709551615 18446744073709551615 18446744073709551615 18446744073709551615 18446744073709551615 18446744073709551615 18446744073709551615 18446744073709551615 18446744073709551615 18446744073709551615 18446744073709551615 18446744073709551615 18446744073709551615 18446744073709551615 18446744073709551615 18446744073709551615 18446744073709551615 18446744073709551615 18446744073709551615 18446744073709551615 18446744073709551615 18446744073709551615 18446744073709551615 18446744073709551615 18446744073709551615 18446744073709551615 18446744073709551615 18446744073709551615 18446744073709551615 18446744073709551615 18446744073709551615 18446744073709551615 18446744073709551615 18446744073709551615 18446744073709551615 18446744073709551615 18446744073709551615 18446744073709551615 18446744073709551615 18446744073709551615 18446744073709551615 18446744073709551615 18446744073709551615 18446744073709551615 18446744073709551615 18446744073709551615 18446744073709551615 18446744073709551615 18446744073709551615 18446744073709551615 18446744073709551615 18446744073709551615 18446744073709551615 18446744073709551615 18446744073709551615 18446744073709551615 18446744073709551615 18446744073709551615 18446744073709551615 18446744073709551615 18446744073709551615 18446744073709551615 18446744073709551615 18446744073709551615 18446744073709551615 18446744073709551615 18446744073709551615 18446744073709551615 18446744073709551615 18446744073709551615 18446744073709551615 18446744073709551615 18446744073709551615 18446744073709551615 18446744073709551615 18446744073709551615 18446744073709551615 18446744073709551615 18446744073709551615 18446744073709551615 18446744073709551615 18446744073709551615 18446744073709551615 18446744073709551615 18446744073709551615 18446744073709551615 1844