<?xml version="1.0"?>
<VTKFile type="UnstructuredGrid"  version="0.1"  >
<UnstructuredGrid>
<Piece  NumberOfPoints="971" NumberOfCells="8715">
<Points>
<DataArray  type="Float64"  NumberOfComponents="3"  format="ascii">11.34256211003533 2.559963610454043 3.662915467942084  11.23041676328445 2.651653979168271 3.732827329951541  11.22654493170889 2.522080549939639 3.633936557215388  11.2271424548698 2.477950412016679 3.68647644053894  11.2316603871206 2.61342959716206 3.792986449823797  11.34344321932059 2.516540269140279 3.719197409562518  11.22683132920075 2.433268100843837 3.739509264215929  11.23210012896514 2.574863378073209 3.853805701071212  11.34349062990687 2.472472411856851 3.776051356920952  11.22632456455674 2.38806773681234 3.793078386235965  11.2324778456343 2.535774501879789 3.915195505496533  11.34338486626016 2.427893090400786 3.833572194690457  11.22595042096629 2.342372571446584 3.847169088995505  11.23306406960327 2.496233284094554 3.977182685592514  11.34336844321755 2.382831595205946 3.891820545401331  11.22588065665453 2.296166667219494 3.901752853016943  11.23407283180669 2.456215594717369 4.039769359013426  11.34360242476936 2.337248358748571 3.950832103395797  11.22636577811407 2.24940938010779 3.956835608451353  11.23579182069453 2.415617451933174 4.102895289599583  11.34433312903732 2.290924857888474 4.010715215094062  11.45017313350942 2.916924176512455 3.83578465703532  11.35592941900119 3.012875163010499 3.868285342044679  11.32664056721734 2.875209698350337 3.836812574918075  11.33154950168484 2.854299117138548 3.909020417914622  11.35971225008262 3.000459966062045 3.944533165793009  11.45315473437145 2.897308470834177 3.910023945454036  11.36306823277795 2.988143880511002 4.02141497589185  11.45561067174809 2.877287746080698 3.985203530891194  11.33601889371579 2.833174190201677 3.982113193773494  11.3663791788716 2.975590429717057 4.098924824119757  11.45782756665671 2.857071986891709 4.061257779094712  11.3402682997464 2.811794640376938 4.055866118100417  11.46001907804282 2.83669533639754 4.138080236025102  11.36991102595112 2.962672641634218 4.177255120840473  11.3445918043419 2.790083880484417 4.130277602418792  11.46252851047075 2.8159742797214 4.215786302428707  11.37390045941859 2.949499343180149 4.256304052496713  11.34930354527794 2.767986808706764 4.205469180081297  11.46549816718832 2.795067643106027 4.294536613596675  11.37854670792716 2.935950973824475 4.336258616164265  11.35501712784644 2.745517699430303 4.28152410317271  11.22985479022653 3.026625669198073 3.876304859304197  11.23335453612093 3.018413052135011 3.95146254081644  11.23627828083607 3.010526565785237 4.027429970613115  11.23921129221637 3.002344781110382 4.104050438440328  11.24234667037797 2.99384081514369 4.18127299065784  11.24587211410469 2.984989219893052 4.258998770081665  11.25008938314555 2.975803801660739 4.33712249278377  11.1218940323388 3.044060303420383 3.880338226641348  11.19743606152493 2.924460951123327 3.863682866623614  11.19839064254816 2.908150089363812 3.936746556067799  11.11958296308339 3.036435215624464 3.954473491081779  11.19882496566886 2.891867390446864 4.01059760425292  11.11660193799984 3.029139747688169 4.029263928522287  11.19925044920103 2.87526957583677 4.085059397090249  11.11357531471332 3.021541592705498 4.104690842319654  11.19988870878425 2.858295727640284 4.16008789451013  11.11076467463587 3.013622769508598 4.180608982433681  11.201007441164 2.840968084861712 4.23563275831653  11.10833633596535 3.005385522218571 4.256904058196389  11.20285678337005 2.823324772528568 4.3115682968244  11.10640862693329 2.996835461749688 4.333431198721572  10.63466443309029 2.40110381633999 3.522723604796444  10.54725485047735 2.328993176542256 3.450128961523271  10.65740971157491 2.331263174391724 3.447750906643321  10.65785089364024 2.287970157534074 3.487698234413719  10.54902029292025 2.28633373622652 3.489751002849701  10.63481157850055 2.358947290965796 3.565806856580581  10.65771707645725 2.244525559934601 3.527690075171925  10.55032837056613 2.243588427443266 3.529381311506091  10.6343954821987 2.316676178983172 3.608932732674373  10.65738080905151 2.200892769570538 3.567713869408353  10.55144453506648 2.200720867997409 3.56901262536094  10.6337735883993 2.274234879891481 3.652088994909125  10.6571158270118 2.15708596171349 3.607770717177103  10.55261053759159 2.157727734358333 3.608629661761074  10.63321382074632 2.231625019926884 3.695274829941322  10.65714739735403 2.113133706437825 3.647882742113115  10.55402582199866 2.114645491168501 3.64824275701149  10.63294322088776 2.188865959600459 3.738510037514444  10.65769410288581 2.069062217600059 3.688092116352069  10.55592177287646 2.071504096343644 3.687875979450851  10.63319915499756 2.145966031957449 3.781832817129321  10.55628298005653 2.461316273715987 3.577027574823821  10.4831908517984 2.393471218342823 3.521098624464123  10.4857741404746 2.352520911544397 3.56380890360632  10.55723405817466 2.421283787296829 3.62283059818201  10.48794745811372 2.31151189872338 3.606511335892026  10.55768977446951 2.381185206872638 3.668652176921114  10.48994243107649 2.270408226064786 3.649200257331383  10.55794112602073 2.340949388052442 3.714483280270574  10.49197264968439 2.229196423413705 3.691857099826545  10.55822296253674 2.300573920768089 3.760317827225499  10.49421564570415 2.187913732434148 3.734486920285571  10.55873931681514 2.260094025655073 3.806159976305058  10.49689500404515 2.146617499675637 3.777100297460225  10.55973739471617 2.219555662144724 3.852020197454712  11.57694427130069 2.701959091411587 3.752444259497754  11.47891133233145 2.801560487550037 3.802305400844375  11.4681068195285 2.666909767148381 3.727083072094366  11.46729900872911 2.628688596814997 3.79086973838677  11.48068461839901 2.772353385882574 3.873380243952731  11.57537676465182 2.66571202929006 3.820491479202544  11.46609878518946 2.589401289770934 3.855203135081244  11.48191061046881 2.742370276458251 3.945036950091243  11.57371471728053 2.628569706782815 3.889309454882811  11.46510942643102 2.549622921309886 3.920395344389827  11.48317650644342 2.712203333444647 4.017435215938757  11.57238650508054 2.591025730560782 3.959005713009034  11.46435398105588 2.509649526574528 3.986459618830391  11.48449533496621 2.682096363835602 4.090695092559328  11.57143320208519 2.553492742389152 4.029612451278301  11.46380237222378 2.469511492739694 4.053396345840538  11.48589744362979 2.65177477402838 4.16485433866134  11.5704755094579 2.516051296199172 4.101034832687248  11.46342109662802 2.429156188136206 4.121480014072626  11.48785497134932 2.62092575890281 4.240049610454774  11.56950800317497 2.479180568419862 4.173686503933427  10.96015102626148 2.24476764532159 3.332605193699599  10.97133608475358 2.322232570414888 3.433243688480085  10.84736047586136 2.307854493063652 3.419897571549045  10.8478539060525 2.261469225959241 3.457705095317975  10.97190275004993 2.274791339147167 3.471971296781261  10.961627470762 2.196237782197406 3.36684059158195  10.84770464895464 2.214763217281008 3.495599772600215  10.971744257335 2.226916406948251 3.510789863764705  10.96248731883501 2.147317546381259 3.40102806037566  10.8473630509282 2.167754688386741 3.533593215156777  10.9713955416401 2.178658997693599 3.549780335531479  10.96316503121099 2.098057327643328 3.435368844408428  10.84713309123 2.120477544992053 3.571726116257813  10.97116780009625 2.130061638338414 3.588994675138483  10.96399275209431 2.048499342029388 3.469913123096842  10.84725050838665 2.07297060663925 3.610045757742301  10.97129518916429 2.081147600919325 3.628471237363068  10.96518550871988 1.998674646843764 3.504712023718087  10.84788935941648 2.025211585293154 3.648538077144551  10.97195212359921 2.031895946477884 3.668234072404974  10.9668445590167 1.948553711790464 3.539747262858032  11.09532023212082 2.915439758791479 3.856958806819461  11.09112934661492 2.896934617578685 3.927673317017779  11.08615049321809 2.878476756298743 3.999220314523061  11.08113753373887 2.859777246868817 4.071288214398636  11.0763021363637 2.840720248585022 4.143810679754251  11.07182909956799 2.821319100158869 4.216742777197508  11.06783571356518 2.801610614099016 4.290052308863984  11.111338661408 2.603931407627285 3.700937210508366  11.11138103402832 2.564032907316586 3.756854141223573  11.11052572833579 2.52376115782404 3.813473377042377  11.10948837291228 2.48303511169377 3.870539337136218  11.10861516077439 2.441856626335174 3.92804459477413  11.1081262961732 2.400200922708723 3.985974142754576  11.10831548248506 2.357954111550768 4.04435073136652  10.82814780794954 2.237862688789833 3.328222401293788  10.82964544145707 2.191038008919653 3.362501003677856  10.83055738557071 2.143863802310904 3.396802763311708  10.8312788820499 2.096422361662588 3.431178772507587  11.34711222588896 3.125502288126574 3.875353960343597  11.22673002907236 3.177930931417255 3.887121552248308  11.22971001043798 3.179119851232588 3.963879870338087  11.35204391653452 3.124127405397821 3.952728785618473  11.23222857827469 3.180646150449876 4.041434083969869  11.35667077794471 3.122992841876151 4.031007269388716  11.23488067840873 3.181947927377417 4.119538649159544  11.36139073162702 3.121656749519426 4.109976076527269  11.2377756742007 3.182972219798195 4.198169367651423  11.36633527582819 3.120105591611802 4.189550292673322  11.24107425390007 3.183676113235569 4.277322800640301  11.37166941232595 3.118322870106639 4.269763176705788  11.2449656447581 3.183972191623649 4.356978592369575  11.37766425104687 3.116215873987768 4.350706065646009  11.47206802735888 3.281571553081779 3.858209434965001  11.34074641460891 3.387181987332938 3.84588647698514  11.35500450917771 3.238260676811364 3.872873545626046  11.36156460657662 3.245856584399645 3.95084202431302  11.34706285000672 3.407076371554694 3.922010706913197  11.47947433031264 3.292928636974558 3.937640768831663  11.48685856854962 3.30430084716357 4.017578788165071  11.35299796752
[...]
<CellData  Scalars="f">
<DataArray  type="Float64"  Name="f"  format="ascii">1 18446744073709551615 18446744073709551615 1 18446744073709551615 18446744073709551615 1 18446744073709551615 18446744073709551615 18446744073709551615 18446744073709551615 18446744073709551615 18446744073709551615 18446744073709551615 18446744073709551615 18446744073709551615 18446744073709551615 1 18446744073709551615 18446744073709551615 1 18446744073709551615 18446744073709551615 18446744073709551615 18446744073709551615 18446744073709551615 1 18446744073709551615 18446744073709551615 18446744073709551615 18446744073709551615 1 18446744073709551615 18446744073709551615 18446744073709551615 18446744073709551615 18446744073709551615 18446744073709551615 18446744073709551615 18446744073709551615 18446744073709551615 1 18446744073709551615 18446744073709551615 18446744073709551615 1 18446744073709551615 1 18446744073709551615 18446744073709551615 18446744073709551615 1 18446744073709551615 18446744073709551615 18446744073709551615 18446744073709551615 18446744073709551615 18446744073709551615 18446744073709551615 18446744073709551615 18446744073709551615 18446744073709551615 1 18446744073709551615 18446744073709551615 18446744073709551615 1 18446744073709551615 18446744073709551615 18446744073709551615 1 18446744073709551615 18446744073709551615 18446744073709551615 18446744073709551615 18446744073709551615 18446744073709551615 18446744073709551615 18446744073709551615 18446744073709551615 18446744073709551615 18446744073709551615 18446744073709551615 18446744073709551615 18446744073709551615 18446744073709551615 18446744073709551615 18446744073709551615 18446744073709551615 18446744073709551615 18446744073709551615 18446744073709551615 18446744073709551615 18446744073709551615 18446744073709551615 18446744073709551615 18446744073709551615 18446744073709551615 18446744073709551615 18446744073709551615 18446744073709551615 18446744073709551615 18446744073709551615 18446744073709551615 18446744073709551615 18446744073709551615 18446744073709551615 18446744073709551615 18446744073709551615 18446744073709551615 18446744073709551615 18446744073709551615 18446744073709551615 18446744073709551615 18446744073709551615 18446744073709551615 18446744073709551615 18446744073709551615 18446744073709551615 18446744073709551615 18446744073709551615 18446744073709551615 18446744073709551615 18446744073709551615 18446744073709551615 18446744073709551615 18446744073709551615 18446744073709551615 18446744073709551615 18446744073709551615 18446744073709551615 18446744073709551615 18446744073709551615 18446744073709551615 18446744073709551615 18446744073709551615 18446744073709551615 18446744073709551615 18446744073709551615 18446744073709551615 18446744073709551615 18446744073709551615 18446744073709551615 18446744073709551615 18446744073709551615 18446744073709551615 18446744073709551615 18446744073709551615 18446744073709551615 18446744073709551615 18446744073709551615 18446744073709551615 18446744073709551615 18446744073709551615 18446744073709551615 18446744073709551615 18446744073709551615 18446744073709551615 18446744073709551615 18446744073709551615 18446744073709551615 18446744073709551615 18446744073709551615 18446744073709551615 18446744073709551615 18446744073709551615 18446744073709551615 18446744073709551615 18446744073709551615 18446744073709551615 18446744073709551615 18446744073709551615 18446744073709551615 18446744073709551615 18446744073709551615 18446744073709551615 18446744073709551615 18446744073709551615 18446744073709551615 18446744073709551615 18446744073709551615 18446744073709551615 18446744073709551615 18446744073709551615 18446744073709551615 18446744073709551615 18446744073709551615 18446744073709551615 18446744073709551615 18446744073709551615 18446744073709551615 18446744073709551615 18446744073709551615 18446744073709551615 18446744073709551615 18446744073709551615 18446744073709551615 18446744073709551615 18446744073709551615 18446744073709551615 18446744073709551615 18446744073709551615 18446744073709551615 18446744073709551615 18446744073709551615 18446744073709551615 18446744073709551615 18446744073709551615 18446744073709551615 18446744073709551615 18446744073709551615 18446744073709551615 18446744073709551615 18446744073709551615 18446744073709551615 18446744073709551615 18446744073709551615 18446744073709551615 18446744073709551615 18446744073709551615 18446744073709551615 18446744073709551615 18446744073709551615 18446744073709551615 18446744073709551615 18446744073709551615 18446744073709551615 18446744073709551615 18446744073709551615 18446744073709551615 18446744073709551615 18446744073709551615 18446744073709551615 18446744073709551615 18446744073709551615 18446744073709551615 18446744073709551615 18446744073709551615 18446744073709551615 18446744073709551615 18446744073709551615 18446744073709551615 18446744073709551615 18446744073709551615 18446744073709551615 18446744073709551615 18446744073709551615 18446744073709551615 18446744073709551615 18446744073709551615 18446744073709551615 18446744073709551615 18446744073709551615 18446744073709551615 18446744073709551615 18446744073709551615 18446744073709551615 18446744073709551615 18446744073709551615 18446744073709551615 18446744073709551615 18446744073709551615 18446744073709551615 18446744073709551615 18446744073709551615 18446744073709551615 18446744073709551615 18446744073709551615 18446744073709551615 18446744073709551615 18446744073709551615 18446744073709551615 18446744073709551615 18446744073709551615 18446744073709551615 18446744073709551615 18446744073709551615 18446744073709551615 18446744073709551615 18446744073709551615 18446744073709551615 18446744073709551615 18446744073709551615 18446744073709551615 18446744073709551615 18446744073709551615 18446744073709551615 18446744073709551615 18446744073709551615 18446744073709551615 18446744073709551615 18446744073709551615 18446744073709551615 18446744073709551615 18446744073709551615 18446744073709551615 18446744073709551615 18446744073709551615 18446744073709551615 18446744073709551615 18446744073709551615 18446744073709551615 18446744073709551615 18446744073709551615 18446744073709551615 18446744073709551615 18446744073709551615 18446744073709551615 18446744073709551615 18446744073709551615 18446744073709551615 18446744073709551615 18446744073709551615 18446744073709551615 18446744073709551615 18446744073709551615 18446744073709551615 18446744073709551615 18446744073709551615 18446744073709551615 18446744073709551615 18446744073709551615 18446744073709551615 18446744073709551615 18446744073709551615 18446744073709551615 18446744073709551615 18446744073709551615 18446744073709551615 18446744073709551615 18446744073709551615 18446744073709551615 18446744073709551615 18446744073709551615 18446744073709551615 18446744073709551615 18446744073709551615 18446744073709551615 18446744073709551615 18446744073709551615 18446744073709551615 18446744073709551615 18446744073709551615 18446744073709551615 18446744073709551615 18446744073709551615 18446744073709551615 18446744073709551615 18446744073709551615 18446744073709551615 18446744073709551615 18446744073709551615 18446744073709551615 18446744073709551615 18446744073709551615 18446744073709551615 18446744073709551615 18446744073709551615 18446744073709551615 18446744073709551615 18446744073709551615 18446744073709551615 18446744073709551615 18446744073709551615 18446744073709551615 18446744073709551615 18446744073709551615 18446744073709551615 18446744073709551615 18446744073709551615 18446744073709551615 18446744073709551615 18446744073709551615 18446744073709551615 18446744073709551615 18446744073709551615 18446744073709551615 18446744073709551615 18446744073709551615 18446744073709551615 18446744073709551615 18446744073709551615 18446744073709551615 18446744073709551615 18446744073709551615 18446744073709551615 18446744073709551615 18446744073709551615 18446744073709551615 18446744073709551615 18446744073709551615 18446744073709551615 18446744073709551615 18446744073709551615 18446744073709551615 18446744073709551615 18446744073709551615 18446744073709551615 18446744073709551615 18446744073709551615 18446744073709551615 18446744073709551615 18446744073709551615 18446744073709551615 18446744073709551615 18446744073709551615 18446744073709551615 18446744073709551615 18446744073709551615 18446744073709551615 18446744073709551615 18446744073709551615 18446744073709551615 18446744073709551615 18446744073709551615 18446744073709551615 18446744073709551615 18446744073709551615 18446744073709551615 18446744073709551615 18446744073709551615 18446744073709551615 18446744073709551615 18446744073709551615 18446744073709551615 18446744073709551615 18446744073709551615 18446744073709551615 18446744073709551615 18446744073709551615 18446744073709551615 18446744073709551615 18446744073709551615 18446744073709551615 18446744073709551615 18446744073709551615 18446744073709551615 18446744073709551615 18446744073709551615 5 18446744073709551615 5 5 18446744073709551615 18446744073709551615 5 5 5 5 18446744073709551615 18446744073709551615 5 5 5 5 5 5 5 1 18446744073709551615 18446744073709551615 1 18446744073709551615 18446744073709551615 1 18446744073709551615 18446744073709551615 18446744073709551615 18446744073709551615 18446744073709551615 18446744073709551615 18446744073709551615 18446744073709551615 18446744073709551615 18446744073709551615 1 18446744073709551615 18446744073709551615 18446744073709551615 1 18446744073709551615 18446744073709551615 18446744073709551615 18446744073709551615 1 18446744073709551615 18446744073709551615 18446744073709551615 18446744073709551615 18446744073709551615 18446744073709551615 18446744073709551615 1 18446744073709551615 18446744073709551615 18446744073709551615 1 18446744073709551615 18446744073709551615 18446744073709551615 18446744073709551615 18446744073709551615 18446744073709551615 18446744073709551615 18446744073709551615 18446744073709551615 1 18446744073709551615 18446744073709551615 18446744073709551615 1 18446744073709551615 18446744073709551615 18446744073709551615 1 18446744073709551615 18446744073709551615 18446744073709551615 1 18446744073709551615 18446744073709551615 18446744073709551615 18446744073709551615 18446744073709551615 18446744073709551615 18446744073709551615 18446744073709551615 18446744073709551615 18446744073709551615 18446744073709551615 18446744073709551615 18446744073709551615 18446744073709551615 18446744073709551615 18446744073709551615 18446744073709551615 18446744073709551615 18446744073709551615 18446744073709551615 18446744073709551615 18446744073709551615 18446744073709551615 18446744073709551615 18446744073709551615 18446744073709551615 18446744073709551615 18446744073709551615 18446744073709551615 18446744073709551615 18446744073709551615 18446744073709551615 18446744073709551615 18446744073709551615 18446744073709551615 18446744073709551615 18446744073709551615 18446744073709551615 18446744073709551615 18446744073709551615 18446744073709551615 18446744073709551615 18446744073709551615 18446744073709551615 18446744073709551615 18446744073709551615 18446744073709551615 18446744073709551615 18446744073709551615 18446744073709551615 18446744073709551615 18446744073709551615 18446744073709551615 18446744073709551615 18446744073709551615 18446744073709551615 18446744073709551615 18446744073709551615 18446744073709551615 18446744073709551615 18446744073709551615 18446744073709551615 18446744073709551615 18446744073709551615 18446744073709551615 18446744073709551615 18446744073709551615 18446744073709551615 18446744073709551615 18446744073709551615 18446744073709551615 18446744073709551615 18446744073709551615 18446744073709551615 18446744073709551615 18446744073709551615 18446744073709551615 18446744073709551615 18446744073709551615 18446744073709551615 18446744073709551615 18446744073709551615 18446744073709551615 18446744073709551615 18446744073709551615 18446744073709551615 18446744073709551615 18446744073709551615 18446744073709551615 18446744073709551615 18446744073709551615 18446744073709551615 18446744073709551615 18446744073709551615 18446744073709551615 18446744073709551615 18446744073709551615 18446744073709551615 18446744073709551615 18446744073709551615 18446744073709551615 18446744073709551615 18446744073709551615 18446744073709551615 18446744073709551615 18446744073709551615 18446744073709551615 18446744073709551615 18446744073709551615 18446744073709551615 18446744073709551615 18446744073709551615 18446744073709551615 18446744073709551615 18446744073709551615 18446744073709551615 18446744073709551615 18446744073709551615 18446744073709551615 18446744073709551615 18446744073709551615 18446744073709551615 18446744073709551615 18446744073709551615 18446744073709551615 18446744073709551615 18446744073709551615 18446744073709551615 18446744073709551615 18446744073709551615 18446744073709551615 18446744073709551615 18446744073709551615 18446744073709551615 18446744073709551615 18446744073709551615 18446744073709551615 18446744073709551615 18446744073709551615 18446744073709551615 18446744073709551615 18446744073709551615 18446744073709551615 18446744073709551615 18446744073709551615 18446744073709551615 18446744073709551615 18446744073709551615 18446744073709551615 18446744073709551615 18446744073709551615 18446744073709551615 18446744073709551615 18446744073709551615 18446744073709551615 18446744073709551615 18446744073709551615 18446744073709551615 18446744073709551615 18446744073709551615 18446744073709551615 18446744073709551615 18446744073709551615 18446744073709551615 18446744073709551615 18446744073709551615 18446744073709551615 18446744073709551615 18446744073709551615 18446744073709551615 18446744073709551615 18446744073709551615 18446744073709551615 18446744073709551615 18446744073709551615 18446744073709551615 18446744073709551615 18446744073709551615 18446744073709551615 18446744073709551615 18446744073709551615 18446744073709551615 18446744073709551615 18446744073709551615 18446744073709551615 18446744073709551615 18446744073709551615 18446744073709551615 18446744073709551615 18446744073709551615 18446744073709551615 18446744073709551615 18446744073709551615 18446744073709551615 18446744073709551615 18446744073709551615 18446744073709551615 18446744073709551615 18446744073709551615 18446744073709551615 18446744073709551615 18446744073709551615 18446744073709551615 18446744073709551615 18446744073709551615 18446744073709551615 18446744073709551615 18446744073709551615 18446744073709551615 18446744073709551615 18446744073709551615 18446744073709551615 18446744073709551615 18446744073709551615 18446744073709551615 18446744073709551615 18446744073709551615 18446744073709551615 18446744073709551615 18446744073709551615 18446744073709551615 18446744073709551615 18446744073709551615 18446744073709551615 18446744073709551615 18446744073709551615 18446744073709551615 18446744073709551615 18446744073709551615 18446744073709551615 18446744073709551615 18446744073709551615 18446744073709551615 18446744073709551615 18446744073709551615 18446744073709551615 18446744073709551615 18446744073709551615 18446744073709551615 18446744073709551615 18446744073709551615 18446744073709551615 18446744073709551615 18446744073709551615 18446744073709551615 18446744073709551615 18446744073709551615 18446744073709551615 18446744073709551615 18446744073709551615 18446744073709551615 18446744073709551615 18446744073709551615 18446744073709551615 18446744073709551615 18446744073709551615 18446744073709551615 18446744073709551615 18446744073709551615 18446744073709551615 18446744073709551615 18446744073709551615 18446744073709551615 18446744073709551615 18446744073709551615 18446744073709551615 18446744073709551615 18446744073709551615 18446744073709551615 18446744073709551615 18446744073709551615 18446744073709551615 18446744073709551615 18446744073709551615 18446744073709551615 18446744073709551615 18446744073709551615 18446744073709551615 18446744073709551615 18446744073709551615 18446744073709551615 18446744073709551615 18446744073709551615 18446744073709551615 18446744073709551615 18446744073709551615 18446744073709551615 18446744073709551615 18446744073709551615 18446744073709551615 18446744073709551615 18446744073709551615 18446744073709551615 18446744073709551615 18446744073709551615 18446744073709551615 18446744073709551615 18446744073709551615 18446744073709551615 18446744073709551615 18446744073709551615 18446744073709551615 18446744073709551615 18446744073709551615 18446744073709551615 18446744073709551615 18446744073709551615 18446744073709551615 18446744073709551615 18446744073709551615 18446744073709551615 18446744073709551615 18446744073709551615 18446744073709551615 18446744073709551615 18446744073709551615 18446744073709551615 18446744073709551615 18446744073709551615 18446744073709551615 5 5 5 5 5 5 18446744073709551615 5 18446744073709551615 18446744073709551615 5 5 5 5 5 18446744073709551615 18446744073709551615 18446744073709551615 18446744073709551615 1 18446744073709551615 18446744073709551615 1 18446744073709551615 18446744073709551615 18446744073709551615 18446744073709551615 1 18446744073709551615 18446744073709551615 18446744073709551615 18446744073709551615 18446744073709551615 18446744073709551615 18446744073709551615 18446744073709551615 18446744073709551615 18446744073709551615 18446744073709551615 18446744073709551615 18446744073709551615 18446744073709551615 18446744073709551615 18446744073709551615 18446744073709551615 18446744073709551615 18446744073709551615 18446744073709551615 18446744073709551615 18446744073709551615 18446744073709551615 18446744073709551615 18446744073709551615 18446744073709551615 18446744073709551615 18446744073709551615 18446744073709551615 18446744073709551615 18446744073709551615 18446744073709551615 18446744073709551615 18446744073709551615 18446744073709551615 18446744073709551615 18446744073709551615 18446744073709551615 18446744073709551615 18446744073709551615 18446744073709551615 18446744073709551615 18446744073709551615 18446744073709551615 18446744073709551615 18446744073709551615 18446744073709551615 18446744073709551615 18446744073709551615 18446744073709551615 18446744073709551615 18446744073709551615 18446744073709551615 18446744073709551615 18446744073709551615 18446744073709551615 18446744073709551615 18446744073709551615 18446744073709551615 18446744073709551615 18446744073709551615 18446744073709551615 18446744073709551615 18446744073709551615 18446744073709551615 18446744073709551615 18446744073709551615 18446744073709551615 18446744073709551615 18446744073709551615 18446744073709551615 18446744073709551615 18446744073709551615 18446744073709551615 18446744073709551615 18446744073709551615 18446744073709551615 18446744073709551615 18446744073709551615 18446744073709551615 18446744073709551615 18446744073709551615 18446744073709551615 18446744073709551615 5 18446744073709551615 5 18446744073709551615 18446744073709551615 18446744073709551615 18446744073709551615 5 18446744073709551615 1 18446744073709551615 18446744073709551615 18446744073709551615 18446744073709551615 18446744073709551615 18446744073709551615 18446744073709551615 18446744073709551615 18446744073709551615 1 18446744073709551615 18446744073709551615 18446744073709551615 1 18446744073709551615 18446744073709551615 1 18446744073709551615 18446744073709551615 18446744073709551615 1 18446744073709551615 18446744073709551615 18446744073709551615 18446744073709551615 18446744073709551615 18446744073709551615 18446744073709551615 1 18446744073709551615 18446744073709551615 18446744073709551615 18446744073709551615 18446744073709551615 18446744073709551615 18446744073709551615 18446744073709551615 18446744073709551615 18446744073709551615 18446744073709551615 18446744073709551615 18446744073709551615 18446744073709551615 18446744073709551615 18446744073709551615 1844674407370