<?xml version="1.0"?>
<VTKFile type="UnstructuredGrid"  version="0.1"  >
<UnstructuredGrid>
<Piece  NumberOfPoints="959" NumberOfCells="8758">
<Points>
<DataArray  type="Float64"  NumberOfComponents="3"  format="ascii">10.84916142554143 4.422053292325817 1.402302267709014  10.75447552904147 4.396100788972966 1.373131182817375  10.79872559919848 4.441298505133911 1.491013114851897  10.7894549427823 4.513589294552555 1.469669276688572  10.7439161592801 4.465369403680489 1.342800515687846  10.83979349678078 4.494622045867589 1.375745657231893  10.83084428228455 4.566662670599815 1.349390544683882  10.7338542523298 4.534195308973715 1.31269414520654  10.78056066689236 4.585255019718652 1.448550231672677  10.82216070114378 4.63810770041579 1.323177686052635  10.72409688457415 4.60252986420167 1.282725547618957  10.77190692074237 4.656373846416198 1.427571961179853  10.81361830126413 4.708959023449986 1.296987612430951  10.71450895152331 4.670348072871075 1.252800600829284  10.76341063273724 4.726935440462664 1.406613093010523  10.80500849755812 4.779186350863694 1.270800392621534  10.70482010787026 4.737612858432707 1.222906604294286  10.75482200784246 4.796916987582335 1.38561025956432  10.79587943177943 4.848743945994398 1.24467920315663  10.694688007029 4.804301513215048 1.193152904106514  10.74578703424209 4.866215293373743 1.364580607743804  10.69079942131187 4.433773957274989 1.507042218396244  10.68139360864624 4.504132720688013 1.486242335385288  10.67231745376 4.574006876367472 1.46566435854913  10.66355062373286 4.643379184194904 1.445187757534025  10.6549676191103 4.71226990051396 1.424709991271189  10.6462760249336 4.780651986576729 1.404197254999224  10.63711525780883 4.848499963037534 1.383680845771175  10.62214627444999 4.455404472774101 1.631321088246295  10.61013734784674 4.470896558416358 1.761780843948682  10.70212773303592 4.47748911556711 1.710192781898632  10.69236862794999 4.547910585559328 1.699672708444127  10.58690743527792 4.607322644413246 1.746766347868286  10.6000153372627 4.593801637076085 1.604752178713387  10.68292649879121 4.617743282699881 1.689366217592252  10.61088288801217 4.524831603896759 1.617943214533159  10.67376976314571 4.687029620041078 1.679200438036222  10.57582033983722 4.674815444515141 1.739487663981489  10.58945171249323 4.662307229226211 1.591661904622325  10.66475465141673 4.755812029828625 1.669071322300533  10.56488730308672 4.741847346397121 1.73219695610588  10.57907927908873 4.730354795633717 1.578556107899102  10.65566996178218 4.824077014255533 1.65885547868511  10.55386343436328 4.808396647508595 1.724802836915744  10.56856937321119 4.797900267651783 1.565393502953429  10.64615025634687 4.89179185265024 1.6484544873782  10.5424234414015 4.874423663117083 1.717220785337598  10.55758554944624 4.864905106916687 1.552100743223195  10.72550885694055 4.501075624702261 1.924091380713797  10.72906616183903 4.498172724138657 1.819958655001938  10.60665105394204 4.478897871039079 1.894303024198738  10.59408110075883 4.546053613120518 1.891683637059951  10.71812386979908 4.568192568040734 1.813284952491811  10.71360873454657 4.56990869087303 1.922276919675303  10.58195303902606 4.612626074362502 1.889205036263122  10.70759522370055 4.637566651586465 1.806825463538515  10.70212936982976 4.638164776477744 1.920572544938979  10.57014036179806 4.678713797247045 1.886823308867122  10.69734530716322 4.706405753665198 1.800493607596629  10.69092092858352 4.705842248478951 1.918959687716706  10.55847191256483 4.744338935799796 1.884408853712269  10.68720898469059 4.77470072904016 1.794174048564395  10.67983070868251 4.772982661935537 1.917359842721391  10.54673012673381 4.809489070475527 1.881878697547962  10.67698575803606 4.842419780438363 1.787764596995494  10.66868125726422 4.839576635360961 1.915657805204617  10.53460331751847 4.874086189661906 1.879156391306293  10.66635372462881 4.909490757008978 1.781177329714105  10.65717639114557 4.90549917864606 1.91375407470903  11.473496490558 4.581684720815278 2.315043272271982  11.35554628614476 4.58654788798983 2.215560398399691  11.36555238540025 4.56791765630912 2.33217772882838  11.35615872661984 4.649431968757528 2.348354299812817  11.3430596503358 4.669471787712348 2.225732732262429  11.46659868728702 4.667314800053976 2.332348832621216  11.34691948495627 4.729939128095088 2.364091208773528  11.33083581688136 4.751305043735932 2.23557969587024  11.45969962149561 4.751811230147148 2.349093211593317  11.33776379564969 4.809462576476921 2.379664246669696  11.31875049369038 4.832136866080386 2.245441190285718  11.45283223136449 4.835189185827645 2.365554459861302  11.32872429589053 4.888117015210193 2.395325543788882  11.30667575449059 4.912058001792687 2.255390744841099  11.4460504455599 4.917586214570012 2.382058262061889  11.31978315721761 4.965953118223792 2.411194268615275  11.29456686837016 4.991074653230447 2.265561890106608  11.43934910761499 4.999089094091869 2.398831054770207  11.31093164595502 5.042998526396492 2.427361182154339  11.28226409007896 5.069107027091889 2.275981777157865  11.432779315765 5.079653750359737 2.416087783771276  11.583127595826 4.564379653785263 2.423936944602224  11.47287405819688 4.552298927294934 2.438252931380431  11.46651260015506 4.635751569746486 2.459605898802031  11.5798000227872 4.652217736202044 2.445342767374893  11.57648519541845 4.738780393754055 2.465881423057652  11.46024284906003 4.718064403953225 2.480280368696557  11.57324398980878 4.82414957158118 2.485921139238816  11.45402260218647 4.799374342707119 2.500618874977806  11.57005880301751 4.908432137716533 2.505705708646018  11.44797563090014 4.879716146872711 2.520931069091097  11.56710705963185 4.991742781841353 2.525642078318135  11.44217361532618 4.959136806384246 2.541411868937148  11.56460483273419 5.074157827467747 2.546367968375398  11.43684410629371 5.037596914555502 2.562228957715805  10.74611002261396 4.46683340734004 1.607229107090062  10.73720835553949 4.538512733819468 1.591898708667391  10.72862373206653 4.609574084562843 1.576806536794469  10.72029190403512 4.680074773873705 1.561838080020389  10.71211820835702 4.750049436265606 1.546894313788264  10.703846787652 4.81947386999303 1.531883436546245  10.69509809986476 4.888309157940288 1.516751371551618  11.69600000000119 4.597439530814992 1.868881846149055  11.58258072007557 4.596125381737626 1.859749911937594  11.58216772302816 4.615013754406168 1.982153459017302  11.57870605180548 4.709576609137192 1.97553205151409  11.57877324260882 4.69079552247645 1.844696845808042  11.69600000000119 4.696532949769446 1.856188343013194  11.57404624156585 4.803238093536299 1.969495826740733  11.57450657912337 4.783916393143651 1.830180574899197  11.6960000000012 4.794151346796595 1.845139887212528  11.56939515177281 4.896042861654204 1.963571682776119  11.57029021558975 4.875883982924166 1.816125217194954  11.6960000000012 4.890645970388045 1.834844212949503  11.56497853771992 4.988292961551792 1.957551194735423  11.56641658139269 4.966921203229993 1.802004667929597  11.6960000000012 4.986545884303795 1.824807639916325  11.56087782411351 5.080108832838818 1.951269835994714  11.56256012218359 5.057123703268548 1.787503145202598  11.69600000000121 5.082001174862651 1.814229066439372  11.55558963715439 5.171058975696398 1.944530102535699  11.55794289764726 5.146143120786749 1.771282875965363  11.69600000000121 5.175847051036969 1.800054634870278  11.25048232512473 4.535796005144136 2.418786841237186  11.36032726904454 4.539210534662788 2.451156472393731  11.35308627292822 4.618820119133236 2.47097433124847  11.24065544109571 4.612565648408374 2.434515150752578  11.34590734939797 4.697473711694186 2.49030660649006  11.23094753372101 4.688520242715834 2.449923678588157  11.33876777871529 4.775235548110888 2.509309523414859  11.2213251783836 4.763676382215565 2.465135926339813  11.3317872708776 4.852175827961648 2.528291402287461  11.21178779320705 4.8380924087799 2.480295298985386  11.32498009390673 4.928344747001146 2.547407344534593  11.20236242103367 4.91177783576865 2.495523290142905  11.31846486682536 5.003800601898252 2.56685057813617  11.19306546461383 4.984637556681944 2.510925967510596  11.47933207461464 4.572015242312842 1.749050255644072  11.47166159592053 4.591041613924581 1.872303621078983  11.46401815905018 4.681665653525025 1.859124023077011  11.47387201679478 4.662629876110679 1.730260457445361  11.45609404794149 4.770806013762706 1.846224055925524  11.46840964697838 4.751868534080566 1.711822302030423  11.44829169640522 4.858725465091051 1.833367098364614  11.46302490804408 4.839783227599499 1.693604052675031  11.44095456964038 4.945643283596144 1.820112670530889  11.45767655180638 4.926542199363892 1.675457592463844  11.43354489882472 5.031637683188961 1.806583811922434  11.4524999759746 5.012281617187803 1.657029094534896  11.4256229888184 5.116789637064401 1.792364498544275  11.44769218591023 5.097160319955142 1.63814630296771  11.25989078458027 4.554248799957771 2.313802626970773  11.24818627591431 4.632789848616056 2.326186046831515  11.23678705803645 4.710281370610996 2.338256238297869  11.22551389452925 4.786860815438119 2.35020604642839  11.21431212845542 4.86263563559114 2.36215701265957  11.20315450967419 4.937648833270286 2.374242603332191  11.19201735136078 5.01192643244691 2.386523112852701  11.25120953113767 4.505356518473242 2.544728683613021  11.24272967599992 4.580253040454946 2.565003741731046  11.23432076781012 4.654429035345988 2.584904948504595  11.22597467876565 4.727865634113231 2.604522296512326  11.21773378370582 4.80062025590254 2.624027701866946  11.20964538347828 4.872704864278482 2.64355259178831  11.2017987727116 4.944126904798312 2.663277501793666  11.69600000000124 4.56459585412681 2.428529697915029  11.58333519910426 4.528328181270675 2.543021824061928  11.5806933408564 4.613787888143493 2.568591036036697  11.69600000000123 4.655625867392683 2.4523941394146  11.57812394195407 4.698066523808762 2.593380144302043  11.6960000
[...]
<CellData  Scalars="f">
<DataArray  type="Float64"  Name="f"  format="ascii">1 18446744073709551615 18446744073709551615 1 18446744073709551615 18446744073709551615 1 18446744073709551615 18446744073709551615 18446744073709551615 18446744073709551615 18446744073709551615 18446744073709551615 18446744073709551615 18446744073709551615 18446744073709551615 1 18446744073709551615 18446744073709551615 1 18446744073709551615 18446744073709551615 18446744073709551615 18446744073709551615 18446744073709551615 18446744073709551615 1 18446744073709551615 18446744073709551615 18446744073709551615 18446744073709551615 18446744073709551615 18446744073709551615 18446744073709551615 18446744073709551615 18446744073709551615 1 18446744073709551615 18446744073709551615 18446744073709551615 1 18446744073709551615 18446744073709551615 1 18446744073709551615 18446744073709551615 18446744073709551615 1 18446744073709551615 18446744073709551615 18446744073709551615 18446744073709551615 18446744073709551615 18446744073709551615 18446744073709551615 18446744073709551615 18446744073709551615 1 18446744073709551615 18446744073709551615 18446744073709551615 1 18446744073709551615 18446744073709551615 18446744073709551615 1 18446744073709551615 18446744073709551615 18446744073709551615 18446744073709551615 18446744073709551615 18446744073709551615 18446744073709551615 18446744073709551615 18446744073709551615 18446744073709551615 18446744073709551615 18446744073709551615 18446744073709551615 18446744073709551615 18446744073709551615 18446744073709551615 18446744073709551615 18446744073709551615 18446744073709551615 18446744073709551615 18446744073709551615 18446744073709551615 18446744073709551615 18446744073709551615 18446744073709551615 18446744073709551615 18446744073709551615 18446744073709551615 18446744073709551615 18446744073709551615 18446744073709551615 18446744073709551615 18446744073709551615 18446744073709551615 18446744073709551615 18446744073709551615 18446744073709551615 18446744073709551615 18446744073709551615 18446744073709551615 18446744073709551615 18446744073709551615 18446744073709551615 18446744073709551615 18446744073709551615 18446744073709551615 18446744073709551615 18446744073709551615 18446744073709551615 18446744073709551615 18446744073709551615 18446744073709551615 18446744073709551615 18446744073709551615 18446744073709551615 18446744073709551615 18446744073709551615 18446744073709551615 18446744073709551615 18446744073709551615 18446744073709551615 18446744073709551615 18446744073709551615 18446744073709551615 18446744073709551615 18446744073709551615 18446744073709551615 18446744073709551615 18446744073709551615 18446744073709551615 18446744073709551615 18446744073709551615 18446744073709551615 18446744073709551615 18446744073709551615 18446744073709551615 18446744073709551615 18446744073709551615 18446744073709551615 18446744073709551615 18446744073709551615 18446744073709551615 18446744073709551615 18446744073709551615 18446744073709551615 18446744073709551615 18446744073709551615 18446744073709551615 18446744073709551615 18446744073709551615 18446744073709551615 18446744073709551615 18446744073709551615 18446744073709551615 18446744073709551615 18446744073709551615 18446744073709551615 18446744073709551615 18446744073709551615 18446744073709551615 18446744073709551615 18446744073709551615 18446744073709551615 18446744073709551615 18446744073709551615 18446744073709551615 18446744073709551615 18446744073709551615 18446744073709551615 18446744073709551615 18446744073709551615 18446744073709551615 18446744073709551615 18446744073709551615 18446744073709551615 18446744073709551615 18446744073709551615 18446744073709551615 18446744073709551615 18446744073709551615 18446744073709551615 18446744073709551615 18446744073709551615 18446744073709551615 18446744073709551615 18446744073709551615 18446744073709551615 18446744073709551615 18446744073709551615 18446744073709551615 18446744073709551615 18446744073709551615 18446744073709551615 18446744073709551615 18446744073709551615 18446744073709551615 18446744073709551615 18446744073709551615 18446744073709551615 18446744073709551615 18446744073709551615 18446744073709551615 18446744073709551615 18446744073709551615 18446744073709551615 18446744073709551615 18446744073709551615 18446744073709551615 18446744073709551615 18446744073709551615 18446744073709551615 18446744073709551615 18446744073709551615 18446744073709551615 18446744073709551615 18446744073709551615 18446744073709551615 18446744073709551615 18446744073709551615 18446744073709551615 18446744073709551615 18446744073709551615 18446744073709551615 18446744073709551615 18446744073709551615 18446744073709551615 18446744073709551615 18446744073709551615 18446744073709551615 18446744073709551615 18446744073709551615 18446744073709551615 18446744073709551615 18446744073709551615 18446744073709551615 18446744073709551615 18446744073709551615 18446744073709551615 18446744073709551615 18446744073709551615 18446744073709551615 18446744073709551615 18446744073709551615 18446744073709551615 18446744073709551615 18446744073709551615 18446744073709551615 18446744073709551615 18446744073709551615 18446744073709551615 18446744073709551615 18446744073709551615 18446744073709551615 18446744073709551615 18446744073709551615 18446744073709551615 18446744073709551615 18446744073709551615 18446744073709551615 18446744073709551615 18446744073709551615 18446744073709551615 18446744073709551615 18446744073709551615 18446744073709551615 18446744073709551615 18446744073709551615 18446744073709551615 18446744073709551615 18446744073709551615 18446744073709551615 18446744073709551615 18446744073709551615 18446744073709551615 18446744073709551615 18446744073709551615 18446744073709551615 18446744073709551615 18446744073709551615 18446744073709551615 18446744073709551615 18446744073709551615 18446744073709551615 18446744073709551615 18446744073709551615 18446744073709551615 18446744073709551615 18446744073709551615 18446744073709551615 18446744073709551615 18446744073709551615 18446744073709551615 18446744073709551615 18446744073709551615 18446744073709551615 18446744073709551615 18446744073709551615 18446744073709551615 18446744073709551615 18446744073709551615 18446744073709551615 18446744073709551615 18446744073709551615 18446744073709551615 18446744073709551615 18446744073709551615 18446744073709551615 18446744073709551615 18446744073709551615 18446744073709551615 18446744073709551615 18446744073709551615 18446744073709551615 18446744073709551615 18446744073709551615 18446744073709551615 18446744073709551615 18446744073709551615 18446744073709551615 18446744073709551615 18446744073709551615 18446744073709551615 18446744073709551615 18446744073709551615 18446744073709551615 18446744073709551615 18446744073709551615 18446744073709551615 18446744073709551615 18446744073709551615 18446744073709551615 18446744073709551615 18446744073709551615 18446744073709551615 18446744073709551615 18446744073709551615 18446744073709551615 18446744073709551615 18446744073709551615 18446744073709551615 18446744073709551615 18446744073709551615 18446744073709551615 18446744073709551615 18446744073709551615 18446744073709551615 18446744073709551615 18446744073709551615 18446744073709551615 18446744073709551615 18446744073709551615 18446744073709551615 18446744073709551615 18446744073709551615 18446744073709551615 18446744073709551615 18446744073709551615 18446744073709551615 18446744073709551615 18446744073709551615 18446744073709551615 18446744073709551615 18446744073709551615 18446744073709551615 18446744073709551615 18446744073709551615 18446744073709551615 18446744073709551615 18446744073709551615 18446744073709551615 18446744073709551615 18446744073709551615 18446744073709551615 18446744073709551615 18446744073709551615 18446744073709551615 18446744073709551615 18446744073709551615 18446744073709551615 18446744073709551615 18446744073709551615 18446744073709551615 18446744073709551615 18446744073709551615 18446744073709551615 18446744073709551615 18446744073709551615 18446744073709551615 18446744073709551615 18446744073709551615 18446744073709551615 18446744073709551615 18446744073709551615 18446744073709551615 18446744073709551615 18446744073709551615 18446744073709551615 18446744073709551615 18446744073709551615 18446744073709551615 18446744073709551615 18446744073709551615 18446744073709551615 18446744073709551615 18446744073709551615 18446744073709551615 18446744073709551615 18446744073709551615 5 5 5 5 5 5 5 5 5 5 5 5 5 18446744073709551615 18446744073709551615 18446744073709551615 18446744073709551615 1 18446744073709551615 18446744073709551615 18446744073709551615 18446744073709551615 18446744073709551615 18446744073709551615 18446744073709551615 18446744073709551615 18446744073709551615 18446744073709551615 18446744073709551615 18446744073709551615 18446744073709551615 18446744073709551615 18446744073709551615 18446744073709551615 18446744073709551615 18446744073709551615 18446744073709551615 18446744073709551615 18446744073709551615 18446744073709551615 18446744073709551615 18446744073709551615 18446744073709551615 18446744073709551615 18446744073709551615 18446744073709551615 18446744073709551615 18446744073709551615 18446744073709551615 18446744073709551615 18446744073709551615 18446744073709551615 18446744073709551615 18446744073709551615 18446744073709551615 18446744073709551615 18446744073709551615 18446744073709551615 18446744073709551615 18446744073709551615 18446744073709551615 18446744073709551615 18446744073709551615 18446744073709551615 18446744073709551615 18446744073709551615 18446744073709551615 18446744073709551615 18446744073709551615 18446744073709551615 18446744073709551615 18446744073709551615 18446744073709551615 18446744073709551615 18446744073709551615 18446744073709551615 18446744073709551615 18446744073709551615 18446744073709551615 18446744073709551615 18446744073709551615 18446744073709551615 18446744073709551615 18446744073709551615 18446744073709551615 18446744073709551615 18446744073709551615 18446744073709551615 18446744073709551615 18446744073709551615 18446744073709551615 18446744073709551615 18446744073709551615 18446744073709551615 18446744073709551615 18446744073709551615 5 18446744073709551615 5 18446744073709551615 5 18446744073709551615 1 18446744073709551615 18446744073709551615 1 18446744073709551615 18446744073709551615 18446744073709551615 18446744073709551615 18446744073709551615 18446744073709551615 1 18446744073709551615 18446744073709551615 1 18446744073709551615 18446744073709551615 18446744073709551615 18446744073709551615 18446744073709551615 18446744073709551615 18446744073709551615 18446744073709551615 1 18446744073709551615 18446744073709551615 18446744073709551615 1 18446744073709551615 18446744073709551615 18446744073709551615 18446744073709551615 18446744073709551615 18446744073709551615 18446744073709551615 18446744073709551615 18446744073709551615 18446744073709551615 18446744073709551615 18446744073709551615 18446744073709551615 18446744073709551615 18446744073709551615 18446744073709551615 18446744073709551615 18446744073709551615 18446744073709551615 18446744073709551615 18446744073709551615 18446744073709551615 18446744073709551615 18446744073709551615 18446744073709551615 18446744073709551615 18446744073709551615 18446744073709551615 18446744073709551615 18446744073709551615 18446744073709551615 18446744073709551615 18446744073709551615 18446744073709551615 18446744073709551615 18446744073709551615 18446744073709551615 18446744073709551615 18446744073709551615 18446744073709551615 18446744073709551615 18446744073709551615 18446744073709551615 18446744073709551615 18446744073709551615 18446744073709551615 18446744073709551615 18446744073709551615 18446744073709551615 18446744073709551615 18446744073709551615 18446744073709551615 18446744073709551615 18446744073709551615 18446744073709551615 18446744073709551615 18446744073709551615 18446744073709551615 18446744073709551615 18446744073709551615 18446744073709551615 18446744073709551615 18446744073709551615 18446744073709551615 18446744073709551615 18446744073709551615 18446744073709551615 18446744073709551615 18446744073709551615 18446744073709551615 18446744073709551615 18446744073709551615 18446744073709551615 18446744073709551615 18446744073709551615 18446744073709551615 18446744073709551615 18446744073709551615 18446744073709551615 18446744073709551615 18446744073709551615 18446744073709551615 18446744073709551615 18446744073709551615 18446744073709551615 18446744073709551615 18446744073709551615 18446744073709551615 18446744073709551615 18446744073709551615 18446744073709551615 18446744073709551615 18446744073709551615 18446744073709551615 18446744073709551615 18446744073709551615 18446744073709551615 18446744073709551615 18446744073709551615 18446744073709551615 18446744073709551615 18446744073709551615 18446744073709551615 18446744073709551615 18446744073709551615 18446744073709551615 18446744073709551615 18446744073709551615 18446744073709551615 18446744073709551615 18446744073709551615 18446744073709551615 18446744073709551615 18446744073709551615 18446744073709551615 18446744073709551615 18446744073709551615 18446744073709551615 18446744073709551615 18446744073709551615 18446744073709551615 18446744073709551615 18446744073709551615 18446744073709551615 18446744073709551615 18446744073709551615 18446744073709551615 18446744073709551615 18446744073709551615 18446744073709551615 18446744073709551615 18446744073709551615 18446744073709551615 18446744073709551615 18446744073709551615 18446744073709551615 18446744073709551615 18446744073709551615 18446744073709551615 18446744073709551615 18446744073709551615 18446744073709551615 18446744073709551615 18446744073709551615 18446744073709551615 18446744073709551615 18446744073709551615 18446744073709551615 18446744073709551615 18446744073709551615 18446744073709551615 18446744073709551615 18446744073709551615 18446744073709551615 18446744073709551615 18446744073709551615 18446744073709551615 18446744073709551615 18446744073709551615 18446744073709551615 18446744073709551615 18446744073709551615 18446744073709551615 18446744073709551615 18446744073709551615 18446744073709551615 18446744073709551615 18446744073709551615 18446744073709551615 18446744073709551615 18446744073709551615 18446744073709551615 18446744073709551615 5 18446744073709551615 5 5 18446744073709551615 18446744073709551615 5 5 18446744073709551615 18446744073709551615 18446744073709551615 18446744073709551615 5 18446744073709551615 1 18446744073709551615 18446744073709551615 1 18446744073709551615 18446744073709551615 1 18446744073709551615 18446744073709551615 18446744073709551615 18446744073709551615 18446744073709551615 18446744073709551615 18446744073709551615 18446744073709551615 18446744073709551615 1 18446744073709551615 18446744073709551615 18446744073709551615 1 18446744073709551615 18446744073709551615 18446744073709551615 18446744073709551615 18446744073709551615 18446744073709551615 18446744073709551615 18446744073709551615 18446744073709551615 18446744073709551615 1 18446744073709551615 18446744073709551615 18446744073709551615 1 18446744073709551615 18446744073709551615 18446744073709551615 18446744073709551615 18446744073709551615 18446744073709551615 18446744073709551615 18446744073709551615 18446744073709551615 18446744073709551615 18446744073709551615 18446744073709551615 18446744073709551615 18446744073709551615 18446744073709551615 18446744073709551615 18446744073709551615 18446744073709551615 18446744073709551615 18446744073709551615 18446744073709551615 18446744073709551615 18446744073709551615 18446744073709551615 18446744073709551615 18446744073709551615 18446744073709551615 18446744073709551615 18446744073709551615 18446744073709551615 18446744073709551615 18446744073709551615 18446744073709551615 18446744073709551615 18446744073709551615 18446744073709551615 18446744073709551615 18446744073709551615 18446744073709551615 18446744073709551615 18446744073709551615 18446744073709551615 18446744073709551615 18446744073709551615 18446744073709551615 18446744073709551615 18446744073709551615 18446744073709551615 18446744073709551615 18446744073709551615 18446744073709551615 18446744073709551615 18446744073709551615 18446744073709551615 18446744073709551615 18446744073709551615 18446744073709551615 18446744073709551615 18446744073709551615 18446744073709551615 18446744073709551615 18446744073709551615 18446744073709551615 18446744073709551615 18446744073709551615 18446744073709551615 18446744073709551615 18446744073709551615 18446744073709551615 18446744073709551615 18446744073709551615 18446744073709551615 18446744073709551615 18446744073709551615 18446744073709551615 18446744073709551615 18446744073709551615 18446744073709551615 18446744073709551615 18446744073709551615 18446744073709551615 18446744073709551615 18446744073709551615 18446744073709551615 18446744073709551615 18446744073709551615 18446744073709551615 18446744073709551615 18446744073709551615 18446744073709551615 18446744073709551615 18446744073709551615 18446744073709551615 18446744073709551615 18446744073709551615 18446744073709551615 18446744073709551615 18446744073709551615 18446744073709551615 18446744073709551615 18446744073709551615 18446744073709551615 18446744073709551615 18446744073709551615 18446744073709551615 18446744073709551615 18446744073709551615 18446744073709551615 18446744073709551615 18446744073709551615 18446744073709551615 18446744073709551615 18446744073709551615 18446744073709551615 18446744073709551615 18446744073709551615 18446744073709551615 18446744073709551615 18446744073709551615 18446744073709551615 18446744073709551615 18446744073709551615 18446744073709551615 18446744073709551615 18446744073709551615 18446744073709551615 18446744073709551615 18446744073709551615 18446744073709551615 18446744073709551615 18446744073709551615 18446744073709551615 18446744073709551615 18446744073709551615 18446744073709551615 18446744073709551615 18446744073709551615 18446744073709551615 18446744073709551615 18446744073709551615 18446744073709551615 18446744073709551615 18446744073709551615 18446744073709551615 18446744073709551615 18446744073709551615 18446744073709551615 18446744073709551615 18446744073709551615 18446744073709551615 18446744073709551615 18446744073709551615 18446744073709551615 18446744073709551615 18446744073709551615 18446744073709551615 18446744073709551615 18446744073709551615 18446744073709551615 18446744073709551615 18446744073709551615 18446744073709551615 18446744073709551615 18446744073709551615 18446744073709551615 18446744073709551615 18446744073709551615 18446744073709551615 18446744073709551615 18446744073709551615 18446744073709551615 18446744073709551615 18446744073709551615 18446744073709551615 18446744073709551615 18446744073709551615 18446744073709551615 18446744073709551615 18446744073709551615 18446744073709551615 18446744073709551615 18446744073709551615 18446744073709551615 18446744073709551615 18446744073709551615 18446744073709551615 18446744073709551615 18446744073709551615 18446744073709551615 18446744073709551615 18446744073709551615 18446744073709551615 18446744073709551615 18446744073709551615 18446744073709551615 18446744073709551615 18446744073709551615 18446744073709551615 18446744073709551615 18446744073709551615 18446744073709551615 18446744073709551615 18446744073709551615 18446744073709551615 18446744073709551615 18446744073709551615 18446744073709551615 18446744073709551615 18446744073709551615 18446744073709551615 5 5 5 5 5 5 5 1 18446744073709551615 18446744073709551615 1 18446744073709551615 18446744073709551615 1 18446744073709551615 18446744073709551615 18446744073709551615 18446744073709551615 18446744073709551615 18446744073709551615 18446744073709551615 18446744073709551615 18446744073709551615 18446744073709551615 18446744073709551615 1 18446744073709551615 