<?xml version="1.0"?>
<VTKFile type="UnstructuredGrid"  version="0.1"  >
<UnstructuredGrid>
<Piece  NumberOfPoints="934" NumberOfCells="8393">
<Points>
<DataArray  type="Float64"  NumberOfComponents="3"  format="ascii">10.48248309297318 2.184887968269668 3.285991548284267  10.39163410013394 2.220848143792308 3.342615390556269  10.40551595589035 2.133802160685357 3.223893315908657  10.40988983807781 2.089676379701861 3.255234144087097  10.3960070941263 2.177849958472393 3.377838090192046  10.48646451330311 2.140761681758718 3.319263675196207  10.41399860871648 2.045514045818498 3.286556704983237  10.40009929414558 2.13482358730456 3.413046109051646  10.49012913986647 2.096581760535316 3.352520894710195  10.41798578509117 2.001297163285727 3.317860528190084  10.4040643347849 2.091746485985573 3.44823108087012  10.49365314869946 2.052323085446162 3.385762674549059  10.42198689348132 1.957034551071707 3.349152008842085  10.40804184608123 2.048621924003262 3.483390913091249  10.49720573536601 2.007993250300787 3.418997537217989  10.42614487154544 1.912748088089549 3.380430560129369  10.41217980640455 2.005473113258669 3.518515757249288  10.50096065793855 1.963618413326412 3.452223073897106  10.43063262212487 1.868461862819047 3.411670750149567  10.41666573530122 1.962342935542526 3.553579490346768  10.50510855817727 1.919224021457545 3.48542820705659  10.84713309123 2.120477544992053 3.571726116257813  10.96399275209431 2.048499342029388 3.469913123096842  10.83210454460437 2.048744399059906 3.465673757914985  10.8312788820499 2.096422361662588 3.431178772507587  10.84725050838665 2.07297060663925 3.610045757742301  10.96518550871988 1.998674646843764 3.504712023718087  10.83327209840294 2.000854053649681 3.500338002441995  10.84788935941648 2.025211585293154 3.648538077144551  10.9668445590167 1.948553711790464 3.539747262858032  10.83495631714372 1.952722866405791 3.535210000712967  10.29630772305541 2.128432824692815 3.330991719975573  10.3023970177275 2.085242304213464 3.364021057520377  10.30839908603034 2.042035019867256 3.397018204135919  10.31440512060896 1.998808720501484 3.429981089831571  10.32051487523468 1.955580101496978 3.462897614183205  10.3268318611447 1.91238612561696 3.495732793643246  11.19422349447981 2.168894199571907 3.194356284908914  11.09966066134657 2.213342197270237 3.272760096716611  11.08473599879349 2.138117407723074 3.154061072050727  11.08798003568461 2.08791602260946 3.183438347547059  11.10191978149299 2.162875090196303 3.304983899835008  11.19717773225186 2.116835080315608 3.224635374950715  11.09082948041087 2.037242646625213 3.212671262117642  11.10362654440938 2.111862745086519 3.337117593648611  11.19975006859664 2.064250418596472 3.254791642514801  11.0935860960892 1.986251972633685 3.242048804373256  11.10518047838037 2.060474743317829 3.369475478893681  11.20221929150871 2.011329367689412 3.285134561225521  11.09640733059232 1.935043235103663 3.271717995714704  11.10688352497255 2.00876440935934 3.402114334302998  11.2047545332979 1.958111842923693 3.315796874101366  11.09951903063494 1.883565843488789 3.301682226905476  11.10890368599381 1.956722068972797 3.435037431024717  11.20752199568148 1.90451297283462 3.346776379547649  11.10297476759743 1.83179042415422 3.331913243768024  11.11130685343843 1.904336436449569 3.468292712642224  11.21061873400956 1.850452527631083 3.378177636504615  11.33155593571571 2.070839644263712 2.993402167940042  11.22224303185358 2.114152020185915 3.090751061261083  11.21940448951583 2.052695333472356 2.975893347266531  11.22425106551483 2.000510676453912 3.002132166788395  11.22631970241341 2.06194248442402 3.118788202259475  11.33559711021548 2.016638891654183 3.020252026768329  11.22894040954965 1.947935526374516 3.028241294834051  11.23012654914903 2.009229709457522 3.146675267674842  11.33949106227472 1.962103075046309 3.047032018110533  11.2336008888641 1.895047807932354 3.054472578211975  11.23386558914796 1.95616725170696 3.17471903037007  11.34333627081185 1.907238457833293 3.073955501093351  11.23833016217422 1.841908586266658 3.080941388001405  11.23761611257183 1.902835413552647 3.203048788037071  11.34718772828657 1.852051987051006 3.101086868575006  11.24317406632188 1.788536253670801 3.107720811671737  11.24147756750963 1.849216565823527 3.231702897066626  11.35107116972265 1.796541376212857 3.128486181901997  11.24813976393025 1.734925561014929 3.134820909093086  11.24564397281641 1.795236024289796 3.260682937523517  11.35505702478798 1.740675141378991 3.156229495915853  11.44277874797928 2.03399462074796 2.897164462505686  11.32359480668379 2.009678384874403 2.865647881707392  11.3284596140647 1.955374762013474 2.890409713283425  11.44644355165136 1.977598347034693 2.923093502154531  11.45004233035801 1.920910153579024 2.949146741868278  11.33327380447158 1.900719432191449 2.915157974158923  11.45361314995559 1.863897156928836 2.975378259215564  11.33807476279095 1.845776233991189 2.940036215609206  11.45718558761673 1.80653244503112 3.001760061716642  11.34293676064276 1.790545712115755 2.96510004388292  11.46075219459067 1.748755268363927 3.028246273969871  11.34787023221006 1.734990962539615 2.99034919498636  11.46430242131868 1.690496128658092 3.054810816088764  11.35288694964118 1.679107325562754 3.015814612580752  10.99254410415695 2.180641920770929 3.233500907835608  10.99528389151786 2.131557162334467 3.264433007360261  10.99753108560795 2.081934052760837 3.295340325841799  10.99963538170725 2.032016506997067 3.326367522029507  11.00184682834251 1.98185095064813 3.357630477589407  11.00439932435249 1.931415845913643 3.389160267688368  11.0073802722292 1.880613495936869 3.420998802318277  11.10366789174665 2.084564259881246 3.058664776145408  11.1080777300438 2.034056197588573 3.085939848070756  11.11222518537463 1.983035667785511 3.113105011111851  11.11631540384132 1.931749340075282 3.140368580249958  11.12047956527797 1.880250186557183 3.167882528661749  11.12481579406609 1.828534049590928 3.195731952159824  11.12947688655116 1.776452576996753 3.223911361454357  11.58013651523253 1.576683939793488 2.111664598991385  11.69599999999857 1.554456034739846 1.982671101408117  11.57859908088574 1.566592389354655 1.965853202944869  11.57912116902385 1.645581194730747 2.107763081536294  11.6959999999986 1.628535688310954 1.980395460403975  11.5796135709961 1.495454477079735 1.965995502686565  11.58125908282457 1.507633017864934 2.115135967600182  11.69599999999855 1.480046044357554 1.984353451264536  11.58063666941911 1.423993071457835 1.965781542987924  11.58289608499321 1.438125361062638 2.118077100273767  11.69599999999852 1.405298195975283 1.985951119345618  11.57350470265468 1.943016408286947 2.666259490840531  11.45712193818147 1.986029155373641 2.788741243592403  11.44733828030868 1.937924949452849 2.656641637477859  11.45112184283559 1.878900850279563 2.675999567657107  11.46058033197165 1.928526408008179 2.812694114568604  11.57428496790015 1.881440298228463 2.687442864298518  11.45489464597984 1.819718119105997 2.69560182568511  11.46403857671808 1.870817835826621 2.836897758690696  11.57500566121317 1.819789031237706 2.709225911637195  11.4586761148102 1.760289428832978 2.71537559089382  11.46748436558217 1.812849018060358 2.861271711757727  11.57577246483293 1.757878631366511 2.731246145343831  11.46248721492536 1.700555539719359 2.735189361690385  11.47096590442178 1.754562239936903 2.885748617052591  11.57656515396006 1.695611886639345 2.753191955129902  11.46636703544783 1.640468330738438 2.754970432134367  11.4744265680311 1.695870535597669 2.910210991172876  11.57738526895558 1.632940552842043 2.774891067094927  11.47039902316975 1.579950233830844 2.774652761023678  11.47795041104441 1.636670492574776 2.93466861617789  11.57833800617583 1.5697597181973 2.796158821508555  10.31473181991932 2.226816305518667 3.446494146676161  10.32139024627669 2.184723078947434 3.483290546660275  10.3279375562813 2.142605536335975 3.5200514507335  10.33447792518305 2.100456048239583 3.556775058681632  10.34112834172711 2.058294681699173 3.593446341687121  10.34801186885647 2.016160928386595 3.630028453767991  11.46832428500051 1.576460702492202 1.993440390288805  11.47083486080488 1.508589640751824 1.994205564251137  11.47372228681357 1.440463374890469 1.994555537707036  11.57745558880014 1.987519498793481 2.77939741205957  11.5787498926143 1.92793436357324 2.805115844331113  11.58002755907919 1.868223652360794 2.83152521975822  11.58131589533582 1.808172667562006 2.858071400526216  11.58256450036153 1.7477478077652 2.884683976274176  11.58370217426597 1.686852672054041 2.911057395872751  11.58471630518389 1.625519105895488 2.936988985306761  11.57345051676047 1.910544950124337 2.555286092533873  11.45333876126597 1.90408347819092 2.54354766585189  11.45696212759861 1.84355458295834 2.559732368505307  11.57432924053302 1.8478169774835 2.573532918678991  11.46060947555572 1.782945600824648 2.576240071278857  11.57512348732115 1.784992863197954 2.592523315846978  11.46425042663304 1.72211360543115 2.592928335577092  11.575899715695 1.721869068873663 2.611683569836874  11.46791647647273 1.66099008659581 2.609613318046086  11.57669672556446 1.658378381771727 2.63074570642806  11.47160239845877 1.599523918227944 2.626138454606736  11.57751235698482 1.594503945151241 2.649487097596342  11.47548611470441 1.537680740365259 2.642531575374216  11.57832659205105 1.530254504493135 2.667763999842426  11.34192947401831 1.968120906953712 2.769678146533648  11.34701785937075 1.912191768016444 2.791671312346202  11.3520970022923 1.856020443744554 2.813650735711878  11.35718788202567 1.799601103047276 2.835761949123405  11.36235553293395 1.74291865253988 2.858014131985836  11.36760243778398 1.685932926539693 2.880368502583582  11.37292301472613 1.628667201087906 2.902783661883432  11.4468551037209 1.878076971950914 2.436733836508483  11.32408704438032 1.870022900073703 2.455195376334303  11.33567033348203 1.854639108626458 2.330610245704107 
[...]
<CellData  Scalars="f">
<DataArray  type="Float64"  Name="f"  format="ascii">1 18446744073709551615 18446744073709551615 1 18446744073709551615 18446744073709551615 1 18446744073709551615 18446744073709551615 18446744073709551615 18446744073709551615 18446744073709551615 18446744073709551615 18446744073709551615 18446744073709551615 18446744073709551615 18446744073709551615 1 18446744073709551615 18446744073709551615 1 18446744073709551615 18446744073709551615 18446744073709551615 18446744073709551615 18446744073709551615 18446744073709551615 18446744073709551615 18446744073709551615 18446744073709551615 18446744073709551615 18446744073709551615 18446744073709551615 18446744073709551615 18446744073709551615 18446744073709551615 18446744073709551615 18446744073709551615 18446744073709551615 1 18446744073709551615 18446744073709551615 18446744073709551615 1 18446744073709551615 18446744073709551615 18446744073709551615 18446744073709551615 18446744073709551615 18446744073709551615 18446744073709551615 18446744073709551615 18446744073709551615 18446744073709551615 18446744073709551615 18446744073709551615 18446744073709551615 18446744073709551615 18446744073709551615 18446744073709551615 18446744073709551615 18446744073709551615 18446744073709551615 18446744073709551615 18446744073709551615 18446744073709551615 18446744073709551615 18446744073709551615 18446744073709551615 18446744073709551615 18446744073709551615 18446744073709551615 18446744073709551615 18446744073709551615 18446744073709551615 18446744073709551615 18446744073709551615 18446744073709551615 18446744073709551615 18446744073709551615 18446744073709551615 18446744073709551615 18446744073709551615 18446744073709551615 18446744073709551615 18446744073709551615 18446744073709551615 18446744073709551615 18446744073709551615 18446744073709551615 18446744073709551615 18446744073709551615 18446744073709551615 18446744073709551615 18446744073709551615 18446744073709551615 18446744073709551615 18446744073709551615 18446744073709551615 18446744073709551615 18446744073709551615 18446744073709551615 18446744073709551615 18446744073709551615 18446744073709551615 18446744073709551615 18446744073709551615 18446744073709551615 18446744073709551615 18446744073709551615 18446744073709551615 18446744073709551615 18446744073709551615 18446744073709551615 18446744073709551615 18446744073709551615 18446744073709551615 18446744073709551615 18446744073709551615 18446744073709551615 18446744073709551615 18446744073709551615 18446744073709551615 18446744073709551615 18446744073709551615 18446744073709551615 18446744073709551615 18446744073709551615 18446744073709551615 18446744073709551615 18446744073709551615 18446744073709551615 18446744073709551615 18446744073709551615 18446744073709551615 18446744073709551615 18446744073709551615 18446744073709551615 18446744073709551615 18446744073709551615 18446744073709551615 18446744073709551615 18446744073709551615 18446744073709551615 18446744073709551615 18446744073709551615 18446744073709551615 18446744073709551615 18446744073709551615 18446744073709551615 18446744073709551615 18446744073709551615 18446744073709551615 18446744073709551615 18446744073709551615 18446744073709551615 18446744073709551615 18446744073709551615 18446744073709551615 18446744073709551615 18446744073709551615 18446744073709551615 18446744073709551615 18446744073709551615 18446744073709551615 18446744073709551615 18446744073709551615 18446744073709551615 18446744073709551615 18446744073709551615 18446744073709551615 18446744073709551615 18446744073709551615 18446744073709551615 18446744073709551615 18446744073709551615 18446744073709551615 18446744073709551615 18446744073709551615 18446744073709551615 18446744073709551615 18446744073709551615 18446744073709551615 18446744073709551615 18446744073709551615 18446744073709551615 18446744073709551615 18446744073709551615 18446744073709551615 18446744073709551615 18446744073709551615 18446744073709551615 18446744073709551615 18446744073709551615 18446744073709551615 18446744073709551615 18446744073709551615 18446744073709551615 18446744073709551615 18446744073709551615 18446744073709551615 18446744073709551615 18446744073709551615 18446744073709551615 18446744073709551615 18446744073709551615 18446744073709551615 18446744073709551615 18446744073709551615 18446744073709551615 18446744073709551615 18446744073709551615 18446744073709551615 18446744073709551615 18446744073709551615 18446744073709551615 18446744073709551615 18446744073709551615 18446744073709551615 18446744073709551615 18446744073709551615 18446744073709551615 18446744073709551615 18446744073709551615 18446744073709551615 18446744073709551615 18446744073709551615 18446744073709551615 18446744073709551615 18446744073709551615 18446744073709551615 18446744073709551615 18446744073709551615 18446744073709551615 18446744073709551615 18446744073709551615 18446744073709551615 18446744073709551615 18446744073709551615 18446744073709551615 18446744073709551615 18446744073709551615 18446744073709551615 18446744073709551615 18446744073709551615 18446744073709551615 18446744073709551615 18446744073709551615 18446744073709551615 18446744073709551615 18446744073709551615 18446744073709551615 18446744073709551615 18446744073709551615 18446744073709551615 18446744073709551615 18446744073709551615 18446744073709551615 18446744073709551615 18446744073709551615 18446744073709551615 18446744073709551615 18446744073709551615 18446744073709551615 18446744073709551615 18446744073709551615 18446744073709551615 18446744073709551615 18446744073709551615 18446744073709551615 18446744073709551615 18446744073709551615 18446744073709551615 18446744073709551615 18446744073709551615 18446744073709551615 18446744073709551615 18446744073709551615 18446744073709551615 18446744073709551615 18446744073709551615 18446744073709551615 18446744073709551615 18446744073709551615 18446744073709551615 18446744073709551615 18446744073709551615 18446744073709551615 18446744073709551615 18446744073709551615 18446744073709551615 18446744073709551615 18446744073709551615 18446744073709551615 18446744073709551615 18446744073709551615 18446744073709551615 18446744073709551615 18446744073709551615 18446744073709551615 18446744073709551615 18446744073709551615 18446744073709551615 18446744073709551615 18446744073709551615 18446744073709551615 18446744073709551615 18446744073709551615 18446744073709551615 18446744073709551615 18446744073709551615 18446744073709551615 18446744073709551615 18446744073709551615 18446744073709551615 18446744073709551615 18446744073709551615 18446744073709551615 18446744073709551615 18446744073709551615 18446744073709551615 18446744073709551615 18446744073709551615 18446744073709551615 18446744073709551615 18446744073709551615 18446744073709551615 18446744073709551615 18446744073709551615 18446744073709551615 18446744073709551615 18446744073709551615 18446744073709551615 18446744073709551615 18446744073709551615 18446744073709551615 18446744073709551615 18446744073709551615 18446744073709551615 18446744073709551615 18446744073709551615 18446744073709551615 18446744073709551615 18446744073709551615 18446744073709551615 18446744073709551615 18446744073709551615 18446744073709551615 18446744073709551615 18446744073709551615 18446744073709551615 18446744073709551615 18446744073709551615 18446744073709551615 18446744073709551615 18446744073709551615 5 5 5 5 5 5 5 5 5 5 5 5 5 18446744073709551615 18446744073709551615 18446744073709551615 18446744073709551615 18446744073709551615 18446744073709551615 18446744073709551615 18446744073709551615 18446744073709551615 18446744073709551615 18446744073709551615 18446744073709551615 18446744073709551615 18446744073709551615 18446744073709551615 18446744073709551615 18446744073709551615 18446744073709551615 18446744073709551615 18446744073709551615 18446744073709551615 18446744073709551615 18446744073709551615 18446744073709551615 18446744073709551615 18446744073709551615 18446744073709551615 18446744073709551615 18446744073709551615 18446744073709551615 18446744073709551615 18446744073709551615 18446744073709551615 18446744073709551615 18446744073709551615 18446744073709551615 18446744073709551615 18446744073709551615 18446744073709551615 18446744073709551615 18446744073709551615 18446744073709551615 18446744073709551615 18446744073709551615 18446744073709551615 18446744073709551615 18446744073709551615 18446744073709551615 18446744073709551615 18446744073709551615 18446744073709551615 18446744073709551615 18446744073709551615 18446744073709551615 18446744073709551615 18446744073709551615 18446744073709551615 18446744073709551615 18446744073709551615 18446744073709551615 18446744073709551615 18446744073709551615 18446744073709551615 18446744073709551615 18446744073709551615 18446744073709551615 18446744073709551615 18446744073709551615 18446744073709551615 18446744073709551615 18446744073709551615 18446744073709551615 18446744073709551615 18446744073709551615 18446744073709551615 18446744073709551615 18446744073709551615 18446744073709551615 18446744073709551615 18446744073709551615 18446744073709551615 18446744073709551615 18446744073709551615 18446744073709551615 18446744073709551615 18446744073709551615 18446744073709551615 18446744073709551615 18446744073709551615 18446744073709551615 18446744073709551615 18446744073709551615 18446744073709551615 18446744073709551615 18446744073709551615 18446744073709551615 18446744073709551615 18446744073709551615 18446744073709551615 18446744073709551615 18446744073709551615 18446744073709551615 18446744073709551615 18446744073709551615 18446744073709551615 18446744073709551615 18446744073709551615 18446744073709551615 18446744073709551615 18446744073709551615 18446744073709551615 18446744073709551615 18446744073709551615 18446744073709551615 18446744073709551615 18446744073709551615 18446744073709551615 18446744073709551615 18446744073709551615 18446744073709551615 18446744073709551615 18446744073709551615 18446744073709551615 18446744073709551615 18446744073709551615 5 5 5 18446744073709551615 5 18446744073709551615 18446744073709551615 5 5 5 5 18446744073709551615 18446744073709551615 18446744073709551615 18446744073709551615 18446744073709551615 18446744073709551615 18446744073709551615 18446744073709551615 18446744073709551615 18446744073709551615 18446744073709551615 18446744073709551615 18446744073709551615 18446744073709551615 18446744073709551615 18446744073709551615 18446744073709551615 18446744073709551615 18446744073709551615 18446744073709551615 18446744073709551615 18446744073709551615 18446744073709551615 18446744073709551615 18446744073709551615 18446744073709551615 18446744073709551615 5 5 5 1 18446744073709551615 18446744073709551615 1 18446744073709551615 18446744073709551615 1 18446744073709551615 18446744073709551615 18446744073709551615 18446744073709551615 18446744073709551615 18446744073709551615 18446744073709551615 18446744073709551615 18446744073709551615 18446744073709551615 1 18446744073709551615 18446744073709551615 18446744073709551615 1 18446744073709551615 18446744073709551615 18446744073709551615 18446744073709551615 1 18446744073709551615 18446744073709551615 18446744073709551615 18446744073709551615 18446744073709551615 18446744073709551615 18446744073709551615 18446744073709551615 18446744073709551615 1 18446744073709551615 18446744073709551615 18446744073709551615 1 18446744073709551615 18446744073709551615 18446744073709551615 18446744073709551615 18446744073709551615 18446744073709551615 18446744073709551615 18446744073709551615 18446744073709551615 18446744073709551615 1 18446744073709551615 18446744073709551615 18446744073709551615 1 18446744073709551615 18446744073709551615 18446744073709551615 1 18446744073709551615 18446744073709551615 18446744073709551615 1 18446744073709551615 18446744073709551615 18446744073709551615 18446744073709551615 18446744073709551615 18446744073709551615 18446744073709551615 18446744073709551615 18446744073709551615 18446744073709551615 18446744073709551615 18446744073709551615 18446744073709551615 18446744073709551615 18446744073709551615 18446744073709551615 18446744073709551615 18446744073709551615 18446744073709551615 18446744073709551615 18446744073709551615 18446744073709551615 18446744073709551615 18446744073709551615 18446744073709551615 18446744073709551615 18446744073709551615 18446744073709551615 18446744073709551615 18446744073709551615 18446744073709551615 18446744073709551615 18446744073709551615 18446744073709551615 18446744073709551615 18446744073709551615 18446744073709551615 18446744073709551615 18446744073709551615 18446744073709551615 18446744073709551615 18446744073709551615 18446744073709551615 18446744073709551615 18446744073709551615 18446744073709551615 18446744073709551615 18446744073709551615 18446744073709551615 18446744073709551615 18446744073709551615 18446744073709551615 18446744073709551615 18446744073709551615 18446744073709551615 18446744073709551615 18446744073709551615 18446744073709551615 18446744073709551615 18446744073709551615 18446744073709551615 18446744073709551615 18446744073709551615 18446744073709551615 18446744073709551615 18446744073709551615 18446744073709551615 18446744073709551615 18446744073709551615 18446744073709551615 18446744073709551615 18446744073709551615 18446744073709551615 18446744073709551615 18446744073709551615 18446744073709551615 18446744073709551615 18446744073709551615 18446744073709551615 18446744073709551615 18446744073709551615 18446744073709551615 18446744073709551615 18446744073709551615 18446744073709551615 18446744073709551615 18446744073709551615 18446744073709551615 18446744073709551615 18446744073709551615 18446744073709551615 18446744073709551615 18446744073709551615 18446744073709551615 18446744073709551615 18446744073709551615 18446744073709551615 18446744073709551615 18446744073709551615 18446744073709551615 18446744073709551615 18446744073709551615 18446744073709551615 18446744073709551615 18446744073709551615 18446744073709551615 18446744073709551615 18446744073709551615 18446744073709551615 18446744073709551615 18446744073709551615 18446744073709551615 18446744073709551615 18446744073709551615 18446744073709551615 18446744073709551615 18446744073709551615 18446744073709551615 18446744073709551615 18446744073709551615 18446744073709551615 18446744073709551615 18446744073709551615 18446744073709551615 18446744073709551615 18446744073709551615 18446744073709551615 18446744073709551615 18446744073709551615 18446744073709551615 18446744073709551615 18446744073709551615 18446744073709551615 18446744073709551615 18446744073709551615 18446744073709551615 18446744073709551615 18446744073709551615 18446744073709551615 18446744073709551615 18446744073709551615 18446744073709551615 18446744073709551615 18446744073709551615 18446744073709551615 18446744073709551615 18446744073709551615 18446744073709551615 18446744073709551615 18446744073709551615 18446744073709551615 18446744073709551615 18446744073709551615 18446744073709551615 18446744073709551615 18446744073709551615 18446744073709551615 18446744073709551615 18446744073709551615 18446744073709551615 18446744073709551615 18446744073709551615 18446744073709551615 18446744073709551615 18446744073709551615 18446744073709551615 18446744073709551615 18446744073709551615 18446744073709551615 18446744073709551615 18446744073709551615 18446744073709551615 18446744073709551615 18446744073709551615 18446744073709551615 18446744073709551615 18446744073709551615 18446744073709551615 18446744073709551615 18446744073709551615 18446744073709551615 18446744073709551615 18446744073709551615 18446744073709551615 18446744073709551615 18446744073709551615 18446744073709551615 18446744073709551615 18446744073709551615 18446744073709551615 18446744073709551615 18446744073709551615 18446744073709551615 18446744073709551615 18446744073709551615 18446744073709551615 18446744073709551615 18446744073709551615 18446744073709551615 18446744073709551615 18446744073709551615 18446744073709551615 18446744073709551615 18446744073709551615 18446744073709551615 18446744073709551615 18446744073709551615 18446744073709551615 18446744073709551615 18446744073709551615 18446744073709551615 18446744073709551615 18446744073709551615 18446744073709551615 18446744073709551615 18446744073709551615 18446744073709551615 18446744073709551615 18446744073709551615 18446744073709551615 18446744073709551615 18446744073709551615 18446744073709551615 18446744073709551615 18446744073709551615 18446744073709551615 18446744073709551615 18446744073709551615 18446744073709551615 18446744073709551615 18446744073709551615 18446744073709551615 18446744073709551615 18446744073709551615 18446744073709551615 18446744073709551615 18446744073709551615 18446744073709551615 18446744073709551615 18446744073709551615 18446744073709551615 18446744073709551615 18446744073709551615 18446744073709551615 18446744073709551615 18446744073709551615 18446744073709551615 18446744073709551615 18446744073709551615 18446744073709551615 18446744073709551615 18446744073709551615 18446744073709551615 18446744073709551615 18446744073709551615 18446744073709551615 18446744073709551615 18446744073709551615 18446744073709551615 18446744073709551615 18446744073709551615 18446744073709551615 18446744073709551615 18446744073709551615 18446744073709551615 18446744073709551615 18446744073709551615 18446744073709551615 18446744073709551615 18446744073709551615 18446744073709551615 18446744073709551615 18446744073709551615 18446744073709551615 18446744073709551615 18446744073709551615 18446744073709551615 18446744073709551615 18446744073709551615 18446744073709551615 18446744073709551615 18446744073709551615 18446744073709551615 18446744073709551615 18446744073709551615 18446744073709551615 18446744073709551615 18446744073709551615 18446744073709551615 18446744073709551615 18446744073709551615 18446744073709551615 18446744073709551615 18446744073709551615 18446744073709551615 18446744073709551615 18446744073709551615 18446744073709551615 18446744073709551615 18446744073709551615 18446744073709551615 18446744073709551615 18446744073709551615 18446744073709551615 18446744073709551615 18446744073709551615 18446744073709551615 18446744073709551615 18446744073709551615 18446744073709551615 5 18446744073709551615 5 5 18446744073709551615 5 18446744073709551615 18446744073709551615 5 18446744073709551615 18446744073709551615 5 5 5 18446744073709551615 5 5 1 18446744073709551615 18446744073709551615 1 18446744073709551615 18446744073709551615 1 18446744073709551615 18446744073709551615 18446744073709551615 18446744073709551615 18446744073709551615 18446744073709551615 18446744073709551615 18446744073709551615 18446744073709551615 18446744073709551615 1 18446744073709551615 18446744073709551615 1 18446744073709551615 18446744073709551615 18446744073709551615 18446744073709551615 18446744073709551615 1 18446744073709551615 18446744073709551615 18446744073709551615 18446744073709551615 1 18446744073709551615 18446744073709551615 18446744073709551615 18446744073709551615 18446744073709551615 18446744073709551615 18446744073709551615 18446744073709551615 1 18446744073709551615 18446744073709551615 18446744073709551615 18446744073709551615 18446744073709551615 18446744073709551615 18446744073709551615 18446744073709551615 1 18446744073709551615 18446744073709551615 18446744073709551615 1 18446744073709551615 18446744073709551615 18446744073709551615 1 18446744073709551615 18446744073709551615 18446744073709551615 18446744073709551615 18446744073709551615 18446744073709551615 18446744073709551615 18446744073709551615 18446744073709551615 18446744073709551615 18446744073709551615 18446744073709551615 18446744073709551615 18446744073709551615 18446744073709551615 18446744073709551615 18446744073709551615 18446744073709551615 18446744073709551615 18446744073709551615 18446744073709551615 18446744073709551615 1844674407370