<?xml version="1.0"?>
<VTKFile type="UnstructuredGrid"  version="0.1"  >
<UnstructuredGrid>
<Piece  NumberOfPoints="1043" NumberOfCells="9117">
<Points>
<DataArray  type="Float64"  NumberOfComponents="3"  format="ascii">10.61832417773047 4.039764459200968 0.6941721061191282  10.69249085665298 4.175983498573603 0.767869501217339  10.57679874295857 4.210921561203298 0.8083058934916338  10.62280603142874 4.00314671426714 0.7606084943824587  10.58364472897117 4.164178031200425 0.867658467564883  10.59813569376975 4.070543356058357 0.987078191790894  10.6324966731378 3.930011763891823 0.8942396114288712  10.53748850807149 3.984317669945653 0.9341898421897697  10.53021924122578 4.025594858744669 0.8710940059219062  10.62747009302633 3.96653613917826 0.827265241402291  10.59071253183514 4.117362057732481 0.9272355138604951  10.52330575941244 4.06696359612218 0.8082397968683723  10.51661961158612 4.108398150736287 0.7455690310228572  10.51001186032786 4.149838112807871 0.6830622485399475  10.56484382939248 3.369792704725523 0.7627306381169537  10.4712273986084 3.309904896692468 0.7775194254748214  10.48425787727582 3.441228915326241 0.7678286633389517  10.47969359877315 3.444176972423119 0.6957786112463238  10.46496116872203 3.303527730016263 0.7076257189170276  10.55882409546924 3.368622468451551 0.6911180908303763  10.47545248723199 3.447431554959965 0.6236451753776425  10.45901994824625 3.297383951040388 0.6376029192042644  10.5531906806731 3.367765975252509 0.6194414197217806  10.47137355113637 3.450849818129154 0.5514923208409682  10.45323924241637 3.291372812748197 0.5675378433011157  10.54774894733779 3.367107409730816 0.5477541576721194  10.46730070011156 3.454288393068223 0.479359060411132  10.44746002064233 3.285388501789257 0.497487451027341  10.54232450438181 3.366507922256132 0.4761011457374481  10.46304938246314 3.457568446115016 0.4072659241414993  10.44151238954436 3.279283469936465 0.4274803159785424  10.5367091260848 3.365769699065065 0.4045154169707135  10.45839172997819 3.460462578879403 0.3352009619410806  10.43517529576783 3.272850153523462 0.3575120995297871  10.53059293386949 3.364618927161996 0.3330268304921413  11.48278854502053 3.280932023739475 0.5717283273578303  11.36594845692681 3.278626691637834 0.5701417567325884  11.36543240925791 3.42018892147241 0.5483693935852272  11.37096055499209 3.416297999148043 0.4661123499054883  11.37175230389365 3.268034292961284 0.4903221972108031  11.48852505569578 3.26900425678671 0.4893260992446887  11.37632245370277 3.412592996237792 0.3840998038673847  11.3773055518566 3.257525123615073 0.410543490887964  11.49391682980897 3.257169976802157 0.4070602598347608  11.38150643573359 3.409070114346916 0.3023982328368185  11.38266633712927 3.247037740857627 0.3308133156076015  11.49919760609758 3.24578251187429 0.3248515312828505  11.25073942792559 3.417455144174169 0.5514136211732237  11.24396813895229 3.420226707343143 0.6311707505055305  11.25738073935038 3.414881038773973 0.4718465966311964  11.2639419428922 3.412506950348615 0.3924570268977842  11.270226713697 3.410026018209291 0.3133723453579542  10.37633601954526 3.402873935499565 0.7748291949504683  10.37196022734651 3.402132975251975 0.7033773936222131  10.36784228151193 3.401629638235388 0.6317944934941488  10.36384188413266 3.401230318183377 0.5601640159393052  10.35982415910902 3.400813560587842 0.4885251254743764  10.35564534902201 3.400233881523786 0.4168956410302932  10.35116616425299 3.399333335504394 0.3452552518025946  11.24582204953619 3.288227193041299 0.6435489657621375  11.3599016762085 3.28933948783983 0.6500602584781214  11.23705191388562 3.423223700251146 0.7111648493710927  11.35354052891953 3.300191583855344 0.7301022639155678  11.25439451752287 3.279579102922614 0.5660226690853944  11.26279387255076 3.271126618520275 0.4885866220336212  11.27104561128592 3.262801957290114 0.4111870423922496  11.27906250017655 3.254331242219455 0.3338960439928111  10.38597579518506 2.867012597336809 0.7199845726733796  10.50553413790165 2.926260345734927 0.6687577565154686  10.42352621306582 3.00935485153486 0.6450080127376409  10.51168247745898 2.95323493436447 0.728875750648652  10.41663932832074 2.985648450437385 0.5827775234735273  10.37909386297332 2.836625807466086 0.6635661525693652  10.49933243393605 2.899285787614975 0.6086773879309719  10.40958096234889 2.961915840690379 0.5205930665724945  10.37207474989733 2.806241018570995 0.6071701229124833  10.49294771961653 2.872304183628473 0.5486580301294932  10.40221222441875 2.938141232263062 0.4584378831521286  10.3648658183682 2.775951559315541 0.5506953645098178  10.48625009781324 2.845336592621499 0.4886450140280667  10.54584382645324 2.82772352419246 0.7246439033589372  10.53945877898703 2.79602454449733 0.6688206901979644  10.53294977628977 2.764318894152006 0.6130138298327922  10.5262057077465 2.732693773675694 0.5571726567948395  10.79541539731056 3.447390351303541 0.6765143682937617  10.90888587466884 3.492167513821753 0.6823636788168987  10.80177159112135 3.583393017676845 0.690462511580587  10.90438435579549 3.48702803564371 0.7585948583168105  10.79458609732773 3.444603190821187 0.7513542845297971  10.80230586441624 3.59588887404832 0.6156049804152365  10.79656797670751 3.450569134436331 0.6018625298559958  10.91359582394132 3.497735935417475 0.6063692496492622  10.80303304701152 3.608638907119645 0.540946338499062  10.79790128018726 3.454068762089186 0.5273301545802149  10.91844831491902 3.503630862381758 0.5305976281836654  10.80390482339722 3.621687913642811 0.4664481499721027  10.79935018124136 3.457867670692103 0.4529086565429024  10.9234553699372 3.509917973381055 0.4550018460652153  10.80464921405837 3.634761339907845 0.3921407962546373  10.80065347705735 3.461661943000718 0.3786648262904392  10.92844154057484 3.516408449860244 0.379634283696535  10.80481837022023 3.64730482992437 0.3180222030189621  10.80136455680391 3.464907623691339 0.3046451561845107  10.93283500069382 3.522351691059204 0.3045784590234946  10.47500968854649 2.718187589242954 0.7318662750420475  10.46775856062894 2.685271539409608 0.6792417518293123  10.46033658542897 2.652426997848382 0.6265722280375664  11.57064418071022 3.195206404326329 0.7636592940543275  11.4556476983767 3.178054982475429 0.7605169077889418  11.47060339880916 3.304840898242374 0.736836302739368  11.46130096044237 3.162689455424584 0.6806952464873098  11.57386544577776 3.178968733950205 0.6808109237732364  11.47684426570543 3.292912212535971 0.6542439746791174  11.46661347715631 3.147298405378685 0.6008310990751033  11.57687214163809 3.162409492253981 0.5978800523091858  11.47170223349148 3.131933451394576 0.520936623905875  11.57978310150711 3.145754305601014 0.5149050454736782  11.47660947660209 3.116806239290023 0.4409931120717997  11.58251953795179 3.129358598952423 0.4319526185704062  11.48112598606486 3.102036893834757 0.3608541985128901  11.58488037384488 3.114108312472211 0.3489100903427229  10.89322184185652 3.368915817571676 0.7578998001120343  10.89807730336409 3.367656424245213 0.6829885806109741  10.90307063175788 3.366811528073908 0.6082869589685127  10.90818509412129 3.366324033545253 0.5337298658702517  10.91339087637806 3.366173926819669 0.4592723442874187  10.91853703525784 3.366163622594476 0.3849513566279908  10.92311649594749 3.365585001787665 0.3108667463614353  11.22323081437661 2.868411418881021 0.9136505814810811  11.2106794218 2.764462106452654 0.9540312736773855  11.0939893769449 2.793411967804736 0.9348613147653421  11.09553565476017 2.765937266099147 0.8712062995297748  11.21280050997127 2.738214996902065 0.8880984193594258  11.22750933665045 2.843380824349909 0.8457735778342539  11.096916588244 2.738493508681874 0.8075516713720762  11.21467632411854 2.711973711231343 0.8221303867196958  11.23146348651558 2.818373662179135 0.777882484313566  11.09815644947539 2.710989337424174 0.7439045072248988  11.21636306768493 2.685649090334242 0.7561330388010569  11.23516824407709 2.793295044027779 0.7099805291675482  11.09926612671254 2.683348818276732 0.6802857150283208  11.2178977025439 2.659144464856725 0.6901267826979983  11.23868205238942 2.768046040884657 0.6420901271270827  11.10025412542435 2.655522893345925 0.6167376418910194  11.21932084821265 2.632369986745728 0.6241567087004017  11.2420410216293 2.742548336381549 0.574239416862487  11.10110898597045 2.627544846938278 0.5533180039633226  11.22064992855837 2.60531290736127 0.5582961230988277  11.24522896275321 2.716829302221371 0.5064430775608356  11.13519757875452 3.407029638969911 0.6235653097528484  11.14407429322618 3.4055689107941 0.5460616901624387  11.15290323355558 3.404376356439739 0.468720209862429  11.1617043993644 3.403416174361986 0.3915170566360662  11.17011415706492 3.402125732240079 0.3145504507826988  11.6959999999998 3.145253532903014 0.5920758631979965  11.58771177749115 3.280447560477912 0.5695413132752162  11.6959999999998 3.165275120434357 0.6777882969395063  11.58921433020375 3.26544412051232 0.4843576210190553  11.6959999999998 3.125020712078932 0.5062068228437194  11.59048039590023 3.250788481278484 0.3994212039719791  11.69599999999979 3.105222417760368 0.4201619964543842  11.59150476182884 3.237041928403959 0.314670146441036  11.69599999999979 3.08814800077786 0.3339701005291071  11.69599999999955 2.984877574157977 0.9024312083981301  11.5723743864594 2.980275274883606 0.9015967755291309  11.57694715838481 3.095894616725067 0.8690701070126814  11.57998150694754 3.076612766431273 0.7886554052536507  11.57506754736775 2.95787115681501 0.8237362487859217  11.69599999999956 2.96215081991526 0.8212746932312123  11.58223102115513 3.057020460095169 0.7078372483149621  11.57711389372295 2.935251384490709 0.7454959272157961  11.69599999999956 2.939092664733017 0.7397006992947921  11.58417152873516 3.03705708370383 0.6266586635554604  11.57889140153121 2.912425093749165 0.6668383901115966  11.69599999999957 2.915790360545579 0.6576364333279163  11.58601277079402 3.016846279388655 0.54512332
[...]
<CellData  Scalars="f">
<DataArray  type="Float64"  Name="f"  format="ascii">18446744073709551615 18446744073709551615 18446744073709551615 18446744073709551615 18446744073709551615 18446744073709551615 18446744073709551615 18446744073709551615 18446744073709551615 18446744073709551615 18446744073709551615 18446744073709551615 18446744073709551615 18446744073709551615 18446744073709551615 18446744073709551615 18446744073709551615 18446744073709551615 18446744073709551615 18446744073709551615 18446744073709551615 18446744073709551615 18446744073709551615 18446744073709551615 18446744073709551615 18446744073709551615 18446744073709551615 18446744073709551615 18446744073709551615 18446744073709551615 18446744073709551615 18446744073709551615 18446744073709551615 18446744073709551615 18446744073709551615 18446744073709551615 18446744073709551615 18446744073709551615 18446744073709551615 18446744073709551615 18446744073709551615 18446744073709551615 18446744073709551615 18446744073709551615 18446744073709551615 18446744073709551615 18446744073709551615 18446744073709551615 18446744073709551615 18446744073709551615 18446744073709551615 18446744073709551615 18446744073709551615 18446744073709551615 18446744073709551615 18446744073709551615 18446744073709551615 18446744073709551615 18446744073709551615 18446744073709551615 1 18446744073709551615 18446744073709551615 18446744073709551615 1 18446744073709551615 18446744073709551615 18446744073709551615 18446744073709551615 18446744073709551615 1 18446744073709551615 18446744073709551615 18446744073709551615 18446744073709551615 18446744073709551615 1 18446744073709551615 18446744073709551615 18446744073709551615 18446744073709551615 18446744073709551615 18446744073709551615 1 18446744073709551615 18446744073709551615 18446744073709551615 18446744073709551615 18446744073709551615 18446744073709551615 18446744073709551615 18446744073709551615 1 18446744073709551615 18446744073709551615 18446744073709551615 1 18446744073709551615 18446744073709551615 18446744073709551615 18446744073709551615 18446744073709551615 18446744073709551615 18446744073709551615 18446744073709551615 18446744073709551615 18446744073709551615 18446744073709551615 18446744073709551615 18446744073709551615 18446744073709551615 18446744073709551615 18446744073709551615 18446744073709551615 18446744073709551615 18446744073709551615 18446744073709551615 18446744073709551615 18446744073709551615 18446744073709551615 18446744073709551615 18446744073709551615 18446744073709551615 18446744073709551615 18446744073709551615 18446744073709551615 18446744073709551615 18446744073709551615 18446744073709551615 18446744073709551615 18446744073709551615 18446744073709551615 18446744073709551615 18446744073709551615 18446744073709551615 18446744073709551615 18446744073709551615 18446744073709551615 18446744073709551615 18446744073709551615 18446744073709551615 18446744073709551615 18446744073709551615 18446744073709551615 18446744073709551615 18446744073709551615 18446744073709551615 18446744073709551615 18446744073709551615 18446744073709551615 18446744073709551615 18446744073709551615 18446744073709551615 18446744073709551615 18446744073709551615 18446744073709551615 18446744073709551615 18446744073709551615 18446744073709551615 18446744073709551615 18446744073709551615 18446744073709551615 18446744073709551615 18446744073709551615 18446744073709551615 18446744073709551615 18446744073709551615 1 18446744073709551615 18446744073709551615 1 18446744073709551615 18446744073709551615 1 18446744073709551615 18446744073709551615 18446744073709551615 18446744073709551615 18446744073709551615 18446744073709551615 18446744073709551615 18446744073709551615 18446744073709551615 18446744073709551615 18446744073709551615 1 18446744073709551615 1 18446744073709551615 18446744073709551615 18446744073709551615 18446744073709551615 1 18446744073709551615 18446744073709551615 18446744073709551615 18446744073709551615 18446744073709551615 1 18446744073709551615 18446744073709551615 18446744073709551615 18446744073709551615 18446744073709551615 18446744073709551615 18446744073709551615 18446744073709551615 1 18446744073709551615 18446744073709551615 18446744073709551615 18446744073709551615 18446744073709551615 18446744073709551615 18446744073709551615 18446744073709551615 1 18446744073709551615 18446744073709551615 18446744073709551615 1 18446744073709551615 1 18446744073709551615 18446744073709551615 18446744073709551615 18446744073709551615 18446744073709551615 18446744073709551615 18446744073709551615 18446744073709551615 18446744073709551615 18446744073709551615 18446744073709551615 18446744073709551615 18446744073709551615 18446744073709551615 18446744073709551615 18446744073709551615 18446744073709551615 18446744073709551615 18446744073709551615 18446744073709551615 18446744073709551615 18446744073709551615 18446744073709551615 18446744073709551615 18446744073709551615 18446744073709551615 18446744073709551615 18446744073709551615 18446744073709551615 18446744073709551615 18446744073709551615 18446744073709551615 18446744073709551615 18446744073709551615 18446744073709551615 18446744073709551615 18446744073709551615 18446744073709551615 18446744073709551615 18446744073709551615 18446744073709551615 18446744073709551615 18446744073709551615 18446744073709551615 18446744073709551615 18446744073709551615 18446744073709551615 18446744073709551615 18446744073709551615 18446744073709551615 18446744073709551615 18446744073709551615 18446744073709551615 18446744073709551615 18446744073709551615 18446744073709551615 18446744073709551615 18446744073709551615 18446744073709551615 18446744073709551615 18446744073709551615 18446744073709551615 18446744073709551615 18446744073709551615 18446744073709551615 18446744073709551615 18446744073709551615 18446744073709551615 18446744073709551615 18446744073709551615 18446744073709551615 18446744073709551615 18446744073709551615 18446744073709551615 18446744073709551615 18446744073709551615 18446744073709551615 18446744073709551615 18446744073709551615 18446744073709551615 18446744073709551615 18446744073709551615 18446744073709551615 18446744073709551615 18446744073709551615 18446744073709551615 18446744073709551615 18446744073709551615 18446744073709551615 18446744073709551615 18446744073709551615 18446744073709551615 18446744073709551615 18446744073709551615 18446744073709551615 18446744073709551615 18446744073709551615 18446744073709551615 18446744073709551615 18446744073709551615 18446744073709551615 18446744073709551615 18446744073709551615 18446744073709551615 18446744073709551615 18446744073709551615 18446744073709551615 18446744073709551615 18446744073709551615 18446744073709551615 18446744073709551615 18446744073709551615 18446744073709551615 18446744073709551615 18446744073709551615 18446744073709551615 18446744073709551615 18446744073709551615 18446744073709551615 18446744073709551615 18446744073709551615 18446744073709551615 18446744073709551615 18446744073709551615 18446744073709551615 18446744073709551615 18446744073709551615 18446744073709551615 18446744073709551615 18446744073709551615 18446744073709551615 18446744073709551615 18446744073709551615 18446744073709551615 18446744073709551615 18446744073709551615 18446744073709551615 18446744073709551615 18446744073709551615 18446744073709551615 18446744073709551615 18446744073709551615 18446744073709551615 18446744073709551615 18446744073709551615 18446744073709551615 18446744073709551615 18446744073709551615 18446744073709551615 18446744073709551615 18446744073709551615 18446744073709551615 18446744073709551615 18446744073709551615 18446744073709551615 18446744073709551615 18446744073709551615 18446744073709551615 18446744073709551615 18446744073709551615 18446744073709551615 18446744073709551615 18446744073709551615 18446744073709551615 18446744073709551615 18446744073709551615 18446744073709551615 18446744073709551615 18446744073709551615 18446744073709551615 18446744073709551615 18446744073709551615 18446744073709551615 18446744073709551615 18446744073709551615 18446744073709551615 18446744073709551615 18446744073709551615 18446744073709551615 18446744073709551615 18446744073709551615 18446744073709551615 18446744073709551615 18446744073709551615 18446744073709551615 18446744073709551615 18446744073709551615 18446744073709551615 18446744073709551615 18446744073709551615 18446744073709551615 18446744073709551615 18446744073709551615 18446744073709551615 18446744073709551615 18446744073709551615 18446744073709551615 18446744073709551615 18446744073709551615 18446744073709551615 18446744073709551615 18446744073709551615 18446744073709551615 18446744073709551615 18446744073709551615 18446744073709551615 18446744073709551615 18446744073709551615 18446744073709551615 18446744073709551615 18446744073709551615 18446744073709551615 18446744073709551615 18446744073709551615 18446744073709551615 18446744073709551615 18446744073709551615 18446744073709551615 18446744073709551615 18446744073709551615 18446744073709551615 18446744073709551615 18446744073709551615 18446744073709551615 18446744073709551615 18446744073709551615 18446744073709551615 18446744073709551615 18446744073709551615 18446744073709551615 18446744073709551615 18446744073709551615 18446744073709551615 18446744073709551615 18446744073709551615 18446744073709551615 18446744073709551615 18446744073709551615 18446744073709551615 18446744073709551615 18446744073709551615 18446744073709551615 18446744073709551615 18446744073709551615 18446744073709551615 18446744073709551615 18446744073709551615 18446744073709551615 18446744073709551615 18446744073709551615 18446744073709551615 18446744073709551615 18446744073709551615 18446744073709551615 18446744073709551615 18446744073709551615 18446744073709551615 18446744073709551615 18446744073709551615 18446744073709551615 18446744073709551615 18446744073709551615 18446744073709551615 18446744073709551615 18446744073709551615 18446744073709551615 18446744073709551615 18446744073709551615 18446744073709551615 18446744073709551615 18446744073709551615 18446744073709551615 18446744073709551615 18446744073709551615 18446744073709551615 18446744073709551615 18446744073709551615 18446744073709551615 18446744073709551615 18446744073709551615 18446744073709551615 18446744073709551615 18446744073709551615 18446744073709551615 18446744073709551615 18446744073709551615 18446744073709551615 18446744073709551615 18446744073709551615 18446744073709551615 18446744073709551615 18446744073709551615 18446744073709551615 18446744073709551615 18446744073709551615 18446744073709551615 18446744073709551615 18446744073709551615 18446744073709551615 18446744073709551615 18446744073709551615 18446744073709551615 18446744073709551615 18446744073709551615 18446744073709551615 18446744073709551615 18446744073709551615 18446744073709551615 18446744073709551615 18446744073709551615 18446744073709551615 18446744073709551615 18446744073709551615 18446744073709551615 18446744073709551615 18446744073709551615 18446744073709551615 18446744073709551615 18446744073709551615 18446744073709551615 18446744073709551615 18446744073709551615 18446744073709551615 18446744073709551615 18446744073709551615 18446744073709551615 18446744073709551615 18446744073709551615 18446744073709551615 18446744073709551615 18446744073709551615 18446744073709551615 18446744073709551615 18446744073709551615 18446744073709551615 18446744073709551615 18446744073709551615 18446744073709551615 18446744073709551615 18446744073709551615 18446744073709551615 18446744073709551615 18446744073709551615 5 18446744073709551615 5 5 18446744073709551615 18446744073709551615 5 5 5 5 18446744073709551615 18446744073709551615 5 5 5 5 5 5 5 18446744073709551615 18446744073709551615 18446744073709551615 18446744073709551615 18446744073709551615 18446744073709551615 18446744073709551615 18446744073709551615 18446744073709551615 18446744073709551615 18446744073709551615 18446744073709551615 18446744073709551615 18446744073709551615 18446744073709551615 18446744073709551615 18446744073709551615 18446744073709551615 18446744073709551615 18446744073709551615 18446744073709551615 18446744073709551615 18446744073709551615 18446744073709551615 18446744073709551615 18446744073709551615 18446744073709551615 18446744073709551615 18446744073709551615 18446744073709551615 18446744073709551615 18446744073709551615 18446744073709551615 18446744073709551615 18446744073709551615 18446744073709551615 18446744073709551615 18446744073709551615 18446744073709551615 18446744073709551615 18446744073709551615 18446744073709551615 18446744073709551615 18446744073709551615 18446744073709551615 18446744073709551615 18446744073709551615 18446744073709551615 18446744073709551615 18446744073709551615 18446744073709551615 18446744073709551615 18446744073709551615 18446744073709551615 18446744073709551615 18446744073709551615 18446744073709551615 18446744073709551615 18446744073709551615 18446744073709551615 18446744073709551615 18446744073709551615 18446744073709551615 18446744073709551615 18446744073709551615 18446744073709551615 18446744073709551615 18446744073709551615 18446744073709551615 18446744073709551615 18446744073709551615 18446744073709551615 18446744073709551615 18446744073709551615 18446744073709551615 18446744073709551615 18446744073709551615 18446744073709551615 18446744073709551615 18446744073709551615 18446744073709551615 18446744073709551615 18446744073709551615 18446744073709551615 18446744073709551615 18446744073709551615 18446744073709551615 18446744073709551615 18446744073709551615 18446744073709551615 18446744073709551615 18446744073709551615 18446744073709551615 18446744073709551615 18446744073709551615 18446744073709551615 18446744073709551615 18446744073709551615 18446744073709551615 18446744073709551615 18446744073709551615 18446744073709551615 18446744073709551615 18446744073709551615 18446744073709551615 18446744073709551615 18446744073709551615 18446744073709551615 18446744073709551615 18446744073709551615 18446744073709551615 18446744073709551615 18446744073709551615 18446744073709551615 18446744073709551615 18446744073709551615 18446744073709551615 18446744073709551615 18446744073709551615 18446744073709551615 18446744073709551615 18446744073709551615 18446744073709551615 18446744073709551615 18446744073709551615 18446744073709551615 18446744073709551615 18446744073709551615 18446744073709551615 18446744073709551615 18446744073709551615 18446744073709551615 18446744073709551615 18446744073709551615 18446744073709551615 18446744073709551615 18446744073709551615 18446744073709551615 18446744073709551615 18446744073709551615 18446744073709551615 18446744073709551615 18446744073709551615 18446744073709551615 18446744073709551615 18446744073709551615 18446744073709551615 18446744073709551615 18446744073709551615 18446744073709551615 18446744073709551615 18446744073709551615 18446744073709551615 18446744073709551615 18446744073709551615 18446744073709551615 18446744073709551615 18446744073709551615 18446744073709551615 18446744073709551615 18446744073709551615 18446744073709551615 18446744073709551615 18446744073709551615 18446744073709551615 18446744073709551615 18446744073709551615 18446744073709551615 18446744073709551615 18446744073709551615 18446744073709551615 18446744073709551615 18446744073709551615 18446744073709551615 18446744073709551615 18446744073709551615 18446744073709551615 18446744073709551615 18446744073709551615 18446744073709551615 18446744073709551615 18446744073709551615 18446744073709551615 18446744073709551615 18446744073709551615 18446744073709551615 18446744073709551615 18446744073709551615 5 18446744073709551615 5 5 18446744073709551615 18446744073709551615 5 5 5 18446744073709551615 18446744073709551615 5 5 5 5 5 5 18446744073709551615 18446744073709551615 18446744073709551615 18446744073709551615 18446744073709551615 18446744073709551615 18446744073709551615 18446744073709551615 18446744073709551615 18446744073709551615 18446744073709551615 18446744073709551615 18446744073709551615 18446744073709551615 18446744073709551615 18446744073709551615 18446744073709551615 18446744073709551615 18446744073709551615 18446744073709551615 18446744073709551615 18446744073709551615 18446744073709551615 18446744073709551615 18446744073709551615 18446744073709551615 18446744073709551615 18446744073709551615 18446744073709551615 18446744073709551615 18446744073709551615 18446744073709551615 18446744073709551615 18446744073709551615 18446744073709551615 18446744073709551615 18446744073709551615 18446744073709551615 18446744073709551615 5 5 5 18446744073709551615 18446744073709551615 18446744073709551615 18446744073709551615 18446744073709551615 18446744073709551615 18446744073709551615 18446744073709551615 18446744073709551615 18446744073709551615 18446744073709551615 18446744073709551615 18446744073709551615 18446744073709551615 18446744073709551615 18446744073709551615 18446744073709551615 18446744073709551615 18446744073709551615 18446744073709551615 18446744073709551615 18446744073709551615 18446744073709551615 18446744073709551615 18446744073709551615 18446744073709551615 18446744073709551615 18446744073709551615 18446744073709551615 18446744073709551615 18446744073709551615 18446744073709551615 18446744073709551615 18446744073709551615 18446744073709551615 18446744073709551615 18446744073709551615 18446744073709551615 18446744073709551615 18446744073709551615 18446744073709551615 18446744073709551615 18446744073709551615 18446744073709551615 18446744073709551615 18446744073709551615 18446744073709551615 18446744073709551615 18446744073709551615 18446744073709551615 18446744073709551615 18446744073709551615 18446744073709551615 18446744073709551615 18446744073709551615 18446744073709551615 18446744073709551615 18446744073709551615 18446744073709551615 18446744073709551615 18446744073709551615 18446744073709551615 18446744073709551615 18446744073709551615 18446744073709551615 18446744073709551615 18446744073709551615 18446744073709551615 18446744073709551615 18446744073709551615 18446744073709551615 18446744073709551615 18446744073709551615 18446744073709551615 18446744073709551615 18446744073709551615 18446744073709551615 18446744073709551615 18446744073709551615 18446744073709551615 18446744073709551615 18446744073709551615 18446744073709551615 18446744073709551615 18446744073709551615 18446744073709551615 18446744073709551615 18446744073709551615 18446744073709551615 18446744073709551615 18446744073709551615 18446744073709551615 18446744073709551615 18446744073709551615 18446744073709551615 18446744073709551615 18446744073709551615 18446744073709551615 18446744073709551615 18446744073709551615 18446744073709551615 18446744073709551615 18446744073709551615 18446744073709551615 18446744073709551615 18446744073709551615 18446744073709551615 18446744073709551615 18446744073709551615 18446744073709551615 18446744073709551615 18446744073709551615 18446744073709551615 18446744073709551615 18446744073709551615 18446744073709551615 18446744073709551615 18446744073709551615 18446744073709551615 18446744073709551615 18446744073709551615 18446744073709551615 18446744073709551615 18446744073709551615 18446744073709551615 5 5 5 18446744073709551615 18446744073709551615 18446744073709551615 18446744073709551615 18446744073709551615 18446744073709551615 18446744073709551615 18446744073709551615 18446744073709551615 18446744073709551615 18446744073709551615 18446744073709551615 18446744073709551615 18446744073709551615 18446744073709551615 18446744073709551615 18446744073709551615 18446744073709551615 18446744073709551615 18446744073709551615 18446744073709551615 18446744073709551615 18446744073709551615 18446744073709551615 18446744073709551615 18446744073709551615 18446744073709551615 18446744073709551615 18446744073709551615 18446744073709551615 18446744073709551615 18446744073709551615 18446744073709551615 18446744073709551615