<?xml version="1.0"?>
<VTKFile type="UnstructuredGrid"  version="0.1"  >
<UnstructuredGrid>
<Piece  NumberOfPoints="907" NumberOfCells="8248">
<Points>
<DataArray  type="Float64"  NumberOfComponents="3"  format="ascii">10.10045521657062 3.293531735918288 3.825672093657032  9.999230122857304 3.338935986229512 3.810729469843685  9.994608010491566 3.225259736244798 3.855491712405533  10.00328720448549 3.243528652932193 3.919760468420326  10.00404089133932 3.364408668619846 3.872219962209264  10.1040087490871 3.313722129144391 3.889571991261783  10.01176718085974 3.261617343990179 3.984158431946041  10.00867100552684 3.389730705202493 3.933875881713112  10.10739282852106 3.333746126972152 3.953620347215611  10.02017767936987 3.279636607614367 4.048637589784755  10.01324026731882 3.415010847291644 3.995624725730937  10.11072689706094 3.353724727905309 4.017766154144434  10.02860884934516 3.297634790674067 4.113166503951819  10.01784198890073 3.440294933427788 4.057427395824183  10.11408566871473 3.37371346543202 4.081993663837004  10.03714507755204 3.315637275164977 4.177727736049881  10.02256601064767 3.465601877383448 4.119267409944608  10.11754272014504 3.393758414603044 4.146333550073638  10.04591182118902 3.333713936424501 4.24230775208205  10.0274831095871 3.491010323740006 4.181202787987784  10.12117405315929 3.413916307591572 4.210831668926923  9.893096170225924 3.330077343770696 3.833672421559524  9.905774755572454 3.356428025994557 3.894331500217075  9.918170480203765 3.382655957839717 3.955147568735568  9.930475934842628 3.408841909501477 4.016034100584051  9.942793908941693 3.435019784023454 4.076962643743848  9.955226458833868 3.461218868689701 4.137926192204388  9.968088342313413 3.487478009283688 4.198904696657757  11.22027256534307 3.40222901225823 3.85454117254729  11.10646757849812 3.449300911462444 3.847526579787437  11.12816760235449 3.300719467809368 3.88211795634372  11.12831729586418 3.312382080016084 3.957410545420423  11.10667032579176 3.474435834057848 3.919497229380423  11.22508676287257 3.423093684747557 3.929043891133441  11.12788672981287 3.324540546424619 4.033326386387512  11.10620822668665 3.500203122043558 3.991812209566691  11.22932654476267 3.444509010139467 4.004039534416878  11.12751858140675 3.336559236704844 4.109780686064419  11.10567604691895 3.526019293577355 4.064523855388624  11.23347257611505 3.466007375020362 4.079503782722763  11.12736677405303 3.348343991980814 4.186686156153021  11.10533847834396 3.551670037266237 4.137667848234967  11.23778983842065 3.487322875493047 4.15544533091413  11.12753611581866 3.359859673118375 4.263941351153577  11.10528348545215 3.577127065984915 4.211210022139908  11.33833691247257 3.606449898726171 3.765428245767453  11.22737042915379 3.651319631365714 3.745762915125434  11.24501673406783 3.514393842378047 3.815030730490832  11.2494863354982 3.544466093569929 3.886844892315334  11.22967829200146 3.68924190319141 3.812944655494883  11.34341226225927 3.642117170971847 3.8360626872306  11.25335836328585 3.575163964777782 3.958940426505383  11.2313585020569 3.727969754621862 3.88019942862092  11.3479480184488 3.678338840373875 3.906863352158182  11.25701621002787 3.606080972148116 4.031346210269246  11.2328706258029 3.767034542358842 3.947660464179648  11.3522103071009 3.714888153531346 3.977921198182944  11.26077022373748 3.636923988621573 4.104185629210338  11.12972298639628 3.559160763293529 3.799701555511974  11.13157586993024 3.592676465822859 3.867964576162187  11.13273226985218 3.626998075786641 3.936413773506048  11.1337299115799 3.661546132854512 4.005170182272516  11.13490614898046 3.696004165112172 4.074329246551769  11.23452846260831 3.806143300636851 4.015450352149493  11.13631446178138 3.730310265307658 4.143843158498667  11.23641587419255 3.845196745526386 4.083531442332861  11.26478455745907 3.667586407845545 4.177494266261454  11.13808670488373 3.764350715728959 4.213705755506349  11.23846742649318 3.883940717901376 4.152075690308184  11.26922531575589 3.698012872189707 4.251240888311938  11.02592719204289 3.356927700447487 3.871529562720231  11.02074413812643 3.372527044954023 3.944757657083393  11.01491273544522 3.388642555400844 4.018418868626366  11.00910022103363 3.40469931224681 4.092529665098298  11.00349587504219 3.420561977145282 4.167050727569352  10.99812914900095 3.436212546924387 4.241926036529883  10.99296280228038 3.451632859702217 4.317067245739326  11.10561566951118 3.60238570524308 4.285094363195813  11.12813036138452 3.371073283511951 4.341412006902889  11.01264015688984 3.103512938842689 3.880227554981657  10.99768839394744 3.236201096457173 3.882692402997097  10.89376429885509 3.116146738822561 3.872063214753127  10.88717469763933 3.112728698127314 3.943569526157944  10.99156075224353 3.240678136461127 3.956419494312618  11.00681124425663 3.099437675137855 3.953230799629381  10.87987356237169 3.109539406494005 4.015445381289377  10.58718739178 2.734468728367945 3.755590821094529  10.48751734637475 2.782747069861092 3.786650030751518  10.43965512213669 2.685511229502358 3.745291184893484  10.49275087227719 2.755311386874674 3.846242782797103  10.58834542072091 2.70551067320654 3.814255844458176  10.44492812938021 2.654017380569688 3.801164497216909  10.44986604579261 2.62248275253082 3.857050120509756  10.4976453557154 2.727803183643757 3.905888702761987  10.58903878287996 2.676507931019178 3.872980354063186  10.45466212405963 2.590811973066798 3.912929281016329  10.50238061908829 2.700169963667341 3.965571129643345  10.58954116326533 2.647361192003084 3.931775029521597  10.45946271485597 2.559029554073442 3.968810283730468  10.50710807719057 2.672428526260293 4.025296371587392  10.59003645650531 2.618077731646715 3.990648288964139  10.46442872065801 2.527169447366398 4.024695256264224  10.51199790093579 2.644599288311082 4.085070704323408  10.59070897961152 2.588676104500949 4.049607438490846  10.46976671729514 2.495280986163312 4.0805808595456  10.51727927716981 2.616692222391031 4.144881552637595  10.59180279983473 2.559180617194078 4.108677064611218  10.35204244906966 2.745102922356313 3.781893309685821  10.3590978401933 2.716505552269851 3.839879987493279  10.3658770826219 2.687851059792783 3.897859410311332  10.37252662826485 2.659095516877744 3.955832755056588  10.37915901406854 2.630237123777676 4.013789423777498  10.38591910671468 2.60132578393836 4.071722686413564  10.39297168020563 2.572432328489583 4.129612461500612  10.22714218446491 2.499671907047054 3.650742519174957  10.17559076700641 2.583978335555361 3.72519410526843  10.08875119795249 2.513979942380256 3.696150375730881  10.10146552481744 2.477429091930211 3.744503398572769  10.1879101848493 2.550215252700371 3.776703454098197  10.23734831237523 2.462269554318218 3.697838127556013  10.1140854374311 2.440887882370117 3.792770608038874  10.20008697654344 2.516433331896004 3.82813495774211  10.24738646216845 2.424866590213925 3.744874586993416  10.12664202604905 2.404335546185845 3.840959975043084  10.21217815851347 2.482617554819887 3.879502285179022  10.25732616841812 2.387435349466427 3.7918515214541  10.13918922359216 2.367772283880911 3.889083516253449  10.22426355718074 2.448758542389639 3.930802193496978  10.26725611036796 2.349966905025503 3.838767326563246  10.15176243967613 2.331204863562607 3.937134424756459  10.23640663535157 2.414885274362156 3.982035101421086  10.2772637688343 2.312482806580424 3.885605313495555  10.16437135477321 2.29466306567557 3.985101413060985  10.24863587757056 2.381044085322099 4.03317589101934  10.28741412112204 2.275058206789197 3.932336839896532  10.55385693084774 3.299301982798235 3.842066391120655  10.44486759903734 3.356253114539994 3.814966838313879  10.43858401180963 3.23019869042502 3.845676586276192  10.43422289816873 3.243116374449972 3.913094684282623  10.43899976117007 3.379190298060498 3.879423651455768  10.54916238479957 3.315812272112813 3.909661302494017  10.42967740511789 3.255900567849523 3.980650568351616  10.43298416203604 3.402073871172842 3.944045437267897  10.54423047690153 3.33231570282728 3.977418564890222  10.4250468329502 3.268646823287927 4.048351231415962  10.4268889268537 3.424964443297608 4.008830924726626  10.53916305422581 3.34880320540034 4.045378632432238  10.42040377586532 3.281396888434362 4.116199480250197  10.42077170489747 3.447894362483728 4.073793302566035  10.53406573581842 3.365302173009138 4.113550556091881  10.41580320257627 3.294185213792526 4.184179277546915  10.4146906116987 3.470896464199434 4.138929686048152  10.52903742205148 3.381845403723521 4.181944947151332  10.41130200794403 3.307044230446324 4.25224881926985  10.40869159172784 3.494013895866037 4.204203247401731  10.52421553455618 3.398477027496297 4.250540976598409  10.8734038973923 3.245282944607351 3.873192033976506  10.86709714407755 3.250377285225843 3.945233879042415  10.86012377248867 3.255802685105238 4.017573720978861  10.98470045859888 3.245594588665201 4.030631441065367  10.85307094938928 3.261150295409646 4.090290214685904  10.97784672239451 3.250376814430231 4.105295344384887  10.87244435141503 3.10622459097664 4.087697686216067  10.84612003468313 3.266351712222693 4.163359774813489  10.97117607261415 3.254936975470192 4.180366036948178  10.86509782021127 3.102742648107024 4.160302731240062  10.83933601195696 3.271388700645796 4.236748998279187  10.96475212831028 3.25925504230042 4.25579375185621  10.85794953655279 3.099069717557737 4.233235401324775  10.83274927652493 3.276227746670259 4.310460206186168  10.95857347735059 3.263313567831136 4.33153176767031  10.85101508739241 3.095201994054771 4.306482872981959  10.12637646979407 2.430668481356252 3.618146127633232  10.13860371174572 2.390917216307432 3.661551429028437  10.15075353221287 2.351189064137341 3.704864953776991  10.56508243584415 3.38661548443976 3.813591193858065  10.55950585570254 3.410110804543109 3.878629723226813  10.55371379935314 3.433680718413158 3.94384613995878  10.54777403532469 3.457267865547121 4.0092909
[...]
<CellData  Scalars="f">
<DataArray  type="Float64"  Name="f"  format="ascii">1 18446744073709551615 18446744073709551615 1 18446744073709551615 18446744073709551615 1 18446744073709551615 18446744073709551615 18446744073709551615 18446744073709551615 18446744073709551615 18446744073709551615 18446744073709551615 18446744073709551615 18446744073709551615 18446744073709551615 18446744073709551615 1 18446744073709551615 18446744073709551615 18446744073709551615 1 18446744073709551615 18446744073709551615 18446744073709551615 1 18446744073709551615 18446744073709551615 18446744073709551615 18446744073709551615 1 18446744073709551615 18446744073709551615 18446744073709551615 18446744073709551615 18446744073709551615 18446744073709551615 18446744073709551615 1 18446744073709551615 18446744073709551615 1 18446744073709551615 18446744073709551615 18446744073709551615 18446744073709551615 18446744073709551615 18446744073709551615 18446744073709551615 18446744073709551615 18446744073709551615 18446744073709551615 1 18446744073709551615 18446744073709551615 18446744073709551615 1 18446744073709551615 18446744073709551615 1 18446744073709551615 18446744073709551615 1 18446744073709551615 18446744073709551615 18446744073709551615 18446744073709551615 18446744073709551615 18446744073709551615 18446744073709551615 18446744073709551615 18446744073709551615 18446744073709551615 18446744073709551615 18446744073709551615 18446744073709551615 18446744073709551615 18446744073709551615 18446744073709551615 18446744073709551615 18446744073709551615 18446744073709551615 18446744073709551615 18446744073709551615 18446744073709551615 18446744073709551615 18446744073709551615 18446744073709551615 18446744073709551615 18446744073709551615 18446744073709551615 18446744073709551615 18446744073709551615 18446744073709551615 18446744073709551615 18446744073709551615 18446744073709551615 18446744073709551615 18446744073709551615 18446744073709551615 18446744073709551615 18446744073709551615 18446744073709551615 18446744073709551615 18446744073709551615 18446744073709551615 18446744073709551615 18446744073709551615 18446744073709551615 18446744073709551615 18446744073709551615 18446744073709551615 18446744073709551615 18446744073709551615 18446744073709551615 18446744073709551615 18446744073709551615 18446744073709551615 18446744073709551615 18446744073709551615 18446744073709551615 18446744073709551615 18446744073709551615 18446744073709551615 18446744073709551615 18446744073709551615 18446744073709551615 18446744073709551615 18446744073709551615 18446744073709551615 18446744073709551615 18446744073709551615 18446744073709551615 18446744073709551615 18446744073709551615 18446744073709551615 18446744073709551615 18446744073709551615 18446744073709551615 18446744073709551615 18446744073709551615 18446744073709551615 18446744073709551615 18446744073709551615 18446744073709551615 18446744073709551615 18446744073709551615 18446744073709551615 18446744073709551615 18446744073709551615 18446744073709551615 18446744073709551615 18446744073709551615 18446744073709551615 18446744073709551615 18446744073709551615 18446744073709551615 18446744073709551615 18446744073709551615 18446744073709551615 18446744073709551615 18446744073709551615 18446744073709551615 18446744073709551615 18446744073709551615 18446744073709551615 18446744073709551615 18446744073709551615 18446744073709551615 18446744073709551615 18446744073709551615 18446744073709551615 18446744073709551615 18446744073709551615 18446744073709551615 18446744073709551615 18446744073709551615 18446744073709551615 18446744073709551615 18446744073709551615 18446744073709551615 18446744073709551615 18446744073709551615 18446744073709551615 18446744073709551615 18446744073709551615 18446744073709551615 18446744073709551615 18446744073709551615 18446744073709551615 18446744073709551615 18446744073709551615 18446744073709551615 18446744073709551615 18446744073709551615 18446744073709551615 18446744073709551615 18446744073709551615 18446744073709551615 18446744073709551615 18446744073709551615 18446744073709551615 18446744073709551615 18446744073709551615 18446744073709551615 18446744073709551615 18446744073709551615 18446744073709551615 18446744073709551615 18446744073709551615 18446744073709551615 18446744073709551615 18446744073709551615 18446744073709551615 18446744073709551615 18446744073709551615 18446744073709551615 18446744073709551615 18446744073709551615 18446744073709551615 18446744073709551615 18446744073709551615 18446744073709551615 18446744073709551615 18446744073709551615 18446744073709551615 18446744073709551615 18446744073709551615 18446744073709551615 18446744073709551615 18446744073709551615 18446744073709551615 18446744073709551615 18446744073709551615 18446744073709551615 18446744073709551615 18446744073709551615 18446744073709551615 18446744073709551615 18446744073709551615 18446744073709551615 18446744073709551615 18446744073709551615 18446744073709551615 18446744073709551615 18446744073709551615 18446744073709551615 18446744073709551615 18446744073709551615 18446744073709551615 18446744073709551615 18446744073709551615 18446744073709551615 18446744073709551615 18446744073709551615 18446744073709551615 18446744073709551615 18446744073709551615 18446744073709551615 18446744073709551615 18446744073709551615 18446744073709551615 18446744073709551615 18446744073709551615 18446744073709551615 18446744073709551615 18446744073709551615 18446744073709551615 18446744073709551615 18446744073709551615 18446744073709551615 18446744073709551615 18446744073709551615 18446744073709551615 18446744073709551615 18446744073709551615 18446744073709551615 18446744073709551615 18446744073709551615 18446744073709551615 18446744073709551615 18446744073709551615 18446744073709551615 18446744073709551615 18446744073709551615 18446744073709551615 18446744073709551615 18446744073709551615 18446744073709551615 18446744073709551615 18446744073709551615 18446744073709551615 18446744073709551615 18446744073709551615 18446744073709551615 18446744073709551615 18446744073709551615 18446744073709551615 18446744073709551615 18446744073709551615 18446744073709551615 18446744073709551615 18446744073709551615 18446744073709551615 18446744073709551615 18446744073709551615 18446744073709551615 18446744073709551615 18446744073709551615 18446744073709551615 18446744073709551615 18446744073709551615 18446744073709551615 18446744073709551615 18446744073709551615 18446744073709551615 18446744073709551615 18446744073709551615 18446744073709551615 18446744073709551615 18446744073709551615 18446744073709551615 18446744073709551615 18446744073709551615 18446744073709551615 18446744073709551615 18446744073709551615 18446744073709551615 18446744073709551615 18446744073709551615 18446744073709551615 18446744073709551615 18446744073709551615 18446744073709551615 18446744073709551615 18446744073709551615 18446744073709551615 18446744073709551615 18446744073709551615 18446744073709551615 18446744073709551615 18446744073709551615 18446744073709551615 18446744073709551615 18446744073709551615 18446744073709551615 18446744073709551615 18446744073709551615 18446744073709551615 18446744073709551615 18446744073709551615 18446744073709551615 18446744073709551615 18446744073709551615 18446744073709551615 18446744073709551615 18446744073709551615 18446744073709551615 18446744073709551615 18446744073709551615 18446744073709551615 18446744073709551615 18446744073709551615 18446744073709551615 18446744073709551615 18446744073709551615 18446744073709551615 18446744073709551615 18446744073709551615 18446744073709551615 18446744073709551615 18446744073709551615 18446744073709551615 18446744073709551615 18446744073709551615 18446744073709551615 18446744073709551615 18446744073709551615 18446744073709551615 18446744073709551615 18446744073709551615 18446744073709551615 18446744073709551615 18446744073709551615 18446744073709551615 18446744073709551615 18446744073709551615 18446744073709551615 18446744073709551615 18446744073709551615 18446744073709551615 18446744073709551615 18446744073709551615 18446744073709551615 18446744073709551615 18446744073709551615 18446744073709551615 18446744073709551615 18446744073709551615 18446744073709551615 18446744073709551615 18446744073709551615 18446744073709551615 18446744073709551615 18446744073709551615 18446744073709551615 18446744073709551615 18446744073709551615 5 18446744073709551615 5 5 18446744073709551615 18446744073709551615 5 5 5 5 5 18446744073709551615 18446744073709551615 5 5 5 5 5 18446744073709551615 18446744073709551615 18446744073709551615 18446744073709551615 18446744073709551615 18446744073709551615 18446744073709551615 18446744073709551615 18446744073709551615 18446744073709551615 18446744073709551615 18446744073709551615 18446744073709551615 18446744073709551615 18446744073709551615 18446744073709551615 18446744073709551615 18446744073709551615 18446744073709551615 18446744073709551615 18446744073709551615 18446744073709551615 18446744073709551615 18446744073709551615 1 18446744073709551615 18446744073709551615 1 18446744073709551615 18446744073709551615 18446744073709551615 18446744073709551615 18446744073709551615 18446744073709551615 18446744073709551615 18446744073709551615 18446744073709551615 1 18446744073709551615 18446744073709551615 18446744073709551615 18446744073709551615 18446744073709551615 18446744073709551615 18446744073709551615 18446744073709551615 18446744073709551615 1 18446744073709551615 18446744073709551615 18446744073709551615 1 18446744073709551615 18446744073709551615 18446744073709551615 1 18446744073709551615 18446744073709551615 18446744073709551615 1 18446744073709551615 18446744073709551615 18446744073709551615 18446744073709551615 18446744073709551615 18446744073709551615 1 18446744073709551615 18446744073709551615 18446744073709551615 18446744073709551615 18446744073709551615 18446744073709551615 18446744073709551615 18446744073709551615 18446744073709551615 18446744073709551615 18446744073709551615 18446744073709551615 18446744073709551615 18446744073709551615 18446744073709551615 18446744073709551615 18446744073709551615 18446744073709551615 18446744073709551615 18446744073709551615 18446744073709551615 18446744073709551615 18446744073709551615 18446744073709551615 18446744073709551615 18446744073709551615 18446744073709551615 18446744073709551615 18446744073709551615 18446744073709551615 18446744073709551615 18446744073709551615 18446744073709551615 18446744073709551615 18446744073709551615 18446744073709551615 18446744073709551615 18446744073709551615 18446744073709551615 18446744073709551615 18446744073709551615 18446744073709551615 18446744073709551615 18446744073709551615 18446744073709551615 18446744073709551615 18446744073709551615 18446744073709551615 18446744073709551615 18446744073709551615 18446744073709551615 18446744073709551615 18446744073709551615 18446744073709551615 18446744073709551615 18446744073709551615 18446744073709551615 18446744073709551615 18446744073709551615 18446744073709551615 18446744073709551615 18446744073709551615 18446744073709551615 18446744073709551615 18446744073709551615 18446744073709551615 18446744073709551615 18446744073709551615 18446744073709551615 18446744073709551615 18446744073709551615 18446744073709551615 18446744073709551615 18446744073709551615 18446744073709551615 18446744073709551615 18446744073709551615 18446744073709551615 18446744073709551615 18446744073709551615 18446744073709551615 18446744073709551615 18446744073709551615 18446744073709551615 18446744073709551615 18446744073709551615 18446744073709551615 18446744073709551615 18446744073709551615 18446744073709551615 18446744073709551615 18446744073709551615 18446744073709551615 18446744073709551615 18446744073709551615 18446744073709551615 18446744073709551615 18446744073709551615 18446744073709551615 18446744073709551615 18446744073709551615 18446744073709551615 18446744073709551615 18446744073709551615 18446744073709551615 18446744073709551615 18446744073709551615 18446744073709551615 18446744073709551615 18446744073709551615 18446744073709551615 18446744073709551615 18446744073709551615 18446744073709551615 18446744073709551615 18446744073709551615 18446744073709551615 18446744073709551615 18446744073709551615 18446744073709551615 18446744073709551615 18446744073709551615 18446744073709551615 18446744073709551615 18446744073709551615 18446744073709551615 18446744073709551615 18446744073709551615 18446744073709551615 18446744073709551615 18446744073709551615 18446744073709551615 18446744073709551615 18446744073709551615 18446744073709551615 18446744073709551615 18446744073709551615 18446744073709551615 18446744073709551615 18446744073709551615 18446744073709551615 18446744073709551615 18446744073709551615 18446744073709551615 18446744073709551615 18446744073709551615 18446744073709551615 18446744073709551615 18446744073709551615 18446744073709551615 18446744073709551615 18446744073709551615 18446744073709551615 18446744073709551615 18446744073709551615 18446744073709551615 18446744073709551615 18446744073709551615 18446744073709551615 18446744073709551615 18446744073709551615 18446744073709551615 18446744073709551615 18446744073709551615 18446744073709551615 18446744073709551615 18446744073709551615 18446744073709551615 18446744073709551615 18446744073709551615 18446744073709551615 18446744073709551615 18446744073709551615 18446744073709551615 18446744073709551615 18446744073709551615 18446744073709551615 18446744073709551615 18446744073709551615 18446744073709551615 18446744073709551615 18446744073709551615 18446744073709551615 18446744073709551615 18446744073709551615 18446744073709551615 18446744073709551615 18446744073709551615 18446744073709551615 18446744073709551615 18446744073709551615 18446744073709551615 18446744073709551615 18446744073709551615 18446744073709551615 18446744073709551615 18446744073709551615 18446744073709551615 18446744073709551615 18446744073709551615 18446744073709551615 18446744073709551615 18446744073709551615 18446744073709551615 18446744073709551615 18446744073709551615 18446744073709551615 18446744073709551615 18446744073709551615 18446744073709551615 18446744073709551615 18446744073709551615 18446744073709551615 18446744073709551615 18446744073709551615 18446744073709551615 1 18446744073709551615 18446744073709551615 18446744073709551615 18446744073709551615 18446744073709551615 18446744073709551615 18446744073709551615 1 18446744073709551615 18446744073709551615 18446744073709551615 18446744073709551615 18446744073709551615 18446744073709551615 1 18446744073709551615 18446744073709551615 18446744073709551615 18446744073709551615 18446744073709551615 18446744073709551615 18446744073709551615 18446744073709551615 18446744073709551615 18446744073709551615 18446744073709551615 18446744073709551615 18446744073709551615 18446744073709551615 18446744073709551615 18446744073709551615 18446744073709551615 18446744073709551615 18446744073709551615 18446744073709551615 18446744073709551615 18446744073709551615 18446744073709551615 18446744073709551615 18446744073709551615 18446744073709551615 18446744073709551615 18446744073709551615 18446744073709551615 18446744073709551615 18446744073709551615 18446744073709551615 18446744073709551615 18446744073709551615 18446744073709551615 18446744073709551615 18446744073709551615 18446744073709551615 18446744073709551615 18446744073709551615 18446744073709551615 18446744073709551615 18446744073709551615 18446744073709551615 18446744073709551615 18446744073709551615 18446744073709551615 18446744073709551615 18446744073709551615 18446744073709551615 18446744073709551615 18446744073709551615 18446744073709551615 18446744073709551615 18446744073709551615 18446744073709551615 18446744073709551615 18446744073709551615 18446744073709551615 18446744073709551615 18446744073709551615 18446744073709551615 18446744073709551615 18446744073709551615 18446744073709551615 18446744073709551615 18446744073709551615 18446744073709551615 18446744073709551615 18446744073709551615 18446744073709551615 18446744073709551615 1 18446744073709551615 18446744073709551615 18446744073709551615 18446744073709551615 18446744073709551615 18446744073709551615 18446744073709551615 18446744073709551615 18446744073709551615 18446744073709551615 18446744073709551615 18446744073709551615 18446744073709551615 18446744073709551615 18446744073709551615 18446744073709551615 18446744073709551615 18446744073709551615 18446744073709551615 18446744073709551615 18446744073709551615 18446744073709551615 18446744073709551615 18446744073709551615 18446744073709551615 18446744073709551615 18446744073709551615 18446744073709551615 18446744073709551615 18446744073709551615 18446744073709551615 18446744073709551615 18446744073709551615 18446744073709551615 18446744073709551615 18446744073709551615 18446744073709551615 18446744073709551615 18446744073709551615 18446744073709551615 18446744073709551615 18446744073709551615 18446744073709551615 18446744073709551615 18446744073709551615 18446744073709551615 18446744073709551615 18446744073709551615 18446744073709551615 18446744073709551615 18446744073709551615 18446744073709551615 18446744073709551615 18446744073709551615 18446744073709551615 18446744073709551615 18446744073709551615 18446744073709551615 18446744073709551615 18446744073709551615 18446744073709551615 5 5 5 5 5 18446744073709551615 18446744073709551615 18446744073709551615 1 18446744073709551615 18446744073709551615 1 18446744073709551615 18446744073709551615 18446744073709551615 18446744073709551615 18446744073709551615 18446744073709551615 18446744073709551615 18446744073709551615 18446744073709551615 18446744073709551615 18446744073709551615 18446744073709551615 18446744073709551615 18446744073709551615 18446744073709551615 18446744073709551615 18446744073709551615 18446744073709551615 18446744073709551615 18446744073709551615 18446744073709551615 18446744073709551615 18446744073709551615 18446744073709551615 18446744073709551615 18446744073709551615 18446744073709551615 18446744073709551615 18446744073709551615 18446744073709551615 18446744073709551615 18446744073709551615 18446744073709551615 18446744073709551615 18446744073709551615 18446744073709551615 18446744073709551615 18446744073709551615 18446744073709551615 18446744073709551615 18446744073709551615 18446744073709551615 18446744073709551615 18446744073709551615 18446744073709551615 18446744073709551615 18446744073709551615 18446744073709551615 18446744073709551615 18446744073709551615 18446744073709551615 18446744073709551615 18446744073709551615 18446744073709551615 18446744073709551615 18446744073709551615 18446744073709551615 18446744073709551615 18446744073709551615 18446744073709551615 18446744073709551615 18446744073709551615 18446744073709551615 5 5 18446744073709551615 5 18446744073709551615 18446744073709551615 5 5 5 18446744073709551615 1 18446744073709551615 18446744073709551615 18446744073709551615 1 18446744073709551615 18446744073709551615 18446744073709551615 18446744073709551615 18446744073709551615 18446744073709551615 1 18446744073709551615 18446744073709551615 18446744073709551615 18446744073709551615 18446744073709551615 18446744073709551615 18446744073709551615 18446744073709551615 1 18446744073709551615 18446744073709551615 18446744073709551615 18446744073709551615 18446744073709551615 18446744073709551615 18446744073709551615 18446744073709551615 1 18446744073709551615 18446744073709551615 18446744073709551615 1 18446744073709551615 18446744073709551615 1 18446744073709551615 18446744073709551615 18446744073709551615 18446744073709551615 18446744073709551615 18446744073709551615 18446744073709551615 18446744073709551615 18446744073709551615 18446744073709551615 18446744073709551615 18446744073709551615 18446744073709551615 18446744073709551615 18446744073709551615 18446744073709551615 18446744073709551615 18446744073709551615 18446744073709551615 1844