<?xml version="1.0"?>
<VTKFile type="UnstructuredGrid"  version="0.1"  >
<UnstructuredGrid>
<Piece  NumberOfPoints="934" NumberOfCells="8498">
<Points>
<DataArray  type="Float64"  NumberOfComponents="3"  format="ascii">10.07384440300009 2.867652484362122 0.9988838334446792  9.93931560719645 2.815101466761392 1.051050733987825  9.972738172891157 2.934112266050224 0.9668503211896008  9.966072047269039 2.901635181611891 0.9128863177250769  9.934516069071915 2.781267878291238 1.001625738178947  10.06696030311994 2.833465962994294 0.9481019443133691  9.959425842429894 2.868856994805843 0.8590909179282473  9.929711494901305 2.747144366367842 0.9524412765447831  10.06008245655884 2.799001357269962 0.8975152002216805  9.95278325559406 2.835976620972172 0.8053732376148013  9.92490258874807 2.712907453786039 0.9033980831585973  10.0532050958024 2.764435935544013 0.8470299281852292  9.946129900526962 2.803116658790247 0.7516709527348717  9.920096470145698 2.678690890365685 0.8544063500451768  10.04632293512113 2.729890198317852 0.7965732375092558  9.939460190019917 2.770381152397388 0.6979083909238133  9.915300380269773 2.644616220544734 0.8053699015624201  10.03943943288159 2.695470892622834 0.7460583757039911  9.932749269500627 2.737852492527875 0.6439964423955952  9.910498489260396 2.610823167979525 0.7561635029332682  10.03251298238264 2.661270348854075 0.6953791571812216  9.350511439924658 3.162138770013453 0.8966186477687174  9.26965448208697 3.081672899924245 0.9191460833001595  9.263271739308633 3.238084433147525 0.8763435746775989  9.262872140308993 3.22601070431736 0.8051752274675313  9.271622758159587 3.060384006489111 0.8535791692480279  9.351187253587479 3.142651685476552 0.8292522679299522  9.26240853776925 3.213751180117589 0.733913560642102  9.273534846636771 3.038804546815204 0.7880334926727247  9.351807290098886 3.122882712186131 0.7618336724784768  9.261935947569997 3.20142038253765 0.6626000649462945  9.275432567309071 3.017092491956594 0.7224935656959957  9.35241632091868 3.103007129545416 0.6943829097834149  9.261493536319891 3.189077763420605 0.5912471214181007  9.277347716704959 2.995366508777518 0.6569394984423224  9.353051844496871 3.083132123176804 0.6269018665447744  9.261094845013268 3.176728999697758 0.5198536553581996  9.279296049802248 2.973695287403544 0.5913461455316951  9.353724886925367 3.063300209020748 0.5593783481323974  9.260764262830198 3.164364157280502 0.4484232670932624  9.281270745017054 2.952107981440859 0.5256783448076479  9.354456063229101 3.043507255540911 0.4917708227661201  9.080237711021361 2.893522927711913 1.005355680057042  9.000711149869074 2.83767445648032 1.037110542082258  9.00257713282733 2.949979667718978 0.9715234459800299  9.003738622348529 2.917445577691455 0.9131358420170691  9.001778035516782 2.802820622614381 0.9838453316914378  9.081144789381318 2.86045819393353 0.9492955683396157  9.08199722560939 2.827090334808742 0.8934280906023784  9.002809496475955 2.767707440580363 0.9308092620318847  9.00483688066152 2.884612512838711 0.8549033258405183  9.082812674231189 2.793595619573789 0.8376800395471681  9.003794465369024 2.73247061508124 0.8779307273165275  9.005898949728728 2.85165501749769 0.7967643709005591  9.083618248901201 2.760115805064863 0.7819844117171799  9.004752948517082 2.697252218387885 0.8251382351072292  9.006952612769849 2.818706249407749 0.7386751878168047  9.084451090602613 2.726760354965029 0.7262646939947003  9.005737634189856 2.662190528908788 0.7723461938831596  9.008043840628719 2.785865873367932 0.6805762647790377  9.085356948715509 2.69359514032057 0.6704365090126344  9.006841085146839 2.627383971758307 0.719437003206412  9.009230397931196 2.753189833045593 0.6223860831935671  8.738273892225832 3.3118247077079 0.4322225138742335  8.837501500802297 3.499114543745765 0.4337973580064732  8.740474433796612 3.567986477056323 0.4607958403906466  8.846567050057155 3.484980938487497 0.5080780663312883  10.19481257844674 2.809744342929746 1.020059488659643  10.05865846271482 2.76875844033121 1.067307503553064  10.05230722486923 2.734536464381002 1.019447774305598  10.18704876176698 2.77549394396123 0.9710205221928658  10.04593226164397 2.700080936157511 0.9718503759113888  10.17927667814061 2.74102517403932 0.9221715315242937  10.17149678397162 2.70648272971731 0.8734226161829463  9.257879442574032 3.591159013944347 0.9030199296974351  9.266733287971041 3.497763852283948 0.877850130551697  9.146965131682423 3.500911066242058 0.8746005811692209  9.145845883275847 3.515332408103231 0.7995290042308756  9.269189491781457 3.508897321559913 0.8031180492487491  9.25768892179509 3.611752859882385 0.8295791996146857  9.257365371026342 3.632442522871406 0.7560355214695431  9.27148984559658 3.520080738763534 0.7282625905232292  9.144601100666611 3.529813882812118 0.7243516710600192  9.257015439028381 3.653142027959643 0.682378739466903  9.273768396372759 3.531236871130363 0.6533002951650895  9.143357317738964 3.544271367389051 0.6490791275963017  9.256698162700216 3.673786383518599 0.6086226631729904  9.276087197668318 3.542335330581436 0.5782358056846384  9.142159012423269 3.558658635240415 0.5737136815177279  9.256462608252876 3.69433723064919 0.5347664854371642  9.278501793026091 3.553343777532971 0.5030679345137707  9.14104506416871 3.572954830101217 0.49825413921107  9.256372460247624 3.714752355572168 0.4608331243106355  9.281101723235663 3.564249505208751 0.4278064295203984  9.140038679461398 3.587140248174871 0.4227158892209166  9.160170747239473 3.173109795920301 0.8907192016801886  9.163220849219673 3.158062961420822 0.8210537501547105  9.166214666111349 3.142762908410091 0.7513239881783267  9.169204001506944 3.127357181335034 0.6815664716145735  9.172228023206156 3.111936307163047 0.6117863718297508  9.175302701761087 3.096529715685377 0.5419742454869846  9.17843724107205 3.081132991820814 0.4721056232457567  9.144707309636424 3.687359636104954 0.7713909736938518  9.139270072511929 3.714828561206808 0.6992384443686697  9.133853566717406 3.742245173393607 0.6269837940528757  9.128491505056788 3.769551088386543 0.5546325720877358  9.123193814811097 3.796720357382269 0.4821923619888018  8.886544996414328 2.802697155851299 0.8233541392721412  8.888374559447191 2.770207176432746 0.766613542042348  8.890223412425486 2.737837664392813 0.709888700418765  8.892195276637361 2.705696217547315 0.6530979335962824  9.85185774129512 2.911757460360321 0.9939006603498605  9.847175327759908 2.879312249476642 0.9403954907264164  9.842498638695352 2.846546464394858 0.8870856532570887  9.837822860456761 2.813660094346977 0.8338745668729011  9.833141729845511 2.780791900521159 0.7806878891071518  9.828453310092838 2.748060318815519 0.7274449662327792  9.823752883394334 2.71556920362365 0.6740362605121265  9.847695615739813 2.727875111028909 1.11629520946713  9.702545002656825 2.790691499961276 1.080929238554814  9.818649464927089 2.826472518961221 1.051640428255898  9.815683624432513 2.793010056066469 1.001335639490827  9.700927523734594 2.757372995871647 1.031474393310399  9.845066466495563 2.694233333241985 1.069071243638798  9.812722381100185 2.759248040099919 0.9512890953324004  9.699315029833844 2.723760887413524 0.9822867652456457  9.842438869343168 2.660327690481051 1.022130500479531  9.80976301371825 2.725368784406286 0.9013878189975402  9.697704182304063 2.690030144119397 0.9332624432303274  9.839808760660933 2.626325958130546 0.9753666695272787  9.806806195947354 2.691514014777515 0.8515403338351936  9.696094762244559 2.656327625320703 0.8843051395934466  9.837187388156787 2.592365385238431 0.9286869473454841  9.803853587865341 2.657813666128577 0.8016500291869924  9.694485744978085 2.622790203920719 0.8353137609429636  9.834588459623598 2.558586582556873 0.8819939279308822  9.800883284500777 2.624406215250466 0.7515936791857923  9.692861928863529 2.589563617169488 0.7861644461718198  9.831983165156368 2.525147728811515 0.8351411432729851  8.876826816950969 3.285745659546069 0.4048861299209668  8.882135222105706 3.288164895870832 0.480056619814562  10.16911179495576 2.896078986190219 0.9657255348985637  10.1611579758216 2.861645172953466 0.9142827472438497  10.15323102580535 2.826955279815269 0.8629897767030401  10.14531242434632 2.79218165614691 0.8117665866157199  10.13738378931533 2.757425834935403 0.7605597446770562  10.16372059100857 2.671966077661929 0.8247024320384952  10.12942492818859 2.722763476676497 0.7092985953683225  9.741494298258445 2.644909142970767 1.111370612533811  9.740076835306542 2.611348209615262 1.065628387926166  9.738656494682528 2.577692651003504 1.020084251648944  9.73723959967943 2.544081694430429 0.9746456610364885  9.735836760113202 2.510663076892862 0.9292082536873212  9.734435353382217 2.477610706915257 0.8836186249809862  9.855066468183308 3.385759315260843 0.8407162290331425  9.822522426812681 3.281936564342686 0.8515017966298501  9.715158869837284 3.369244500365312 0.8560541100976971  9.708649432437005 3.368167801250249 0.7843268312263274  9.815653508098251 3.271546482664168 0.7818648311205448  9.847138613231827 3.385187606899786 0.7691041915837924  9.702100442682838 3.367081604002637 0.7124293445202649  9.808789097655 3.261040957174672 0.7120881773085442  9.839214212643521 3.384623972786666 0.6973192173402909  9.695524047574734 3.365944659179143 0.6404107536175898  9.80190494584066 3.250479087312973 0.6422333167160301  9.831291526658438 3.384021929511286 0.6254148994560719  9.688925665648148 3.364720759710789 0.5682979033351279  9.794980842878036 3.23987003909518 0.572318312179007  9.823341409749347 3.383343290375134 0.5534174330555461  9.682317317462106 3.363420680701255 0.4960774517373291  9.788006854692958 3.229198731737004 0.5023199164664596  9.815325444270437 3.382531634670443 0.4813249940008359  9.675739044999718 3.362052079978362 0.4237363186280203  9.781038621549811 3.218480084549831 0.43217355608825  9.807293219020698 3.381631791087206 0.409079551533875  9.793514396636791 3.466637652593837 0.8520860475735
[...]
<CellData  Scalars="f">
<DataArray  type="Float64"  Name="f"  format="ascii">1 18446744073709551615 18446744073709551615 1 18446744073709551615 18446744073709551615 1 18446744073709551615 18446744073709551615 18446744073709551615 18446744073709551615 18446744073709551615 18446744073709551615 18446744073709551615 18446744073709551615 18446744073709551615 18446744073709551615 1 18446744073709551615 18446744073709551615 1 18446744073709551615 18446744073709551615 18446744073709551615 18446744073709551615 18446744073709551615 1 18446744073709551615 18446744073709551615 18446744073709551615 18446744073709551615 1 18446744073709551615 18446744073709551615 18446744073709551615 18446744073709551615 18446744073709551615 18446744073709551615 18446744073709551615 18446744073709551615 18446744073709551615 1 18446744073709551615 18446744073709551615 18446744073709551615 1 18446744073709551615 18446744073709551615 1 18446744073709551615 18446744073709551615 1 18446744073709551615 18446744073709551615 18446744073709551615 18446744073709551615 18446744073709551615 18446744073709551615 18446744073709551615 18446744073709551615 18446744073709551615 18446744073709551615 1 18446744073709551615 18446744073709551615 18446744073709551615 1 18446744073709551615 1 18446744073709551615 18446744073709551615 18446744073709551615 18446744073709551615 18446744073709551615 18446744073709551615 18446744073709551615 18446744073709551615 18446744073709551615 18446744073709551615 18446744073709551615 18446744073709551615 18446744073709551615 18446744073709551615 18446744073709551615 18446744073709551615 18446744073709551615 18446744073709551615 18446744073709551615 18446744073709551615 18446744073709551615 18446744073709551615 18446744073709551615 18446744073709551615 18446744073709551615 18446744073709551615 18446744073709551615 18446744073709551615 18446744073709551615 18446744073709551615 18446744073709551615 18446744073709551615 18446744073709551615 18446744073709551615 18446744073709551615 18446744073709551615 18446744073709551615 18446744073709551615 18446744073709551615 18446744073709551615 18446744073709551615 18446744073709551615 18446744073709551615 18446744073709551615 18446744073709551615 18446744073709551615 18446744073709551615 18446744073709551615 18446744073709551615 18446744073709551615 18446744073709551615 18446744073709551615 18446744073709551615 18446744073709551615 18446744073709551615 18446744073709551615 18446744073709551615 18446744073709551615 18446744073709551615 18446744073709551615 18446744073709551615 18446744073709551615 18446744073709551615 18446744073709551615 18446744073709551615 18446744073709551615 18446744073709551615 18446744073709551615 18446744073709551615 18446744073709551615 18446744073709551615 18446744073709551615 18446744073709551615 18446744073709551615 18446744073709551615 18446744073709551615 18446744073709551615 18446744073709551615 18446744073709551615 18446744073709551615 18446744073709551615 18446744073709551615 18446744073709551615 18446744073709551615 18446744073709551615 18446744073709551615 18446744073709551615 18446744073709551615 18446744073709551615 18446744073709551615 18446744073709551615 18446744073709551615 18446744073709551615 18446744073709551615 18446744073709551615 18446744073709551615 18446744073709551615 18446744073709551615 18446744073709551615 18446744073709551615 18446744073709551615 18446744073709551615 18446744073709551615 18446744073709551615 18446744073709551615 18446744073709551615 18446744073709551615 18446744073709551615 18446744073709551615 18446744073709551615 18446744073709551615 18446744073709551615 18446744073709551615 18446744073709551615 18446744073709551615 18446744073709551615 18446744073709551615 18446744073709551615 18446744073709551615 18446744073709551615 18446744073709551615 18446744073709551615 18446744073709551615 18446744073709551615 18446744073709551615 18446744073709551615 18446744073709551615 18446744073709551615 18446744073709551615 18446744073709551615 18446744073709551615 18446744073709551615 18446744073709551615 18446744073709551615 18446744073709551615 18446744073709551615 18446744073709551615 18446744073709551615 18446744073709551615 18446744073709551615 18446744073709551615 18446744073709551615 18446744073709551615 18446744073709551615 18446744073709551615 18446744073709551615 18446744073709551615 18446744073709551615 18446744073709551615 18446744073709551615 18446744073709551615 18446744073709551615 18446744073709551615 18446744073709551615 18446744073709551615 18446744073709551615 18446744073709551615 18446744073709551615 18446744073709551615 18446744073709551615 18446744073709551615 18446744073709551615 18446744073709551615 18446744073709551615 18446744073709551615 18446744073709551615 18446744073709551615 18446744073709551615 18446744073709551615 18446744073709551615 18446744073709551615 18446744073709551615 18446744073709551615 18446744073709551615 18446744073709551615 18446744073709551615 18446744073709551615 18446744073709551615 18446744073709551615 18446744073709551615 18446744073709551615 18446744073709551615 18446744073709551615 18446744073709551615 18446744073709551615 18446744073709551615 18446744073709551615 18446744073709551615 18446744073709551615 18446744073709551615 18446744073709551615 18446744073709551615 18446744073709551615 18446744073709551615 18446744073709551615 18446744073709551615 18446744073709551615 18446744073709551615 18446744073709551615 18446744073709551615 18446744073709551615 18446744073709551615 18446744073709551615 18446744073709551615 18446744073709551615 18446744073709551615 18446744073709551615 18446744073709551615 18446744073709551615 18446744073709551615 18446744073709551615 18446744073709551615 18446744073709551615 18446744073709551615 18446744073709551615 18446744073709551615 18446744073709551615 18446744073709551615 18446744073709551615 18446744073709551615 18446744073709551615 18446744073709551615 18446744073709551615 18446744073709551615 18446744073709551615 18446744073709551615 18446744073709551615 18446744073709551615 18446744073709551615 18446744073709551615 18446744073709551615 18446744073709551615 18446744073709551615 18446744073709551615 18446744073709551615 18446744073709551615 18446744073709551615 18446744073709551615 18446744073709551615 18446744073709551615 18446744073709551615 18446744073709551615 18446744073709551615 18446744073709551615 18446744073709551615 18446744073709551615 18446744073709551615 18446744073709551615 18446744073709551615 18446744073709551615 18446744073709551615 18446744073709551615 18446744073709551615 18446744073709551615 18446744073709551615 18446744073709551615 18446744073709551615 18446744073709551615 18446744073709551615 18446744073709551615 18446744073709551615 18446744073709551615 18446744073709551615 18446744073709551615 18446744073709551615 18446744073709551615 18446744073709551615 18446744073709551615 18446744073709551615 18446744073709551615 18446744073709551615 18446744073709551615 18446744073709551615 18446744073709551615 18446744073709551615 18446744073709551615 18446744073709551615 18446744073709551615 18446744073709551615 18446744073709551615 18446744073709551615 18446744073709551615 18446744073709551615 18446744073709551615 18446744073709551615 18446744073709551615 18446744073709551615 18446744073709551615 18446744073709551615 18446744073709551615 18446744073709551615 18446744073709551615 18446744073709551615 18446744073709551615 18446744073709551615 18446744073709551615 18446744073709551615 18446744073709551615 18446744073709551615 18446744073709551615 18446744073709551615 18446744073709551615 18446744073709551615 18446744073709551615 18446744073709551615 18446744073709551615 18446744073709551615 18446744073709551615 18446744073709551615 5 18446744073709551615 5 5 18446744073709551615 18446744073709551615 5 5 5 18446744073709551615 18446744073709551615 5 5 5 1 18446744073709551615 18446744073709551615 1 18446744073709551615 18446744073709551615 1 18446744073709551615 18446744073709551615 18446744073709551615 18446744073709551615 18446744073709551615 18446744073709551615 18446744073709551615 18446744073709551615 18446744073709551615 18446744073709551615 1 18446744073709551615 1 18446744073709551615 18446744073709551615 18446744073709551615 18446744073709551615 18446744073709551615 18446744073709551615 1 18446744073709551615 18446744073709551615 18446744073709551615 18446744073709551615 18446744073709551615 18446744073709551615 18446744073709551615 18446744073709551615 18446744073709551615 1 18446744073709551615 18446744073709551615 18446744073709551615 1 18446744073709551615 18446744073709551615 18446744073709551615 1 18446744073709551615 18446744073709551615 18446744073709551615 1 18446744073709551615 18446744073709551615 18446744073709551615 18446744073709551615 18446744073709551615 18446744073709551615 18446744073709551615 18446744073709551615 1 18446744073709551615 18446744073709551615 18446744073709551615 1 18446744073709551615 18446744073709551615 18446744073709551615 1 18446744073709551615 18446744073709551615 18446744073709551615 18446744073709551615 18446744073709551615 18446744073709551615 18446744073709551615 18446744073709551615 18446744073709551615 18446744073709551615 18446744073709551615 18446744073709551615 18446744073709551615 18446744073709551615 18446744073709551615 18446744073709551615 18446744073709551615 18446744073709551615 18446744073709551615 18446744073709551615 18446744073709551615 18446744073709551615 18446744073709551615 18446744073709551615 18446744073709551615 18446744073709551615 18446744073709551615 18446744073709551615 18446744073709551615 18446744073709551615 18446744073709551615 18446744073709551615 18446744073709551615 18446744073709551615 18446744073709551615 18446744073709551615 18446744073709551615 18446744073709551615 18446744073709551615 18446744073709551615 18446744073709551615 18446744073709551615 18446744073709551615 18446744073709551615 18446744073709551615 18446744073709551615 18446744073709551615 18446744073709551615 18446744073709551615 18446744073709551615 18446744073709551615 18446744073709551615 18446744073709551615 18446744073709551615 18446744073709551615 18446744073709551615 18446744073709551615 18446744073709551615 18446744073709551615 18446744073709551615 18446744073709551615 18446744073709551615 18446744073709551615 18446744073709551615 18446744073709551615 18446744073709551615 18446744073709551615 18446744073709551615 18446744073709551615 18446744073709551615 18446744073709551615 18446744073709551615 18446744073709551615 18446744073709551615 18446744073709551615 18446744073709551615 18446744073709551615 18446744073709551615 18446744073709551615 18446744073709551615 18446744073709551615 18446744073709551615 18446744073709551615 18446744073709551615 18446744073709551615 18446744073709551615 18446744073709551615 18446744073709551615 18446744073709551615 18446744073709551615 18446744073709551615 18446744073709551615 18446744073709551615 18446744073709551615 18446744073709551615 18446744073709551615 18446744073709551615 18446744073709551615 18446744073709551615 18446744073709551615 18446744073709551615 18446744073709551615 18446744073709551615 18446744073709551615 18446744073709551615 18446744073709551615 18446744073709551615 18446744073709551615 18446744073709551615 18446744073709551615 18446744073709551615 18446744073709551615 18446744073709551615 18446744073709551615 18446744073709551615 18446744073709551615 18446744073709551615 18446744073709551615 18446744073709551615 18446744073709551615 18446744073709551615 18446744073709551615 18446744073709551615 18446744073709551615 18446744073709551615 18446744073709551615 18446744073709551615 18446744073709551615 18446744073709551615 18446744073709551615 18446744073709551615 18446744073709551615 18446744073709551615 18446744073709551615 18446744073709551615 18446744073709551615 18446744073709551615 18446744073709551615 18446744073709551615 18446744073709551615 18446744073709551615 18446744073709551615 18446744073709551615 18446744073709551615 18446744073709551615 18446744073709551615 18446744073709551615 18446744073709551615 18446744073709551615 18446744073709551615 18446744073709551615 18446744073709551615 18446744073709551615 18446744073709551615 18446744073709551615 18446744073709551615 18446744073709551615 18446744073709551615 18446744073709551615 18446744073709551615 18446744073709551615 18446744073709551615 18446744073709551615 18446744073709551615 18446744073709551615 18446744073709551615 18446744073709551615 18446744073709551615 18446744073709551615 18446744073709551615 18446744073709551615 18446744073709551615 18446744073709551615 18446744073709551615 18446744073709551615 18446744073709551615 18446744073709551615 18446744073709551615 18446744073709551615 18446744073709551615 18446744073709551615 18446744073709551615 18446744073709551615 18446744073709551615 18446744073709551615 18446744073709551615 18446744073709551615 18446744073709551615 18446744073709551615 18446744073709551615 18446744073709551615 18446744073709551615 18446744073709551615 18446744073709551615 18446744073709551615 18446744073709551615 18446744073709551615 18446744073709551615 18446744073709551615 18446744073709551615 18446744073709551615 18446744073709551615 18446744073709551615 18446744073709551615 18446744073709551615 18446744073709551615 18446744073709551615 18446744073709551615 18446744073709551615 18446744073709551615 18446744073709551615 18446744073709551615 18446744073709551615 18446744073709551615 18446744073709551615 18446744073709551615 18446744073709551615 18446744073709551615 18446744073709551615 18446744073709551615 18446744073709551615 18446744073709551615 18446744073709551615 18446744073709551615 18446744073709551615 18446744073709551615 18446744073709551615 18446744073709551615 18446744073709551615 18446744073709551615 18446744073709551615 18446744073709551615 18446744073709551615 18446744073709551615 18446744073709551615 18446744073709551615 18446744073709551615 18446744073709551615 18446744073709551615 18446744073709551615 18446744073709551615 18446744073709551615 18446744073709551615 18446744073709551615 18446744073709551615 18446744073709551615 18446744073709551615 18446744073709551615 18446744073709551615 18446744073709551615 18446744073709551615 18446744073709551615 18446744073709551615 18446744073709551615 18446744073709551615 18446744073709551615 18446744073709551615 18446744073709551615 18446744073709551615 18446744073709551615 18446744073709551615 18446744073709551615 18446744073709551615 18446744073709551615 18446744073709551615 18446744073709551615 18446744073709551615 18446744073709551615 18446744073709551615 18446744073709551615 18446744073709551615 18446744073709551615 18446744073709551615 18446744073709551615 18446744073709551615 18446744073709551615 18446744073709551615 18446744073709551615 18446744073709551615 18446744073709551615 18446744073709551615 18446744073709551615 18446744073709551615 18446744073709551615 18446744073709551615 18446744073709551615 18446744073709551615 18446744073709551615 18446744073709551615 18446744073709551615 18446744073709551615 18446744073709551615 18446744073709551615 18446744073709551615 18446744073709551615 18446744073709551615 18446744073709551615 18446744073709551615 18446744073709551615 18446744073709551615 18446744073709551615 18446744073709551615 18446744073709551615 18446744073709551615 18446744073709551615 18446744073709551615 18446744073709551615 18446744073709551615 18446744073709551615 18446744073709551615 18446744073709551615 18446744073709551615 18446744073709551615 18446744073709551615 18446744073709551615 18446744073709551615 18446744073709551615 18446744073709551615 18446744073709551615 18446744073709551615 18446744073709551615 18446744073709551615 18446744073709551615 18446744073709551615 18446744073709551615 18446744073709551615 18446744073709551615 18446744073709551615 18446744073709551615 18446744073709551615 18446744073709551615 18446744073709551615 18446744073709551615 18446744073709551615 18446744073709551615 18446744073709551615 18446744073709551615 18446744073709551615 18446744073709551615 18446744073709551615 18446744073709551615 18446744073709551615 18446744073709551615 5 18446744073709551615 5 5 18446744073709551615 18446744073709551615 5 5 5 5 18446744073709551615 18446744073709551615 5 5 5 5 5 5 1 18446744073709551615 18446744073709551615 1 18446744073709551615 18446744073709551615 1 18446744073709551615 18446744073709551615 18446744073709551615 18446744073709551615 18446744073709551615 18446744073709551615 18446744073709551615 18446744073709551615 18446744073709551615 18446744073709551615 1 18446744073709551615 18446744073709551615 18446744073709551615 1 18446744073709551615 18446744073709551615 18446744073709551615 18446744073709551615 18446744073709551615 18446744073709551615 18446744073709551615 18446744073709551615 1 18446744073709551615 18446744073709551615 18446744073709551615 1 18446744073709551615 18446744073709551615 18446744073709551615 18446744073709551615 18446744073709551615 18446744073709551615 18446744073709551615 18446744073709551615 18446744073709551615 18446744073709551615 18446744073709551615 18446744073709551615 18446744073709551615 18446744073709551615 18446744073709551615 18446744073709551615 18446744073709551615 18446744073709551615 18446744073709551615 18446744073709551615 18446744073709551615 18446744073709551615 18446744073709551615 18446744073709551615 18446744073709551615 18446744073709551615 18446744073709551615 18446744073709551615 18446744073709551615 18446744073709551615 18446744073709551615 18446744073709551615 18446744073709551615 18446744073709551615 18446744073709551615 18446744073709551615 18446744073709551615 18446744073709551615 18446744073709551615 18446744073709551615 18446744073709551615 18446744073709551615 18446744073709551615 18446744073709551615 18446744073709551615 18446744073709551615 18446744073709551615 18446744073709551615 18446744073709551615 18446744073709551615 18446744073709551615 18446744073709551615 18446744073709551615 18446744073709551615 18446744073709551615 18446744073709551615 18446744073709551615 18446744073709551615 18446744073709551615 18446744073709551615 18446744073709551615 18446744073709551615 18446744073709551615 18446744073709551615 18446744073709551615 18446744073709551615 18446744073709551615 18446744073709551615 18446744073709551615 18446744073709551615 18446744073709551615 18446744073709551615 18446744073709551615 18446744073709551615 18446744073709551615 18446744073709551615 18446744073709551615 18446744073709551615 18446744073709551615 18446744073709551615 18446744073709551615 18446744073709551615 18446744073709551615 18446744073709551615 18446744073709551615 18446744073709551615 18446744073709551615 18446744073709551615 18446744073709551615 18446744073709551615 18446744073709551615 18446744073709551615 18446744073709551615 18446744073709551615 18446744073709551615 18446744073709551615 18446744073709551615 18446744073709551615 18446744073709551615 18446744073709551615 18446744073709551615 18446744073709551615 18446744073709551615 18446744073709551615 18446744073709551615 18446744073709551615 18446744073709551615 18446744073709551615 18446744073709551615 18446744073709551615 18446744073709551615 18446744073709551615 18446744073709551615 18446744073709551615 18446744073709551615 18446744073709551615 18446744073709551615 18446744073709551615 18446744073709551615 18446744073709551615 18446744073709551615 18446744073709551615 18446744073709551615 18446744073709551615 18446744073709551615 18446744073709551615 18446744073709551615 18446744073709551615 18446744073709551615 18446744073709551615 18446744073709551615 18446744073709551615 18446744073709551615 18446744073709551615 18446744073709551615 18446744073709551615 18446744073709551615 18446744073709551615 18446744073709551615 18446744073709551615 18446744073709551615 18446744073709551615 18446744073709551615 18446744073709551615 18446744073709551615 18446744