<?xml version="1.0"?>
<VTKFile type="UnstructuredGrid"  version="0.1"  >
<UnstructuredGrid>
<Piece  NumberOfPoints="673" NumberOfCells="2799">
<Points>
<DataArray  type="Float64"  NumberOfComponents="3"  format="ascii">9.110747725794669 2.138052330453744 1.473437160513647  9.005307589058482 2.110191301780934 1.473325871788899  9.066032942585505 2.215280195139028 1.430135301919425  9.07162355752358 2.192164402533042 1.38243733966309  9.012473665710187 2.087283616673989 1.42497174124746  9.11644742530828 2.1148059591856 1.425478514831641  9.077199916701501 2.169076243492801 1.334974158191225  9.019624951031915 2.064451882544189 1.376831785549784  9.122096300865362 2.091633986253709 1.377753791827352  9.082745952382398 2.146009614980637 1.28777010782208  9.026757616248629 2.041685358099113 1.328922888563356  9.127715905444967 2.068524249409973 1.330259815986157  9.088293008666165 2.123021737721033 1.240792134201174  9.033884271247686 2.018998222289875 1.281220330369993  9.133333840756993 2.045492600180047 1.28297621689253  9.093813878394423 2.100139873071904 1.194053707698265  9.040961320080672 1.996371261468282 1.23373799315006  9.138928503004342 2.022534365019493 1.235919316023394  9.099270310590313 2.077398514760172 1.147579820769074  9.04793963166362 1.973786254287034 1.18654735220855  9.144471360636294 1.999647677167624 1.189154069453633  8.951680934866255 2.225167131138125 1.411817685802035  8.958796762410024 2.202752101470122 1.363829378552199  8.965914722870311 2.180375463220109 1.316115795241056  8.973027615265368 2.158009839928115 1.26864066833887  8.980131324385855 2.135708007028473 1.221389223114659  8.987186342858104 2.113509466538448 1.174359375523593  8.994118903120452 2.091469128468093 1.127633197203505  9.466849198711449 2.578449723478639 1.230080434889293  9.355730603647537 2.546041600320267 1.250125225656905  9.418364833536177 2.652557687398792 1.176123933844778  9.419091734619204 2.619069819993297 1.129841456526107  9.356562913478541 2.51483043613526 1.204792538600141  9.467630978199917 2.546619642348887 1.18489352875721  9.419816063057526 2.585349640896604 1.083857637125432  9.35742362742322 2.483484375189541 1.159734510831088  9.468427599943173 2.514589483159476 1.139988217698223  9.420519489880126 2.551527269025766 1.038086908100783  9.358247374330997 2.452044765036721 1.114915927136846  9.469197479048869 2.482460412246461 1.095311801559923  9.421209352083586 2.517749519969346 0.992439510780298  9.359045264998674 2.420638358099793 1.070265525796408  9.469950848785535 2.45037133707343 1.050784694148836  9.42189790415885 2.484170737618682 0.9468039327809619  9.359848480483215 2.389425682718346 1.025686199396019  9.470703707350436 2.41847593805862 1.006304121815004  9.422580538183462 2.450956880694304 0.9010186978195266  9.360674223852151 2.358621322603519 0.9810214633753767  9.471445695185253 2.386975321054052 0.9617199036218199  9.309401897572878 2.643897165195396 1.180658337495722  9.310210978895581 2.610491935443497 1.134128388576574  9.311013093542249 2.57687528279427 1.087892606451222  9.31177761187015 2.543147885029733 1.04187828692542  9.312520638225898 2.509458662448447 0.9959977129169658  9.313268128523308 2.475964335322759 0.9501370727925305  9.314044500998317 2.442834221587371 0.9041294992976986  9.044075811797457 2.318102740634598 1.379620272643235  9.048728389421047 2.293688929741289 1.332583986876654  9.053384585493911 2.269240467940013 1.285799889844887  9.058026835841668 2.244787848586812 1.239276177951238  9.062662904416495 2.22039211099725 1.192972687941205  9.067284356587948 2.196117007730667 1.14686718986229  9.071895925727874 2.172109846789079 1.100960481896526  8.925473806357003 2.338014652530459 1.354542809644796  8.932414569627536 2.31413709004106 1.307165702440043  8.939390020398614 2.290223779844884 1.260069393055505  8.946390098485097 2.266299888712706 1.213218262937022  8.953379779143809 2.242422771804358 1.166596939412921  8.960327980334503 2.218680489670096 1.120178705346944  8.967144982138981 2.195237834488886 1.073983249267594  9.735360437995505 2.082379067119963 1.413313310173704  9.873825664083007 2.144281663536704 1.372369881353866  9.759841947803523 2.17425964256051 1.360066806899582  9.736504905532547 2.110377317317166 1.458014993811821  9.758389974834795 2.148166092414498 1.315032734992324  9.73411871513043 2.054446014774577 1.368787533500134  9.8715146221727 2.117614837878249 1.327204453532145  9.756922973293298 2.122123658923897 1.270172795185494  9.732868715307587 2.026572947666704 1.324442086237198  9.869198169246944 2.090999417927288 1.282202618524915  9.755523493683567 2.096162950954779 1.225481384132115  9.731713539443232 1.998775346297764 1.280296234905313  9.866990960530012 2.064452511735322 1.237373628336871  9.754299288813627 2.070330418198943 1.180973344108462  9.730792170005106 1.971072439811866 1.236358263739212  9.865020377979491 2.037991882249877 1.192718893306451  9.762453029215402 2.226578974391355 1.450733762831421  9.737473532880706 2.13848794366444 1.502918538732078  9.653063707303533 2.253021019610726 1.436296656050593  9.652730120541188 2.226383395414349 1.39124228667329  9.761210112682994 2.200394951097175 1.405293622012032  9.652298294561129 2.199773714351004 1.346382052779746  9.651796800736836 2.173200311032898 1.301742299284107  9.651278149068684 2.146678760213709 1.257289705452899  9.650800012739237 2.120251339023624 1.213012866701984  9.650443819648613 2.093998935355305 1.168904349576523  8.860492094895781 2.719552628102047 1.112334015305714  8.904737621558333 2.809237068624609 1.0562609449727  8.975124661946669 2.748257485378734 1.098915711906124  8.976733675045963 2.71318463964076 1.048981821823106  8.907057177464681 2.774142056351579 1.004282839414329  8.86481301783332 2.68590297731351 1.062553579903079  8.978334156251794 2.677924334793896 0.9993334145692845  8.909366444512731 2.738834124939794 0.9525724550875044  8.869165171070319 2.652069789038003 1.01303198564419  8.979911781935625 2.642586567277587 0.9498870557233506  8.911653055739281 2.703434151640005 0.9010396488054122  8.873521514124489 2.618184287604806 0.9637227720112449  8.981444766669625 2.607259828711788 0.900572452457021  8.913898195076396 2.668030337175472 0.8496217327990335  8.877846202107945 2.584326838057465 0.9145635300328327  8.98298533953489 2.572108574436369 0.8512870146827949  8.916147936910093 2.632770114991398 0.7982303868435332  8.882149590700433 2.550632507575153 0.8654706015724014  8.984641622690713 2.537287866819934 0.8018929120051429  8.918505535703279 2.597800798952305 0.7467509641777876  8.886520788166985 2.517312537729229 0.8163141954602552  9.397077487527607 2.734901183514657 1.116071312875398  9.397931477838839 2.700524909737051 1.067694539011319  9.398782460093114 2.665876007995352 1.019593844206046  9.399620897367919 2.63112009613126 0.9716777351670631  9.400450443167966 2.596408650415463 0.9238499161338991  9.401277276748781 2.561882684873807 0.8759976612015399  9.402092676745463 2.5276626214913 0.8279780168579896  8.81115143055894 2.816552454165539 1.043605217098588  8.815542065880493 2.782030771144765 0.9907960484091088  8.819952240297805 2.747313835400146 0.9382590122300077  8.824354657888923 2.712520664369387 0.8859056917097172  8.828720569374328 2.677735400003629 0.8336758854230875  8.83307568855669 2.643093040906623 0.7814914584918529  8.837511240686849 2.608756720321391 0.7292477945001974  9.608640864320487 2.165638979853152 1.489584380999816  9.609089510492369 2.138326798367036 1.444469257625093  9.609415882013202 2.111124758145892 1.399614124290363  9.609676134438788 2.084000962063303 1.35496841033132  9.609921581165512 2.056937040030925 1.310508917216899  9.610215852674949 2.029936666335737 1.266227139030808  9.610648301652205 2.003038423400418 1.222113237661177  9.279063070004884 2.7339982376504 1.114804197013476  9.279900485556741 2.699073704994566 1.066311204806797  9.280718016792829 2.663886030798369 1.018094217981215  9.281507226210886 2.628586199187676 0.9700636732973398  9.282280840571284 2.593327444317498 0.9221291378757269  9.283061377465698 2.558253955248919 0.8741788604813118  9.28387011986089 2.52348532530935 0.8260651465090556  9.06341054324424 2.679161029689192 1.150320141613527  9.062770682608031 2.758630156240954 1.093804255262423  9.0638516539282 2.723143579356813 1.043957505300404  9.064584185521225 2.644930593565311 1.102351133286357  9.064914264246582 2.687443665390063 0.9943847226683138  9.065756346809762 2.610520932177208 1.054650972722385  9.065935769898287 2.651632647771099 0.9450018861136548  9.066902599589156 2.576038971143458 1.007169109972417  9.066926300514952 2.615844055398889 0.8957309835684598  9.068005838424989 2.54157733568618 0.9598381468088525  9.067935078821813 2.580232153445875 0.8464659804797775  9.069116502837799 2.507307171464081 0.9125489725983733  9.069030566612682 2.544915111997739 0.7970559299242642  9.070323679094725 2.473406447197624 0.8651398907259291  9.674909100562633 2.344584222945763 1.382342518042051  9.562840971808361 2.379017058224531 1.361400646865817  9.67950366146721 2.436926658495852 1.327847701817603  9.679011172211689 2.408794289769054 1.283244580765309  9.563090291619501 2.352158452362775 1.316254651493972  9.67491544718858 2.31782214139671 1.337430219557676  9.678495654947806 2.380583721383938 1.238895262377566  9.563316233709211 2.325235656731656 1.271336720982082  9.674877555343224 2.291011543297168 1.29272334269036  9.67793228843159 2.352322967656812 1.194773359607276  9.56349516876773 2.298288091735382 1.226658679591539  9.674781939171934 2.26420015273712 1.248245271941346  9.677350810773431 2.324094966110051 1.150820883917281  9.563654444450133 2.271381806519747 1.182167212870955  9.674669945063156 2.237432292407378 1.203950456799474  9.676792170621637 2.296008144882878 1.106981801877618  9.563831124141139 2.244618728975151 1.137820343744835  9.674589474706464 2.210785934446857 1.159807558532133  9.676286742193126 2.268236112483121 1.063190485471004  9.56405
[...]
<PointData  Vectors="f_24"> 
<DataArray  type="Float64"  Name="f_24"  NumberOfComponents="3" format="ascii">-1.5569706804222665e-02 -9.9731758877708576e-02 -5.2213655518584971e-02  -1.3954552792268680e-02 -9.7876598539760037e-02 -4.8772836275777734e-02  -1.4604126905906688e-02 -9.9255211716143529e-02 -5.2041260440666190e-02  -1.6281335952024925e-02 -9.9604768366561819e-02 -5.2811308780748183e-02  -1.5588932891117664e-02 -9.8969992886492386e-02 -4.8793698761376514e-02  -1.7110604046130826e-02 -1.0074619710728354e-01 -5.2317620230883932e-02  -1.7933111401354299e-02 -9.9451862750335004e-02 -5.3272688472318905e-02  -1.7216945358149501e-02 -9.9449885786681055e-02 -4.8702953450117367e-02  -1.8633137264035749e-02 -1.0115655627721259e-01 -5.2272436222390320e-02  -1.9572392479640696e-02 -9.8957280596490921e-02 -5.3405122951653693e-02  -1.8838876179888900e-02 -9.9603316661455235e-02 -4.8415611418404621e-02  -2.0146402002358458e-02 -1.0122074418490651e-01 -5.2003746753390090e-02  -2.1218103101006011e-02 -9.8278594949118864e-02 -5.3141865883361346e-02  -2.0474219779550776e-02 -9.9654859089905429e-02 -4.7832224861976746e-02  -2.1666684039679883e-02 -1.0115401814488155e-01 -5.1410253747555978e-02  -2.2895905649104327e-02 -9.7582784296756250e-02 -5.2359565590889383e-02  -2.2144306837110220e-02 -9.9830065816317606e-02 -4.6828830375797749e-02  -2.3215875055053438e-02 -1.0117540723554218e-01 -5.0359404176275886e-02  -2.4641686913151030e-02 -9.7098189222126957e-02 -5.0937537023210751e-02  -2.3860892947049114e-02 -1.0036886913900957e-01 -4.5248966085174369e-02  -2.4820081254245868e-02 -1.0154451729470644e-01 -4.8707098926118686e-02  -1.2647586110686474e-02 -9.7158303547758951e-02 -4.8486360912090194e-02  -1.4458307618991048e-02 -9.7274364493369347e-02 -4.9466287108173794e-02  -1.6241268535042635e-02 -9.6926393480668796e-02 -5.0108213307255095e-02  -1.8017248199969797e-02 -9.6261305750017637e-02 -5.0415840840630659e-02  -1.9816846907312734e-02 -9.5417900951133727e-02 -5.0328451834733758e-02  -2.1678667813394194e-02 -9.4543018934186845e-02 -4.9731805234702595e-02  -2.3653013057131897e-02 -9.3840917765911275e-02 -4.8471385027097760e-02  -2.5343385176956060e-02 -9.6651823087479077e-02 -4.8340584465324896e-02  -2.2558072613820861e-02 -9.7238730794989875e-02 -4.8031446877187807e-02  -2.5130263926907107e-02 -9.1270118138005438e-02 -4.0120661277171892e-02  -2.6816727525621215e-02 -8.6863457754380924e-02 -4.3498305021800146e-02  -2.4207865111962826e-02 -9.4111602088505400e-02 -5.0967187661517969e-02  -2.6817923310658985e-02 -9.3228603685311759e-02 -5.1408463268167053e-02  -2.8434254580897798e-02 -8.2660729457422435e-02 -4.6274669631168212e-02  -2.5790137982521482e-02 -9.0965118309958029e-02 -5.3251825486308642e-02  -2.8246270382572037e-02 -8.9849157788955580e-02 -5.3838227353790437e-02  -3.0014200514459768e-02 -7.8431273907556220e-02 -4.8622780351250186e-02  -2.7336183379061390e-02 -8.7662569788004130e-02 -5.5042757205447400e-02  -2.9647737904502085e-02 -8.6346107074513512e-02 -5.5787134302551174e-02  -3.1587467049271303e-02 -7.3929323561450933e-02 -5.0690031579946108e-02  -2.8872109217873351e-02 -8.4042574293895903e-02 -5.6446025861639257e-02  -3.1042688300780299e-02 -8.2536054066392625e-02 -5.7373686651382649e-02  -3.3187876752314834e-02 -6.8883783307154195e-02 -5.2621396095580156e-02  -3.0423496352987897e-02 -7.9895007421242184e-02 -5.7550866439508692e-02  -3.2459347735213417e-02 -7.8190417459499520e-02 -5.8705374382154847e-02  -3.4857911727136107e-02 -6.2982136562047458e-02 -5.4583009726981185e-02  -3.2017061802631364e-02 -7.4945871351758092e-02 -5.8447623367904981e-02  -3.3928580234269250e-02 -7.3017864320804995e-02 -5.9861907196339076e-02  -2.2820246387563657e-02 -9.0693236541954242e-02 -3.7744803432588882e-02  -2.4664008328737597e-02 -8.6282964540205245e-02 -4.1119917673138280e-02  -2.6437990493922321e-02 -8.2072690686351618e-02 -4.3887803021434801e-02  -2.8167338671371934e-02 -7.7835738565161725e-02 -4.6225146142321129e-02  -2.9885704757351632e-02 -7.3327092948598710e-02 -4.8281307169176238e-02  -3.1629139017052603e-02 -6.8274329227426531e-02 -5.0205016475736039e-02  -3.3433626105740973e-02 -6.2357526112942534e-02 -5.2159053257602624e-02  -1.4117339065124067e-02 -9.8679599957532560e-02 -5.0251856097680750e-02  -1.5967980414670777e-02 -9.8013117669593100e-02 -5.1768492437725591e-02  -1.7756910465046370e-02 -9.6992831822792697e-02 -5.2862878908149294e-02  -1.9517217211322310e-02 -9.5672547790910833e-02 -5.3553124538926342e-02  -2.1282714320395343e-02 -9.4108673236856191e-02 -5.3812819201611545e-02  -2.3082803714632207e-02 -9.2339298545820500e-02 -5.3556962705793236e-02  -2.4943347562918567e-02 -9.0357432609227864e-02 -5.2593996189743850e-02  -1.2249079795047552e-02 -9.6162681648354245e-02 -4.5532550747822108e-02  -1.4208603516752611e-02 -9.5109317210058580e-02 -4.7295734959225746e-02  -1.6139089340376132e-02 -9.3771726508656936e-02 -4.8620566280233181e-02  -1.8053962291122709e-02 -9.2175821942792752e-02 -4.9539021199408638e-02  -1.9988417999072246e-02 -9.0349839788563160e-02 -5.0032601318755025e-02  -2.1990455710864221e-02 -8.8301451525201913e-02 -5.0020277961573399e-02  -2.4133247071349433e-02 -8.6015177926990941e-02 -4.9333473300655607e-02  -2.9080358841379991e-02 -1.0601770398483455e-01 -6.2008417602427361e-02  -3.2183194180704193e-02 -1.0507143298985692e-01 -6.5811468207891577e-02  -3.0412852915394178e-02 -1.0540076890403587e-01 -6.6076134050946159e-02  -2.8631570540589062e-02 -1.0543330262789782e-01 -6.2654523411478424e-02  -3.0877955670376434e-02 -1.0516050854690090e-01 -6.5762323912912271e-02  -2.9537680454304171e-02 -1.0628380741322373e-01 -6.1203589230618333e-02  -3.2421961127416986e-02 -1.0501673973777842e-01 -6.5322959060660893e-02  -3.1325870153837719e-02 -1.0472743638479337e-01 -6.5088210969569751e-02  -2.9981054474476385e-02 -1.0644165679521315e-01 -6.0120925115551546e-02  -3.2631789770224642e-02 -1.0480578352364020e-01 -6.4511300043668909e-02  -3.1727672211179093e-02 -1.0427476748159963e-01 -6.3938421084080294e-02  -3.0386157869404198e-02 -1.0668283000580427e-01 -5.8645084240892514e-02  -3.2773484142756777e-02 -1.0462965849194072e-01 -6.3251151391154906e-02  -3.2054285420879292e-02 -1.0401659027526948e-01 -6.2180074558531202e-02  -3.0735392756308804e-02 -1.0720297025665133e-01 -5.6683438813753491e-02  -3.2816684427172033e-02 -1.0470815269184675e-01 -6.1437509509773759e-02  -2.9549941817989180e-02 -1.0458872427535899e-01 -6.5916731316828459e-02  -2.8227097038986269e-02 -1.0425043685397724e-01 -6.3268074712017813e-02  -2.7287115695405369e-02 -1.0481156865006028e-01 -6.5036865280043848e-02  -2.7938659646086297e-02 -1.0526257243925673e-01 -6.5519315399517192e-02  -2.9959249714886668e-02 -1.0527545199548115e-01 -6.6112187353726162e-02  -2.8614366712220389e-02 -1.0518374868649413e-01 -6.5693597325896719e-02  -2.9299397483225308e-02 -1.0473878963878118e-01 -6.5535253996987369e-02  -2.9973075121922512e-02 -1.0408096478594725e-01 -6.4976297717683304e-02  -3.0613766761820756e-02 -1.0334731522799123e-01 -6.3916881539614834e-02  -3.1192566461528411e-02 -1.0267265530252466e-01 -6.2238021368049380e-02  -1.6726826012909462e-02 -7.7651667470423957e-02 -1.3614109721526929e-02  -1.9289695013557109e-02 -7.0634078954862095e-02 -5.5239549730842202e-03  -1.8903819548146711e-02 -7.7256158522340537e-02 -1.4898775670515072e-02  -2.1241224567278491e-02 -7.1539047142741535e-02 -1.8306467496058142e-02  -2.1699389927974481e-02 -6.4373098068571930e-02 -8.6598989661173364e-03  -1.9132836384370647e-02 -7.2181474845289015e-02 -1.6932216655683480e-02  -2.3467596296174967e-02 -6.6296672159799827e-02 -2.1244173608483182e-02  -2.3989579212650412e-02 -5.8740205791245698e-02 -1.1456527258163676e-02  -2.1433138098461087e-02 -6.7153503953635105e-02 -1.9786478206624648e-02  -2.5636898749000974e-02 -6.1214089906527526e-02 -2.3918102119926021e-02  -2.6228425495491370e-02 -5.3366353965883948e-02 -1.4113392160901754e-02  -2.3684433081129868e-02 -6.2268377609851683e-02 -2.2368691136496904e-02  -2.7799760864138250e-02 -5.5978041984143960e-02 -2.6506507852123964e-02  -2.8464527266098272e-02 -4.7910644271142770e-02 -1.6796704042724195e-02  -2.5934664173883484e-02 -5.7226783595347080e-02 -2.4837427127309821e-02  -3.0001222252505507e-02 -5.0279183243490629e-02 -2.9186834844406827e-02  -3.0743380579799185e-02 -4.2066634693884962e-02 -1.9673642110783457e-02  -2.8224757738166035e-02 -5.1716754606218995e-02 -2.7363561609052282e-02  -3.2276529834781624e-02 -4.3812928811686455e-02 -3.2188924426356291e-02  -3.3101504940773720e-02 -3.5564207484334115e-02 -2.2950950831470168e-02  -3.0588577563509613e-02 -4.5433348181170966e-02 -3.0150100172070645e-02  -2.5782218755785156e-02 -8.4163375285550152e-02 -3.0823664119769011e-02  -2.7625254153863407e-02 -7.8741826181917426e-02 -3.4240292322987601e-02  -2.9389550705645758e-02 -7.3707018940659313e-02 -3.7170529108758239e-02  -3.1111906776000422e-02 -6.8751197642088882e-02 -3.9775030375758198e-02  -3.2829377531303959e-02 -6.3581187282836321e-02 -4.2219949981484331e-02  -3.4578354927415601e-02 -5.7916052926286703e-02 -4.4674246781349368e-02  -3.6388194779479112e-02 -5.1483039059216792e-02 -4.7341107257055211e-02  -1.8507291895997698e-02 -6.7891955356157122e-02 -1.0928524253247325e-03  -2.0979712709425963e-02 -6.1589627827990163e-02 -4.0977583103775838e-03  -2.3331342928618777e-02 -5.5966200724466987e-02 -6.7886383427364933e-03  -2.5630738337975266e-02 -5.0613869570398692e-02 -9.3930691425170854e-03  -2.7930316025931150e-02 -4.5184692548705781e-02 -1.2064454387882473e-02  -3.0271604461138496e-02 -3.9372948007387269e-02 -1.4965019529239345e-02  -3.2693273945587631e-02 -3.2907257109026887e-02 -1.8295510486520852e-02  -2.5650889656386164e-02 -1.0438715621766453e-01 -6.2714134276927652e-02  -2.6334955367285393e-02 -1.0545902132139184e-01 -6.2424251190171941e-02  -2.7043188391032539e-02 -1.0595680287812784e-01 -6.2028236632098360e-02  -2.7755417316572190e-02 -1.0609937329291920e-01 -6.1421831554044563e-02  -2.8458682838669511e-02 -1.0608753880223924e-01 -6.0501731927666218e-02  -2.9136632092177532e-02 -1.0610391296005744e-01 -5.9151744911337151e-02  -2.9760472123719271e-02 -1.0633200030766106e-01 -5.7231969250228443e-02  -2.3630626719612802e-02 -8.2842246694215096e-02 -2.7225001389477255e-02  -2.5628083728355695e-02 -7.7357078651664135e-02 -3.0710228824118908e-02  -2.7543390791332174e-02 -7.2286857451363914e-02 -3.3687883987696607e-02  -2.9410850920085885e-02 -6.7310469901607717e-02 -3.6350798017956931e-02  -3.1270597899748329e-02 -6.2128942934770892e-02 -3.8866233698618455e-02  -3.3161630784097465e-02 -5.6452867501003104e-02 -4.1408359611279616e-02  -3.5119132099701682e-02 -5.0007095479680075e-02 -4.4177684126774849e-02  -1.8815098887538361e-02 -8.4546613689073347e-02 -2.5705558631064950e-02  -2.0440470695232034e-02 -7.7647509623755953e-02 -1.7035328973365030e-02  -2.2714966159927758e-02 -7.1837205585323222e-02 -2.0459599835553916e-02  -2.1044829496543127e-02 -7.9581938417087758e-02 -2.9157948789441501e-02  -2.4878579455362673e-02 -6.6519870712787435e-02 -2.3434919044664364e-02  -2.3161663334190202e-02 -7.4934033496336885e-02 -3.2046966100939725e-02  -2.6987638541034586e-02 -6.1360348415779864e-02 -2.6156903742636697e-02  -2.5214980016400254e-02 -7.0334979805249623e-02 -3.4568064625658000e-02  -2.9088194520291245e-02 -5.6039653731637044e-02 -2.8799601136464348e-02  -2.7257166148199532e-02 -6.5510874109352607e-02 -3.6884368210513316e-02  -3.1224061489098582e-02 -5.0254862877933494e-02 -3.1539296534301993e-02  -2.9330667862173160e-02 -6.0163192447166364e-02 -3.9163174159304634e-02  -3.3441112814454971e-02 -4.3726371018177709e-02 -3.4592827596620086e-02  -3.1469311949329122e-02 -5.3972006918719236e-02 -4.1604726719878804e-02  -2.8447345459239399e-02 -1.0454852665353231e-01 -6.4951966115754170e-02  -2.5989913341033316e-02 -1.0396627446150772e-01 -6.2336042988068573e-02  -2.9091172695327010e-02 -1.0327479994737855e-01 -6.2131391627657309e-02  -2.9926819781840266e-02 -1.0184444228220518e-01 -6.4078311184100623e-02  -2.6979255925116071e-02 -1.0306425394417199e-01 -6.3923119608675180e-02  -2.9145030550257342e-02 -1.0413922381698150e-01 -6.6188720497156656e-02  -3.0758323425167211e-02 -1.0013276218061166e-01 -6.5508134581997307e-02  -2.7971427993261192e-02 -1.0179794324729351e-01 -6.5010245565917515e-02  -2.9875200900419389e-02 -1.0329053493333963e-01 -6.6990734414866873e-02  -3.1585273069221334e-02 -9.8146793640156313e-02 -6.6474419707310300e-02  -2.8958050988930454e-02 -1.0020210737677240e-01 -6.5653455963231744e-02  -3.0610828668205872e-02 -1.0210300599866109e-01 -6.7375807255588158e-02  -3.2399734542437816e-02 -9.5855842470741068e-02 -6.7001419733377421e-02  -2.9936375047139353e-02 -9.8302087796047211e-02 -6.5847624094064319e-02  -3.1330159502690060e-02 -1.0064488271255936e-01 -6.7318803947036668e-02  -3.3194398736973767e-02 -9.3193331285578287e-02 -6.7061038208684393e-02  -3.0902931767833427e-02 -9.6101056897238524e-02 -6.5532676805729717e-02  -3.2017560535228917e-02 -9.8972083259353721e-02 -6.6738718126834115e-02  -3.3964595820742564e-02 -9.0033455319882091e-02 -6.6550074485867181e-02  -3.1856321323540673e-02 -9.3628274146951740e-02 -6.4599979790900527e-02  -3.2668214721741674e-02 -9.7153920169144231e-02 -6.5514077519344377e-02  -1.4836289465118769e-02 -9.3877782635887919e-02 -3.9262627286554927e-02  -1.3374680642365376e-02 -9.0521722762529871e-02 -3.2955300853643600e-02  -1.6006520308943072e-02 -8.8885680277939444e-02 -3.0674027249914110e-02  -1.8260286233051988e-02 -8.4825000263171982e-02 -3.3895867425213701e-02  -1.5611070330558694e-02 -8.7230400943367814e-02 -3.5863544885197239e-02  -1.6972260010239805e-02 -9.0970685732840437e-02 -4.2036294795243061e-02  -2.0393138750098520e-02 -8.0916634963434597e-02 -3.6550588467486114e-02  -1.7753622259627771e-02 -8.3992851234595475e-02 -3.8238121376633710e-02  -1.9005418845665794e-02 -8.8037066545279194e-02 -4.4255066590584147e-02  -2.2470664302084314e-02 -7.6979138416252785e-02 -3.8780587815301644e-02  -1.9857354193743904e-02 -8.0682671319235982e-02 -4.0182327437049005e-02  -2.0988830247402210e-02 -8.4976006627101766e-02 -4.6013853202651590e-02  -2.4541063751700107e-02 -7.2790980982529715e-02 -4.0708117730364694e-02  -2.1975111404012704e-02 -7.7134232110141782e-02 -4.1768355667642587e-02  -2.2968177092031257e-02 -8.1646272153137744e-02 -4.7380804463183677e-02  -2.6644435103451873e-02 -6.8071312977076290e-02 -4.2451428203095519e-02  -2.4157559534803582e-02 -7.3112624439346352e-02 -4.3048552421571344e-02  -2.4982857913353876e-02 -7.7839510844050303e-02 -4.8396174570699425e-02  -2.8806989750204803e-02 -6.2453540821228379e-02 -4.4139463527867913e-02  -2.6440339163010584e-02 -6.8240630011018447e-02 -4.4112250757428216e-02  -2.7059385436647324e-02 -7.3230202521108484e-02 -4.9108746594679439e-02  -3.3809543766349329e-02 -1.0343975009861017e-01 -6.6749662723707082e-02  -3.1478285336876542e-02 -1.0366214195563962e-01 -6.4765035978789409e-02  -3.4015848443087832e-02 -1.0185186084726389e-01 -6.3296912120725191e-02  -3.4525845794963234e-02 -1.0023868570540352e-01 -6.5312276348089879e-02  -3.2045953141355631e-02 -1.0267408025123609e-01 -6.6413405972199635e-02  -3.4122169749654659e-02 -1.0290338297423084e-01 -6.8030415844212558e-02  -3.5026882021643460e-02 -9.8382949342162143e-02 -6.6805342869525108e-02  -3.2625245069313143e-02 -1.0135924395561809e-01 -6.7579029080931843e-02  -3.4454067005171556e-02 -1.0197395218842056e-01 -6.8894098137071355e-02  -3.5508921746181372e-02 -9.6268515912207059e-02 -6.7846770794233319e-02  -3.3203225491796350e-02 -9.9749211205241800e-02 -6.8306899220561823e-02  -3.4779885862489535e-02 -1.0072808522907035e-01 -6.9360451909609877e-02  -3.5954046649745559e-02 -9.3847072002460244e-02 -6.8461410594306632e-02  -3.3758370261992535e-02 -9.7852867863935863e-02 -6.8595957902152380e-02  -3.5069641666229008e-02 -9.9216055973712552e-02 -6.9405655302725702e-02  -3.6338759445439565e-02 -9.1031413927491867e-02 -6.8632498420620386e-02  -3.4272663900709002e-02 -9.5643222069037456e-02 -6.8393075610790652e-02  -3.5285946291434049e-02 -9.7459295388607037e-02 -6.8952404833550987e-02  -3.6624997513405352e-02 -8.7712214249293846e-02 -6.8331070957981577e-02  -3.4719139690666680e-02 -9.3017546661255016e-02 -6.7584515444501420e-02  -3.5368844720712764e-02 -9.5440102585723802e-02 -6.7848732313138566e-02  -1.8804597935859188e-02 -9.9200338450307513e-02 -5.0292524797366983e-02  -1.6776694972309387e-02 -9.6544068315451051e-02 -4.4575506251467306e-02  -1.9963675264081885e-02 -9.4548051115356163e-02 -4.2363840577447971e-02  -2.1874529330461853e-02 -9.1093873358419730e-02 -4.5441447061789979e-02  -1.8767579987575330e-02 -9.3926103219741416e-02 -4.7235954339782754e-02  -2.0589775799875705e-02 -9.7062156327658258e-02 -5.2696150815223962e-02  -2.3690606965064843e-02 -8.7668289867960492e-02 -4.7892388911901146e-02  -2.0659995631451204e-02 -9.1225373295063555e-02 -4.9316935049757323e-02  -2.2283626638759026e-02 -9.4750219459374965e-02 -5.4519301375061155e-02  -2.5454559996476091e-02 -8.4128101209262854e-02 -4.9866106669732763e-02  -2.2497364940656794e-02 -8.8352111895742061e-02 -5.0918835002339562e-02  -2.3929529358358365e-02 -9.2211881364941670e-02 -5.5854702342325202e-02  -2.7203406902847917e-02 -8.0288161862812610e-02 -5.1476988597740123e-02  -2.4320996039656644e-02 -8.5188185990067028e-02 -5.2109747911022367e-02  -2.5560488557140940e-02 -8.9365877374141353e-02 -5.6761029897699398e-02  -2.8968783932437462e-02 -7.5903423644797602e-02 -5.2821990519595657e-02  -2.6165937232855044e-02 -8.1552722156387036e-02 -5.2926511333215687e-02  -2.7205241281295218e-02 -8.6073519912635177e-02 -5.7255764499545184e-02  -3.0766913045749911e-02 -7.0648718268671112e-02 -5.4024618009636947e-02  -2.8070916367323645e-02 -7.7127262963349513e-02 -5.3342372545600772e-02  -2.8896595092711214e-02 -8.2096008317913471e-02 -5.7271774077993463e-02  -1.5831474947687850e-02 -9.9328314987339253e-02 -4.9007008584830550e-02  -1.7327519858548374e-02 -1.0068155515522081e-01 -4.8398795118510543e-02  -1.8798960587307213e-02 -1.0147879398816681e-01 -4.7833394900760592e-02  -2.0258901773500329e-02 -1.0199176711343978e-01 -4.7170698084684964e-02  -2.1719988836561316e-02 -1.0246084080927319e-01 -4.6278533359796224e-02  -2.3195638622232041e-02 -1.0311329161402916e-01 -4.5041408516991760e-02  -2.4697020563256410e-02 -1.0417681468838284e-01 -4.3381875372247920e-02  -1.7207523616820413e-02 -1.0086923241749127e-01 -5.3609413697669119e-02  -1.6609824574363136e-02 -1.0097028269829582e-01 -5.5149154194111823e-02  -1.8141887891658284e-02 -1.0149517634967477e-01 -5.5762572023270347e-02  -1.8602854997383751e-02 -1.0207394562756550e-01 -5.3410609220535483e-02  -1.9644526361026877e-02 -1.0148295462345108e-01 -5.6103753012283326e-02  -1.9984038636961996e-02 -1.0266753414173027e-01 -5.3126014435716622e-02  -2.1130074031509811e-02 -1.0110320256549624e-01 -5.6131082824785149e-02  -2.1356253228697188e-02 -1.0291647040350040e-01 -5.2658287215644410e-02  -2.2613157751720226e-02 -1.0052115546168153e-01 -5.5773755853074966e-02  -2.2728776426070053e-02 -1.0305116737310484e-01 -5.1889229034364853e-02  -2.4111986114887428e-02 -9.9903709979311583e-02 -5.4909880733322022e-02  -2.4116659602322520e-02 -1.0330538411122718e-01 -5.0686409475930422e-02  -2.5648043886748718e-02 -9.9442265316476305e-02 -5.3353902350367244e-02  -2.5534873663994519e-02 -1.0397748616625599e-01 -4.8944674491252275e-02  -2.4942357494554954e-02 -1.0456292505242509e-01 -6.3545496870673512e-02  -2.5843562104640998e-02 -1.0472983989350029e-01 -6.4331765413105563e-02  -2.6768947307343856e-02 -1.0438242898612114e-01 -6.4756281748431274e-02  -2.7691158673057981e-02 -1.0367282924619965e-01 -6.4805386545749522e-02  -2.8602986377390005e-02 -1.0272666612561647e-01 -6.4428164624134629e-02  -2.9496329856287858e-02 -1.0165248607852291e-01 -6.3535103921392944e-02  -3.0366659838917284e-02 -1.0054179255469739e-01 -6.1996036900572787e-02  -2.3187036629191159e-02 -1.0366056122013699e-01 -5.9339048232186935e-02  -2.1098795790566300e-02 -1.031565353