<?xml version="1.0"?>
<VTKFile type="UnstructuredGrid"  version="0.1"  >
<UnstructuredGrid>
<Piece  NumberOfPoints="688" NumberOfCells="2834">
<Points>
<DataArray  type="Float64"  NumberOfComponents="3"  format="ascii">8.325713921899109 3.116648791980366 4.020909299379096  8.225244119475827 3.17808607726428 4.016075838819716  8.253072845502198 3.036974004990628 4.031584420921045  8.25619827902624 3.043706214550575 4.104081630754037  8.230688658143388 3.194420665390677 4.087773839821865  8.326852051142385 3.128067602166291 4.092779258750998  8.259423744179804 3.050398411894561 4.176502516507352  8.236209094508386 3.210691675213355 4.159419307635977  8.328107399953225 3.139441119382875 4.164571423480452  8.262690172569789 3.057032196618676 4.248855461561353  8.241751511092808 3.22690323405958 4.231009588573166  8.329415025601334 3.150750795043352 4.236299966065707  8.265966822301966 3.063596901598663 4.32115641213493  8.247290179982828 3.243046039308377 4.302562620594901  8.330731675263349 3.161981281174787 4.307980874065416  8.269225275311822 3.070087597493645 4.39342751660425  8.252812537246916 3.259124090204242 4.374111806303409  8.332013259636645 3.173121108148248 4.37963884658442  8.272412063845307 3.076518455827022 4.465711254244579  8.258312954479562 3.275169100182814 4.445704763617877  8.333177668796177 3.184198368309765 4.451313040269603  8.436517625261766 2.467474438410799 3.931537913400861  8.329794259674795 2.540608311269211 3.965027725457277  8.293811954873597 2.42939105983724 3.912961394696489  8.296734025984955 2.397271764637036 3.972764860677907  8.330805097811332 2.516158834121141 4.029664764426455  8.435381814428158 2.436831495826424 3.992146931819044  8.434159684672832 2.406212582290848 4.052707585744317  8.331785879727136 2.491690572955775 4.094224824847983  8.299617183800619 2.365154297999895 4.032482655312813  8.432904257615586 2.37559546783231 4.113214902323998  8.332746972293414 2.467200924991936 4.158718365129295  8.302483130858766 2.333028081261499 4.092141283939047  8.431647158314828 2.34496170130654 4.173666202031229  8.333706412168457 2.44269121374251 4.223150998007534  8.305341741018699 2.300891115805682 4.151738981649318  8.334670005496422 2.418158748845611 4.287516253940644  8.430420013615102 2.314309055746063 4.234043717027367  8.308199820810788 2.268751786670629 4.211259992054046  8.335655944674301 2.393623391486499 4.351786461747206  8.429282012785794 2.283658813365856 4.294327295920096  8.311054140145668 2.236643438958434 4.27067824825956  8.134762720406565 3.061471713269 4.036785809407766  8.143266184248331 3.06941096103151 4.109940610960142  8.151828367475634 3.077308214108008 4.183013653119232  8.16040323900898 3.085147554425864 4.256019226349704  8.168975136852429 3.092924650144127 4.328973068298931  8.177535045290547 3.100636110718977 4.401895271539147  8.186076616135542 3.108311360403864 4.474824637464458  9.188035095221403 2.393024355369779 3.872505587948195  9.211205620705499 2.513882102258965 3.931352194485028  9.081235646872845 2.443165310045634 3.910456561656731  9.086609461039266 2.409532876434004 3.968120051311677  8.862742704881097 2.690054558461799 4.034107164277201  8.796544489451238 2.76799717932442 4.051959378778297  8.771994589301233 2.640799750408463 4.02262238812449  8.770489260915353 2.618835758228375 4.089366365055411  8.793022565456438 2.757155702251908 4.122297849855724  8.864509184068584 2.669835816254001 4.101610494335983  8.768933136062458 2.596974155292689 4.156077882265247  8.789488979257582 2.746394602780817 4.192554120412728  8.866252706867167 2.649734378256363 4.169080306602816  8.767354592952683 2.575150245388748 4.222756449702505  8.785962596535102 2.735650146463779 4.262739745987533  8.867992078237563 2.629673475380188 4.236517853035285  8.765782250919964 2.553307393728542 4.289388161132558  8.782451649819567 2.72488481190111 4.332868114918511  8.869734492482417 2.609600358511758 4.30391564678766  8.764239264576968 2.53139490067865 4.355961499543301  8.778952090139152 2.714053657616375 4.402939456145457  8.871490232628208 2.58945519494929 4.371261225424148  8.762743194791444 2.509360842625611 4.422473797545072  8.775471259783606 2.703091473786774 4.47294589226478  8.873255795007427 2.56916603476007 4.438534173612901  8.442360390786776 2.555870449162553 3.97089843390397  8.440693600802174 2.532023925736064 4.035616141411911  8.438962886586609 2.508196031055999 4.100260333054247  8.437211176592809 2.484363849889185 4.164848526490283  8.435463199731903 2.460511356405624 4.229380668335985  8.433740037085425 2.4366270059467 4.293846043856929  8.432073803413216 2.4127098052953 4.358231477102085  8.194046781479052 2.490549397163909 3.947302720910075  8.198637404913169 2.461984789257691 4.010399073165611  8.203228282271921 2.433393056906554 4.073396650613124  8.207808820477938 2.404774416562749 4.136320301229363  8.212380665296395 2.376138780924061 4.199184300765986  8.216926492232371 2.347492623076246 4.261985445514825  8.221430242723775 2.318864998131019 4.324700167096331  9.083825673650713 2.557569604624104 3.968642669060719  9.090110210521345 2.528443384977711 4.030212003046512  8.657524951409266 2.701294191828273 4.031695020255849  8.6517012771961 2.686090078709307 4.100460502490679  8.645846799793638 2.670946161184078 4.169151634729563  8.639980849818931 2.655813176076557 4.237779027564001  8.634123147006486 2.640660717495731 4.306351799676832  8.62829279666594 2.62544734036836 4.374864092759806  8.62251085378554 2.610133244143109 4.443315241866014  8.187927092078722 2.93706002117474 4.041743160548916  8.194317334686652 2.937419885407257 4.114499962444809  8.200781536586799 2.937718054540313 4.187190612676019  8.207275166436332 2.93796423388198 4.259814107444702  8.213771210904941 2.938151984513675 4.332381756721816  8.22024556559766 2.938278392410214 4.404908529089716  8.226664667963059 2.938364186775867 4.477421575166833  8.071922905664964 2.96397103709662 4.058872133130482  8.08345836230944 2.966448126308975 4.132650466659044  8.095035541131093 2.968859986889043 4.206358419900908  8.106622988535687 2.971222893682889 4.28000482677041  8.118204110341415 2.973532087512312 4.353599656343932  8.129765782573921 2.975790210508114 4.427160105346021  8.141303801035139 2.97802179535752 4.5007060478119  8.145915062785917 2.384497502109611 3.901226205587233  8.15284625706124 2.350389827410276 3.960382143834996  8.159781729796856 2.316257066346232 4.01945944794873  8.166720166003801 2.282121943332038 4.078467068061307  8.173644063177594 2.247980722536804 4.137411522167493  8.180530474051595 2.213841402880572 4.196289001518667  8.187343962111532 2.179726069598826 4.255101954994208  8.709490445084992 3.078200690399379 4.047700531443144  8.647153631855536 3.138016843870508 4.030235643980507  8.615549757469154 3.018280721381559 4.044106033566086  8.610343447317224 3.023715659062122 4.115884915668847  8.642893703146397 3.153165022413136 4.10104492247724  8.704363903072982 3.089284561158983 4.119257671394757  8.605246497136861 3.02916862977757 4.18752904672303  8.638770709483699 3.168275807237025 4.171699739931531  8.699350544813619 3.100362860594827 4.190661836246463  8.60020549602001 3.034582838559559 4.259066913325547  8.634715084993383 3.183325258323302 4.242242537526145  8.694391571081168 3.111395642909223 4.26195079439151  8.595177736534051 3.03992629067977 4.330527184000728  8.630671083933921 3.198292545237352 4.312710319480094  8.689446457708693 3.122351523154086 4.333156326037003  8.590121929197231 3.045175519081522 4.401923792610061  8.626591875209849 3.213161588303657 4.383118351206809  8.684478922709342 3.133207462646565 4.404294417510886  8.584998840952476 3.050306310423495 4.473255266673825  8.622425795822519 3.227914006494226 4.453469452899599  8.679445731946737 3.143931439864196 4.475362414976551  8.208282926634508 2.588049917411364 3.986850966873611  8.302100907990958 2.637018802919111 3.992473036405338  8.216979568055228 2.688419682869126 4.012263580503842  8.221430409709042 2.672614201339273 4.08150494111981  8.304084957819903 2.617996238580418 4.05978775911102  8.213127458446815 2.566547365040888 4.053751816368687  8.225927938349161 2.656753845972301 4.150656723611776  8.306093484067443 2.598941588965531 4.127010593362478  8.217989654331006 2.545004736272571 4.120562037448267  8.230432509301139 2.640850064302651 4.21973437286212  8.308098911859961 2.579853165756278 4.194158942908647  8.222845273857327 2.523425736837183 4.187296612174103  8.234924256361142 2.624900748829601 4.28874503146636  8.310090870390477 2.560723046579149 4.261240601662482  8.227680931683429 2.501807855966386 4.253960648975593  8.239381973645383 2.608908741893589 4.357686853375666  8.312076937315702 2.541556028569767 4.328260915825961  8.232496733766578 2.480170927872769 4.320557556282171  8.243788205309102 2.592907785880807 4.426560145030794  8.314041024657428 2.522384357893406 4.39521227097458  8.237264354247584 2.458556680233333 4.387077056411252  8.101989188003644 2.628120741208744 4.005603128415264  8.110571556045162 2.608426692476167 4.074024582118631  8.119200735363771 2.588676639953994 4.142354422654952  8.127836426359018 2.568880814723995 4.210605692397807  8.136447557606211 2.54903935381683 4.278786327061282  8.145009906452987 2.529163366904264 4.346906801105397  8.153497805061928 2.509305672890497 4.414981979182218  8.621439077528017 2.079377734529267 4.147872324240516  8.752941845493805 2.1407601202791 4.205313731225798  8.732217442358561 2.02619308632895 4.100490050306969  8.753534527093791 2.179401343481353 4.151385700676464  8.621286314542122 2.119825160698064 4.096567846628816  8.548569152531648 3.099116670311894 4.035004541174547  8.547318101928651 3.189367784327207 4.010197816438266  8.437371890994131 3.124374679761471 4.024475044373779  8.434192156391067 3.137573465943091 4.0958947635984  8.544168742434714 3.209162935012412 4.080033678332498  8.545229234932988 3.110276874905386 4.106737926743277  8.431155906325403 3.150741256042576 4.167219685568141
[...]
<PointData  Vectors="f_24"> 
<DataArray  type="Float64"  Name="f_24"  NumberOfComponents="3" format="ascii">-1.4582763876778607e-02 6.8703263904846303e-03 -4.7459259589786862e-02  -1.3699522811110729e-02 1.1147312376182317e-02 -4.3574083830916967e-02  -1.3624403154597668e-02 3.3053060219685715e-04 -4.7906799926388070e-02  -1.2457657748418272e-02 -1.7277528023061216e-03 -5.1299080792168002e-02  -1.2648059132388227e-02 6.8111002792499266e-03 -4.6382529164366276e-02  -1.3364459573285439e-02 3.4872822858782590e-03 -5.0586409570181595e-02  -1.1343244727175164e-02 -3.7761590599251203e-03 -5.3720873364134634e-02  -1.1608937188669234e-02 2.6529311550852826e-03 -4.8033083501905688e-02  -1.2225525766513924e-02 1.8599949056006266e-04 -5.2576558618608119e-02  -1.0221940049549863e-02 -5.7968823071692073e-03 -5.5194742089368871e-02  -1.0557019385361339e-02 -1.3084380334385355e-03 -4.8750224493301263e-02  -1.1113444556292160e-02 -2.9798275952809998e-03 -5.3618784155007912e-02  -9.0446289820035573e-03 -7.7749947387719901e-03 -5.5821996787842859e-02  -9.4248481100150713e-03 -5.1139738001153776e-03 -4.8647035084351468e-02  -9.9798800180351151e-03 -6.0214924853820052e-03 -5.3824792738498328e-02  -7.7586074454768037e-03 -9.7111255531473276e-03 -5.5660170196404998e-02  -8.1404456262998380e-03 -8.8075512676123648e-03 -4.7772818588352958e-02  -8.7930197579182065e-03 -8.9684549268256083e-03 -5.3253608898541555e-02  -6.3012556100873795e-03 -1.1604451306897844e-02 -5.4677577902259022e-02  -6.6013305790704165e-03 -1.2428124232878694e-02 -4.6176566893276816e-02  -7.5370288895257927e-03 -1.1860376434470514e-02 -5.1889743095506730e-02  -1.0074738395718671e-02 -4.3937825339682227e-02 -4.0686826836036076e-02  -1.0156330152137205e-02 -3.7849171086805355e-02 -4.2876819227232799e-02  -8.2462066352320899e-03 -4.9546158283706260e-02 -3.6210358423780925e-02  -7.1925629956762797e-03 -4.3156828263740378e-02 -3.6228993679098952e-02  -8.9965718050285422e-03 -3.2550130149447076e-02 -4.4295462399385588e-02  -8.7902497141843332e-03 -3.7846264187026309e-02 -4.0978907148849227e-02  -7.5974541071936932e-03 -3.2364691727669502e-02 -4.0613521157618016e-02  -7.8849035753196794e-03 -2.7723524918720658e-02 -4.4922415573364884e-02  -6.1529394599259225e-03 -3.7322272597124125e-02 -3.5680425960313449e-02  -6.4650234637036556e-03 -2.7255737347848662e-02 -3.9648272225768201e-02  -6.8056623535215086e-03 -2.3239289456914253e-02 -4.4872952860658954e-02  -5.1243458414856969e-03 -3.1872369167529363e-02 -3.4587426970217459e-02  -5.3629600520404552e-03 -2.2366425623418076e-02 -3.8120918509979583e-02  -5.7288108023631629e-03 -1.8972438302185604e-02 -4.4192804971408407e-02  -4.0857366111995922e-03 -2.6641658945936904e-02 -3.2962611538725560e-02  -4.6379293025063011e-03 -1.4826132740609718e-02 -4.2901511450755506e-02  -4.2911768629149728e-03 -1.7582689293580981e-02 -3.6042440683803544e-02  -3.0185251668586439e-03 -2.1507040182950018e-02 -3.0792914579354888e-02  -3.5079520910827641e-03 -1.0712429883200409e-02 -4.1001170577042598e-02  -3.2481390188183316e-03 -1.2824932568487376e-02 -3.3393186321871618e-02  -1.8950944493122360e-03 -1.6375296702733404e-02 -2.8057013321848605e-02  -1.2335996410147031e-02 1.5480743051759253e-03 -4.4986091099365223e-02  -1.1399124478681643e-02 -9.0516556436018010e-04 -4.8460623414401952e-02  -1.0410866125726831e-02 -3.3266328676547548e-03 -5.0939286860230866e-02  -9.3496887594654247e-03 -5.6728943949656743e-03 -5.2457324695899019e-02  -8.1635814369484371e-03 -7.9515570142947647e-03 -5.3136648188667916e-02  -6.7754520492093687e-03 -1.0182523673864409e-02 -5.3049125669942569e-02  -5.0345190468036012e-03 -1.2381938527996029e-02 -5.2144587037625097e-02  -1.2614240947152824e-02 -4.2052794080489231e-02 -4.5978928085974556e-02  -1.4344485301350626e-02 -3.0993752097194741e-02 -5.4141302001812192e-02  -1.2797719997924535e-02 -3.8238590691564607e-02 -4.8133452350827347e-02  -1.1798885579109093e-02 -3.1862556017088990e-02 -4.7484303976071930e-02  -1.4600854502568931e-02 -1.9257565458140148e-02 -5.7734887577396456e-02  -1.5053437945157202e-02 -1.4192758850265013e-02 -5.8655346926934297e-02  -1.3734447990607824e-02 -2.3340411252774362e-02 -5.4816619479292644e-02  -1.2493757561297940e-02 -1.9184883455092807e-02 -5.6533051618063955e-02  -1.3778000440027376e-02 -1.1933585867718852e-02 -6.1356831105748431e-02  -1.3455304499988255e-02 -1.5608724820581909e-02 -5.9763137666030683e-02  -1.1278193223065220e-02 -1.5511691854392730e-02 -5.7208824834117135e-02  -1.2590822602302076e-02 -9.9641982445998808e-03 -6.2867111919674104e-02  -1.2303493872624686e-02 -1.2476551193710233e-02 -6.0739596488823100e-02  -1.0108499400604617e-02 -1.2144860917869751e-02 -5.7088388168321458e-02  -1.1456162055661183e-02 -8.2135991985457721e-03 -6.3463014454162359e-02  -1.1166017590250495e-02 -9.6168488259165096e-03 -6.0860668192316870e-02  -8.9918162034938499e-03 -8.9611841486792222e-03 -5.6293561303694943e-02  -1.0376683584695500e-02 -6.6058203010618951e-03 -6.3316478969365195e-02  -1.0052323443024140e-02 -6.9098773307419720e-03 -6.0279693349929470e-02  -7.9399062105261261e-03 -5.8829072601118380e-03 -5.4917456853238032e-02  -9.3720327699973408e-03 -5.0718618688820171e-03 -6.2550666276055489e-02  -8.9670724312728156e-03 -4.2880117613036004e-03 -5.9110408079401842e-02  -6.9578709019225068e-03 -2.8407953343802948e-03 -5.3080957974954275e-02  -8.4826590920848138e-03 -3.5407769714215940e-03 -6.1256507552802979e-02  -7.8883614282824182e-03 -1.7514990562987874e-03 -5.7425230133397842e-02  -1.1327314766070441e-02 -3.5237178766654019e-02 -4.5404905745619520e-02  -1.0005554287018452e-02 -3.0083092669754185e-02 -4.6843446086344540e-02  -8.7893486695502874e-03 -2.5427735239353086e-02 -4.7467816252302737e-02  -7.6419552705866778e-03 -2.1105406147306320e-02 -4.7390043995278013e-02  -6.5398744813366461e-03 -1.7004932033488483e-02 -4.6673633971248456e-02  -5.4713566908037616e-03 -1.3024849633808339e-02 -4.5344904673739146e-02  -4.4387619242922437e-03 -9.0760343813458856e-03 -4.3408289595862813e-02  -8.1432562227453844e-03 -4.4077873301184636e-02 -3.8227581318047758e-02  -7.2034174470655384e-03 -3.8260928361737688e-02 -3.9156763304252010e-02  -6.2642912514723689e-03 -3.2969793263854331e-02 -3.9399795281902766e-02  -5.2901511390398542e-03 -2.8021334381003418e-02 -3.9002424094870987e-02  -4.2647652295354985e-03 -2.3280128356393110e-02 -3.8005928505638852e-02  -3.1611099556839101e-03 -1.8640190893478490e-02 -3.6424146913115810e-02  -1.9412208858007025e-03 -1.4023219103627849e-02 -3.4233355288892243e-02  -1.4207977712422883e-02 -2.7945492396633530e-02 -5.5064043732626605e-02  -1.3242267103835338e-02 -2.2543586252193909e-02 -5.5603632516753369e-02  -1.4053826704658823e-02 -2.0276646634863383e-02 -5.4817588231970346e-02  -1.2594931492436172e-02 -1.7088161383211963e-02 -5.7182940886521205e-02  -1.1303553436668928e-02 -1.4266330067574488e-02 -5.8479132630124137e-02  -1.0114582059199611e-02 -1.1695597749265903e-02 -5.8934001740844795e-02  -9.0102081139482090e-03 -9.2883635690498723e-03 -5.8669142623482926e-02  -8.0080310334664367e-03 -6.9726618845110735e-03 -5.7773562203007695e-02  -7.1541925890045380e-03 -4.6820889395032617e-03 -5.6358719419415386e-02  -1.2344554075385752e-02 -7.5551698138794868e-03 -4.8028076671778497e-02  -1.1310726346110597e-02 -8.0586283482839451e-03 -5.1703595198023894e-02  -1.0271598037905682e-02 -8.5910348791227702e-03 -5.4298309871190803e-02  -9.1807666454118541e-03 -9.1731252201523502e-03 -5.5980330544804079e-02  -8.0006442803003258e-03 -9.7876723015663161e-03 -5.6839619716439312e-02  -6.6737115609582561e-03 -1.0418152951531307e-02 -5.6928998955537408e-02  -5.1164515600411551e-03 -1.1047006858444564e-02 -5.6257741400714177e-02  -1.0948790058535929e-02 -6.2841986841355177e-03 -4.5901870674781901e-02  -1.0180910464825209e-02 -7.2279251721856803e-03 -4.9597575080873091e-02  -9.2470045259003229e-03 -8.1558130780946519e-03 -5.2160687146673775e-02  -8.1947131493462378e-03 -9.1213145110879273e-03 -5.3814652985333826e-02  -6.9800757559241510e-03 -1.0113319955703937e-02 -5.4648403432716632e-02  -5.5228423952218501e-03 -1.1125158551555098e-02 -5.4721480110701277e-02  -3.6995755014119082e-03 -1.2146640417321275e-02 -5.4154834215333597e-02  -6.0245458169779107e-03 -5.5013088863636518e-02 -3.1439822728061888e-02  -5.2283383856176523e-03 -4.8273149600590579e-02 -3.1111114618354790e-02  -4.3709291357666652e-03 -4.2099198506746809e-02 -3.0244449259379618e-02  -3.4663098049602806e-03 -3.6320948851870316e-02 -2.8888693921231466e-02  -2.5022974641327350e-03 -3.0760483314404386e-02 -2.7038910895221709e-02  -1.4582132599901582e-03 -2.5284143763430158e-02 -2.4673726442489986e-02  -3.0182231016261129e-04 -1.9781807147047557e-02 -2.1758123868773030e-02  -1.6861565586316601e-02 5.4482385480495730e-03 -5.5958130052805123e-02  -1.6866498792809392e-02 9.7959827647901253e-03 -5.2865207287470663e-02  -1.6234460965062095e-02 8.2201509712366073e-04 -5.5331245457931819e-02  -1.4817504304417983e-02 -1.0178575872628419e-03 -5.8463005124838749e-02  -1.5566839537325574e-02 5.9121090041392085e-03 -5.5462901256617465e-02  -1.5524508678207372e-02 2.5295097272083952e-03 -5.8727719070542556e-02  -1.3553658873252586e-02 -2.8808381527032092e-03 -6.0468388726023295e-02  -1.4393590330395301e-02 2.1794392370652425e-03 -5.6834118972384967e-02  -1.4336821116604125e-02 -2.7134601181694895e-04 -6.0287396067420354e-02  -1.2392579910198091e-02 -4.6904534723608976e-03 -6.1489327610354937e-02  -1.3309675435191060e-02 -1.3771985459516281e-03 -5.7213956725852923e-02  -1.3236305098903564e-02 -2.9624847057033729e-03 -6.0860010954638590e-02  -1.1320316447258795e-02 -6.4354845065129687e-03 -6.1669585058257093e-02  -1.2307400790315878e-02 -4.7845647655955737e-03 -5.6764154281910569e-02  -1.2218311817542692e-02 -5.5549232864718469e-03 -6.0605646503827701e-02  -1.0344743665670578e-02 -8.1173562289839230e-03 -6.1117659855056392e-02  -1.1399764142999123e-02 -8.0726993023951445e-03 -5.5605211971299737e-02  -1.1298779237972879e-02 -8.0611358025248162e-03 -5.9643683894093143e-02  -9.4994661536179793e-03 -9.7628544855468125e-03 -5.9877389114270020e-02  -1.0606736629332073e-02 -1.1246289826174132e-02 -5.3812049043306720e-02  -1.0539518833999052e-02 -1.0486701126310942e-02 -5.8125204018703143e-02  -9.5025347712168803e-03 -3.4589398053461888e-02 -4.2991330410548985e-02  -1.1111621621413433e-02 -3.0064846400154024e-02 -4.6098925863540308e-02  -1.0708794405687382e-02 -2.6216461893763719e-02 -4.6282309742814373e-02  -9.6770119622205664e-03 -2.2951392588464018e-02 -4.9080024157133369e-02  -9.9552085667705854e-03 -2.6038115986755133e-02 -4.8398618829636593e-02  -8.5331586667623232e-03 -2.9887259602875124e-02 -4.5014718180265006e-02  -8.6570425388410276e-03 -1.9952026491427129e-02 -5.0955969171971385e-02  -8.8373362642512159e-03 -2.2334346054466561e-02 -4.9903953239458010e-02  -7.5527305621362322e-03 -2.5604312349145928e-02 -4.6199901810025722e-02  -7.6112537723900392e-03 -1.7164145731594953e-02 -5.2022138665405025e-02  -7.7495441833648230e-03 -1.8897986140770033e-02 -5.0621454327341706e-02  -6.5499068391179985e-03 -2.1619015270830405e-02 -4.6658414085360075e-02  -6.5102677322452810e-03 -1.4526735459346888e-02 -5.2350076931277606e-02  -6.6574278431754241e-03 -1.5639730596609901e-02 -5.0629306983312597e-02  -5.4929745127830516e-03 -1.7834037430248403e-02 -4.6442663336218604e-02  -5.3174936656966345e-03 -1.1981315209846438e-02 -5.1978680390517257e-02  -5.5356495970245809e-03 -1.2481537110694007e-02 -4.9968090009485447e-02  -4.3515071122522788e-03 -1.4164018218424626e-02 -4.5574348337062462e-02  -3.9839029699766234e-03 -9.4850755797828024e-03 -5.0908583517944236e-02  -4.3517163592162716e-03 -9.3819104081968464e-03 -4.8612943366176817e-02  -3.0857740895591564e-03 -1.0519795509959271e-02 -4.4071517317073663e-02  -8.7827352656139959e-03 -3.1958918328157421e-02 -4.2648151897584884e-02  -7.9969066051729688e-03 -2.7798783347039658e-02 -4.5081431483373284e-02  -7.1451476559200519e-03 -2.4013836685117158e-02 -4.6689542951032482e-02  -6.2108754046470470e-03 -2.0496320004000087e-02 -4.7516140220056763e-02  -5.1680314244298749e-03 -1.7160827580304194e-02 -4.7635092018208584e-02  -3.9767026557444435e-03 -1.3934020025887756e-02 -4.7090697154832321e-02  -2.5735789267903441e-03 -1.0765244293481640e-02 -4.5884764688396966e-02  -1.9001877920421621e-03 -2.2682751877952680e-02 -1.4776691169308423e-02  -3.2700301963919901e-03 -1.5249017223356863e-02 -2.2932910930011107e-02  -1.6106888773776507e-03 -2.5908767821937819e-02 -9.6714450554995328e-03  -4.3794314018147850e-03 -2.0535086813724276e-02 -2.6703027270029506e-02  -3.0011194054004979e-03 -2.8290511316252501e-02 -1.8845746703542443e-02  -1.6098765344002848e-02 6.2304114598259706e-03 -5.2504145484387366e-02  -1.6451379511127240e-02 1.4029115707592283e-02 -4.9038500242917081e-02  -1.5493833030619759e-02 7.7311856587523780e-03 -4.9596315320020665e-02  -1.4160811764280032e-02 4.2330308514838553e-03 -5.2487845886077564e-02  -1.5206109001378027e-02 9.2476354720512476e-03 -5.1336679015879814e-02  -1.4781041070648501e-02 3.0142953432840841e-03 -5.5462324722338183e-02  -1.2964842127264370e-02 8.1757365199128132e-04 -5.4167931109102167e-02  -1.4092016496505148e-02 4.7546681860131694e-03 -5.2464518935369978e-02  -1.3553672982804946e-02 -7.2224867855705721e-05 -5.7152586931433914e-02  -1.1837627998180417e-02 -2.4828186861960023e-03 -5.4893734902709858e-02  -1.3041350624467152e-02 4.8006322840078865e-04 -5.2574636746871517e-02  -1.2422792223013415e-02 -3.0380590197684721e-03 -5.7875301248846010e-02  -1.0735985489612736e-02 -5.6709209542475259e-03 -5.4782354932954448e-02  -1.2049757714384811e-02 -3.6230819861677527e-03 -5.1846912979797058e-02  -1.1367615473694059e-02 -5.8855210418128842e-03 -5.7757984068739117e-02  -9.6525968474177500e-03 -8.7651921265788843e-03 -5.3899204648988785e-02  -1.1122225800007190e-02 -7.6001800737820020e-03 -5.0394015448338339e-02  -1.0393276066743253e-02 -8.6358094841791442e-03 -5.6889922909887244e-02  -8.6699700577948305e-03 -1.1787105554246084e-02 -5.2304375201518878e-02  -1.0283012203430919e-02 -1.1466983777622803e-02 -4.8260154965701289e-02  -9.5177262144979981e-03 -1.1327096995107437e-02 -5.5393825953870476e-02  -7.2089761944037229e-03 -4.2059394577581587e-02 -3.7906748691831763e-02  -6.5216004977484334e-03 -3.6534769530934305e-02 -3.9269320751596039e-02  -5.7133757629612052e-03 -3.1429888959108712e-02 -3.9888776176514221e-02  -4.8254327191659960e-03 -2.6664178185020100e-02 -3.9837172321102093e-02  -3.8400726138145937e-03 -2.2114331927391900e-02 -3.9163985781777717e-02  -2.7266697155218394e-03 -1.7678034776709668e-02 -3.7891290636366294e-02  -1.4287353417931472e-03 -1.3268600048584571e-02 -3.6020841766787513e-02  -1.0384831391323136e-02 -4.9770390769240530e-02 -3.9057988732831991e-02  -1.0407239023558727e-02 -4.7778053594075109e-02 -3.9996555231793018e-02  -8.9204021557191034e-03 -5.8786982331463455e-02 -3.3123584953244058e-02  -9.1178491969381072e-03 -4.1170982284892597e-02 -3.8801612615143768e-02  -9.1400771784037084e-03 -4.2982872198343146e-02 -3.7404165876428495e-02  -7.7014556006191953e-03 -5.1760365837858834e-02 -3.0889767911332147e-02  -7.8639979331813336e-03 -3.5329555175868332e-02 -3.7120404875562577e-02  -7.9248777368497447e-03 -3.6900391322227867e-02 -3.5362228821285549e-02  -6.4797409147894025e-03 -4.5432229533783654e-02 -2.8407899833635307e-02  -6.6432749508337132e-03 -2.9913095024447407e-02 -3.4948391848205966e-02  -6.7193634877975262e-03 -3.1247317526620546e-02 -3.2904350497614233e-02  -5.2893190573642728e-03 -3.9540074856892669e-02 -2.5609257690370587e-02  -5.4637285721005754e-03 -2.4711679249384746e-02 -3.2294505956760929e-02  -5.5340626258652097e-03 -2.5837232602742982e-02 -3.0022349464463957e-02  -4.1300718206779682e-03 -3.3876010994540809e-02 -2.2437640484913483e-02  -4.3295802294661219e-03 -1.9595349811810832e-02 -2.9161139298608568e-02  -3.2498877358331200e-03 -1.4488897700587833e-02 -2.5541911949274142e-02  -9.9321278184596601e-03 -2.3058227943021210e-02 -4.5652049667730843e-02  -9.1297812790171705e-03 -2.0425918644848218e-02 -4.8814984211590161e-02  -8.2259861234713454e-03 -1.8066866286547582e-02 -5.1020884946933506e-02  -7.2384818209610359e-03 -1.5898651973651003e-02 -5.2396182523289814e-02  -6.1374719089981149e-03 -1.3861476728142046e-02 -5.3008761468073415e-02  -4.8747428986713366e-03 -1.1906097100545843e-02 -5.2903790176554666e-02  -3.3489197409959327e-03 -1.0005207400026457e-02 -5.2117392125288875e-02  -1.5815926646143653e-02 1.6502638570370560e-02 -4.5665003628746828e-02  -1.4562511898087998e-02 1.1276365677760173e-02 -4.7830587265468918e-02  -1.2431325584401106e-02 1.5216872071860605e-03 -4.9012406041147691e-02  -1.1404483270604296e-02 -2.9582380237936088e-03 -4.8311742677297258e-02  -9.9528668674497191e-03 -4.7710852525142011e-02 -3.9057707805384326e-02  -8.6597565413122218e-03 -4.1171023206829291e-02 -3.8433539846750589e-02  -7.4280306550110285e-03 -3.5331196521034502e-02 -3.7193346720546090e-02  -6.2511196252112190e-03 -2.9893941846414151e-02 -3.5436359965936567e-02  -5.1158111152443042e-03 -2.4679119534072490e-02 -3.3179758001780517e-02  -4.0235405239604019e-03 -1.9558640993199459e-02 -3.0420678283431108e-02  -2.9965841451475355e-03 -1.4440519939887835e-02 -2.7152347034345221e-02  -1.3009648928303858e-02 -3.3515589389339059e-02 -5.0613235697527285e-02  -1.4108199917374544e-02 -2.5319124267967761e-02 -5.5784906134040232e-02  -1.3568677145103373e-02 -2.6672353409652551e-02 -5.4084102659213512e-02  -1.2537444774410303e-02 -2.1700407790308646e-02 -5.5158968063761443e-02  -1.3140619943452458e-02 -2.0341183425841031e-02 -5.6837680488483373e-02  -1.1976399342476117e-02 -2.7648235154506946e-02 -5.0619720486019690e-02  -1.1408683180499365e-02 -1.7295711858850763e-02 -5.5413848311614784e-02  -1.2086103919699959e-02 -1.5939874181131915e-02 -5.7078259612923253e-02  -1.0883518445792342e-02 -2.2355829985394243e-02 -4.9997541594332430e-02  -1.0268798565906496e-02 -1.3265662723464142e-02 -5.4946387924829691e-02  -1.0981759100713664e-02 -1.1912774421934924e-02 -5.6616264735915522e-02  -9.7487329134947412e-03 -1.7467286147537977e-02 -4.8781571169455182e-02  -9.1357339758095634e-03 -9.4660200819686909e-03 -5.3846212385431122e-02  -9.8408768192845050e-03 -8.1209503178273964e-03 -5.5533173761429327e-02  -8.5877148913414605e-03 -1.2835784062554745e-02 -4.7014645962856171e-02  -8.0141952111080633e-03 -5.8000553744424191e-03 -5.2189493522506972e-02  -8.6736275166234937e-03 -4.4704160538667249e-03 -5.3897661520156452e-02  -7.4115516682119881e-03 -8.3502240669708124e-03 -4.4738309393628092e-02  -6.8942332518866405e-03 -2.2064009837287520e-03 -5.0037128915625020e-02  -8.4076580571610729e-03 -5.4497553405225885e-02 -3.4337720468770504e-02  -7.2295753420862727e-03 -4.7760203004666969e-02 -3.3460732390896475e-02  -6.1253609789881404e-03 -4.1552868914929916e-02 -3.2224018854630339e-02  -5.0455509588471894e-03 -3.5776303606518296e-02 -3.0525252038399155e-02  -3.9795696274205093e-03 -3.0245993052881247e-02 -2.8363070495531481e-02  -2.9194025908539554e-03 -2.4817404763296479e-02 -2.5717233116697200e-02  -1.8680026242009285e-03 -1.9377293425431163e-02 -2.2539330389848095e-02  -1.2853541707702167e-02 -2.9944246252021509e-02 -5.0183462151556120e-02  -1.1427925242518074e-02 -2.5126443524897502e-02 -5.1516947211813692e-02  -1.0148906552255463e-02 -2.0796573953430899e-02 -5.2050664798143749e-02  -8.9556188676650720e-03 -1.6808806614108638e-02 -5.1828383607935770e-02  -7.8305910366011974e-03 -1.3040894730400552e-02 -5.0950554874631633e-02  -6.7837164855019194e-03 -9.3924289945153255e-03 -4.9488625954269040e-02  -5.8547886629876748e-03 -5.7927261189702813e-03 -4.7475575880849497e-02  -1.3104184696284377e-02 -2.1215624691935584e-02 -5.1314326770836520e-02  -1.4218550511021149e-02 -1.4313661210222527e-02 -5.2975700424254854e-02  -1.3467756002212115e-02 -1.4908454855576059e-02 -5.1265086024202967e-02  -1.2142800650091034e-02 -1.3588976665267457e-02 -5.4551939184575383e-02  -1.2777714573782651e-02 -1.2975581456141255e-02 -5.61449440378