<?xml version="1.0"?>
<VTKFile type="UnstructuredGrid"  version="0.1"  >
<UnstructuredGrid>
<Piece  NumberOfPoints="710" NumberOfCells="2976">
<Points>
<DataArray  type="Float64"  NumberOfComponents="3"  format="ascii">10.06717446290109 1.890545214332218 1.690282351435954  9.948202398422481 1.867620679798455 1.722799036336107  10.00538722889914 1.962673727023911 1.620615214239507  10.003024262009 1.925391307740197 1.579552173851677  9.948195248306707 1.824195143121901 1.687177402020206  10.06489261091686 1.847241551212323 1.654027646589613  10.00033758199189 1.88830916902647 1.53851918921759  9.947851929118075 1.780974365428067 1.651511932073753  10.06222368818169 1.804140797772243 1.617735647461695  9.997516710546558 1.851332633477752 1.497564712884845  9.947363149640799 1.737875142223331 1.615881167657034  10.05940971946597 1.761146615215076 1.581481591941018  9.99471810813073 1.814411428756155 1.456714925705684  9.946894540959606 1.694849632079778 1.580338139709241  10.05663687738222 1.718213910080646 1.545313480039884  9.992092003445851 1.777522481565892 1.415990571470915  9.946610505520674 1.651885189027064 1.544926177698084  10.05409146759299 1.675339497082793 1.509278610540845  9.989830473002495 1.74068380349911 1.375403754227483  9.946725962783708 1.608975491254483 1.509694234644065  10.052007687967 1.632504461555235 1.473390500740591  11.01260965547261 1.94416566159979 1.51068751389263  10.90170482671449 1.933209683018327 1.549654364800322  10.95682485274035 1.994978711243567 1.434746708994789  10.94761489208806 1.94553527010398 1.394580100198507  10.8955837904523 1.880229176677757 1.517472198858222  11.00713282191337 1.889155504510666 1.477755671319004  10.93795368180392 1.896137850344169 1.354162894421346  10.88891299830281 1.827176497879313 1.484948770118096  10.84034657723796 1.986563415124752 1.471722972813039  10.832498238791 1.938388717728878 1.433251612807826  10.82414755730447 1.890308004889065 1.394533142103052  10.81580367658271 1.84213648369286 1.355753375045311  9.892723816666035 1.932898649444227 1.647884763887866  9.892076491814048 1.894345276974572 1.607944754076704  9.891161161835305 1.856025031746173 1.568056014446823  9.890124117819418 1.817828765901739 1.528258778931135  9.889117212410227 1.779712035829134 1.488591087862257  9.888300993501666 1.741665695312084 1.449098296500596  9.887817813090246 1.703688401694044 1.409781500373775  9.878066603501678 2.197771740281269 1.463218644764811  9.884423786644048 2.108594713571193 1.516689289086488  9.737473532880706 2.13848794366444 1.502918538732078  9.736504905532547 2.110377317317166 1.458014993811821  9.882059724981969 2.079299408165919 1.471862260147382  9.876032896413777 2.170999245681662 1.417711784540597  9.879489994578348 2.050125170616985 1.427181083324602  9.873825664083007 2.144281663536704 1.372369881353866  9.735360437995505 2.082379067119963 1.413313310173704  9.876804390402475 2.021033521459203 1.382660286687001  9.8715146221727 2.117614837878249 1.327204453532145  9.73411871513043 2.054446014774577 1.368787533500134  9.874123154453081 1.991996541159228 1.338298974033195  9.869198169246944 2.090999417927288 1.282202618524915  9.732868715307587 2.026572947666704 1.324442086237198  9.871580082804188 1.963013112558842 1.29410849215635  9.866990960530012 2.064452511735322 1.237373628336871  9.731713539443232 1.998775346297764 1.280296234905313  9.865020377979491 2.037991882249877 1.192718893306451  9.869347127979736 1.934124301810111 1.250137741140201  9.730792170005106 1.971072439811866 1.236358263739212  9.762453029215402 2.226578974391355 1.450733762831421  9.761210112682994 2.200394951097175 1.405293622012032  9.759841947803523 2.17425964256051 1.360066806899582  10.79238015962468 1.92321589594731 1.582636616397604  10.78846047310043 1.871804269705961 1.550592078168814  10.78413086182468 1.820377966801659 1.518224217956568  10.77974771648568 1.768827872102714 1.485753694989491  10.8822169916172 1.773938472045306 1.452332008322443  10.7755408737905 1.717128717791689 1.453286166647447  10.80771083204977 1.793809004575801 1.316980193030481  10.18237754519869 2.486595088995855 1.250032907889051  10.09704287629291 2.577631902774217 1.201919946209197  10.21233653359902 2.564093264898493 1.191682207899323  10.20446246047044 2.532908800568284 1.146454719274399  10.09055032886323 2.545988948061397 1.1571832898349  10.17440956819757 2.456388869548368 1.205439352709684  10.19641599546087 2.501652255554515 1.101413721568459  10.08391790958759 2.514226700391798 1.112659922076189  10.16622322703168 2.426149966228646 1.16101996046315  10.18828991259779 2.470390651143241 1.056496236505544  10.07721415074226 2.482438316692912 1.068294477716165  10.1579258479796 2.395924536748774 1.116728787396322  10.18017374666992 2.439173438792123 1.011650606843086  10.0705141411949 2.450689153279837 1.024019083278784  10.14962881556384 2.365747163137943 1.072525734227933  10.17215936396657 2.408059138279055 0.9668353151995593  10.06389882845824 2.419060879770752 0.9797708122144704  10.14145611589388 2.335665869727707 1.028379065100537  10.16434643289714 2.377122562963149 0.9219976433021864  10.05744638753962 2.387684454212802 0.9354714105261187  10.13358671827994 2.305733097972678 0.9842477582576911  10.51521725924049 2.060824668317986 1.461020011329014  10.41050090364608 2.046486714906758 1.491726301689819  10.43877450571167 2.139800838697322 1.422566991255561  10.42883807013681 2.109260252238256 1.376129210938462  10.40118841178389 2.010552939280521 1.448096271073413  10.50594015652713 2.026161615668435 1.415589802247046  10.41839996114527 2.078908860916804 1.329687192933364  10.39131211221289 1.97480777911104 1.404426356874539  10.49614045356391 1.991681238587793 1.370043909569807  10.40778619967313 2.048625803558926 1.283257810519272  10.38129129070314 1.939115481816316 1.36077844738835  10.48622209868468 1.957223730179825 1.324476179546008  10.39724724453217 2.0183301467532 1.236862723091535  10.37140277609946 1.903401110342682 1.317181669471123  10.47644902337018 1.922712934650823 1.278932758662538  10.38700466196753 1.987961941107818 1.190509095148424  10.36188666006624 1.867623160791205 1.273644346639319  10.46701214706529 1.888100610523676 1.23342283363076  10.3773012682863 1.957462006725918 1.144166042168173  10.35299300049955 1.831754968883876 1.230124881273579  10.45803423882715 1.853349116664994 1.187908863721123  10.717012954182 1.973050242133213 1.512375957687812  10.71119039607923 1.925419879138524 1.475837087118333  10.70489919054602 1.877881454998776 1.439057569812631  10.69855990363681 1.830281891516403 1.402213892918668  10.69241688764814 1.782565630720631 1.365374821441643  10.68666098112973 1.73470485636305 1.328574171455923  10.77166269284956 1.665261553795237 1.42087732090082  10.80004877370219 1.745297306191455 1.278249718596804  10.68142317679276 1.686672268255752 1.291856472849944  10.76823944778697 1.613236074822542 1.388554308072729  10.79297702707771 1.696590583647043 1.23958457411448  10.86327582487904 2.085291826014031 1.373007913740093  10.85240812050834 2.045878479773002 1.326290225340042  10.84098959463154 2.006699452080071 1.27927022576368  10.82953901156936 1.967459237936108 1.232116775504887  10.08080241859362 2.475229525087121 1.27576911749144  10.07444354259733 2.445357411507348 1.231509051563055  10.06789665449566 2.415436325718041 1.187449042841728  10.0612384132586 2.385516158910125 1.143546646301547  10.05456883986339 2.355638512823905 1.099750607841372  10.04800263717456 2.325863130141573 1.056017909749752  10.0416957600438 2.296294454761618 1.012309076270363  10.30976919235812 2.108007972049885 1.467098138788229  10.30128758544517 2.076532065126067 1.421670008909758  10.29234280761345 2.045247624300977 1.376293213326025  10.28323023790625 2.01403941259752 1.330960872535188  10.27418761595333 1.982842102155678 1.285694409783679  10.26544132063292 1.951611272084165 1.240504928853752  10.25724411379493 1.920299751277261 1.195386001297892  11.09971573257156 1.839933304861156 1.80218170057769  10.97971247892959 1.830568055786588 1.82827203810228  10.9788402333553 1.857369217477752 1.716996085976952  10.98364661859535 1.770877525081777 1.81549806664608  11.10275157378905 1.777951236114997 1.790483789023478  10.98000735179261 1.797387947316837 1.700618537278271  10.98742688090046 1.711058517440385 1.802586407625144  11.10566739629653 1.715833625430773 1.778743519891583  10.98096296806172 1.73722899819078 1.684061479149677  10.99125018438412 1.651090044817306 1.789657732248873  10.98195430872847 1.676903278125826 1.667474878654044  10.68417880777289 1.903435682781784 1.618155850345301  10.68094363458501 1.852495509621075 1.586845535890262  10.67735400975792 1.801588334528826 1.555261330408848  10.67373725055306 1.750618516698883 1.523621834472615  10.67028677433954 1.699553216036712 1.492006790032395  10.66713184612628 1.648380898654706 1.460463377924372  10.66432925551913 1.597110339784218 1.429025888875075  10.30127920531562 2.471629926183964 1.239774571027439  10.35076364097268 2.549104708523015 1.177867729300095  10.29291086137545 2.441667994571083 1.194587502125608  10.34219512193976 2.517972389415739 1.132278227872707  10.2843107662159 2.411725012550711 1.149538401388881  10.33344023830808 2.486829904913697 1.086820939165302  10.27559756467694 2.381813550492054 1.104586274467113  10.3246032972976 2.455702730024959 1.041444386804296  10.26688847808923 2.351940728355737 1.059697599518331  10.31577805414771 2.424611915274283 0.996117233745214  10.25830846359022 2.32211337529143 1.014850021853711  10.30705684668868 2.393574534822898 0.950820301641116  10.24999733385366 2.292332135535876 0.9700314099049056  10.29852004327263 2.362604635761607 0.9055439323291532  9.80484091053815 2.053988105438 1.55985435085097  9.803525678712251 2.023554059475192 1.51551196299033  9.802004068750831 1.993264318538807 1.471320434401566  9.8003701647336 1.963075610449241 1.427279887442423  9.798730810775735 1.932945800379155 1.3833892
[...]
<PointData  Vectors="f_24"> 
<DataArray  type="Float64"  Name="f_24"  NumberOfComponents="3" format="ascii">-3.0375676192005274e-02 -1.0209784950532462e-01 -5.0234952631543754e-02  -2.8294604952286084e-02 -1.0283334997078700e-01 -4.7677018273562827e-02  -3.0878014454768218e-02 -1.0221091260909380e-01 -5.5194738576696246e-02  -3.0765003055029102e-02 -1.0283249694847511e-01 -5.3371002366707262e-02  -2.8394880731983714e-02 -1.0261738894915376e-01 -4.5747034579049752e-02  -3.0242233802370448e-02 -1.0195902956742084e-01 -4.8358032348525079e-02  -3.0713238682183518e-02 -1.0323018546248648e-01 -5.1898881290826746e-02  -2.8495508010474662e-02 -1.0245622412083488e-01 -4.4237223183702171e-02  -3.0153535997830664e-02 -1.0185500114681065e-01 -4.6883842254547718e-02  -3.0688296284195098e-02 -1.0356476197445194e-01 -5.0558350638117464e-02  -2.8596275841633104e-02 -1.0241952172181862e-01 -4.2944823899691197e-02  -3.0081940969509380e-02 -1.0183835981991038e-01 -4.5601090173159137e-02  -3.0657452615773264e-02 -1.0397093093833572e-01 -4.9197117055746253e-02  -2.8696465697970418e-02 -1.0255151014313534e-01 -4.1728282482620803e-02  -3.0014002825343323e-02 -1.0196825683712238e-01 -4.4375700030506199e-02  -3.0598927045472644e-02 -1.0456549209219078e-01 -4.7708157573172018e-02  -2.8795286163741753e-02 -1.0289834779552125e-01 -4.0493383928261253e-02  -2.9940411344076764e-02 -1.0230121017881678e-01 -4.3120196727855928e-02  -3.0499521056117265e-02 -1.0544961576345709e-01 -4.6015945329252406e-02  -2.8896846918625561e-02 -1.0350300253934190e-01 -3.9170586823568825e-02  -2.9850594062136759e-02 -1.0287689547916656e-01 -4.1786428123227116e-02  -4.2375369290212711e-02 -9.0053079748299097e-02 -5.2357565250642391e-02  -4.0986715614189054e-02 -9.2447525852213219e-02 -5.2097716997359246e-02  -4.3442796810564066e-02 -8.7990706097556173e-02 -5.5323608440699105e-02  -4.2341944670957483e-02 -8.6737007015627282e-02 -5.4651695823595317e-02  -4.0117505521653177e-02 -9.0885726970975703e-02 -5.1754539571573978e-02  -4.1475293161512432e-02 -8.8328250929489704e-02 -5.2175223830757490e-02  -4.1373249762751634e-02 -8.5774477831965124e-02 -5.4363628714514577e-02  -3.9340548261928468e-02 -8.9623806733752906e-02 -5.1662111339883882e-02  -4.2101756135070452e-02 -9.0624125337044531e-02 -5.5361963153707582e-02  -4.1034971876857153e-02 -8.9569845102451806e-02 -5.4551362224988964e-02  -4.0120311320598720e-02 -8.8726040676021134e-02 -5.4077761512666217e-02  -3.9275248640831754e-02 -8.8014746077094003e-02 -5.3785000058481282e-02  -2.8641059842786920e-02 -1.0288850841584878e-01 -5.2485612419100901e-02  -2.8771482402231322e-02 -1.0339190966277639e-01 -5.0520845793477508e-02  -2.8917558933267418e-02 -1.0375274382481690e-01 -4.8921205481137604e-02  -2.9076728227924273e-02 -1.0408901426050456e-01 -4.7477731494952477e-02  -2.9228116240556035e-02 -1.0452632626713300e-01 -4.6031385250368213e-02  -2.9360171248648620e-02 -1.0517095368784990e-01 -4.4481483824912453e-02  -2.9462116261421773e-02 -1.0611719175454119e-01 -4.2782508436521406e-02  -3.1807323471456837e-02 -1.0390475358856906e-01 -6.6226825846034107e-02  -3.0888570036366469e-02 -1.0349989529267642e-01 -6.3120180295569914e-02  -2.8227097038986269e-02 -1.0425043685397724e-01 -6.3268074712017813e-02  -2.8631570540589062e-02 -1.0543330262789782e-01 -6.2654523411478424e-02  -3.0993069255093837e-02 -1.0466662249099300e-01 -6.2203506816790176e-02  -3.1959010295681642e-02 -1.0477962291297302e-01 -6.6081798306396142e-02  -3.1154826571116685e-02 -1.0529947365732939e-01 -6.1340390406082065e-02  -3.2183194180704193e-02 -1.0507143298985692e-01 -6.5811468207891577e-02  -2.9080358841379991e-02 -1.0601770398483455e-01 -6.2008417602427361e-02  -3.1335542874022577e-02 -1.0565438233394230e-01 -6.0386245961458300e-02  -3.2421961127416986e-02 -1.0501673973777842e-01 -6.5322959060660893e-02  -2.9537680454304171e-02 -1.0628380741322373e-01 -6.1203589230618333e-02  -3.1497253441007900e-02 -1.0593877309549340e-01 -5.9205793159499240e-02  -3.2631789770224642e-02 -1.0480578352364020e-01 -6.4511300043668909e-02  -2.9981054474476385e-02 -1.0644165679521315e-01 -6.0120925115551546e-02  -3.1606047619370865e-02 -1.0634552877298432e-01 -5.7675354943647138e-02  -3.2773484142756777e-02 -1.0462965849194072e-01 -6.3251151391154906e-02  -3.0386157869404198e-02 -1.0668283000580427e-01 -5.8645084240892514e-02  -3.2816684427172033e-02 -1.0470815269184675e-01 -6.1437509509773759e-02  -3.1626780827880160e-02 -1.0708974752337634e-01 -5.5744135349112274e-02  -3.0735392756308804e-02 -1.0720297025665133e-01 -5.6683438813753491e-02  -2.9549941817989180e-02 -1.0458872427535899e-01 -6.5916731316828459e-02  -2.9959249714886668e-02 -1.0527545199548115e-01 -6.6112187353726162e-02  -3.0412852915394178e-02 -1.0540076890403587e-01 -6.6076134050946159e-02  -3.9592141844969966e-02 -9.4478106664823536e-02 -5.1888230305371555e-02  -3.8819265353391662e-02 -9.3051970223536673e-02 -5.1367252252546937e-02  -3.8124541063457973e-02 -9.1867307048276170e-02 -5.1092670189726942e-02  -3.7474761730558234e-02 -9.0910896165646612e-02 -5.0995076543771146e-02  -3.8610269400971640e-02 -8.8614877724218583e-02 -5.1740146519833524e-02  -3.6843225569117538e-02 -9.0148363194229919e-02 -5.1018178864383854e-02  -3.8448855721897233e-02 -8.7449877306951890e-02 -5.3583312475561654e-02  -4.0598719029390593e-02 -9.7441636590119937e-02 -6.3992234209213517e-02  -3.9129587635063592e-02 -9.5543423687720674e-02 -5.8387954458348552e-02  -4.1440268950836016e-02 -9.4093329479539536e-02 -5.9823677761534071e-02  -4.1616013656153042e-02 -9.1591181127556168e-02 -6.2141393797790948e-02  -3.9506790624935048e-02 -9.2823459713947204e-02 -6.0919148636257497e-02  -4.0646357268010108e-02 -9.5797239795428285e-02 -6.5899923856873502e-02  -4.1749797743796779e-02 -8.8968256668261636e-02 -6.3928909147308838e-02  -3.9848180079393482e-02 -9.0043423234418496e-02 -6.2905831119547895e-02  -4.0669120010681931e-02 -9.3921573438702291e-02 -6.7309855201977409e-02  -4.1836283477808434e-02 -8.6159340196534304e-02 -6.5291550990572711e-02  -4.0139878023551116e-02 -8.7096982530286304e-02 -6.4451086017727435e-02  -4.0651905176174313e-02 -9.1799051034857013e-02 -6.8300944395167290e-02  -4.1854057621574445e-02 -8.3061615932452648e-02 -6.6303989339523375e-02  -4.0370676342175775e-02 -8.3860509136732903e-02 -6.5639013306086916e-02  -4.0561570202799296e-02 -8.9391756090788477e-02 -6.8904640937935163e-02  -4.1774891946910961e-02 -7.9540201176932598e-02 -6.7010979461309322e-02  -4.0523210037587139e-02 -8.0168787651087939e-02 -6.6533781808307879e-02  -4.0345589597868811e-02 -8.6622932352309487e-02 -6.9115173465475049e-02  -4.1561756326487571e-02 -7.5437944260343892e-02 -6.7445304327199640e-02  -4.0576145276018397e-02 -7.5790821556956156e-02 -6.7193116578803100e-02  -3.9923459597996910e-02 -8.3387381033224739e-02 -6.8915160607443418e-02  -4.0475798810891334e-02 -9.5024819554956341e-02 -6.0644241379953744e-02  -3.8713126185551616e-02 -9.7140765249979555e-02 -6.0377969463468469e-02  -4.1123538777964042e-02 -9.5813476980850673e-02 -6.4080358760668588e-02  -4.0277189934431835e-02 -9.6453998186930498e-02 -6.3426629355395656e-02  -3.7871254861607424e-02 -9.7555812860530805e-02 -5.9118900816669019e-02  -3.9522565391427164e-02 -9.5320770828654491e-02 -5.9520267105403465e-02  -3.9586370194626207e-02 -9.6574111627759265e-02 -6.2891658847477300e-02  -3.7192040994027460e-02 -9.7684696973057830e-02 -5.8187413885999358e-02  -3.8766202540236279e-02 -9.5282924100211913e-02 -5.8778003870361070e-02  -3.8948112526694986e-02 -9.6442533810153705e-02 -6.2340191469704070e-02  -3.6573704251184204e-02 -9.7713088625847419e-02 -5.7325923743966604e-02  -3.8072694671444446e-02 -9.5137443545976016e-02 -5.8118180747618500e-02  -3.8279457099511804e-02 -9.6270913450442280e-02 -6.1641579778318599e-02  -3.5937388777699544e-02 -9.7789638030366124e-02 -5.6388577766068891e-02  -3.7359354754480170e-02 -9.5041759605648882e-02 -5.7392916861651530e-02  -3.7500060578690486e-02 -9.6251622676090318e-02 -6.0680895645151910e-02  -3.5223300123016749e-02 -9.8048158883623213e-02 -5.5293572846494360e-02  -3.6562158258084433e-02 -9.5138704573681232e-02 -5.6511758720737777e-02  -3.6526406076561053e-02 -9.6593455193195274e-02 -5.9353358770303850e-02  -3.4389478553608577e-02 -9.8614880820645831e-02 -5.4027438505120491e-02  -3.5634602673851844e-02 -9.5585908955751628e-02 -5.5432371990705713e-02  -4.0433163481606450e-02 -9.3328601838565603e-02 -5.5189898287190731e-02  -3.9480404734252482e-02 -9.2434129083263025e-02 -5.4202228737222628e-02  -3.8639549929794501e-02 -9.1703450235716744e-02 -5.3518765515953651e-02  -3.7864783092243073e-02 -9.1094867726999304e-02 -5.3021082805930646e-02  -3.7104993261911010e-02 -9.0625340185539610e-02 -5.2615534090114255e-02  -3.6320124752646663e-02 -9.0323400984004931e-02 -5.2255004361265948e-02  -3.6211706978036357e-02 -8.9561326118287793e-02 -5.1131552567602136e-02  -3.7606466880210306e-02 -8.7061487950671229e-02 -5.3435543638387185e-02  -3.5478382605433241e-02 -9.0211758815189558e-02 -5.1928718198773066e-02  -3.5562280931072332e-02 -8.9136026232819271e-02 -5.1311199528542184e-02  -3.6735502018629990e-02 -8.6890399128234111e-02 -5.3358911157691563e-02  -4.4904247335827645e-02 -8.7246172101701214e-02 -5.9366982913035993e-02  -4.3683718765645009e-02 -8.6925019767554554e-02 -5.8509709537008785e-02  -4.2696353127172959e-02 -8.6342102507360310e-02 -5.8008135928941114e-02  -4.1812021121063622e-02 -8.5724066320824438e-02 -5.7658871508876865e-02  -3.8421055921833459e-02 -9.9542030875154341e-02 -6.4216911503106294e-02  -3.8601070360428778e-02 -9.8006499956450735e-02 -6.6134075171091933e-02  -3.8766064174896482e-02 -9.6229883003517494e-02 -6.7567413268546220e-02  -3.8898726735010256e-02 -9.4200749312635446e-02 -6.8570049608092709e-02  -3.8968500544385984e-02 -9.1885861618571846e-02 -6.9170813128417816e-02  -3.8937350296974038e-02 -8.9211591233698401e-02 -6.9361920558022774e-02  -3.8758645006562571e-02 -8.6013787074231449e-02 -6.9096423785019165e-02  -3.8520659130785201e-02 -9.8520259338807092e-02 -6.3470574617614434e-02  -3.7844734309867067e-02 -9.9265825542897146e-02 -6.2552669969978672e-02  -3.7291600388118962e-02 -9.9538992498848483e-02 -6.1806801149762662e-02  -3.6794735189200817e-02 -9.9598298458834583e-02 -6.1043797395971627e-02  -3.6267523900337995e-02 -9.9633542599619998e-02 -6.0124735523760423e-02  -3.5641332556372148e-02 -9.9826118169796113e-02 -5.8946097100457333e-02  -3.4864975159329396e-02 -1.0037875173470157e-01 -5.7470136646205532e-02  -3.8015960347707684e-02 -1.0098339599554347e-01 -4.3190137934521242e-02  -3.6578102572595701e-02 -1.0208482139901200e-01 -4.2886331529238743e-02  -3.8384948077205210e-02 -9.7994952191898840e-02 -4.5889590445735262e-02  -3.6555061348752131e-02 -1.0045534667290371e-01 -4.4314560877222346e-02  -3.7903324515309651e-02 -9.9317385768952923e-02 -4.4928001790080711e-02  -3.8067260727094161e-02 -9.6140072754342082e-02 -4.6949234360719752e-02  -3.6434552423919582e-02 -9.9017367724468841e-02 -4.5663124807735454e-02  -3.7716971758821258e-02 -9.7877686720092741e-02 -4.6534123778933435e-02  -3.7697984359561558e-02 -9.4661685619437622e-02 -4.7883258365918092e-02  -3.6271608595257306e-02 -9.7779898058031431e-02 -4.7011998951054797e-02  -3.7311668133907419e-02 -9.3450065687242248e-02 -4.8864001234657825e-02  -3.7969612760459480e-02 -9.6389803638473825e-02 -5.1189013050713127e-02  -3.7276657297641229e-02 -9.5041228333247463e-02 -5.0527791756277952e-02  -3.6669061346696424e-02 -9.3981425333699686e-02 -5.0128937956142233e-02  -3.6099846858176445e-02 -9.3133994166004763e-02 -4.9887744132868311e-02  -3.5543921755516926e-02 -9.2470721941541878e-02 -4.9752619056660154e-02  -3.4983275890560855e-02 -9.1979222437193017e-02 -4.9693533600980846e-02  -3.4404444804021869e-02 -9.1665646061190431e-02 -4.9681908969189080e-02  -4.2896608076893293e-02 -9.5404322283697454e-02 -6.4561347073441772e-02  -4.4051950495709612e-02 -9.1805119216537265e-02 -6.0814416021278801e-02  -4.2692910250776019e-02 -9.3960730347000546e-02 -6.6266762455817807e-02  -4.3939825176994511e-02 -8.9567502731035378e-02 -6.2918143827810830e-02  -4.2508939663968459e-02 -9.2248061454387770e-02 -6.7516456826489546e-02  -4.3841156513354435e-02 -8.7179665143959570e-02 -6.4516057589605366e-02  -4.2301393256127647e-02 -9.0277254596596884e-02 -6.8371193238025013e-02  -4.3713724075485919e-02 -8.4596512681501770e-02 -6.5713915435333559e-02  -4.2016774288661331e-02 -8.8042392419867527e-02 -6.8860745708915108e-02  -4.3513462637257805e-02 -8.1748045639464778e-02 -6.6576153028541071e-02  -4.1592694061667379e-02 -8.5507256785458563e-02 -6.8971351904289241e-02  -4.3190680816589638e-02 -7.8527286694340073e-02 -6.7132369963843780e-02  -4.0961808127165024e-02 -8.2591037731715611e-02 -6.8636333265768304e-02  -4.2699301735513083e-02 -7.4782074822543815e-02 -6.7388299839147847e-02  -2.8679751554947910e-02 -1.0348922644118294e-01 -5.9813595023826535e-02  -2.8929959688771864e-02 -1.0473843076904878e-01 -5.8481328648926870e-02  -2.9228843614031854e-02 -1.0551676160062305e-01 -5.7338136320690770e-02  -2.9540286797982034e-02 -1.0604735080904648e-01 -5.6204248892794274e-02  -2.9841542116421413e-02 -1.0653924508168518e-01 -5.4922955618332811e-02  -3.0107507971379531e-02 -1.0717752984492514e-01 -5.3364245491153768e-02  -3.0305542770076313e-02 -1.0813008375854540e-01 -5.1391038276897012e-02  -3.7765572087305029e-02 -9.9970151100320093e-02 -6.5623891802845447e-02  -3.6480301078934525e-02 -1.0158847702919682e-01 -6.7020086079344302e-02  -3.9193453160534727e-02 -9.9799274404469937e-02 -6.7644363029769047e-02  -3.8781084284100806e-02 -1.0027906420117692e-01 -6.7779987452187968e-02  -3.6226693237305256e-02 -1.0234491251870208e-01 -6.6858178287825115e-02  -3.7304265137158954e-02 -1.0083632129816851e-01 -6.5079393417364156e-02  -3.8442849786813574e-02 -1.0023431750783177e-01 -6.7745552902860814e-02  -3.6046434049105243e-02 -1.0255453280678439e-01 -6.6595121541848851e-02  -3.6932611128661350e-02 -1.0114007167397290e-01 -6.4575690185178558e-02  -3.8116639311979575e-02 -9.9854373405662097e-02 -6.7495123167897880e-02  -3.5882397036743348e-02 -1.0243380099511112e-01 -6.6147028144180789e-02  -3.6592659484402192e-02 -1.0114729198544914e-01 -6.3984342073932873e-02  -3.7735147247735357e-02 -9.9310213298731465e-02 -6.6947236325583220e-02  -3.5674980053643758e-02 -1.0216826832692741e-01 -6.5415282126624605e-02  -3.6215147088551447e-02 -1.0105862642874577e-01 -6.3175450172577405e-02  -3.7221118881294660e-02 -9.8761800613026376e-02 -6.5988027696208665e-02  -3.5358876398153445e-02 -1.0193927561248371e-01 -6.4274314971655561e-02  -3.5730349693935910e-02 -1.0106890487531699e-01 -6.2022639454046874e-02  -3.6477576927960866e-02 -9.8386305206293351e-02 -6.4462549925268245e-02  -3.4853187823746287e-02 -1.0195356324942388e-01 -6.2567823040091411e-02  -3.5064649954940345e-02 -1.0139232310567391e-01 -6.0391092151559467e-02  -4.2623800125230218e-02 -9.0881691933962269e-02 -5.8444523705947111e-02  -4.1531851179680300e-02 -9.0495687971105937e-02 -5.7453649588309522e-02  -4.0626497531910742e-02 -8.9981735474667646e-02 -5.6846003593953531e-02  -3.9802309229217944e-02 -8.9472284112503131e-02 -5.6394742121069423e-02  -3.8981231285684072e-02 -8.9061824044124910e-02 -5.5970766342538086e-02  -4.0937657137344916e-02 -8.5193329998697234e-02 -5.7338391457315091e-02  -3.8100960389847741e-02 -8.8844865887831470e-02 -5.5492426325021299e-02  -2.6501928756427134e-02 -1.0369277760027436e-01 -5.7327846715727736e-02  -2.6921661611049610e-02 -1.0489189994803179e-01 -5.5814522041668646e-02  -2.7382978461088291e-02 -1.0568244733221087e-01 -5.4519467836957908e-02  -2.7855859286702329e-02 -1.0626811659231092e-01 -5.3239250085598516e-02  -2.8320927094427982e-02 -1.0684612729803850e-01 -5.1820897545567256e-02  -2.8761493859238259e-02 -1.0759141891900664e-01 -5.0141612093778827e-02  -2.9162588487667500e-02 -1.0867903286224655e-01 -4.8108353453744354e-02  -2.7593968305591472e-02 -1.0327283933703460e-01 -5.4473896096861062e-02  -2.7866063831273945e-02 -1.0416972042617408e-01 -5.2589173190063412e-02  -2.8171441959818942e-02 -1.0479758888025774e-01 -5.1071698801030532e-02  -2.8479118352776375e-02 -1.0531744009277486e-01 -4.9662404251253588e-02  -2.8778701477742426e-02 -1.0589259366876513e-01 -4.8189515332223605e-02  -2.9058655503828669e-02 -1.0666883418224371e-01 -4.6534790893388765e-02  -2.9306915956367689e-02 -1.0778930204115850e-01 -4.4623960206033625e-02  -3.2323296434507237e-02 -1.0254380721267889e-01 -6.1754548405296802e-02  -3.3614296948503035e-02 -1.0287213036476127e-01 -6.5840593054380836e-02  -3.3555312219452328e-02 -1.0387439975340637e-01 -6.5421783067823772e-02  -3.2226909345499592e-02 -1.0364958400745405e-01 -6.0545567915337502e-02  -3.3568451070808934e-02 -1.0430470232266988e-01 -6.4957916231103988e-02  -3.2201928449311849e-02 -1.0428205433715931e-01 -5.9494088412900124e-02  -3.3601482142278954e-02 -1.0439961749691766e-01 -6.4339307211622399e-02  -3.2200299264000767e-02 -1.0468323810001591e-01 -5.8425096589715182e-02  -3.3604127785048211e-02 -1.0436501070050354e-01 -6.3449901968640920e-02  -3.2179445950707659e-02 -1.0505765645231634e-01 -5.7193006367823679e-02  -3.3527500535626399e-02 -1.0440079598595627e-01 -6.2162007360092426e-02  -3.2101874923925119e-02 -1.0558944815385614e-01 -5.5680686171702638e-02  -3.3327313959008349e-02 -1.0472659001476245e-01 -6.0334081197090737e-02  -3.1937333147103862e-02 -1.0644965565784699e-01 -5.3811741579115557e-02  -3.6699148073281507e-02 -9.4811486881823295e-02 -5.4273077276545630e-02  -3.8870690194513405e-02 -8.9956233064204583e-02 -5.0160694645600523e-02  -3.9533438652347014e-02 -8.6043938102214321e-02 -5.3138873192473943e-02  -3.7365708220261251e-02 -9.1483541496794635e-02 -5.7130988995120577e-02  -3.7983139758911322e-02 -8.8200708341400647e-02 -5.9409543536145040e-02  -4.0131284878590044e-02 -8.2262782562614073e-02 -5.5573893605836373e-02  -3.8550100858198585e-02 -8.4802009725206476e-02 -6.1250458256870699e-02  -4.0667505211759651e-02 -7.8434281442797973e-02 -5.7602570817872310e-02  -3.9868385997004437e-02 -9.9353747282541843e-02 -6.6599320338267640e-02  -3.9805675332529669e-02 -9.8463638803933190e-02 -6.8028914182099637e-02  -3.9732204124776585e-02 -9.7227395433437253e-02 -6.9031293864265195e-02  -3.9632272581324603e-02 -9.5701668799943018e-02 -6.9647884697781368e-02  -3.9463152094322045e-02 -9.3912163761902465e-02 -6.9874762727370379e-02  -3.9160516892424689e-02 -9.1857616145761697e-02 -6.9662157306131331e-02  -3.8621539053941653e-02 -8.9497832366420435e-02 -6.8922917590240745e-02  -4.1084743489237463e-02 -9.0077341595013044e-02 -5.3349853389700594e-02  -4.1506883069532825e-02 -8.6579238331051259e-02 -5.6098438656811050e-02  -4.1868063379168992e-02 -8.3146512880056103e-02 -5.8313336643056386e-02  -4.2178132268939385e-02 -7.9622113027100025e-02 -6.0117505384220719e-02  -4.2433736990517341e-02 -7.5840857428352143e-02 -6.1629129262202376e-02  -4.2632042753589595e-02 -7.1601904871028466e-02 -6.2948425578904760e-02  -4.2764257156852059e-02 -6.6655248623242583e-02 -6.4162307696191440e-02  -4.5000835533428464e-02 -9.2957704195603924e-02 -6.6503019365213731e-02  -4.3675239012112566e-02 -9.5402391861422936e-02 -6.6939429738064465e-02  -4.6357575241495322e-02 -9.1047800816865754e-02 -6.5351546660637763e-02  -4.3143094512502873e-02 -9.4889423284279392e-02 -6.7907572519762482e-02  -4.4196001494522970e-02 -9.2860707464005848e-02 -6.6942124423960400e-02  -4.5683856023349678e-02 -9.0196095731726128e-02 -6.6429944643081371e-02  -4.2686829736180210e-02 -9.3972591873846781e-02 -6.8544106589802478e-02  -4.3523949839276370e-02 -9.2297285826831305e-02 -6.7194946287718438e-02  -4.5116694819851616e-02 -8.8988708596794086e-02 -6.7176664562177496e-02  -4.2235667711358678e-02 -9.2751239087071502e-02 -6.8869550954820141e-02  -4.2891194321299279e-02 -9.1428604710384914e-02 -6.7244390237977958e-02  -4.4572415075227974e-02 -8.7505593976875864e-02 -6.7630776514189583e-02  -4.1712123169655439e-02 -9.1311687776394354e-02 -6.8858066585409938e-02  -4.2201945898645211e-02 -9.039679345