<?xml version="1.0"?>
<VTKFile type="UnstructuredGrid"  version="0.1"  >
<UnstructuredGrid>
<Piece  NumberOfPoints="714" NumberOfCells="2949">
<Points>
<DataArray  type="Float64"  NumberOfComponents="3"  format="ascii">0.863131187756453 3.309152538202909 0.6951791144142431  0.9733413041673884 3.381630496926725 0.7175071616577456  0.9611989101770497 3.296797120112986 0.6938005641578472  0.9616365504987174 3.320652534705044 0.6070969137999584  0.9752978576774286 3.41283966039549 0.6328757049465316  0.8652078719180989 3.333401937401035 0.6065725637635438  0.9617917990470689 3.344620240463928 0.520820707437561  0.9769240980932915 3.444072360332373 0.5486421674582825  0.8669738202978722 3.357780594490527 0.5184103852764304  0.9617102505098157 3.368594868641833 0.4349409159251061  0.978326882046914 3.475249817014657 0.4648089887365807  0.8684518326610648 3.382155757854868 0.4307248757562405  0.9614878776564899 3.392501325991912 0.3494485534891602  0.9796357431328002 3.506306352810533 0.3813700009076298  0.8697377720141749 3.406464673219582 0.3435129029500877  0.9612695130165105 3.416305851841503 0.2643916010860451  0.9810399536687565 3.537182527823846 0.2983595959226025  0.8709708447974478 3.430688476222275 0.2568428412947477  0.9614424567405739 3.439821343131783 0.1798307572458852  0.9828740286153024 3.567709510039175 0.215791122239076  0.872614899012123 3.454596148981837 0.1707635762833835  0.7539915315759323 2.870926284642188 0.6611085234823647  0.8876137850008619 2.959087411096921 0.6518308553544925  0.8738189324274078 2.833228120650987 0.6747761149233517  0.8758282799409457 2.81804721131354 0.589343441325622  0.8882558943686805 2.953580753633041 0.5635466716622319  0.7557295819409279 2.859924775142503 0.5718308597416868  0.8777227269838943 2.80342563192222 0.5041469911291641  0.8887644902823945 2.948488147039498 0.4755877558799164  0.7573520616459816 2.849383295884123 0.4828446084410569  0.8794525388801886 2.788972983466694 0.4191886159162955  0.8891082923057828 2.943510814337269 0.3879494067482503  0.7587676107353618 2.838955286405647 0.3942037014367842  0.8893777759527761 2.938486324372324 0.3006301517528899  0.7600574731419826 2.82846228460178 0.305920071492886  0.8810805218320037 2.774498386666388 0.3345177247249422  0.8896886877965841 2.933381706677582 0.2136541340992038  0.761358055785084 2.817898128899464 0.2180066884915336  0.8827439585919469 2.759968956183388 0.2500742619461281  0.8902857377704336 2.928079917254016 0.1270661181944406  0.7628116843006728 2.807211740360173 0.1305850952433534  0.8845966076586045 2.745270309134947 0.1660236230660066  0.7301745752583682 3.328640206463708 0.6949324675455003  0.864666769981601 3.413186392116368 0.7241272352470429  0.8686584666252036 3.446626264555755 0.6378077346128911  0.7339061522785907 3.353603293194827 0.60314808013536  0.8722513683009548 3.480057753209383 0.5520861083001887  0.7372983272612347 3.37866947106499 0.5119732044328023  0.8756149636767236 3.513404913337935 0.4668302486634127  0.740367850154145 3.403705278038329 0.4213667605158603  0.878870234372594 3.546608351576782 0.3820539950132528  0.743161928147162 3.428704565480725 0.3313626547382195  0.882216553151338 3.579604424974089 0.297810113793489  0.745790132787495 3.453659746120058 0.2420752870786216  0.8860365752105157 3.612151343529755 0.2140955170048717  0.7488204053821917 3.478256047368769 0.1536235825049068  0.7593816215658752 2.996365938398029 0.6503083885289371  0.7599511636829057 2.9965664053326 0.5587010271690858  0.7604053476078039 2.997094531811642 0.4675631886492129  0.7606392460281801 2.99769809603894 0.3768494321255088  0.7607626064373146 2.998214493019866 0.2865701767058857  0.7609262137426375 2.998567586988284 0.1967351323987671  0.7612693110975984 2.998758761461317 0.1074159457174575  0.3847295236170882 3.291257753105285 0.6618864392122071  0.4972192012255082 3.324240366820403 0.6740544748318256  0.511746054471787 3.201536260818814 0.6555043245719254  0.5189535891078308 3.215430640856039 0.5563487200415599  0.5049352330568067 3.350453389310956 0.5756100725205446  0.3885661955283519 3.314347374143308 0.5590838760090231  0.525812568731633 3.229360892647383 0.4580448578959105  0.5123694132614733 3.376552810634896 0.4781656671131606  0.3925443497867224 3.336991069683478 0.4572388217628334  0.5324827276313534 3.243083189884524 0.3604831747617293  0.5195858146724505 3.402462360537889 0.3814892323470867  0.396327159864927 3.359215343837599 0.3561544747262446  0.5390788740078141 3.25655263474819 0.2636177464662272  0.5265789679670732 3.428259594074662 0.2856189195777671  0.3999620510656147 3.381141004469208 0.255774836013572  0.5457530178551689 3.269731412311396 0.1674567311059871  0.5336100267539418 3.453844172621484 0.1906000511736567  0.4036696965200507 3.402775319403235 0.1561272217484961  0.5526983195313457 3.282601417810675 0.07201498956639746  0.5413134184554813 3.479038849671777 0.09641109856773805  0.4079690038124495 3.423948728849139 0.05748939050652092  0.7596306752802955 3.435368644627871 0.7291315659949481  0.7626496360090984 3.472421739142255 0.6414797145649567  0.7653034695302114 3.50939136930393 0.5544865147714716  0.7676838427329828 3.546270505088622 0.4680916667834367  0.7698900752648631 3.583020103036301 0.3822737446523037  0.7721000529466439 3.6195818896434 0.2970362656299145  0.7747615635686693 3.65567651060934 0.212368639857941  0.8461132923847308 3.520443912698591 0.7749892974162618  0.8495361440490664 3.564628701900459 0.6929441473122523  0.8525833488149772 3.60868443920692 0.6114144604425235  0.855425880109151 3.652564718845854 0.5303790809406745  0.858230357830882 3.696240040815332 0.4498046717356678  0.8611639495945622 3.739654308861248 0.3696794683385149  0.8645558189317134 3.782623429233958 0.2899928477584173  0.2811769111492475 2.507298297840812 0.7640072453105182  0.4057969753182139 2.504226173662519 0.7642662971990629  0.2765072819979336 2.397062930875575 0.8140900547890229  0.2814438661365654 2.470400525481931 0.6758146445944225  0.5223362053480143 2.954568359532387 0.6503250644928256  0.5235175928546048 2.845341935064245 0.6623158004276692  0.4098497608624208 2.833404655192919 0.6657274027551088  0.4110248990631935 2.815496950932793 0.5693583859795562  0.5227403720156952 2.830067647734126 0.5682965081228495  0.5251205441302608 2.947302349394737 0.5538075732188834  0.4118249078212164 2.797546878254739 0.4736793719285999  0.5217043526800004 2.815021603622844 0.4748012191817557  0.5276217047380911 2.940181500770373 0.4578600061910134  0.5203484098290523 2.800014729069872 0.3818259192210118  0.5298623250914849 2.93301317571601 0.3625132486811516  0.4123511730380919 2.779524941512202 0.3787208726202318  0.5188095010499352 2.785006152076505 0.2893564189788145  0.5319748726089732 2.925731310755518 0.2677719887200534  0.4127455765910739 2.761539696936163 0.2843014161092092  0.5171298436181218 2.770093027028871 0.1972973329762271  0.5339953202060214 2.918346071283062 0.1736291692553361  0.4130324959339502 2.74371475316021 0.1902788816348364  0.5152640487659753 2.755262157438418 0.1057070305565281  0.5356025366120631 2.910947846721185 0.08010506264742398  0.4127957872292741 2.726183323141485 0.09655443159636798  0.1568500000043948 3.297460337250095 0.6595639950680336  0.2824818292709887 3.401238265222657 0.6987527584637649  0.272566609654512 3.293646977636361 0.6557213176168981  0.2750643047780703 3.318106554734593 0.5490846313418198  0.2824262441273052 3.440529242156026 0.5961003906992801  0.1568500000041164 3.329405803370474 0.5508440687898557  0.2778760493776918 3.341580225379911 0.4434224454415708  0.2828997842689462 3.478789482478818 0.4942329948674461  0.1568500000038381 3.359827962786915 0.4429783062217995  0.28064591809307 3.364545850572091 0.338635665455663  0.2831945573990401 3.516457823282801 0.3933541405154555  0.1568500000035597 3.389789145925911 0.3361218642478202  0.2833351445369995 3.387138624760232 0.2344902529134001  0.2833537594341655 3.553863891809546 0.293208505585545  0.1568500000032814 3.419525649678813 0.2298533745602248  0.2859989361954074 3.409597527869548 0.1309220287763186  0.283624465022386 3.59098525341738 0.193744712888321  0.1568500000030031 3.449142689522036 0.1240227302048143  0.2893135470473624 3.431658176308488 0.02794677835927642  0.2846884756984993 3.628435421758221 0.09547739807715479  0.1568500000027248 3.478501320939467 0.01983438229468411  0.4024461218937578 3.404357561872779 0.6945677428511789  0.4046482880566444 3.440877302017606 0.5952108324321116  0.4070592095175593 3.476984150987702 0.4969013017916827  0.4092048657991013 3.512868490918163 0.3994493087169512  0.4110063201044399 3.548684252606362 0.3028997099867072  0.4128916406208522 3.584228542130624 0.2071585735160728  0.4157454665909349 3.619567742603995 0.112279906960427  0.6397302206811882 3.08608739408497 0.6517596764452531  0.7561505502477238 3.210174657262454 0.6669430931268747  0.7796508219702315 3.107434337884378 0.658419556620611  0.7812474439952617 3.114034539086068 0.5664968660798192  0.7572724073438458 3.226426296758361 0.5745928428737229  0.6427941207115633 3.090887420554057 0.5564939720026437  0.7826578803999732 3.120935922542914 0.4750902670811716  0.7581763796845294 3.242845183534401 0.4827861480190588  0.6456347073748772 3.095899330842281 0.4618058655298938  0.7838586814856505 3.127875839245109 0.384137572806064  0.7587719812906815 3.25927636101881 0.3914886179444731  0.6482282154324216 3.100861085683347 0.367693126896062  0.7849286917000367 3.134732238024986 0.2936435707754223  0.7591223286370856 3.275649467722085 0.3007248902698493  0.6506973050750959 3.10565071772962 0.2741482704604217  0.7860072386201481 3.141451002173245 0.2036431711927355  0.759351997655734 3.29194958716345 0.210584106121837  0.6532260080457223 3.110151893411301 0.1811998126180934  0.7873580987184479 3.147951209348543 0.1142202511695853  0.7600130117389466 3.307952940497349 0.1211525728142001  0.6558029124137893 3.114493504530166 0.08888095008092904  0.8949409569437331 2.43255
[...]
<PointData  Vectors="f_24"> 
<DataArray  type="Float64"  Name="f_24"  NumberOfComponents="3" format="ascii">4.5880520042145143e-02 -3.4848538899260151e-02 -1.1289804412058518e-02  4.3766966198381232e-02 -3.1631416162197522e-02 -5.7319778443169003e-03  4.4725752358133183e-02 -3.4970910126249907e-02 -1.1619230520318966e-02  4.4987692685308035e-02 -3.1426513222727638e-02 -7.6647853375653580e-03  4.4040307895623729e-02 -2.9325811298892921e-02 -1.7602739510923198e-03  4.5920421732811793e-02 -3.1292504292839529e-02 -7.3383946141331547e-03  4.5065614841075394e-02 -2.7788407318067317e-02 -4.6770429044445802e-03  4.4144999613869300e-02 -2.6754906995172523e-02 1.2061181225334438e-03  4.5813224809215958e-02 -2.7710788498719396e-02 -4.3900080620323289e-03  4.5084172490112706e-02 -2.3997531277025187e-02 -2.4532821135274411e-03  4.4187407219935429e-02 -2.3936961981226121e-02 3.4043285180241876e-03  4.5654608625452370e-02 -2.3978103974404655e-02 -2.1999119870491184e-03  4.5136793131690028e-02 -2.0029715741107675e-02 -8.0475740714650837e-04  4.4268485019412218e-02 -2.0878730505798172e-02 5.0136743655335558e-03  4.5535293989410544e-02 -2.0061303041616262e-02 -5.7449390535796755e-04  4.5303238898631616e-02 -1.5860210040832063e-02 4.0621322924539707e-04  4.4479584241606800e-02 -1.7584397524100386e-02 6.1664672646462937e-03  4.5541868339940166e-02 -1.5942329113578464e-02 6.2648378476950247e-04  4.5661383813954785e-02 -1.1463947863026751e-02 1.2456031596714283e-03  4.4919314724830524e-02 -1.4062080143777288e-02 6.9755516678502638e-03  4.5770726817301981e-02 -1.1616477512003143e-02 1.4734727196997427e-03  5.0586242861481834e-02 -5.1919071342252099e-02 -4.6444555824133635e-02  4.8636945434027384e-02 -4.7825576492268269e-02 -3.8600467655319812e-02  4.9838753303051507e-02 -5.4018843113593278e-02 -5.0125760550549105e-02  4.9679932623561129e-02 -4.6024784669463983e-02 -4.9554449443005459e-02  4.8628249344618901e-02 -4.0424458974697694e-02 -3.6761111577893649e-02  5.0362298640584641e-02 -4.3973025667127082e-02 -4.5313316995256453e-02  4.9496792667334290e-02 -3.8640053453412287e-02 -4.9227960049712693e-02  4.8514744016572887e-02 -3.3529636239556480e-02 -3.5526432729974480e-02  5.0087050723614884e-02 -3.6589509972918217e-02 -4.4599209996041805e-02  4.9308471388425035e-02 -3.1500571016867485e-02 -4.9196984405097698e-02  4.8377159182344830e-02 -2.6810819074459345e-02 -3.4745041353940943e-02  4.9804778855788184e-02 -2.9431759788569701e-02 -4.4226135490914011e-02  4.8278126008127219e-02 -2.0063467166024761e-02 -3.4325245932460384e-02  4.9561075236148076e-02 -2.2275601363850858e-02 -4.4161273073568583e-02  4.9151263007130484e-02 -2.4367348032687267e-02 -4.9434351393642759e-02  4.8259985029752005e-02 -1.3151045779207357e-02 -3.4218394830391109e-02  4.9394709293612289e-02 -1.4964849105997014e-02 -4.4366353411471784e-02  4.9050683445577441e-02 -1.7069281926533637e-02 -4.9924919219048840e-02  4.8364603780380669e-02 -5.9776168031437536e-03 -3.4392327743758146e-02  4.9338663646101864e-02 -7.4148519650974751e-03 -4.4815156751414863e-02  4.9043842473485602e-02 -9.4987402489688268e-03 -5.0671384753823621e-02  4.7594002685312248e-02 -3.4718370933130231e-02 -1.0246148330626004e-02  4.4944343795161643e-02 -3.0758218011368584e-02 -4.3660466417316307e-03  4.4944772667465348e-02 -2.8681783222615619e-02 -3.9268697278360958e-04  4.7290853092088747e-02 -3.1160325962847183e-02 -6.3526440741534743e-03  4.4818304986057010e-02 -2.6399904615005586e-02 2.4491479790110398e-03  4.6855292640955316e-02 -2.7627147618125184e-02 -3.5102838833373081e-03  4.4648095873071274e-02 -2.3848494876514529e-02 4.5412639395749233e-03  4.6392342533831454e-02 -2.3942922375044862e-02 -1.4209839811035753e-03  4.4531610121114798e-02 -2.1042423425703234e-02 6.0664846188432184e-03  4.5987449437877310e-02 -2.0065892785048878e-02 1.2736312922665324e-04  4.4566206941547747e-02 -1.7998264262862818e-02 7.1563662666589449e-03  4.5722958617103404e-02 -1.5990206947841291e-02 1.2808950981208181e-03  4.4854967215095819e-02 -1.4752545062389251e-02 7.9382506448021622e-03  4.5689376029311876e-02 -1.1730984030777795e-02 2.1221025898023383e-03  4.9715803909073403e-02 -4.6673502765895873e-02 -3.5478732730264792e-02  4.9521930348053939e-02 -3.9478649630004185e-02 -3.3098470371331006e-02  4.9222989173396195e-02 -3.2689813899536027e-02 -3.1371603815917783e-02  4.8909607393028506e-02 -2.6085090839749959e-02 -3.0143091469453012e-02  4.8638869815809317e-02 -1.9480759250878193e-02 -2.9318237592396188e-02  4.8463667084292658e-02 -1.2742785841068589e-02 -2.8828581990020787e-02  4.8435571989484977e-02 -5.7785260753618964e-03 -2.8619478091764263e-02  5.3275925434077095e-02 -3.8050488915181528e-02 -1.0724577652847898e-02  5.1290291592240730e-02 -3.6037785826887173e-02 -9.5306131342774315e-03  5.1706671410233586e-02 -4.0654512254955255e-02 -1.8460178008029422e-02  5.0705986064630684e-02 -3.4823223770021582e-02 -1.5112946863481492e-02  5.0073944658608822e-02 -3.1940913996002407e-02 -5.7505874039221081e-03  5.1701614847654953e-02 -3.3310578706595519e-02 -7.0751019443976177e-03  4.9690936032654100e-02 -2.9371063794394404e-02 -1.2716778836637589e-02  4.8848836490258375e-02 -2.7919391277163495e-02 -3.1094100141340906e-03  5.0078530598089338e-02 -2.8709687400144381e-02 -4.5780501564686481e-03  4.8712525089891170e-02 -2.3986326009129269e-02 -1.1006715656776925e-02  4.7674792522556027e-02 -2.3807784824598759e-02 -1.1929238655078547e-03  4.8524722963678976e-02 -2.4058753900909158e-02 -2.8009200700926458e-03  4.7834191934118586e-02 -1.8511541340988195e-02 -9.7852274415039311e-03  4.6623787858371603e-02 -1.9537606062530414e-02 2.2886727327958186e-04  4.7101610680393903e-02 -1.9250344758656973e-02 -1.4998210447890901e-03  4.7115323727294878e-02 -1.2867306539136581e-02 -8.9172081611224637e-03  4.5756130634925889e-02 -1.5084184654593009e-02 1.3017719607222842e-03  4.5837471818964845e-02 -1.4233560566234493e-02 -5.2285390334391041e-04  4.6607203291526150e-02 -7.0296850429728275e-03 -8.2945551132696232e-03  4.5124098326957233e-02 -1.0453372920122245e-02 2.1650797927010843e-03  4.4726061618749056e-02 -9.0057662490406615e-03 2.4306219180997862e-04  4.6303102813812926e-02 -3.0208910321024195e-02 -3.2946612749111602e-03  4.6020015949225966e-02 -2.8383893358218955e-02 6.5394038985628321e-04  4.5614297090534925e-02 -2.6284730766538297e-02 3.4548072997765697e-03  4.5177304796015678e-02 -2.3936634817882080e-02 5.4960672173093011e-03  4.4802880179264107e-02 -2.1351862164138053e-02 6.9829692097584774e-03  4.4580848575066154e-02 -1.8554644588222344e-02 8.0591547042274791e-03  4.4587497702912871e-02 -1.5569167178703202e-02 8.8376806843562146e-03  4.4255644433894827e-02 -2.6180839814731564e-02 1.8191115439386075e-03  4.4190350591061162e-02 -2.5836180281399626e-02 5.3396034089318988e-03  4.3979879792548526e-02 -2.5019179387159710e-02 7.8607171653539906e-03  4.3741552297820389e-02 -2.3828177811833270e-02 9.6299619294945380e-03  4.3560219635547112e-02 -2.2324231993991642e-02 1.0838078792166989e-02  4.3531056123423735e-02 -2.0564404467997871e-02 1.1619320120752882e-02  4.3753829632793138e-02 -1.8594283435348840e-02 1.2072567923043863e-02  5.3328460673586930e-02 -6.9449280309040587e-02 -7.8131987321638077e-02  5.3330802347596337e-02 -6.9028293976836297e-02 -7.8403163174950427e-02  5.2727816981185852e-02 -7.3895131042345519e-02 -8.7917049084657362e-02  5.3557607215717028e-02 -6.1336440129216178e-02 -8.0304198931474932e-02  5.2505899539698100e-02 -4.9815429561731774e-02 -3.8430805704378311e-02  5.2777863251840251e-02 -5.3948750746323333e-02 -4.7943428258981798e-02  5.3814696894937286e-02 -5.5470162113880998e-02 -4.8445168454857815e-02  5.3208479244210884e-02 -4.6695752214062386e-02 -4.8173367098771250e-02  5.2346774683788087e-02 -4.5605763579654575e-02 -4.7340400905947759e-02  5.1909765541211808e-02 -4.1836732038138508e-02 -3.6852697885150984e-02  5.2608623337145416e-02 -3.8697196232766601e-02 -4.8191261704348724e-02  5.1867532882221019e-02 -3.7866839980947288e-02 -4.7077544697648195e-02  5.1269602944074712e-02 -3.4442932865003932e-02 -3.5822072585944810e-02  5.1392707131136937e-02 -3.0395799085198530e-02 -4.7104285767726538e-02  5.0638320977030950e-02 -2.7297915281639169e-02 -3.5226806825066223e-02  5.2049808359205925e-02 -3.1043351713082507e-02 -4.8485911155373755e-02  5.0963422296504073e-02 -2.2938321462032573e-02 -4.7393916286823233e-02  5.0066214139881049e-02 -2.0162158598926186e-02 -3.4984088182897465e-02  5.1532938342876831e-02 -2.3409254237698483e-02 -4.9021592919956371e-02  5.0596463861782071e-02 -1.5305707175554868e-02 -4.7909937952787363e-02  4.9587853355839033e-02 -1.2868602416680031e-02 -3.5030754369062542e-02  5.1073827389398932e-02 -1.5567075193163851e-02 -4.9772608166978850e-02  5.0314173272934547e-02 -7.3782305825725539e-03 -4.8640730760680734e-02  4.9235329284362320e-02 -5.3130163739583420e-03 -3.5308907058232558e-02  5.0680449152766247e-02 -7.3534038303403526e-03 -5.0715059229567976e-02  5.7507144798720135e-02 -3.9790928780531913e-02 -6.1432221598377466e-03  5.4928724118212278e-02 -3.5119072705784522e-02 -2.0700068144047924e-03  5.5236578704484555e-02 -3.8681344623101389e-02 -8.8606884421069156e-03  5.3005441400841985e-02 -3.3895869359757490e-02 -5.2283612042608304e-03  5.2550851369341872e-02 -3.2265012070584492e-02 1.8199990167905447e-03  5.4449795132006450e-02 -3.4896148615737123e-02 -2.1967909233140391e-03  5.0836532615670289e-02 -2.9168570026912071e-02 -2.8666456146674429e-03  5.0201541682218583e-02 -2.9197573912841567e-02 4.5308087720714206e-03  5.1639375502440833e-02 -3.0266119586672385e-02 4.2559889245605021e-04  4.8804293884046029e-02 -2.4390880252373556e-02 -1.1954591218053649e-03  4.7966203554839562e-02 -2.5931737619269202e-02 6.4654966140151428e-03  4.9014118373168748e-02 -2.5652256621208097e-02 2.2923426839322912e-03  4.6941903870528809e-02 -1.9427778456185808e-02 2.8137973031814351e-05  4.5884751269476484e-02 -2.2451960157287745e-02 7.9119419820759280e-03  4.6573027659175190e-02 -2.0878415765967353e-02 3.6846436138390634e-03  4.5250300014720503e-02 -1.4212202658769506e-02 9.5860441441099754e-04  4.3968415887489655e-02 -1.8732915339102353e-02 9.0353328860045008e-03  4.4296619930259816e-02 -1.5864426349524282e-02 4.7828793642080017e-03  4.3694354912231954e-02 -8.7092369859544608e-03 1.6968841901311169e-03  4.2193020178416717e-02 -1.4758881488802876e-02 9.9597118405189682e-03  4.2158168534299739e-02 -1.0607583285530780e-02 5.7413776127156575e-03  5.2485353858728725e-02 -3.3752481057490617e-02 -3.4808526115795452e-03  5.0826612511984927e-02 -3.0924981774463723e-02 3.6693179407752121e-04  4.9090172765561671e-02 -2.7933694609396570e-02 3.0098068678246557e-03  4.7424261612607738e-02 -2.4739288932762706e-02 4.9252491380981766e-03  4.5886242559772646e-02 -2.1340810059653787e-02 6.3624487108244147e-03  4.4510594091913672e-02 -1.7731944329664202e-02 7.4692893694941224e-03  4.3304623774722807e-02 -1.3917033106154591e-02 8.3664652909934620e-03  5.0540032866075349e-02 -4.4100685272255649e-02 -2.8009499031260880e-02  4.8199253514352218e-02 -3.8806852129552344e-02 -1.8488850867753075e-02  4.8647878406982981e-02 -4.2754606999031795e-02 -2.6472628832468443e-02  4.8521467535268779e-02 -3.6578037536843688e-02 -2.3471296901878706e-02  4.7986875315145582e-02 -3.3782214209033781e-02 -1.4861723953463808e-02  5.0089277547906798e-02 -3.7437039810879612e-02 -2.5200882410309013e-02  4.8267056144301435e-02 -3.0695579846813738e-02 -2.1237087211820785e-02  4.7643584933574505e-02 -2.8874528013390237e-02 -1.2174383471113482e-02  4.9546043643090051e-02 -3.1146547487561873e-02 -2.3157261378148993e-02  4.7973691748084711e-02 -2.4888765964643560e-02 -1.9630433367189146e-02  4.7269002568642936e-02 -2.3975488498215375e-02 -1.0177412852169145e-02  4.8992383091167178e-02 -2.4992680191473313e-02 -2.1705977332881751e-02  4.7721625578276881e-02 -1.9020853604829597e-02 -1.8498644254353356e-02  4.6943150773860444e-02 -1.8978036759993652e-02 -8.6996672861713639e-03  4.8495933225711635e-02 -1.8801143422576883e-02 -2.0711920454504373e-02  4.7576778553132755e-02 -1.2993851226364046e-02 -1.7734952933788278e-02  4.6740428083447715e-02 -1.3821874196153751e-02 -7.6109169201725507e-03  4.8117697010375361e-02 -1.2457244801222440e-02 -2.0077507181883156e-02  4.7611004418253153e-02 -6.7466498349741449e-03 -1.7271502005710204e-02  4.6737183051485283e-02 -8.4607885353313057e-03 -6.8265236833873833e-03  4.7920782900598133e-02 -5.8845951207454547e-03 -1.9711982029927830e-02  5.2640353990563535e-02 -7.1760610783659140e-02 -8.7107552849155556e-02  5.1959134932170491e-02 -6.6863736241563068e-02 -7.6755087210065173e-02  5.2134681970586995e-02 -7.1970543010930949e-02 -8.6914340568400403e-02  5.1400626070309582e-02 -6.5158907149514375e-02 -8.8783376836507902e-02  5.1462587364791104e-02 -5.9431620114309754e-02 -7.8231962673549829e-02  5.1971973938819076e-02 -6.5013746205153947e-02 -8.8876247903958969e-02  5.0766029319334098e-02 -5.8639820868922533e-02 -9.0331070845321312e-02  5.1032703960861278e-02 -5.2427766743030166e-02 -7.9513488083099243e-02  5.1414421843664591e-02 -5.8519160430351165e-02 -9.0341586957134318e-02  5.0185753255558914e-02 -5.2216662299350694e-02 -9.1695390811124572e-02  5.0639966672343391e-02 -4.5595843888967633e-02 -8.0717662470088311e-02  5.0907127341331529e-02 -5.2107871292148250e-02 -9.1633244407972381e-02  4.9616916075029126e-02 -4.5721619463251095e-02 -9.2979249184451163e-02  5.0268594127388218e-02 -3.8729536661392297e-02 -8.1926839423981657e-02  5.0416747097276102e-02 -4.5619182190548571e-02 -9.2848635513556974e-02  4.9023790195394989e-02 -3.9011966173581603e-02 -9.4268733922565989e-02  4.9903654756059172e-02 -3.1660523723943908e-02 -8.3207576677691825e-02  4.9911563754948221e-02 -3.8923798668648188e-02 -9.4069054386173287e-02  4.8377262581516291e-02 -3.1970361939531663e-02 -9.5645801877940695e-02  4.9529799613157142e-02 -2.4238812445371453e-02 -8.4626606890193051e-02  4.9359271735558687e-02 -3.1935432051028126e-02 -9.5362516918877038e-02  5.3755151269007234e-02 -4.6282286335258126e-02 -2.7795038153192970e-02  5.3816226825260847e-02 -5.0227097512560458e-02 -3.7376127917408429e-02  5.5279998241672741e-02 -5.0833462985738175e-02 -3.5602540972937087e-02  5.4025420581526151e-02 -4.2014751599985710e-02 -3.4443370152119360e-02  5.2935208615018138e-02 -4.1908081849518747e-02 -3.6031545434157167e-02  5.2630796228191550e-02 -3.8741244648852938e-02 -2.5668812630885988e-02  5.2843630004383961e-02 -3.4244677728842751e-02 -3.3914118922520012e-02  5.2055925795596841e-02 -3.4306889006789541e-02 -3.5261928131414794e-02  5.1505407324956280e-02 -3.1837158179487131e-02 -2.4320415571830831e-02  5.1738998611439393e-02 -2.6830126252501609e-02 -3.3826358427304151e-02  5.1220512380197633e-02 -2.6996420642990668e-02 -3.4926900366824561e-02  5.0437684896621468e-02 -2.5139734032294463e-02 -2.3526198981256820e-02  5.0728099610294473e-02 -1.9402722457058239e-02 -3.4069074105031294e-02  5.0457688618683688e-02 -1.9689521883554752e-02 -3.4930636228921175e-02  4.9466904134033790e-02 -1.8395334064420444e-02 -2.3131484766953210e-02  4.9807321046864833e-02 -1.1716187759753098e-02 -3.4561170092619463e-02  4.9787874281246390e-02 -1.2188764765574352e-02 -3.5199480770502549e-02  4.8620356842350443e-02 -1.1454259066313914e-02 -2.3031896907261824e-02  4.8947957617311882e-02 -3.5903101493731764e-03 -3.5246952401196990e-02  4.9217069750991604e-02 -4.3682842515503631e-03 -3.5686037767182419e-02  4.7909406712512134e-02 -4.2409291916748765e-03 -2.3157884953408637e-02  4.2766574160878854e-02 -2.7552448990805469e-02 2.7806588251949230e-04  4.3018138251658060e-02 -2.6746480135815563e-02 3.9686321930557144e-03  4.3123956027361639e-02 -2.5598614272527652e-02 6.7255712851364991e-03  4.3166202486917049e-02 -2.4080824512712748e-02 8.7089607841971516e-03  4.3244982076247246e-02 -2.2240816308713891e-02 1.0099153439551123e-02  4.3456152391261729e-02 -2.0127599791529834e-02 1.1032125196982118e-02  4.3909428325147326e-02 -1.7771663060952000e-02 1.1588585509541643e-02  5.4465739605884918e-02 -6.0126073334183155e-02 -5.7154837193444753e-02  5.3746750758168406e-02 -5.9744236642940457e-02 -5.8348451763977592e-02  5.3387664213832897e-02 -5.1022823457004422e-02 -5.9071739508487889e-02  5.4018297291287376e-02 -5.0941864121895351e-02 -5.8056473097869980e-02  5.3036910926296268e-02 -4.3006662098177675e-02 -5.9898320002396678e-02  5.3608570748476164e-02 -4.2757941060204349e-02 -5.9086959216780088e-02  5.2712855984350000e-02 -3.5321597891491488e-02 -6.0850541803354363e-02  5.3244348467623520e-02 -3.4984618817757614e-02 -6.0260611076533993e-02  5.2422998755431029e-02 -2.7633191472534787e-02 -6.1947186368355868e-02  5.2919559637756498e-02 -2.7190372918588702e-02 -6.1587342237997000e-02  5.2170561554305363e-02 -1.9694151068985605e-02 -6.3208723954194329e-02  5.2629621797009980e-02 -1.9071153254378248e-02 -6.3074910617516702e-02  5.1957877117419692e-02 -1.1310760921126392e-02 -6.4638621651201530e-02  5.2353233499117344e-02 -1.0353750037002066e-02 -6.4650915834631367e-02  4.6682604843597111e-02 -3.8768397457873166e-02 -1.9530893209337034e-02  4.8053149830912405e-02 -4.3971849173407296e-02 -2.9440626033788869e-02  4.8083817748916839e-02 -3.7499487890022283e-02 -2.6605216803734105e-02  4.6801594164553227e-02 -3.3743589709546724e-02 -1.5897912834229595e-02  4.7963092697739552e-02 -3.1348352819233115e-02 -2.4444266976664103e-02  4.6717292388352816e-02 -2.8772123932520422e-02 -1.3264163612174003e-02  4.7793530883468591e-02 -2.5330937451041494e-02 -2.2892351045963148e-02  4.6589693561021127e-02 -2.3786503613561265e-02 -1.1301220033834289e-02  4.7656615189434620e-02 -1.9283877692258367e-02 -2.1799403649571402e-02  4.6503885904624773e-02 -1.8699907164661245e-02 -9.8502049909484496e-03  4.7609961107815839e-02 -1.3095981411312964e-02 -2.1065928406291432e-02  4.6531791991607514e-02 -1.3445136969133515e-02 -8.7949246601183514e-03  4.7708842237132010e-02 -6.6853103159948048e-03 -2.0638564754970935e-02  4.6742399734189477e-02 -7.9715304888607862e-03 -8.0615238314009005e-03  5.2341773506672087e-02 -4.5146464934520854e-02 -2.7955221333176357e-02  5.1492863112803357e-02 -3.8038045549739941e-02 -2.5477094832471601e-02  5.0634260048746403e-02 -3.1424362636518682e-02 -2.3786460034903978e-02  4.9805190680888255e-02 -2.4978505176949238e-02 -2.2672380408491722e-02  4.9057393520670373e-02 -1.8490471437294063e-02 -2.1988360801504452e-02  4.8438174141658734e-02 -1.1829805685031208e-02 -2.1634902934043555e-02  4.7987244315810834e-02 -4.9231677346721521e-03 -2.1522978731550110e-02  5.1876437082526129e-02 -6.1680816755462192e-02 -6.6472743853164887e-02  5.2497440012820903e-02 -6.6924725963119089e-02 -7.7296135967570248e-02  5.2075386794247856e-02 -5.9477250134175104e-02 -7.8721808612491881e-02  5.1538545130817008e-02 -5.3727060000056656e-02 -6.7320245663421735e-02  5.1226246784126447e-02 -4.6320532821165945e-02 -6.8125841873702533e-02  5.1699970198276282e-02 -5.2413344986728505e-02 -7.9955382037812953e-02  5.0946505519201102e-02 -3.9123889956409870e-02 -6.8982574158932913e-02  5.1369212448304162e-02 -4.5506745243002862e-02 -8.1104454255268146e-02  5.0694043851949561e-02 -3.1910112480965244e-02 -6.9936305138613444e-02  5.1062182284687375e-02 -3.8553860179395147e-02 -8.2254522293267102e-02  5.0469997155621442e-02 -2.4504199142789736e-02 -7.1028920151343516e-02  5.0765077806626431e-02 -3.1395969041458936e-02 -8.3477335235744812e-02  5.0277954694267532e-02 -1.6777650311143172e-02 -7.2329031597734267e-02  5.0465332899225029e-02 -2.3929791028526944e-02 -8.4841240179618346e-02  5.4262146027463397e-02 -3.0947143523636877e-02 4.4123468398897265e-03  5.3729946931360927e-02 -2.6442757407034632e-02 9.5120046551240636e-03  5.1071145834093501e-02 -2.5189913324989349e-02 6.9763035869977695e-03  4.9338882593393849e-02 -2.5961237693491779e-02 9.7789774800337900e-03  5.1164847447522983e-02 -2.7337284567976804e-02 1.2031930100697801e-02  5.1776260186702089e-02 -3.0061371525741034e-02 7.8873309686800369e-03  4.7496900279553368e-02 -2.5971649575242197e-02 1.1705154449267483e-02  4.85883777630556