<?xml version="1.0"?>
<VTKFile type="UnstructuredGrid"  version="0.1"  >
<UnstructuredGrid>
<Piece  NumberOfPoints="702" NumberOfCells="2900">
<Points>
<DataArray  type="Float64"  NumberOfComponents="3"  format="ascii">5.300223625372677 1.650658735119875 3.672006282837094  5.364755732466444 1.584659857804327 3.549595309492608  5.440192825504646 1.644022026444966 3.639495333220757  5.445451760921396 1.586674469295638 3.673544751231765  5.369710649250088 1.528487488675564 3.581663195552252  5.305418388069705 1.592930139815659 3.706917393400191  5.374604817103725 1.472332571264312 3.613728437340523  5.31056380028965 1.535229905110487 3.741827496888904  5.450652839373535 1.529349530505238 3.707598764190328  5.379472881453724 1.416194347546097 3.645777052811621  5.315686614101891 1.477554030924115 3.776719382342949  5.45582932618354 1.472039276066012 3.741638322700835  5.384343157666537 1.360065616245267 3.677792398540987  5.320812937435169 1.41989352712022 3.811572941562112  5.461009037994641 1.414737016924576 3.775642553567359  5.38924401022734 1.303938815258117 3.709752630509211  5.325966714753425 1.362240108111797 3.846364148286765  5.466219441218535 1.357433915626796 3.809588061840524  5.394210173245375 1.247806078971265 3.741632039063349  5.331172917161544 1.304590556312005 3.881063418296856  5.47148865471561 1.300121999459064 3.843445942636694  5.355087835250101 1.485707127186717 3.371309182754758  5.405190149822639 1.420765017535311 3.246170556434023  5.508055343992956 1.475432542368829 3.328056431514578  5.512746510016086 1.422429312912982 3.357652809612957  5.409433040592582 1.368508151225227 3.275300972755077  5.359710067103734 1.431852201806816 3.400773592089601  5.364263871206574 1.378003842111564 3.430233905497482  5.413595493457856 1.316257990627231 3.304427805973766  5.517368291925361 1.369429418293356 3.387254479255842  5.368786773716559 1.324167798135344 3.459678855678164  5.417720790643353 1.264014734309139 3.333541780897936  5.521958220687521 1.316431015083032 3.41684818357909  5.373308908836392 1.270338572511933 3.489097008603978  5.421842589968976 1.21177497669125 3.362633859089506  5.526546827925221 1.263429907509508 3.446420016289366  5.377860574220583 1.216510707990865 3.518472003932076  5.425996273461631 1.159532532119985 3.391691370087039  5.531166247863347 1.210417790657968 3.475953740017865  5.382481312056941 1.16267495335455 3.547782666559625  5.43022976412536 1.107276311108367 3.420697561160245  5.535858199546478 1.157381631006962 3.505425379696942  5.850934205781427 1.830563402008153 3.859895905156828  5.922438930936508 1.760150431412518 3.745641604850208  5.997656242676632 1.823932438374408 3.81991614114697  6.005414436611709 1.766878528104446 3.861406524194102  5.929239550472599 1.702700464418627 3.783705632057777  5.857753670253683 1.773321062114039 3.90355312422402  5.864534899645213 1.716104653363088 3.947225759893162  5.936002923682023 1.645264412840108 3.821781757549447  6.013147918614445 1.709839928361012 3.902907213378675  5.871298066378701 1.658901127913013 3.99088200467255  5.942748548093582 1.587833164196755 3.859845139154141  6.020865175797112 1.652804469127748 3.94439807551985  5.878064454146332 1.601697128397211 4.034498995292652  5.949496815846076 1.530397554681618 3.897874038445355  6.028584578108152 1.595761822616687 3.985857443502706  5.88485078876374 1.544481546744635 4.078055817762854  5.465322806991656 1.537099652105958 3.44676886193156  5.470340267864888 1.482227101614623 3.476990320271536  5.475293766051038 1.427368828831248 3.507214482672278  5.480219291643729 1.37251751746581 3.537427464104772  5.485145663012442 1.31766850115116 3.567613324593659  5.490102047624378 1.262814365573916 3.597751469432748  5.49512322591737 1.207945300830779 3.627813033575908  4.890454931991977 1.727152920525324 3.843600997669601  5.00656964441204 1.660452823540904 3.738040712456943  5.029354911273415 1.733842127572862 3.833789080004188  5.033668994578558 1.6766095418555 3.876658598748755  5.012539360195545 1.603102140474893 3.776353921610155  4.896159088369723 1.670925248938919 3.887694789135004  5.037944000250499 1.619439686983697 3.919533521265038  5.018493467067957 1.545797314361389 3.814666451996764  4.901845198372588 1.614771771320621 3.931799081664803  5.042203196001859 1.562317238516951 3.962386917837504  5.02444196312905 1.488536237284486 3.852957681679507  4.90752698256267 1.558675117061034 3.97588541546644  5.046470797459179 1.505218140613386 4.005190910779469  5.030400316151702 1.431302639602645 3.891202537459493  4.913224414842045 1.502605403757086 4.019921146471169  5.050766985778258 1.448119800340658 4.047917464073166  5.036379955714995 1.374080448640901 3.929372293368328  4.918954706481157 1.446535269077627 4.063875638800713  5.055126347735795 1.391004439608685 4.090540226534126  5.025269783148383 2.018181562813294 4.101066029987957  5.129120303709351 1.942718188171436 4.049563143234959  5.143964545560063 2.050882410103614 4.116981640289866  5.146007035598737 2.009783426014931 4.184803561880142  5.133726722136864 1.895198134822849 4.110641628804251  5.026699774028031 1.978304841195126 4.169017805233506  5.147971246664474 1.968780193454814 4.252566021611023  5.138284961680736 1.847763694259194 4.171695272193745  5.028054679845932 1.938526496151268 4.23690593125313  5.149894789575243 1.927834493896013 4.320272325689315  5.142830502232703 1.800386075735664 4.232707081353668  5.065975321512891 1.591315603734877 3.610966035385178  5.218538557711218 1.588984141150645 3.57896262712685  5.165576810123993 1.650373632199578 3.693491026331897  5.171586952709359 1.592623297145181 3.729243662524123  5.223971044798528 1.532395548572204 3.611568316083769  5.071815311959484 1.53417768170844 3.643963760770661  5.177570573616375 1.534915686073705 3.764990437697946  5.22936194783331 1.475833405742791 3.644163075411825  5.077632299422318 1.477075893475673 3.676949665110664  5.183541542066879 1.477242473530715 3.80071770763728  5.234733425539536 1.419296393294538 3.67673847970865  5.083440477350132 1.420008310338157 3.709915841947556  5.189518748023061 1.41959051552675 3.83640464601539  5.240108453675859 1.362775589559801 3.709279076358015  5.089255088341233 1.362965214483304 3.742843483368874  5.195518828705511 1.361948136387371 3.872026360315653  5.24550887502394 1.306261369266637 3.74176352559665  5.095090500652608 1.305936583103052 3.775708942362806  5.201547684358033 1.304302801290973 3.907555190461821  5.250949975220712 1.249744146526417 3.774168846333314  5.100952673556055 1.248912003818089 3.808490079356717  5.268015678673868 1.719337999081711 3.78433188633656  5.27364330306807 1.661233749899217 3.823860857866886  5.279230575738935 1.603175948623779 3.863399882110533  5.284798935415149 1.545153367027672 3.902917868574511  5.290373396542937 1.487149059819746 3.942390762270037  5.29597697710142 1.429146984584589 3.98179253512235  5.301625142871842 1.371130266867086 4.021096954709732  5.911264619625777 1.63837892031015 3.543684812397462  5.983300653581351 1.692402283677381 3.623182767583568  5.856713772891597 1.699710142233925 3.661736939681577  5.86323775677725 1.642499682213391 3.696480665688939  5.990153154032142 1.635530629585839 3.656497232472032  5.917936560560829 1.582567935935387 3.575416717479589  5.996986698824449 1.578666438393482 3.689825472167661  5.924592585441991 1.526762367368055 3.607165531151922  5.869731278809373 1.585303919038129 3.73123803071706  5.931241271020902 1.470954551097829 3.63890788076477  6.003811788755673 1.521802524562019 3.723143520091701  5.876209761937 1.528111459257463 3.765984779509691  5.937892715026884 1.415137385579548 3.670623239051646  6.010639581035568 1.464929886455801 3.756431825578156  5.882690540555694 1.47091451093403 3.800699025128769  5.944556142959676 1.35930045342412 3.702289350736456  6.017479307629721 1.408040500438918 3.789667688921116  5.889188432165757 1.413703664372038 3.835357619776556  5.951234354612554 1.303427227077732 3.733875675926461  6.024336041576375 1.351121731847044 3.822823730873215  5.895710700766963 1.356468300236001 3.869930809985384  4.951137223736501 1.413213691656635 3.309694857597818  5.114997624689015 1.431802644619917 3.311028917241689  5.046983134958904 1.480922584641407 3.414933475978348  5.052590622471064 1.426374899755295 3.444554328879758  5.12036220610813 1.37862574959121 3.34007061132032  4.957484397934048 1.360541268127761 3.33871596497801  5.12569042062257 1.325472132734232 3.369091602357793  4.963836952975464 1.307904426498998 3.367714389911832  5.05817040856876 1.371872444602006 3.474144574851221  4.970195342003954 1.255294958461564 3.396693994740725  5.131001653450478 1.272349446414479 3.398088757237752  5.063741569598657 1.317394682156173 3.503715928788561  4.97655948506583 1.202708324970382 3.425644357989076  5.136315267237831 1.21924204911407 3.427057480249516  5.069316955572849 1.26294038013057 3.533253364219039  4.982928983086964 1.150137321768928 3.45455104456092  5.141648995262786 1.166150744984868 3.455982306795942  5.074911892024663 1.208504650055699 3.562740058158686  4.989308007906992 1.097585666112875 3.483394612291761  5.147026467249648 1.113073807140942 3.484847475135657  5.080549182919746 1.154087450103452 3.592159012091596  5.415936615576159 1.76747794212196 3.829543721562169  5.510208810922753 1.739902615020119 3.779281059957719  5.560151690682121 1.809206832163931 3.8703627861144  5.565150083686828 1.752242432296306 3.915481350988537  5.515535370496262 1.68246631045352 3.819542114603097  5.421717557571541 1.710114740690478 3.872126754899024  5.427449883813793 1.652794572689832 3.914712921341735  5.520802627213631 1.625064780939137 3.859809422573865  5.570082138122606 1.695318061570845 3.96060323294279  5.43316018505447 1.595501044516257 3.957278575926355  5.526045077589841 1.567679606977529 3.900059660168856  5.574988308985768 1.638416872663678 4.005700277693413  5.438876188938131 1.538218222479157 3.999800137837683  5.531291642647473 1.510300790675166 3.940269603192791 
[...]
<PointData  Vectors="f_24"> 
<DataArray  type="Float64"  Name="f_24"  NumberOfComponents="3" format="ascii">1.7528047894484228e-02 -9.9042857511075014e-02 1.4763952936157529e-02  1.8208946684489417e-02 -1.1442323906306689e-01 2.3175263722507552e-02  1.7338510149575777e-02 -1.0626944352835251e-01 1.8191854986750695e-02  1.5373967713984235e-02 -1.0184761364055397e-01 2.4014326440334289e-02  1.6256156902501224e-02 -1.1086262292188659e-01 2.8648570518750440e-02  1.5378694712126134e-02 -9.4356540707183814e-02 2.0601036808661842e-02  1.4347694043416423e-02 -1.0724881098440689e-01 3.3460687886256536e-02  1.3316090587367739e-02 -8.9909027166377109e-02 2.5813787951131695e-02  1.3482312900006965e-02 -9.7583167043341676e-02 2.9194783090955731e-02  1.2456624493614571e-02 -1.0345206634417947e-01 3.7898878497670631e-02  1.1291378395194982e-02 -8.5488760702582434e-02 3.0734480987198137e-02  1.1613131151593546e-02 -9.3280206983399283e-02 3.4047684554283780e-02  1.0553570857921680e-02 -9.9338411121199038e-02 4.2229074756808690e-02  9.2662619146509188e-03 -8.0917216756545896e-02 3.5642997332239662e-02  9.7372929895232930e-03 -8.8767987747418509e-02 3.8857545170411706e-02  8.6110170815910658e-03 -9.4772664631307221e-02 4.6704356785181374e-02  7.2073277665596009e-03 -7.6041718471115335e-02 4.0800987724138552e-02  7.8253445819286456e-03 -8.3901774253484107e-02 4.3888637600862611e-02  6.6017354455397371e-03 -8.9613586406996765e-02 5.1591400913361223e-02  5.0832941080501326e-03 -7.0738663120818335e-02 4.6462910162269340e-02  5.8538688596363672e-03 -7.8556908758798075e-02 4.9393146748497395e-02  1.9009708274600412e-02 -1.2970831099492361e-01 3.3250224023486361e-02  1.8812667401994120e-02 -1.3759685693254189e-01 3.9472849191405861e-02  1.8522985023291385e-02 -1.3590247638940561e-01 3.6885585514746598e-02  1.6983137944978743e-02 -1.3436573304978913e-01 4.0497799727105391e-02  1.7254194325953928e-02 -1.3675471658682908e-01 4.2186244091323030e-02  1.7244275106165174e-02 -1.2782449665204534e-01 3.7344136168887314e-02  1.5497543391532784e-02 -1.2556752657468404e-01 4.0859370989977044e-02  1.5689789056800935e-02 -1.3537447310524384e-01 4.4444847253883160e-02  1.5456240594935281e-02 -1.3239672407022288e-01 4.3574174161629814e-02  1.3749325318074823e-02 -1.2290554453472476e-01 4.3988311753337360e-02  1.4118423023493308e-02 -1.3348261822685559e-01 4.6367611236002887e-02  1.3917395661294624e-02 -1.2997042973111780e-01 4.6275285790093254e-02  1.1984899586141727e-02 -1.1976357972423490e-01 4.6903718574159904e-02  1.2533988418701781e-02 -1.3105912003385550e-01 4.8036437144217431e-02  1.2355752866769900e-02 -1.2703593413228109e-01 4.8745990352748243e-02  1.0178825575771416e-02 -1.1603533783802798e-01 4.9776128890573972e-02  1.0913387487765235e-02 -1.2804308870323464e-01 4.9514012031078261e-02  1.0754935508644750e-02 -1.2350726840890747e-01 5.1125414198161009e-02  8.3137495236030555e-03 -1.1157220202148306e-01 5.2783142435786370e-02  9.2509985007171169e-03 -1.2433067786743605e-01 5.0874216209122969e-02  9.1021745632041545e-03 -1.1925280530622735e-01 5.3526308368237102e-02  1.3773960949897355e-02 -8.5485063252153354e-02 6.0346747173933698e-03  1.4712529602367023e-02 -1.0209096567656274e-01 1.4086356570065968e-02  1.3718880127588101e-02 -9.3237045497920418e-02 8.6762566330709709e-03  1.2255125066045742e-02 -8.7115011469626483e-02 1.4276468954970208e-02  1.3217077697676929e-02 -9.6658163201479894e-02 1.9977441714497470e-02  1.2150313929668885e-02 -7.9078668223537735e-02 1.1314289445313545e-02  1.0637815892828154e-02 -7.3290215307622239e-02 1.6234523910910858e-02  1.1795099682948899e-02 -9.1511020887802358e-02 2.5296072598853147e-02  1.0903166969341873e-02 -8.1476390315565139e-02 1.9412532007874864e-02  9.1793461852403731e-03 -6.7801807507615663e-02 2.1098864607969565e-02  1.0408413143924275e-02 -8.6473446638451898e-02 3.0385681742771269e-02  9.6002717300901416e-03 -7.6083534889288512e-02 2.4415503437702390e-02  7.7247437890868801e-03 -6.2379769509392641e-02 2.6130247877751825e-02  9.0164999229446034e-03 -8.1346088206222383e-02 3.5512009043709880e-02  8.3060385548783915e-03 -7.0719631189968421e-02 2.9518799709485420e-02  6.2350566569833238e-03 -5.6858882265154058e-02 3.1524856134456804e-02  1.8422222773862129e-02 -1.2649956549290256e-01 3.0227550631111880e-02  1.6692442143276968e-02 -1.2392018871147302e-01 3.5013970007351264e-02  1.4989682090432914e-02 -1.2109845610479313e-01 3.9157363835334434e-02  1.3291910886686199e-02 -1.1794901162864437e-01 4.2905382506203134e-02  1.1575592318252130e-02 -1.1436918075908475e-01 4.6477818854670928e-02  9.8185630085908492e-03 -1.1023669542102769e-01 5.0089051486662914e-02  7.9984840960568432e-03 -1.0541438426631558e-01 5.3972572454480748e-02  1.6932871170048849e-02 -6.5503368121269431e-02 -2.6942583702351544e-04  1.7595432943969664e-02 -8.2878975580117906e-02 7.9798617701914189e-03  1.6774590908775654e-02 -7.0965631806530954e-02 1.6296920243213588e-03  1.4348179110732027e-02 -6.4870993857811129e-02 6.5821055889821517e-03  1.5122059009338211e-02 -7.7551217374970033e-02 1.3429023092360373e-02  1.4379127706692026e-02 -5.9410400917999588e-02 4.4244545822386223e-03  1.2038533477963563e-02 -5.9415903300941764e-02 1.1186561586304201e-02  1.2780274505602577e-02 -7.2648433474687579e-02 1.8403643050659675e-02  1.2031515213102143e-02 -5.3962264614884257e-02 8.7838780331314266e-03  9.8092612478274735e-03 -5.4315525911810769e-02 1.5736071977398989e-02  1.0497587236559759e-02 -6.7916064488343308e-02 2.3194997018956644e-02  9.7533737796974499e-03 -4.8900876530964477e-02 1.3132172130356216e-02  7.5968270462567549e-03 -4.9333895126875540e-02 2.0464461182837606e-02  8.2227754468489605e-03 -6.3153170921435409e-02 2.8066772776073549e-02  7.4899951791272861e-03 -4.3985307796452829e-02 1.7694130890447805e-02  5.3495252964407842e-03 -4.4304662425216912e-02 2.5564127828984151e-02  5.9091939382967928e-03 -5.8207810226549431e-02 3.3259081878272610e-02  5.1889124645199697e-03 -3.9051430170506066e-02 2.2645767431738576e-02  3.0223261619358711e-03 -3.9112695677748652e-02 3.1207479414178597e-02  1.4590451522575392e-02 -3.1853368660440744e-02 -1.5750064581265363e-02  1.4563256347673265e-02 -4.2944687558914174e-02 -1.1316356068442751e-02  1.4227334724267104e-02 -3.2724203003945379e-02 -1.6106317563064878e-02  1.2638468343287060e-02 -2.6894325220558731e-02 -1.6297670329508730e-02  1.2609035947689624e-02 -3.6360570575846331e-02 -9.8270555631353139e-03  1.2960000730806810e-02 -2.5925065752357705e-02 -1.6003145643249655e-02  1.1181014785265599e-02 -2.1903532358176908e-02 -1.5690814261293835e-02  1.0801706967196508e-02 -3.0672980786327880e-02 -7.8167663544789229e-03  1.1437128389259123e-02 -2.0818618530745403e-02 -1.5416905578703115e-02  9.7705461130983915e-03 -1.7426858167700929e-02 -1.4360189062732093e-02  9.0632494029403207e-03 -2.5525807134659712e-02 -5.3255811058581367e-03  1.8628234317282274e-02 -9.9921967678245502e-02 1.6215596329192356e-02  1.8493297617636628e-02 -1.0765824171075317e-01 1.9724615989574232e-02  1.7700891732047239e-02 -9.2946227583280958e-02 1.2141672500772987e-02  1.5402030591783265e-02 -8.8073005833709292e-02 1.7883548610693328e-02  1.6340584942235486e-02 -1.0383068324537284e-01 2.5336440317393977e-02  1.6276602498282788e-02 -9.5846244230681624e-02 2.1895720239051657e-02  1.3198907445660848e-02 -8.3509499946229693e-02 2.3071038865223336e-02  1.4251248814135340e-02 -1.0002985386386437e-01 3.0275511785256556e-02  1.4020580217632151e-02 -9.1893080794630599e-02 2.6914283023772478e-02  1.1044433010573456e-02 -7.9026509604314843e-02 2.7987971845134834e-02  1.2190439541599790e-02 -9.6108568879507791e-02 3.4858322300203165e-02  1.1807402746832965e-02 -8.7890880189843354e-02 3.1608842110093467e-02  8.8929636792214242e-03 -7.4435554954675798e-02 3.2917587204006143e-02  1.0123793701673687e-02 -9.1922960879331106e-02 3.9355946340084651e-02  9.5911577590995657e-03 -8.3676307427598809e-02 3.6250607363516214e-02  6.7029240666917076e-03 -6.9578820476739855e-02 3.8118422657867940e-02  8.0166330371109450e-03 -8.7331473509559013e-02 4.4024646063089805e-02  7.3306679837631603e-03 -7.9096763501983067e-02 4.1103245793533923e-02  4.4234604821236688e-03 -6.4328477213459287e-02 4.3847877644640883e-02  5.8354811854994283e-03 -8.2192681671511850e-02 4.9119234007838769e-02  4.9837225077235736e-03 -7.4022961101565490e-02 4.6424063679687939e-02  1.6634707136096778e-02 -8.3992550972830399e-02 7.2731529161006621e-03  1.4384022865488415e-02 -7.8277319137670928e-02 1.2796174895159107e-02  1.2258077593998797e-02 -7.3109509871407005e-02 1.7874837922098437e-02  1.0188268479083882e-02 -6.8173697191521998e-02 2.2793597547461394e-02  8.1283604345553460e-03 -6.3246341637460124e-02 2.7816293187306666e-02  6.0378358864829314e-03 -5.8162598596026925e-02 3.3170039707630210e-02  3.8846401691108928e-03 -5.2804216362160893e-02 3.9072815012055548e-02  1.6426943780255273e-02 -1.2574407189584219e-01 2.7264062053018775e-02  1.5596842537728762e-02 -1.1806993932987815e-01 2.2422579868784508e-02  1.5712702319050226e-02 -1.1166390263126949e-01 1.9537622669146333e-02  1.4215257052732584e-02 -1.0701974145923511e-01 2.5442695640343582e-02  1.4302201424030658e-02 -1.1384103839340425e-01 2.8298847111519351e-02  1.5129251299424912e-02 -1.2223667049362974e-01 3.2759393270671670e-02  1.3039874538604685e-02 -1.0966554642424713e-01 3.3505873853905278e-02  1.3852301671101568e-02 -1.1865776661696463e-01 3.7583587687046248e-02  1.2770278022272699e-02 -1.0253978808160416e-01 3.0734852408397049e-02  1.2565643458727847e-02 -1.1486029027807837e-01 4.2022195703827467e-02  1.1782472071783212e-02 -1.0539664736573877e-01 3.8364740218088174e-02  1.1350078828531888e-02 -9.8019564575130724e-02 3.5708874822688773e-02  1.1247717160980102e-02 -1.1071126424255280e-01 4.6329119161686742e-02  1.0504407315861121e-02 -1.0086498552183736e-01 4.3149947684710040e-02  9.9057065371803647e-03 -9.3294849546630032e-02 4.0648587361469778e-02  9.8710021491055649e-03 -1.0608131433366438e-01 5.0753667357224370e-02  9.1715551221562656e-03 -9.5932737385872824e-02 4.8119186122107804e-02  8.4148395466843232e-03 -8.8219782864381938e-02 4.5810035421239563e-02  8.4151097580393974e-03 -1.0084226745622200e-01 5.5546371330217968e-02  7.7676928879963289e-03 -9.0488709990571917e-02 5.3543013300178376e-02  6.8479510714708012e-03 -8.2702668219968578e-02 5.1451804497115686e-02  2.0349563298156629e-02 -1.2237502119130311e-01 3.1491635313002822e-02  1.9916439183618958e-02 -1.2716418670141896e-01 3.3390004544952417e-02  1.9859882902173314e-02 -1.1823902479909511e-01 2.7402716000116376e-02  1.7689710406277762e-02 -1.1600014198361701e-01 3.1925663849831150e-02  1.7946503754387323e-02 -1.2581179669072595e-01 3.6918807243640488e-02  1.8216422835545476e-02 -1.2105617879231056e-01 3.4991147402417717e-02  1.5993885706824425e-02 -1.2404214062555957e-01 3.9923293393068646e-02  1.6115756420771649e-02 -1.1932515117493048e-01 3.7964133997242716e-02  1.5568193824033894e-02 -1.1348503014534010e-01 3.5844519339423349e-02  1.4020988317249416e-02 -1.1716431677740460e-01 4.0580296078891673e-02  1.4042481176502607e-02 -1.2181176514665634e-01 4.2557351153939722e-02  1.3465491999658699e-02 -1.1063305424576815e-01 3.9364827672582599e-02  1.1903555399217575e-02 -1.1452357516642871e-01 4.2975451853376222e-02  1.2076034320217722e-02 -1.1909660637778595e-01 4.4963866580073793e-02  1.1344413692859255e-02 -1.0736829118664687e-01 4.2716907216022809e-02  9.7304258955371384e-03 -1.1131114891958807e-01 4.5278942122296002e-02  1.0066406985941861e-02 -1.1579071994813034e-01 4.7272282365084711e-02  9.1776495218016656e-03 -1.0355370656580505e-01 4.6088708385057318e-02  7.4682480367292987e-03 -1.0739083195726236e-01 4.7602427503854530e-02  7.9913800970260757e-03 -1.1176254611150886e-01 4.9606576477102142e-02  6.9378935274954636e-03 -9.9058321384645751e-02 4.9707028421587619e-02  1.5783208911735618e-02 -8.1350693590487466e-02 5.4194691695034760e-03  1.5895500341878210e-02 -9.0194017202044507e-02 9.5947715284540463e-03  1.4778056772759880e-02 -7.8675814781917069e-02 3.9940493757036431e-03  1.2872283810577340e-02 -7.2195942084059508e-02 8.8746640258846824e-03  1.3913497582914915e-02 -8.4370783874139682e-02 1.5159249901997098e-02  1.3673314627877974e-02 -7.5189962811861202e-02 1.0645822177344572e-02  1.1692040500057295e-02 -6.9642637658363593e-02 1.5503012035374519e-02  1.2024413316894859e-02 -7.9014272669615748e-02 2.0242814488169981e-02  1.1053066793477119e-02 -6.6376778044938731e-02 1.3520431931722724e-02  9.7704854352564218e-03 -6.4386714792698210e-02 2.0283600168337815e-02  1.0181483881569756e-02 -7.3873955207245004e-02 2.5167878062765308e-02  9.2860237875762482e-03 -6.0895405780836624e-02 1.8170829078027358e-02  7.8623554664051278e-03 -5.9194931986562081e-02 2.5218250923267811e-02  8.3468664914226609e-03 -6.8715241948263714e-02 3.0183472988773000e-02  7.5279235195414903e-03 -5.5509398112315735e-02 2.3024192037958736e-02  5.9322577167716948e-03 -5.3908273806252190e-02 3.0505298556106789e-02  6.4866811319514699e-03 -6.3394984775116736e-02 3.5517305913258780e-02  5.7495646454794325e-03 -5.0062619775915210e-02 2.8254240580288283e-02  3.9503469260666032e-03 -4.8418698804312169e-02 3.6305318409606165e-02  4.5797432580068588e-03 -5.7806474918083398e-02 4.1358046995956486e-02  3.9396081805972106e-03 -4.4466109687115014e-02 3.4015329882595584e-02  1.5117384337761721e-02 -9.8039427709603708e-02 1.2430161525728792e-02  1.3456550651132729e-02 -9.2492737237663436e-02 1.8302638440149618e-02  1.1873501498135208e-02 -8.7370430806688645e-02 2.3637765389203317e-02  1.0330306917292878e-02 -8.2385110140918205e-02 2.8746506097701831e-02  8.7842278901451281e-03 -7.7342182213205241e-02 3.3905391297190536e-02  7.1987671139364696e-03 -7.2083593889939027e-02 3.9354731855206701e-02  7.5826181861361856e-03 -7.5985997550886669e-02 4.0913280019323914e-02  5.5400122477351878e-03 -6.6481820247971363e-02 4.5328423509325116e-02  6.0722497792875226e-03 -7.0284663525840563e-02 4.6818507208340542e-02  4.6871701796343890e-03 -5.1156315040450054e-02 3.7469419330259393e-02  1.9404719740460680e-02 -1.3208748582015459e-01 3.5909454363320985e-02  1.7629671705341781e-02 -1.3085873771970877e-01 3.9227396803102436e-02  1.5856725734200338e-02 -1.2916806118778432e-01 4.2025190470058565e-02  1.4083331411551898e-02 -1.2700694304048349e-01 4.4465733871427333e-02  1.2293754068620752e-02 -1.2433189210441602e-01 4.6670622671330840e-02  1.0461902061416372e-02 -1.2106107714928237e-01 4.8747851202583049e-02  8.5720255395223405e-03 -1.1704930571611344e-01 5.0813056821209207e-02  1.4566764844879598e-02 -8.4844915464930698e-02 6.6829140041049706e-03  1.3604900177689373e-02 -7.3655354487248137e-02 4.9987546008574207e-04  1.3798221469524518e-02 -6.6199498610057986e-02 -2.6472651890751230e-03  1.2026524218554210e-02 -5.9185405675906314e-02 9.8716690297334674e-04  1.1879899490496261e-02 -6.6718238224346416e-02 4.7823926382728928e-03  1.2756786973607106e-02 -7.8385973619753330e-02 1.1835293243949300e-02  1.1057550775147851e-02 -7.2570979375073438e-02 1.6690533879995355e-02  1.0281453618580906e-02 -6.0573372402644571e-02 8.9939644968325613e-03  1.0338035222398951e-02 -5.3019345104881065e-02 4.6818084184617617e-03  9.4001824155118211e-03 -6.7035299860847344e-02 2.1471997000139822e-02  8.7332451212261322e-03 -5.4860367760185318e-02 1.3306486091052127e-02  8.7018904747764043e-03 -4.7323464405082359e-02 8.5837779892575915e-03  7.7486250764272346e-03 -6.1557287094588596e-02 2.6410297793476166e-02  7.1957671294804763e-03 -4.9317879705645239e-02 1.7884895985152565e-02  7.0838545689014222e-03 -4.1842176492781095e-02 1.2816104022074639e-02  6.0710960278940818e-03 -5.5984613027172593e-02 3.1707880845683989e-02  5.6394184064940574e-03 -4.3780195427175046e-02 2.2865763880887485e-02  5.4551797100723561e-03 -3.6410342998562835e-02 1.7482352224054018e-02  4.0420464895664443e-03 -3.8146683412923085e-02 2.8361856973663946e-02  4.3451492874361846e-03 -5.0232569199188309e-02 3.7536944835475018e-02  3.7968908634125722e-03 -3.0920093584211408e-02 2.2676284376833448e-02  1.5040688909989742e-02 -4.1612518751417443e-02 -1.1052358952352920e-02  1.2956076239557267e-02 -3.4955478176627086e-02 -9.4812664382123331e-03  1.1044823031679002e-02 -2.9301208448649464e-02 -7.3642299747997157e-03  1.6786256745010362e-02 -1.4848816697610123e-01 4.6461522922903349e-02  1.6140508541790707e-02 -1.5091506654803838e-01 4.7643640898230255e-02  1.6854961504147000e-02 -1.4913487712952087e-01 4.5263880951722277e-02  1.6004896439073855e-02 -1.4876341417734532e-01 4.7113749921339175e-02  1.5437490103643623e-02 -1.5119138543681132e-01 4.8291470851943963e-02  1.5878227250242911e-02 -1.4852999988069532e-01 4.7510332757671032e-02  1.5099449075674762e-02 -1.4778309721637542e-01 4.8627788812484259e-02  1.4670967233709887e-02 -1.5078054281800421e-01 4.8765478031990328e-02  1.4918709957142891e-02 -1.4791368342546102e-01 4.8331466224275685e-02  1.4141909930371351e-02 -1.4625243154563011e-01 4.9851262404647441e-02  1.3844187857044240e-02 -1.4979889120073686e-01 4.9025734358665023e-02  1.3914634376097430e-02 -1.4672915948709936e-01 4.8920333522250059e-02  1.3126763177911229e-02 -1.4419083076049627e-01 5.0801359855716127e-02  1.2957324655201609e-02 -1.4831464835609426e-01 4.9006285657259237e-02  1.2865020493733620e-02 -1.4502857244221856e-01 4.9238207142613649e-02  1.2041008333593884e-02 -1.4157060874025268e-01 5.1465748493189120e-02  1.2003912458693792e-02 -1.4636205242801381e-01 4.8606825546475142e-02  1.1765933984361791e-02 -1.4282434654741058e-01 4.9210183363257394e-02  1.0869864774049172e-02 -1.3830653446642921e-01 5.1797500204066954e-02  1.0975575317940450e-02 -1.4395835702104806e-01 4.7696653552160163e-02  1.0614273053416079e-02 -1.4011002548363871e-01 4.8709715409147071e-02  1.4764066724058989e-02 -6.9617736772053782e-02 -2.8214508254891077e-04  1.2764789080977194e-02 -6.2723637312907074e-02 3.8051824483466626e-03  1.0875859591715827e-02 -5.6583432145535358e-02 7.8153338218436130e-03  9.0519753340298544e-03 -5.0873717905097773e-02 1.1923454404901021e-02  7.2505509087899683e-03 -4.5358916419883578e-02 1.6295588322029469e-02  5.4370927409141054e-03 -3.9876706877478352e-02 2.1071472451786373e-02  3.5829856181377301e-03 -3.4316077539813881e-02 2.6365429541278834e-02  1.6964448277249182e-02 -7.9998884582188345e-02 5.7560706250056127e-03  1.4594019107651904e-02 -7.4256757640438056e-02 1.1141668479776004e-02  1.2348660220707056e-02 -6.9063768224838062e-02 1.6096788978959116e-02  1.0163869775318428e-02 -6.4124701510341289e-02 2.0906621288718254e-02  7.9894713389441520e-03 -5.9216676839195299e-02 2.5833070966328354e-02  5.7797800347954261e-03 -5.4181935871931534e-02 3.1100099233004976e-02  3.5003478156925417e-03 -4.8909269768852640e-02 3.6893160445619036e-02  1.3908803784369282e-02 -5.8099180427219378e-02 -6.1854578201785563e-03  1.2075808004762982e-02 -5.1088335590427775e-02 -3.3539564631091950e-03  1.0355476641424888e-02 -4.4962664910705039e-02 -3.1645716898272920e-04  8.7002546099900456e-03 -3.9345309329028480e-02 3.0325735793615169e-03  7.0719928518219463e-03 -3.3989741175230466e-02 6.7794020304893596e-03  5.4386036206901401e-03 -2.8733241857851394e-02 1.0992408426139867e-02  3.7724632483936218e-03 -2.3476499715119736e-02 1.5734295479996097e-02  1.9533043698187057e-02 -1.2398988692962837e-01 3.0284179857015054e-02  1.7548488348330244e-02 -1.2194200963092595e-01 3.4603552270788540e-02  1.5596331456480613e-02 -1.1958579880687492e-01 3.8343437934548322e-02  1.3650665757954669e-02 -1.1686035524567351e-01 4.1688687095642628e-02  1.1687688034780664e-02 -1.1367621711198896e-01 4.4831733512669253e-02  9.6825057764629505e-03 -1.0992200112467881e-01 4.7959269051938487e-02  7.6040897846867701e-03 -1.0544344348013786e-01 5.1287933115113239e-02  1.9663040706406509e-02 -1.3283302821997359e-01 3.7919982921883540e-02  1.7857389555558989e-02 -1.3223643600224227e-01 4.0367004136549485e-02  1.6057988125357484e-02 -1.3109887620893318e-01 4.2395252206522939e-02  1.4253086934883943e-02 -1.2944051621196101e-01 4.41034592040025