<?xml version="1.0"?>
<VTKFile type="UnstructuredGrid"  version="0.1"  >
<UnstructuredGrid>
<Piece  NumberOfPoints="691" NumberOfCells="2863">
<Points>
<DataArray  type="Float64"  NumberOfComponents="3"  format="ascii">9.266978080709009 4.166478734772276 1.461046206063056  9.181768326342784 4.153615163234046 1.421440012136226  9.229812892498522 4.183596148910432 1.545720100192326  9.225001213600809 4.254451996702117 1.5337098141396  9.17400880206511 4.22344805382868 1.39674741981919  9.263232953275427 4.237649187408688 1.443965941454983  9.166191513624447 4.293112367824737 1.372141042290828  9.259310704723765 4.308623509436723 1.426907863363632  9.220046346096956 4.325110014086564 1.521687216944611  9.158361504909907 4.362663866517195 1.347575475591854  9.255343013428973 4.379477167119222 1.409873776556618  9.215048862955515 4.395650355535002 1.509669553804112  9.25138991077514 4.45025554072018 1.392837444509859  9.150549658893723 4.432124608178785 1.323006380251303  9.210072711207522 4.46610708926888 1.497648021670934  9.247514519552405 4.52096626322079 1.375778919970283  9.142773484578768 4.501502849637824 1.298418775276526  9.205180501720591 4.536489008118264 1.485609917042559  9.243839590198354 4.591600647925072 1.358677650669061  9.135065068563895 4.570767056322967 1.273755527870728  9.200454247405888 4.606764068328688 1.473540843889851  9.078913286895306 4.16165421612941 1.489446513310811  9.07010785135207 4.232318779340733 1.470506054456137  9.061302524302999 4.302757400917685 1.451647329064017  9.052494317521505 4.37307347295324 1.43281795448255  9.043700879581515 4.443286948769023 1.413993711230907  9.034930542952448 4.513396199521337 1.395162265350292  9.026205595900121 4.583375777423039 1.376273204786125  9.294722774279311 4.208211191337699 1.749695975338284  9.2104481692815 4.197333567121889 1.679975920714307  9.190407154156381 4.200536118044696 1.825006859217305  9.205290287195359 4.266454280784588 1.674398354426392  9.290086918643807 4.275801904637608 1.747284514415678  9.185551913090061 4.267215324975228 1.825296868020789  9.200033266960022 4.335414225812032 1.668770025871608  8.683155376348319 4.219099077054966 1.220058798470216  8.827884197498031 4.235425881426727 1.186186468852436  8.758456028126442 4.284192741003763 1.331191999675409  8.839770892509003 4.171169007916782 1.224927231872021  8.745426700641245 4.350715430956195 1.301289389688614  8.6696699985309 4.283333203400014 1.183624049932796  8.816003224131565 4.299599006256977 1.147437643468715  8.732361280168684 4.417132087565784 1.271357068380946  8.65612558779036 4.347471305162714 1.147147122598396  8.804101812288026 4.36366875774703 1.108643810504473  8.719218027825645 4.483413407854802 1.241357975936073  8.642482539226501 4.411480306567133 1.11060100367805  8.792168465629654 4.427596792242667 1.069780233564092  8.738149600309036 4.224469993036029 1.059754964159451  8.726027758900386 4.285462552193581 1.015514329784024  8.713855593860739 4.346325381173418 0.9712051344655859  8.899423312899888 4.089963643106974 1.389037022420234  8.863713397737618 4.042471805275261 1.302634377542037  8.797870702052752 4.083990365694747 1.421130434442841  8.886550248088632 4.156990641374469 1.357552877277795  8.851699482370449 4.106844196563225 1.26371754011219  8.784602704513889 4.150843498321073 1.391042412136392  8.873817110678383 4.223884167561258 1.326220950510992  8.771493836647528 4.217572563826119 1.361092085009697  8.861132847408005 4.290668652625956 1.294956135853485  8.848455533801751 4.357354369214433 1.263698095991884  8.835747913096137 4.423935841610719 1.23242074301525  8.822987966159559 4.490358895093486 1.201070034248767  9.709830332307032 3.823794050567598 0.9666357003417865  9.648245283248556 3.738219022088 0.9239155636741019  9.608621889501141 3.864054239279523 0.998680770138634  9.601288879938801 3.904555484004125 0.9344596655269886  9.639941735129559 3.767121951864278 0.8541595108126332  9.701136737130337 3.862253395761769 0.9018319396412059  9.593936413697417 3.945249395865455 0.8702637222390762  9.631645699387761 3.79621101891022 0.7843447833088278  9.692480433752417 3.900938489328498 0.8370236278065858  9.586558469922828 3.98598088538804 0.8060250242517496  9.623327025215527 3.825320396222184 0.7144454098117563  9.683811352705836 3.939672059923775 0.7721549639800285  9.579183068914251 4.026680416895712 0.7417097559662353  9.614998544718492 3.854383288390539 0.6444440506760259  9.675130852505237 3.978368932574671 0.7072028900948495  9.571824812665158 4.067290767891915 0.6772755531127559  9.606663788232426 3.883354071905691 0.5743098426542146  9.666439327454837 4.016973240235358 0.642139506382797  9.56449635840271 4.107773272330491 0.6126683513218356  9.598282579136688 3.912192064629251 0.5040106042991095  9.657714702716882 4.055445406162093 0.5769343914440616  9.538555251148633 3.783715555751105 0.9618255678226483  9.510815287288803 3.895726327641137 1.029454562679061  9.504306686969974 3.940644754516817 0.9676687629886903  9.532127044442841 3.818292451933417 0.8942039767592611  9.525647576581834 3.853069766844835 0.8265556567622815  9.497746637752497 3.985731987535129 0.9059455079287062  9.519132087081164 3.887877311962308 0.7588468551999074  9.491166847574698 4.030848682172453 0.8442064428207182  9.512619532575632 3.922650601423812 0.6910521802925285  9.484592737314092 4.075925379686264 0.7823980704357012  9.506134174363089 3.957334689941288 0.6231387383706997  9.478047760834281 4.120920302916597 0.7204733530201353  9.499696902194195 3.991894993408811 0.5550499522560182  9.471564862000713 4.165816831685881 0.6583762441264802  8.796574917870386 4.166368268121022 1.850851217974751  8.719919132249931 4.152904660122931 1.794591231864059  8.723321498961889 4.152163229176669 1.926033418069189  8.712639183924978 4.217404211189915 1.928520592516314  8.708258436122239 4.220313949560812 1.791235039112954  8.787769572666772 4.233409780314817 1.850736184414538  8.70214422402012 4.282555332323667 1.93088684786759  8.696795157007658 4.287603165878878 1.787824026852651  8.779053010933282 4.300303070670605 1.850544980404059  8.691722605182589 4.347653466340859 1.933198553771972  8.685412079488035 4.354815336990406 1.784374709211566  8.770387840613509 4.367099574895423 1.850312161419813  8.681301816342778 4.412692175050164 1.935495412548981  8.674033862325771 4.421954645016602 1.780905049851992  8.761737622610747 4.433811464613532 1.850060412248325  8.67083811151992 4.477642822862125 1.937798547521032  8.662606442279671 4.488996241182797 1.777424933046381  8.753076848068313 4.500420788786998 1.849808299064806  8.660260122141178 4.542455173406615 1.940159044133524  8.651067576285492 4.555876916476093 1.773970772144613  8.744385296558569 4.566869566495347 1.849580261006246  9.043590744131656 3.866958877111269 1.064997055030277  8.947167805563049 3.827052890821494 1.052370146324632  8.990888717017571 3.93336324111574 1.132438396224678  8.980800312447553 3.988286332906864 1.078490857238169  8.937891653525924 3.873147037185807 0.99035534581558  9.034554934055157 3.915502220735912 1.004895588240891  8.970724464316069 4.04326518491498 1.024682073814245  8.928623904595911 3.919323813320463 0.9284327611646725  9.025509939130059 3.964131042062676 0.9448913276598406  8.960658398187778 4.098223245013783 0.9709104302362989  8.919361636107967 3.965509834271912 0.8665197241212231  9.016466288604068 4.012762854803007 0.8849006886806656  8.950607037789737 4.153117412332026 0.9171105300030575  8.910108351477772 4.011642532321253 0.8045607386549384  9.007434435086505 4.06133948950404 0.8248666353196797  8.940581236865553 4.207913725778146 0.8632364241261231  8.900865337093773 4.057673055539949 0.742523482621236  8.998421168077163 4.109822460775131 0.7647465840127869  8.930589638262663 4.26257700696941 0.809261245398049  8.891646794787485 4.103555939199389 0.6804002366207983  8.989436354967937 4.158182444411028 0.7045128646443368  8.842901426580767 3.770410619043695 1.025453186740764  8.875701378479276 3.882488613914201 1.10455672308285  8.865349311605193 3.933817665185955 1.047108609963635  8.833721186359398 3.813137503701165 0.9612338366006793  8.824543919319051 3.855954275671911 0.897058169870557  8.855020323126148 3.985223243428516 0.9897832954134075  8.815371036204086 3.898776301289066 0.832871367413286  8.84470948784427 4.036614064244077 0.9324734625458621  8.806211484107331 3.941548010463563 0.7686310776995272  8.834409605466311 4.087942435660947 0.8751226762354919  9.432345574224049 3.8203518335938 0.9875794687387893  9.395391875686801 3.931094839295046 1.072553006421088  9.388826719404895 3.98075349843683 1.014172751681648  9.427859642551672 3.860054507886101 0.9218881955256293  9.382195154955998 4.030529058320423 0.9559018598278701  9.423268131377219 3.899916153100482 0.8562297956124293  9.375547052563702 4.080321091139726 0.8976421031954049  9.418641850907116 3.939813879104487 0.7905339899644945  9.368909047343942 4.130068194020864 0.8393295849871175  9.414020206639231 3.979669847985443 0.7247549579756369  9.362307666092075 4.179727065058089 0.7809231796683793  9.409444087168223 4.019432669489522 0.6588554637771129  9.355804531947705 4.229265444255497 0.7223962698607239  9.404990814299405 4.059064023453939 0.5928020155627048  9.07340639322056 4.110099478367309 1.369379224055645  9.063119245593668 4.176841265235828 1.336136776372936  9.052881608443963 4.243430561284811 1.30309272459673  9.042661448359286 4.309893941094677 1.270113701900796  9.032448422180154 4.376249349470234 1.23713876862954  9.022237577212415 4.442490783819288 1.204135272193944  9.012076903186184 4.508595316845886 1.171044664011972  8.574919134237067 4.398993641437129 1.842880482666132  8.562378775829478 4.464680087483766 1.841302904724187  8.549673812032086 4.530219530513143 1.839779008114433  9.324097170476771 3.859379242360984 1.02061914239648  9.317609537403381 3.904607741469283 0.9581962908820878  9.311049204360735 3.949970918529195 0.8958537180129998  9.30446730417788 3.99536186
[...]
<PointData  Vectors="f_24"> 
<DataArray  type="Float64"  Name="f_24"  NumberOfComponents="3" format="ascii">-3.3810728086451074e-02 7.4971203192628524e-02 3.2779959101484214e-02  -3.2691403083531953e-02 6.8602998544549917e-02 3.2465264932745784e-02  -3.4343834103882309e-02 8.9191665954774055e-02 3.2158438422779698e-02  -3.3649459238402832e-02 8.5054270552918393e-02 2.1948513170649452e-02  -3.1878245647655283e-02 6.2627421592715102e-02 2.3905700886911824e-02  -3.3092017676919744e-02 6.9882577393323778e-02 2.3362294860389779e-02  -3.1195134946699590e-02 5.7689100985797229e-02 1.5482801764842662e-02  -3.2406747491300930e-02 6.5780467878313126e-02 1.4384899968883863e-02  -3.2955566833040503e-02 8.1538483714792012e-02 1.2253869541952797e-02  -3.0597848827230444e-02 5.3361575835638109e-02 6.9438126191259846e-03  -3.1772967443659837e-02 6.2258813420713321e-02 5.3810790024743111e-03  -3.2298814951616212e-02 7.8484848979731375e-02 2.6790144940033954e-03  -3.1164518263071952e-02 5.9087280526177025e-02 -3.8589338133998437e-03  -3.0037725611972911e-02 4.9422545006055967e-02 -1.8646857407239184e-03  -3.1665056506582086e-02 7.5716627744142131e-02 -7.0567126820749795e-03  -3.0557764460988734e-02 5.6145788757203378e-02 -1.3459261874424417e-02  -2.9493040347645064e-02 4.5740826253211256e-02 -1.1040312730336526e-02  -3.1037470778538141e-02 7.3132464707216238e-02 -1.7132025960328867e-02  -2.9910585870472850e-02 5.3379695399523024e-02 -2.3506502159557071e-02  -2.8946229253739787e-02 4.2209856860017672e-02 -2.0617521489249762e-02  -3.0390700302396385e-02 7.0680740325631000e-02 -2.7665373930328627e-02  -3.2482257007307669e-02 8.0517521369522796e-02 3.2236284816135358e-02  -3.1696216016517106e-02 7.5279787105658816e-02 2.2783682452590569e-02  -3.1034669558201885e-02 7.0955794564137337e-02 1.3592443724327462e-02  -3.0456414224758678e-02 6.7151673755261182e-02 4.3824967176405751e-03  -2.9917618328852855e-02 6.3668151838426487e-02 -5.0434616176587080e-03  -2.9394204893639610e-02 6.0391648536195233e-02 -1.4812228604340717e-02  -2.8879111930063744e-02 5.7244478251154002e-02 -2.4984881199367742e-02  -3.7332914599214603e-02 1.2300782434739282e-01 3.2399844220192084e-02  -3.5610877704982030e-02 1.1203800065188470e-01 3.2292735621518458e-02  -3.6889449382521783e-02 1.3662087774990428e-01 3.3092759501845675e-02  -3.4927799295504734e-02 1.0925828356993783e-01 2.1532569096615169e-02  -3.6597117177215456e-02 1.2103074103364675e-01 2.1710560784782056e-02  -3.6297930557441148e-02 1.3533977334551781e-01 2.2419009697769093e-02  -3.4263660858800102e-02 1.0677887557954314e-01 1.1348563478669218e-02  -2.6986368107644227e-02 3.8193517464125908e-02 2.1715579673365241e-02  -2.7762381377139631e-02 3.2831794134065971e-02 2.0620031486456282e-02  -2.7911327747618966e-02 5.3607166807494645e-02 1.3879783499855835e-02  -2.8179852084712197e-02 3.8254555344306981e-02 2.7236055787623521e-02  -2.7526551289220012e-02 4.8911823399745695e-02 5.6448611010908589e-03  -2.6694668580737206e-02 3.3260709820506461e-02 1.4527964698600951e-02  -2.7446948385605966e-02 2.7878491781033264e-02 1.3611350028309481e-02  -2.7191943330610976e-02 4.4482129976953506e-02 -2.9363414866505418e-03  -2.6476242336315296e-02 2.8625497066986177e-02 6.9255799095265498e-03  -2.7191696477949393e-02 2.3237403179973571e-02 6.1712512454346925e-03  -2.6884928762302168e-02 4.0231928961264658e-02 -1.1952651962184710e-02  -2.6318680186804253e-02 2.4183236402720673e-02 -1.1382713735090476e-03  -2.6959388737426190e-02 1.8753172104696167e-02 -1.6799920866735515e-03  -2.6969838986884497e-02 1.7869655503685841e-02 2.2370197009394001e-02  -2.6860048898645569e-02 1.3221820150005097e-02 1.5934389797424859e-02  -2.6799439373016546e-02 8.7801815374871101e-03 9.0174184998971455e-03  -3.0367842013029493e-02 6.5203901944076492e-02 3.6839388536530869e-02  -2.9565509524545314e-02 5.1519645312269075e-02 3.9578361963806173e-02  -2.9874174347964695e-02 7.0961872336971779e-02 3.7663326860016950e-02  -2.9504481303071220e-02 5.8507504015490895e-02 2.9258989810019956e-02  -2.8754085593929227e-02 4.4362800796312177e-02 3.3521244627246156e-02  -2.9018782564733184e-02 6.4426908813580722e-02 2.9730327415710908e-02  -2.8868150056926875e-02 5.2761971404872196e-02 2.1681037229626263e-02  -2.8388156085519659e-02 5.8710970174609960e-02 2.1864989925009837e-02  -2.8371122862890088e-02 4.7664796868949151e-02 1.3906438292375121e-02  -2.7957142251937288e-02 4.3000123099402730e-02 5.8379755114198054e-03  -2.7588153096979304e-02 3.8619563955633388e-02 -2.6008221930278567e-03  -2.7248648728776387e-02 3.4428197151665882e-02 -1.1458942596647060e-02  -3.4111838690954022e-02 -2.4448674873328233e-03 3.5358873854631198e-02  -3.3608549024529560e-02 -9.2379447202446206e-03 3.5725431111714175e-02  -3.3284074544637651e-02 2.3499030507884607e-03 3.6981087480011852e-02  -3.3469275069266030e-02 -2.1487371251143923e-03 3.8228643450948056e-02  -3.4191646369282583e-02 -1.1488064480115275e-02 3.8566259885814580e-02  -3.4377423977894436e-02 -6.0976655881836931e-03 3.7277407356761903e-02  -3.3730616519045388e-02 -5.9412209506920482e-03 3.8415364246154958e-02  -3.4870479962499951e-02 -1.3199999086490107e-02 4.0143639869820100e-02  -3.4762213703439557e-02 -9.0505516886725899e-03 3.8111617116712175e-02  -3.4089794983580668e-02 -9.1785810116590226e-03 3.7706309264000079e-02  -3.5631075963826621e-02 -1.4580978183690795e-02 4.0744388874873423e-02  -3.5234300397213522e-02 -1.1554251449269014e-02 3.7982173660734468e-02  -3.4533613301324803e-02 -1.1985744426301223e-02 3.6241361942879101e-02  -3.6478912729963210e-02 -1.5671772330856908e-02 4.0535953823525962e-02  -3.5794230951658491e-02 -1.3719397735000010e-02 3.7060341634166202e-02  -3.5058149346241137e-02 -1.4459723458535228e-02 3.4118144463630415e-02  -3.7433426215106994e-02 -1.6512705484105366e-02 3.9628207252953157e-02  -3.6459116694250365e-02 -1.5604591545618232e-02 3.5463696577336022e-02  -3.5661857928265678e-02 -1.6671139272051161e-02 3.1364947490009371e-02  -3.8545065593777843e-02 -1.7130952489262469e-02 3.8147480322308899e-02  -3.7270353159725683e-02 -1.7158314175736124e-02 3.3163351170813281e-02  -3.2678063000982603e-02 -3.7059841957121802e-03 3.7871810568474280e-02  -3.2539658819453102e-02 7.1352602675578023e-03 3.8145597101265402e-02  -3.2628386761601458e-02 1.9422818287403887e-03 3.8659539201217896e-02  -3.3111987540294145e-02 -7.0591258180459733e-03 4.0139348380560845e-02  -3.3620070264854335e-02 -9.8196236224440715e-03 4.1207915952615776e-02  -3.2777043870590425e-02 -2.4438362386177133e-03 3.8101838054843337e-02  -3.4206527815494742e-02 -1.2146731390060606e-02 4.1288145526159677e-02  -3.3003275321082909e-02 -6.2370121000351391e-03 3.6676269934772181e-02  -3.4863162308474464e-02 -1.4129401816900606e-02 4.0557368608358554e-02  -3.3304548302614756e-02 -9.5804205986123291e-03 3.4517349615930996e-02  -3.5584655911420009e-02 -1.5831317140138915e-02 3.9133393611409828e-02  -3.3662437196976099e-02 -1.2578137308297295e-02 3.1713785045717237e-02  -3.6383193095279008e-02 -1.7259645851852318e-02 3.7006535138102710e-02  -3.4041436089648845e-02 -1.5320131777060099e-02 2.8334974234494541e-02  -3.2120200859449853e-02 1.4301984828228043e-01 3.3231019380385807e-02  -3.1049738966251912e-02 1.3392865675844684e-01 3.3817314277075620e-02  -3.1298595532449125e-02 1.5541676528772783e-01 3.4387237712336101e-02  -3.1360458304061589e-02 1.5492990220043007e-01 2.4306492966295192e-02  -3.0807597458815075e-02 1.3195206578985674e-01 2.3221665742191942e-02  -3.1937259896085382e-02 1.4175366708956605e-01 2.2659217169523259e-02  -3.1425142377857429e-02 1.5416440330568609e-01 1.4818541613787107e-02  -3.0632489942831159e-02 1.3004217073481858e-01 1.3227594589507541e-02  -3.1786528479384756e-02 1.4042509301493455e-01 1.2692452679063156e-02  -3.1460802041534119e-02 1.5315973294131216e-01 5.5345811190637782e-03  -3.0477141875082620e-02 1.2812503064974967e-01 3.4478426059477295e-03  -3.1635763664006319e-02 1.3900258415819619e-01 2.9478164194080411e-03  -3.1445736583711442e-02 1.5196263809653621e-01 -3.8300410735786941e-03  -3.0309894547079372e-02 1.2616843297530708e-01 -6.4036306444663306e-03  -3.1463914356587908e-02 1.3747793366867919e-01 -6.8619386670443145e-03  -3.1369474843573469e-02 1.5061560245660333e-01 -1.3480278498118880e-02  -3.0107306314271175e-02 1.2416293529513457e-01 -1.6544415184243204e-02  -3.1258497205140380e-02 1.3585713255481213e-01 -1.6960626617277916e-02  -3.1218991268488698e-02 1.4912819746978317e-01 -2.3578181146576213e-02  -2.9851136029460917e-02 1.2213094603610848e-01 -2.7134223167717200e-02  -3.1026197078072415e-02 1.3418514325480943e-01 -2.7520871194332375e-02  -2.9597509087916692e-02 1.4465504364720206e-02 4.4663743105321861e-02  -2.8895858804419340e-02 1.2739535628234704e-02 4.6582158236786242e-02  -2.9545311650636046e-02 2.4731314745320074e-02 4.3347357165141993e-02  -2.9053335970517260e-02 1.7940205860670511e-02 4.1165598071232018e-02  -2.8754767429400634e-02 6.9495344757600159e-03 4.6635196021096781e-02  -2.9364797057842749e-02 8.4298798922047488e-03 4.4161496902296968e-02  -2.8774938674736239e-02 1.2143240686021598e-02 3.8183931806829718e-02  -2.8764068558209125e-02 1.9934014892145592e-03 4.5677357493228231e-02  -2.9321154917790516e-02 3.3106376318681866e-03 4.2724855751373636e-02  -2.8647520195260595e-02 7.0502786257389833e-03 3.4533087169606728e-02  -2.8939116031800299e-02 -2.3056514274776719e-03 4.3878350857272541e-02  -2.9422949352242017e-02 -1.1479922297998313e-03 4.0490533780731738e-02  -2.8626778741947679e-02 2.4533212168602204e-03 3.0273421128833859e-02  -2.9234439224729417e-02 -6.1250163314835043e-03 4.1362867971253839e-02  -2.9629923095806421e-02 -5.1273775689298024e-03 3.7559603662562550e-02  -2.8675406116980721e-02 -1.7959039823917790e-03 2.5451829020588665e-02  -2.9623627740222480e-02 -9.6107265765431014e-03 3.8211382736604155e-02  -2.9910176461414670e-02 -8.7655765204381689e-03 3.4005749823069954e-02  -2.8754481671217219e-02 -5.8335039796962680e-03 2.0142399648923278e-02  -3.0078850013199574e-02 -1.2863276346100069e-02 3.4460863667544660e-02  -3.0228238938132045e-02 -1.2186978526475765e-02 2.9926394167332126e-02  -2.8087864613820276e-02 8.9193480230540800e-03 4.8987063803662224e-02  -2.8589237128745615e-02 2.1046545565610249e-02 4.6187142555124058e-02  -2.8243277574631753e-02 1.4444119297934018e-02 4.4845971930682689e-02  -2.8063058271169925e-02 3.7616292464625035e-03 4.9764788365097547e-02  -2.8234390107047220e-02 -6.8082793673605239e-04 4.9456119250703146e-02  -2.8074544329234567e-02 8.8012658994773840e-03 4.2595247798296342e-02  -2.8548220852855296e-02 -4.5350292627007174e-03 4.8254451830562962e-02  -2.8065585505235448e-02 3.8604708904304268e-03 3.9633249199643748e-02  -2.8981783936432633e-02 -7.9324046653589924e-03 4.6283535950030333e-02  -2.8174379065216259e-02 -5.7734656707465141e-04 3.6034558130103846e-02  -3.1839222214155215e-02 1.0047229076703670e-03 3.9769772827316807e-02  -3.1841464723756908e-02 1.3986839598656667e-02 3.9168448870772692e-02  -3.1704580837868986e-02 7.9453764957064764e-03 3.8552010395158036e-02  -3.2204398784644275e-02 -3.2729294178336444e-03 4.1293718325579279e-02  -3.1678359227130262e-02 2.8266455096122513e-03 3.7002113905267871e-02  -3.2597933527496410e-02 -6.8033856908307237e-03 4.1629661950161372e-02  -3.1746721276721394e-02 -1.6019370531065412e-03 3.4663925575679926e-02  -3.3055422007165873e-02 -9.8227697784520774e-03 4.1009173996085439e-02  -3.1883454047370537e-02 -5.5336043285198174e-03 3.1647479217235167e-02  -3.3574108083079333e-02 -1.2456106230158751e-02 3.9598896902597991e-02  -3.2061472178625851e-02 -9.1016657927129735e-03 2.8029800841978772e-02  -3.4130239005195559e-02 -1.4790331665138004e-02 3.7510962327392892e-02  -3.2230458649055285e-02 -1.2385275729435426e-02 2.3841361129404728e-02  -3.4665312262708872e-02 -1.6883741762288823e-02 3.4813582417163147e-02  -3.1465976316873721e-02 6.0951795180147428e-02 3.4991860015187788e-02  -3.0627053211969318e-02 5.4074479690036474e-02 2.7785101383242816e-02  -2.9970410780275174e-02 4.8167708788873720e-02 2.0435467852612070e-02  -2.9428439167276301e-02 4.2966084370992287e-02 1.2876715211726267e-02  -2.8954821358981510e-02 3.8235158813552397e-02 5.0219267149407927e-03  -2.8513907723057810e-02 3.3815797886723079e-02 -3.2012355200166601e-03  -2.8071379188831722e-02 2.9603450162812555e-02 -1.1854528031427001e-02  -3.0023822672867306e-02 1.3696518669252447e-01 -3.6740423604581887e-03  -2.9930378413576719e-02 1.3514756526215838e-01 -1.3495397337665832e-02  -2.9762097470768915e-02 1.3326126028811672e-01 -2.3762301548870022e-02  -3.1189895226976370e-02 6.7958920799943744e-03 4.1220746097644166e-02  -3.1279973749503205e-02 1.6008929196450361e-03 4.1752123066141358e-02  -3.1475191134270920e-02 -2.7007729882304789e-03 4.1184413182096473e-02  -3.1750376624295029e-02 -6.4076450596473947e-03 3.9719058284232063e-02  -3.2084539264546977e-02 -9.6869867336118985e-03 3.7499957838879126e-02  -3.2451626663967600e-02 -1.2648081718077187e-02 3.4632141252042517e-02  -3.2822311407145248e-02 -1.5374411003909152e-02 3.1216786949395586e-02  -3.1155824973434634e-02 7.0688782455284566e-02 3.4427738795680438e-02  -3.0327877526648752e-02 6.4302670791891448e-02 2.6187346054453806e-02  -2.9678323309483570e-02 5.8881645510382698e-02 1.7948836178728965e-02  -2.9142825169291692e-02 5.4073737016512462e-02 9.6052343045870524e-03  -2.8673011046471065e-02 4.9662808750363954e-02 1.0151798673018106e-03  -2.8234186280559674e-02 4.5511602449141556e-02 -7.9237572902070546e-03  -2.7793299238156651e-02 4.1517440811823285e-02 -1.7280196268297854e-02  -3.0279094537770803e-02 2.1249920032839095e-02 4.2272589082699201e-02  -3.0330430018679376e-02 3.2929739875241254e-02 4.0188691336807233e-02  -2.9721874617981474e-02 2.5795307941589907e-02 3.6632002653828134e-02  -2.9879708237254880e-02 1.4617011478120457e-02 4.0644592928050900e-02  -2.9304494107764825e-02 1.9697339153360218e-02 3.2444221643572156e-02  -2.9660141397838947e-02 8.9457549182071425e-03 3.8227690017733108e-02  -2.9023126052227354e-02 1.4328754854799657e-02 2.7713249921610485e-02  -2.9587243987319076e-02 4.0012197053019491e-03 3.5091475499696982e-02  -2.8832363233491896e-02 9.4761810521553427e-03 2.2456261255206215e-02  -2.9610675093775626e-02 -4.2717671764393373e-04 3.1320521676057193e-02  -2.8691654809699024e-02 4.9845448836607804e-03 1.6688821372895266e-02  -2.9691358200498896e-02 -4.4906141714437841e-03 2.6978754645969015e-02  -2.8554341604790680e-02 7.1233042346264142e-04 1.0449340649201692e-02  -2.9796037280473222e-02 -8.2680660475594331e-03 2.2073652334252965e-02  -3.2074376102162461e-02 9.2306021376049957e-02 3.2838525139234152e-02  -3.3873669832543356e-02 9.8597867780940221e-02 3.2533012500292509e-02  -3.3218385482013356e-02 9.5075367871839997e-02 2.1888540704622803e-02  -3.1421039008253313e-02 8.8001146106127567e-02 2.2634996008479624e-02  -3.2593719738083088e-02 9.2032062187894795e-02 1.1877593506947271e-02  -3.0842358220948194e-02 8.4389366608450617e-02 1.2903055472785637e-02  -3.2005671672954254e-02 8.9360389397184672e-02 2.0222583717941435e-03  -3.0337329207914907e-02 8.1195984919323158e-02 3.2328113503446300e-03  -3.1440581563087239e-02 8.6911633291826093e-02 -7.9552056781112754e-03  -2.9870977093189945e-02 7.8248863070180225e-02 -6.6073543361070000e-03  -3.0883561460375485e-02 8.4596611985068432e-02 -1.8253285403369464e-02  -2.9415741845086000e-02 7.5450277247179343e-02 -1.6778771223389791e-02  -3.0321537588436840e-02 8.2369475529019701e-02 -2.9020608014294468e-02  -2.8950157323786099e-02 7.2751214181276821e-02 -2.7390798914683528e-02  -3.3552078587674956e-02 1.1072603065474618e-01 3.2557471379947821e-02  -3.2950205935828439e-02 1.0760148152719914e-01 2.1741910656205673e-02  -3.2403646898392341e-02 1.0483835136059032e-01 1.1521954234260523e-02  -3.1891229098895024e-02 1.0232536689894056e-01 1.5124231842950763e-03  -3.1399465808083789e-02 9.9959394018342931e-02 -8.5749571320361227e-03  -3.0914113215280495e-02 9.7675854369652551e-02 -1.8956688916562034e-02  -3.0418509376664560e-02 9.5436473319791992e-02 -2.9804951438814783e-02  -3.1345962544339141e-02 1.9666792269180545e-02 3.9799486979383278e-02  -3.0977358460420382e-02 1.3186395097178170e-02 3.8113941766330622e-02  -3.0812102202113282e-02 7.7352414002236584e-03 3.5612627627208696e-02  -3.0741028654674558e-02 2.9881084525609186e-03 3.2397401814632194e-02  -3.0736117981335444e-02 -1.2641134288085309e-03 2.8537639644641056e-02  -3.0770184407310358e-02 -5.1563830178878323e-03 2.4094902466715550e-02  -3.0830357404380223e-02 -8.7786163812796723e-03 1.9132598194543101e-02  -3.2770877513139673e-02 1.1844364814675142e-01 3.2859339155535926e-02  -3.2306611504945799e-02 1.1570442158650569e-01 2.1969238607085585e-02  -3.1866420283603460e-02 1.1323549142635056e-01 1.1703201792007630e-02  -3.1462321527899469e-02 1.1093679848216673e-01 1.6555219970386778e-03  -3.1073839093858729e-02 1.0872702232985614e-01 -8.4610430693816754e-03  -3.0683378285136047e-02 1.0655575180372412e-01 -1.8867991948870840e-02  -3.0273049310195428e-02 1.0439890374674664e-01 -2.9745378186604651e-02  -3.1581034149155925e-02 1.0244531261535107e-01 3.3090021067998354e-02  -3.2026324724000930e-02 1.2662973327942703e-01 3.3208656912460145e-02  -3.1653224826746054e-02 1.2421800542992299e-01 2.2398544399753972e-02  -3.1007315031177651e-02 9.8601204331563441e-02 2.2574186870775389e-02  -3.1334826205183616e-02 1.2196513902863378e-01 1.2194695137492901e-02  -3.0516056808356201e-02 9.5339497920277586e-02 1.2599394267399741e-02  -3.1044224653331624e-02 1.1979792478979429e-01 2.2239663310295358e-03  -3.0095437888871746e-02 9.2408527326428805e-02 2.7524212399596131e-03  -3.0759132676128106e-02 1.1765765316094486e-01 -7.8074546599749706e-03  -2.9708019285226091e-02 8.9661452556699675e-02 -7.2315752454700103e-03  -3.0459531976697863e-02 1.1551446971930861e-01 -1.8121772782223808e-02  -2.9326125009736713e-02 8.7018206494879263e-02 -1.7534927321458994e-02  -3.0128345550831541e-02 1.1335817105705102e-01 -2.8890450683192861e-02  -2.8926407111868453e-02 8.4444200461500890e-02 -2.8284465851385061e-02  -3.4967431071720408e-02 1.2175414100630434e-01 3.2132864521215533e-02  -3.4388760440810844e-02 1.1948216402113782e-01 2.1280693643305034e-02  -3.3831525158096933e-02 1.1741421901683978e-01 1.0992295818894065e-02  -3.2864580286685603e-02 1.5727921669761277e-01 3.3907301765597704e-02  -3.2793885731341690e-02 1.5681480739913903e-01 2.3724990919675646e-02  -3.2729311589084265e-02 1.5608426977070836e-01 1.4134937726644640e-02  -3.2644423471696479e-02 1.5511570807541161e-01 4.7536542068755414e-03  -3.2528130384223961e-02 1.5395048381306742e-01 -4.7032532552288009e-03  -3.2373973011121229e-02 1.5263182532470732e-01 -1.4442683258945587e-02  -3.2176396240191321e-02 1.5116224987260424e-01 -2.4607512775102661e-02  -3.2842498484165955e-02 1.7300153561490211e-01 8.1385858010025857e-03  -3.2903068880987839e-02 1.7240911239259940e-01 -5.9979119434765496e-04  -3.2907791319790075e-02 1.7159213469798801e-01 -9.6709476649678820e-03  -3.2876426854963260e-02 1.7064150367253550e-01 -1.9197485623955436e-02  -3.3288931259434149e-02 1.1545352420745325e-01 9.3276286398133923e-04  -3.2755326804545092e-02 1.1354317053936119e-01 -9.1898562046177044e-03  -3.2224567770890368e-02 1.1164817050320663e-01 -1.9611794015879969e-02  -3.1694036199880496e-02 1.0975858928678592e-01 -3.0529431090796366e-02  -3.1280786576187256e-02 3.9171719053191952e-02 3.7487348062851304e-02  -3.0892716491793534e-02 2.6969685941287919e-02 4.0027106519890797e-02  -3.0363172231710478e-02 2.0027439647663084e-02 3.7401395631318057e-02  -3.0584760275208626e-02 3.2028837564645703e-02 3.2862308766397577e-02  -3.0027455505113595e-02 1.4053391527807492e-02 3.4090189008118534e-02  -3.0075772279142359e-02 2.5926728578918340e-02 2.7775132230058463e-02  -2.9824927095831077e-02 8.8370282192718093e-03 3.0149353072544755e-02  -2.9689778048875830e-02 2.0554623417856157e-02 2.2210235622252716e-02  -2.9708797673451821e-02 4.1586966628081416e-03 2.5635010169549759e-02  -2.9380000183521288e-02 1.