<?xml version="1.0"?>
<VTKFile type="UnstructuredGrid"  version="0.1"  >
<UnstructuredGrid>
<Piece  NumberOfPoints="1033" NumberOfCells="4446">
<Points>
<DataArray  type="Float64"  NumberOfComponents="3"  format="ascii">0.8536311479773994 4.018705003563555 1.362761556823412  0.7447835235525281 4.041751128318691 1.424466258428668  0.8510204681792201 4.062297008867845 1.532048229237119  0.8562419788907609 4.146682737038542 1.515671297548134  0.7499653137095879 4.128615549985912 1.399665634860535  0.8588214799333753 4.101905169911079 1.333115063767979  0.7548060758660065 4.214746802632009 1.375031690840075  0.8635671476518574 4.184474188955419 1.30368235277463  0.8610885757000931 4.230465959690938 1.499364944745691  0.8680390935010257 4.26656917571252 1.274472612276816  0.7594158457527801 4.300178562054109 1.350687648822031  0.8656985147753623 4.313690398907676 1.483241303534747  0.8724219089137748 4.348094104238588 1.245478268270765  0.7639735107921501 4.385011614759241 1.326581465306937  0.8702807363239454 4.396395895555409 1.467275001184089  0.8770061785959593 4.429010163268345 1.216602631369778  0.7687060483312923 4.469234945602353 1.302656126885144  0.8750281307305365 4.478527279091963 1.451415526762533  0.8822940019541081 4.509295153105906 1.187874888920234  0.7739945919125779 4.552700743117487 1.278890093073135  0.8802277295242851 4.559919997844944 1.43559929270107  1.435871180877924 4.073286040308703 2.214305145239449  1.566157205714947 4.08001075383731 2.183235775784677  1.4486501191521 4.081209055625369 2.068333767487875  1.44804506612612 4.150437446367949 2.069709365768089  1.564285774053274 4.147670572604251 2.187545145399381  1.434904374227731 4.140741509337192 2.219766576950663  1.447429734428627 4.219526556036779 2.071024420469049  1.562470671859626 4.215214347115404 2.191799500900252  1.433950127322865 4.208088151318142 2.225152636137073  1.446823431184899 4.288443557735558 2.072296977503246  1.560691198436813 4.28261540142777 2.196013017086036  1.433013392583904 4.275299182762774 2.230489348505147  1.446243363142103 4.357199407444551 2.073551088540833  1.558930103010755 4.34988143787316 2.200208031626306  1.432104057195599 4.342373600862693 2.235804647185559  1.445716002179307 4.425815716726098 2.07480656561398  1.334120643390307 4.080472678837738 2.095203715836461  1.327961906248413 4.08234437987106 1.955660573901678  1.328660507894378 4.153788822220737 1.954794637238206  1.334406460564744 4.150103676978606 2.097723582469315  1.329274358285649 4.225059026197233 1.953862292596364  1.334633324496967 4.21957889459334 2.100162169826618  1.329856606574169 4.296127779867096 1.95289507416488  1.334847825057452 4.288885125725497 2.102551513912516  1.330458706341653 4.366995935425138 1.951921536400075  1.335094567992431 4.358018907936724 2.104919603131096  1.331163265637371 4.437675297562112 1.950953310271338  1.335430715547796 4.426986187549469 2.107295164582371  1.33207829762539 4.508176001488988 1.949989903193204  1.445295843345506 4.494324645663866 2.076071226651876  1.335931704804483 4.495792128634202 2.109712333869233  0.9877141489670405 4.045184782034979 1.497473625444917  0.979860965031331 4.070271741062558 1.636296417885678  1.098549041421393 4.05852351613164 1.617406593427854  1.101985981938754 4.136870510375931 1.605173241229169  0.9845602852009516 4.150722968917856 1.624518407494648  0.9928117615416491 4.126373245193623 1.478779000182276  1.105135017656353 4.214855216766738 1.592978184473453  0.9889348381968586 4.230759880268777 1.612761705627425  0.9974848744157243 4.207084960578522 1.460174077843787  1.108110142009409 4.292477308595906 1.580845737846123  0.9931182197012779 4.310367553407815 1.601082536275559  1.001923093281137 4.287318789429564 1.441712856366923  1.111049334519044 4.369737178467323 1.568763861025637  0.9972897386556419 4.389553732836535 1.589458596795528  1.006320497407313 4.367106666647389 1.423344112547007  1.114149595747018 4.446621053773073 1.556657739724873  1.001632202680143 4.468295058813097 1.577863731711062  1.010886262030442 4.446414882541921 1.404980471851495  1.1176528668721 4.523067167316103 1.544525240098036  1.006394632225396 4.546530489347898 1.566264711992253  1.01598009487956 4.525211670830201 1.386630292815665  1.212658517222337 4.081079779121684 1.845327752612063  1.212457736639317 4.082497766901585 1.992646855266787  1.214111661097717 4.154724184266137 1.992645885984184  1.214333536443324 4.15525077647102 1.841804684817894  1.215648774578793 4.226721531114793 1.992559456346174  1.215869957649623 4.229184558142552 1.838228048231241  1.217131437119152 4.298486611239741 1.992423238511618  1.217330715456042 4.302866374868396 1.834634834369039  1.218637717728207 4.370023045585503 1.992267374728951  1.218799968293487 4.37628842059495 1.831051697186407  1.220265339486076 4.441333282461499 1.99211745500661  1.220414736609785 4.449444833699118 1.827463228877426  1.222134316811354 4.512401450385869 1.992016578474667  1.222309672331711 4.522298482719108 1.823870405697739  1.095459423971532 4.077576706909086 1.741606692108069  1.097683343553928 4.085563903932416 1.880049153480983  1.100865832874226 4.161011397093247 1.877324167476184  1.098968741239701 4.154729150202603 1.733571549948081  1.103853710482932 4.236177531903644 1.874527877598405  1.102240537981059 4.23154277160551 1.725513242416928  1.106743628231227 4.311032887427295 1.87168893027033  1.105386465912023 4.308012900195662 1.717478379136741  1.109646513987253 4.38558824191121 1.868844747831768  1.108532923957221 4.384149605833631 1.709461152145227  1.112694937360587 4.459837391231861 1.866009305467441  1.111842091507944 4.459939328995273 1.70143458701567  1.116032806631636 4.533750858677093 1.863214278525444  1.115497322877625 4.535361748316125 1.693413654812163  1.431237518425383 4.409319189624541 2.24112785554446  0.9779989349551921 4.086104886769656 1.767400202084601  0.982111693034554 4.165285889028315 1.760476520615145  0.9859449949187039 4.244026182936483 1.753526454484692  0.9896198411035381 4.322400368658559 1.746602088888765  0.9932975301278879 4.40038122268272 1.739687073152242  0.9971289645492523 4.477936967334224 1.732803163012134  1.001288481717284 4.554947516120848 1.725984724756054  0.971454468247442 4.091014616224884 1.338653688751243  0.9765292517746721 4.170867942284272 1.30926814655626  1.098951760052476 4.055454669045872 2.436105863823386  1.214908297455296 4.042816943603477 2.470645029536512  1.218903096721703 4.057608623663438 2.365601634478666  1.220800447345338 4.12532874880966 2.373569635096314  1.216474171745068 4.1094127868305 2.481638267689192  1.10265785039687 4.124150319434149 2.446633622005385  1.222625088593788 4.192944124635469 2.381395596523044  1.21798477171031 4.175959853837301 2.492444786957151  1.106265468366905 4.19280545797714 2.456928430383535  1.224419195925835 4.260433339894139 2.389123224373782  1.219467460668774 4.24241702387457 2.503155088247857  1.109803412944216 4.261350914786515 2.46710112962039  1.226233056941909 4.32777853559308 2.396813082397817  1.337143762783316 4.053394651532681 2.402841634784249  1.446877178344084 4.059712242338498 2.343634177851262  1.333994152488714 4.064893792123566 2.297764108129973  1.333851392321956 4.132116332884548 2.304551200457561  1.44606867717453 4.125753648894785 2.351106226632063  1.337086049513616 4.119520069417485 2.411762861618568  1.333691819755571 4.199227723563947 2.311237020820748  1.445276580760816 4.191683230326772 2.358486121706064  1.33702292542285 4.185580736176581 2.420574993895596  1.333533419410883 4.266214203811104 2.317854834997944  1.444511411780807 4.257501471197759 2.365809818758746  1.336966147795883 4.251547559580705 2.429317198004498  1.333407465126322 4.333067367032172 2.324441057253761  0.8761863018474322 4.07729209551568 2.373526044870559  1.012224248520699 4.069771506926801 2.353570198755208  0.9767577066938645 4.084097371532086 2.252776528786978  0.9813470151430744 4.157306134067732 2.25917692710377  1.016301780032723 4.141068798535514 2.362017614898595  0.8812022899667029 4.151359816095764 2.383117589862687  0.9857485550648257 4.230271236485001 2.265352021047943  1.020232260153331 4.21220014397892 2.370209064213669  0.88609248120619 4.225262417314559 2.39235304060925  0.9900639889598882 4.303001759779027 2.271384679943723  1.024072106065413 4.283149679472312 2.37825251558466  0.8908321874433265 4.298939280552045 2.401420648466576  0.9943775777122493 4.375472572275595 2.27733988406902  1.02789142140872 4.353893175726954 2.386225335810867  0.8955080637861276 4.372358085797735 2.410397237921993  0.998781153355022 4.447640461684316 2.283286272889275  1.031776551349476 4.424387565130291 2.394201172955417  0.9001961223499281 4.445473158144292 2.419364602354765  1.00338478762405 4.519439826001452 2.28941976108796  1.035879569186799 4.494571431810641 2.402342045490037  0.9051257178596765 4.518169218751161 2.428545829112922  1.091118456230867 4.078226608547865 2.239602311590525  1.220622839502709 4.067627847830618 2.260872367738118  1.208464553937751 4.080657079713907 2.119798224425836  1.210499996331138 4.151334230621124 2.123373364942795  1.222586550402035 4.136350117654605 2.267285352410002  1.09498762612205 4.149288507396899 2.245394124617738  1.212409370535301 4.221819330273381 2.126837056168585  1.224435474208497 4.204934179600735 2.273563562369568  1.09868625346099 4.220178130317035 2.251015634047286  1.214279470328181 4.292103178898098 2.130232782516991  1.226250755191924 4.273355149737935 2.279756610835809  1.102317330372932 4.29087586199662 2.25652935604578  1.216183366009097 4.362182866304928 2.133594756226368  1.228095085536173 4.341605180825783 2.285911399315391  1.105971536220447 4.361359333739225 2.26199125807327  1.218207239862844 4.432059013753173 2.136968951740688  1.230048298903413 4.409673301339081 2.292068725681243  1.109750348001227 4.431596495012451 2.267454042390429  1.220442738322003 4.501714776327964 2.140437356061853  1.232187158208532 4.477538713418573 2.298344965809341 
[...]
<PointData  Scalars="f_14"> 
<DataArray  type="Float64"  Name="f_14"  format="ascii">9.5489128181952820e-01  9.6234050276948158e-01  9.5483455552270557e-01  9.5490243296449717e-01  9.6240278001164303e-01  9.5496201865161989e-01  9.6260361527528426e-01  9.5515909124915088e-01  9.5510729876889866e-01  9.5549225589701714e-01  9.6294722250935194e-01  9.5544697402794954e-01  9.5596339587408863e-01  9.6343550459072924e-01  9.5592305523992493e-01  9.5657103838037605e-01  9.6406751718980277e-01  9.5653856794046954e-01  9.5729102016116285e-01  9.6484117257656676e-01  9.5728172376112086e-01  9.1012381788368635e-01  8.9980015833720173e-01  9.0941518146507960e-01  9.0944278827895586e-01  8.9983032664059581e-01  9.1014793815904893e-01  9.0952777211764579e-01  8.9991585992803169e-01  9.1023320983613276e-01  9.0965520403479683e-01  9.0002974597094831e-01  9.1036246286778655e-01  9.0980771343553335e-01  9.0014463198651307e-01  9.1051724044901283e-01  9.0996654481559747e-01  9.1832270937094829e-01  9.1905789261910908e-01  9.1909867809487333e-01  9.1835676292557822e-01  9.1921191834218008e-01  9.1846234572026408e-01  9.1938806291132025e-01  9.1862869560368454e-01  9.1961650456195743e-01  9.1884413371456686e-01  9.1988560989299684e-01  9.1909826200140254e-01  9.2018310667777536e-01  9.1011952873090418e-01  9.1938022132864994e-01  9.4513803633145177e-01  9.4553323858681271e-01  9.3693213664864561e-01  9.3699197449349692e-01  9.4559204073664616e-01  9.4519473266331655e-01  9.3716840581339222e-01  9.4576225013518778e-01  9.4535888246471178e-01  9.3745259617735921e-01  9.4605121205424803e-01  9.4564026872418050e-01  9.3783876146409051e-01  9.4645905255531315e-01  9.4604081990464661e-01  9.3832033362082312e-01  9.4699010210584411e-01  9.4656227992942821e-01  9.3889348396520689e-01  9.4764817988784544e-01  9.4720172705855166e-01  9.2809572574214749e-01  9.2783228504938864e-01  9.2787734303415581e-01  9.2815167312352054e-01  9.2801419916818206e-01  9.2831307743654068e-01  9.2823169417839380e-01  9.2856137606762168e-01  9.2852337288965703e-01  9.2888701159851239e-01  9.2888287903724287e-01  9.2927798261774242e-01  9.2930489138040284e-01  9.2971225698381788e-01  9.3698285411479687e-01  9.3660982706173523e-01  9.3665610972308666e-01  9.3703403027593479e-01  9.3680289204612033e-01  9.3718542652056236e-01  9.3704877948744492e-01  9.3743924958980007e-01  9.3739102949777098e-01  9.3779176942573850e-01  9.3782775159235099e-01  9.3824014281961399e-01  9.3836217468580452e-01  9.3879626162843666e-01  9.1067694140772071e-01  9.4552766256728682e-01  9.4559231385341702e-01  9.4578542790423425e-01  9.4609858293518201e-01  9.4652935550650930e-01  9.4707925389934200e-01  9.4773850446968633e-01  9.4693556525374367e-01  9.4707926086884386e-01  9.3544103709102389e-01  9.2662471641132094e-01  9.2653450113294744e-01  9.2655986454489581e-01  9.2666409186626320e-01  9.3546750257267386e-01  9.2665048410715256e-01  9.2676975389944993e-01  9.3555001653904479e-01  9.2680739713085059e-01  9.2694295620798539e-01  9.3571064143586713e-01  9.2703575745650801e-01  9.1738833762687244e-01  9.0890431880871925e-01  9.1789867919728929e-01  9.1793443278788489e-01  9.0892032903443798e-01  9.1742071138878190e-01  9.1804571769734744e-01  9.0897863499431331e-01  9.1751924375405924e-01  9.1821649206576827e-01  9.0907199858430676e-01  9.1767253943543581e-01  9.1843537221260163e-01  9.5201620351050709e-01  9.4208007836279484e-01  9.4485858624900054e-01  9.4490171417073088e-01  9.4212816798753440e-01  9.5206362290636881e-01  9.4503699684626963e-01  9.4226395793905260e-01  9.5220334489058467e-01  9.4527431708687359e-01  9.4249596574932382e-01  9.5245783455966238e-01  9.4562595786092418e-01  9.4283826531559789e-01  9.5284145656448704e-01  9.4610521258307856e-01  9.4330464906093436e-01  9.5337054384783071e-01  9.4672424315269976e-01  9.4390232482578740e-01  9.5405449761713490e-01  9.3638732928560919e-01  9.2661766614094798e-01  9.2785857442000663e-01  9.2789303461001749e-01  9.2664782385258682e-01  9.3642319144942976e-01  9.2799706355793099e-01  9.2673730021706402e-01  9.3652295923500284e-01  9.2817586100396998e-01  9.2689414397177028e-01  9.3670369944854304e-01  9.2842809021197359e-01  9.2712107260773846e-01  9.3698022606699738e-01  9.2875445263445178e-01  9.2742240479590088e-01  9.3737031965078976e-01  9.2916670967445858e-01  9.2782900492784270e-01  9.3789464320908866e-01  9.5358318474004733e-01  9.4541178956048888e-01  9.4545530348157847e-01  9.5363493723275683e-01  9.4559555545652041e-01  9.5380037870151657e-01  9.4584178532151741e-01  9.5408539551923410e-01  9.4620116995210279e-01  9.5450029011102200e-01  9.4668449231216711e-01  9.5505667115487258e-01  9.4731394731568075e-01  9.5576015214923404e-01  9.3390890540747840e-01  9.3393155650365667e-01  9.3400467301651380e-01  9.3415096198432168e-01  9.3438810680042583e-01  9.3596757126512564e-01  9.3473852770424060e-01  9.3634290552100918e-01  9.2734362687843308e-01  9.3524100405528632e-01  9.8462798678286290e-01  9.7632595835285274e-01  9.7772612153269656e-01  9.7779806774332745e-01  9.7638041214549454e-01  9.8469301417720301e-01  9.7801717760486528e-01  9.7657684541246637e-01  9.8488660473567280e-01  9.7837411845881384e-01  9.7691250151632014e-01  9.8520097611438118e-01  9.7886733798032932e-01  9.7738830010033395e-01  9.8565124116629865e-01  9.7949821834697792e-01  9.7800379781200064e-01  9.8625613144633140e-01  9.8027036184404970e-01  9.7873640090600955e-01  9.8703374130832988e-01  9.2849060783708182e-01  9.2854998430243485e-01  9.2872063617101352e-01  9.2898344253764009e-01  9.2932707080656873e-01  9.2973668372421814e-01  9.3019101392946180e-01  9.6170499184999358e-01  9.6175002341277471e-01  9.6190504644826746e-01  9.6219107965058215e-01  9.6262089832489339e-01  9.6320645308410957e-01  9.6394660248324182e-01  9.7770910281504964e-01  9.6990651839978237e-01  9.7089265503313327e-01  9.7094816496476466e-01  9.6996157419470397e-01  9.7777246600178891e-01  9.7112144123984534e-01  9.7012371593254232e-01  9.7795248934633794e-01  9.7143098839257691e-01  9.7041838215168807e-01  9.7826970118246803e-01  9.7189086039184935e-01  9.7086373191292130e-01  9.7873846340467929e-01  9.7251105320773201e-01  9.7147690326972991e-01  9.7937549821727676e-01  9.7328876310424395e-01  9.7227173155594804e-01  9.8018654980210251e-01  9.7858570162818959e-01  9.7865939259933954e-01  9.7886485427617975e-01  9.7920875025063203e-01  9.7970149548376761e-01  9.8035648997420277e-01  9.8116022044219542e-01  9.8523823301159141e-01  9.7715802589313905e-01  9.7836533526671621e-01  9.7844631758920630e-01  9.7725774428313417e-01  9.8530280410870641e-01  9.7867202345129078e-01  9.7752907161704039e-01  9.8550431333698574e-01  9.7904747796194591e-01  9.7794883293122892e-01  9.8584226191270696e-01  9.7957749284798246e-01  9.7851375109522687e-01  9.8633552231115340e-01  9.8026393624785391e-01  9.7921517986072037e-01  9.8701776127302721e-01  9.8108898882813811e-01  9.8002080886398435e-01  9.8789380950303485e-01  9.8485961553761481e-01  9.7759828949690941e-01  9.7767131718140410e-01  9.8490606180111473e-01  9.7788285693079857e-01  9.8505805072266450e-01  9.7823144374470272e-01  9.8533113396462679e-01  9.7873196392540029e-01  9.8574649202187581e-01  9.7939731859309975e-01  9.8633865827047851e-01  9.8022915469053251e-01  9.8715011529217822e-01  9.7035260936580248e-01  9.7125487106034736e-01  9.7133308654267880e-01  9.7043891093599455e-01  9.7156618158732766e-01  9.7067465692649768e-01  9.7194859638619246e-01  9.7105805145666435e-01  9.7248442762058140e-01  9.7159098160713420e-01  9.7316785856193466e-01  9.7226496896228387e-01  9.7396310629346328e-01  9.7306143811506907e-01  9.9270833407335235e-01  9.8508630228485405e-01  9.8514037280134248e-01  9.9270863638528339e-01  9.9277094117957287e-01  9.8529397540528640e-01  9.9290911722521191e-01  9.8556586333578133e-01  9.9314661464435661e-01  9.8597055090632968e-01  9.9353351730045059e-01  9.8653063183296485e-01  9.9418699707445468e-01  9.8730985260865645e-01  9.9999999999978118e-01  9.9254859975812826e-01  9.9232780814442778e-01  9.9233813731669185e-01  9.9256853825909663e-01  9.9999999999978118e-01  9.9239422243121278e-01  9.9263919830239578e-01  9.9999999999978118e-01  9.9252695239038724e-01  9.9278867895253931e-01  9.9999999999978118e-01  9.9276496905819567e-01  9.9304766210853379e-01  9.9999999999978118e-01  9.9317168955538904e-01  9.9346857308279324e-01  9.9999999999978118e-01  9.9385705433472771e-01  9.9416593146791254e-01  9.9999999999978118e-01  9.8546947192869916e-01  9.8583619289868629e-01  9.8590027621541609e-01  9.8551720518106223e-01  9.8567716510311787e-01  9.8609444165405113e-01  9.8595972743401672e-01  9.8641590132985857e-01  9.8638395487538888e-01  9.8687312117161397e-01  9.8697675786076833e-01  9.8749257563332271e-01  9.8776890399986761e-01  9.8828330136380138e-01  8.8991528051334945e-01  8.9989634975405242e-01  8.9000849716597386e-01  8.9999429034727196e-01  8.9012074987953382e-01  9.0012548613381538e-01  9.0026099433309759e-01  9.0969557173088678e-01  9.0980608291474041e-01  9.0996631145143470e-01  9.1015519377337517e-01  9.1035022166516077e-01  9.8536220149466103e-01  9.8540126423993590e-01  9.8553453751794406e-01  9.8578576995414235e-01  9.8617990459018523e-01  9.8675354087210709e-01  9.8756147403899575e-01  9.7784182412647769e-01  9.7709435571103187e-01  9.7031805237283442e-01  9.7038051411210791e-01  9.7715871299101753e-01  9.7789433788806202e-01  9.7056721354708531e-01  9.7734309189417379e-01  9.7806425219798421e-01  9.7088329640320037e-01  9.7766032370755429e-01  9.7836155114424583e-01  9.7134639034622450e-01  9.7812641064977479e-01  9.7880701239661361e-01  9.7197517876416883e-01  9.7876362085035384e-01  9.7942437107540570e-01  9.7277225872796413e-01  9.7959141457718102e-01  9.8024183542241061e-01  9.9252791413971031e-01  9.9321956131868416e-01  9.8501017603343166e-01  9.8507715589579115e-01  9.9326880407668505e-01  9.9255645515640789e-01  9.8527251707374031e-01  9.9339138332659505e-01  9.9265179688829264e-01  9.8558927016465603e-01  9.9358319851663834e-01  9.9283632516583997e-01  9.8603721513429876e-01  9.9386652995072433e-01  9.9313052998988582e-01  9.8662987004002323e-01  9.9428351915603119e-01  9.9359028330313237e-01  9.8741537467738960e-01  9.9497990367448408e-01  9.9429828036188084e-01  9.6971147756328713e-01  9.6156085124823121e-01  9.6185059968108655e-01  9.6190568313290370e-01  9.6161384933725891e-01  9.6976667128193794e-01  9.6206769460150543e-01  9.6176781077991280e-01  9.6993379130762802e-01  9.6235795040283445e-01  9.6204467561000340e-01  9.7023108593344143e-01  9.6278967752579847e-01  9.6246273535708560e-01  9.7067626361797743e-01  9.6338402208305984e-01  9.6304551984059628e-01  9.7128776465184974e-01  9.6416961058184458e-01  9.6383010085736665e-01  9.7208192479733346e-01  9.9244407626610787e-01  9.8577582244771700e-01  9.9298722607337631e-01  9.9300038521761713e-01  9.8585333188084512e-01  9.9248159965454852e-01  9.8606931716909674e-01  9.9260332278873065e-01  9.9307355636527650e-01  9.8642490618226031e-01  9.9281584124733024e-01  9.9323206149909093e-01  9.8693007330331317e-01  9.9313474851691741e-01  9.9349686833434936e-01  9.8761077395793573e-01  9.9361142799461444e-01  9.9391803590082717e-01  9.8847838827301537e-01  9.9438148933083448e-01  9.9466498977764461e-01  9.8558510206319849e-01  9.8527108189894486e-01  9.8537549273626757e-01  9.8565510435066939e-01  9.8564675409359248e-01  9.8586327798875961e-01  9.8605440852224968e-01  9.8620648427926649e-01  9.8660130019747105e-01  9.8669441081841081e-01  9.8730322165194673e-01  9.8734087723152886e-01  9.8817459940609764e-01  9.8817825395865155e-01  9.9276104931394782e-01  9.8546247596056946e-01  9.8550368440066560e-01  9.9279675029778713e-01  9.8564281136902110e-01  9.9290391361294050e-01  9.8589503652707167e-01  9.9308144470671389e-01  9.8628343499747773e-01  9.9335068889981060e-01  9.8685004826003586e-01  9.9377056593086999e-01  9.8764248275500299e-01  9.9447829565940316e-01  9.5264096940911469e-01  9.4440347263896640e-01  9.4443883971233944e-01  9.5268730645587008e-01  9.5282492276795128e-01  9.4455761583821796e-01  9.5307561611780478e-01  9.4477647336698889e-01  9.4511164922108015e-01  9.7706675811467458e-01  9.6877240936879094e-01  9.7711113995631282e-01  9.6883786615224632e-01  9.7780694886849373e-01  9.7002061076713952e-01  9.7008770347197126e-01  9.7786980434074255e-01  9.7028793288639914e-01  9.7806726167816016e-01  9.7062685717081643e-01  9.7840396632728832e-01  9.7111490045674587e-01  9.7889460538336470e-01  9.7176153238751706e-01  9.7954934090881818e-01  9.7255574654102994e-01  9.8038245451078632e-01  9.7767299479076497e-01  9.7773296997332471e-01  9.7792178173915001e-01  9.7824445583492992e-01  9.7871733084995560e-01  9.7935798485617098e-01  9.8019276580844950e-01  9.9274303817648668e-01  9.9275481484012906e-01  9.9281561525418416e-01  9.9295389213933183e-01  9.9319256606156903e-01  9.9359171123448609e-01  9.9427325773572006e-01  9.1888481675221312e-01  9.1899176474514666e-01  9.1916227977824783e-01  9.1938603746447478e-01  9.1965057727819266e-01  9.1995120262572572e-01  9.1052271886368341e-01  9.5433476446239929e-01  9.5440452567378298e-01  9.5461145543419512e-01  9.5495018708416002e-01  9.5542311159787929e-01  9.5603546185093080e-01  9.5678849117679365e-01  9.5360263057278016e-01  9.5342065586750191e-01  9.4507804655426975e-01  9.4513609550762279e-01  9.5348025954561089e-01  9.5367643719812734e-01  9.4531347012925593e-01  9.5366166919546380e-01  9.5387822986695991e-01  9.4560480154350268e-01  9.5396597685840134e-01  9.5420732546213505e-01  9.4601148743648578e-01  9.5440083204911441e-01  9.5466959273430863e-01  9.4653794061694352e-01  9.5497992592237868e-01  9.5527492827628913e-01  9.4718421219434235e-01  9.5571805331306015e-01  9.5603395741213681e-01  9.6359331831678763e-01  9.6278048626332446e-01  9.6286422015243134e-01  9.6367543985039861e-01  9.6309929669819205e-01  9.6391224581582480e-01  9.6347959747922496e-01  9.6429365315657112e-01  9.6400389163533284e-01  9.6481806675024973e-01  9.6466189559111382e-01  9.6547601768016744e-01  9.6543012335392064e-01  9.6624363759358944e-01  9.8500833501011098e-01  9.8505329306002665e-01  9.8518536118849942e-01  9.8543309189538975e-01  9.8582572010840797e-01  9.8639814346724042e-01  9.8721167650413921e-01  9.9238411563093298e-01  9.9241545097144013e-01  9.9251715988568956e-01  9.9270311610740236e-01  9.9299251528155796e-01  9.9343302555659241e-01  9.9413392890221119e-01  9.7005046345137746e-01  9.7652527498234998e-01  9.7657597117222328e-01  9.7011384319732141e-01  9.7677009908849410e-01  9.7031905434061705e-01  9.7710590378657214e-01  9.7066362942687490e-01  9.7758651685184272e-01  9.7114605594169812e-01  9.7821916401157882e-01  9.7176149409226098e-01  9.7899194504034881e-01  9.7248810380588990e-01  9.8440251739693563e-01  9.8443571327307999e-01  9.8457166046909816e-01  9.8483881727362743e-01  9.8525988665327613e-01  9.8585743319310859e-01  9.8666167396131332e-01  9.3646128732579226e-01  9.3649984535046193e-01  9.3662375895300332e-01  9.3683933931675833e-01  9.3714995343667085e-01  9.3756288772739416e-01  9.3809668459154394e-01  9.6364507501273111e-01  9.7069413669388060e-01  9.7077164808919658e-01  9.6372204138396267e-01  9.7097801853677457e-01  9.6396489577858713e-01  9.7133087400960305e-01  9.6435477293903160e-01  9.7183983601873658e-01  9.6489404400437451e-01  9.7250886976099982e-01  9.6557370470181902e-01  9.7332330403226130e-01  9.6636284184224852e-01  9.6060596688431188e-01  9.6064516886627538e-01  9.6078493569799917e-01  9.6105137909985194e-01  9.6145926283657468e-01  9.6202008506194636e-01  9.6273818505531006e-01  9.9195209467010415e-01  9.9198216579691390e-01  9.9207801951093255e-01  9.9293759939579829e-01  9.9361139400767862e-01  9.5419323838637859e-01  9.5318944800359562e-01  9.5324328329362706e-01  9.5424869543003543e-01  9.5341008510495717e-01  9.5441815574714373e-01  9.5369598012656798e-01  9.5470882595976969e-01  9.5411098261410221e-01  9.5513057315431182e-01  9.5467017161956491e-01  9.5569974806131197e-01  9.5538083046573485e-01  9.5643334335631325e-01  9.6019859819408160e-01  9.6024295027014039e-01  9.6039948955009846e-01  9.6902903772224291e-01  9.6068263503997586e-01  9.6224086311935697e-01  9.6229741905199018e-01  9.6246237249593081e-01  9.6275705231424191e-01  9.6319660179080335e-01  9.6379786238970144e-01  9.6458946251392352e-01  9.4317120678859123e-01  9.4319145585323616e-01  9.4327153578504719e-01  9.4344211544896417e-01  9.4372729760428375e-01  9.9214798381406999e-01  9.8465565583281744e-01  9.8470205340739492e-01  9.8474890660235093e-01  9.8468912178237644e-01  9.9216123547039270e-01  9.8490269547510434e-01  9.8482152263334743e-01  9.9223222488466822e-01  9.8517890571057298e-01  9.8507945513018724e-01  9.9238910279002746e-01  9.8559897530292850e-01  9.8549135277486410e-01  9.9266348240878710e-01  9.8619144607106735e-01  9.8607658951849408e-01  9.9309198193352721e-01  9.8699325524445147e-01  9.8688145109430792e-01  9.9378284173566545e-01  9.5493522950857912e-01  9.5505577328476687e-01  9.5495855626509751e-01  9.5514866856434233e-01  9.5532469555869959e-01  9.5550256695363278e-01  9.5573907435836536e-01  9.5599397448018397e-01  9.5730336312389530e-01  9.5768797081616586e-01  9.5695075190257839e-01  9.8536723808748516e-01  9.7780598632442206e-01  9.7788327061695202e-01  9.8544416460879136e-01  9.7810273504247447e-01  9.8566981850634594e-01  9.7846272904649467e-01  9.8602505514140470e-01  9.7896579738995138e-01  9.8651694030340575e-01  9.7961708544006421e-01  9.8716440756873458e-01  9.8040170604979227e-01  9.8800259080920816e-01  9.6878642664755432e-01  9.6887183907440544e-01  9.6912678637057059e-01  9.6952799777185028e-01  9.7007234570859857e-01  9.7075409595032391e-01  9.7152893996855849e-01  9.3308796416363560e-01  9.3312253438274506e-01  9.3321258903096871e-01  9.6347704868754791e-01  9.6998532030014295e-01  9.7005051411273413e-01  9.6352838322268675e-01  9.7025052343208285e-01  9.6370986538240078e-01  9.7059287212956935e-01  9.6402967746643242e-01  9.7108206500154470e-01  9.6449528755082659e-01  9.7172106229964916e-01  9.6511508675248237e-01  9.7250222997014923e-01  9.6589088027081493e-01  9.9999999999978118e-01  9.9278929330808752e-01  9.9280177081215637e-01  9.9999999999978118e-01  9.9286607287642570e-01  9.9999999999978118e-01  9.9302140521692261e-01  9.9999999999978118e-01  9.9328192227618384e-01  9.9999999999978118e-01  9.9369511637863239e-01  9.9999999999978118e-01  9.9442728585782270e-01  9.9999999999978118e-01  9.6952258662298163e-01  9.6957436435877020e-01  9.6972249644369235e-01  9.6999905740965020e-01  9.7042333374644718e-01  9.7101987370243281e-01  9.7180751429557810e-01  9.6275687816601585e-01  9.6073411459508706e-01  9.6079947350016959e-01  9.6280165349196034e-01  9.6098128303904762e-01  9.6295509641111821e-01  9.6128714163476370e-01  9.6323263770134449e-01  9.6173229188853504e-01  9.6365202317144472e-01  9.6233710543004736e-01  9.6423667053351980e-01  9.6312452793740777e-01  9.6501401378919616e-01  9.5628835052983030e-01  9.6994048625496332e-01  9.6999743897763435e-01  9.7018077214282228e-01  9.7049809138547960e-01  9.7096625013822246e-01  9.7159999455937907e-01  9.7239898241371125e-01  9.9212614727454596e-01  9.9215989336517529e-01  9.9227391659568043e-01  9.9247656236885307e-01  9.9278555513642175e-01  9.9324280496452932e-01  9.9394371768257672e-01  9.6851678991148293e-01  9.6856477825711840e-01  9.6871594318387444e-01  9.6900372924956124e-01  9.6943890086970108e-01  9.7002889869654785e-01  9.7077317363198656e-01  9.9206896123221644e-01  9.9210446321941848e-01  9.9222216366419547e-01  9.9242408109050961e-01  9.9273622800407135e-01  9.9319276981526461e-01  9.9389128773561086e-01  8.9968775292250469e-01  8.9978529796392248e-01  9.9298361392938383e-01  9.9300489265580816e-01  9.9307069176943474e-01  9.9321558624859041e-01  9.9346205704709356e-01  9.9385623940609791e-01  9.9456518972455499e-01  9.1954937041280693e-01  9.1959606065880706e-01  9.1973112172855143e