<?xml version="1.0"?>
<VTKFile type="UnstructuredGrid"  version="0.1"  >
<UnstructuredGrid>
<Piece  NumberOfPoints="990" NumberOfCells="4257">
<Points>
<DataArray  type="Float64"  NumberOfComponents="3"  format="ascii">1.018064369749025 2.558121832939007 3.795628070656118  1.163365300516769 2.607902211891847 3.814566004168331  1.029369944752563 2.726232233914455 3.800206817057172  1.023231579576074 2.729622617168813 3.865960027426981  1.157050274935273 2.607550472897475 3.878978314365631  1.011579166252618 2.555324933466658 3.860875235357743  1.017749518639427 2.733343408591981 3.932407506781606  1.415203054076853 3.170783063917907 3.74117860711092  1.363076166749801 3.040003921966899 3.782221477821357  1.512751845252476 3.042685037436229 3.794933698277688  1.50767742818564 3.060774686162001 3.857072487181711  1.358279343912989 3.057983385078952 3.84463096076686  1.409961276691116 3.194616090098876 3.801712967350987  1.503103662668155 3.079080562332861 3.919483741586785  1.354047998907601 3.076271556687965 3.907369475727268  1.405240814078973 3.218777364223847 3.862498234265572  1.498673794471949 3.097438577304317 3.982160362469655  1.349921396240385 3.094613574744929 3.970471205625133  1.400664228012379 3.24304610221955 3.923585006746772  1.494159202917089 3.115771786969856 4.045079088637481  1.345675578735825 3.112927724614543 4.033907195513039  1.396009962639953 3.267314338642799 3.984963950196379  1.489417519931305 3.134069022275256 4.108218499671167  1.341161541410202 3.131196218275753 4.097651858378842  1.391128552874285 3.291557454981959 4.04662966136745  1.484302911265542 3.152319015475922 4.171557923162681  1.336233242588926 3.149409899407583 4.16169184483311  1.385827713059778 3.315783050558288 4.108613360776077  1.39863670117844 2.899021952226087 3.818279640022923  1.393280120491287 2.911079250004823 3.881668938842076  1.388503957076871 2.923353240452959 3.945340937312517  1.38385499478389 2.935641991197696 4.009383564050207  1.379085228869409 2.947866951342625 4.073731266998758  1.374040718441 2.960019650652478 4.138320313917923  1.368601454066927 2.97210165352847 4.203060988966518  1.164239935648944 2.764574722372185 3.812617108454148  1.029019410138561 2.882794449878584 3.782989292083059  1.023487318997381 2.893340433476352 3.848534576650013  1.158151733738049 2.769860405611902 3.877378991151604  1.018529231106071 2.904336309077907 3.914626932315637  1.152726022164912 2.775422733939126 3.942661915883778  1.013533755237705 2.915306948295035 3.981319597369208  1.147328620929025 2.78091351012746 4.008486613719054  1.012228586142033 2.736968055581434 3.999446234136049  1.008355249182376 2.92615605883178 4.048567723493373  1.14172403392357 2.786266140170003 4.074779465709608  1.006469865228256 2.740413007720365 4.067046369985685  1.002890355411886 2.936844959861299 4.116348313595829  1.135754120905935 2.791465221861948 4.141489953625533  1.000328156505355 2.743658894096198 4.135214853253823  0.9969860246048976 2.947332022753162 4.184651165996282  1.129283383756106 2.796512330188026 4.208555545953035  0.9936097122836696 2.746662890968773 4.203961169978799  0.9019705492425836 2.843100053045529 3.776171822523083  0.9029856350930836 2.675232681862525 3.787638145169774  0.8969325967140493 2.676090248419939 3.854571311378896  0.897024855488484 2.850744378338638 3.843419016488873  0.8915901189115529 2.677261770310955 3.922192611530792  0.8926507157203323 2.858836384720724 3.911283557935642  0.8862098162881028 2.678322158743298 3.990524168103725  0.8882017438983552 2.866902811163462 3.979826286336705  1.151458248870237 2.60739775681565 3.943984594919316  1.145941487565078 2.607119026394114 4.009494226024104  1.14021955165681 2.606671598992393 4.075450829878416  1.134104676819248 2.606068634707023 4.141834314361356  0.9050404326323569 2.980980902250752 3.754921935950953  0.9016814869610175 2.993936468634486 3.821966361000136  0.8988067890828912 3.007426167998489 3.889689861763955  0.8959003086535479 3.020930575180786 3.958024394716537  0.883551914797191 2.874828859355635 4.049007336390706  0.8928576575716568 3.03436217223938 4.02695972284908  0.8786278457323869 2.882561486708142 4.11881784845121  0.8896240954165916 3.047645982557771 4.096532653237361  0.8733621062246602 2.890024522486793 4.189297095645277  0.8862166236006207 3.060724262133277 4.166905552763379  1.28186911892874 2.920543887005303 3.802488800675285  1.276147099883125 2.933556417663882 3.865910225466018  1.271043335364555 2.946894577864869 3.929825764734306  1.266029329258227 2.960239779180989 3.994159818899102  1.260857736641519 2.973505366881361 4.058884034734627  1.255381555299465 2.986681089476006 4.123978708030809  1.249437754563858 2.999798974665786 4.189456306653406  1.622422654312186 3.063987471433804 4.06717902115707  1.638405993956442 3.191154945998746 4.029922515973192  1.635771106823644 3.212329896815388 4.091872489866756  1.618561487171053 3.080861973171797 4.130116953732861  1.632872774986625 3.233458873811784 4.153914102713345  1.614400897549345 3.097711233010018 4.193146527057666  1.309886859763707 2.662441495791571 3.829226889490261  1.407367190183006 2.771978273637457 3.836670504439849  1.289368784869256 2.806214609867917 3.822759322118602  1.283356042863483 2.813753951408577 3.886770288991558  1.401516668031181 2.777024037971031 3.900614556471321  1.303251204771961 2.663741959847669 3.892993691129722  1.277980026381596 2.821559697084354 3.951327907277597  1.39624727492642 2.782235841957417 3.964922495539934  1.297263493522081 2.665173479410955 3.957210964415377  1.272678033725215 2.829321431402924 4.016308086361982  1.391092190110014 2.787427892769576 4.029562907361464  1.291411346001463 2.666552708143605 4.021834435113515  1.267208751479243 2.836978323982362 4.081658650262648  1.385812073780392 2.792530419355713 4.094492787069353  1.285425960455592 2.667815951897084 4.086800403211322  1.26141577411647 2.844528575142765 4.147349583502999  1.380250834957859 2.797547194411716 4.159676917658188  1.279130955788501 2.668979527726428 4.152064352630209  1.255144277797137 2.851961833327544 4.213333013835565  1.374261202497642 2.80248634383125 4.225090818094711  1.272301992336775 2.670048581370353 4.21761619798487  0.7738767452665462 2.717131692575266 3.773710748391784  0.7692955794896722 2.719738913959666 3.84248312668101  0.7653478878793262 2.722676038707668 3.912088443062909  0.7613383079356575 2.725520488961091 3.98243165164294  1.531075589044977 3.256681124024677 4.004302953186762  1.534616254326733 3.232492504673731 3.942982834689868  1.527324310622854 3.280849221054285 4.065823369474743  1.523259166407817 3.304984153096455 4.127504543508485  0.7807991165560793 2.957777046202644 3.75373444009126  0.7776423115576366 2.968547176464244 3.823151688927644  0.7748786020983387 2.979768546024719 3.893196850400905  0.7720185834375605 2.99099727420729 3.963929861522522  0.7690400640934084 3.002166165517016 4.03533854650941  0.7659246472551096 3.013199171057345 4.107426458923547  0.7626814304665656 3.023953485099773 4.18020092464999  0.7753432311091997 3.093108420654882 3.72931793033629  0.7741444611394626 3.110918499028666 3.798507139200509  0.7732773187228041 3.129200978235072 3.868259282715722  0.772320349871871 3.147511926358838 3.938654939865896  0.7713045312671517 3.165829309653225 4.009671118235658  0.7701897775078536 3.184040240808786 4.081322462250952  0.769083612737623 3.20207386967188 4.153553888606143  1.518365622749931 2.808275639731959 4.039080337280726  1.611595790937864 2.9249979836403 4.029635645778897  1.513567085949886 2.964509520661391 4.015264000176704  1.509035398448208 2.97766801171546 4.079092464327514  1.606425026664697 2.936647797901295 4.093230900106727  1.513059688007153 2.815277942589096 4.103418060485396  1.504272780602963 2.990773753480203 4.143108710822305  1.601065695016548 2.948260727881623 4.156956087958551  1.507518529016159 2.822231813065234 4.16794211171385  1.499136138817698 3.003828444083529 4.207279181268953  1.595372763370476 2.959852018064645 4.220777842472888  1.501584251811698 2.829161143566469 4.232639479347778  1.000546770688328 3.84764506477066 3.14137940317772  0.8748852751541625 3.794016520793638 3.238162109761256  0.9940629732317124 3.784717045320605 3.246284225959225  0.9935275290134756 3.845265280214599 3.282176815152891  0.876320200075515 3.856133357914042 3.275945235320532  0.6525199123148477 3.073688323062574 3.728871738013857  0.6491540439168476 3.088485533409708 3.800690700479468  0.6459636775682192 3.103723166729253 3.873236907673329  0.6427412652328817 3.118983696716023 3.946415084718546  0.6395031813310984 3.134251347502879 4.020260493574413  0.6362196994416371 3.149459627248441 4.094816933570211  0.6327473668834248 3.164520233383961 4.170145118309547  0.400477309565184 3.189944811832764 3.688304194085481  0.4037069172317779 3.057174235112501 3.719369045560032  0.5120104979999565 3.181674022909749 3.691952813744947  0.5098360350222964 3.201836013722406 3.765865989399813  0.4018801069077264 3.069843974438784 3.796478369140403  0.3999049771389955 3.210213501150752 3.764815282063905  0.5077827123392959 3.222333959681862 3.840447919220363  0.4000279336219024 3.082403156899136 3.874266395812296  0.3994783683765789 3.230458290916835 3.842159189294248  0.5057597930956361 3.242970430729086 3.915691056494759  0.3982461862364286 3.095135201955875 3.952694375335326  0.3990460607717894 3.250964694091286 3.920168122983966  0.5037510319004431 3.263668465763837 3.991583076657486  0.3965347029180035 3.108096861065671 4.031777027239107  0.398601280268299 3.27165293011898 3.998802922150536  0.5017688975094289 3.284421909192156 4.068120177710602  0.3949504544959447 3.121265447920781 4.111587455657395  0.3982749205220306 3.292491690880655 4.078098579655562  0.4997716836618834 3.305152119977875 4.145425401873736  0.3935261850840326 3.13463627253994 4.192352822795721  0.3981518798427278 3.313495589826783 4.158214577037723  1.023398768996898 3.654121699100873 3.422744977985929  1.148383590833803 3.65622
[...]
<PointData  Scalars="f_14"> 
<DataArray  type="Float64"  Name="f_14"  format="ascii">9.3531676957481180e-01  9.2329418036528799e-01  9.3494695343960055e-01  9.3491269196636395e-01  9.2325922568578700e-01  9.3528040815767921e-01  9.3490602598900885e-01  9.0473671170661152e-01  9.0832590857175055e-01  8.9556381221311165e-01  8.9555905256178348e-01  9.0830639357697818e-01  9.0475602720767301e-01  8.9556569818301446e-01  9.0827387730843201e-01  9.0480837070403819e-01  8.9559047348522502e-01  9.0826620889629817e-01  9.0489457504946080e-01  8.9563665998009034e-01  9.0829170961484362e-01  9.0500765817608708e-01  8.9570027596817536e-01  9.0835120276564651e-01  9.0513213372632351e-01  8.9576588918186650e-01  9.0845796110394483e-01  9.0524766941023993e-01  9.0452347538334010e-01  9.0449825003621487e-01  9.0445645835862232e-01  9.0443044408098627e-01  9.0443470293292938e-01  9.0447399893897074e-01  9.0454955170401696e-01  9.2385056287602407e-01  9.3553098563644088e-01  9.3550730085708012e-01  9.2381843331370317e-01  9.3552923874269800e-01  9.2378899169694395e-01  9.3562926753012365e-01  9.2380738007769081e-01  9.3497006582108777e-01  9.3580748038406847e-01  9.2388482489436574e-01  9.3511051650484356e-01  9.3606228023916149e-01  9.2402704905852562e-01  9.3532837325155915e-01  9.3639100422326493e-01  9.2424025843081414e-01  9.3562318079759743e-01  9.4558207263560434e-01  9.4506521262604370e-01  9.4504164243335054e-01  9.4555842933848400e-01  9.4505494194874196e-01  9.4557543783484765e-01  9.4514993362777466e-01  9.4567718523481681e-01  9.2320748492124183e-01  9.2319176401300040e-01  9.2323289262339026e-01  9.2334585076335096e-01  9.4561919937153316e-01  9.4559658542878078e-01  9.4559570381734881e-01  9.4567169278198426e-01  9.4587243070812366e-01  9.4584298500930719e-01  9.4616883231590954e-01  9.4612999230278183e-01  9.4657727246890433e-01  9.4658168258847952e-01  9.1464036449091801e-01  9.1462201100844531e-01  9.1461163557502001e-01  9.1463720164897344e-01  9.1470600107711020e-01  9.1481586349372346e-01  9.1496184679350367e-01  8.8436407245820059e-01  8.8393436328813124e-01  8.8393305679758571e-01  8.8439964462758869e-01  8.8397903185536086e-01  8.8446332102049108e-01  9.1106492138231088e-01  9.0311038695565760e-01  9.1341346308647708e-01  9.1339414570333599e-01  9.0308414771840029e-01  9.1104829181163682e-01  9.1336311328805575e-01  9.0302947959468971e-01  9.1101587852542576e-01  9.1336232102640980e-01  9.0298621782245936e-01  9.1100425023451392e-01  9.1340359723603237e-01  9.0297249092380949e-01  9.1102944700882948e-01  9.1349197909535984e-01  9.0299864127570140e-01  9.1109982028892689e-01  9.1363433444578201e-01  9.0307832801327914e-01  9.1121950767270443e-01  9.5535569757194783e-01  9.5530885523363640e-01  9.5528816355317692e-01  9.5535459701574488e-01  8.9344758115678213e-01  8.9341701542554341e-01  8.9349186474188513e-01  8.9354521535108178e-01  9.5524173810273338e-01  9.5522814580915194e-01  9.5525378377583847e-01  9.5536958746667344e-01  9.5559089596051527e-01  9.5593656835801111e-01  9.5642299170415590e-01  9.5586058064285695e-01  9.5582817143801468e-01  9.5581916186353122e-01  9.5590053360740068e-01  9.5609206280367465e-01  9.5642324887905095e-01  9.5692599989699412e-01  8.9211011117734906e-01  8.8477804285542405e-01  8.9346539984281659e-01  8.9346654641511591e-01  8.8484892022193029e-01  8.9211590994791790e-01  8.9349159084474705e-01  8.8493147906368097e-01  8.9214939553224915e-01  8.9355120249771691e-01  8.8500999347753773e-01  8.9221820571006782e-01  9.4169757310945179e-01  9.5080500273684421e-01  9.4190585758468992e-01  9.4194866075415962e-01  9.5081530538272663e-01  9.6526852032626753e-01  9.6529522160029990e-01  9.6543442071701224e-01  9.6568508659165209e-01  9.6604322345530846e-01  9.6650414462163714e-01  9.6704183713413538e-01  9.8340059623738996e-01  9.8313614252108195e-01  9.7564845061332506e-01  9.7567305585505082e-01  9.8315810910921542e-01  9.8340718822631135e-01  9.7580472308994093e-01  9.8324819606567559e-01  9.8345864608124900e-01  9.7604732675723882e-01  9.8343035828077729e-01  9.8360427168227416e-01  9.7640802876257660e-01  9.8372634029940231e-01  9.8387253024575549e-01  9.7689813762172684e-01  9.8417163780016559e-01  9.8429892969180843e-01  9.7755831406759541e-01  9.8483066948812759e-01  9.8495546350960794e-01  9.3884097917480613e-01  9.2910341833199528e-01  9.3093318883519527e-01  9.3094338658997466e-01  9.2912345243085548e-01  9.3885453803223295e-01  9.3100698258526116e-01  9.2919509193130001e-01  9.3892127588817376e-01  9.3113959118595291e-01  9.2932909762534732e-01  9.3906435952789613e-01  9.3134365323270185e-01  9.2953327307259626e-01  9.3929506069452395e-01  9.3161862785220795e-01  9.2980953388193011e-01  9.3962002675815792e-01  9.3197499239852222e-01  9.3015856989400958e-01  9.4004822530224408e-01  9.2457204262974713e-01  9.2455314449254800e-01  9.2456258967469196e-01  9.2462736364292220e-01  9.2475089649733833e-01  9.2492781407991254e-01  9.2515268266295858e-01  8.9215337876161438e-01  8.9352121491064829e-01  8.9212653612461412e-01  8.9348635624040096e-01  9.1768157712404219e-01  9.0697297494282847e-01  9.1868202734210203e-01  9.1868367382321259e-01  9.0698150234820052e-01  9.1766414111105976e-01  9.1870396002711119e-01  9.0702636979058171e-01  9.1765393531485129e-01  9.1876495378420719e-01  9.0710717360419357e-01  9.1768336556154761e-01  9.1887978694906025e-01  9.0721829288700484e-01  9.1776213740059309e-01  9.1905896820607613e-01  9.0734648189349421e-01  9.1789507600648668e-01  9.1931571205907991e-01  9.0746917997715049e-01  9.1809631452544282e-01  9.0916200974749561e-01  9.0916207700219620e-01  9.0919075009075123e-01  9.0925596417344845e-01  9.0935585949429298e-01  9.0948106058062461e-01  9.0962007636314901e-01  9.6610784032530539e-01  9.5662411731244290e-01  9.6613214214390042e-01  9.6613974078330533e-01  9.5661581204918289e-01  9.6613967464183381e-01  9.6623242981127300e-01  9.5665143533153896e-01  9.6627266587006599e-01  9.6643555291603833e-01  9.5678076642311660e-01  9.6651480417424029e-01  9.6675595960516836e-01  9.5701967342706495e-01  9.6686966292668808e-01  9.6719965534418384e-01  9.5738552248070086e-01  9.6734098173274707e-01  9.6777073103092459e-01  9.5789781540317365e-01  9.6791498033969481e-01  8.9341798467984335e-01  8.9777929765094555e-01  8.9778264260311902e-01  8.9341033668619774e-01  8.9780752933425123e-01  8.9340539888818160e-01  8.9785698121823387e-01  8.9792621395288286e-01  8.9800327090427101e-01  8.9806879930735872e-01  9.2896088256618048e-01  9.2900239166486998e-01  9.2898759449150836e-01  9.2893976481799545e-01  9.2897181428858522e-01  9.2891724822312449e-01  9.2900435880987464e-01  9.2894677225773681e-01  9.2911173201419506e-01  9.2905279436731136e-01  9.2931633842245398e-01  9.2926027356299967e-01  9.2965218624479762e-01  9.2960182938953784e-01  9.9050082658404026e-01  9.9203799063182763e-01  9.9206740938451965e-01  9.9053938646061956e-01  9.9216620353509277e-01  9.9063700023284873e-01  9.9234284629516079e-01  9.9079470387712876e-01  9.9260490027223791e-01  9.9104293089391715e-01  9.9299903161120429e-01  9.9143279502674975e-01  9.9364222870095409e-01  9.9201887747479178e-01  9.9999999999978118e-01  9.9212852956770403e-01  9.9154663630385975e-01  9.9159264973641703e-01  9.9217459047273948e-01  9.9999999999978118e-01  9.9166949525473824e-01  9.9227660199031131e-01  9.9999999999978118e-01  9.9180058735513188e-01  9.9243891686467545e-01  9.9999999999978118e-01  9.9202084893675624e-01  9.9268848207569194e-01  9.9999999999978118e-01  9.9239319134455817e-01  9.9307274005415824e-01  9.9999999999978118e-01  9.9302897141866664e-01  9.9368894301593447e-01  9.9999999999978118e-01  9.7450163203747009e-01  9.7452668505427398e-01  9.7464469897859463e-01  9.7486887963723812e-01  9.7521361296858944e-01  9.7569695557160607e-01  9.7633520304322730e-01  9.7419726046514910e-01  9.7401851613616808e-01  9.6454369901448445e-01  9.6454619589841406e-01  9.7408438609525649e-01  9.7426078974214825e-01  9.6462023208554704e-01  9.7430258040759365e-01  9.7445855777054446e-01  9.6480138596391984e-01  9.7464485987616578e-01  9.7477833021287696e-01  9.6508967948114976e-01  9.7509789332532304e-01  9.7520943648099967e-01  9.6548866158614255e-01  9.7565151318235066e-01  9.7575406232553008e-01  9.6600318005409280e-01  9.7625704009678871e-01  9.7640832616838580e-01  9.1672299504952282e-01  9.1672093945300182e-01  9.1673660866409834e-01  9.1679526379119680e-01  9.1690035589379359e-01  9.1704902229953322e-01  9.1723827128670443e-01  9.9999999999978118e-01  9.9140900216511374e-01  9.9150031202969213e-01  9.9157781511563592e-01  9.9143293496761242e-01  9.9999999999978118e-01  9.9172195472798297e-01  9.9147895177557044e-01  9.9999999999978118e-01  9.9191815758150303e-01  9.9158738523808532e-01  9.9999999999978118e-01  9.9218200435474557e-01  9.9179098954617773e-01  9.9999999999978118e-01  9.9258065863082190e-01  9.9215170538260911e-01  9.9999999999978118e-01  9.9319991327102153e-01  9.9284119801574677e-01  9.9999999999978118e-01  9.3849017902024301e-01  9.3811946562927573e-01  9.3811313806545904e-01  9.3849001089447459e-01  9.3812877864359201e-01  9.3852776607438604e-01  9.3821062116203369e-01  9.3863987412864969e-01  9.3838348561211493e-01  9.3884460295244077e-01  9.3866769347148049e-01  9.3915702371825083e-01  9.3908261180200558e-01  9.3958910410925445e-01  8.8667091780787599e-01  8.9744982584011412e-01  8.9744435789934274e-01  8.8665998690971459e-01  8.9744788379505958e-01  8.8662824477829072e-01  8.9747197025351311e-01  8.8660198308801241e-01  8.9751528532500957e-01  8.8659280862509160e-01  8.9756934214339645e-01  8.8660728382791498e-01  8.9762479468887812e-01  8.8665759987598791e-01  9.6824605423224341e-01  9.6798564873258042e-01  9.5963281718585003e-01  9.5966287366435454e-01  9.6801955016820196e-01  9.6830324062335305e-01  9.5977328822915553e-01  9.6815032505831877e-01  9.6848707929932376e-01  9.5998644174844694e-01  9.6839552104467352e-01  9.6879010794259413e-01  9.6031323284521175e-01  9.6875798132938840e-01  9.6920975509840490e-01  9.6075850716284039e-01  9.6923963192983376e-01  9.6974004344534437e-01  9.6132450235140943e-01  9.6985059646564886e-01  9.7036596069267200e-01  9.8370579061952856e-01  9.7495283682492384e-01  9.8340793236128765e-01  9.8344750309868212e-01  9.7499008496836104e-01  9.8372324298272906e-01  9.8358569692518316e-01  9.7513609512270449e-01  9.8379760932760196e-01  9.8382432816705323e-01  9.7539260505326941e-01  9.8396322206467535e-01  9.8417300901026339e-01  9.7576874411509806e-01  9.8424842392711653e-01  9.8465840919361325e-01  9.7627423422117976e-01  9.8468941087938933e-01  9.8532501007851014e-01  9.7692143847423674e-01  9.8533985696500848e-01  8.9216848136401761e-01  9.5580767405363898e-01  9.5577986784845537e-01  9.5577576175035661e-01  9.5586036645705363e-01  9.5605181380110404e-01  9.1884612746240479e-01  9.1884337885608303e-01  9.1886449825572880e-01  9.1893131054956922e-01  9.1904805422994562e-01  9.1921413543228347e-01  9.1941833788239657e-01  9.9319060114130941e-01  9.9999999999978118e-01  9.9999999999978118e-01  9.7600514816973916e-01  9.7570483985210299e-01  9.6745565348112494e-01  9.6751405993962314e-01  9.7572924726399146e-01  9.7606646563183563e-01  9.6771440170992484e-01  9.7585273853036170e-01  9.7627256824261244e-01  9.6804023415366447e-01  9.7609929554561503e-01  9.7660503901106832e-01  9.6847660314615680e-01  9.7646367109586329e-01  9.7704727680155801e-01  9.6901110924880063e-01  9.7695109492257792e-01  9.7758667107451369e-01  9.6963356340327711e-01  9.7759408378671619e-01  9.7820929254140121e-01  9.2767429484447639e-01  9.2767979226841668e-01  9.2771659254232941e-01  9.2780858513650277e-01  9.2797055765564007e-01  9.2821404110100147e-01  9.2854412416699850e-01  8.8762119456979027e-01  8.9934441960250500e-01  8.9934756491595946e-01  8.8762040696678068e-01  8.9936695194524963e-01  8.8762531031612757e-01  8.9941011819231509e-01  8.8764462454235726e-01  8.9947249789565098e-01  8.8767674427915255e-01  8.9954267034790125e-01  8.8771523528680651e-01  8.9961381625850023e-01  8.8775631495006768e-01  9.7674084481943491e-01  9.7693221002408404e-01  9.7697991151992236e-01  9.7680426971843914e-01  9.7713435312969965e-01  9.7700232226309247e-01  9.7740815508654000e-01  9.7732487861713246e-01  9.7780202948940698e-01  9.7776887368583321e-01  9.7831743049133879e-01  9.2794285303863178e-01  9.3757942335014288e-01  9.3757997492994249e-01  9.2793500616725211e-01  9.3764823538532460e-01  9.2796003122352899e-01  9.3779909661107230e-01  9.2804978072909439e-01  9.3803311753133689e-01  9.2820580633020011e-01  9.3834954304776674e-01  9.2842693252890063e-01  9.3873262653344725e-01  9.2871372595521118e-01  9.4633853445340166e-01  9.3667762106551244e-01  9.4648549706839447e-01  9.4646611230888944e-01  9.3665902679464030e-01  9.4633380858543292e-01  9.4647223543301107e-01  9.3666545975789617e-01  9.4636578736325194e-01  9.4655501261573227e-01  9.3674222677229113e-01  9.4647933279841434e-01  9.4673776970746015e-01  9.3690406063825538e-01  9.4669067435388365e-01  9.4704536517330085e-01  9.3716950235671592e-01  9.4702396509829778e-01  9.4751116319028783e-01  9.3756414997174931e-01  9.4751100138968680e-01  9.9999999999978118e-01  9.9999999999978118e-01  9.9999999999978118e-01  9.9999999999978118e-01  9.9999999999978118e-01  9.9999999999978118e-01  9.9999999999978118e-01  9.3992841223943702e-01  9.3996601123761636e-01  9.4007884466313774e-01  9.4027556112684896e-01  9.4056149896653096e-01  9.4093858230692173e-01  9.4140983481098295e-01  9.9999999999978118e-01  9.9192873880785115e-01  9.9199360045549689e-01  9.9999999999978118e-01  9.9213131166056845e-01  9.9999999999978118e-01  9.9233817247825973e-01  9.9999999999978118e-01  9.9261993756166655e-01  9.9999999999978118e-01  9.9302613139494611e-01  9.9999999999978118e-01  9.9368137246698074e-01  9.9999999999978118e-01  9.6592517572638326e-01  9.7506757205008643e-01  9.7510412029529292e-01  9.6594484186924778e-01  9.7526931421403396e-01  9.6605711361844526e-01  9.7555634835703986e-01  9.6628120359099701e-01  9.7595968566030256e-01  9.6662254148885962e-01  9.7647634750771795e-01  9.6708284853458115e-01  9.7709936994708602e-01  9.6766087487944319e-01  9.9195209467010415e-01  9.9249710508173683e-01  9.8471591167350891e-01  9.8477747176859720e-01  9.9255045178900592e-01  9.9198216579691390e-01  9.8496853219456337e-01  9.9268508011909240e-01  9.5818878750098246e-01  9.4858389240938090e-01  9.4861029205064029e-01  9.5818656557172555e-01  9.4871324614667374e-01  9.5823123443622493e-01  9.5086598404423572e-01  9.4890706954236159e-01  9.5837230094244774e-01  9.5100176744399179e-01  9.4920497607328236e-01  9.5862840651203107e-01  9.5124492787738901e-01  9.4961667242046710e-01  9.5901253808033327e-01  9.5161698239640435e-01  9.5014291543596763e-01  9.5954460845874345e-01  8.7731800848993280e-01  8.8896476837843974e-01  8.8898608829657078e-01  8.7733612791627114e-01  8.8903416198550267e-01  8.7752070978089114e-01  8.8917744236401519e-01  8.8925055733807579e-01  8.7758612324286533e-01  8.8930332546128965e-01  8.7762882327079283e-01  9.8375243135128965e-01  9.8383445051132334e-01  9.8404229705092694e-01  9.8435738183503774e-01  9.8477973336335001e-01  9.8532488498502235e-01  9.8600283489408092e-01  9.4811893289655802e-01  9.4882580623953938e-01  9.4882775210725390e-01  9.4811559944669710e-01  9.4886163608117957e-01  9.4816624716544917e-01  9.4897864678275212e-01  9.4830969392974851e-01  9.4919934580278664e-01  9.4855631013535890e-01  9.4954335298326342e-01  9.4891336541266358e-01  9.5004379035726949e-01  9.4938991201649892e-01  9.9238983555576132e-01  9.9255747521425586e-01  9.8490520616152122e-01  9.8498093797184483e-01  9.9264107506970345e-01  9.9246867147579265e-01  9.8519855114198818e-01  9.9284610744434132e-01  9.9263953416949224e-01  9.8553197271121717e-01  9.9312935093315180e-01  9.9287671462615512e-01  9.8597333820509692e-01  9.9348082677889304e-01  9.9319169704998933e-01  9.8653097584655114e-01  9.9393423361311584e-01  9.9363309411288425e-01  9.8720674329073210e-01  9.9462098932990395e-01  9.9430350311712956e-01  9.8273099895037841e-01  9.8276011089232673e-01  9.8286253986288441e-01  9.8305339847573392e-01  9.8335876829043700e-01  9.8381792373326915e-01  9.8446456078279987e-01  9.8424917311934312e-01  9.8373114213160817e-01  9.8381777880710308e-01  9.8432484599139836e-01  9.8406939295949059e-01  9.8453815127090671e-01  9.8443822918305979e-01  9.8486061062958352e-01  9.8491200594216355e-01  9.8528636266231884e-01  9.8548995648385762e-01  9.8582913556384277e-01  9.8615860098294950e-01  9.8651040080353669e-01  9.6727333716082220e-01  9.6733171765124992e-01  9.6753973460189802e-01  9.6786742366218526e-01  9.6830638342993403e-01  9.6884029666614113e-01  9.6940765809163720e-01  9.7605800157364231e-01  9.7608673633946774e-01  9.7621663668156278e-01  9.7646670884338049e-01  9.7683307370936501e-01  9.7731804657368893e-01  9.7793163937655725e-01  9.7896263721084020e-01  9.4741664439123008e-01  9.4742239773882686e-01  9.4748010552847450e-01  9.4762369877334895e-01  9.4786958291602696e-01  9.4822792989945837e-01  9.4870750942597959e-01  9.5720152995148111e-01  9.5720395615020581e-01  9.5728325303104256e-01  9.5746354916918064e-01  9.5775659999603202e-01  9.5816906557333947e-01  9.5869453903156088e-01  9.5677569704075849e-01  9.6658437864412594e-01  9.6660889648193515e-01  9.5677907720651856e-01  9.5684404128582590e-01  9.6674309615343079e-01  9.5701167937653342e-01  9.6699505894232962e-01  9.5728989940222686e-01  9.6736083631346736e-01  9.5768569012633853e-01  9.6783418375216301e-01  9.5821273117767480e-01  9.6841024633792139e-01  9.2903864762396404e-01  9.1929799943147184e-01  9.1930262501280213e-01  9.2903967590352410e-01  9.1933309697529997e-01  9.2907025120698594e-01  9.1940904439394977e-01  9.2915994793041301e-01  9.1953935635316064e-01  9.2932492339720918e-01  9.1972899919828344e-01  9.2957759432211751e-01  9.1998234724905070e-01  9.2993494484425487e-01  9.5760473860705542e-01  9.5764361326003911e-01  9.5779609024800783e-01  9.5805813705215348e-01  9.5842740176568142e-01  9.5889583363009279e-01  9.5943674330930229e-01  9.8269337667551959e-01  9.8275783594454236e-01  9.8294064654383784e-01  9.8322321775212718e-01  9.8361652929854460e-01  9.8414681868058052e-01  9.8487718037513905e-01  9.3709551017937076e-01  9.3868831419746968e-01  9.3868336664025120e-01  9.3708577930535453e-01  9.3709916584447650e-01  9.3870815715841660e-01  9.3717799708853611e-01  9.3880280681874828e-01  9.3734328612815088e-01  9.3898827202154111e-01  9.3761569124545585e-01  9.3928388336897239e-01  9.3802282741802523e-01  9.3971476349392002e-01  9.2060365122326493e-01  9.3301539754438012e-01  9.3306275188122534e-01  9.2061276532686620e-01  9.2066113706936370e-01  9.3320275189314805e-01  9.2075610477017333e-01  9.3342105629523586e-01  9.2090247466911346e-01  9.3371260978406589e-01  9.2109963359867342e-01  9.3406291311587042e-01  9.2134322855079498e-01  9.3444691963564996e-01  9.5947820703926989e-01  9.5951814787904077e-01  9.5966583760972279e-01  8.9204023974885127e-01  9.0278868122452072e-01  9.0131227814138770e-01  9.0125365190862472e-01  9.8458007751630761e-01  9.8462962893208272e-01  9.8478698512794483e-01  9.8505700757122561e-01  9.8544374282364944e-01  9.8596681110644901e-01  9.1011981935753106e-01  9.1012014557538012e-01  9.1012943163400128e-01  9.1016695738209330e-01  9.1024138005615829e-01  9.1035371513174590e-01  9.1050973651968214e-01  9.5834442197058123e-01  9.5834031552005372e-01  9.5839091793573150e-01  9.5854608699924315e-01  9.5881561720038300e-01  9.5920990321962096e-01  9.5973211269628511e-01  9.5636730644160728e-01  9.5682997009674908e-01  9.6505236055392929e-01  9.7461505134500126e-01  9.6487839534409203e-01  9.7507994322134006e-01  9.6533542517469373e-01  9.7563082824079661e-01  9.6572728290433874e-01  9.7622063101493051e-01  9.6621453723638073e-01  9.7636358544492363e-01  9.8448154403190236e-01  9.8454806786743987e-01  9.7641525419034747e-01  9.2001625188818092e