<?xml version="1.0"?>
<VTKFile type="UnstructuredGrid"  version="0.1"  >
<UnstructuredGrid>
<Piece  NumberOfPoints="963" NumberOfCells="4059">
<Points>
<DataArray  type="Float64"  NumberOfComponents="3"  format="ascii">4.962784031710258 1.293045238675167 1.490551399308133  5.105886206246026 1.331693092184997 1.462177062742162  5.055082997187112 1.226162325459813 1.567558455624586  4.966610660549288 1.248503110515437 1.446405362401406  5.108774075814583 1.286803856881697 1.417618717373047  5.060253048729423 1.175310018832864 1.529138153213091  5.065426033657087 1.124467847239486 1.490731843009584  5.111621026850292 1.241921492504202 1.373058788594523  4.970440606088959 1.203962354472619 1.402261890831803  5.114455259866244 1.197037019583796 1.32849412604692  4.974276024554077 1.159419033082869 1.358119209772663  5.070599503634564 1.07363815742558 1.452339529027189  5.117296298941304 1.152148254223819 1.28392678357191  4.978125719527868 1.114872207586361 1.313979038325401  5.075778711794074 1.022818722008378 1.413960806182099  5.12016219722773 1.107254660765508 1.239358268704936  4.982005100079654 1.07031981843913 1.269840337600471  5.0809693432266 0.9720097422042466 1.375596551165643  5.123085246542178 1.062354715158384 1.194787122735284  4.985919124786845 1.025764160161407 1.225700351416196  5.086175052418638 0.9212059760869394 1.337235187417911  5.306936773862561 1.478147184569765 1.342841744257135  5.431646300963628 1.539833854688553 1.310323694592891  5.400766854091552 1.40466668143374 1.407392983621027  5.404577285737751 1.363377709249192 1.360540218522222  5.435343759281626 1.50589843016073 1.259326954007451  5.309762481715098 1.441763228210676 1.29259593157693  5.439047439923111 1.471998454666813 1.208264453448424  5.312569692568461 1.405413320850734 1.242307684035264  5.408339641300547 1.322074892714629 1.313660384580059  5.442755857182456 1.438106238532473 1.15716862799821  5.315368495685066 1.369070552676681 1.191996008419319  5.412092523509864 1.280770377697097 1.266761905432902  5.446460644612246 1.404202857272767 1.106062523066131  5.318166072780261 1.332717195934646 1.141676642876013  5.415841912696975 1.239455189291636 1.219856284407288  5.419598172461962 1.198126030321218 1.172948800066714  5.45015173616558 1.370266575010157 1.054946109700851  5.320963960355313 1.296340362589517 1.091359420388516  5.423404409227358 1.156779988912746 1.12603296664226  5.453838472825557 1.336274895297523 1.003821693869088  5.323765913469516 1.259934416402939 1.041043517707271  5.566766002724495 1.144823603117242 1.816405754110598  5.519953705433203 1.20487383832047 1.678270835802572  5.659319875850104 1.188117128223023 1.730200451804818  5.665949590037132 1.13219157317234 1.701581666106229  5.525185478883181 1.14992015942403 1.647659729030212  5.572453771992858 1.086465730737662 1.793226259957517  5.578130107379636 1.028096289102976 1.770038175130706  5.530371670483865 1.094955454272502 1.617016060807108  5.672579640539618 1.076272009661317 1.672933106757287  5.583806812010304 0.9697264103098755 1.746840156846531  5.535543811375545 1.039984193657171 1.586354801953545  5.679221305316328 1.020371565535936 1.644273010081553  5.589477909980356 0.9113549812895434 1.723645167683951  5.540713880182842 0.985008418236775 1.555694042196977  5.685857562706119 0.9644784403121364 1.61562602517811  5.545901301239079 0.9300227150736777 1.525046305186628  5.59513436583499 0.852978163243497 1.700472729196797  5.692485084527492 0.9085852061034614 1.587015870768711  5.551151034743182 0.8750274773498782 1.494412865701651  5.600794952215168 0.7946030235738967 1.677322880369505  5.69912709241704 0.8526813568669636 1.558431503903338  5.755497550682214 1.269757884438477 1.622533513531514  5.816670473971783 1.205905608718916 1.740783904975435  5.825031166646473 1.150860053679428 1.711412663378449  5.764020125239694 1.218327730389087 1.587885319636424  5.772676340763902 1.166923705773865 1.553178461649709  5.833528602659278 1.095842085152632 1.681995365691325  5.781389435926479 1.115531000680428 1.518455007776412  5.842085584189857 1.040844083440466 1.652561648931696  5.790096385313126 1.064133399166551 1.483734948979564  5.850631090535593 0.9858531971026894 1.623137913773353  5.79874720795094 1.012708850012136 1.449028115058556  5.859098304603876 0.9308458066415936 1.593736672956307  5.807306168591518 0.9612343566170012 1.414339932020516  5.86744862309561 0.8757937975145894 1.564345404684406  5.33204490065163 1.614748419589395 1.257228293324342  5.333642099550859 1.584964682393244 1.203991965554464  5.335190505315893 1.555242016790885 1.150699222439327  5.336728666230154 1.525543900374834 1.097393922246076  5.338269028384456 1.495841299716868 1.044090441684546  5.339825105662951 1.466109908257085 0.9907956399605546  5.341433564098487 1.436316771319978 0.9374989314777495  6.074428483299853 0.7766385584809929 1.918443101667992  5.925987740935224 0.7752203321688156 1.838001644721619  5.94403623416447 0.7436841604626825 1.993408347077047  5.918834637141731 0.8356676656771582 1.854092873540234  6.065940599758904 0.8374442511611342 1.932541282508768  4.787693440728455 1.436447479447946 1.355640162527779  4.830497983474356 1.572337287926745 1.2736277708947  4.926644668154853 1.494254832607077 1.324823313562851  4.927832935987353 1.461287226502877 1.27328216614505  4.830756441263663 1.543221733039629 1.220913930511865  4.788520141165895 1.402032942557866 1.30524580768972  4.831018360987263 1.514153581166387 1.168184327001157  4.789346081729216 1.367648299097623 1.254849221064963  4.929027081085 1.428359626546463 1.221724580321171  4.83129040867338 1.485106366858153 1.115458943399509  4.790180301342728 1.333278920166104 1.204459147314449  4.930227405559791 1.395446593314772 1.170156797965787  4.831583443766472 1.456060727461989 1.06274691280107  4.791036846968423 1.298913649617526 1.154083414909672  4.931444216305365 1.362529824733585 1.118588148315609  4.831910241787657 1.427000967022855 1.010055848612902  4.791927751916715 1.26454456938041 1.103729924359624  4.932686171432285 1.329594088075648 1.067023231685432  4.832282564658055 1.397908815165248 0.9573869403834606  4.792851752131771 1.230161720837338 1.053402848478583  4.933965118983044 1.296635857738522 1.015470796075812  5.171125022811538 1.429888521515019 1.370256988936925  5.216201173603949 1.5509160562385 1.294404773418304  5.217446650841084 1.51917185163024 1.241755065549029  5.173300166466981 1.391455323499158 1.320688782849318  5.218638448080887 1.48746308857271 1.189064176453246  5.175443536236454 1.353044802683935 1.271099564220215  5.219816381788388 1.455768944026552 1.136351827105771  5.177578704429863 1.314647000104831 1.221504597734663  5.220999216128579 1.424068378702237 1.083631784018967  5.179717507624792 1.276245643303266 1.171912062337273  5.222202940734553 1.392341441413047 1.030908418385676  5.181867454075801 1.237829008976737 1.122327494442936  5.223450971797213 1.360572783673362 0.9781872400583276  5.184029451526749 1.199391600209823 1.072741894483392  4.521699093011561 1.336384517175364 1.426312969540766  4.548296575851487 1.477802084241364 1.332780473565915  4.630663416280589 1.39442559020313 1.386090687854869  4.630926218280991 1.359584570058795 1.336691303031176  4.548058071927147 1.446474811350566 1.282222868570016  4.522799053001047 1.300698242651329 1.37729649728751  4.631154797712894 1.324761375524808 1.28729075373025  4.547819399319086 1.415181185140818 1.231656075651154  4.523892782487411 1.265011480807512 1.328277247651675  4.631383970107303 1.289948006144904 1.237893082119096  4.547584012396515 1.383899656570211 1.1810974388836  4.52499134739938 1.229323155845947 1.279266972524062  4.63163353781747 1.255136644861361 1.188505976107678  4.547367224871515 1.35261977043969 1.130552802256114  4.526110645258393 1.193633445632494 1.230269191029828  4.631920802885868 1.220325459835987 1.139135331425684  4.547179725783539 1.321335118643629 1.080026024357529  4.527256836186196 1.157943682643273 1.181279207644883  4.632269781583143 1.185513672245597 1.089786131280614  4.547017457747481 1.29003667535477 1.029529714056477  4.528407702040468 1.122256678228796 1.132292572569268  5.743490794359405 1.150927521775793 1.846512203317038  5.883639684884012 1.16859939043848 1.834519173997916  5.891548708587728 1.110822310197819 1.81021100977658  5.749840268317966 1.09202857103592 1.825293115801425  5.756177318168287 1.033116023239252 1.80403374464408  5.899540180835147 1.053064684972929 1.785838415056634  5.762522859606936 0.974211378222761 1.782747915145824  5.907573048535892 0.9953433129717496 1.761451551475385  5.768873996278875 0.9153087387469154 1.761464726078013  5.915600317581638 0.937636915901226 1.737080366179789  5.775239304169983 0.8563987582069563 1.740208020821724  5.923589592463903 0.8799259920364467 1.71274725865428  5.781633232924776 0.7974690875339097 1.718998943887031  5.931544600021335 0.8221696009455606 1.688462782208694  5.009799864646597 1.415318532507922 1.37583852135269  5.011602369599272 1.376513607457877 1.326889699122215  5.013376009030097 1.337737620363916 1.27792445345651  5.015146345669648 1.29897360089677 1.2289617193855  5.016931712761727 1.260212055685672 1.180005639015293  5.018753666588062 1.221448833730375 1.131059777440227  5.020642304415982 1.182662913791315 1.082126049888209  5.17475973685284 1.262061136331378 1.541045113618986  5.257574274358129 1.357682085655226 1.443759722424068  5.295187253856896 1.245095836295718 1.575879035019611  5.2994123055227 1.193053730337563 1.53959890397133  5.260639071597836 1.313084590248081 1.39941822435555  5.179363841939786 1.21291398613239 1.500703683511309  5.18395671092665 1.163770438972408 1.460370905629114  5.263633032129657 1.268469248065807 1.35505536676576  5.303589449950363 1.141000967673911 1.503321529325372  5.188540300055253 1.114626381554183 1.420040010927942  5.266601790349345 1.223851066833398 1.310678180074824  5.307751528420413 1.088951923255923 1.467043418691633  5.311906092685938 1.036902
[...]
<PointData  Scalars="f_14"> 
<DataArray  type="Float64"  Name="f_14"  format="ascii">6.1987671149471957e-01  6.0804846778206845e-01  6.1210686150771343e-01  6.1985861840713652e-01  6.0805514727206644e-01  6.1207984840944252e-01  6.1202751661638366e-01  6.0807941665402743e-01  6.1980550528724465e-01  6.0810398197056392e-01  6.1972821775744680e-01  6.1195916963715902e-01  6.0812038516797262e-01  6.1962971544863099e-01  6.1188234395679764e-01  6.0811944458158507e-01  6.1951033017265833e-01  6.1180201104336140e-01  6.0808087705657587e-01  6.1937848603854717e-01  6.1171370637174782e-01  5.9103141128411274e-01  5.8015306139208644e-01  5.8318754716502519e-01  5.8320612489744039e-01  5.8016287672458811e-01  5.9104276292255442e-01  5.8018429522445392e-01  5.9106187955232048e-01  5.8326212230939112e-01  5.8021877753642237e-01  5.9109195064783659e-01  5.8333463974740851e-01  5.8026309188024638e-01  5.9112999343078843e-01  5.8341425582164819e-01  5.8348996123058627e-01  5.8031625596208547e-01  5.9117609670896354e-01  5.8354060209921255e-01  5.8037748251518151e-01  5.9123764830225456e-01  5.6943811189186599e-01  5.7341507230867861e-01  5.6158466407556218e-01  5.6158873295067946e-01  5.7344405656467734e-01  5.6945095053483408e-01  5.6950170089529817e-01  5.7351260950428529e-01  5.6161940436510571e-01  5.6957230178093776e-01  5.7360211627039803e-01  5.6165993695339844e-01  5.6964890751606001e-01  5.7369677610613135e-01  5.6170337683975380e-01  5.7378077442679776e-01  5.6972002893896645e-01  5.6174066864374284e-01  5.7383385876673298e-01  5.6977263096946351e-01  5.6176596501149689e-01  5.5289338083023742e-01  5.4794942603083407e-01  5.4794279932540446e-01  5.5289063938101535e-01  5.5288211590902159e-01  5.4793195184699917e-01  5.5287451291237844e-01  5.4792354091580853e-01  5.5287559263760966e-01  5.4791947233278537e-01  5.5289153128898205e-01  5.4792474212890152e-01  5.5292013473300428e-01  5.4793879767436893e-01  5.8867862150090811e-01  5.8869877936091553e-01  5.8875301478404662e-01  5.8882272826063231e-01  5.8889595369358849e-01  5.8896104872199062e-01  5.8900474467486408e-01  5.3038601265262464e-01  5.4271345737077259e-01  5.4099601072447157e-01  5.4272605075044900e-01  5.3043135459249680e-01  6.3486255767711930e-01  6.3128076509789555e-01  6.2310147451797460e-01  6.2309005158834574e-01  6.3127695367213132e-01  6.3485638767557584e-01  6.3125416799249701e-01  6.3483382644808384e-01  6.2305679507104605e-01  6.3120938082390665e-01  6.3479059532119886e-01  6.2300318691052070e-01  6.3113697032255855e-01  6.3471955552215720e-01  6.2292430141218402e-01  6.3103020643558971e-01  6.3461421190554035e-01  6.2281636480001323e-01  6.3088331225890626e-01  6.3447185392029093e-01  6.2268055363746300e-01  6.0259848821929329e-01  5.9868375595117040e-01  5.9870100531347714e-01  6.0260948857854912e-01  5.9874501248479972e-01  6.0262992337468357e-01  5.9879767738284762e-01  6.0265360790115274e-01  5.9885118758566691e-01  6.0267642622378337e-01  5.9890018643230902e-01  6.0269906087664327e-01  5.9893881176148056e-01  6.0273065559064409e-01  6.5737843311416033e-01  6.5531549268911438e-01  6.4820426040812840e-01  6.4820074782196979e-01  6.5530409151090296e-01  6.5736375826687687e-01  6.4820891788670731e-01  6.5527510991679083e-01  6.5731812708097859e-01  6.4820456679467697e-01  6.5523139521463269e-01  6.5724949130428767e-01  6.4818009069250138e-01  6.5517247988145400e-01  6.5716778661361119e-01  6.4812744287046875e-01  6.5509964624750527e-01  6.5708493498774589e-01  6.4803154380367911e-01  6.5501612378006135e-01  6.5701820557641799e-01  5.5446921932865045e-01  5.4240396981535244e-01  5.4241405827447819e-01  5.5449382540341963e-01  5.5455474113205716e-01  5.4244834259502850e-01  5.5462631475474289e-01  5.4248170632776582e-01  5.5469314359783872e-01  5.4251079210456121e-01  5.5473985767585399e-01  5.4252714107488920e-01  5.5475642011410486e-01  5.4250994893046744e-01  6.1612905242931115e-01  6.1612383074465626e-01  6.1611864585950815e-01  6.1610224446045481e-01  6.1606477510435964e-01  6.1599500054086420e-01  6.1588555192577532e-01  6.0223129730121816e-01  5.9539555783820464e-01  5.9227239982297253e-01  5.9229551240348655e-01  5.9541025139339177e-01  6.0222072021157458e-01  6.0220409099798267e-01  5.9545709662190138e-01  5.9235105540387512e-01  6.0218778324260180e-01  5.9551957691265933e-01  5.9242395250407642e-01  5.9250742193018135e-01  5.9558639597984564e-01  6.0217470139041451e-01  5.9259708784037712e-01  5.9564763750170346e-01  6.0217283660256860e-01  5.9267699592687872e-01  5.9569643726165789e-01  6.0221928609339259e-01  5.0991855117903528e-01  5.0015077030830568e-01  5.1481217826382064e-01  5.1477568492983450e-01  6.1736599428026206e-01  6.0624300783260932e-01  6.1027513469880290e-01  6.1028657289160781e-01  6.0623831604973488e-01  6.1736418077557087e-01  6.1031464890787124e-01  6.0621757734956438e-01  6.1735441325080165e-01  6.1034106836996338e-01  6.0619371391078902e-01  6.1733060813344465e-01  6.1035361506000729e-01  6.0616546710878327e-01  6.1728631887134844e-01  6.1034065200259269e-01  6.0613642300304327e-01  6.1721266952545750e-01  6.1028635159151867e-01  6.0612909615063060e-01  6.1709312712411102e-01  5.9016899268493361e-01  5.7798650636449300e-01  5.8650775940657796e-01  5.8649844423274666e-01  5.7800700491698664e-01  5.9018174189586714e-01  5.8646039817588358e-01  5.7805928263535988e-01  5.9019576919427363e-01  5.8641844240317720e-01  5.7812951620799047e-01  5.9021851768456024e-01  5.8639297204128360e-01  5.7821179209569740e-01  5.9025373682105109e-01  5.8640628696260888e-01  5.7829946595085779e-01  5.9030717848893444e-01  5.8649392743405149e-01  5.7836992024203748e-01  5.9039236681082552e-01  5.6668641941319298e-01  5.5409157796453024e-01  5.5403654419195358e-01  5.5400661910426685e-01  5.5407913860292135e-01  5.6667457736487581e-01  5.5397397852657693e-01  5.6666054403478361e-01  6.6542747851590867e-01  6.6552118181515285e-01  6.5756115776945478e-01  6.5755296909748462e-01  6.6553564100663309e-01  6.6541480003705278e-01  6.5753978825326587e-01  6.6556152100009158e-01  6.6540006048783595e-01  6.5752228271076452e-01  6.6559111203860810e-01  6.8037785851884769e-01  6.7562048650066642e-01  6.6965327941380404e-01  6.6964057137861488e-01  6.7565682758729995e-01  5.6506348047326460e-01  5.5230530675567213e-01  5.6502289156641894e-01  5.6445686699624931e-01  5.5021719184477946e-01  5.5823876551805673e-01  5.5821678995549961e-01  5.5019212888584390e-01  5.6445124426264426e-01  5.5816921231300043e-01  5.5012408444021388e-01  5.6443061109826076e-01  5.5812204813684374e-01  5.5004607244379344e-01  5.6441278365165881e-01  5.5809040448339731e-01  5.4998574018501689e-01  5.6441254226485071e-01  5.5808661270948534e-01  5.4996723524124169e-01  5.6444204048214208e-01  5.5812998383119239e-01  5.5001106723436477e-01  5.6450476782531045e-01  6.4306003053672700e-01  6.4306680470131949e-01  6.4308082611889994e-01  6.4308159519394237e-01  6.4305611766921500e-01  6.4299078266064946e-01  6.4286581275775700e-01  5.6574181906918530e-01  5.7227487820144085e-01  5.7226680748930203e-01  5.6572936051159206e-01  5.7226215537826586e-01  5.6571155902094028e-01  5.7226751295997547e-01  5.6569661959734752e-01  5.7228718758993780e-01  5.6569560516988815e-01  5.7232401159178314e-01  5.6571825664439712e-01  5.7238315976061338e-01  5.6577551496874545e-01  5.5693371994658936e-01  5.5690586849845347e-01  5.5684732068007348e-01  5.5678587456344342e-01  5.5674478223641100e-01  5.5674471758125299e-01  5.5680285136506724e-01  5.6341999918220242e-01  5.6340607173902846e-01  5.6338607293122522e-01  5.6337472142858314e-01  5.6337251388908161e-01  5.6338240987795696e-01  5.6341566042279179e-01  4.9699248067648516e-01  5.0620311532459106e-01  5.0699688309209023e-01  5.0617464815206015e-01  5.0699781542313249e-01  5.0546240326363545e-01  4.9607039050410479e-01  5.0659688638984446e-01  5.0556529814895934e-01  5.8062600398898956e-01  5.8063707539225895e-01  5.8065884849060834e-01  5.8069868388946688e-01  5.8074867710976374e-01  5.8080633668473214e-01  5.8087798448850547e-01  5.6907723742577609e-01  5.6909337143770011e-01  5.6914324699435281e-01  5.6920802237164037e-01  5.6928188140108893e-01  5.6935791739843622e-01  5.6941964164240821e-01  6.6457386361319226e-01  6.6456016952479890e-01  6.6449699186888833e-01  6.6441080588212220e-01  6.6431400318438139e-01  6.6422174981052806e-01  6.6415698982577254e-01  5.1624205122255351e-01  5.0491880390818467e-01  5.0760909204040905e-01  5.1619422858075659e-01  5.2383288220306534e-01  5.1076796344800002e-01  5.2062980146600801e-01  5.2378792146652209e-01  5.1070445936542608e-01  5.0989752792123400e-01  5.2327008834534394e-01  5.2019978379003362e-01  5.2338601484106506e-01  5.0979555740353866e-01  5.2320990912654419e-01  5.2014422096058355e-01  6.6994436416400027e-01  6.7707875158610453e-01  6.7711680031696708e-01  6.6995454563122836e-01  5.2558079189019180e-01  5.1545161601354039e-01  5.1812475824835258e-01  5.1807402603001917e-01  5.1539298989646687e-01  5.2553873586095423e-01  5.2541887770221396e-01  5.1525078808697666e-01  5.1794245340508782e-01  5.1506219670269349e-01  5.2526219469675717e-01  5.1777264380726817e-01  5.2510639527026592e-01  5.1486069321625427e-01  5.1760176222755472e-01  5.2498787964701299e-01  5.1468258191282701e-01  5.1747046025246046e-01  5.2495088394101364e-01  5.1457980976607776e-01  5.1742449412518132e-01  6.1638471804743855e-01  6.0811198476736794e-01  6.0811930650387380e-01  6.1638764588763439e-01  6.1638602467581760e-01  6.0813577988769940e-01  6.1637494849823216e-01  6.0815014093937891e-01  6.1634832017626251e-01  6.0815692119664955e-01  6.1629900724776088e-01  6.0815250776389773e-01  6.1621937641733437e-01  6.0813210271750628e-01  5.8545710384430549e-01  5.8547100739299629e-01  5.8551679945660251e-01  5.8557978021051904e-01  5.8564947785958377e-01  5.8571386444913986e-01  5.8576151218644257e-01  6.2661223510862163e-01  6.2661100828521221e-01  6.2657802795876461e-01  6.2652010442307948e-01  6.2643567369115538e-01  6.2632084298403479e-01  6.2617462048996575e-01  6.6069103728500722e-01  6.4970677028137669e-01  6.5142844261547073e-01  6.5142501058953273e-01  6.4969883829245112e-01  6.4958939583337305e-01  6.6068245301503148e-01  6.5134371809189029e-01  6.5138859588950415e-01  6.6064772432126639e-01  6.4951822540092619e-01  6.5127458869790833e-01  6.6058864590025024e-01  6.4942628560022708e-01  6.5117944189624644e-01  5.7556558247169876e-01  5.7542007418866170e-01  5.7543122255898238e-01  5.7557654853691032e-01  5.7560800670974899e-01  5.7544085346533091e-01  5.6665128007503640e-01  5.7545592822519687e-01  6.5141395674753566e-01  5.0696947981523421e-01  5.0606572464012978e-01  5.2297063890469875e-01  5.2292380966471608e-01  6.7466992703125372e-01  5.8051007379873532e-01  5.7537999423909902e-01  5.7538637206202936e-01  5.8052849316563637e-01  5.7540282352113170e-01  5.8057260868499827e-01  5.7543153645944223e-01  5.8063672006294553e-01  5.7547155727574084e-01  5.8070911091564392e-01  5.7552250045143127e-01  5.8078036817365764e-01  5.7558730052509721e-01  5.8084499761714437e-01  5.9809035466850780e-01  5.9807979692868174e-01  5.9803911989396141e-01  5.9799533183571640e-01  5.9796524995043865e-01  5.9797050221788395e-01  5.9803334514269912e-01  5.2771506563453063e-01  5.2767903102898472e-01  5.2758649267753321e-01  5.2367522223045559e-01  5.2746809500244929e-01  5.2353045178249946e-01  5.2735316646678543e-01  5.2726708465642391e-01  5.2722790956273002e-01  6.5958111847235024e-01  6.5953761543185763e-01  6.6304378977019485e-01  6.6304191724159578e-01  6.6303527042523691e-01  6.6298840441455964e-01  6.6294216907613457e-01  6.6288093255327141e-01  5.8419122041867932e-01  5.8421145461070978e-01  5.8425689453112695e-01  5.8431161420964961e-01  6.6322455553758630e-01  6.4894054282173042e-01  6.5331555362626781e-01  6.5328350090099918e-01  6.4891334526450162e-01  6.6322600496687656e-01  6.5322293961520039e-01  6.4881825244977431e-01  6.6323290909809174e-01  6.5314567368754395e-01  6.4868953787611128e-01  6.6323220422020657e-01  6.5305907886092818e-01  6.4855168219712023e-01  6.6321557972415024e-01  6.5297114123251820e-01  6.4843082826415432e-01  6.6317401502447437e-01  6.5289723389379906e-01  6.4836529819649857e-01  6.6309880356867090e-01  6.2800303284290759e-01  6.2799734788189010e-01  6.2797596447510162e-01  6.2793564097770160e-01  6.2787068556234416e-01  6.2777427469208802e-01  6.2764008877471655e-01  6.0310404960875652e-01  6.0309859584208136e-01  6.0309730242775861e-01  6.0309445884113499e-01  6.0309322868642135e-01  6.0309756212980170e-01  6.0310835877597180e-01  6.7543217051994964e-01  6.7530693606000403e-01  6.5998847328612220e-01  6.5998607777791740e-01  6.6000767755240863e-01  6.6002509650732444e-01  6.6003009263028845e-01  6.6001442336452643e-01  6.5996096005883798e-01  6.0649057050080624e-01  6.1064848044610265e-01  6.1063355408945830e-01  6.0647149306621273e-01  6.1057708625774165e-01  6.0643344837083202e-01  6.1050139232238587e-01  6.0638512710505432e-01  6.1041644553819496e-01  6.0633345020159490e-01  6.1032832312137331e-01  6.0628535689805652e-01  6.1024442082773966e-01  6.0624718328520399e-01  5.3639937438536534e-01  5.3635300398122343e-01  5.3623879191170354e-01  5.3610620650388274e-01  5.3598008300530797e-01  5.3588429971663798e-01  5.3584749100730844e-01  5.1454783050169617e-01  5.2303659703248417e-01  5.2298499432242074e-01  5.1449975729323727e-01  5.2285382659619639e-01  5.1437383678765147e-01  5.2268799317045800e-01  5.1420335468501699e-01  5.2252105289504269e-01  5.1401676937323848e-01  5.2239062595843822e-01  5.1384592249370642e-01  5.2234719167455290e-01  5.1375284257164822e-01  5.4028147553736772e-01  5.4544086125698421e-01  5.4539772053674873e-01  5.4024083769759612e-01  5.4531177941269582e-01  5.4014169290822123e-01  5.4521553619322660e-01  5.4002206377461615e-01  5.4513658682538157e-01  5.3991579442296034e-01  5.4510071334197852e-01  5.3985382850432539e-01  5.4512939575510022e-01  5.3986749475456808e-01  5.2444682810251986e-01  5.2440581760977489e-01  5.2429002002106939e-01  5.5029083422477421e-01  5.5026033225530580e-01  5.5019220947851888e-01  5.5011694916810194e-01  5.5005862244578219e-01  5.5003973090480984e-01  5.5008186122127112e-01  6.4358261693444285e-01  6.3549184202086650e-01  6.2844836299074469e-01  6.2847000257770569e-01  6.3549029351494957e-01  6.4356242834972877e-01  6.2852037373656222e-01  6.3548793607737264e-01  6.4352216941330109e-01  6.2856674206495400e-01  6.3547113853350812e-01  6.4346472163970336e-01  6.2858119519379119e-01  6.3542979883993633e-01  6.4338942078989381e-01  6.2853439116500609e-01  6.3535401679467385e-01  6.4329759105750561e-01  6.2838619025212938e-01  6.3523866620492808e-01  6.4318964853200955e-01  6.3751402528549839e-01  6.3751625007752821e-01  6.3752111879334628e-01  6.3751361131094464e-01  6.3748032444862257e-01  6.3740627617926449e-01  6.3727108327434545e-01  5.5394204849775719e-01  5.2011052810003511e-01  5.2648257368248963e-01  5.2644886352215103e-01  5.2006786813673178e-01  5.2636032836794922e-01  5.1996016895807196e-01  5.2624259016556629e-01  5.1981662560492425e-01  5.2612564204281509e-01  5.1966735794309915e-01  5.2603972137169153e-01  5.1954360147586365e-01  5.2601445352719345e-01  5.1948151782630836e-01  5.8465050097062765e-01  5.8465890607677851e-01  6.3934281254250513e-01  6.3933505539900448e-01  6.3930500169394078e-01  6.3925635192769059e-01  6.3918905740670273e-01  6.3910329015248590e-01  6.3898738872018102e-01  6.6962042509696007e-01  6.6959565949829636e-01  6.6955887993061602e-01  5.3837929658604411e-01  5.3833681703903791e-01  5.3825026690832978e-01  5.3814787514562656e-01  5.3805547762477435e-01  5.3799511467894334e-01  5.3798024344449891e-01  5.3359396473378551e-01  5.3355008537247783e-01  5.3343601810778607e-01  6.1876985718630428e-01  6.1877996568130234e-01  6.1879560218732010e-01  6.1879940810238043e-01  6.1877493388881910e-01  6.1870248824102148e-01  6.1856015740269565e-01  5.6491258678534284e-01  5.7362516272841535e-01  5.6485857790584093e-01  5.7369956361595720e-01  5.6497013605907243e-01  5.7377584029664885e-01  5.7383747206846747e-01  6.4051203663154699e-01  6.3368260866337189e-01  6.2946429873794185e-01  6.2945294487018200e-01  6.3365732478721903e-01  6.4049912731972536e-01  6.2941925659257292e-01  6.3362145569686845e-01  6.4046857514642996e-01  6.2936297196492264e-01  6.3356644341352186e-01  6.4042148475773431e-01  6.2928542960540634e-01  6.3349286168368890e-01  6.4035785734930384e-01  6.2918259081084915e-01  6.3340077173178477e-01  6.4027730532966165e-01  6.2904243539916949e-01  6.3328484558759135e-01  6.4017661651596292e-01  6.2376457723061352e-01  6.2375963323423300e-01  6.2374951654084343e-01  6.2372751082612776e-01  6.2368737521778161e-01  6.2361949493994828e-01  6.2351060857722473e-01  5.3282054128121603e-01  5.3278270257459603e-01  5.3268205386874323e-01  5.3255545032558460e-01  5.3243632143488906e-01  5.3235748286589335e-01  5.3235176352680746e-01  6.0195429670427292e-01  6.0194389027948936e-01  6.0191909957139922e-01  6.0189259463135913e-01  6.0187335337961823e-01  6.0187059718334213e-01  6.0189259696231112e-01  5.3252448155893251e-01  5.3249726274876530e-01  5.3242636085611295e-01  5.3234035696431348e-01  5.3225502192059237e-01  5.3218486996470504e-01  5.3214548586458188e-01  5.9464810591097461e-01  5.9460525724055402e-01  5.9437835722057453e-01  5.9427879414050999e-01  5.9266162660415411e-01  6.2130639031147217e-01  6.0886215002991295e-01  6.0884338862899623e-01  6.2125985479144163e-01  6.2114236262813260e-01  6.0878402712530655e-01  6.2099200091852069e-01  6.0870506341277930e-01  6.2082781283132926e-01  6.0862273362830110e-01  6.2066595721956586e-01  6.0855052524836106e-01  6.2052565594130304e-01  6.0850036338120683e-01  4.9690017254147634e-01  5.0426607197237405e-01  5.0425524083149464e-01  5.4185588149080777e-01  5.4181819856501445e-01  5.4172884590719483e-01  5.4162600005376682e-01  5.4153906628327453e-01  5.4149688255963069e-01  5.4152586584192430e-01  5.9621972078692231e-01  5.8681057756128574e-01  5.8684391300533878e-01  5.9622104380856522e-01  5.8692579898810693e-01  5.9622480194626748e-01  5.8702920069087139e-01  5.9623672130475625e-01  5.8714281816984826e-01  5.9625858240427532e-01  5.8725699438415557e-01  5.9629679629567811e-01  5.8734974051194011e-01  5.9637624737637163e-01  5.4357817409206810e-01  5.4359455000690493e-01  5.4355167467903109e-01  5.4354762116576338e-01  5.4344769132779991e-01  5.4347236923806885e-01  5.4332674144075244e-01  6.6948910575171594e-01  6.6948697997079665e-01  6.6948119297538489e-01  6.6946679345612026e-01  6.6943929778571720e-01  6.6939661651489690e-01  6.6934086183006070e-01  6.1587672057699683e-01  6.2524798877344123e-01  6.2527961320682079e-01  6.1590513271700442e-01  5.0757221731277335e-01  5.3312834799644915e-01  5.3308191577493980e-01  5.3295664545271892e-01  5.3280364457494633e-01  5.3266021721829993e-01  5.3256254830289562e-01  5.3255385133296518e-01  6.0363728384088577e-01  5.9817852476598543e-01  5.9818481694353021e-01  6.0364869874027427e-01  5.9821348774211114e-01  6.0368319016289795e-01  5.9825232209951329e-01  6.0372455395767410e-01  5.9829211291899642e-01  6.0376272711228141e-01  5.9832726857851981e-01  6.0378989650892223e-01  5.9835743222311055e-01  6.0379950074042510e-01  6.4625451750033247e-01  6.3950777918300439e-01  6.3947818773669440e-01  6.4623809944279176e-01  6.3940561107349980e-01  6.4618574951911301e-01  6.3930591926060720e-01  6.4610970529923339e-01  6.3919177146712114e-01  6.4601903032971275e-01  6.3907492600160831e-01  6.4592124406445228e-01  6.3896081056629739e-01  6.4583717303032417e-01  5.3627335172189117e-01  5.2799679096215124e-01  5.2794644694326964e-01  5.3623554646767624e-01  5.2781990906457221e-01  5.3614042390670125e-01  5.2766212799042000e-01  5.3602133934058560e-01  5.2750888178842548e-01  5.3591249049752065e-01  5.2739786821576462e-01  5.3584612609127302e-01  5.2737517721609717e-01  5.3585273268804989e-01  5.4255895387422237e-01  5.4270615164264713e