<?xml version="1.0"?>
<VTKFile type="UnstructuredGrid"  version="0.1"  >
<UnstructuredGrid>
<Piece  NumberOfPoints="1006" NumberOfCells="4267">
<Points>
<DataArray  type="Float64"  NumberOfComponents="3"  format="ascii">9.110747725794669 2.138052330453744 1.473437160513647  9.005307589058482 2.110191301780934 1.473325871788899  9.066032942585505 2.215280195139028 1.430135301919425  9.07162355752358 2.192164402533042 1.38243733966309  9.012473665710187 2.087283616673989 1.42497174124746  9.11644742530828 2.1148059591856 1.425478514831641  9.077199916701501 2.169076243492801 1.334974158191225  9.019624951031915 2.064451882544189 1.376831785549784  9.122096300865362 2.091633986253709 1.377753791827352  9.082745952382398 2.146009614980637 1.28777010782208  9.026757616248629 2.041685358099113 1.328922888563356  9.127715905444967 2.068524249409973 1.330259815986157  9.088293008666165 2.123021737721033 1.240792134201174  9.033884271247686 2.018998222289875 1.281220330369993  9.133333840756993 2.045492600180047 1.28297621689253  9.093813878394423 2.100139873071904 1.194053707698265  9.040961320080672 1.996371261468282 1.23373799315006  9.138928503004342 2.022534365019493 1.235919316023394  9.099270310590313 2.077398514760172 1.147579820769074  9.04793963166362 1.973786254287034 1.18654735220855  9.144471360636294 1.999647677167624 1.189154069453633  8.951680934866255 2.225167131138125 1.411817685802035  8.958796762410024 2.202752101470122 1.363829378552199  8.965914722870311 2.180375463220109 1.316115795241056  8.973027615265368 2.158009839928115 1.26864066833887  8.980131324385855 2.135708007028473 1.221389223114659  8.987186342858104 2.113509466538448 1.174359375523593  8.994118903120452 2.091469128468093 1.127633197203505  9.359045264998674 2.420638358099793 1.070265525796408  9.469950848785535 2.45037133707343 1.050784694148836  9.421209352083586 2.517749519969346 0.992439510780298  9.469197479048869 2.482460412246461 1.095311801559923  9.42189790415885 2.484170737618682 0.9468039327809619  9.359848480483215 2.389425682718346 1.025686199396019  9.470703707350436 2.41847593805862 1.006304121815004  9.422580538183462 2.450956880694304 0.9010186978195266  9.360674223852151 2.358621322603519 0.9810214633753767  9.471445695185253 2.386975321054052 0.9617199036218199  9.313268128523308 2.475964335322759 0.9501370727925305  9.314044500998317 2.442834221587371 0.9041294992976986  10.06717446290109 1.890545214332218 1.690282351435954  9.948202398422481 1.867620679798455 1.722799036336107  10.00538722889914 1.962673727023911 1.620615214239507  10.003024262009 1.925391307740197 1.579552173851677  9.948195248306707 1.824195143121901 1.687177402020206  10.06489261091686 1.847241551212323 1.654027646589613  10.00033758199189 1.88830916902647 1.53851918921759  9.947851929118075 1.780974365428067 1.651511932073753  10.06222368818169 1.804140797772243 1.617735647461695  9.997516710546558 1.851332633477752 1.497564712884845  9.947363149640799 1.737875142223331 1.615881167657034  10.05940971946597 1.761146615215076 1.581481591941018  9.99471810813073 1.814411428756155 1.456714925705684  9.946894540959606 1.694849632079778 1.580338139709241  10.05663687738222 1.718213910080646 1.545313480039884  9.992092003445851 1.777522481565892 1.415990571470915  9.946610505520674 1.651885189027064 1.544926177698084  10.05409146759299 1.675339497082793 1.509278610540845  9.989830473002495 1.74068380349911 1.375403754227483  9.946725962783708 1.608975491254483 1.509694234644065  10.052007687967 1.632504461555235 1.473390500740591  9.044075811797457 2.318102740634598 1.379620272643235  9.048728389421047 2.293688929741289 1.332583986876654  9.053384585493911 2.269240467940013 1.285799889844887  9.058026835841668 2.244787848586812 1.239276177951238  9.062662904416495 2.22039211099725 1.192972687941205  9.067284356587948 2.196117007730667 1.14686718986229  9.071895925727874 2.172109846789079 1.100960481896526  8.925473806357003 2.338014652530459 1.354542809644796  8.932414569627536 2.31413709004106 1.307165702440043  8.939390020398614 2.290223779844884 1.260069393055505  8.946390098485097 2.266299888712706 1.213218262937022  8.953379779143809 2.242422771804358 1.166596939412921  8.960327980334503 2.218680489670096 1.120178705346944  8.967144982138981 2.195237834488886 1.073983249267594  9.892723816666035 1.932898649444227 1.647884763887866  9.892076491814048 1.894345276974572 1.607944754076704  9.891161161835305 1.856025031746173 1.568056014446823  9.890124117819418 1.817828765901739 1.528258778931135  9.889117212410227 1.779712035829134 1.488591087862257  9.888300993501666 1.741665695312084 1.449098296500596  9.887817813090246 1.703688401694044 1.409781500373775  9.878066603501678 2.197771740281269 1.463218644764811  9.884423786644048 2.108594713571193 1.516689289086488  9.737473532880706 2.13848794366444 1.502918538732078  9.736504905532547 2.110377317317166 1.458014993811821  9.882059724981969 2.079299408165919 1.471862260147382  9.876032896413777 2.170999245681662 1.417711784540597  9.879489994578348 2.050125170616985 1.427181083324602  9.873825664083007 2.144281663536704 1.372369881353866  9.735360437995505 2.082379067119963 1.413313310173704  9.876804390402475 2.021033521459203 1.382660286687001  9.8715146221727 2.117614837878249 1.327204453532145  9.73411871513043 2.054446014774577 1.368787533500134  9.874123154453081 1.991996541159228 1.338298974033195  9.869198169246944 2.090999417927288 1.282202618524915  9.732868715307587 2.026572947666704 1.324442086237198  9.871580082804188 1.963013112558842 1.29410849215635  9.866990960530012 2.064452511735322 1.237373628336871  9.731713539443232 1.998775346297764 1.280296234905313  9.865020377979491 2.037991882249877 1.192718893306451  9.869347127979736 1.934124301810111 1.250137741140201  9.730792170005106 1.971072439811866 1.236358263739212  9.762453029215402 2.226578974391355 1.450733762831421  9.761210112682994 2.200394951097175 1.405293622012032  9.759841947803523 2.17425964256051 1.360066806899582  9.758389974834795 2.148166092414498 1.315032734992324  9.756922973293298 2.122123658923897 1.270172795185494  9.755523493683567 2.096162950954779 1.225481384132115  9.754299288813627 2.070330418198943 1.180973344108462  10.18237754519869 2.486595088995855 1.250032907889051  10.09704287629291 2.577631902774217 1.201919946209197  10.21233653359902 2.564093264898493 1.191682207899323  10.20446246047044 2.532908800568284 1.146454719274399  10.09055032886323 2.545988948061397 1.1571832898349  10.17440956819757 2.456388869548368 1.205439352709684  10.19641599546087 2.501652255554515 1.101413721568459  10.08391790958759 2.514226700391798 1.112659922076189  10.16622322703168 2.426149966228646 1.16101996046315  10.18828991259779 2.470390651143241 1.056496236505544  10.07721415074226 2.482438316692912 1.068294477716165  10.1579258479796 2.395924536748774 1.116728787396322  10.18017374666992 2.439173438792123 1.011650606843086  10.0705141411949 2.450689153279837 1.024019083278784  10.14962881556384 2.365747163137943 1.072525734227933  10.17215936396657 2.408059138279055 0.9668353151995593  10.06389882845824 2.419060879770752 0.9797708122144704  10.14145611589388 2.335665869727707 1.028379065100537  10.16434643289714 2.377122562963149 0.9219976433021864  10.05744638753962 2.387684454212802 0.9354714105261187  10.13358671827994 2.305733097972678 0.9842477582576911  10.51521725924049 2.060824668317986 1.461020011329014  10.41050090364608 2.046486714906758 1.491726301689819  10.43877450571167 2.139800838697322 1.422566991255561  10.42883807013681 2.109260252238256 1.376129210938462  10.40118841178389 2.010552939280521 1.448096271073413  10.50594015652713 2.026161615668435 1.415589802247046  10.41839996114527 2.078908860916804 1.329687192933364  10.39131211221289 1.97480777911104 1.404426356874539  10.49614045356391 1.991681238587793 1.370043909569807  10.40778619967313 2.048625803558926 1.283257810519272  10.38129129070314 1.939115481816316 1.36077844738835  10.48622209868468 1.957223730179825 1.324476179546008  10.39724724453217 2.0183301467532 1.236862723091535  10.37140277609946 1.903401110342682 1.317181669471123  10.47644902337018 1.922712934650823 1.278932758662538  10.38700466196753 1.987961941107818 1.190509095148424  10.36188666006624 1.867623160791205 1.273644346639319  10.46701214706529 1.888100610523676 1.23342283363076  10.3773012682863 1.957462006725918 1.144166042168173  10.35299300049955 1.831754968883876 1.230124881273579  10.45803423882715 1.853349116664994 1.187908863721123  9.653063707303533 2.253021019610726 1.436296656050593  9.652730120541188 2.226383395414349 1.39124228667329  9.652298294561129 2.199773714351004 1.346382052779746  9.651796800736836 2.173200311032898 1.301742299284107  9.651278149068684 2.146678760213709 1.257289705452899  9.650800012739237 2.120251339023624 1.213012866701984  9.650443819648613 2.093998935355305 1.168904349576523  10.08080241859362 2.475229525087121 1.27576911749144  10.07444354259733 2.445357411507348 1.231509051563055  10.06789665449566 2.415436325718041 1.187449042841728  10.0612384132586 2.385516158910125 1.143546646301547  10.05456883986339 2.355638512823905 1.099750607841372  10.04800263717456 2.325863130141573 1.056017909749752  10.0416957600438 2.296294454761618 1.012309076270363  10.30976919235812 2.108007972049885 1.467098138788229  10.30128758544517 2.076532065126067 1.421670008909758  10.29234280761345 2.045247624300977 1.376293213326025  10.28323023790625 2.01403941259752 1.330960872535188  10.27418761595333 1.982842102155678 1.285694409783679  10.26544132063292 1.951611272084165 1.240504928853752  10.25724411379493 1.920299751277261 1.195386001297892  9.608640864320487 2.165638979853152 1.489584380999816  9.609089510492369 2.138326798367036 1.444469257625093  9.609415882013202 2.111124758145892 1.399614124290363  9.609676134438788 2.084000962063303 1.35496841033132  9.609921581165512 2.056937040030925 1.310508917216899  9.610215852674949 2.02993666
[...]
<PointData  Scalars="f_14"> 
<DataArray  type="Float64"  Name="f_14"  format="ascii">-5.7822420550404883e-14  -6.0329398400349486e-14  -5.8542930862838828e-14  1.6039317222705177e-01  1.6353977664159877e-01  1.6398087732736558e-01  3.2198413332121345e-01  3.2882657109755892e-01  3.2899457602543886e-01  4.8632311522123034e-01  4.9466151259508867e-01  4.9468481939858799e-01  6.5408740315433278e-01  6.6119624551216138e-01  6.6141084777261661e-01  8.2570741017196569e-01  8.2899524780628264e-01  8.2950787852224050e-01  1.0000000000001754e+00  1.0000000000001736e+00  1.0000000000001761e+00  -6.1053229766842215e-14  1.5538623374205285e-01  3.1512796534529752e-01  4.7857246883127758e-01  6.4618888886244630e-01  8.1895335654169810e-01  1.0000000000001730e+00  6.5647097176429503e-01  6.5649473583140838e-01  6.6507700125246516e-01  4.8923058479307557e-01  8.3233361155819041e-01  8.2654938132129496e-01  8.2598888884252197e-01  1.0000000000001850e+00  1.0000000000001832e+00  1.0000000000001859e+00  8.3140611744336901e-01  1.0000000000001825e+00  -3.5638620331340168e-14  -3.8627271748473222e-14  -3.6936776627232890e-14  1.8501215574515176e-01  1.9025973141581531e-01  1.9433231712910867e-01  3.6193254286694393e-01  3.6928020490900393e-01  3.7361025184885455e-01  5.3115504863068841e-01  5.3898138563515396e-01  5.4332506651309653e-01  6.9367687018330559e-01  7.0030129992595525e-01  7.0480596318741839e-01  8.4984799902882457e-01  8.5372655048281609e-01  8.5825885238162736e-01  1.0000000000001972e+00  1.0000000000001954e+00  1.0000000000001985e+00  -5.8675924839302373e-14  1.4848895585363339e-01  3.0518470449618779e-01  4.6738460113869512e-01  6.3527968943141477e-01  8.1048844056391178e-01  1.0000000000001754e+00  -6.1195221982753957e-14  1.4846146362121537e-01  3.0421675416330135e-01  4.6585507458920661e-01  6.3393904888795538e-01  8.1010895944391959e-01  1.0000000000001730e+00  -3.9776454999801961e-14  1.9642323483832227e-01  3.7443579343697903e-01  5.4373289557241544e-01  7.0565470103801808e-01  8.5991562973710256e-01  1.0000000000001943e+00  -3.9432902284439826e-14  -3.9508964886882474e-14  -4.2991606029696438e-14  1.7216489164289275e-01  1.7536180506371868e-01  1.6625115099789878e-01  3.4555346966796202e-01  3.3186002206450133e-01  3.4058530900130723e-01  5.1293079710742195e-01  4.9763376361421841e-01  5.0735678306003829e-01  6.7816432554202855e-01  6.6411740967037491e-01  6.7296653842220022e-01  8.4127775071392774e-01  8.3162210041441631e-01  8.3741927417378059e-01  1.0000000000001947e+00  1.0000000000001945e+00  1.0000000000001910e+00  -4.2137029211799266e-14  1.6414786289313363e-01  3.2881079509025130e-01  4.9420587098132274e-01  6.6081384807834542e-01  8.2913234381224021e-01  1.0000000000001918e+00  -3.1783376460805830e-14  -3.3579851176427595e-14  -3.0935417880248109e-14  1.6032652056262769e-01  1.5609220612948066e-01  1.5830268973699438e-01  3.2236306084515709e-01  3.1669134606241323e-01  3.1925308992537327e-01  4.8695178944600631e-01  4.8076281611209426e-01  4.8340162447805862e-01  6.5457489709115968e-01  6.4849497192308070e-01  6.5127798408702631e-01  8.2555957639811872e-01  8.2063579507165152e-01  8.2341997188646332e-01  1.0000000000002032e+00  1.0000000000002005e+00  1.0000000000002023e+00  -2.4452456470342625e-14  -2.6993909011226731e-14  -2.6207980593962160e-14  1.7521288592462467e-01  1.9514176161208441e-01  1.9181707811128063e-01  3.4739676911058054e-01  3.7391121941594380e-01  3.7051354888565752e-01  5.1552608344044870e-01  5.4351944020437049e-01  5.4009376668476294e-01  6.7996386819495291e-01  7.0558590580435787e-01  7.0195629008678462e-01  8.4116442780262590e-01  8.5943506394019875e-01  8.5622217069076123e-01  1.0000000000002078e+00  1.0000000000002072e+00  1.0000000000002098e+00  -4.4686392424988352e-14  1.6412811623138659e-01  3.2846865385330465e-01  4.9381676949938819e-01  6.6069964904978384e-01  8.2943984017218808e-01  1.0000000000001894e+00  -3.4163044628466485e-14  1.5184314470334323e-01  3.1046530323967531e-01  4.7354784066433675e-01  6.4128257503594932e-01  8.1492323832945457e-01  1.0000000000001998e+00  -2.9320947327685861e-14  1.8136664601559485e-01  3.5463722122953723e-01  5.2311415785097126e-01  6.8740555031951889e-01  8.4718323481521973e-01  1.0000000000002047e+00  -4.6017332578547902e-14  1.6433423082436582e-01  3.3031911967507294e-01  4.9629669879685667e-01  6.6240728384875425e-01  8.2941128822149346e-01  1.0000000000001881e+00  -2.6239976489303638e-14  -2.7737466026401198e-14  -2.5854113904162806e-14  1.6081208218213999e-01  1.5982522489849355e-01  1.5845950917117871e-01  3.2293772890091971e-01  3.2183405583778535e-01  3.2001112753803029e-01  4.8722567818193874e-01  4.8624205668701259e-01  -2.9017037196858215e-14  1.5754248231837059e-01  3.1889992544481310e-01  4.8305260739252232e-01  6.5034423754581971e-01  6.5347113235508913e-01  8.2161851105124850e-01  8.2422287287542573e-01  1.0000000000002052e+00  -4.1599841326932173e-14  1.7023774318842447e-01  3.4145694780434671e-01  5.0923038659794762e-01  6.7364984464746192e-01  8.3558394779856315e-01  1.0000000000001925e+00  -3.1585882323344105e-14  -3.4047962718772184e-14  -3.1340305892447263e-14  1.6202137794597463e-01  1.6407643085446280e-01  1.6775278955655865e-01  3.2623392415164126e-01  3.2912505385270591e-01  3.3606132152757090e-01  4.9168949950487689e-01  4.9483051185844545e-01  5.0297799564274137e-01  6.5849287905799347e-01  6.6143985459274635e-01  6.6864486888295560e-01  8.2724844608458492e-01  8.2948083164697228e-01  8.3357612870076259e-01  1.0000000000002027e+00  1.0000000000002001e+00  1.0000000000002025e+00  -4.3892608776372177e-14  -4.6464605950682817e-14  -4.3550264972240399e-14  1.5359255217137402e-01  1.6012093798530030e-01  1.6017079197980674e-01  3.1273242013381630e-01  3.2173815504159886e-01  3.2197318136327563e-01  4.7590767186486815e-01  4.8590260613710828e-01  4.8622041870541688e-01  6.4341367251655579e-01  6.5331881909468514e-01  6.5362342399197981e-01  8.1653042346028470e-01  8.2463318533258967e-01  8.2473973205664619e-01  1.0000000000001905e+00  1.0000000000001876e+00  1.0000000000001903e+00  -4.4252943480894298e-14  1.8225139055215894e-01  3.5517963803859876e-01  5.2332272322682727e-01  6.8767940232803582e-01  8.4801957932523553e-01  1.0000000000001896e+00  -4.2032744086976481e-14  1.9108131797704300e-01  3.6776571194564350e-01  5.3674011608939076e-01  6.9947963080605224e-01  8.5552178052707195e-01  1.0000000000001921e+00  8.1293245158098737e-01  8.1513381580439970e-01  8.1961622316180094e-01  6.3964957130359223e-01  6.3614356183963094e-01  1.0000000000001750e+00  1.0000000000001728e+00  1.0000000000001750e+00  -3.8536179863253082e-14  -4.1070828011455243e-14  -3.8740658270438396e-14  1.5540702572043247e-01  1.5339760762212989e-01  1.5360081887858090e-01  3.1449368525375454e-01  3.1219817336326422e-01  3.1256336599473156e-01  4.7777754606356077e-01  4.7525505224329323e-01  4.7572767796994181e-01  6.4585948738003041e-01  6.4293256805002319e-01  6.4345578584554430e-01  8.1954209794215305e-01  8.1645013220911078e-01  8.1688196276664127e-01  1.0000000000001954e+00  1.0000000000001930e+00  1.0000000000001956e+00  3.0993918326727493e-01  3.1334126020746111e-01  3.2400473382726847e-01  1.5378203750473596e-01  1.5132666163953434e-01  4.8912552263567488e-01  4.7327383174718396e-01  4.7680441344313618e-01  6.5684772985311168e-01  6.4148197685272801e-01  6.4438395989864272e-01  8.2724679281761138e-01  8.1561710037347057e-01  8.1715517312932140e-01  1.0000000000001801e+00  1.0000000000001776e+00  1.0000000000001799e+00  -3.7085337338805128e-14  -3.6987581453305328e-14  1.6421857589774344e-01  1.7769192357015309e-01  3.3009669340140613e-01  3.4973231074632166e-01  4.9610923057249318e-01  5.1770299091500460e-01  6.6234009198443289e-01  6.8225673666783260e-01  8.2949844061352795e-01  8.4346369409095723e-01  1.0000000000001972e+00  1.0000000000001970e+00  -5.8383432705986271e-14  1.7491794558533297e-01  3.4504084941721308e-01  5.1249448796791885e-01  6.7787534239741043e-01  8.4103182860276782e-01  1.0000000000001756e+00  -5.5932783195543679e-14  -5.6013403080088017e-14  1.5524121518444092e-01  1.6888901641746476e-01  3.1635042966615040e-01  3.3603898889675532e-01  4.8055923525579131e-01  5.0260448633801047e-01  6.4790505544253707e-01  6.6901570885563988e-01  8.1948139679457122e-01  8.3527237712363556e-01  1.0000000000001781e+00  1.0000000000001781e+00  -4.7191718656638760e-14  1.6185406983316564e-01  3.2525925867245808e-01  4.9018626408397137e-01  6.5702317485351636e-01  8.2627763080651762e-01  1.0000000000001867e+00  -3.2286991339503746e-14  1.5679276789819274e-01  3.1713008477283111e-01  4.8100334094234715e-01  6.4881988788338840e-01  8.2128892822005617e-01  1.0000000000002018e+00  1.5963265151880973e-01  -4.8655692660076103e-14  -5.1090581206784730e-14  -4.8793584465590804e-14  1.6851714886726291e-01  1.6482535321186581e-01  1.6690571427530432e-01  3.3429882948935252e-01  3.3094921081711959e-01  3.3437223298130109e-01  5.0016384352844068e-01  4.9702569684907488e-01  5.0090829733151487e-01  6.6677280755296253e-01  6.6315120508674141e-01  6.6661872140585510e-01  8.3410111559058053e-01  8.2997335979051556e-01  8.3212431189234981e-01  1.0000000000001852e+00  1.0000000000001830e+00  1.0000000000001854e+00  -6.0926866119444315e-14  -6.3217471365085220e-14  1.7003997599595350e-01  1.8646572257940996e-01  3.3901261128649984e-01  3.6057595971777173e-01  5.0605937767502751e-01  5.2909800418316300e-01  6.7144101849207283e-01  6.9324704610323007e-01  8.3544877381645910e-01  8.5219301042826034e-01  1.0000000000001708e+00  1.0000000000001730e+00  1.6254838086939327e-01  1.6995700761852897e-01  1.5705710506226897e-01  -6.5396225010068688e-14  3.1792590640772544e-01  -2.4350636290805688e-14  -2.7256177966737228e-14  -2.3753324609407249e-14  1.6172382049619366e-01  -5.3507827135845569e-14  -5.3861354656778358e-14  1.5781775361469319e-01  1.6124711317426460e-01  3.1860585985647000e-01  3.2508586245869703e-01  4.8247315390406459e-01  4.9021912224996583e-01  6.4984003926442058e-01  6.5684566812621314e-01  8.2161663635676818e-01  8.2579281038581953e-01  1.0000000000001801e+00  1.0000000000001805e+00  -6.3326681870691004e-14  -6.5439636523950267e-14  1.8064923865488694e-01  1.8651878008493661e-01  3.5305112256906668e-01  3.6218696160181407e-01  5.2102713623007013e-01  5.3096296422294320e-01  6.8536661011346145e-01  6.9394606507523238e-01  8.4586431766568970e-01  8.5112677049566876e-01  1.0000000000001685e+00  1.0000000000001705e+00  -4.8992870492980639e-14  -5.1410360165698217e-14  -4.8532209116604770e-14  1.6013679045306542e-01  1.5933137066903658e-01  1.5595348468632661e-01  3.2199098796970943e-01  3.2081613355839239e-01  3.1662048808957555e-01  4.8654458445958232e-01  4.8514172220215473e-01  4.8050476041603662e-01  6.5425893277580294e-01  6.5286146395769273e-01  6.4783880134561755e-01  8.2550457164190882e-01  8.2446027923194842e-01  8.1953966423964886e-01  1.0000000000001856e+00  1.0000000000001825e+00  1.0000000000001850e+00  -3.3824997215325558e-14  -3.6114106125979941e-14  -3.4051626693788791e-14  1.5335210666826443e-01  1.5616102363429446e-01  1.6035594884312235e-01  3.1252941331436046e-01  3.1618102306633894e-01  3.2240887212971153e-01  4.7576717745427444e-01  4.7983619724643023e-01  4.8689656259650210e-01  6.4334586804195648e-01  6.4753912641204714e-01  6.5427831847290940e-01  8.1648379451332576e-01  8.2021992555368317e-01  8.2512131622906815e-01  1.0000000000002001e+00  1.0000000000001981e+00  1.0000000000002003e+00  8.0488478416548437e-01  8.2298048669274571e-01  1.0000000000001728e+00  1.0000000000001703e+00  -3.4717993290423147e-14  -3.4404173979225925e-14  1.9072042797404079e-01  1.8390664620243324e-01  3.6812262179818972e-01  3.5855452397978788e-01  5.3740343256039913e-01  5.2722626081408919e-01  6.9976319901374784e-01  6.9072226873965581e-01  8.5521684611089788e-01  8.4905614162342435e-01  1.0000000000001998e+00  1.0000000000001994e+00  -5.0820410797070000e-14  -4.8114611672817086e-14  1.6086158316280486e-01  1.6060542336930828e-01  3.2389512058788134e-01  3.2396254556638299e-01  4.8901974132747278e-01  -5.9370387766951338e-14  1.4913801216524661e-01  3.0505908260487030e-01  4.6709226308956514e-01  6.3566885766114101e-01  8.1219330809568524e-01  1.0000000000001745e+00  -2.6583668257035465e-14  -2.9051554399918120e-14  1.6171935594307960e-01  1.6440034413566004e-01  3.2529326275440162e-01  3.3012837742264634e-01  3.2455950462258254e-01  4.9036754814692113e-01  4.9605189640172154e-01  4.8925748824004556e-01  6.5723704391887239e-01  6.6228588702429236e-01  -4.9486192824527923e-14  -5.1880597481153367e-14  1.5647983425122999e-01  1.6042512662470568e-01  3.1728170950138884e-01  3.2284877375284537e-01  4.8121857393640172e-01  4.8737845800042007e-01  6.4864790126270033e-01  6.5450899708059185e-01  8.2049002958593820e-01  8.2488992325088095e-01  1.0000000000001821e+00  1.0000000000001845e+00  -6.1267975316807189e-14  -5.8959851884643680e-14  1.4522097588934696e-01  1.5078112709994543e-01  2.9953259827372858e-01  3.0812094578271892e-01  4.6054814289434870e-01  4.7095232899261319e-01  6.2880250072235311e-01  8.0612729025327801e-01  1.0000000000001728e+00  -5.4463823665366638e-14  -5.6930543690380747e-14  -5.4032620195689588e-14  1.5518783469534336e-01  1.5702659456388482e-01  3.1360927984815312e-01  3.1692083113449926e-01  4.7671393030806697e-01  4.8046877595483867e-01  6.4523766750187028e-01  6.4831053375983294e-01  8.1977609145944463e-01  8.2113948383424562e-01  1.0000000000001770e+00  1.0000000000001794e+00  -6.2932461007617766e-14  1.6269097425103179e-01  3.2619776546092349e-01  4.9125689478154205e-01  6.5836131509359908e-01  8.2787737308356191e-01  1.0000000000001710e+00  -5.1377868335874844e-14  1.6246241670251615e-01  3.2591592541209630e-01  4.9091967475840731e-01  6.5794440559105216e-01  8.2743763747331989e-01  1.0000000000001825e+00  -5.6272437299491011e-14  1.5132053034927329e-01  3.0999330032291733e-01  4.7313869852216689e-01  6.4093159384083953e-01  8.1470552014759778e-01  1.0000000000001776e+00  -4.6073350367978182e-14  -4.3705534912673830e-14  1.5554343775468565e-01  1.5331720178938890e-01  3.1569100836751596e-01  3.1303338232213967e-01  4.7954448516039544e-01  4.7659505287624576e-01  6.4734974744335683e-01  6.4412800736174269e-01  8.1992602574263218e-01  8.1683202586829251e-01  1.0000000000001903e+00  1.0000000000001881e+00  -3.1654673065216514e-14  1.5927682186785372e-01  3.2119480464414313e-01  4.8570525430001632e-01  6.5316009474072600e-01  8.2414057116556050e-01  1.0000000000002025e+00  -4.4620542776723435e-14  1.8327895659983365e-01  3.5903980996623164e-01  5.2800894024093137e-01  6.9090676834052045e-01  8.4830044167745633e-01  1.0000000000001894e+00  -6.3357170983754822e-14  1.5468470062462197e-01  3.1312665155333702e-01  4.7604754575472846e-01  6.4418408626997270e-01  8.1852305738310027e-01  1.0000000000001705e+00  -3.4508811435013183e-14  1.7302006064459988e-01  3.4284563110705268e-01  5.1020856994850183e-01  6.7557340997678994e-01  8.3899200094341142e-01  1.0000000000001996e+00  -3.9427685567336365e-14  1.8237711035013979e-01  3.5655179714482160e-01  5.2509255915503628e-01  6.8879424512716225e-01  8.4778781382023727e-01  1.0000000000001947e+00  -4.1372821015555676e-14  1.5566889553609381e-01  3.1621737367033909e-01  4.7997240442430017e-01  6.4720053900749230e-01  8.1907713259635828e-01  1.0000000000001927e+00  6.9647857448235651e-01  8.5208749644994619e-01  1.0000000000001683e+00  -6.1346263561184474e-14  1.4930582181031277e-01  3.0526213893047860e-01  4.6734881448972421e-01  -4.6273272113447266e-14  1.7166402247292270e-01  3.4089580461136471e-01  5.0797197489959978e-01  6.7318612325863114e-01  8.3683892412266669e-01  1.0000000000001876e+00  -5.1168431948718591e-14  1.7382295890750313e-01  3.4472689118216404e-01  5.1248582110428254e-01  6.7745199974954340e-01  8.3986455166979657e-01  1.0000000000001830e+00  -2.8757574803954746e-14  1.6886997599343606e-01  3.3656166116704139e-01  5.0323777283145688e-01  6.6909172998501387e-01  8.2651455625116754e-01  8.3452197150996210e-01  8.2953316729308235e-01  1.0000000000002052e+00  1.0000000000002054e+00  1.0000000000002076e+00  -3.0031931972115072e-14  1.8222612103365346e-01  3.5730631433359694e-01  5.2613540462331621e-01  6.8923604116086812e-01  8.4727559779778894e-01  1.0000000000002041e+00  -5.6463420954777321e-14  -3.6447226710771797e-14  -3.6263211180297881e-14  1.5650153762019428e-01  1.5867522908980378e-01  3.1616995015607385e-01  3.2019263048637153e-01  4.7983045051987644e-01  4.8477220710657365e-01  6.4796213159398697e-01  6.5268401074890958e-01  8.2114558601983612e-01  6.2710161764830163e-01  6.2751761795503247e-01  8.0489030762051494e-01  1.0000000000001705e+00  -3.6317186918876118e-14  1.5390688647779016e-01  3.1273457548212574e-01  4.7588907128986568e-01  6.4386009822100621e-01  8.1762351801827882e-01  1.0000000000001978e+00  1.0000000000001976e+00  4.8715685500806194e-01  6.5547508211454453e-01  8.2686616554888848e-01  1.0000000000001776e+00  1.6059742568788563e-01  1.6001646979665451e-01  3.2302406644081261e-01  3.2360023433424395e-01  -4.1134917905758847e-14  -3.8896741011776611e-14  1.4980308066312809e-01  1.5593007483727214e-01  3.0848085459331653e-01  3.1542106288314553e-01  4.7170911585921538e-01  4.7889244241991852e-01  6.3937192859439507e-01  6.4688002884813334e-01  8.1286475550373383e-01  8.2015490793056312e-01  1.0000000000001952e+00  1.0000000000001930e+00  -4.6600310528530526e-14  1.7295538255015977e-01  3.4479344787832672e-01  5.1270326213038686e-01  6.7667301783289824e-01  8.3786128876983135e-01  1.0000000000001874e+00  -6.5242569256352373e-14  4.8182594859707351e-01  6.4923387834828550e-01  8.2101672727383634e-01  1.0000000000001688e+00  -3.6436515100687956e-14  1.5753003077933597e-01  3.1973699006707695e-01  4.8433468289557763e-01  6.5138792957487945e-01  8.2189324865329172e-01  1.0000000000001976e+00  3.3679922425512687e-01  5.0297086386065992e-01  6.6914054716110105e-01  8.3541849548705316e-01  1.0000000000001685e+00  6.3636785549423203e-01  6.3845147205192643e-01  4.5878850580592379e-01  4.6970991779203430e-01  8.1338742908875439e-01  8.1512636669514205e-01  1.0000000000001685e+00  1.0000000000001708e+00  -6.3326059549628956e-14  1.5177425087002730e-01  3.0781362960723252e-01  -5.3584006744640224e-14  1.7334519687363961e-01  3.4294853181431784e-01  5.1016433514148241e-01  6.7557499947222233e-01  8.3924458989082018e-01  1.0000000000001805e+00  8.0984930279338707e-01  1.0000000000001685e+00  1.4549258205988155e-01  3.0114668070779538e-01  4.6275644631358753e-01  6.3045377972812611e-01  8.0612810530002732e-01  1.0000000000001688e+00  -2.2632241285674423e-14  -2.3514779018502483e-14  -2.5486409079939842e-14  1.8790697819656960e-01  2.0123188476760634e-01  1.8864915104292296e-01  3.6769542358544821e-01  3.8293121828097937e-01  3.6876647554450870e-01  5.3773841729109118e-01  5.5296285494703934e-01  5.3875922359487338e-01  6.9888058083151861e-01  7.1324763619172082e-01  6.9946999537697518e-01  8.5226243191459528e-01  8.6379072925726497e-01  8.5210387712972324e-01  1.0000000000002087e+00  1.0000000000002107e+00  1.0000000000002116e+00  -4.8780391685900579e-14  1.8334485483488172e-01  3.5628710442229122e-01  5.2440380585179347e-01  6.8870936018323092e-01  8.4876838344015926e-01  1.0000000000001854e+00  -3.8864678346416088e-14  1.5785557186584132e-01  3.1921455950348360e-01  4.8334971966419715e-01  6.5061713173116853e-01  8.2193280140144309e-01  1.0000000000001952e+00  -3.2094444695017154e-14  1.8853517335252121e-01  3.6295933398852359e-01  5.3149626734463629e-01  6.9519809574683877e-01  8.5318131249675155e-01  1.0000000000002021e+00  -2.6028428061889353e-14  -2.8024594133327271e-14  2.0045152271595959e-01  1.9959017890642511e-01  3.8161625325362730e-01  3.8111072119617428e-01  5.5193188650366798e-01  5.5109875424064436e-01  7.1234158989232232e-01  7.1210396786987729e-01  8.6290385101910694e-01  8.6383516853742359e-01  1.0000000000002081e+00  1.0000000000002061e+00  