<?xml version="1.0"?>
<VTKFile type="UnstructuredGrid"  version="0.1"  >
<UnstructuredGrid>
<Piece  NumberOfPoints="692" NumberOfCells="6120">
<Points>
<DataArray  type="Float64"  NumberOfComponents="3"  format="ascii">11.34256211003533 2.559963610454043 3.662915467942084  11.23041676328445 2.651653979168271 3.732827329951541  11.22654493170889 2.522080549939639 3.633936557215388  11.2271424548698 2.477950412016679 3.68647644053894  10.63466443309029 2.40110381633999 3.522723604796444  10.54725485047735 2.328993176542256 3.450128961523271  10.65740971157491 2.331263174391724 3.447750906643321  10.65785089364024 2.287970157534074 3.487698234413719  10.54902029292025 2.28633373622652 3.489751002849701  10.63481157850055 2.358947290965796 3.565806856580581  10.65771707645725 2.244525559934601 3.527690075171925  10.55032837056613 2.243588427443266 3.529381311506091  10.6343954821987 2.316676178983172 3.608932732674373  10.65738080905151 2.200892769570538 3.567713869408353  10.55144453506648 2.200720867997409 3.56901262536094  10.6337735883993 2.274234879891481 3.652088994909125  10.6571158270118 2.15708596171349 3.607770717177103  10.55261053759159 2.157727734358333 3.608629661761074  10.63321382074632 2.231625019926884 3.695274829941322  10.65714739735403 2.113133706437825 3.647882742113115  10.55402582199866 2.114645491168501 3.64824275701149  10.63294322088776 2.188865959600459 3.738510037514444  10.65769410288581 2.069062217600059 3.688092116352069  10.55592177287646 2.071504096343644 3.687875979450851  10.63319915499756 2.145966031957449 3.781832817129321  10.48248309297318 2.184887968269668 3.285991548284267  10.39163410013394 2.220848143792308 3.342615390556269  10.40551595589035 2.133802160685357 3.223893315908657  10.40988983807781 2.089676379701861 3.255234144087097  10.3960070941263 2.177849958472393 3.377838090192046  10.48646451330311 2.140761681758718 3.319263675196207  10.41399860871648 2.045514045818498 3.286556704983237  10.40009929414558 2.13482358730456 3.413046109051646  10.49012913986647 2.096581760535316 3.352520894710195  10.41798578509117 2.001297163285727 3.317860528190084  10.4040643347849 2.091746485985573 3.44823108087012  10.49365314869946 2.052323085446162 3.385762674549059  10.42198689348132 1.957034551071707 3.349152008842085  10.40804184608123 2.048621924003262 3.483390913091249  10.49720573536601 2.007993250300787 3.418997537217989  10.42614487154544 1.912748088089549 3.380430560129369  10.41217980640455 2.005473113258669 3.518515757249288  10.50096065793855 1.963618413326412 3.452223073897106  10.43063262212487 1.868461862819047 3.411670750149567  10.41666573530122 1.962342935542526 3.553579490346768  10.50510855817727 1.919224021457545 3.48542820705659  10.55628298005653 2.461316273715987 3.577027574823821  10.4831908517984 2.393471218342823 3.521098624464123  10.4857741404746 2.352520911544397 3.56380890360632  10.55723405817466 2.421283787296829 3.62283059818201  10.48794745811372 2.31151189872338 3.606511335892026  10.55768977446951 2.381185206872638 3.668652176921114  10.48994243107649 2.270408226064786 3.649200257331383  10.55794112602073 2.340949388052442 3.714483280270574  10.49197264968439 2.229196423413705 3.691857099826545  10.55822296253674 2.300573920768089 3.760317827225499  10.49421564570415 2.187913732434148 3.734486920285571  10.55873931681514 2.260094025655073 3.806159976305058  10.49689500404515 2.146617499675637 3.777100297460225  10.55973739471617 2.219555662144724 3.852020197454712  10.96015102626148 2.24476764532159 3.332605193699599  10.97133608475358 2.322232570414888 3.433243688480085  10.84736047586136 2.307854493063652 3.419897571549045  10.8478539060525 2.261469225959241 3.457705095317975  10.97190275004993 2.274791339147167 3.471971296781261  10.961627470762 2.196237782197406 3.36684059158195  10.84770464895464 2.214763217281008 3.495599772600215  10.971744257335 2.226916406948251 3.510789863764705  10.96248731883501 2.147317546381259 3.40102806037566  10.8473630509282 2.167754688386741 3.533593215156777  10.9713955416401 2.178658997693599 3.549780335531479  10.96316503121099 2.098057327643328 3.435368844408428  10.84713309123 2.120477544992053 3.571726116257813  10.97116780009625 2.130061638338414 3.588994675138483  10.96399275209431 2.048499342029388 3.469913123096842  10.84725050838665 2.07297060663925 3.610045757742301  10.97129518916429 2.081147600919325 3.628471237363068  10.96518550871988 1.998674646843764 3.504712023718087  10.84788935941648 2.025211585293154 3.648538077144551  10.97195212359921 2.031895946477884 3.668234072404974  10.9668445590167 1.948553711790464 3.539747262858032  11.111338661408 2.603931407627285 3.700937210508366  11.11138103402832 2.564032907316586 3.756854141223573  10.82814780794954 2.237862688789833 3.328222401293788  10.82964544145707 2.191038008919653 3.362501003677856  10.83055738557071 2.143863802310904 3.396802763311708  10.8312788820499 2.096422361662588 3.431178772507587  10.83210454460437 2.048744399059906 3.465673757914985  10.83327209840294 2.000854053649681 3.500338002441995  10.83495631714372 1.952722866405791 3.535210000712967  10.99590131832242 2.667183912761411 3.743697142249931  11.00894829471487 2.557170516299885 3.668570607195092  11.00765022304195 2.516683168005676 3.721775791355416  10.99370551901126 2.630548105005758 3.801675193868071  11.00550135350706 2.475887190652232 3.775432498534585  10.99064149828743 2.593750463007338 3.860184444998419  11.11052572833579 2.52376115782404 3.813473377042377  11.00317250871224 2.434702899483114 3.829424783972728  11.46618780322006 2.474018099904171 3.58749821580792  11.34275019667294 2.451007298585803 3.566407370808347  11.3433502967663 2.401948034667151 3.614760033191668  11.34344321932059 2.516540269140279 3.719197409562518  11.46701199374217 2.423848565385487 3.638587173036723  11.34301694766881 2.352108518792078 3.663409434152228  11.34349062990687 2.472472411856851 3.776051356920952  11.46683237726445 2.372624873303039 3.689972845612852  11.34238704621252 2.301717567921824 3.712655071180107  11.34338486626016 2.427893090400786 3.833572194690457  11.46634062579481 2.320944077112729 3.742181040117805  11.34189165703889 2.250728653621713 3.762435454929811  11.46601323880985 2.268561441897495 3.794971377517592  10.3023970177275 2.085242304213464 3.364021057520377  10.30839908603034 2.042035019867256 3.397018204135919  10.31440512060896 1.998808720501484 3.429981089831571  10.32051487523468 1.955580101496978 3.462897614183205  10.3268318611447 1.91238612561696 3.495732793643246  10.44181539444125 2.477508863071608 3.597588423061135  10.35522496711082 2.372840902870155 3.514419245089863  10.36150471661226 2.332068587154308 3.555889130039863  10.44594760440062 2.4388576049347 3.64405948838986  10.44971401900184 2.400162659995479 3.690506525516652  10.36752931947376 2.291286093686942 3.597317339063786  10.45329671739187 2.361372874261888 3.73692721595241  10.37341401717198 2.250453492105694 3.638708566285687  10.45688690250551 2.32248233219086 3.783312916261361  10.37929747431206 2.20956764062116 3.680057304999411  10.46064780455571 2.283524043315617 3.82966651982758  10.38532867323845 2.168650489506581 3.721343492995683  10.46478204942752 2.244561260808111 3.875969914213658  10.39165838634134 2.127766756368403 3.762541290159273  10.90456399843022 2.706113888476545 3.76166894065489  10.85999755374828 2.791560021067039 3.797290687654566  10.80320858929728 2.694848146871112 3.74763159683326  10.79863021847217 2.663567021370528 3.80659351423229  10.88376232833987 2.624761154986397 3.712204109465731  10.76041427538406 2.608967099585199 3.694236328250973  10.89113085505682 2.534744490806901 3.64806741101533  10.88872974585245 2.494465536079447 3.699206649710103  10.75732712955154 2.573492196156527 3.748794553675827  10.88008968395047 2.588764722530473 3.768140640178313  10.88550067668961 2.453948311136469 3.75065769478658  10.75353984631046 2.5379057826565 3.803548964377869  10.87560919564595 2.552589857140664 3.824455592736868  10.88206846277448 2.413118918025565 3.802344342580461  10.7495278439586 2.502099133402702 3.858468010508247  10.87092777176384 2.516128273122233 3.88105390793513  10.87876349130451 2.371988850957857 3.854253696741185  10.74558218728466 2.466080242637182 3.91354436996421  10.86635947122004 2.479399727769306 3.937901583503386  10.8758219557247 2.330576313700077 3.90638519557168  10.7419309419681 2.429870217655739 3.968780345120758  10.86213692843756 2.442417746378122 3.994973573379236  10.87341142696635 2.288856127637745 3.958703862299776  10.73877333213241 2.393440913263645 4.024191504753447  10.8583978124521 2.405126073515087 4.052222438037293  11.11449996095223 2.49061279866423 3.61166901045189  11.11504517009041 2.446423448096564 3.661668334475619  11.11472081966338 2.401747908468467 3.712054109834089  11.22683132920075 2.433268100843837 3.739509264215929  11.11421435488117 2.356602111410804 3.762831971627898  11.10948837291228 2.48303511169377 3.870539337136218  11.22632456455674 2.38806773681234 3.793078386235965  11.11383477608231 2.311018985861546 3.813996754576225  11.10861516077439 2.441856626335174 3.92804459477413  11.22595042096629 2.342372571446584 3.847169088995505  11.11379875751626 2.26498547059921 3.865528191824275  11.1081262961732 2.400200922708723 3.985974142754576  11.22588065665453 2.296166667219494 3.901752853016943  11.11437650730973 2.21854009395263 3.91742750856824  11.22636577811407 2.24940938010779 3.956835608451353  11.19422349447981 2.168894199571907 3.194356284908914  11.09966066134657 2.213342197270237 3.272760096716611  11.08473599879349 2.138117407723074 3.154061072050727  11.08798003568461 2.08791602260946 3.183438347547059  11.10191978149299 2.162875090196303 3.304983899835008  11.19717773225186 2.116835080315608 3.224635374950715  11.09082948041087 2.037242646625213 3.212671262117642  11.10362654440938 2.111862745086519 3.337117593648611  11.19975006859664 2.064250418596472 3.254791642514801  11.093586096
[...]
<CellData  Scalars="f">
<DataArray  type="Float64"  Name="f"  format="ascii">1 18446744073709551615 18446744073709551615 1 18446744073709551615 18446744073709551615 18446744073709551615 1 18446744073709551615 18446744073709551615 18446744073709551615 18446744073709551615 18446744073709551615 18446744073709551615 18446744073709551615 1 18446744073709551615 18446744073709551615 18446744073709551615 18446744073709551615 18446744073709551615 18446744073709551615 18446744073709551615 18446744073709551615 1 18446744073709551615 18446744073709551615 18446744073709551615 1 18446744073709551615 18446744073709551615 18446744073709551615 1 18446744073709551615 18446744073709551615 18446744073709551615 18446744073709551615 18446744073709551615 18446744073709551615 18446744073709551615 18446744073709551615 18446744073709551615 18446744073709551615 18446744073709551615 18446744073709551615 18446744073709551615 18446744073709551615 18446744073709551615 18446744073709551615 18446744073709551615 18446744073709551615 18446744073709551615 18446744073709551615 18446744073709551615 1 18446744073709551615 18446744073709551615 1 18446744073709551615 18446744073709551615 1 18446744073709551615 18446744073709551615 18446744073709551615 18446744073709551615 18446744073709551615 18446744073709551615 18446744073709551615 18446744073709551615 18446744073709551615 18446744073709551615 18446744073709551615 1 18446744073709551615 18446744073709551615 1 18446744073709551615 18446744073709551615 18446744073709551615 18446744073709551615 18446744073709551615 1 18446744073709551615 18446744073709551615 1 18446744073709551615 18446744073709551615 18446744073709551615 18446744073709551615 18446744073709551615 1 18446744073709551615 18446744073709551615 18446744073709551615 18446744073709551615 18446744073709551615 18446744073709551615 18446744073709551615 18446744073709551615 1 18446744073709551615 18446744073709551615 18446744073709551615 1 18446744073709551615 1 18446744073709551615 18446744073709551615 18446744073709551615 18446744073709551615 18446744073709551615 18446744073709551615 18446744073709551615 18446744073709551615 18446744073709551615 1 18446744073709551615 18446744073709551615 18446744073709551615 1 18446744073709551615 18446744073709551615 18446744073709551615 18446744073709551615 18446744073709551615 18446744073709551615 18446744073709551615 18446744073709551615 18446744073709551615 18446744073709551615 18446744073709551615 18446744073709551615 18446744073709551615 18446744073709551615 18446744073709551615 18446744073709551615 18446744073709551615 18446744073709551615 18446744073709551615 18446744073709551615 18446744073709551615 18446744073709551615 18446744073709551615 18446744073709551615 18446744073709551615 18446744073709551615 18446744073709551615 18446744073709551615 18446744073709551615 18446744073709551615 18446744073709551615 18446744073709551615 18446744073709551615 18446744073709551615 18446744073709551615 18446744073709551615 18446744073709551615 18446744073709551615 18446744073709551615 18446744073709551615 18446744073709551615 18446744073709551615 18446744073709551615 18446744073709551615 18446744073709551615 18446744073709551615 18446744073709551615 18446744073709551615 18446744073709551615 18446744073709551615 18446744073709551615 18446744073709551615 18446744073709551615 18446744073709551615 18446744073709551615 18446744073709551615 18446744073709551615 18446744073709551615 18446744073709551615 18446744073709551615 18446744073709551615 18446744073709551615 18446744073709551615 18446744073709551615 18446744073709551615 18446744073709551615 18446744073709551615 18446744073709551615 18446744073709551615 18446744073709551615 18446744073709551615 18446744073709551615 18446744073709551615 18446744073709551615 18446744073709551615 18446744073709551615 18446744073709551615 18446744073709551615 18446744073709551615 18446744073709551615 18446744073709551615 18446744073709551615 18446744073709551615 18446744073709551615 18446744073709551615 18446744073709551615 18446744073709551615 18446744073709551615 18446744073709551615 18446744073709551615 18446744073709551615 18446744073709551615 18446744073709551615 18446744073709551615 18446744073709551615 18446744073709551615 18446744073709551615 18446744073709551615 18446744073709551615 18446744073709551615 18446744073709551615 18446744073709551615 18446744073709551615 18446744073709551615 18446744073709551615 18446744073709551615 18446744073709551615 18446744073709551615 18446744073709551615 18446744073709551615 18446744073709551615 18446744073709551615 18446744073709551615 18446744073709551615 18446744073709551615 18446744073709551615 18446744073709551615 18446744073709551615 18446744073709551615 18446744073709551615 18446744073709551615 18446744073709551615 18446744073709551615 18446744073709551615 18446744073709551615 18446744073709551615 18446744073709551615 18446744073709551615 18446744073709551615 18446744073709551615 18446744073709551615 18446744073709551615 18446744073709551615 18446744073709551615 18446744073709551615 18446744073709551615 18446744073709551615 18446744073709551615 18446744073709551615 18446744073709551615 18446744073709551615 18446744073709551615 18446744073709551615 18446744073709551615 18446744073709551615 18446744073709551615 18446744073709551615 18446744073709551615 18446744073709551615 18446744073709551615 18446744073709551615 18446744073709551615 18446744073709551615 18446744073709551615 18446744073709551615 18446744073709551615 18446744073709551615 18446744073709551615 18446744073709551615 18446744073709551615 18446744073709551615 18446744073709551615 18446744073709551615 18446744073709551615 18446744073709551615 18446744073709551615 18446744073709551615 18446744073709551615 18446744073709551615 18446744073709551615 18446744073709551615 18446744073709551615 18446744073709551615 18446744073709551615 18446744073709551615 18446744073709551615 18446744073709551615 18446744073709551615 18446744073709551615 18446744073709551615 18446744073709551615 18446744073709551615 18446744073709551615 18446744073709551615 18446744073709551615 18446744073709551615 18446744073709551615 18446744073709551615 18446744073709551615 18446744073709551615 18446744073709551615 18446744073709551615 18446744073709551615 18446744073709551615 18446744073709551615 18446744073709551615 18446744073709551615 18446744073709551615 18446744073709551615 18446744073709551615 18446744073709551615 18446744073709551615 18446744073709551615 18446744073709551615 18446744073709551615 18446744073709551615 18446744073709551615 18446744073709551615 18446744073709551615 18446744073709551615 18446744073709551615 18446744073709551615 18446744073709551615 18446744073709551615 18446744073709551615 18446744073709551615 18446744073709551615 18446744073709551615 18446744073709551615 18446744073709551615 18446744073709551615 18446744073709551615 18446744073709551615 18446744073709551615 18446744073709551615 18446744073709551615 18446744073709551615 18446744073709551615 18446744073709551615 18446744073709551615 18446744073709551615 18446744073709551615 18446744073709551615 18446744073709551615 18446744073709551615 18446744073709551615 18446744073709551615 18446744073709551615 18446744073709551615 18446744073709551615 18446744073709551615 18446744073709551615 18446744073709551615 18446744073709551615 18446744073709551615 18446744073709551615 18446744073709551615 18446744073709551615 18446744073709551615 18446744073709551615 18446744073709551615 18446744073709551615 18446744073709551615 18446744073709551615 18446744073709551615 18446744073709551615 18446744073709551615 18446744073709551615 18446744073709551615 18446744073709551615 18446744073709551615 18446744073709551615 18446744073709551615 18446744073709551615 18446744073709551615 18446744073709551615 18446744073709551615 18446744073709551615 18446744073709551615 18446744073709551615 18446744073709551615 18446744073709551615 18446744073709551615 18446744073709551615 18446744073709551615 18446744073709551615 18446744073709551615 18446744073709551615 18446744073709551615 18446744073709551615 18446744073709551615 18446744073709551615 18446744073709551615 18446744073709551615 18446744073709551615 18446744073709551615 18446744073709551615 18446744073709551615 18446744073709551615 18446744073709551615 18446744073709551615 18446744073709551615 18446744073709551615 18446744073709551615 18446744073709551615 18446744073709551615 18446744073709551615 18446744073709551615 18446744073709551615 18446744073709551615 18446744073709551615 18446744073709551615 18446744073709551615 18446744073709551615 18446744073709551615 18446744073709551615 18446744073709551615 18446744073709551615 18446744073709551615 18446744073709551615 18446744073709551615 18446744073709551615 18446744073709551615 18446744073709551615 18446744073709551615 18446744073709551615 18446744073709551615 18446744073709551615 18446744073709551615 18446744073709551615 18446744073709551615 18446744073709551615 18446744073709551615 18446744073709551615 18446744073709551615 18446744073709551615 18446744073709551615 18446744073709551615 18446744073709551615 18446744073709551615 18446744073709551615 18446744073709551615 18446744073709551615 18446744073709551615 18446744073709551615 18446744073709551615 18446744073709551615 18446744073709551615 18446744073709551615 18446744073709551615 18446744073709551615 18446744073709551615 18446744073709551615 18446744073709551615 18446744073709551615 18446744073709551615 18446744073709551615 18446744073709551615 5 5 5 5 5 5 5 5 5 5 5 5 5 1 18446744073709551615 18446744073709551615 1 18446744073709551615 18446744073709551615 1 18446744073709551615 18446744073709551615 18446744073709551615 18446744073709551615 18446744073709551615 18446744073709551615 18446744073709551615 18446744073709551615 18446744073709551615 18446744073709551615 1 18446744073709551615 18446744073709551615 1 18446744073709551615 18446744073709551615 18446744073709551615 18446744073709551615 18446744073709551615 18446744073709551615 18446744073709551615 18446744073709551615 18446744073709551615 18446744073709551615 1 18446744073709551615 18446744073709551615 1 18446744073709551615 18446744073709551615 18446744073709551615 18446744073709551615 18446744073709551615 18446744073709551615 18446744073709551615 1 18446744073709551615 18446744073709551615 18446744073709551615 18446744073709551615 18446744073709551615 18446744073709551615 18446744073709551615 18446744073709551615 18446744073709551615 18446744073709551615 18446744073709551615 18446744073709551615 18446744073709551615 18446744073709551615 18446744073709551615 18446744073709551615 18446744073709551615 18446744073709551615 18446744073709551615 18446744073709551615 18446744073709551615 18446744073709551615 18446744073709551615 18446744073709551615 18446744073709551615 18446744073709551615 18446744073709551615 18446744073709551615 18446744073709551615 18446744073709551615 18446744073709551615 18446744073709551615 18446744073709551615 18446744073709551615 18446744073709551615 18446744073709551615 18446744073709551615 18446744073709551615 18446744073709551615 18446744073709551615 18446744073709551615 18446744073709551615 18446744073709551615 18446744073709551615 18446744073709551615 18446744073709551615 18446744073709551615 18446744073709551615 18446744073709551615 18446744073709551615 18446744073709551615 18446744073709551615 18446744073709551615 18446744073709551615 18446744073709551615 18446744073709551615 18446744073709551615 18446744073709551615 18446744073709551615 18446744073709551615 18446744073709551615 18446744073709551615 18446744073709551615 18446744073709551615 18446744073709551615 18446744073709551615 18446744073709551615 18446744073709551615 18446744073709551615 18446744073709551615 18446744073709551615 18446744073709551615 18446744073709551615 18446744073709551615 18446744073709551615 18446744073709551615 18446744073709551615 18446744073709551615 18446744073709551615 18446744073709551615 18446744073709551615 18446744073709551615 18446744073709551615 18446744073709551615 18446744073709551615 18446744073709551615 18446744073709551615 18446744073709551615 18446744073709551615 18446744073709551615 18446744073709551615 18446744073709551615 18446744073709551615 18446744073709551615 18446744073709551615 18446744073709551615 18446744073709551615 18446744073709551615 18446744073709551615 18446744073709551615 18446744073709551615 18446744073709551615 18446744073709551615 18446744073709551615 18446744073709551615 18446744073709551615 18446744073709551615 18446744073709551615 18446744073709551615 18446744073709551615 18446744073709551615 18446744073709551615 18446744073709551615 18446744073709551615 18446744073709551615 18446744073709551615 18446744073709551615 18446744073709551615 18446744073709551615 18446744073709551615 18446744073709551615 18446744073709551615 18446744073709551615 18446744073709551615 18446744073709551615 18446744073709551615 18446744073709551615 18446744073709551615 18446744073709551615 18446744073709551615 18446744073709551615 18446744073709551615 18446744073709551615 18446744073709551615 18446744073709551615 18446744073709551615 18446744073709551615 18446744073709551615 18446744073709551615 18446744073709551615 18446744073709551615 18446744073709551615 18446744073709551615 18446744073709551615 18446744073709551615 18446744073709551615 18446744073709551615 18446744073709551615 18446744073709551615 18446744073709551615 18446744073709551615 18446744073709551615 18446744073709551615 18446744073709551615 18446744073709551615 18446744073709551615 18446744073709551615 18446744073709551615 18446744073709551615 18446744073709551615 18446744073709551615 18446744073709551615 18446744073709551615 18446744073709551615 18446744073709551615 18446744073709551615 18446744073709551615 18446744073709551615 18446744073709551615 18446744073709551615 18446744073709551615 18446744073709551615 18446744073709551615 18446744073709551615 18446744073709551615 18446744073709551615 18446744073709551615 18446744073709551615 18446744073709551615 18446744073709551615 18446744073709551615 18446744073709551615 18446744073709551615 18446744073709551615 18446744073709551615 18446744073709551615 18446744073709551615 18446744073709551615 18446744073709551615 18446744073709551615 18446744073709551615 18446744073709551615 18446744073709551615 18446744073709551615 18446744073709551615 18446744073709551615 18446744073709551615 18446744073709551615 18446744073709551615 18446744073709551615 18446744073709551615 18446744073709551615 18446744073709551615 18446744073709551615 18446744073709551615 18446744073709551615 18446744073709551615 18446744073709551615 18446744073709551615 18446744073709551615 18446744073709551615 18446744073709551615 18446744073709551615 18446744073709551615 18446744073709551615 18446744073709551615 18446744073709551615 18446744073709551615 18446744073709551615 18446744073709551615 18446744073709551615 18446744073709551615 18446744073709551615 18446744073709551615 18446744073709551615 18446744073709551615 18446744073709551615 18446744073709551615 18446744073709551615 18446744073709551615 18446744073709551615 18446744073709551615 18446744073709551615 18446744073709551615 18446744073709551615 18446744073709551615 18446744073709551615 18446744073709551615 18446744073709551615 18446744073709551615 18446744073709551615 18446744073709551615 18446744073709551615 18446744073709551615 18446744073709551615 18446744073709551615 18446744073709551615 18446744073709551615 18446744073709551615 18446744073709551615 18446744073709551615 18446744073709551615 18446744073709551615 18446744073709551615 18446744073709551615 18446744073709551615 18446744073709551615 18446744073709551615 18446744073709551615 18446744073709551615 18446744073709551615 18446744073709551615 18446744073709551615 18446744073709551615 18446744073709551615 18446744073709551615 18446744073709551615 18446744073709551615 18446744073709551615 18446744073709551615 18446744073709551615 18446744073709551615 18446744073709551615 18446744073709551615 18446744073709551615 18446744073709551615 18446744073709551615 18446744073709551615 18446744073709551615 18446744073709551615 18446744073709551615 18446744073709551615 18446744073709551615 18446744073709551615 18446744073709551615 18446744073709551615 18446744073709551615 18446744073709551615 18446744073709551615 18446744073709551615 18446744073709551615 18446744073709551615 18446744073709551615 18446744073709551615 18446744073709551615 18446744073709551615 18446744073709551615 18446744073709551615 18446744073709551615 18446744073709551615 18446744073709551615 18446744073709551615 18446744073709551615 18446744073709551615 18446744073709551615 18446744073709551615 18446744073709551615 18446744073709551615 18446744073709551615 18446744073709551615 18446744073709551615 18446744073709551615 18446744073709551615 18446744073709551615 18446744073709551615 18446744073709551615 18446744073709551615 18446744073709551615 18446744073709551615 18446744073709551615 18446744073709551615 18446744073709551615 18446744073709551615 5 5 5 5 5 5 5 5 5 5 5 5 5 18446744073709551615 1 18446744073709551615 18446744073709551615 18446744073709551615 18446744073709551615 18446744073709551615 18446744073709551615 18446744073709551615 1 18446744073709551615 18446744073709551615 18446744073709551615 1 18446744073709551615 18446744073709551615 18446744073709551615 18446744073709551615 18446744073709551615 18446744073709551615 1 18446744073709551615 18446744073709551615 18446744073709551615 1 18446744073709551615 18446744073709551615 18446744073709551615 18446744073709551615 18446744073709551615 18446744073709551615 18446744073709551615 18446744073709551615 18446744073709551615 18446744073709551615 18446744073709551615 18446744073709551615 18446744073709551615 18446744073709551615 18446744073709551615 18446744073709551615 18446744073709551615 18446744073709551615 18446744073709551615 18446744073709551615 18446744073709551615 18446744073709551615 18446744073709551615 18446744073709551615 18446744073709551615 18446744073709551615 18446744073709551615 18446744073709551615 18446744073709551615 18446744073709551615 18446744073709551615 18446744073709551615 18446744073709551615 18446744073709551615 18446744073709551615 18446744073709551615 18446744073709551615 18446744073709551615 18446744073709551615 18446744073709551615 18446744073709551615 18446744073709551615 18446744073709551615 18446744073709551615 18446744073709551615 18446744073709551615 18446744073709551615 18446744073709551615 18446744073709551615 18446744073709551615 18446744073709551615 18446744073709551615 18446744073709551615 18446744073709551615 18446744073709551615 18446744073709551615 18446744073709551615 18446744073709551615 18446744073709551615 18446744073709551615 18446744073709551615 18446744073709551615 18446744073709551615 18446744073709551615 18446744073709551615 18446744073709551615 18446744073709551615 18446744073709551615 18446744073709551615 18446744073709551615 18446744073709551615 18446744073709551615 18446744073709551615 18446744073709551615 18446744073709551615 18446744073709551615 18446744073709551615 18446744073709551615 18446744073709551615 18446744073709551615 18446744073709551615 18446744073709551615 18446744073709551615 18446744073709551615 18446744073709551615 18446744073709551615 18446744073709551615 18446744073709551615 18446744073709551615 18446744073709551615 18446744073709551615 18446744073709551615 18446744073709551615 18446744073709551615 18446744073709551615 18446744073709551615 18446744073709551615 18446744073709551615 18446744073709551615 18446744073709551615 18446744073709551615 18446744073709551615 18446744073709551615 18446744073709551615 18446744073709551615 18446744073709551615 18446744073709551615 18446744073709551615 18446744073709551615 18446744073709551615 18446744073709551615 18446744073709551615 18446744073709551615 18446744073709551615 18446744073709551615 18446744073709551615 18446744073709551615 18