<?xml version="1.0"?>
<VTKFile type="UnstructuredGrid"  version="0.1"  >
<UnstructuredGrid>
<Piece  NumberOfPoints="733" NumberOfCells="6497">
<Points>
<DataArray  type="Float64"  NumberOfComponents="3"  format="ascii">10.25220847933876 4.338582036304633 1.513752386824482  10.14336783038785 4.331954493910048 1.621781776658025  10.26027845163239 4.366907562698741 1.629653349419529  10.24225241697515 4.431229062149934 1.616532640680742  10.12586420424736 4.396314604043849 1.609341889855246  10.23549912427386 4.403448301860593 1.495291700279745  10.22473875683696 4.495401663270222 1.603521896470008  10.1087946349225 4.460610207189747 1.596948778628717  10.21922561861116 4.468245919427577 1.476943745927814  10.20753699671294 4.559386217584593 1.590549520738273  10.09199153817808 4.524783279293167 1.584568404729446  10.20322677820336 4.532893703818655 1.458658292381387  10.19048052480231 4.62315116289204 1.577567612528617  10.07529515858642 4.588804190898318 1.572167383108527  10.18734279175933 4.597340709250579 1.440385915394989  10.17338315597876 4.686649592230349 1.564504272108333  10.05853699500224 4.652641933159619 1.559718670842898  10.17139950385488 4.661542135690604 1.422067613438369  10.15590331993107 4.749846415798849 1.551386892948414  10.04152269317798 4.716279503271734 1.547198439681895  10.15513669380878 4.725478467217985 1.403675198670255  10.03617965698703 3.7065987064617 0.8692861443173574  9.93207089939734 3.613033129566723 0.8549644709563538  9.931977610504457 3.763632443341138 0.8989465602554592  9.922833102748845 3.792880943092879 0.8301013101604666  9.922745689267213 3.629628062241274 0.7832060709439241  10.02725011340499 3.730846877888712 0.7994702623091356  10.01846750119299 3.75534218828326 0.7295762053531251  9.913496770347898 3.646418800997101 0.7112983073691115  9.913794933025677 3.822372287331357 0.7611952339182206  10.00974304586449 3.779923459886191 0.6595999060537445  9.904275376617283 3.66324784925729 0.639283908347778  9.904790567054796 3.851921006923815 0.6922225734026943  10.00100262995815 3.80446390192767 0.5895508466232299  9.895028105200479 3.68001602730062 0.5671743945447697  9.895764005211769 3.881413824402447 0.6231581243087723  9.992179912609018 3.828866673384242 0.5194155651032909  9.885700840397487 3.696639415200236 0.4949641805165525  9.886672161557451 3.910763468467415 0.5539779766139492  9.983224894082875 3.853048622630048 0.4491648369210692  9.877480323503413 3.9399274210146 0.4846400098768958  10.11690508424155 4.297437889250502 1.502514823399019  10.10091210667655 4.362989191429574 1.485728011799619  10.08532106522823 4.42845203666774 1.469020483591491  10.06994304091309 4.49380901153485 1.452346765615136  10.05464940825493 4.559033743074187 1.435673867722463  10.03930265474628 4.624101760110408 1.418972197005224  10.02374335150811 4.688996292053606 1.402195455666293  9.82988938536654 4.265518696504096 1.883244591082174  9.789196938333424 4.257904621376162 1.777621041032954  9.696650413065058 4.244299953148792 1.851032447883822  9.686520353310428 4.307572296726192 1.85355883090693  9.777381723782227 4.322087704745865 1.777301290293323  9.816644918395466 4.327435900718652 1.886192719448414  9.676441577017375 4.370908350777144 1.855965813188521  9.765687771588254 4.386300123759754 1.776874200709169  9.803567786825909 4.389418555965507 1.889029338621665  9.666399620967542 4.434294788835982 1.858310820774559  9.754078205108891 4.450525910666314 1.776383777678796  9.790591768362578 4.451442536522325 1.891802853906838  9.656377710066025 4.49772717266961 1.860643527054621  9.742497211510798 4.514759585807226 1.77587198777068  9.777642744598314 4.513489365569528 1.894560734943593  9.646350929809651 4.561237753178891 1.863016456943554  9.730888931668025 4.579013597001833 1.775372226122023  9.764634663635176 4.575554191705608 1.897349397356845  9.63626987133847 4.624873223613929 1.865496401863033  9.719217286054656 4.64333690163394 1.774927791634264  9.751468043842324 4.637675420494706 1.90022529256114  10.19402553348503 4.297021069651896 1.427674194377788  10.17899653124337 4.361380415732214 1.403047755633393  10.16433945044198 4.425681428488844 1.378544770598367  10.14990555859217 4.489862883451361 1.354097318262167  10.1355661454433 4.553893007108742 1.329660792693061  10.12117187824201 4.617746109642188 1.305189616536775  10.10653738403085 4.68143867225604 1.280647484391596  9.716792511945085 4.486780674009149 1.989789903098682  9.705732229954435 4.547657613558409 1.995610039075652  9.694575936848526 4.608635390988877 2.00153757478441  9.7056999700701 4.243294433754 1.707365230654933  9.695597556172189 4.309254473667909 1.705032384896883  9.685562110802609 4.375212283116864 1.702581605957062  9.675575288907485 4.4411668452484 1.70007599581938  9.665612559904895 4.507128315322534 1.697553675241504  9.655648625798237 4.573115142303231 1.695052044554796  9.645674020118175 4.639159390027605 1.692616421029403  9.833844746357018 3.697253874355352 0.8918430573322838  9.825738773122595 3.720033886581909 0.8208290426709774  9.817684300349331 3.743015601060513 0.7496905649905223  9.809640542591158 3.766048556050221 0.6784484761692664  9.801567882788312 3.789017973194629 0.6071099086176962  9.793434155164482 3.811848137717666 0.5356612630159732  9.785272124027697 3.834523712084394 0.4640890185533606  10.08902408794522 4.254683865402099 1.379782561778639  10.07659658454535 4.320004264103579 1.353919749078919  10.06441965986929 4.38528131671295 1.328171896239549  10.05240426039578 4.450485525473864 1.302468726160448  10.04045069770149 4.515584306308117 1.276760568182472  10.02844793140533 4.580561496172215 1.251004807904124  10.01632649283803 4.645421060093886 1.225156370679999  10.26073298611181 4.380728429977245 2.064421678572368  10.28143002458531 4.402502068016292 1.918303482798483  10.19260649877015 4.367619682003435 1.973992083052131  10.17139892684468 4.426901549393002 1.979104148374028  10.26190489733716 4.464062001682903 1.919436504498096  10.23979686676259 4.43903503721195 2.071864846042307  10.21947061734104 4.497240855458362 2.079223541283881  10.24295155740762 4.52545206894543 1.920562082521193  10.15076956814614 4.486145242030273 1.984131965390646  10.19947648977254 4.555282657821633 2.086516917548409  10.22432140902451 4.586646555702508 1.921660803141379  10.13043093839248 4.545294054753322 1.98911434311572  10.179605389013 4.61312772583329 2.093753589187566  10.20583961404645 4.647601463751977 1.922724545046586  10.11019276551406 4.604289028533597 1.994046609899925  10.15967922934923 4.670717881360609 2.10093031553219  10.1872967887721 4.708261529917093 1.923688598210334  10.08985992226826 4.663055884012625 1.998905049883071  10.13935733755861 4.727937678169457 2.108022612713676  10.16834376424841 4.768554942544057 1.924554107283664  10.06915904274356 4.721483967015391 2.003704426060277  9.827755008708074 4.507927967694975 2.000018929766331  9.842093029860882 4.448132808925477 1.993745698874639  9.813342635699506 4.567739807418133 2.00632412611698  9.798689653733021 4.627573559503339 2.012721828579226  9.60069820737888 4.230529523414638 1.756077321374276  9.592446202948365 4.296098225929762 1.755361452115431  9.584183787349485 4.361683406877364 1.754525922166833  9.575925375159731 4.427272832239373 1.753630409310548  9.567692494716994 4.492875669563182 1.75271630309154  9.559513236744914 4.558521934168929 1.751817456725661  9.551378847078007 4.624270951032123 1.75098529239956  10.27319509949572 4.122613079642949 1.111839953258711  10.14895482441072 4.137235482332057 1.152588811909144  10.22301874745732 4.190849848598505 1.20517355432824  10.21070626265059 4.251039169060491 1.165777336716447  10.13790993421353 4.194128209688719 1.107220601922404  10.26178791868627 4.176051488040744 1.062596935747896  10.19869156752337 4.311277587908895 1.12654887193031  10.1271011555062 4.251118676323403 1.062015064138907  10.25069452936452 4.22961136325629 1.013518756258516  10.18683894054683 4.371471579002692 1.08740851887204  10.11642715962427 4.308103553572986 1.016878507206384  10.23978513534276 4.283171834186153 0.9645364662487947  10.17503694341653 4.431559005780433 1.048298723728393  10.10578660865067 4.365009805872705 0.9717471756297006  10.22893087454274 4.336653812768518 0.9156018945747868  10.16316176670383 4.491492032444171 1.009163620717143  10.09508170011509 4.421789932753828 0.9265646516149728  10.21799344909037 4.389990625005013 0.8666675022723391  10.15107191607532 4.551251919376988 0.9699428654351268  10.08422414573221 4.478428894172552 0.8812768818708053  10.20680747121764 4.443136934045697 0.8176748317748039  10.19692537476338 4.07051445576066 1.071820238622274  10.18778457534807 4.121935254953584 1.019488475277708  10.17887618678661 4.173528302089679 0.9673168664444757  10.17011420136062 4.225152591321235 0.9152182223294458  10.16139088494257 4.276715528022262 0.8631393034709915  10.15259254308949 4.328148233056289 0.8110277585582946  10.1436285655826 4.379422895423621 0.7588124895123801  10.01474258260869 4.266511462933215 1.459492892928779  10.0006620632645 4.33319866588888 1.44151752557038  9.986846260894719 4.399843796677887 1.423576963918727  9.973189956110742 4.466421156508214 1.40565807437262  9.959591019547783 4.532913469624089 1.387729939153389  9.945953620203538 4.599328295571405 1.369758682765414  9.932160280782034 4.66570618705462 1.351708638696384  10.13870670575353 3.638161130113422 0.8327973182197145  10.16532272579726 3.739925296420981 0.8649821025319753  10.15571015977448 3.765886345216759 0.7963227552028024  10.12891886211092 3.658075662407166 0.7624722584357242  10.14634214649317 3.79215203095639 0.7276265795101231  10.11345951363196 3.807094674359508 0.8945264495113545  10.10454380100158 3.839124409596658 0.8276233968829418  10.09582373557331 3.871440040592708 0.7607118033931022  10.08718977506115 3.903846039693144 0.6937758464115847  10.13708514580313 3.818529791610541 0.6588915959965868  10.07854634098974 3.93621170326865 0.6267949469415478 
[...]
<CellData  Scalars="f">
<DataArray  type="Float64"  Name="f"  format="ascii">1 18446744073709551615 18446744073709551615 1 18446744073709551615 18446744073709551615 1 18446744073709551615 18446744073709551615 18446744073709551615 18446744073709551615 18446744073709551615 18446744073709551615 18446744073709551615 18446744073709551615 18446744073709551615 18446744073709551615 18446744073709551615 18446744073709551615 1 18446744073709551615 18446744073709551615 18446744073709551615 1 18446744073709551615 18446744073709551615 1 18446744073709551615 18446744073709551615 18446744073709551615 1 18446744073709551615 18446744073709551615 18446744073709551615 18446744073709551615 18446744073709551615 1 18446744073709551615 18446744073709551615 18446744073709551615 18446744073709551615 18446744073709551615 18446744073709551615 18446744073709551615 18446744073709551615 18446744073709551615 1 18446744073709551615 18446744073709551615 18446744073709551615 1 18446744073709551615 18446744073709551615 18446744073709551615 1 18446744073709551615 18446744073709551615 18446744073709551615 1 18446744073709551615 18446744073709551615 18446744073709551615 18446744073709551615 18446744073709551615 18446744073709551615 18446744073709551615 1 18446744073709551615 18446744073709551615 18446744073709551615 1 18446744073709551615 18446744073709551615 18446744073709551615 18446744073709551615 18446744073709551615 18446744073709551615 18446744073709551615 18446744073709551615 18446744073709551615 18446744073709551615 18446744073709551615 18446744073709551615 18446744073709551615 18446744073709551615 18446744073709551615 18446744073709551615 18446744073709551615 18446744073709551615 18446744073709551615 18446744073709551615 18446744073709551615 18446744073709551615 18446744073709551615 18446744073709551615 18446744073709551615 18446744073709551615 18446744073709551615 18446744073709551615 18446744073709551615 18446744073709551615 18446744073709551615 18446744073709551615 18446744073709551615 18446744073709551615 18446744073709551615 18446744073709551615 18446744073709551615 18446744073709551615 18446744073709551615 18446744073709551615 18446744073709551615 18446744073709551615 18446744073709551615 18446744073709551615 18446744073709551615 18446744073709551615 18446744073709551615 18446744073709551615 18446744073709551615 18446744073709551615 18446744073709551615 18446744073709551615 18446744073709551615 18446744073709551615 18446744073709551615 18446744073709551615 18446744073709551615 18446744073709551615 18446744073709551615 18446744073709551615 18446744073709551615 18446744073709551615 18446744073709551615 18446744073709551615 18446744073709551615 18446744073709551615 18446744073709551615 18446744073709551615 18446744073709551615 18446744073709551615 18446744073709551615 18446744073709551615 18446744073709551615 18446744073709551615 18446744073709551615 18446744073709551615 18446744073709551615 18446744073709551615 18446744073709551615 18446744073709551615 18446744073709551615 18446744073709551615 18446744073709551615 18446744073709551615 18446744073709551615 18446744073709551615 18446744073709551615 18446744073709551615 18446744073709551615 18446744073709551615 18446744073709551615 18446744073709551615 18446744073709551615 18446744073709551615 18446744073709551615 18446744073709551615 18446744073709551615 18446744073709551615 18446744073709551615 18446744073709551615 18446744073709551615 18446744073709551615 18446744073709551615 18446744073709551615 18446744073709551615 18446744073709551615 18446744073709551615 18446744073709551615 18446744073709551615 18446744073709551615 18446744073709551615 18446744073709551615 18446744073709551615 18446744073709551615 18446744073709551615 18446744073709551615 18446744073709551615 18446744073709551615 18446744073709551615 18446744073709551615 18446744073709551615 18446744073709551615 18446744073709551615 18446744073709551615 18446744073709551615 18446744073709551615 18446744073709551615 18446744073709551615 18446744073709551615 18446744073709551615 18446744073709551615 18446744073709551615 18446744073709551615 18446744073709551615 18446744073709551615 18446744073709551615 18446744073709551615 18446744073709551615 18446744073709551615 18446744073709551615 18446744073709551615 18446744073709551615 18446744073709551615 18446744073709551615 18446744073709551615 18446744073709551615 18446744073709551615 18446744073709551615 18446744073709551615 18446744073709551615 18446744073709551615 18446744073709551615 18446744073709551615 18446744073709551615 18446744073709551615 18446744073709551615 18446744073709551615 18446744073709551615 18446744073709551615 18446744073709551615 18446744073709551615 18446744073709551615 18446744073709551615 18446744073709551615 18446744073709551615 18446744073709551615 18446744073709551615 18446744073709551615 18446744073709551615 18446744073709551615 18446744073709551615 18446744073709551615 18446744073709551615 18446744073709551615 18446744073709551615 18446744073709551615 18446744073709551615 18446744073709551615 18446744073709551615 18446744073709551615 18446744073709551615 18446744073709551615 18446744073709551615 18446744073709551615 18446744073709551615 18446744073709551615 18446744073709551615 18446744073709551615 18446744073709551615 18446744073709551615 18446744073709551615 18446744073709551615 18446744073709551615 18446744073709551615 18446744073709551615 18446744073709551615 18446744073709551615 18446744073709551615 18446744073709551615 18446744073709551615 18446744073709551615 18446744073709551615 18446744073709551615 18446744073709551615 18446744073709551615 18446744073709551615 18446744073709551615 18446744073709551615 18446744073709551615 18446744073709551615 18446744073709551615 18446744073709551615 18446744073709551615 18446744073709551615 18446744073709551615 18446744073709551615 18446744073709551615 18446744073709551615 18446744073709551615 18446744073709551615 18446744073709551615 18446744073709551615 18446744073709551615 18446744073709551615 18446744073709551615 18446744073709551615 18446744073709551615 18446744073709551615 18446744073709551615 18446744073709551615 18446744073709551615 18446744073709551615 18446744073709551615 18446744073709551615 18446744073709551615 18446744073709551615 18446744073709551615 18446744073709551615 18446744073709551615 18446744073709551615 18446744073709551615 18446744073709551615 18446744073709551615 18446744073709551615 18446744073709551615 18446744073709551615 18446744073709551615 18446744073709551615 18446744073709551615 18446744073709551615 18446744073709551615 18446744073709551615 18446744073709551615 18446744073709551615 18446744073709551615 18446744073709551615 18446744073709551615 18446744073709551615 18446744073709551615 18446744073709551615 18446744073709551615 18446744073709551615 18446744073709551615 18446744073709551615 18446744073709551615 18446744073709551615 18446744073709551615 18446744073709551615 18446744073709551615 18446744073709551615 18446744073709551615 18446744073709551615 18446744073709551615 18446744073709551615 18446744073709551615 18446744073709551615 18446744073709551615 18446744073709551615 18446744073709551615 18446744073709551615 18446744073709551615 18446744073709551615 18446744073709551615 18446744073709551615 18446744073709551615 18446744073709551615 18446744073709551615 18446744073709551615 18446744073709551615 18446744073709551615 18446744073709551615 18446744073709551615 18446744073709551615 18446744073709551615 18446744073709551615 18446744073709551615 18446744073709551615 18446744073709551615 18446744073709551615 18446744073709551615 18446744073709551615 18446744073709551615 18446744073709551615 18446744073709551615 18446744073709551615 18446744073709551615 18446744073709551615 18446744073709551615 18446744073709551615 18446744073709551615 18446744073709551615 18446744073709551615 18446744073709551615 18446744073709551615 18446744073709551615 18446744073709551615 18446744073709551615 18446744073709551615 18446744073709551615 18446744073709551615 18446744073709551615 18446744073709551615 18446744073709551615 18446744073709551615 18446744073709551615 18446744073709551615 18446744073709551615 18446744073709551615 18446744073709551615 18446744073709551615 18446744073709551615 18446744073709551615 18446744073709551615 18446744073709551615 18446744073709551615 18446744073709551615 18446744073709551615 18446744073709551615 18446744073709551615 18446744073709551615 18446744073709551615 18446744073709551615 18446744073709551615 18446744073709551615 18446744073709551615 18446744073709551615 18446744073709551615 18446744073709551615 18446744073709551615 18446744073709551615 18446744073709551615 18446744073709551615 18446744073709551615 18446744073709551615 18446744073709551615 18446744073709551615 18446744073709551615 18446744073709551615 18446744073709551615 18446744073709551615 18446744073709551615 18446744073709551615 18446744073709551615 18446744073709551615 18446744073709551615 18446744073709551615 18446744073709551615 18446744073709551615 5 5 5 5 5 18446744073709551615 5 18446744073709551615 18446744073709551615 5 5 5 5 18446744073709551615 18446744073709551615 5 5 5 5 1 18446744073709551615 18446744073709551615 18446744073709551615 1 18446744073709551615 18446744073709551615 18446744073709551615 18446744073709551615 18446744073709551615 18446744073709551615 18446744073709551615 18446744073709551615 18446744073709551615 1 18446744073709551615 18446744073709551615 18446744073709551615 1 18446744073709551615 18446744073709551615 18446744073709551615 18446744073709551615 1 18446744073709551615 18446744073709551615 18446744073709551615 18446744073709551615 1 18446744073709551615 18446744073709551615 18446744073709551615 18446744073709551615 18446744073709551615 18446744073709551615 18446744073709551615 18446744073709551615 18446744073709551615 18446744073709551615 1 18446744073709551615 18446744073709551615 18446744073709551615 1 18446744073709551615 1 18446744073709551615 18446744073709551615 18446744073709551615 18446744073709551615 18446744073709551615 18446744073709551615 18446744073709551615 18446744073709551615 18446744073709551615 18446744073709551615 18446744073709551615 18446744073709551615 18446744073709551615 18446744073709551615 18446744073709551615 18446744073709551615 18446744073709551615 18446744073709551615 18446744073709551615 18446744073709551615 18446744073709551615 18446744073709551615 18446744073709551615 18446744073709551615 18446744073709551615 18446744073709551615 18446744073709551615 18446744073709551615 18446744073709551615 18446744073709551615 18446744073709551615 18446744073709551615 18446744073709551615 18446744073709551615 18446744073709551615 18446744073709551615 18446744073709551615 18446744073709551615 18446744073709551615 18446744073709551615 18446744073709551615 18446744073709551615 18446744073709551615 18446744073709551615 18446744073709551615 18446744073709551615 18446744073709551615 18446744073709551615 18446744073709551615 18446744073709551615 18446744073709551615 18446744073709551615 18446744073709551615 18446744073709551615 18446744073709551615 18446744073709551615 18446744073709551615 18446744073709551615 18446744073709551615 18446744073709551615 18446744073709551615 18446744073709551615 18446744073709551615 18446744073709551615 18446744073709551615 18446744073709551615 18446744073709551615 18446744073709551615 18446744073709551615 18446744073709551615 18446744073709551615 18446744073709551615 18446744073709551615 18446744073709551615 18446744073709551615 18446744073709551615 18446744073709551615 18446744073709551615 18446744073709551615 18446744073709551615 18446744073709551615 18446744073709551615 18446744073709551615 18446744073709551615 18446744073709551615 18446744073709551615 18446744073709551615 18446744073709551615 18446744073709551615 18446744073709551615 18446744073709551615 18446744073709551615 18446744073709551615 18446744073709551615 18446744073709551615 18446744073709551615 18446744073709551615 18446744073709551615 18446744073709551615 18446744073709551615 18446744073709551615 18446744073709551615 18446744073709551615 18446744073709551615 18446744073709551615 18446744073709551615 18446744073709551615 18446744073709551615 18446744073709551615 18446744073709551615 18446744073709551615 18446744073709551615 18446744073709551615 18446744073709551615 18446744073709551615 18446744073709551615 18446744073709551615 18446744073709551615 18446744073709551615 18446744073709551615 18446744073709551615 18446744073709551615 18446744073709551615 18446744073709551615 18446744073709551615 18446744073709551615 18446744073709551615 18446744073709551615 18446744073709551615 18446744073709551615 18446744073709551615 18446744073709551615 18446744073709551615 18446744073709551615 18446744073709551615 18446744073709551615 18446744073709551615 18446744073709551615 18446744073709551615 18446744073709551615 18446744073709551615 18446744073709551615 18446744073709551615 18446744073709551615 18446744073709551615 18446744073709551615 18446744073709551615 18446744073709551615 18446744073709551615 18446744073709551615 18446744073709551615 18446744073709551615 18446744073709551615 18446744073709551615 18446744073709551615 18446744073709551615 18446744073709551615 18446744073709551615 18446744073709551615 18446744073709551615 18446744073709551615 18446744073709551615 18446744073709551615 18446744073709551615 18446744073709551615 18446744073709551615 18446744073709551615 18446744073709551615 18446744073709551615 18446744073709551615 18446744073709551615 18446744073709551615 18446744073709551615 18446744073709551615 18446744073709551615 18446744073709551615 18446744073709551615 18446744073709551615 18446744073709551615 18446744073709551615 18446744073709551615 18446744073709551615 18446744073709551615 18446744073709551615 18446744073709551615 18446744073709551615 18446744073709551615 18446744073709551615 18446744073709551615 18446744073709551615 18446744073709551615 18446744073709551615 18446744073709551615 18446744073709551615 18446744073709551615 18446744073709551615 18446744073709551615 18446744073709551615 18446744073709551615 18446744073709551615 18446744073709551615 18446744073709551615 18446744073709551615 18446744073709551615 18446744073709551615 18446744073709551615 18446744073709551615 18446744073709551615 18446744073709551615 18446744073709551615 18446744073709551615 18446744073709551615 18446744073709551615 18446744073709551615 18446744073709551615 18446744073709551615 18446744073709551615 18446744073709551615 18446744073709551615 18446744073709551615 18446744073709551615 18446744073709551615 18446744073709551615 18446744073709551615 18446744073709551615 18446744073709551615 18446744073709551615 18446744073709551615 18446744073709551615 18446744073709551615 18446744073709551615 18446744073709551615 18446744073709551615 18446744073709551615 5 5 5 5 5 5 18446744073709551615 18446744073709551615 18446744073709551615 18446744073709551615 18446744073709551615 1 18446744073709551615 18446744073709551615 18446744073709551615 1 18446744073709551615 18446744073709551615 18446744073709551615 1 18446744073709551615 18446744073709551615 18446744073709551615 18446744073709551615 18446744073709551615 18446744073709551615 18446744073709551615 18446744073709551615 18446744073709551615 18446744073709551615 18446744073709551615 18446744073709551615 18446744073709551615 18446744073709551615 18446744073709551615 18446744073709551615 18446744073709551615 18446744073709551615 18446744073709551615 18446744073709551615 18446744073709551615 18446744073709551615 18446744073709551615 18446744073709551615 18446744073709551615 18446744073709551615 18446744073709551615 18446744073709551615 18446744073709551615 18446744073709551615 18446744073709551615 18446744073709551615 18446744073709551615 18446744073709551615 18446744073709551615 18446744073709551615 18446744073709551615 18446744073709551615 18446744073709551615 18446744073709551615 18446744073709551615 18446744073709551615 18446744073709551615 18446744073709551615 18446744073709551615 18446744073709551615 18446744073709551615 18446744073709551615 18446744073709551615 18446744073709551615 18446744073709551615 18446744073709551615 18446744073709551615 18446744073709551615 18446744073709551615 18446744073709551615 18446744073709551615 18446744073709551615 18446744073709551615 18446744073709551615 18446744073709551615 18446744073709551615 18446744073709551615 18446744073709551615 18446744073709551615 18446744073709551615 18446744073709551615 18446744073709551615 18446744073709551615 18446744073709551615 18446744073709551615 18446744073709551615 18446744073709551615 18446744073709551615 18446744073709551615 18446744073709551615 18446744073709551615 18446744073709551615 18446744073709551615 18446744073709551615 18446744073709551615 18446744073709551615 18446744073709551615 18446744073709551615 18446744073709551615 18446744073709551615 18446744073709551615 18446744073709551615 5 5 5 1 18446744073709551615 18446744073709551615 1 18446744073709551615 18446744073709551615 18446744073709551615 18446744073709551615 18446744073709551615 18446744073709551615 18446744073709551615 18446744073709551615 18446744073709551615 18446744073709551615 1 18446744073709551615 1 18446744073709551615 18446744073709551615 18446744073709551615 18446744073709551615 18446744073709551615 18446744073709551615 1 18446744073709551615 18446744073709551615 18446744073709551615 18446744073709551615 18446744073709551615 18446744073709551615 18446744073709551615 1 18446744073709551615 18446744073709551615 18446744073709551615 1 18446744073709551615 18446744073709551615 18446744073709551615 18446744073709551615 18446744073709551615 18446744073709551615 1 18446744073709551615 18446744073709551615 18446744073709551615 18446744073709551615 18446744073709551615 18446744073709551615 18446744073709551615 18446744073709551615 18446744073709551615 18446744073709551615 18446744073709551615 18446744073709551615 18446744073709551615 18446744073709551615 18446744073709551615 18446744073709551615 18446744073709551615 18446744073709551615 18446744073709551615 18446744073709551615 18446744073709551615 18446744073709551615 18446744073709551615 18446744073709551615 18446744073709551615 18446744073709551615 18446744073709551615 18446744073709551615 18446744073709551615 18446744073709551615 18446744073709551615 18446744073709551615 18446744073709551615 18446744073709551615 18446744073709551615 18446744073709551615 18446744073709551615 18446744073709551615 18446744073709551615 18446744073709551615 18446744073709551615 18446744073709551615 18446744073709551615 18446744073709551615 18446744073709551615 18446744073709551615 18446744073709551615 18446744073709551615 18446744073709551615 18446744073709551615 18446744073709551615 18446744073709551615 18446744073709551615 18446744073709551615 18446744073709551615 18446744073709551615 18446744073709551615 18446744073709551615 18446744073709551615 18446744073709551615 18446744073709551615 18446744073709551615 18446744073709551615 18446744073709551615 18446744073709551615 18446744073709551615 18446744073709551615 18446744073709551615 18446744073709551615 18446744073709551615 18446744073709551615 18446744073709551615 18446744073709551615 18446744073709551615 18446744073709551615 18446744073709551615 18446744073709551615 18446744073709551615 18446744073709551615 18446744073709551615 18446744073709551615 18446744073709551615 18446744073709551615 18446744073709551615 18446744073709551615 18446744073709551615 18446744073709551615 18446744073709551615 18446744073709551615 18446744073709551615 18446744073709551615 18446744073709551615 18446744073709551615 18446744073709551615 18446744073709551615 18446744073709551615 18446744073709551615 18446744073709551615 18446744073709551615 18446744073709551615 18446744073709551615 18446744073709551615 18446744073709551615 18446744073709551615 18446744073709551615 18446744073709551615 18446744073709551615 18446744073709551615 184467