<?xml version="1.0"?>
<VTKFile type="UnstructuredGrid"  version="0.1"  >
<UnstructuredGrid>
<Piece  NumberOfPoints="343" NumberOfCells="1346">
<Points>
<DataArray  type="Float64"  NumberOfComponents="3"  format="ascii">0.7774620075900223 0.6213786897703732 0.6301803247013167  1.111892032715658 0.6950153870911676 0.6782986928341398  0.9398731368034582 0.9099149963248007 0.6065948067581353  0.9918676312209388 0.6543886671119523 0.8433271873984621  0.941138706865577 1.555920911307085 0.1704413559358486  1.182595711909019 1.604297419826286 0.2395450545717993  1.105979666019659 1.665697729685953 0  1.023406865707056 1.70983381097968 0.2701021146961656  1.103193596384578 0.3504086635323349 0.7926247744809052  1.167609977272698 0.4754420500101144 1  0.9531946147586513 0.2860445573368379 1  1.298466289634289 0.2582810036338386 1  0.3335227193744119 1.455823083785915 0.5059548517043282  0.5147335164951123 1.695375458309009 0.4045574146742378  0.3114922696473099 1.749879024378842 0.4952208711948659  0.362054055747579 1.621275077683425 0.6647683656809289  -0.08003934538014729 1.295501408685772 0.6971819095783099  0.04160764913545779 0.9959020042462563 0.6951876610204599  -0.1158014551741539 0.9885945521690958 0.5360510107907983  0.07039621903639844 1.193189424248325 0.4925197764598668  0.410518663746953 1.145132281820996 0.1739528830163619  0.7253839885668945 1.031099139266958 0  0.5426779840473307 1.206243742029588 0  0.6297047863728796 1.149324118574361 0.3176746376671157  1.249304098544304 0.9818639786871559 0.6226004215358898  1.094501835405095 0.9069959230168483 0.7911110155726667  1.309593523734593 0.7964501727899614 0.7808372169612792  1.20556721898046 1.585445191179384 0.4476684804600739  1.091862571121528 1.371305525622352 0.2344987357957295  1.00357872437095 1.423058332434916 0.5177435908903606  1.334629349047023 0.1545402339819274 0.6080677862736639  1.481952171293317 0.069454883228632 0.4891924348618718  1.292228821875236 0.3076565757391458 0.3322186037030394  1.499512864842357 0.3016748379228968 0.4450803538138309  0.1491014704226533 1.206091432684536 0.1645315316658615  -0.1324954485561265 1.170160433752792 0.1730870475574952  -0.1167133356171148 1.304836660355007 0.3171019939379283  0.05531881852987598 1.314100493560312 0  0.6960222699964466 1.295807126413262 0.5330849355015431  0.8083390270524147 1.571591874322219 0.472239330174774  0.5517231384485761 1.454403164442377 0.4298188378448305  0.7915237499511695 1.458085557217198 0.6786322054571055  1.357588177110721 0.6051791325630997 0.4890122966951662  1.240163171506982 0.8056445430899435 0.4703265802928889  1.151085225078327 0.5687533494461764 0.2783924227271701  1.028457323040231 0.6449199764202236 0.4738119802244047  0.7150729101162372 0.6974000250004323 0.2407973732256986  0.7277563338502576 0.9325702370966827 0.1974234667644578  0.6474105652419927 0.7560981995049714 0  0.5740716115140515 0.8162859233710571 0.3048877041465921  0.8970303684702503 1.066138203770662 0.2442796007958575  0.9002133998610917 1.17533804169472 0.5123000448132571  0.6975758679023071 0.962264812445522 0.4999493235888443  0.8232270239921954 0.8366784538598585 0.3712692579210483  0.3749437861923043 1.759916422654703 0.1643598384089756  0.4181796157261225 1.953077165598711 0  0.2329436680789495 1.977057051227739 0  0.3259282302928117 1.967898871204744 0.2701428045681138  -0.03280364265358246 1.831764972791291 0.1909259915725535  0.1793593889274742 1.763015629161613 0.1712485623520171  0.04658873361578186 1.995411410245548 0  0.1342877826595882 1.986773807832135 0.2409428933173995  0.737989278808085 0.9484405353945584 0.8032480055582302  0.409052571906391 0.9097849337810207 0.7575866569922562  0.5740716115140516 0.8162859233710571 0.6951122958534079  0.4927023055088699 0.8650732196511788 1  1.318945904687044 1.211757931086913 0.1685462058045276  1.396119646174049 1.429062855640683 0  1.323743981377897 1.48846002871101 0.3033542810346415  0.5381140213278526 1.390649914862936 0  0.6935573934875271 1.489966702901899 0  0.6178842866238763 1.653744004512532 0  0.6728588884486792 1.610917347527578 0.2548265037722429  0.8885834835094115 1.181931362434751 0.7862592131011225  0.6369413111082657 1.134962770928983 0.6982435355650809  -0.3283769853446082 1.144478249162979 0.8173417573936155  -0.3313057231869523 0.9394647902018172 0.7658315521872423  -0.2561666640715012 1.181257425698613 0.4770501627805496  -0.1475674136574341 0.9854658783390922 0.7577188562340105  0.07700126095066522 1.682714208157353 0.7989154210002125  0.1496726080582213 1.985258534788219 0.6817345837013906  0.06405950872170407 1.993690689087629 1  0.2504144431848718 1.975336330069819 1  0.110401540764338 1.7332933916339 0.5796558032405165  -0.07750087508183946 1.800969151666767 0.8279227609020432  1.608167053419037 1.177880549733519 0.5573502448101206  1.46993186874006 1.346320609625157 0.7298905348311824  1.337407211512027 1.172612294715934 0.6929771450134057  1.59208793517882 1.197473011997568 0.7591192318740774  0.9557526506976128 1.246217261180822 0.326487242387449  0.8546900028804062 1.42338227677442 0.2943349773090908  0.2048886859813426 1.196325857895504 0.8171041573670768  0.1521457689287699 1.46939554524601 0.7744805392251949  0.05327259198751798 1.266613209591833 1  0.3072755743763494 1.298128564921423 1  -0.2079297969927716 1.979520702494411 0.6817345837013904  -0.02931156313904373 1.997113063011843 0.5912670530496571  -0.02931156313904381 1.997113063011843 0.7722021143531239  1.692680460452608 0.5205670870368633 0.4884510932914654  1.917169598334859 0.5365510013527777 0.5234405719839987  1.863111706926676 0.7147559870323206 0.7298487012854733  1.917475790756809 0.5355416202106846 0.7116028463733042  1.465303716475479 0.1555907954635532 0.7693066961510502  1.695334600029578 0.4618342482922941 1  1.769735857858306 0.3884762685421728 0.7884801425292696  1.890226041061335 0.6253720062608139 1  1.944583770390953 0.4461785874200146 1  -0.136335120665138 1.165141683417144 0.8286009011088074  -0.1920863180589073 1.285833315808135 1  -0.05320645145894509 0.9947596219281536 1  1.550998233803861 0.9111995664116754 0.1849175119678493  1.77241109869346 0.9063329948278898 0.3181289097797291  1.731901851626535 0.9821204655507698 0  1.68787056222753 1.064497214017726 0.227718517315201  1.589046394326455 0.1734990304878107 0.2392673584508079  1.590138388628021 0.4593370694758154 0.2945152002274293  0.9812655729033243 0.1902138304267845 0.7574987250233383  1.215050768910942 0.1386989957370904 0.8003094172228006  0.9901015080865125 0.1005010749780065 1  1.212161326653626 0.7531181568750674 0.1983795961898235  1.452679860600187 0.9255222884508991 0  1.402424438470243 0.9010384370198017 0.3328658404411891  1.18759127663864 1.094084956292823 0.8187586393627059  1.132894300730159 1.25777000605403 0.6977305977620669  1.233403622207101 1.350707387097658 0.8306224871848118  1.110453387798646 0.7228126356976606 1  -0.01390323686899099 1.49649430458733 1  1.396334107737673 0.6569586265601434 0.2293062230638377  0.2905179731863293 1.227597612573122 0  0.2837431250514884 1.249607101053172 0.3303922545174872  0.7586957751701788 1.078390789473408 1  0.638893776382075 1.350457219934239 1  0.7136870768114949 1.303857447958486 0.8049640593555427  0.5177585703954607 1.150958002924106 1  0.1359720426173005 0.986607922705282 1  -0.4415185705098927 1.234655578466227 0.3250771953421422  0.8445300158709623 1.604981812614957 0.8082361558247371  1.04220806685117 1.6997843595989 0.7606505371969035  0.9563164654530667 1.745694377030833 1  1.120187424138717 1.655514577971305 1  0.3491266470639922 1.27883886307539 0.653749421028249  0.1438448025419988 1.303592767475835 0.6511903400626229  1.464362911603639 0.2828702393186497 0  1.691255191910918 0.3236620266614035 0  1.244700343070279 0.08518987797507366 0.2297974176709325  1.235813838380573 0.2458186562328234 0  1.099182398949108 0.3880552209149545 0.1957914270122534  -0.2052262700167732 1.742669606420431 1  -0.2705224113918926 1.788506398788648 0.7920907391560218  -0.30865036020463 1.969600592876752 1  -0.1222954257414632 1.987954951894561 1  1.038802393529454 1.701604729914768 0.5014728633543934  1.19256308893487 1.596117404900978 0.6966893074531462  0.9567898099724369 0.9228692940619503 0  1.03031496855106 1.231174964082768 0  0.8632850317318228 1.217658577272664 0  1.079774313938461 1.133379028982271 0.1751659358748436  1.197697268132032 1.171089125397355 0.3405911527006547  1.083810992509664 1.023977793514315 0.4719324767211387  0.8818750233254947 0.4612683417535055 0  1.056155958575636 0.6874912936824367 0  1.229886675696233 0.5007899141836832 0  0.9801620048072415 0.1971449862985168 0.2440297745786687  1.098809470646287 0.4309227919496545 0.4970820672189703  0.3438338580400074 1.40181872259556 0.8224503098828937  0.4927023055088699 0.8650732196511788 0  0.9749819037011852 0.7024885010645605 0.1975389432192668  0.6123194148856593 1.595725146552285 1  0.7812639663649553 1.584748348389377 1  0.103093539495368 1.471311370500275 0.497432076544691  0.3103021914988589 1.640840135697603 0.3056135752515149  0.09546023827782463 1.799245266192117 0.3708259648659264  0.5364371386811475 1.440262568815689 0.7514707611545899  0.4446142206860653 1.462490086235967 1  1.761211515941985 0.3028647779885489 0.2630824387328117  1.91452828856335 0.5452582327623938 0.3183348412008885  1.963304819553187 0.3725724194805456 0.4088381320164703  -0.1282818058554273 1.473443331520114 0.8149455763647924  -0.1298367230950829 1.645365652865343 0.6796708863251  1.315813659229962 0.4642700054059137 0.190741969146883  1.408994663971455 0.4584005427637182 0  1.51933550996271 0.6057145881881473 0  0.2294042013770801 0.9703762788973833 0.5  1.980906185775178 0.1938627491739629 0.3183348412008982  1.972468461473285 0.2795324016947586 0  1.963304819553187 0.3725724194805407 0.2278315503853166  -0.02091362204091463 1.724262737013829 1  1.041709101276478 0.8351940240328192 0.3517222846659885  0.2294042013770801 0.9703762788973833 0.221934228947
[...]
<PointData  Vectors="f_21-0"> 
<DataArray  type="Float64"  Name="f_21-0"  NumberOfComponents="3" format="ascii">1.8107631562202436e-02 2.3484303620179014e-02 4.9808117675823854e-02  1.5111558321517749e-02 2.0499009670319375e-02 4.9586299451711918e-02  1.4881303732425032e-02 2.2236192951545389e-02 4.9515559186346057e-02  1.6305074730334514e-02 2.1627905912289580e-02 5.0264922964570420e-02  1.0284915936025017e-02 2.0003386488945007e-02 4.9646261516004125e-02  1.1081937585017519e-02 2.0418471945130273e-02 4.9699397694147614e-02  1.0410727623472636e-02 2.0417770447574743e-02 5.0231041311601318e-02  9.4254173193971010e-03 1.9606063997794958e-02 4.9681831786137082e-02  1.5826659600183823e-02 1.7051788730721745e-02 4.9476044464570254e-02  1.5254071233996533e-02 1.8137878512559213e-02 4.9671345395046237e-02  1.9761739942841697e-02 1.6765193664604921e-02 5.0142163564476337e-02  1.3008857129839749e-02 1.3850538314664370e-02 4.8576871359462960e-02  5.4131003808707071e-03 1.7882357770869810e-02 4.9185392403866553e-02  5.6967119988641599e-03 1.6735527443925560e-02 4.9426260235556005e-02  3.3180483126679984e-03 1.5070869988116155e-02 4.9216694882049696e-02  4.6447128000983865e-03 1.6433546323049976e-02 4.8788288978664621e-02  -1.4690600584788926e-03 1.9453831204578841e-02 4.8554457468745364e-02  1.4499630815855921e-03 2.6108017038295225e-02 4.8817907323588906e-02  -3.1137551775276442e-03 2.6169965630846916e-02 4.9144881672634595e-02  1.9356352556418556e-03 2.1402997998041622e-02 4.9212697073312182e-02  9.2921698325842510e-03 2.2200892778716536e-02 4.9247644402631935e-02  1.3781861142936440e-02 2.3350860041940348e-02 4.8071595766406759e-02  1.0216254704290988e-02 2.1855720673308078e-02 4.9101264211425001e-02  1.1696196260826878e-02 2.1987301500070722e-02 4.9021866663423966e-02  1.3877870949770853e-02 2.0580686997191806e-02 4.9310182930791417e-02  1.4648443736966754e-02 2.1442014775440936e-02 4.9761137108996614e-02  1.3756636731903256e-02 1.9542388892551481e-02 4.9397230271723498e-02  1.1248202626965933e-02 2.0391196288936108e-02 4.9310145066084707e-02  1.2309796762235856e-02 2.0914525994743024e-02 4.9351967670045904e-02  1.1556144574081540e-02 2.0563660218154152e-02 4.9211589608400802e-02  1.1731486960575733e-02 1.2007188897004188e-02 4.9016717276677432e-02  9.5986656310532176e-03 1.0200603212548478e-02 4.9259809606636763e-02  1.2778708652336030e-02 1.4757846272588188e-02 4.9377072658330114e-02  1.0166777053358745e-02 1.3287383725535534e-02 4.9338697813743781e-02  3.7635918737064285e-03 2.1224567349216406e-02 5.0106206704750099e-02  -3.0269868637035268e-03 2.1953164405447322e-02 5.0030514411723410e-02  -2.1872286342309254e-03 1.9336560487442506e-02 4.9806165521202345e-02  1.3166504691997304e-03 1.9440504952646057e-02 5.0948928716924642e-02  1.0816205855027426e-02 2.0737038303943113e-02 4.9226480687968595e-02  9.2277877577424793e-03 1.9231665582716037e-02 4.9262837747510800e-02  8.0421497706340047e-03 1.8901789109180174e-02 4.9317157562298548e-02  1.0080060817484957e-02 1.9882745329596607e-02 4.9094577358633137e-02  1.2909484840185280e-02 1.7732685131644110e-02 4.9235780146385598e-02  1.4048888874622766e-02 2.0011107839558777e-02 4.9191311890631591e-02  1.4941110049423561e-02 1.9256152212044873e-02 4.8891011839556554e-02  1.5810472272268422e-02 2.0967222480109685e-02 4.9178397669852325e-02  1.7377426391545873e-02 2.4661593601537916e-02 4.8034957598802330e-02  1.4735274759535583e-02 2.3552125705847259e-02 4.8301216107290559e-02  1.6815726881917369e-02 2.6000695630856725e-02 4.7005430468099602e-02  1.5008339663584332e-02 2.5904365690664743e-02 4.8483205837700265e-02  1.3859968467997164e-02 2.2141937764876721e-02 4.8740604139987515e-02  1.2968151978947315e-02 2.1566142642212488e-02 4.9247343301753371e-02  1.4178932728307503e-02 2.3356894031005226e-02 4.9223557530373517e-02  1.5615063682722361e-02 2.3164131057921932e-02 4.8788115924739257e-02  3.8797945299685619e-03 1.5492814911452725e-02 5.0057107544391521e-02  2.8395499304212984e-03 1.4681831307641648e-02 5.0384423282788492e-02  1.5301780363404676e-03 1.3547563466483850e-02 5.0281120537824721e-02  2.1862066233986600e-03 1.3972945169784628e-02 4.9775491078343191e-02  -3.1458732055021822e-05 1.3814865628083069e-02 5.0000785190457468e-02  1.9670732238513352e-03 1.4548203758912017e-02 5.0097901224854864e-02  4.7963353291750102e-04 1.3017931789373403e-02 5.0202894966073296e-02  9.7436080081365298e-04 1.3212948426162689e-02 4.9812381572229149e-02  1.4577528758663338e-02 2.3419850374287548e-02 5.0135934469597375e-02  1.1571954403776657e-02 2.6452060918288327e-02 4.9694746899555706e-02  1.5053590231501643e-02 2.5902570804503974e-02 4.9983857465407733e-02  1.3673126782355865e-02 2.6871077598126868e-02 5.0951600760605141e-02  1.3438412580087841e-02 2.0740486136557053e-02 4.9402057299763630e-02  1.3006028960873963e-02 2.0922548767990580e-02 5.0116073899483513e-02  1.2258275165997994e-02 2.0617871257530330e-02 4.9554300232342051e-02  8.3651806452281433e-03 1.9847475617243964e-02 4.9771694569723364e-02  9.0451499010088948e-03 1.9680234161180504e-02 4.9785270303028845e-02  6.9340746154949425e-03 1.7986464871666899e-02 5.0215886682413502e-02  7.8437054296750883e-03 1.8368187531925213e-02 4.9637729724597540e-02  1.2942677160621365e-02 2.1677752964009048e-02 4.9544753530732573e-02  1.1880369393914854e-02 2.2155478860555928e-02 4.9472376632312520e-02  -7.4719539173259165e-03 2.2307124255073658e-02 4.8955888475166659e-02  -9.1927833319316154e-03 2.6442099629414056e-02 4.9431894312515261e-02  -5.7515014126236661e-03 2.1561460314862748e-02 4.9245815304653454e-02  -4.1160173816624460e-03 2.6271533693826697e-02 4.8846886559125433e-02  1.0951024456902533e-03 1.4890636235984722e-02 4.8273926364944812e-02  1.0606394921131778e-03 1.3214158657680218e-02 4.8774771735086604e-02  5.5386996932664642e-04 1.3047723335618993e-02 4.8203146592379828e-02  1.6329921994541804e-03 1.3630339970211748e-02 4.8136364333292901e-02  1.3583543690450393e-03 1.4447028744217893e-02 4.8976628296370256e-02  -4.6110271230358701e-04 1.4056872265830099e-02 4.8344671317183945e-02  1.2982886825009287e-02 1.9117870381660500e-02 4.9132636122843215e-02  1.2997004704449536e-02 2.0292768329465721e-02 4.8845648180251104e-02  1.3397943658200512e-02 2.0514388510094236e-02 4.9138163163051744e-02  1.3106956516341002e-02 1.9367504157398595e-02 4.8782373621422848e-02  1.2646953230307746e-02 2.1273026243514730e-02 4.9108353914673872e-02  1.0802790547723588e-02 2.0312879613361853e-02 4.9316428878476294e-02  5.0303234059504353e-03 2.1431782289948131e-02 4.8547007664702990e-02  2.6707116067538183e-03 1.7130625445528156e-02 4.8262788658795276e-02  1.3439848709692569e-03 2.0275288475114665e-02 4.7536624641456512e-02  5.9719040237400482e-03 2.0173143564706255e-02 4.8236499920173169e-02  -9.5005677884042587e-04 1.3413280403982536e-02 4.8770532046919501e-02  7.8530271657200229e-05 1.2988634781538243e-02 4.8991912718142287e-02  8.1195530653371042e-05 1.3047959549451881e-02 4.8597866001498506e-02  9.6925535304867062e-03 1.4293293231282795e-02 4.9252970770951518e-02  8.3895798686114895e-03 1.2565711512568059e-02 4.9194550162265288e-02  1.0057503032746913e-02 1.4377135849955347e-02 4.8767524289563532e-02  8.4266414104282039e-03 1.2585132766064726e-02 4.8830220846426985e-02  1.0066896170392466e-02 1.1501719114839536e-02 4.8617734802341828e-02  9.5489407982414232e-03 1.3745294074848173e-02 4.8434339130885684e-02  8.3807185720311470e-03 1.2555478287155888e-02 4.8744005367917752e-02  9.4494886571198852e-03 1.3494896845222251e-02 4.8233590937155006e-02  7.8071393336906093e-03 1.1759620444333424e-02 4.8375042578364787e-02  -3.1462082473775652e-03 2.2045437468584651e-02 4.8410382319706499e-02  -3.5508568831292865e-03 2.0077206931556069e-02 4.7849105816247815e-02  -1.3092547161036540e-03 2.6344736938840700e-02 4.8249548238177779e-02  1.2770919773833475e-02 1.8417283055641089e-02 4.9548517983652264e-02  1.1702565991796407e-02 1.6546957315170606e-02 4.9594984507076466e-02  1.2619394473013398e-02 1.7558810045460119e-02 5.0268165975290137e-02  1.2695019865828118e-02 1.8180161935530681e-02 4.9743797059659631e-02  8.8101868403473969e-03 1.1261531667786559e-02 4.9819380998476853e-02  1.0203290161359353e-02 1.4477721739014314e-02 4.9524236943413645e-02  1.9047743686836347e-02 1.4276048156242088e-02 4.9415481130853513e-02  1.3853060560700249e-02 1.2214656271949551e-02 4.8827745199697813e-02  1.9459833260567279e-02 1.1843724404547630e-02 4.9426632600042347e-02  1.4392585190022244e-02 2.0071579278870051e-02 4.8842498996746371e-02  1.3600299186379837e-02 1.9374021900388089e-02 4.9468950547841478e-02  1.3313752148834583e-02 1.9344191483740839e-02 4.9243856878748736e-02  1.3841562267986040e-02 2.1147668687992976e-02 4.9425385094587097e-02  1.3025758308066342e-02 2.1089135491157183e-02 4.9234253838438720e-02  1.2829914835662837e-02 2.0939132964256185e-02 4.8955146342527817e-02  1.5584817188994834e-02 2.0923956981937962e-02 5.0226280381318586e-02  1.6224996941863168e-05 1.6748426568581623e-02 4.7410514296039680e-02  1.2867024899823512e-02 1.7918907913484567e-02 4.9260779638600115e-02  6.2902953073981100e-03 2.1214759656783627e-02 5.0057257086398146e-02  6.2212684506566659e-03 2.0474985057919677e-02 4.9558999336140483e-02  1.3429065050918454e-02 2.2941094499206959e-02 5.0173971645101990e-02  9.7440752530865791e-03 2.0615777458087875e-02 4.8993337273742277e-02  1.0906603097800871e-02 2.0837380324944699e-02 4.9259993361259344e-02  1.0522924308676651e-02 2.2508540998450208e-02 4.9506628335069025e-02  4.1313084037105183e-03 2.6493942139269266e-02 4.8567789196526844e-02  -8.2882422500643507e-03 2.0895293289062797e-02 4.9310628865741217e-02  9.2230496455538661e-03 1.9335859660309398e-02 4.8754917396633554e-02  9.6216437267371748e-03 1.9742238210714212e-02 4.8706637663812474e-02  8.7794095666854505e-03 1.9501216087510938e-02 4.8102332861438786e-02  1.0560798606316993e-02 2.0482728972366051e-02 4.8228633532347895e-02  7.0221737204288108e-03 2.0136508370428609e-02 4.8969524003812541e-02  3.1908007797995263e-03 1.9386879055894632e-02 4.8756213389314941e-02  1.0859039597062609e-02 1.3217777251693586e-02 5.0143240066179900e-02  8.7419746206091279e-03 1.2399883281240883e-02 5.0130905503142906e-02  1.3223212889691506e-02 1.1005176719100005e-02 4.9694251208149437e-02  1.3995245925044853e-02 1.4063921572990046e-02 4.9717263060594950e-02  1.5865735467865530e-02 1.7728041307083792e-02 4.8906646777538691e-02  -1.7718117889377321e-03 1.4811363144518452e-02 4.7868254001858006e-02  -2.2452138937607067e-03 1.4734754347735616e-02 4.8458276716157510e-02  -1.5393005321527864e-03 1.3950312679517624e-02 4.8100249156673908e-02  -4.0543238825688005e-04 1.3170955712846046e-02 4.8177721716603658e-02  9.5482519071258525e-03 1.9622161381742224e-02 4.9224424354082121e-02  1.1148823990440877e-02 2.0413793541724477e-02 4.8874162888003260e-02  1.5246248450002576e-02 2.2643367773790848e-02 4.7982046126050254e-02  1.3255235713834667e-02 2.1749236322134324e-02 4.8993716787722602e-02  1.2690613803177875e-02 2.1944089105593409e-02 4.8796189862585326e-02  1.3711505274805802e-02 2.1501936409802264e-02 4.8922507170650768e-02  1.3446842168419546e-02 2.0987111898924802e-02 4.9185535344061442e-02  1.4059120553954864e-02 2.1420969461989688e-02 4.9191266415169368e-02  1.9607916841823815e-02 2.0985861928999466e-02 4.7438415920965191e-02  1.6091114887947570e-02 2.1217077386911386e-02 4.7996117051340312e-02  1.4491912278326380e-02 1.7834583737895270e-02 4.8986816906570543e-02  1.9078272406341447e-02 1.4467425438538949e-02 4.9038291233593538e-02  1.5672355381806172e-02 1.8330385253718544e-02 4.9217801862054170e-02  5.9610829149179308e-03 1.8658122332346146e-02 4.8489354147928203e-02  1.3645510122069597e-02 2.6913137194578423e-02 4.7484095848371537e-02  1.6127862693891423e-02 2.1923282047052409e-02 4.8336188847921673e-02  7.3667607872095744e-03 1.8404238801606021e-02 4.8304601747684507e-02  8.9516613518372794e-03 1.9436398882906561e-02 4.8480893672775763e-02  1.8851743952470502e-03 1.6913722361318651e-02 4.9219460159944453e-02  3.9351179213015083e-03 1.5983039860528958e-02 4.9760419470981074e-02  1.0968122706835571e-03 1.3987800261760278e-02 4.9561198090327135e-02  8.0175125831130588e-03 1.9008633956702076e-02 4.8883786173020312e-02  6.6484497040154066e-03 1.8648146379354351e-02 4.8263985742808005e-02  7.9499379858578995e-03 1.1846779917004960e-02 4.9671458213918274e-02  8.5020441249319470e-03 1.2667593075051567e-02 4.9594422948986264e-02  7.1391007036573214e-03 1.1199915256752581e-02 4.9406837398115314e-02  -1.8183967705623044e-03 1.7068900152406585e-02 4.8071668929335225e-02  -1.3248157429320911e-03 1.5221780695461654e-02 4.8644235610935845e-02  1.3072961536678486e-02 1.6739244697609512e-02 4.9311984111743631e-02  1.2300584061997674e-02 1.5778766007267672e-02 4.9656146219369958e-02  1.1968268494375794e-02 1.6482625605213363e-02 4.9686931572263365e-02  6.7748454988089601e-03 2.6288529926414495e-02 4.9221658963989647e-02  6.3393269630547394e-03 1.0162737259629859e-02 4.9549445483452075e-02  6.7582918607831249e-03 1.0632299405411782e-02 5.0020241951110857e-02  7.2068535698118401e-03 1.1199424640066921e-02 4.9723032917487503e-02  1.5227008178097775e-05 1.4518637634268895e-02 4.7784735535269157e-02  1.5019347858309700e-02 2.1563537454883069e-02 4.8868874413164627e-02  6.9161466705642480e-03 2.6372562565237758e-02 4.9339016295812423e-02  9.2052329372093143e-03 2.6424282844530605e-02 4.9117114143028773e-02  1.1575656235185625e-02 2.6445010718628835e-02 4.8718693732807128e-02  1.1473294312429581e-02 2.0582784210414720e-02 4.9008218774863041e-02  1.1338811511802997e-02 1.6328640096828214e-02 4.9654904529807996e-02  1.1528056431623468e-02 1.6661065254794560e-02 4.9343658046167735e-02  9.2394768635805993e-03 1.3670688594227416e-02 4.9769380882713543e-02  1.1964795986117344e-02 2.0965060812925769e-02 5.0158323828990353e-02  4.1267782422928683e-03 2.6518377584031853e-02 4.9827528404107618e-02  -1.2636631151935040e-03 2.6325509849903846e-02 5.0172637909527383e-02  1.5005426663718680e-03 2.6152901830367972e-02 4.9634661607817085e-02  7.3325014872723075e-03 1.9072760254381448e-02 4.9661163185140390e-02  1.2216367507265482e-02 2.6246077297729688e-02 4.9146113707134766e-02  1.8721355667480236e-02 2.1702305143678016e-02 4.9380440821725748e-02  1.8734714769550312e-02 2.2377724931604719e-02 4.8169079716697046e-02  1.9110235394192005e-02 1.8874312392071286e-02 4.8708214164392832e-02  1.7398130690991311e-02 2.4678342804021522e-02 5.0374875710770727e-02  1.1936666687893824e-02 2.1068390720961054e-02 4.8794329370220241e-02  1.2082706446378984e-02 2.0992994387781336e-02 4.8311693625117391e-02  1.0069855452525636e-02 2.0339968324281029e-02 4.9300190724058189e-02  7.9700632433715411e-03 1.1903241762658565e-02 5.0122176898827746e-02  3.1987424855101461e-03 1.5174142193226704e-02 4.7962976363910996e-02  3.8377696951837105e-03 1.5405864075140894e-02 4.8454604655958869e-02  2.9646748784205438e-03 1.4817300181736687e-02 4.8041371915863704e-02  5.0162595520796705e-03 1.6567480448244010e-02 4.8039500007586368e-02  9.2755361649862582e-03 2.6979656833840467e-02 4.8657190136706198e-02  7.8090355519411063e-03 1.1321006419372040e-02 4.9302024872964922e-02  7.0602875970635368e-03 1.1093009755015287e-02 4.8901478984096532e-02  1.1373871742161921e-02 1.5990422078711319e-02 4.8603015264746037e-02  1.1856024666867953e-02 1.6993145279620165e-02 4.8761708584775992e-02  1.2670550447460125e-02 1.7829999875682408e-02 4.8755869656844482e-02  1.1168989833659966e-02 1.5436460577810698e-02 4.8160191629473895e-02  -6.5505095204094225e-03 2.6851401177240910e-02 4.9164857686564187e-02  -4.1308956658118456e-03 2.6271017216783182e-02 4.9555439879010184e-02  6.3536864775441204e-03 1.7307578384572989e-02 4.8577160227784931e-02  5.7886466188997315e-03 1.7070887100827364e-02 4.8547979657983333e-02  4.7941924056285681e-03 1.6447595379214790e-02 4.7954894208130643e-02  6.7386828684941414e-03 1.8103450782594524e-02 4.8014142166467794e-02  1.3798013726633503e-02 1.0389711320990496e-02 4.9252289541489788e-02  1.8926544896336741e-02 1.4338551240680309e-02 4.9229059722403004e-02  1.3165557396619700e-02 1.5418417838119595e-02 4.9131328944378300e-02  9.5930856645006952e-03 1.3533271859753625e-02 4.8989698869847546e-02  1.6338523503857200e-02 2.2680173279100747e-02 4.7668616151650724e-02  7.2341631104593180e-03 1.7888417406531628e-02 4.9028981334239316e-02  1.3482136310959228e-02 2.0305565480011379e-02 5.0129730309516791e-02  1.3000330872840530e-02 2.0361582580273090e-02 4.9662117477307109e-02  1.0092126028213577e-03 1.3161771520533326e-02 4.9262344186507968e-02  1.8808258969334486e-02 2.2432685446593357e-02 5.0261838568359619e-02  1.8844681671411900e-02 2.4119592286677614e-02 5.1680562415313387e-02  1.4192491364008207e-02 2.0945178956379335e-02 4.8900338954049077e-02  1.8843778657541204e-02 2.4111426254295708e-02 4.6828707133451906e-02  1.3912576346338631e-02 2.0527951743076728e-02 4.9425351692932745e-02  1.0043726067989674e-02 1.4324035187335923e-02 5.0004768656135914e-02  9.8372233469980579e-03 2.2131088633656416e-02 4.9194255098606636e-02  3.8169566527677433e-03 1.5375810867084491e-02 4.9864071903989643e-02  1.4306869352007767e-02 2.0980430884296339e-02 4.9496727332397551e-02  1.4510188812322992e-02 2.1881899294243796e-02 4.9895371135368558e-02  2.3209883822903356e-03 1.4083574633432735e-02 4.8650980426388359e-02  4.0044221301916384e-03 1.5506213330463849e-02 4.8760051057291601e-02  1.3372694594504863e-02 2.0074363513918871e-02 4.9248888175131796e-02  -6.5912854678345260e-03 2.6780131354007430e-02 4.9209481479311500e-02  1.2204363301211810e-02 1.6677295592908654e-02 4.9105492837071350e-02  1.2292079927352957e-02 1.7683273086691424e-02 4.9076001234271978e-02  1.4833135234124586e-03 1.4363959496092938e-02 4.7896526703893487e-02  1.2638112209064450e-02 2.0773463980611525e-02 4.9249297430299883e-02  -3.2326967490152901e-03 1.5526415807885182e-02 4.7971457935160403e-02  1.4791876370348039e-03 1.5369466951508049e-02 5.0783475933802169e-02  -1.0805096086695520e-04 1.4280385760098081e-02 5.0563916527237754e-02  -6.1023703832054977e-04 1.4899398857765912e-02 4.9811864708582676e-02  7.7427633536205449e-03 1.8525312547581132e-02 4.8702599967428879e-02  1.0418353395129169e-02 1.5117786444837225e-02 4.8846111201485749e-02  8.6007315523463530e-03 1.9398931663578402e-02 5.0338554397576230e-02  7.5666164105910854e-03 1.8418504088897072e-02 4.9819962369979140e-02  1.9511511768074086e-02 1.1803003730131845e-02 4.8995655014233475e-02  1.9802202695305287e-02 1.6766854720784850e-02 4.8298301265895530e-02  -4.9200869016868863e-04 1.3215086703175618e-02 5.0243200475082038e-02  -1.4497616804395923e-05 1.3015172470674422e-02 4.9634524177152056e-02  1.0222323071780002e-02 1.4556578225489329e-02 4.9707328148441927e-02  1.0159156222972974e-02 1.4540420910155078e-02 4.9237984428260655e-02  1.7269355781796912e-02 2.4516294112871890e-02 4.9272763223418392e-02  -1.8803100702749573e-03 1.7125932860537353e-02 4.9095404421443084e-02  -4.7008216042150547e-03 1.7498772316824739e-02 4.8546614030901353e-02  1.1575786851843664e-02 1.6332726963279681e-02 4.8693369203294680e-02  1.4536726584786289e-02 2.0192630092815550e-02 4.8767486629792675e-02  1.4023453375220596e-02 2.1445470612979009e-02 4.9021708000798886e-02  1.9036586188982831e-02 1.8876061366049711e-02 4.9767735614049173e-02  1.3359631152144865e-02 1.9126931523797533e-02 5.0186484561790340e-02  -9.3101663771531437e-03 2.6466987530304700e-02 4.8987402377127516e-02  1.0720365761126786e-02 2.0531676842631550e-02 4.8704053108234759e-02  9.8689601004450771e-03 2.2366505438141764e-02 4.9298786015416624e-02  5.6983049510610255e-03 1.8391099002383463e-02 5.0364575561392282e-02  7.2038078273407597e-03 9.7251238685715675e-03 4.9877061877807528e-02  1.9564341622958789e-03 1.7015668242413604e-02 5.0214296916047688e-02  1.1513632960922171e-02 1.4534131561746339e-02 4.8548571186849826e-02  1.4357905026876337e-02 1.8475814701366392e-02 4.9491568510186872e-02  -3.7768334486833264e-03 1.6596382308789369e-0