<?xml version="1.0"?>
<VTKFile type="UnstructuredGrid"  version="0.1"  >
<UnstructuredGrid>
<Piece  NumberOfPoints="352" NumberOfCells="1352">
<Points>
<DataArray  type="Float64"  NumberOfComponents="3"  format="ascii">-1.146527028962373 1.167114312334814 0  -0.9184143406250429 1.15951227012599 0.181890248271007  -1.117408632183515 1.349324948359656 0  -1.127667895979856 1.429138092744414 0.1957268739948787  -1.462744779920422 0.4173062759430208 0.7927788025429325  -1.315004706961013 0.6972167789990056 0.7557377227898123  -1.24261630433174 0.4137133052539228 0.6762314288941822  -1.564690195006766 0.6196325639107423 0.6892222911693506  -0.843554369120634 1.571972381406213 0.1893355977975628  -1.023406865707073 1.709833810979671 0  -1.105932760739799 1.665722801080373 0.2684407995307424  -0.6404454764412717 1.557452185064736 0.3229483011552194  -0.6049140089552396 1.896431906697228 0.3184572261395962  -0.5174396855537765 1.720603924206695 0.4455678853971146  -0.6789195424108355 1.679413385346867 0.172716471184192  -1.297015254039048 1.200330857140984 0.198215552709849  -1.513321347298536 1.293450377028231 0.318300028577906  -1.577555788316503 1.215180484183664 0  -1.466118612717564 1.06068664004738 0.1854634457573004  -1.417954567522155 0.9826958282046394 0  -1.687765770332819 1.064693265863353 0  -1.776037932920274 0.899547665238146 0  -1.538403791801157 0.8564673244602555 0.1943213337786517  -0.9912607890003962 0.0887306983322423 0.7688596154928593  -1.157675661796024 0.2874316557483794 0.8237284357888865  -1.193677763294787 0.02935523231729001 0.812175874957884  -0.9819498088636408 0.1832666661363625 1  -1.370317109984933 0.6068829405856371 1  -0.3365162964824625 0.9378841800729312 0.2405432884014713  -0.4415185705098927 1.234655578466227 0.3250771953421422  -0.5209854872342006 1.060897459510266 0.207962911636449  -0.3313057231869522 0.9394647902018173 0.5  -1.374007622100844 0.09777626041767989 0.7163944533892758  -1.497526988319634 0.06223231979832809 1  -1.257318893890059 0.113297357199552 1  -1.426410269324307 -0.2746123173713337 1  -1.500573791635198 -0.1343119170450844 0.7793914918465166  -1.628642811205088 -0.2280282795420948 1  -1.553893487133441 0.2026855142925206 0.8123817161664363  -1.724055721366079 0.08454345261679307 1  -1.730806770054562 0.2680869584325063 1  -1.738241993048834 -0.1668323661063556 0.5052707113179995  -1.678786771260193 0.05495038097256552 0.6892783914122976  -1.475115822476183 -0.1061604368231795 0.5102968426790093  -1.65956562518322 0.6779485992594181 0.1896533736052345  -1.720532437548271 0.4373519509618823 0.1754478773861343  -1.709763549103771 0.6410356720050135 0.4332539624816215  -1.885130003936691 0.6421713892771141 0.270111656601095  -1.636071442661823 -0.3475227057135603 0.6780535416162582  -1.770439526340713 -0.3857097409097593 0.4625341959737544  -1.944522349779485 -0.4463810640409471 0.5920894244586623  -1.974189182631205 -0.2620616265888291 0.7298883433989083  -1.264272254491768 1.537267213620411 0.5235172542791873  -1.237771957270619 1.559015445500463 0.7085720153548473  -1.382377160656424 1.440341022038268 0.687926620973708  -1.192571215110794 1.302722308512609 0.4782864723562278  -1.311232433775281 -0.5655346387499858 0.2575624298059242  -1.115114617145163 -0.4774046250283511 0.183365501259989  -1.389282245793132 -0.390104725039531 0.1762849063852214  -1.272047610987646 -0.2896564134506388 0.3164264087849299  -0.9290527823196455 0.3656295132424565 0  -1.190015801986949 0.4859549610262058 0.2855300420029705  -1.154952165344322 0.2392481477379702 0.1941991349140578  -0.9566144206959937 0.2747709680011161 0.2420850819122637  -0.9917877951958876 -0.08337991463409308 0.3014470703819548  -1.203640036831656 -0.08325252803474509 0.4828454397889581  -0.9711427085821456 -0.226877621308203 0.5  -0.9912607890003962 0.0887306983322422 0.5  -1.200554184744864 0.1951582901488528 0.5722415843174004  -0.9566144206959937 0.2747709680011161 0.7579149180877363  -0.8092614669963184 1.031632698922229 0.6791456875279881  -0.747028838074304 0.9125730243322504 0.8266226570201092  -0.984599909939442 1.149923132667671 0.7848661116286425  -0.9141816130997213 0.7634549129288799 0.8251041360935342  -0.867837335236696 0.8425368172721063 0.5309559614124686  -0.6564424890631831 0.7486858911845402 0.7578281535473971  -0.631840153311841 0.7688765063405124 0.5362539270910898  -0.9807852804032304 -0.1950903220161286 0  -1.209935812895535 -0.3819042831015633 0  -0.688391004567446 1.30457807950404 0.2279694399321673  -0.632518690427178 1.508037302070591 0  -0.5246326138228607 1.437575172319297 0.1874291779963437  -1.820860037820459 0.0940778455954159 0.8249209159235769  -1.694030268265159 0.2521086332974301 0  -1.9123088686015 0.5525746798567135 0  -1.963291281964382 0.3727098689263164 0  -1.162812384258729 0.869959537678654 0.1967137241630482  -1.098472765100997 1.059915202872253 0.2606957431243106  -1.34993589569112 0.9730419110075272 0.3324974874943423  -0.786137885070551 0.6108071024727797 0.5  -1.027957718484444 0.807486031122658 0.3458033622348064  -1.052829203020905 0.5589047274949172 0.5085767754743842  -1.156663002991701 0.588550599634463 0  -1.391582474002526 0.487267687798005 0.2096997911392877  -1.351229656953599 0.5151732646136987 0  -0.1988450770295621 1.980415469312695 0.4765700177088378  -0.401475179542921 1.958144400916416 0.5014873400227502  -0.374651815137472 1.717339434420175 0.6085609355383461  -0.2079297969927716 1.979520702494411 0.6817345837013904  -0.8818497861445191 -0.4613155571981953 0.5  -1.150536973579396 -0.480913571459282 0.4660449197857321  -0.9563006605232179 -0.2758052966743181 0.7404721885678482  -0.7757759682718035 1.842195283264311 0.2279005027763657  -0.7757759682718033 1.842195283264311 0.409013949502827  -0.502990862578652 0.859573871324515 0.3047494630173089  -1.971763274727665 -0.286692282878117 0.4416850368765731  -1.989110983577033 -0.1105580390958591 0.2754498220525415  -1.761579966123775 -0.2663709394208962 0.2302127468000587  -1.93944788191584 -0.4631093427328397 0.312468973614769  -1.7586360996564 -0.1593651247605219 0.7674836060750635  -0.8818497861445191 -0.4613155571981952 0.7311394935597686  -1.115941880422272 -0.4305433895007025 0.796606423718511  -0.9256039491140714 -0.3769987926575506 1  -0.5790841934569149 1.560047235753897 0.6688754989314865  -0.4936253294979922 1.718220497575566 0.7876615208084401  -1.061606909442319 0.9785837600988989 0  -1.232115836721338 0.7631644816213363 1  -1.341896336811819 0.9405672826140373 1  -1.519741993526035 0.8886244139057863 1  -0.686969743987339 1.871540571604279 0  -1.212002869458737 -0.2375731748946453 0.8353124047479963  -1.21000317190587 -0.3819247162339598 1  -0.9807852804032304 -0.1950903220161286 1  -0.7259496343859416 0.6841466981309493 1  -1.026493956220598 0.7984228743741494 1  -0.8426708147520899 0.5346142571826912 1  -1.525927344464973 -0.2393749232136364 0.2219150219271743  -1.415930250292146 -0.03013962490768879 0.2431523579218497  -1.749285118686629 -0.0940061731589974 1  -0.88740992893716 0.4509132616824052 0.6953011277941856  -0.947388990623786 0.3051831352366393 0.5363564105802381  -1.575027654417853 -0.4272778672614745 0.3583387676772505  -1.376556337245432 -0.4413811822579451 0.4728095292503682  -1.540546267421118 0.3160575247297414 0.5788901295650919  -0.227322383702962 1.977610699414599 0.2410275370475777  -0.2650360456214789 1.766060148854649 0.4064192804260539  -0.418365780237981 1.953020693211433 0.2701518619189722  -1.725771647669393 0.3430097485514121 0.7545419563727896  -1.72596058113537 0.4955108474915281 0.5828909256489527  -1.969434863507119 0.3103330387327409 0.6361264082428812  -1.929321970332065 0.4964899996873173 0.7245501779474556  -0.3992359231948405 1.264547218604192 0.6584240094702515  -0.5717031409302165 1.095411659227544 0.7615148223574963  -0.5307010043682088 1.3826952685512 0.785767467294626  -0.729538575546018 1.293711139943365 0.7838102578313236  -0.7951415571745835 1.035950760589855 0.3163792525461149  -0.7096214621866395 1.292436199645492 0.5012219118924913  -0.9057171194088783 1.167072336234832 0.4757488249981465  -0.5897572390507918 1.041671125967472 0.5035706790610246  -1.314905435161327 0.6745560659922012 0.4904638895724882  -1.082991713996318 0.5611808793048219 0.7692622717403119  -1.059160609976377 0.7755841138468872 0.6725939498558352  -1.190487498900903 0.03615294689702322 0.2137535486344003  -0.8710834293743044 1.505323501426417 0.4555006884842235  -1.105932760739799 1.665722801080372 0.4985114786665089  -0.8055581621776347 1.507858556983968 0.6786829354555336  -0.9261071527929903 1.761841591057063 0.523708165574422  -0.9290527823196455 0.3656295132424565 1  -1.473771864508179 0.1228524379847805 0.4668768675845455  -1.986252054781623 0.1395852302816939 0.4691986221315061  -1.780044200666404 0.05311175152980256 0.4889464863196062  -1.991422321557937 0.08709063075238727 0.2572330376846003  -1.972468461473287 0.2795324016947319 0.3020560919448448  -1.257212323284817 1.543061149426666 0.3183000285779041  -1.323743981377913 1.488460028710997 0  -1.395988323856183 1.429170629081718 0.2278152199502795  -0.9341416419748636 1.757547067117675 0.3184572261395966  -1.740429359649223 -0.4716914031645397 0.8098827929228846  -1.720206073487053 -0.3872292339129283 1  -1.917404905726146 -0.535775296840406 1  -1.9650120031223 -0.3552390938204129 1  -1.944522349779485 -0.4463810640409477 0.772562156837397  -0.9856468025470075 1.360627069214379 0.677554604785177  -1.201967891204917 0.876419588486421 0.481981018650006  -1.109788677070211 1.078120207642546 0.5482802068902228  -1.731067350347138 0.3425306741520479 0.411742788949795  -1.940529183105366 0.4595447704201737 0.2391745997996103  -1.939447881915845 0.4631093427328218 0.4952633427125438  -1.43290247623816 1.102502474805115 0.8016223533815361  -1.625681761742057 1.156538815892274 0.729852265836384  -1.382702032230889 0.9409546224454185 0.6727156764281601  -1.723626336383972 0.9976028656093632 0.7650330778500383  -1.308
[...]
<PointData  Vectors="f_21-0"> 
<DataArray  type="Float64"  Name="f_21-0"  NumberOfComponents="3" format="ascii">-1.3341760153720485e-02 2.1574856912933031e-02 4.8982629780165488e-02  -1.2754812117899667e-02 2.1781042220786650e-02 4.8813718141850586e-02  -1.2275285096803940e-02 2.1347962628935711e-02 4.9428168741546069e-02  -1.1601046168881388e-02 2.0807543481433134e-02 4.9454176512073199e-02  -1.0755733116838943e-02 1.4991909001214235e-02 4.8867633932983573e-02  -1.3111279621553498e-02 1.8899246857383870e-02 4.9353026760521126e-02  -1.3246621125459282e-02 1.6716422549532362e-02 4.9221358104981808e-02  -1.0863484103276330e-02 1.6225276250057544e-02 4.9022257422432880e-02  -9.0355892284203401e-03 1.9511912624601412e-02 4.9613225113365571e-02  -9.0529446571186237e-03 1.9951752822204676e-02 5.0236015749691366e-02  -9.7561447997266647e-03 2.0054918157218760e-02 4.9621558029027797e-02  -7.5227658834666018e-03 1.8518437600244436e-02 4.9466773249693702e-02  -4.2902794619559268e-03 1.6155747547569630e-02 4.9660390412950763e-02  -5.0668690081683496e-03 1.6570513976480294e-02 4.9325709952881637e-02  -6.8278110098914596e-03 1.7996230510117308e-02 4.9829395765410990e-02  -1.2951704966254030e-02 2.0769027143256322e-02 4.9305656426216690e-02  -1.2603346839105219e-02 2.0005807226680512e-02 4.9473995357157886e-02  -1.3004796535888066e-02 1.9771794413040163e-02 5.0100155334045486e-02  -1.2866811782831710e-02 1.9677287276984881e-02 4.9438188866463437e-02  -1.3296607633014570e-02 1.9863773161786474e-02 4.9382257183253606e-02  -1.2557117626631633e-02 1.8373362459054018e-02 5.0173178194436771e-02  -1.1566236074463084e-02 1.6637691355216529e-02 5.0260922669325719e-02  -1.2165381063167460e-02 1.8211360216514674e-02 4.9459955490442735e-02  -1.8413836299342283e-02 1.1658555786128543e-02 4.9145000802040040e-02  -1.4498832624685227e-02 1.5564026310872567e-02 4.9141146836984700e-02  -1.3714651606142606e-02 9.9141949618161106e-03 4.8752138862704145e-02  -1.8923602016827988e-02 1.4093354661995199e-02 4.9437636865111545e-02  -1.2822223872863824e-02 1.7727160486799405e-02 4.9147117504182700e-02  -9.3101663771531437e-03 2.6466987530304700e-02 4.8987402377127516e-02  -8.2882422500643507e-03 2.0895293289062797e-02 4.9310628865741217e-02  -1.1280492458879974e-02 2.3091137613653858e-02 4.8791609663405337e-02  -9.1679554246944499e-03 2.6312634062691034e-02 4.9214942266164560e-02  -1.0613351319613173e-02 1.0921404865416040e-02 4.8725608254983420e-02  -9.2278388224059978e-03 1.0081735376672564e-02 4.7971399689472845e-02  -1.2845889180057106e-02 1.1477365693807839e-02 4.8324005919096975e-02  -1.0752798614721967e-02 5.1347856107024515e-03 4.8315274833038539e-02  -9.1257458920583224e-03 7.3809319359733607e-03 4.8556490265903196e-02  -8.3104620035470526e-03 6.7540465363002036e-03 4.8215054619065875e-02  -8.8115239824828034e-03 1.1795660159475130e-02 4.8533774349914363e-02  -7.0767846153441472e-03 9.9996001846480616e-03 4.8234254417004470e-02  -7.6267145805879195e-03 1.1670475508752907e-02 4.8303300343115731e-02  -6.9953271749787866e-03 7.7322591177580195e-03 4.9199804938969922e-02  -7.2494398338295860e-03 9.7877319137305453e-03 4.8789842764375438e-02  -9.2442443387893321e-03 7.7128525610934652e-03 4.9182596452349805e-02  -1.0595470247926383e-02 1.5974279610632833e-02 4.9636767932910428e-02  -8.5811588908049699e-03 1.3346947557279377e-02 4.9747125410066331e-02  -9.9044227325347043e-03 1.5203305695926865e-02 4.9303268128331426e-02  -8.9284585537452912e-03 1.3644573446751591e-02 4.9660925307737920e-02  -8.6403735623148716e-03 5.4645567398545385e-03 4.8902028069013420e-02  -7.7642812325405723e-03 5.9330713799091465e-03 4.9276989084762364e-02  -7.1541040839103376e-03 6.6776894958733577e-03 4.9040657293191028e-02  -6.1192363817294745e-03 7.9066338810208931e-03 4.8822876466629132e-02  -1.1270668865390143e-02 2.0548180019365037e-02 4.9143379151074237e-02  -1.1097166566643642e-02 2.0560545830156707e-02 4.8831007736720666e-02  -1.2102114395986085e-02 2.0580633445609300e-02 4.8883712099098975e-02  -1.2375299796635821e-02 2.0883878365885358e-02 4.9207101384143317e-02  -1.2799546458818058e-02 6.7595528680574235e-04 4.9154964517466621e-02  -1.4954433340891870e-02 -3.1925173191128483e-04 4.8817512302687605e-02  -1.1440150476228135e-02 3.2382158199383004e-03 4.9548922414777576e-02  -1.2532231930286245e-02 3.8189464357758409e-03 4.9377248661674013e-02  -1.9060748890086274e-02 1.8693154059157058e-02 4.8142408986495751e-02  -1.3984787790701014e-02 1.8058598411335166e-02 4.9028058937462142e-02  -1.4552180020159757e-02 1.4627869932653999e-02 4.9359919618024974e-02  -1.8721666600739418e-02 1.6307562557824916e-02 4.8961132726610936e-02  -1.8336292438686227e-02 7.1943958184677243e-03 4.9244910830061502e-02  -1.3477911913276477e-02 7.4243464772889350e-03 4.9249078836267203e-02  -1.8516897947722363e-02 3.3601943084419529e-03 4.9219271360499348e-02  -1.8352100820936513e-02 1.1576094664524970e-02 4.9210217664641495e-02  -1.3591853746964628e-02 1.3474132520204556e-02 4.9146325993559434e-02  -1.8728908924760885e-02 1.6519795044781634e-02 4.9445024930512706e-02  -1.3402848751742052e-02 2.2552353327200184e-02 4.9589762736688699e-02  -1.4552843944424234e-02 2.3607387048475252e-02 5.0265034430911758e-02  -1.2988800746939337e-02 2.1668491088706866e-02 4.9537579862071017e-02  -1.5657937045353853e-02 2.2703966210486218e-02 5.0255641094557817e-02  -1.5039160618860381e-02 2.2826978260807991e-02 4.9322578446478124e-02  -1.6119666611231723e-02 2.5344952883713967e-02 5.0279645948995387e-02  -1.5503870374556189e-02 2.5379587364355125e-02 4.9355047944824315e-02  -1.8842763625050125e-02 4.1841334889359564e-03 4.9089343440839657e-02  -1.4003084230298390e-02 2.0138866881238993e-03 4.9230826400377022e-02  -1.0242907819696147e-02 2.0733096157150542e-02 4.9174706780702085e-02  -7.8269982671847552e-03 1.9199083781317020e-02 4.9881046853801875e-02  -7.4528083933817430e-03 1.9012128250384397e-02 4.9635895319158067e-02  -6.4240116123251761e-03 9.9419899104052859e-03 4.8633775486392777e-02  -7.8550066937988026e-03 1.1676023354971430e-02 5.0157514141154817e-02  -8.2810619803303752e-03 1.2741150846923753e-02 5.0160747239241937e-02  -6.7753770274252452e-03 1.1186831523138221e-02 5.0023255373881262e-02  -1.4034677501755355e-02 2.0924181696602553e-02 4.8747220478720522e-02  -1.3495922586953996e-02 2.1425542469377869e-02 4.8892454483059400e-02  -1.3091548459679339e-02 1.9982492284143259e-02 4.9170625686275719e-02  -1.7614932872095621e-02 2.3297984191315797e-02 4.9236777608069562e-02  -1.4725239197481017e-02 2.1608768465322052e-02 4.8815459233592672e-02  -1.5420314884912511e-02 2.0196746603488396e-02 4.9217884326629095e-02  -1.4807208170637914e-02 1.9430558254560599e-02 4.8498622482910071e-02  -1.1836001934387757e-02 1.6345667427342850e-02 4.9364633597394084e-02  -1.2678998971416293e-02 1.6896500554619453e-02 4.9331941339723358e-02  -8.9690552965368878e-04 1.3351910946008553e-02 4.9261963636360852e-02  -2.2909074753531280e-03 1.4402589405987563e-02 4.9197418260637685e-02  -3.6904810301483276e-03 1.5690669340668692e-02 4.8929584811888381e-02  -9.5005677884042587e-04 1.3413280403982536e-02 4.8770532046919501e-02  -1.8403251276706434e-02 -2.1511997601068905e-03 4.9223507035472770e-02  -1.4364038045539722e-02 9.5686730985871814e-05 4.9183982688636524e-02  -1.8678972113305960e-02 1.9888738579149192e-03 4.9452206705886716e-02  -6.0767841668049822e-03 1.7691332470738248e-02 4.9838612250053725e-02  -6.0898600654601268e-03 1.7617609216868828e-02 4.9399604128950572e-02  -1.3172119665569313e-02 2.6166632990520938e-02 4.8682400046088134e-02  -6.1852657869584486e-03 7.7629708559731614e-03 4.9311268391308831e-02  -5.6393345239301746e-03 8.7173064077259877e-03 4.9577875682251749e-02  -7.2977611381379939e-03 6.9175400785922601e-03 4.9703414616918941e-02  -7.3130007705387908e-03 6.5195243633485349e-03 4.9560721962158390e-02  -6.9230717008274415e-03 7.8442742941774966e-03 4.8697521714041070e-02  -1.8523933190825449e-02 -2.2871344459791192e-03 4.9871775952733177e-02  -1.4976647077028907e-02 2.8530275089455414e-04 4.9511888446431118e-02  -1.9097494816584935e-02 -4.8207120527847509e-04 5.0378874284229144e-02  -6.9385680089427146e-03 1.8176743620361705e-02 4.8913283413975502e-02  -4.8606925130330091e-03 1.6532572061401577e-02 4.8535493169076259e-02  -1.4292191567739240e-02 2.1992657691753306e-02 4.8357990056487506e-02  -1.4192672855153535e-02 2.0096853334026270e-02 4.9762636917531577e-02  -1.3592951175022685e-02 2.0208804693764928e-02 4.9292652249861964e-02  -1.2721324109081267e-02 1.8680870376746195e-02 4.8780631595019837e-02  -5.1154668956481329e-03 1.7146889510723885e-02 5.0458230771862012e-02  -1.3483933797020533e-02 4.2471300611732063e-03 4.8891778888749807e-02  -1.4019676196782384e-02 1.9610552076614949e-03 4.9200135444962559e-02  -1.8886158502747077e-02 4.1335409111985027e-03 4.9428281690820051e-02  -1.7532007045241837e-02 2.4997983791786495e-02 5.1471466106919696e-02  -1.5300632308062195e-02 2.1986773479800836e-02 5.0437345549967365e-02  -1.8792792991404603e-02 2.2440985046616801e-02 5.1188648340941209e-02  -9.2311138383389477e-03 6.0810178948342035e-03 4.9789158311850566e-02  -9.9864971649378607e-03 8.7469469800660685e-03 4.9849328965791632e-02  -6.9053984475529098e-03 8.4136360241498665e-03 4.8257991941566984e-02  -1.8449376742975424e-02 2.0579343819911965e-02 4.9802417034945742e-02  -1.8601680664787273e-02 1.7213176288693819e-02 4.9271530961158314e-02  -9.6145873500268590e-03 4.2263208029719506e-03 4.9426307279724101e-02  -1.1671603412523147e-02 2.5759377819801767e-03 4.9223562809230764e-02  -9.3642293539181257e-03 1.3224940939654234e-02 4.9063170065580773e-02  -1.0692517013219092e-03 1.3527812297934084e-02 4.9821318015361375e-02  -2.3041610649268585e-03 1.4761599996713674e-02 4.9446938463682449e-02  -2.4375799131282831e-03 1.4586103541834919e-02 4.9764561418659529e-02  -7.9274069873318479e-03 1.2416760193186542e-02 4.8745207068945168e-02  -8.8164944138162879e-03 1.3825820676485811e-02 4.9068671016194158e-02  -6.3223011902015045e-03 1.0828010029413058e-02 4.8968524856536647e-02  -7.6125228694901136e-03 1.2217436703333523e-02 4.8784712607984872e-02  -7.4220130696049831e-03 2.0439632751873944e-02 4.9034300580744331e-02  -1.1370212453598007e-02 2.2630181045712384e-02 4.9566238705461306e-02  -7.9968905142397025e-03 1.9591731000853846e-02 4.8909233217279913e-02  -1.0635132214504864e-02 2.0938923603592900e-02 4.9300673661379045e-02  -1.3311563436256365e-02 2.2528945984671984e-02 4.8811239870720079e-02  -1.0445774020468163e-02 2.0781557867970018e-02 4.9204862958745592e-02  -1.2553733579790958e-02 2.1627810871965407e-02 4.9160323321073431e-02  -1.2140997412775596e-02 2.3076180376907614e-02 4.9216319611077669e-02  -1.2965394202902025e-02 1.8667430075699255e-02 4.9190625202306153e-02  -1.5213460809152052e-02 1.9977690952254084e-02 4.9740064905950253e-02  -1.4753194938216032e-02 2.1301940285682771e-02 4.9637958068925715e-02  -1.3831834231200577e-02 1.0048051100171172e-02 4.9633291369805453e-02  -9.7133209461490542e-03 1.9850125257758203e-02 4.9242318806135006e-02  -9.7195977420579220e-03 1.9980322967716735e-02 4.9193372493749117e-02  -9.2963862782718676e-03 1.9639091692797244e-02 4.9015200846614294e-02  -7.8670060103081339e-03 1.8859594279445398e-02 4.9142061480105602e-02  -1.9124745915000300e-02 1.8706454289103357e-02 5.0372973300859589e-02  -9.3042217955877082e-03 1.1008729197456534e-02 4.9292595554614675e-02  -5.6724854746151437e-03 9.8818905384410721e-03 4.9263189901021846e-02  -6.5078380045729290e-03 9.6655387733815181e-03 4.9237575338962412e-02  -5.6071287212558479e-03 9.6304064348613494e-03 4.9603420151969418e-02  -6.1975127544423364e-03 1.0641702002412367e-02 4.9546917554580981e-02  -1.1241066142179783e-02 2.0562909298318454e-02 4.9485415472540095e-02  -1.2075681487722225e-02 2.1007347867780041e-02 5.0070731974752279e-02  -1.2217878797129367e-02 2.0595321735685859e-02 4.9633001164615304e-02  -7.9550073175909224e-03 1.8969767009617340e-02 4.9577335860155218e-02  -8.6333566611398026e-03 4.9422279836464668e-03 4.8695383517432030e-02  -8.3479582489595812e-03 5.6182791220588850e-03 4.8363464859480759e-02  -8.0863974128956417e-03 5.8850113181385406e-03 4.8268890179355997e-02  -6.6489012268918235e-03 7.3686995838557548e-03 4.8400712254604558e-02  -7.2242085365998810e-03 6.6709141507790490e-03 4.8712312237710852e-02  -1.1487703106891473e-02 2.0841093460080489e-02 4.9174957505008693e-02  -1.3725861040554009e-02 2.0570358821268085e-02 4.9175205559102021e-02  -1.3356039560679963e-02 2.1315252229432657e-02 4.9248987794581103e-02  -7.8325387966932530e-03 1.2374163554409347e-02 4.9372489719200045e-02  -7.3417828868592352e-03 1.1897363975958145e-02 4.9693427273248041e-02  -7.2920316981469908e-03 1.1920074787588842e-02 4.9215322203351730e-02  -1.2955566175259772e-02 2.0013566336340837e-02 4.8978024501673954e-02  -1.2523438298786339e-02 1.9017459668138122e-02 4.8787314279526726e-02  -1.2971328477041645e-02 1.9678992447581919e-02 4.9196491020125598e-02  -1.1877290485635645e-02 1.7571232874988886e-02 4.8683802941228593e-02  -1.3200451449259762e-02 1.9109926225484623e-02 4.9030103885373051e-02  -1.4111144294973005e-02 2.0521543117496332e-02 4.8701032900263078e-02  -1.1911360610139199e-02 1.7146045526245959e-02 4.9555806741541156e-02  -1.1878902883290464e-02 1.5956957500542112e-02 4.9218642971753289e-02  -8.4379423349695906e-03 1.2913676009771027e-02 4.8248689137685430e-02  -8.6083287250718135e-03 1.3253139874158914e-02 4.8377119632761485e-02  -6.8876284578125967e-03 1.1299691808842481e-02 4.8380632573516220e-02  -1.0320071846381092e-02 1.5376555248008178e-02 4.9426102499558845e-02  -9.7893155673955106e-03 1.3360046757376185e-02 4.9660648445859219e-02  -1.1650192533975798e-02 1.7522044432438721e-02 4.9245458404855565e-02  -1.2526005935994832e-02 1.9035022446950715e-02 4.9196982454041367e-02  -1.1639312361385289e-02 1.6993199388164390e-02 4.8692370906571594e-02  -1.0179733531071239e-02 1.5438577356634658e-02 4.8699531599573444e-02  -9.9952360100039970e-03 1.4931245854170980e-02 4.8459474530512213e-02  -1.0171015163142725e-02 1.4802944641580145e-02 4.8135826401601287e-02  -7.3116863806955224e-03 1.8238719934848987e-02 4.9169601620226801e-02  -4.3241199216445068e-03 1.6144233686109850e-02 4.9103365462821305e-02  -1.1765556207821288e-02 2.1760783117013245e-02 4.8888403822698545e-02  -3.2326967490152901e-03 1.5526415807885182e-02 4.7971457935160403e-02  -5.2170426588579490e-03 1.7040873347362262e-02 4.8093931918846665e-02  -3.0341301661116387e-03 1.5320112418019413e-02 4.7994185000869306e-02  -1.3737132955601689e-02 2.1222415342765547e-02 4.9563434547912108e-02  -1.3938074979535052e-02 2.3779640435486013e-02 4.8368722598181486e-02  -1.1680335414660074e-02 1.7299724832978175e-02 4.9535056267489413e-02  -1.0551409460971797e-02 1.5564130966147607e-02 4.9752519057611050e-02  -1.2532658648126947e-02 2.0002655963938826e-02 4.9148985868750841e-02  -1.2642860095951228e-02 2.0135312340343443e-02 4.8758666282467195e-02  -1.2158929418698934e-02 7.0989694217276789e-03 4.8194167716914343e-02  -1.3042652059699409e-02 1.9906921429941399e-02 4.8266963673530887e-02  -1.0452568627924153e-02 5.2544759899869412e-03 5.0118879129959840e-02  -8.5650484898867080e-03 8.3793999976461697e-03 5.0410125920772736e-02  -1.5109865597650124e-02 2.6395793525748126e-02 4.7189969224035642e-02  -1.7616105531790854e-02 2.5080094728688128e-02 4.7005986722835985e-02  -1.5175178683560546e-02 2.2906824116937681e-02 4.8201686359692554e-02  -1.3814883664320744e-02 1.5915407510121382e-02 4.9373879169841081e-02  -1.0576818130241401e-02 1.3797785176403581e-02 5.0009962787555498e-02  -1.2869524395181263e-02 1.1495121295012355e-02 5.0077504223407558e-02  -1.1072692885450392e-02 2.0514580331373801e-02 4.9270080132168999e-02  -1.2808206729011156e-02 2.0769360091185584e-02 4.8296771183368926e-02  -4.5129565982521182e-03 1.7183303137332431e-02 4.9381483872825961e-02  -7.5685726722609474e-03 1.9215513300828217e-02 4.9195847184262217e-02  -1.4499395267719969e-02 2.3304020271076028e-02 5.0607132838467017e-02  -7.0770438998290349e-03 1.8175767623979586e-02 4.8625377398279004e-02  -7.3268834554528718e-03 1.8675955852789854e-02 4.8344439077689684e-02  -7.8301228566415252e-03 8.2110711445685745e-03 4.9567913338820768e-02  -1.1675410478728264e-02 1.7478209418058076e-02 4.8856714047828063e-02  -1.1694878212601050e-02 1.6830158785347066e-02 4.8117113189811968e-02  -1.2651498782031539e-02 1.8545437180860141e-02 4.8207127866862619e-02  -1.1882429128822460e-02 2.1026755001710088e-02 4.9169787284443607e-02  -7.4719539173259165e-03 2.2307124255073658e-02 4.8955888475166659e-02  -8.2336497870544190e-03 2.1857457726405596e-02 4.8984054379509846e-02  -1.1383810767468311e-02 2.6937980841192904e-02 5.0366902681139560e-02  -6.5912854678345260e-03 2.6780131354007430e-02 4.9209481479311500e-02  -1.0920325399601525e-02 2.0897022570984355e-02 4.9513938714030030e-02  -5.7515014126236661e-03 2.1561460314862748e-02 4.9245815304653454e-02  -1.8695466513878753e-02 1.3252792467654661e-03 4.8885421542145431e-02  -1.1946940613774958e-02 2.1279390996622120e-02 4.8917144771885315e-02  -1.2768556558959955e-02 2.0980564090889456e-02 4.9154245962733885e-02  -6.4826675112462087e-03 9.1110155070399830e-03 4.9754205803656373e-02  -6.8967940774084802e-03 1.0773617836102246e-02 4.9814194355558804e-02  -5.5099433877500281e-03 9.2275137382198148e-03 4.9903579089967648e-02  -9.6184081843240128e-03 1.9986967256966522e-02 4.8754153620293769e-02  -7.8736583126643236e-03 1.8969143684393230e-02 4.8617848504559434e-02  -1.1782457314902191e-02 2.2753080359263159e-02 4.9938999145332078e-02  -1.5036794094406851e-02 2.6481793478249784e-02 5.1200347961172163e-02  -9.2127856874339251e-03 1.3964961376847744e-02 4.8671609326410223e-02  -1.0724101173204997e-02 2.0475586030737205e-02 4.8867765675090505e-02  -9.2647134786689907e-03 1.9968878206113420e-02 4.8573782793056353e-02  -5.5474448415734935e-03 8.8689064245047900e-03 4.9202283723314200e-02  -1.2669116774671569e-02 2.2258209500112893e-02 4.9818101057971943e-02  -1.5169724579016719e-02 1.6333807604826927e-02 4.9174981460570102e-02  -4.3801391623806175e-03 1.6268309015393671e-02 4.9801147897606826e-02  -1.5094643066855122e-02 1.9601790177479896e-02 5.0007418333542435e-02  -1.3439116078610596e-02 1.5815586113795150e-02 4.8987628638558496e-02  -1.6151913007169890e-02 2.5249705131880018e-02 4.8197542136893784e-02  -3.6713173769298041e-03 1.6156965082388175e-02 5.0467422479180846e-02  -2.7057980072337446e-03 1.5066515513448732e-02 5.0111824485874833e-02  -3.2008092205630750e-03 1.5445662268570321e-02 5.0412836321668549e-02  -1.4879266083336768e-02 4.2360928305952457e-03 4.9151994002593055e-02  -1.5660699219714167e-02 2.1096032146507508e-02 4.8482236047138326e-02  -1.8543969737410584e-02 2.0468967428886556e-02 4.8639598007484207e-02  -1.3440495844682805e-02 2.0795919895240336e-02 4.9017588956323868e-02  -1.2134282418941414e-02 2.0501714234465607e-02 4.9325651606314108e-02  -1.3213224279785550e-02 1.9810758657560976e-02 4.8819774282642982e-02  -4.9409781574546790e-03 1.7017515181227287e-02 4.7935673599756527e-02  -9.0738934966767288e-03 1.3885452308559155e-02 4.9084395088646489e-02  -7.9245172347063419e-03 2.1007383277463661e-02 4.9591432113689791e-02  -9.4187217544795809e-03 4.0127095056106364e-03 4.9701114086920836e-02  -6.7679616416333544e-03 7.2661079524575069e-03 5.0030553906910739e-02  -1.8645496259782884e-02 9.1545673923924802e-03 4.9174878706199014e-02  -1.1246293181133843e-02 2.3371354469351735e-03 4.9017888157926570e-02  -1.2507614070190380e-02 2.9693783693123567e-03 4.9108556770590575e-02  -1.1793085709290966e-02 2.4810011341187778e-03 4.8816423088687652e-02  -1.8754493183443126e-02 2.2468556289074841e-02 4.7312335926802146e-02  -1.5479333460333127e-02 2.2108765465239266e-02 4.7858458269514612e-02  -7.1850211136816463e-03 7.2084011905117554e-03 4.8328358020969846e-02  -1.8842552255591487e-02 1.4009213979671413e-02 4.9092544697152914e-02  -1.1660724843458837e-02 7.1369580245336352e-03 4.8848327507362711e-02  -9.5