<?xml version="1.0"?>
<VTKFile type="UnstructuredGrid"  version="0.1"  >
<UnstructuredGrid>
<Piece  NumberOfPoints="327" NumberOfCells="1256">
<Points>
<DataArray  type="Float64"  NumberOfComponents="3"  format="ascii">0.7119454820819836 -1.311017197308812 0.7850254167931945  0.6711564508304207 -1.401253329984251 0.5622240771778685  0.7873485614796214 -1.551119900712338 0.747618612172079  0.509899363520301 -1.411274404689723 0.7930410904030668  1.571223386396861 -1.222896538248188 0.681768998400601  1.365943112648017 -1.134934275590741 0.4914509233146168  1.447765498390705 -1.373330410045335 0.7315215413413203  1.404410164647943 -1.149349917793486 0.7975908961567035  0.803830552736335 -1.241808787336111 1  1.027552987385453 -1.122421832866236 0.7520124683793958  0.9317589561501367 -1.126789045658179 1  0.9466024263613499 -1.337784875385508 1  1.015601792777485 -0.8204518079745813 0.6525547521204649  1.304637174418844 -0.7075626243921807 0.5186954339142219  1.054700059797406 -0.6058616406515142 0.4895215437898623  1.110028565937067 -0.5800778232130865 0.7539770568553924  0.9065780864506976 -0.7643401139982925 0.8193321493755804  0.8427521110205465 -0.5344621625620394 0.6951122958534079  0.8874756245502677 -0.4507903538350485 1  0.6565945984642327 -0.7485610582252132 1  0.7260749200787838 -0.683994037072515 0.7575866569922562  0.7862467646240011 -0.6106744323530362 1  0.3070347646120418 -1.231266475456671 1  0.4006956025444619 -1.24843802094553 0.6812500201025888  0.2057664659883401 -1.423434689071494 0.7640294242581815  0.8427521110205465 -0.5344621625620393 0.304887704146592  0.9275246612083398 -0.3706670534361827 0.2407973732256985  0.9290934823066148 -0.3654953433663091 0.5  1.254380730905587 -0.8083467088102502 0  1.452879240810067 -0.9256401028442123 0  1.469388374880087 -1.034040776775462 0.1882486755660968  1.347617246490652 -1.061163179822044 0  0.2382892175692876 -1.471591899036973 0.4955209781265861  0.2441482264665806 -1.68711095498594 0.2543611194868012  0.1435408183010254 -1.450724164001282 0.2140138195018315  0.364943845569369 -1.449405072691717 0.2215112330483742  1.059531587242102 -0.5973251627738123 0.226746809598138  1.234689442690562 -0.4855157749746795 0  1.12700915308356 -0.3265270678978057 0.1991237339620514  1.228727303117767 -0.459331046989373 0.3236051145881703  0.5031802934273266 -0.8594726184264059 0  0.7805047611923689 -0.9061187185566575 0.2197836778390664  0.6565945984642327 -0.7485610582252132 0  0.5790946986177532 -0.8121635823205643 0.2406591020066253  1.29264339957742 -0.7108631639275693 0.248925098563288  1.438290730876674 -0.4534288042395038 0.1837168804337665  1.519369205000765 -0.6057271090750227 0  1.685940558953262 -0.4500196176801594 0.2303894085313369  1.548728803732611 -0.6572481953988726 0.3158315927164428  0.8638068359660822 -1.218302366084752 0  0.9324225297118618 -1.069640369270793 0.223104162955864  0.7932047642417024 -1.26389931307753 0.1963766327108795  1.030433715894798 -1.231858392111446 0  1.183651748105934 -0.0883654662417532 0.1686858213653584  1.475518248201104 -0.03253804452700697 0.1856409670857923  1.244700343070279 0.08518987797507366 0.2297974176709325  1.302253607553284 -0.1432650666920791 0.3118732805312475  1.404571026518731 -0.5037511239056995 0.5348683201513614  1.691569412576089 -0.5609133899741244 0.4730081079198554  1.639622120442623 -0.7656643535348759 0.5754969080455435  1.460188519029665 -0.1629806199680669 0.5487051496768689  1.300998876090121 -0.06620015533026624 0.701459469341089  1.273734645489973 -0.3733223405901023 0.6677503680638732  1.462819035581377 -0.247240831275101 0.7930628205732373  1.670473167333107 -0.1571316353029762 0.6661267788475292  1.979883779915309 -0.2042434100745073 0.712108154714385  1.818614516256198 -0.02030257729722755 0.8224734275766558  1.718772121177439 -0.3866834318575563 0.7667746127709867  0.9080933109673303 -1.392933173756074 0.3219887364722751  0.818663626867002 -1.250496447075703 0.4758235842672084  0.5790946986177532 -0.8121635823205644 0.7593408979933747  0.7288306932309858 -0.9486137962695518 0.8304626122976658  0.7999786526575325 -0.8565217994501219 0.6452470139574003  1.157231385552274 -1.253901033215793 0.281726668262764  1.224429837858597 -1.367445394691974 0.1621926997827459  1.177855468001781 -1.310694360819405 0  1.636952961386825 -1.142804819387519 0  1.677712194062701 -0.09696593309475177 0.3004554327500731  0.7464136245425157 -0.6592112539775661 0.464253437432927  1.465303716475479 0.1555907954635532 0.7693066961510502  1.492196561710194 -0.008262575110031561 1  1.260567092565374 0.007573152124507587 1  0.9590515939106158 -1.078423956001888 0  1.189271625505363 -1.127293779066439 0  1.596035538136801 -0.6475556862479659 1  1.647316553768361 -0.730739989356719 0.8042598622939813  1.68486642811149 -0.4847299792061015 1  1.880033966812036 -0.6589707722934499 1  0.7450638420349176 -1.620742934143578 1  0.9598730660345802 -1.549077209085725 0.8242980760773153  0.8995443726527385 -1.515344433769769 1  0.9253516653358499 -1.762245407515976 1  1.75161262238811 -0.3424365565861829 0.5282437615390115  1.963304819553189 -0.3725724194805271 0.4090317868572118  1.914590748157589 -0.5450523310742783 0.3184745400471098  1.064679695988678 -0.6749731916823414 0  1.119003905466543 -0.9695779869373969 0.2100492968754825  1.576997441744635 -1.215860831449986 0.4767686081794522  1.687870562227536 -1.064497214017714 0.3121204132896461  1.577555788316497 -1.215180484183672 0.2425537263387976  0.4566179955496571 -1.609390190456626 0.6989686505589768  0.4780196499422931 -1.718624147876173 0.4860276821231871  0.4598397724961487 -1.407027747603131 0.4646693967668116  0.6555930567863257 -1.664756582497279 0.5960201095882456  0.2062702119573308 -1.209832294552009 0.5069451591351182  0.2713321621710769 -0.9576575710401055 0.4639489892092016  0.2407869516577543 -0.9669233593494102 0.2422811437659894  0.05343103384430749 -0.9947375024938501 0.5  1.464528240804089 -0.2828999629988727 0  1.534419107269049 -0.249970942395027 0.2134224265406987  1.633398862698542 4.551914400963142e-15 0  1.74700851512454 -0.1466881081279602 0  1.972468461473286 -0.2795324016947447 0  1.990822820491096 -0.09317746723157688 0  1.77461743563473 -0.2526246580210096 0.1862321566955051  1.080685194586458 -1.202250007878773 1  1.98001051630629 0.2029566339025678 0.5236088117471787  1.760989227500415 -0.00528833666817291 0.5050452009358164  1.980906185775178 0.1938627491739629 0.3183348412008982  1.999999999999999 6.562936821510024e-15 0.4985104204901593  0.9851205740732167 -0.1510733467044346 0.5353394748175133  1.179472118936147 -0.275639623696938 0.4699018881232729  0.9994124437091498 0.005965559133313763 0.3049757398701156  1.211266277324824 0.05376660925060736 0.4750222709998441  1.215050768910942 0.1386989957370904 0.8003094172228006  0.3808210433871149 -1.763882641155164 0.817384939724187  0.5886194165627399 -1.607799173493189 1  0.580573651550607 -1.903815473393742 1  0.5734276495182083 -1.711685493650841 0.8245233371918688  1.481952171293317 0.069454883228632 0.4891924348618718  1.589046394326455 0.1734990304878107 0.2392673584508079  1.722788334576396 0.2269019344391441 0.4623229700254903  0.9720734413444984 -1.373627274294348 0.6790269542916713  1.532068162910535 -0.3538891104669777 0.4205296918786089  0.7381014911438812 -1.022860552606942 0  0.5649892703019659 -1.018153738993141 0.2065824908697158  0.6859686601772466 -1.136244635014237 0.3299139575879882  1.023435757713041 -0.8146736758415731 0.3189846134813204  0.5834852897946156 -1.717308399664762 0.1887386398541893  0.397761442467862 -1.76067971301323 0.1654331644783746  0.5973730345669322 -1.89871943626909 0  0.5007099757113176 -1.928041854600282 0.3180605671254946  0.9812655729033243 0.1902138304267845 0.7574987250233383  0.9807852804032302 0.1950903220161293 0.5  0.9994124437091498 0.005965559133313836 0.6950242601298845  1.297544141558148 -1.005011241379223 0.3189684790296657  0.2407869516577542 -0.9669233593494104 0.7577188562340107  0.4037512339627746 -1.080144681274499 0.7916997388280334  0.4195556527163921 -0.9041709201262842 0.6951876610204601  0.3315216749971926 -0.9393992819363619 1  0.5832887714184972 -0.8087215957258024 0.4999999999999999  1.000672008306493 -1.113805047495691 0.487632913986857  1.1929972635708 -0.8536914974626655 0.780931025369012  1.284717519815038 -1.02228507292348 0.6703955176972156  1.20351971211937 -1.239767330590945 0.7939120312707418  1.10743765731954 -1.431746180074469 0.8139666446241006  1.206663380515088 -1.269235118192567 0.5803433203994834  0.5031802934273266 -0.8594726184264059 1  0.7739143362555156 -1.072397343309636 1  1.300974086628094 -1.226302537576867 0  1.338534520264107 -1.194150655990213 0.2011991283607386  1.244666982182433 -1.191554482389109 1  1.176003996493655 -1.33611093172008 1  1.298466289634289 0.2582810036338386 1  1.60847672517662 0.2976949531213646 1  1.464759749160692 -0.2279365418393593 1  1.60218884797417 -0.3186951767398252 1  1.396392869618368 -0.3890520924672942 1  0.8428253757598037 -1.806356628303072 0.7017027633753112  0.6701703609710061 -1.876636608728933 0.7670361119449685  1.251368316581753 -1.54785720178133 0  1.396119646174059 -1.429062855640675 0  0.9633396945064303 -1.532543348225953 0.504411395532755  1.51815861524617 -1.287556148979825 0  1.496956996248435 -0.92836030672711 0.733478808495897  1.486803694599748 -0.9110561600863133 0.4938031200867036  1.417000388060469 -0.4785679949273929 0.7990159217257774  0.8140359668217003 -0.928879231333442 0.4392990111823438  1.173511336853638 -0.9048826654188855 0.4957352355486239  1.57182247208157 -0.573028538950262 0.6727634197640624  0.5315656042297237 -1.1447348656588 1  1.551045726738103 -0.3625086508181027 0.6344933565110418  1.374638822880307 -0.7269623812337992 0.7816877154595647  1.741278588091689 0.126947386673496 0.7075978800613815  1.998265741253273 -0.01760822455171618 0.729856113257398  0.9566434479642242 -0.2746752779217476 1  1.15960963244366 -0.13378
[...]
<PointData  Vectors="f_21-0"> 
<DataArray  type="Float64"  Name="f_21-0"  NumberOfComponents="3" format="ascii">1.0847574263279513e-02 -2.3475860327383060e-03 4.9274485806239013e-02  9.6766989542831430e-03 -1.3933046802728122e-03 4.9168889835502126e-02  9.2902643217527281e-03 -9.0764660167915086e-04 4.8910411576663614e-02  8.0167031392154829e-03 -7.5433329461376528e-04 4.8820090386216201e-02  1.3127681989323861e-02 -1.0855443962843874e-03 4.8930141977876485e-02  1.3417886128570212e-02 -1.8489563385813428e-03 4.9238625960467755e-02  1.2962112607686895e-02 -1.9674817243986037e-03 4.8848797011105893e-02  1.3470221176636750e-02 -1.8176383280427383e-03 4.9012712407853098e-02  1.2176892876246397e-02 -3.3852635315465961e-03 4.9557176526122439e-02  1.3688337816637546e-02 -3.1733811739343698e-03 4.9533789717818653e-02  1.3729011392682783e-02 -3.8609247080838398e-03 4.9902853839053976e-02  1.2184351367769354e-02 -2.9280309122111403e-03 4.9210841170563943e-02  1.5261785355729298e-02 -3.3017072189628523e-03 4.9610850030883447e-02  1.3604177092987208e-02 -5.0525049617703897e-04 4.9246260795493373e-02  1.5764336429611222e-02 -2.1025451661137412e-03 4.9208282853257825e-02  1.5383704484724802e-02 -1.3751643637334005e-03 4.9703737282752382e-02  1.6163485463160331e-02 -4.2983165083358976e-03 5.0320965648993028e-02  1.8706787609073034e-02 -3.6990448883593859e-03 4.9959851406166683e-02  1.9700992403808518e-02 -2.3556573819155020e-03 5.1006270700702246e-02  1.7008837508202031e-02 -7.4918157230306395e-03 5.1553751799746243e-02  1.7635689204539645e-02 -6.1812600203013665e-03 5.0386263717762565e-02  1.8900649479890032e-02 -5.4779738400738296e-03 5.1421581140100370e-02  6.5245994741498494e-03 -2.7271152599378928e-03 4.8430749119351281e-02  8.0809272583427291e-03 -2.2255600285578407e-03 4.9056580302237716e-02  3.7479835085700700e-03 5.8075580687143248e-04 4.8369809326232083e-02  1.8698717129990928e-02 -3.7063498939795981e-03 4.8462577244726704e-02  1.9155516068814105e-02 -3.8128329921050593e-04 4.8611740745367241e-02  1.8975980557853846e-02 -2.0386722896417069e-04 4.9232069524915191e-02  1.4548829757580622e-02 -1.7726534646251518e-03 4.8769564252252401e-02  1.3633035208602897e-02 -9.3101979021744297e-04 4.9488648834555261e-02  1.3360292291498408e-02 -1.1348804899738961e-03 4.9465207534147349e-02  1.4032329490936390e-02 -2.1539792809672459e-03 4.9320508932065577e-02  3.9842869996114865e-03 1.1574624451755541e-03 4.9224936096113343e-02  2.9520016510317386e-03 3.1414029628601919e-03 4.9907329966048450e-02  2.6348127334419403e-03 1.0960264563262714e-03 5.0209517868872948e-02  5.9238986672530032e-03 2.8854888836314413e-04 4.9870350407568181e-02  1.5846912165016446e-02 -2.0623131818169309e-03 4.8603424675852644e-02  1.4445620355320125e-02 8.1699520006519623e-04 4.9010084204738062e-02  1.5500258060092927e-02 1.9488154535523151e-03 4.9119945053997305e-02  1.3966291533748202e-02 1.0523739529999443e-03 4.9162856558959717e-02  1.3960485466541392e-02 -8.3837272441973226e-03 4.7492377553117540e-02  1.5116472124420199e-02 -4.9536819965387245e-03 4.8335160717364489e-02  1.7066842862245177e-02 -7.5209277781968648e-03 4.6919063402630357e-02  1.5314992402629759e-02 -7.4048082251911137e-03 4.8205285371629755e-02  1.3794248581682270e-02 -7.2572186382862834e-04 4.9052289431033159e-02  1.1726039616232083e-02 2.8371592892772841e-03 4.9539418975295679e-02  1.1993938347934925e-02 1.9346319039508137e-03 4.9695189066745235e-02  9.4017040203290807e-03 4.7322453492333917e-03 4.9685620444813179e-02  1.1660053338652897e-02 1.7829284496803774e-03 4.9410045171054892e-02  1.2744610130382477e-02 -3.5130298346105447e-03 4.8815184229468796e-02  1.3948229939972403e-02 -3.6197329421540497e-03 4.8711684831639547e-02  1.1834436330847376e-02 -2.8143618411026698e-03 4.9052469108256704e-02  1.3304925679514822e-02 -3.3031449335621361e-03 4.8994301403573463e-02  1.4473228375304433e-02 7.1972544679618396e-03 4.9650812308299472e-02  9.7969037150696416e-03 8.7282927987464305e-03 5.0020724620808678e-02  1.3223212889691506e-02 1.1005176719100005e-02 4.9694251208149437e-02  1.2262134042998417e-02 6.4926459105259290e-03 4.9583941109841628e-02  1.2154200998358055e-02 2.0764756841144308e-03 4.9223239519418489e-02  9.9814436929716605e-03 3.7903609767121552e-03 4.9288190541712795e-02  1.1599988739680706e-02 1.6985773829692481e-03 4.9136634202703783e-02  1.0079925782019408e-02 6.8338606785503997e-03 4.9121783397631992e-02  1.2183406175634862e-02 7.9356107147549627e-03 4.8832422221439721e-02  1.3222190726134573e-02 2.5597401578411811e-03 4.9159893274621620e-02  1.0480661549321243e-02 5.6236375224333291e-03 4.8658825833092195e-02  8.0149960794367921e-03 7.6140744839423907e-03 4.8885081019854212e-02  6.3870099415126360e-03 8.2219202362438289e-03 4.8888409845296632e-02  6.8553892718143643e-03 9.0678114036822043e-03 4.8659198018977619e-02  8.7372650374130997e-03 5.5668952637034207e-03 4.8784816608970119e-02  1.1371537036952852e-02 -2.1390597618867017e-03 4.9275592286821351e-02  1.2022643907882423e-02 -2.7793744429384457e-03 4.9206859317992277e-02  1.5299652386285074e-02 -7.5281009351546432e-03 5.0238572652139386e-02  1.4606808226955698e-02 -5.0281164821167562e-03 5.0208388953720824e-02  1.5470609856953052e-02 -4.8687885501872887e-03 4.9758247119197518e-02  1.3128006742459271e-02 -2.6307730740195842e-03 4.9242698383433592e-02  1.2772741847905415e-02 -2.5067759172186723e-03 4.9525317645382462e-02  1.3193063374846272e-02 -2.9337476294687683e-03 4.9461640671777447e-02  1.3386621789634850e-02 -6.9563350227669742e-04 5.0198350769688413e-02  7.8262003341040380e-03 8.2306578482935714e-03 4.9669740261661745e-02  1.7731601042800298e-02 -5.5613552015274393e-03 4.9078905132357048e-02  1.0066896170392466e-02 1.1501719114839536e-02 4.8617734802341828e-02  9.7559592372337793e-03 9.1026328125249200e-03 4.7971909526937771e-02  1.3275808395894035e-02 9.3844272708408592e-03 4.8266340522321094e-02  1.4188297331390761e-02 -3.9135189551521201e-03 4.8419638747393669e-02  1.4074129026332996e-02 -3.0329903452341492e-03 4.9020826022323494e-02  1.1586421564089303e-02 2.1752049258132876e-03 4.8635889263447050e-02  1.1490477383633070e-02 1.9478725504435183e-03 4.8829841576322995e-02  9.8263106110320683e-03 4.3887711572168642e-03 4.8450462641657747e-02  9.8016475529437742e-03 4.6020044425626556e-03 4.8236441723780957e-02  8.3585100524858260e-03 -5.6597779349838620e-04 4.8369848315414223e-02  1.0465366900328697e-02 -1.6642292864670794e-03 4.8814122358944605e-02  1.0438626999629164e-02 -1.9367128714336409e-03 4.8667224436266483e-02  8.4158962641978103e-03 -8.4021109166441369e-04 4.8087697607674680e-02  8.1548035463460365e-03 6.2171027658231527e-03 4.9190136405158354e-02  7.1511531299716085e-03 7.2502355157220630e-03 4.9408267380147204e-02  8.5162989564074604e-03 5.7950105081953848e-03 4.9590535011064800e-02  1.6084538245946096e-02 -2.6611095105960993e-03 4.8011141985271344e-02  1.4403281384257487e-02 -2.9384188852625702e-03 4.8798786744636488e-02  1.3076004225689608e-02 -9.7629154315050212e-04 4.9276687533354596e-02  1.2680389268370658e-02 3.1236872621679096e-04 4.9590109359841095e-02  1.3175100348671044e-02 -1.0769769991532342e-03 4.9683064285373502e-02  5.7957292227862672e-03 1.3672855433351373e-03 4.8749634891668205e-02  5.1890715816367318e-03 2.1359847987449409e-03 4.9249963349334326e-02  7.4316457038476631e-03 -5.1491941946369465e-04 4.9266535137107458e-02  7.2429718641217966e-03 5.9855183955582645e-04 4.9034975404714153e-02  4.9840792555368423e-03 -2.6060483120826832e-03 4.9205138711364421e-02  8.0924599207767844e-03 -7.9182537030175523e-03 4.9227542478168893e-02  7.2582900800915182e-03 -7.9556886774063088e-03 4.9299474211743952e-02  1.7603270659583481e-03 -7.5964628755904821e-03 4.9222626293284083e-02  1.0854191178274235e-02 5.2313090939130067e-03 5.0140023542778300e-02  9.6994120968832472e-03 5.9560080011184565e-03 4.9822932650011559e-02  8.2649487039998908e-03 9.2234963229661984e-03 5.0368541105210024e-02  7.5554900564087455e-03 7.9322061695172984e-03 5.0176617763319956e-02  6.7677127116598859e-03 7.8253890793737006e-03 5.0019172819491697e-02  6.1295269613928244e-03 8.8017779810919163e-03 4.9959581066906115e-02  7.6928727659334338e-03 7.0840656813779199e-03 4.9812519378896650e-02  1.3585781453199348e-02 -3.2925750170339049e-03 4.9468129467781223e-02  6.3431970060064541e-03 1.0210187769418153e-02 4.9207402408352786e-02  7.0884812027098097e-03 9.1686693354192002e-03 4.9226244962160340e-02  6.3393269630547394e-03 1.0162737259629859e-02 4.9549445483452075e-02  5.9829920910042887e-03 9.2276381407322746e-03 4.9246550080427276e-02  1.8965391595772731e-02 5.2543936127884645e-03 4.9238794161883717e-02  1.4470225114092378e-02 3.2976356343380970e-03 4.9235171947945217e-02  1.8832860930977743e-02 9.3786613282645214e-03 4.9230038988350731e-02  1.3798013726633503e-02 1.0389711320990496e-02 4.9252289541489788e-02  1.3853060560700249e-02 1.2214656271949551e-02 4.8827745199697813e-02  3.9204425026452307e-03 2.9514870598503391e-03 4.8423018877570195e-02  7.0597846554500306e-03 2.6466839803781681e-04 4.8269222587109910e-02  4.4499872060544668e-03 2.2935777073925705e-03 4.7944162523400037e-02  6.1280630678120489e-03 1.3321389729827624e-03 4.8509749455323825e-02  9.5986656310532176e-03 1.0200603212548478e-02 4.9259809606636763e-02  8.8101868403473969e-03 1.1261531667786559e-02 4.9819380998476853e-02  7.8090355519411063e-03 1.1321006419372040e-02 4.9302024872964922e-02  1.1822160752723545e-02 -2.3308582762569339e-03 4.9184668033158303e-02  1.0130722648130398e-02 4.7228217046163786e-03 4.9373160887302425e-02  1.3942282797983150e-02 -4.9450149563467147e-03 4.8046653440372282e-02  1.2738396441956653e-02 -5.0878133777228158e-03 4.8647845161011290e-02  1.2297866972841798e-02 -3.6189028109280858e-03 4.8977440779299143e-02  1.5250957622635440e-02 -3.2685969188461375e-03 4.8773118104575804e-02  6.1782751895080312e-03 1.3095648901048211e-03 4.9898962788646403e-02  4.1104344255494790e-03 2.8218757431054866e-03 5.0037621207724432e-02  4.6317733835089551e-03 2.1519656547154572e-03 5.0480029321894243e-02  3.7003883238244193e-03 3.2229946766354142e-03 4.9672648472857912e-02  1.9047743686836347e-02 1.4276048156242088e-02 4.9415481130853513e-02  1.8926544896336741e-02 1.4338551240680309e-02 4.9229059722403004e-02  1.8785047090320313e-02 9.3693990794842356e-03 4.9217539580538344e-02  1.3767164892541768e-02 -1.9549009420722621e-03 4.9166577978396943e-02  7.2642591995087146e-03 -7.9426329708290402e-03 4.9130890850747629e-02  9.9096042735887305e-03 -4.7498771575448604e-03 4.9370072939895274e-02  1.1857680525518855e-02 -7.8263192283296174e-03 4.9602633065909917e-02  9.6116399799236821e-03 -8.4890955997382663e-03 4.9832653095382706e-02  1.5163084883165990e-02 -7.1941187598079919e-03 4.9228569288300696e-02  1.3627641078387223e-02 -3.1599994259109820e-03 4.9208207475918482e-02  1.4401399648851163e-02 -2.2259135886290543e-03 4.9611342162800706e-02  1.3758979318873221e-02 -2.0560701196558132e-03 4.9298894557768910e-02  1.3290569904845837e-02 -2.6147931323706334e-03 4.9188924198782361e-02  1.2031099407824045e-02 -2.3694581934242728e-03 4.8954536883280178e-02  1.3061223491160692e-02 -2.4575698228546960e-03 4.9206890404575612e-02  1.3964123218863853e-02 -8.3940520156322116e-03 5.0985309712313777e-02  1.3602392881626313e-02 -4.4927069254597964e-03 5.0211119716822683e-02  1.3713050165732087e-02 -2.6509919377863417e-03 4.9514105894198607e-02  1.3472167540450381e-02 -2.1873167921679254e-03 4.9398058825858321e-02  1.3812356598256526e-02 -2.8235614856737161e-03 4.9157409516813792e-02  1.3032295055858106e-02 -2.8957944026337017e-03 4.8933594495131405e-02  1.3008857129839749e-02 1.3850538314664370e-02 4.8576871359462960e-02  9.3487049887312594e-03 1.2577074619184059e-02 4.8305724831140026e-02  1.0595331626457070e-02 5.9733008850542824e-03 4.8233547431842314e-02  9.5100688239482395e-03 5.5878819590298480e-03 4.8327740975575337e-02  1.2150693019668736e-02 3.3710130639497469e-03 4.8685482369126246e-02  7.3855498244381323e-03 1.9491872021015487e-04 4.8755098622636515e-02  5.4599883820613329e-03 1.6655773319582080e-03 4.8551909006638916e-02  1.1990475444657825e-02 -2.5437863601682851e-03 5.0152109357470526e-02  1.3040050421646439e-02 -2.4967560579641146e-03 5.0130408807917394e-02  1.0551518054386005e-02 -1.5887768589347602e-03 4.9220012617770079e-02  1.3536745492330084e-02 -1.8861326204315967e-03 5.0138082169953371e-02  1.3019110264783133e-02 -4.3367339158820477e-04 4.9080426966651131e-02  1.2946014436975808e-02 -3.4680540717716731e-04 4.9241076719498761e-02  1.2034637582481966e-02 2.3999684727685423e-03 4.9003134034138814e-02  1.4792277038362467e-02 -4.5239332184731536e-03 4.9039559182376700e-02  1.4288935817195352e-02 -2.3922552272397772e-03 4.9218508826557504e-02  1.1017513419465282e-02 2.7149194751523499e-03 4.9041261300694680e-02  1.0759566880179042e-02 -4.1451747547920940e-03 4.9560295713908090e-02  9.9903479891389913e-03 4.7406632374878436e-03 4.9013200610962059e-02  1.3238646136965380e-02 -1.8888930178871091e-04 4.9275579902145074e-02  7.4202678796780885e-03 1.0357774547574935e-02 4.8825961928437626e-02  6.0164923153014950e-03 9.1452395314908022e-03 4.8879896253632101e-02  1.9767508213243291e-02 1.9934235568386874e-03 5.0081827835472756e-02  1.4965897909252334e-02 6.0960149665735472e-03 4.8925846358413898e-02  1.9074063695782375e-02 4.3295128640581521e-03 4.9384737246850607e-02  1.9373792589147988e-02 6.8806259231056505e-03 4.9421363321745508e-02  1.1840469162833172e-02 1.7247068210865957e-03 4.8891117482369774e-02  2.2137065037860408e-03 4.5187733170925807e-03 4.9433782641038142e-02  1.5386857651452373e-02 -4.1328925547356975e-03 4.7962008163760908e-02  1.9199104903301362e-02 -3.1601591747067864e-04 4.9843957854707653e-02  1.6073860126958765e-02 4.0603716795805902e-05 4.9683760921240806e-02  1.0167369844738214e-02 4.0676132895376702e-03 4.9988058762969342e-02  8.7383493701813329e-03 6.0478257615861194e-03 5.0134892979247711e-02  6.5607910496801062e-03 -7.0119827411359043e-05 4.8242403058958445e-02  9.3900746693158649e-03 -1.9412680911286145e-03 4.8899515976158457e-02  1.2917672929511655e-02 -3.3153985168556880e-05 4.9388657604880308e-02  1.1772001245627153e-02 1.8791433349504036e-03 4.9759573976283861e-02  1.1388391912463703e-02 -4.4863072922227314e-03 4.9233833208703878e-02  8.4607994929597977e-03 9.1006736018687546e-03 4.8485915681507785e-02  7.4982241523841153e-03 9.1060948671686775e-03 4.8246958523953512e-02  7.7492938893319423e-03 7.4748644591833280e-03 4.8313762594058521e-02  4.4854140019831516e-03 -8.1352132755637130e-03 4.9791007118516140e-02  4.5445244569203421e-03 -2.9976296633644497e-03 4.9918777539228604e-02  1.6907963105153765e-03 -7.6515068904789880e-03 4.9766394565913016e-02  1.2937329449629366e-02 -3.8943158776094102e-03 4.9532450281131894e-02  3.5898809513868458e-03 3.2624880401970675e-03 4.8573419008639693e-02  1.3909004740954781e-02 -1.9637130766801025e-03 4.9004691047059082e-02  1.2044454579121308e-02 -2.7260085508952771e-03 4.9479796824801178e-02  7.0602875970635368e-03 1.1093009755015287e-02 4.8901478984096532e-02  5.6458945838448096e-03 1.5270032421884924e-03 4.9783372179556265e-02  5.6261991518102277e-03 1.5884388952383639e-03 4.9228649249693918e-02  8.4597625908045017e-03 5.8154763809720152e-03 4.9180302160623197e-02  7.2842410186287525e-03 7.1274428366884428e-03 4.8902948906005876e-02  1.1479933625641228e-02 2.6196034383129834e-03 4.8164300452583735e-02  1.2612582031811736e-02 6.9981901279663069e-04 4.8688400492300735e-02  9.0725024730831712e-03 -1.2099096877512029e-03 4.9792513227395224e-02  9.1513331942269585e-03 -8.3737568821635512e-04 4.9674759091182324e-02  6.0857817441937233e-03 9.5676253628166549e-03 4.8522672187605830e-02  6.1563609191976759e-03 8.7238821555096421e-03 4.8518757022255249e-02  6.3503624210578596e-03 8.2845265849527585e-03 4.9543581872494163e-02  6.0157579685521066e-03 9.2237463473164027e-03 4.9609733566020650e-02  1.2555799997650097e-02 8.3079563349692891e-04 4.9779041346567569e-02  1.1123396390762121e-02 2.4678749534422198e-03 4.9710858141689393e-02  1.3036018987107541e-02 -1.9401470489044722e-03 4.9679536868126983e-02  1.2284396125699731e-02 -2.1810223337017367e-03 4.9571345135002144e-02  8.7369926418433344e-03 -4.6426173966287185e-04 4.9358434164810491e-02  6.5691225286035526e-03 8.4099776495188093e-04 4.9574262241809823e-02  1.5451766826734383e-02 -5.1588543229698740e-03 4.7679058155296397e-02  1.6459505932923359e-02 -4.1824278541955917e-03 4.8171835227458951e-02  7.5901160451171306e-03 1.9316826767150689e-05 4.9825117075066323e-02  9.6522325794683259e-03 4.7842546833330108e-03 5.0254843424982175e-02  7.9794591708718474e-03 6.5471126732387815e-03 5.0119902387367674e-02  9.4346707318418120e-03 -1.1324740899151880e-03 4.9548694222198084e-02  8.2096511151423072e-03 -3.3693292404611639e-04 4.9211850416695520e-02  9.5212923705509551e-03 -4.6269583636475691e-03 4.9154683744769473e-02  7.8461474312598364e-03 -2.2036121971420008e-03 4.9413867701082609e-02  6.9760891414286982e-03 4.4962809228036140e-04 5.0205839293474379e-02  6.5911217570707552e-03 4.9495397495372205e-04 5.0432538897102468e-02  1.3489327977992929e-02 -8.2140720418942981e-04 4.8810193917665973e-02  1.2736337257470046e-02 7.0428305401379885e-04 4.8208226562688201e-02  1.2134781026716697e-02 -2.1812289746143978e-03 4.8929686209518881e-02  1.2951142789576842e-02 -2.5193496058931557e-03 4.8336759493721723e-02  1.1852619154477370e-02 -2.5128018776332021e-03 4.8286140137642097e-02  1.3931145797488418e-02 -1.3377173205329738e-03 4.9266693006031675e-02  1.2904747895128287e-02 -1.8715224177038574e-03 4.9233554866698531e-02  7.2038078273407597e-03 9.7251238685715675e-03 4.9877061877807528e-02  1.9459833260567279e-02 1.1843724404547630e-02 4.9426632600042347e-02  6.8397634005154572e-03 7.7187592631539686e-03 4.8466175331379514e-02  1.2668126227916836e-02 8.6422658138131879e-04 5.0277274597497888e-02  1.0316221203992840e-02 3.7329460074748046e-03 4.9236519741119283e-02  1.0385225669598217e-02 3.7281411891169820e-03 4.8769728441664530e-02  1.1852070561393721e-02 1.6687058134084044e-03 4.9286401375770082e-02  1.1353944950824677e-02 2.8031825078577112e-03 5.0330329630747093e-02  1.0240998028270921e-02 3.8862453346641505e-03 4.9714602575437944e-02  1.5766427536275975e-02 -4.5419079135732210e-03 5.0706026596738903e-02  8.7419746206091279e-03 1.2399883281240883e-02 5.0130905503142906e-02  6.1306167642030170e-03 9.6460155630401882e-03 4.9942222294062234e-02  7.6525623643486414e-03 1.0726289450765591e-02 4.8298761351153546e-02  1.2905854839599131e-02 4.8429294913743919e-03 4.8537923508819247e-02  1.4502550528034373e-02 -3.5075778739142305e-03 4.9920209411043671e-02  1.4805584033418886e-02 -2.6452882728235936e-03 4.9871539526169018e-02  6.3476356294682084e-03 8.2331993542036682e-03 4.9202746752206830e-02  1.4794637715390229e-02 -3.0834316579581404e-03 4.8553394695473463e-02  1.2192166530840674e-02 -2.3274319686829958e-03 4.9271340153525980e-02  1.1363237423550086e-02 -1.9913167721302724e-03 4.9362906044159979e-02  1.5574722663952599e-02 -2.3263781352273220e-03 5.0239792082848310e-02  1.7588181011579128e-02 -6.1543663907364628e-03 4.8067499063375138e-02  1.1726808582621470e-02 -2.5544048492185337e-03 4.8777929712949267e-02  1.1750856216042124e-02 7.3822018075231912e-03 4.8133756986612701e-02  1.3415149952826893e-02 -8.2783179183821252e-04 4.8297043980261530e-02  1.3497369053744913e-02 -1.9687455494254362e-03 4.8335418006962276e-02  4.9927088943398368e-03 1.8200640153919348e-03 5.0405152863138604e-02  1.5426293454530930e-03 4.9184736269964439e-03 5.0271782923981941e-02  2.8455774472227681e-03 3.7702369786892262e-03 5.0376037226548799e-02  3.6026698573128932e-03 3.3360322870911777e-03 4.9152491676914378e-02  2.2013468346780522e-03 4.4422900323309407e-03 4.9860049158957927e-02  1.0887543505641072e-02 -1.8223671087803637e-03 4.9069317908455860e-02  1.6078891171349623e-02 -1.1470311817990539e-03 4.8367859443069892e-02  5.7353974002873256e-03 3.8557878588015102e-05 5.0361442837083756e-02  9.4593