<?xml version="1.0"?>
<VTKFile type="UnstructuredGrid"  version="0.1"  >
<UnstructuredGrid>
<Piece  NumberOfPoints="320" NumberOfCells="1243">
<Points>
<DataArray  type="Float64"  NumberOfComponents="3"  format="ascii">-1.412883232192979 -0.498916897224404 0  -1.595864871923849 -0.7076981334402126 0  -1.424974064043019 -0.8180641451546321 0  -1.496133812848886 -0.6224620133938269 0.168029496722675  -1.073831515515874 -1.381296027576066 0.4703149899896178  -1.222912435612129 -1.211258208550986 0.5924324065281698  -0.9969898328475651 -1.363191667272982 0.7007929224873214  -0.9602840871252403 -1.119883154337391 0.5000000000000003  -1.512011392687988 -0.7917510345546442 0.2966161284015407  -1.82007427255317 -0.8171614684481319 0.2701477341636163  -1.623972487846827 -0.7834420794628646 0.5282118138501414  -1.683847711978677 -0.6637140041757016 0.3554943844166969  -1.34376490772025 -0.6629168230233793 0.5232079866624604  -1.540227286709983 -0.7594309578000181 0.7158969883666931  -1.486680182709609 -0.9357655947055598 0.5005733069352488  -1.325812149253608 -0.9556560748352179 0.692162030564986  -1.334552913091629 -1.215813856519444 0.3976467594449599  -1.415326496627902 -1.118270480731319 0.5860770877722016  -1.289838922750997 -0.9992737188619498 0.3584443832289749  -1.016378813307524 -1.085925806803902 0.7785250480141073  -1.319832932085968 -1.220158808863818 0.797553015984893  -1.04215606515532 -1.265258740361177 1  -1.224143446475008 -1.257655592102634 1  -0.4088784021612257 -0.9098780294493575 0  -0.5229419073512893 -1.071131864134972 0.1858598554011229  -0.2291981602613921 -0.9704387807865139 0  -0.3199640933144202 -0.9429052360103518 0.2421718464526027  0.4437787684872145 -1.472384709319954 1  0.3808210433871149 -1.763882641155164 0.817384939724187  0.5886194165627399 -1.607799173493189 1  0.2828443174131989 -1.737656437702833 1  -0.8300753132502592 -1.509513793106689 1  -0.9480652577231136 -1.538949907681568 0.8061489537317872  -1.038889265765676 -1.701558295737102 1  -0.9927400037819177 -1.469592821760114 1  0.3085523311331526 -1.969610247897571 0.6877920714727481  0.4909769421302074 -1.93099433805855 0.7575947101728453  0.4013802327098077 -1.958173202723359 1  -0.478103915917917 -1.622351537092959 0.6977077997690853  -0.7019581915565072 -1.428580415300582 0.6030955109277132  -0.5009139441539338 -1.349251873811594 0.5222432048981768  -0.600331598708143 -1.59479459233563 0.5327841362643094  -0.391399680066276 -1.237628786651703 0.6919365007968804  -0.2590693906238568 -1.20275231542913 0.4440646667880484  -0.0283024105191868 -1.319764063833097 0.6643409374643552  -0.3013774395956234 -1.46260667850183 0.4980611061261317  0.2062702119573308 -1.209832294552009 0.5069451591351182  -0.03861139831730298 -1.305902836371665 0.3300992328426874  -0.05411455619544295 -1.180335689722473 0.5033519982168086  -0.2895078849523348 -0.9521440258122447 0.5362539270910905  -0.1357582835267979 -0.9866289761380859 0.6952505369826913  -1.828344611031377 -0.8016887534344467 0.501479594258776  -1.736582952516703 -0.973362741762956 0.6816999714220926  -1.828344611031377 -0.801688753434447 0.7315233149267526  -1.740429359649223 -0.4716914031645397 0.8098827929228846  -1.675175657750933 -0.6607398531446582 0.8269759785572082  -1.863047176396528 -0.7149687156812052 1  -1.892475081514288 -0.6179579134933961 0.6823257906480289  -1.311232433775281 -0.5655346387499858 0.2575624298059242  -1.115114617145163 -0.4774046250283511 0.183365501259989  -1.155897705984207 -0.6056548263397348 0  -1.025812920413763 -0.6511834817819452 0.1439798677502316  0.580573651550607 -1.903815473393742 1  -1.029314058751751 -1.277283305743657 0  -1.178992651785597 -1.60725437485166 0  -0.814899804420075 -1.518363461454386 0  -1.064430939898313 -1.438297828212334 0.1876351619911193  -1.100293793730394 -1.440233234786469 0.8308817755846929  -1.409648970501671 -1.417959626110762 0.7315592004692577  -1.259072795543131 -1.541534299303341 0.681542773860404  -1.337314418527182 -1.477323058760319 1  -1.252030506876232 -1.547313756251158 0.4762918344255788  -1.409648970501671 -1.417959626110762 0.5014885213334912  -0.4956491309591998 -1.563380666785781 0  -0.6869697439873288 -1.871540571604282 0  -0.7580030332512193 -1.620602597475575 0.200800306043187  -0.2125504397148364 -1.162691776221664 0.1975610850782581  -0.1357582835267979 -0.9866289761380859 0.3047494630173088  -1.14427663396646 -0.9784691238319053 0.5430642805458707  -1.149350747726731 -1.254278997813574 0.2766244916622759  -0.4351952344254975 -1.947915534096728 0.6879022171241533  -0.2402120605469595 -1.711293099448459 0.5951721536062687  -0.4600007231585856 -1.741224516301115 0.839054333966232  -1.460269210528559 -0.997142497751212 1  -1.536047625067858 -0.9519929514599034 0.8052694561656402  -1.588692758267181 -1.201610047034396 1  -1.696041285575386 -1.049210865804753 1  -0.9276927122636932 -1.18966297302634 0.2221042075729678  -0.8872796870605097 -1.4002985370975 0.3147842555428691  -1.288568259440269 -0.805512686298428 0.2258674758772604  -1.225520025366661 -0.794093745484538 0  -0.8818497861445191 -0.4613155571981952 0.7311394935597686  -0.8370702135273155 -0.5450922451011507 1  -1.027492750785988 -0.6524847028891798 0.8199378413995048  -0.7786461866372218 -0.6199357634264332 0.8011130297803182  -1.575027654417853 -0.4272778672614745 0.3583387676772505  0.2714449589252247 -1.737958397311344 0.5450653594799665  0.1950572695963902 -1.642354837545477 0.8022942540786289  0.03120277905539251 -1.811956316928485 0.8125929633736308  -0.8639445355284535 -0.8583291060170649 0.8054362079504707  -0.6681267201658774 -1.099552128393463 0.6661740090429282  -0.6715769074605573 -0.9935685522856664 0.8357754955456658  -0.4440833295236094 -1.71425197172058 0.4678594158892408  -0.4183657802379684 -1.953020693211437 0.408732946950341  -0.5813842162651643 -1.903569591275731 0.523429982291165  -0.3808198010052772 -1.790558406603984 0.1504571686824595  -0.5815907792414369 -1.730327197418943 0.1999992988745308  -0.5077763251465293 -1.9258983009339 0  -0.4183657802379701 -1.953020693211436 0.2277978856468753  -1.4222824581895 -1.084590503732421 0.1953208450696405  -1.63681176493991 -1.142976867755885 0.3120733790262914  -1.539885573357767 -1.261081773920541 0.4764827457208107  -1.647982157896459 -1.129365704556127 0.5912151627944675  -1.432341127333238 -0.8020961674110092 1  -1.285361083627857 -0.7056318215590633 0.7820307561532949  -1.395988323856173 -1.429170629081726 0.2701485651502452  -0.07500943433028509 -1.474435204751512 0.1919497770721977  -0.3137778112923204 -1.68608512553939 0.2678397090627448  -0.03520767882359688 -1.640567625407656 0.3320536221747551  -1.229384016800246 -0.8172292866491174 0.4411307233346597  -1.562107303025337 -0.8714576333881834 1  -0.1566368448175122 -1.793720957643859 0.18398156279419  0.05030182414384535 -1.803661568783909 0.2036923702794375  -0.03543509394030583 -1.764333212356711 0  -0.2014555392941981 -1.478248236877164 1  0.003668755892212508 -1.493215934204981 0.787439376260352  -0.02232178777519556 -1.473130981466516 1  -0.154369246248236 -1.699740344597331 0.7947821971961868  -0.6473028356127737 -0.7561866109268153 0.3046988722058142  -0.6622625981428886 -0.9674380054790881 0.1667270624174167  -0.4925509432611309 -0.8651541244581579 0.2340519535717435  -0.5864317813477913 -1.00499243216721 0.3747039238690006  -0.8561474899215658 -1.001364049625688 1  -0.8234030488632201 -1.227864263700687 0.7971660546693747  -0.6240956319681428 -1.097419055583654 1  -1.895141120398549 -0.6091691611241368 0.4773268319077155  0.2057664659883401 -1.423434689071494 0.7640294242581815  0.1007019071959621 -1.603439299358557 1  -0.6368272338775195 -1.693027353228223 0.8099549854831261  -0.6846365793693017 -1.619799801115259 1  -0.87374366514047 -1.789830458324557 1  -0.7677466476962631 -1.430304235837895 0.8149664493944945  -0.3199640933144202 -0.9429052360103518 0.7578281535473974  -0.2659591891699546 -1.1284900652415 0.7985766483770914  -1.732293608121397 -0.981387540699419 0.4766342653695815  -1.136023885573776 -0.9739462810986533 0  -1.312143823607195 -1.118484178884738 0  -1.214077727804358 -1.08067869725745 0.1803917315920848  -0.590119815534959 -1.900919676207915 0.3182654162986099  -0.4925509432611309 -0.8651541244581579 0.5  0.05343103384430749 -0.9947375024938501 0.5  0.05343103384430752 -0.9947375024938501 0.7658315521872422  -0.01611705518357669 -1.173434577098943 0.1859369354259534  0.07154606132155185 -1.321715210143045 0  0.1477956984970681 -0.9854433942448714 0  0.1801353948751905 -1.193599542703115 0.2007384199400539  -0.5616060024380179 -1.386687091185208 0.8148643367043878  -0.8003104928752021 -0.9034212800942407 0.5276102543982508  -1.031197119573864 -0.7966433949198815 0.6423524737321922  -0.9903393271760718 -0.7893858577995121 0  -1.041556514867787 -0.9879428034616119 0.2526681143367585  0.04801221851458279 -0.9952712092202078 0.2405432884014712  -0.7219618228038823 -1.307247678942268 1  -0.424931754213151 -1.254338206796035 1  -0.5126054700643949 -1.558802044544336 1  -0.7773345907527112 -1.628786731198925 0.6526384974201469  0.2154728929730389 -1.978777772385657 1  -1.521721023277034 -1.283215342234634 0.2410338395570504  -0.865384944162939 -0.8553394389184948 0.1720783019779129  -0.7184124931061813 -0.6933307313531918 0  -0.8515368795528185 -0.9959513296075999 0  -0.2495643282831916 -1.975420059079501 0.523296014419804  -0.2558928613726579 -1.974796752974326 0.7590571066826004  -1.247013422168451 -1.551431171262626 0.2410943834276965  -1.105932760739789 -1.665722801080378 0.3119391242858136  0.1565705466232291 -1.98457914713868 0.5229942139642612  0.1475013517951027 -1.985472384864622 0.3180605671254942  0.04828442375762464 -1.791526417147052 0.4778949596205868  0.3259282302928228 -1.967898871204743 0.4084490649969672  0.1222954257414549 -1.987954951894562 0.7650725853231248  -0.945887529797514 -1.75126875927484 0.2410674713138804  -1.581662913688258 -0.9018160801693318 0.1602142017296592  
[...]
<PointData  Vectors="f_21-0"> 
<DataArray  type="Float64"  Name="f_21-0"  NumberOfComponents="3" format="ascii">-1.1886339870666947e-02 2.2743249398875379e-03 4.9556873768715641e-02  -1.1408033471205344e-02 1.6869429259967700e-03 4.9793580014197855e-02  -1.2969023696506030e-02 -4.6375755306850492e-04 4.9321550836542265e-02  -1.1454697002404183e-02 1.6209733189050245e-03 4.9451218103260329e-02  -1.1620820722061321e-02 -2.3088846876226621e-03 4.9207070266158948e-02  -1.2777162838523337e-02 -2.4297939336989983e-03 4.9194575265697406e-02  -1.1496687617033607e-02 -2.3877303682976738e-03 4.9165037725234707e-02  -1.2999057604329126e-02 -3.2179842676138639e-03 4.9187429573076244e-02  -1.1973244704030789e-02 5.1289026511495441e-04 4.9341528371375391e-02  -1.0497262882625020e-02 2.8958447821451085e-03 4.9664133156232977e-02  -1.1231644969332127e-02 1.4842969282884834e-03 4.9162985324827858e-02  -1.0234614986202054e-02 2.8403681962997631e-03 4.9422947413349780e-02  -1.2681095634288757e-02 1.3540084443813445e-04 4.9199200894934667e-02  -1.1688098884843711e-02 9.4392926168118760e-04 4.9023621104479040e-02  -1.2470528477021464e-02 -4.4643427448612014e-04 4.9196138832862293e-02  -1.3174859209821980e-02 -1.6209409487550302e-03 4.9256161835020497e-02  -1.2766121276540407e-02 -2.0745550292680325e-03 4.9253893912294990e-02  -1.2820741390052685e-02 -1.5587760142482662e-03 4.9139907566864330e-02  -1.3229630758875333e-02 -1.9355676217607662e-03 4.9137725688277796e-02  -1.3394944885732476e-02 -3.2895323398146456e-03 4.9627272976720933e-02  -1.2879141924435745e-02 -2.2491167333377024e-03 4.9036773161996595e-02  -1.2573915410580240e-02 -3.1610027644788444e-03 4.9340260425655549e-02  -1.3003805826770734e-02 -2.8663287312002501e-03 4.9007767648379261e-02  -1.1021473055207471e-02 -8.4596769666313871e-03 4.8172397936637315e-02  -1.1148364045090382e-02 -4.5692258975368640e-03 4.8787316341139773e-02  -6.1921455623175298e-03 -8.3092208688803244e-03 4.9265415684218154e-02  -8.9095716820339413e-03 -7.9291589865267201e-03 4.9093479240412824e-02  6.5607910496801062e-03 -7.0119827411359043e-05 4.8242403058958445e-02  3.9204425026452307e-03 2.9514870598503391e-03 4.8423018877570195e-02  7.0597846554500306e-03 2.6466839803781681e-04 4.8269222587109910e-02  3.0346238110864360e-03 3.2691311214310555e-03 4.7918630791233020e-02  -9.4913920993341238e-03 -1.6704958820483507e-03 4.8658718455201672e-02  -9.9549327722039255e-03 -1.6275061133592143e-03 4.8835650478293816e-02  -9.2193964499907074e-03 -1.5936342870230805e-03 4.8140105559791403e-02  -1.0870916666870191e-02 -2.3908511025238876e-03 4.8752321393131980e-02  2.0896637624713294e-03 4.5822112556594468e-03 4.8740393010422108e-02  3.5898809513868458e-03 3.2624880401970675e-03 4.8573419008639693e-02  2.6822344856554667e-03 3.9115394488744362e-03 4.8068426454189885e-02  -5.4363892805211547e-03 1.3420384700408433e-03 4.8761877800795592e-02  -9.1701745977717866e-03 -1.2773065283181453e-03 4.9136438739564366e-02  -7.9252073549578254e-03 -1.2467854661462035e-03 4.9198195976541521e-02  -6.8261104847575933e-03 4.6993527133788851e-04 4.9142580915470850e-02  -7.5306293487632158e-03 -2.3414777661734032e-03 4.9024237551857926e-02  -5.6208391509774726e-03 -2.7630543073072777e-03 4.9320382077255559e-02  -3.1571116613893880e-04 -5.3306167025004008e-04 4.8616380517716704e-02  -4.4378134701184698e-03 7.9871191544539583e-04 4.9201126496949334e-02  4.9840792555368423e-03 -2.6060483120826832e-03 4.9205138711364421e-02  -5.4462258700946689e-04 -7.8036339289185822e-04 4.9810031530691239e-02  -1.0611380651783277e-03 -3.2124265739610827e-03 4.9199115744045015e-02  -7.9210927163025652e-03 -7.9349029182016109e-03 4.9221548892403252e-02  -3.7161480366297820e-03 -7.7966043439121622e-03 4.8914016497505833e-02  -1.0281547347586954e-02 3.1309698414969688e-03 4.9195248243941669e-02  -1.1647049502125504e-02 1.1918381609068978e-03 4.8858409923085586e-02  -1.0345787911337235e-02 3.1116610539817435e-03 4.8734105939663687e-02  -8.6333566611398026e-03 4.9422279836464668e-03 4.8695383517432030e-02  -1.0361040111790426e-02 2.7699960052222647e-03 4.8722861012207873e-02  -9.8044217998138426e-03 4.0350311196210419e-03 4.8159593676267425e-02  -8.6431132126268458e-03 5.0628958310650705e-03 4.8840603822574213e-02  -1.2799546458818058e-02 6.7595528680574235e-04 4.9154964517466621e-02  -1.4954433340891870e-02 -3.1925173191128483e-04 4.8817512302687605e-02  -1.4780249434461816e-02 -1.0955279954031384e-03 4.8495388859267102e-02  -1.5550088180942997e-02 -2.7407600587879620e-03 4.8273613551632955e-02  4.4499872060544668e-03 2.2935777073925705e-03 4.7944162523400037e-02  -1.2437758821930031e-02 -3.1309328109067973e-03 4.9088604957033065e-02  -1.0727721457579317e-02 -2.2804856589407328e-03 5.0143092830502382e-02  -9.2901898631553882e-03 -1.5395423604232675e-03 4.9763221223633788e-02  -1.1288624007624202e-02 -2.2621510307382357e-03 4.9434697045589948e-02  -1.1445574516760393e-02 -2.3265895102214328e-03 4.8913123063058860e-02  -1.2236424712139912e-02 -2.0665674070256376e-03 4.8804511458422725e-02  -1.1255071205677199e-02 -2.1124927146078244e-03 4.8884714474925005e-02  -1.2166292721915824e-02 -2.5586502265406929e-03 4.8304481382410731e-02  -1.1150095604537679e-02 -2.0359573938344283e-03 4.9224361800329762e-02  -1.2160099780368689e-02 -1.9846892316834532e-03 4.9188586265574465e-02  -5.9292968271377087e-03 5.1829151350206350e-04 5.0215728081113437e-02  -5.0757913903351631e-03 1.3211665573125346e-03 5.0447174587715866e-02  -7.9498459992764451e-03 -3.2653710526555843e-04 4.9678756002500282e-02  -4.9037724464442156e-03 -3.5821831095095352e-03 4.9767414665497389e-02  -3.7618381388124194e-03 -7.8110620094301170e-03 4.9499050975227235e-02  -1.3645420617982436e-02 -2.6553675889152578e-03 4.9268883772239001e-02  -1.2574372916646809e-02 -2.6139050214546919e-03 4.9188825997525991e-02  -2.5844851950852705e-03 3.7618493884135655e-03 4.8731510713375177e-02  -2.3067576653928957e-03 3.4121625150593153e-03 4.8939320519370971e-02  -4.3303132920525667e-03 2.2865897262384668e-03 4.8399102362457723e-02  -1.3158037767306988e-02 -1.2193428817556715e-03 4.8866535153985161e-02  -1.2441786708195518e-02 -2.8808523425355806e-04 4.8908153314375327e-02  -1.2988262811197351e-02 -1.2133241423719012e-03 4.8283389155541853e-02  -1.2473853126746134e-02 2.2350736355634693e-04 4.8196015955588228e-02  -1.2527168052343943e-02 -3.1223319038559154e-03 4.8895141786907480e-02  -1.0668406358607611e-02 -2.0322458018905806e-03 4.9252108223354248e-02  -1.3366427585450110e-02 -1.2717888412720221e-03 4.8990088295903018e-02  -1.4167087231175456e-02 -1.8432873467945205e-03 4.8624766631395588e-02  -1.8523933190825449e-02 -2.2871344459791192e-03 4.9871775952733177e-02  -1.8681725139069037e-02 -4.1358367304533666e-03 5.1011787962738059e-02  -1.5478337359107277e-02 -2.7532435762073204e-03 5.0019003950008571e-02  -1.7819104426569556e-02 -5.2429393661874357e-03 5.0486451945150820e-02  -9.6145873500268590e-03 4.2263208029719506e-03 4.9426307279724101e-02  2.9988542072167256e-03 3.4895333645079355e-03 4.9089852269490981e-02  2.5962256833049605e-03 2.9227977322686151e-03 4.8281859696616955e-02  5.2388055889064774e-04 4.5191904501477517e-03 4.8386649426098195e-02  -1.5055948271547943e-02 -4.5730128118052459e-03 5.0194043201855824e-02  -1.1995068503317441e-02 -3.9387704393836548e-03 4.9479343066586495e-02  -1.3344950807088762e-02 -4.9684811416779457e-03 5.0077576207954937e-02  -4.3858832144636536e-03 2.3377497178933612e-03 4.9277395452156418e-02  -2.4289012383135705e-03 3.9200286370259414e-03 4.9425095996146730e-02  -4.0190122863123841e-03 2.5703633095850087e-03 4.9139197011492136e-02  -3.2310770740409007e-03 3.1268659665043491e-03 5.0055888623900549e-02  -5.5228396647256268e-03 1.4330694444485317e-03 4.9862646250281951e-02  -3.1882956740384278e-03 3.0090591702380998e-03 5.0408227730065494e-02  -2.4100657374539285e-03 3.8630384123152744e-03 4.9864399251406323e-02  -1.2949714065488505e-02 -1.5282275860469940e-03 4.9380638085098967e-02  -1.2421898266779939e-02 -3.8835390849288457e-04 4.9520193678292350e-02  -1.2549344285414264e-02 -1.2856942150386485e-03 4.9235126571301149e-02  -1.2335758746297474e-02 -2.2519227728327610e-04 4.9037650848369092e-02  -1.2896589378349583e-02 -3.1292189098698056e-04 4.9079795082099212e-02  -1.3333837511208611e-02 -7.2762381051323980e-04 4.9417067877682644e-02  -1.2162285095875891e-02 -2.0992251919839510e-03 4.9566183021417347e-02  -9.3502530344521180e-04 1.5242395285239426e-03 5.0348094360181540e-02  -3.2262089470851277e-03 2.8173030064430039e-03 4.9827751212804937e-02  -1.7954672101513330e-04 3.3588543083799124e-03 4.9770953400444601e-02  -1.3613744036359050e-02 -1.6779993715423951e-03 4.9141786876187164e-02  -1.2396892674961836e-02 2.2624385572286352e-04 4.8670547107320418e-02  -1.1648129428040862e-03 4.1988730346355233e-03 5.0040011566449362e-02  7.0500899644842683e-04 4.4580108284198658e-03 4.9988455558665136e-02  -8.2020194012851280e-05 4.2206284063011348e-03 5.0558194546171678e-02  -2.7782540947711440e-03 1.0973665302120828e-03 4.7628928023487623e-02  3.0968760461316108e-04 1.7956289782344228e-03 4.8140599439103378e-02  -1.0926373401512395e-04 1.3922740316017887e-03 4.7402866896556255e-02  -1.4262186719318387e-03 3.5288647660056110e-03 4.8334936160926455e-02  -1.5929090184814306e-02 -6.7198323231004746e-03 4.8450807552261374e-02  -1.3557340174065527e-02 -5.1733073680016702e-03 4.8328338599072790e-02  -1.3009944929198587e-02 -7.8236958818657196e-03 4.8474917718687158e-02  -1.2430763139195243e-02 -4.9673151275757546e-03 4.8952962176465956e-02  -1.4063212538376797e-02 -4.5435725590236911e-03 5.0408556244115506e-02  -1.1804461258018643e-02 -3.0230411057170516e-03 4.9453052735416260e-02  -1.1764538513736676e-02 -4.5471250981390082e-03 4.9964105432164493e-02  -8.5325059776908147e-03 5.1580759118238263e-03 4.9255154048903856e-02  3.7479835085700700e-03 5.8075580687143248e-04 4.8369809326232083e-02  1.5107225829607616e-03 2.7651215928943748e-03 4.7594900277349049e-02  -6.3410875743523248e-03 8.1185065924917720e-04 4.8574340061702401e-02  -7.3535444290791221e-03 -2.1616261703738277e-04 4.8317128989751677e-02  -7.3057431043869201e-03 -3.9726525718535965e-04 4.8042930213892748e-02  -9.7063318854658902e-03 -1.6316426730965459e-03 4.9023843445342608e-02  -8.8516200327894735e-03 -7.9921452343333019e-03 4.9369637916106594e-02  -6.3201567277031672e-03 -4.1967360763637534e-03 4.8843129340720139e-02  -1.1632878759538653e-02 1.1447749149598914e-03 4.9234710736555588e-02  -1.4164667712656899e-02 -3.0911753556615300e-03 4.8542400354671701e-02  -1.3439350111152644e-02 -2.4220384718868504e-03 4.9281391897625683e-02  -1.3347290897207551e-02 -2.5555454375237254e-03 4.9020630216197472e-02  -4.1246051233784142e-03 2.4545184198356421e-03 4.9660328451580082e-02  -1.2946114253586036e-02 -7.6299651862075180e-03 4.9217935350092619e-02  1.7603270659583481e-03 -7.5964628755904821e-03 4.9222626293284083e-02  1.8536116122741199e-03 -7.6863178622776449e-03 4.8650921280645118e-02  -1.4603612941078105e-04 -3.3521907026707637e-03 5.0137016496116564e-02  1.6365619278755675e-03 -8.6466877447008558e-04 5.0949225885295567e-02  4.4854140019831516e-03 -8.1352132755637130e-03 4.9791007118516140e-02  4.5445244569203421e-03 -2.9976296633644497e-03 4.9918777539228604e-02  -8.3009708693664187e-03 -1.2096974281000034e-03 4.8923260164220959e-02  -1.4514760718672814e-02 -4.6730460735245703e-03 4.9278048048428315e-02  -1.4740618512550216e-02 -3.0909888150431491e-03 4.9567139773150130e-02  -1.5471786539235447e-02 -3.7560421161720687e-03 4.7847828129871206e-02  -1.3882409197835217e-02 -3.2525370147879666e-03 4.8744016344828951e-02  1.6907963105153765e-03 -7.6515068904789880e-03 4.9766394565913016e-02  -1.0421130786418473e-02 -2.7380207105931640e-03 4.9240250038315871e-02  -7.6692137680550252e-03 -2.5677265904343566e-03 4.8768439629078904e-02  -6.1709607265885615e-03 3.6958604433103172e-04 4.8237518520091567e-02  -8.0209603872947195e-03 -3.1131443917354392e-04 4.8951349959741083e-02  1.4306194256015930e-03 4.9680187997057732e-03 4.8142604169861013e-02  -1.2629335543162739e-02 -1.5139329855552806e-03 4.9619472999411017e-02  -1.5053859281710272e-02 -4.5545202574436222e-03 4.8137207765680493e-02  -1.7383760658284602e-02 -6.6931772402393404e-03 4.6994273804197323e-02  -1.4081632171202880e-02 -4.5226924110430312e-03 4.7975480543250189e-02  -1.2038893754025334e-03 4.9123405119711671e-03 4.9142137579421361e-02  -1.2428498293730701e-03 4.8136677943817407e-03 4.8587503842562565e-02  -1.1166356438906112e-02 -2.1301983043146944e-03 4.9638720997075780e-02  -9.7170363259154232e-03 -1.5534545821045695e-03 4.9537165402344298e-02  1.1253371936723964e-03 5.2412000947031539e-03 4.9154767020806255e-02  1.0690666445447793e-03 5.2447481624642647e-03 4.9634805232948817e-02  6.8615474052374781e-04 4.5002469254504327e-03 4.9272856980102371e-02  2.2137065037860408e-03 4.5187733170925807e-03 4.9433782641038142e-02  9.2316663964180611e-04 5.2689993778245129e-03 4.8608284878766353e-02  -8.0934778496104341e-03 -6.3632507678645261e-04 4.9742587326649566e-02  -1.2127275102144570e-02 3.0029455181687355e-04 4.9591306226112047e-02  -2.5135187289959341e-03 1.2069989800806734e-03 5.0821134599563486e-02  -5.5107978360720185e-03 7.9001736807716007e-04 4.9906908303233612e-02  -1.8648306551823117e-03 3.4152324737089530e-03 5.0585698704504245e-02  -9.4187217544795809e-03 4.0127095056106364e-03 4.9701114086920836e-02  -8.2438455611361146e-03 5.7296161283542386e-03 5.0151582235976933e-02  -9.9704423643637158e-03 3.8565523446572421e-03 5.0269978154878742e-02  -8.8544442713206668e-03 4.8730981876216736e-03 4.9722072144623465e-02  -8.2737796494694229e-03 -6.7905141087693335e-04 4.9265759001388632e-02  -9.9871124524672228e-03 -1.5379370993957404e-03 4.9114619840399283e-02  -8.2842573952140418e-03 -7.1015468731467539e-04 4.8821453826530581e-02  -2.8715142620689307e-03 1.4775989938163626e-03 4.8435125607417098e-02  -5.0825134393869629e-03 -9.0521404280014938e-04 4.8403313704313937e-02  4.0785550306219965e-03 -2.7723542195782743e-03 4.8382103065844534e-02  -1.1765871211929053e-02 1.0282297744809844e-03 4.9688869260072037e-02  -1.2533849922209319e-02 1.0173888838977237e-04 5.0178907537978282e-02  -1.2370233189851367e-02 -3.6120647139659518e-03 4.8683176770526894e-02  -1.0231255796418108e-02 -2.6104894275993818e-03 4.9195056690451940e-02  -1.1705903272833077e-02 -4.5471476122123100e-03 4.8464849924189923e-02  -1.1620042851648854e-02 -3.3145101109134851e-03 4.8833934919004791e-02  -9.0482017445090660e-03 -1.4869298635975983e-03 5.0238948632834651e-02  -1.4477261896171437e-02 -3.5009878740861855e-03 4.9026671677979139e-02  -1.7268709420551764e-02 -5.4619543590374627e-03 4.9013929701503603e-02  -6.0551075248682189e-03 8.5593066059268350e-04 4.9195962823971109e-02  -8.4551071476305882e-03 -5.7895963037908865e-04 4.9288067874957098e-02  3.9842869996114865e-03 1.1574624451755541e-03 4.9224936096113343e-02  2.6348127334419403e-03 1.0960264563262714e-03 5.0209517868872948e-02  -1.1246293181133843e-02 2.3371354469351735e-03 4.9017888157926570e-02  -1.0781525561450248e-02 -4.5644438072154087e-03 4.9521219212744140e-02  -3.7625974744618096e-03 2.4475233351132115e-03 5.0430978137099257e-02  -1.3467795943121311e-02 -2.3597835495799790e-03 4.9124016698039299e-02  -1.1813441135276991e-03 4.3238097218086151e-03 4.9430499734916249e-02  -6.4422919437302079e-06 5.4572883817462859e-03 4.9207682722701089e-02  -1.1671603412523147e-02 2.5759377819801767e-03 4.9223562809230764e-02  -1.4422273537427975e-02 -1.1091952491100354e-03 4.9432129439879562e-02  -1.2507614070190380e-02 2.9693783693123567e-03 4.9108556770590575e-02  -7.7082484930892084e-03 -2.6510128622388076e-03 4.9608404813982043e-02  -3.3358738563168794e-03 -2.2210338318827709e-03 5.0575730737800362e-02  -9.9136531066610009e-03 3.2825071301355925e-03 4.9124027950351604e-02  -8.0863974128956417e-03 5.8850113181385406e-03 4.8268890179355997e-02  -1.1793085709290966e-02 2.4810011341187778e-03 4.8816423088687652e-02  -1.1522436640573062e-02 1.5465488337426270e-03 4.8620925977914793e-02  -1.0129458086484936e-02 3.4301239062662641e-03 4.8505372779279028e-02  -1.5876701985417161e-02 -6.8468876832747088e-03 4.9990764869109500e-02  -1.7329886232963280e-02 -6.6907199611107261e-03 5.1448823940177017e-02  -1.2587436254610668e-02 -1.3825092981097548e-03 4.8902411183522648e-02  -1.2865591928688309e-02 -2.1657215462772641e-03 4.8311205922012927e-02  -8.0778903932678657e-04 1.9982154844343201e-03 4.9119935297475888e-02  2.9520016510317386e-03 3.1414029628601919e-03 4.9907329966048450e-02  -6.7900325896648097e-03 3.7252810165300351e-04 4.9506619674481153e-02  -9.7807207922019331e-05 5.3969803597764959e-03 4.8677271451027113e-02  -8.7638341254252933e-04 -7.8164128013089428e-03 5.0237143375460681e-02  6.5245994741498494e-03 -2.7271152599378928e-03 4.8430749119351281e-02  1.6726295011208186e-03 -8.8482032906845047e-04 4.7487012453170309e-02  -1.4030445429510792e-02 -2.5471397312669332e-03 4.9673017796689006e-02  -7.3130007705387908e-03 6.5195243633485349e-03 4.9560721962158390e-02  -1.2137962166631790e-02 -2.8146984017670181e-03 4.8849600067744525e-02  -1.0888273983100018e-02 -2.3590658865947248e-03 4.8249329898501239e-02  -1.1440150476228135e-02 3.2382158199383004e-03 4.9548922414777576e-02  -1.5688227994578040e-02 -3.1406548092710929e-03 4.9183841190339694e-02  -1.7604751230650740e-02 -5.0107856753472298e-03 4.9896442707463164e-02  -1.4364038045539722e-02 9.5686730985871814e-05 4.9183982688636524e-02  -1.8426074746240244e-02 -2.3199336742365374e-03 4.8540288265568297e-02  -1.4679077257021816e-02 -2.4674110649174487e-03 4.8820824690515310e-02  -1.4193096933323010e-02 -3.0401400311626625e-03 4.9841178246525786e-02  -1.4759332482239840e-02 -1.0967407643646279e-03 4.9907098732779404e-02  -1.3387369214296526e-02 -4.2050358014502891e-03 4.8692517332468557e-02  -6.2655877638087909e-03 6.4521235136101877e-04 4.8657996772714054e-02  -5.2772014606131939e-03 1.1451804208970928e-03 4.7932946698553400e-02  -1.4869355186889439e-02 -8.0050507777949618e-03 5.1136946320050766e-02  -1.1183747672853333e-02 -2.7069169987690971e-03 4.9163008565114547e-02  -1.2984118466016126e-02 -1.2973503709073546e-03 5.0108249207604642e-02  -1.2758754368965019e-02 -2.2323747683812636e-03 4.9425443644282141e-02  -4.3601179517089497e-03 2.1809923613505680e-03 4.8525204587127849e-02  -1.5339549437093272e-03 -3.6490485375844633e-03 4.8424750837526384e-02  -1.4976647077028907e-02 2.8530275089455414e-04 4.9511888446431118e-02  -1.2807021458241401e-02 -2.2074496508745264e-03 5.0074725611985407e-02  -1.5507083557886344e-02 -3.7947748932400053e-03 5.0575584552257115e-02  -1.4003084230298390e-02 2.0138866881238993e-03 4.9230826400377022e-02  -1.8726851789942649e-02 -4.1260944546153934e-03 4.7388963643070471e-02  -1.7561437907670492e-03 3.6947323569083736e-03 4.7880857268046979e-02  -1.7666745909957816e-03 4.3001382664244834e-03 4.8080990333850417e-02  -5.8782214224394665e-04 5.1891334102414349e-03 4.8161021399985821e-02  -1.0286544954750126e-02 -4.2062820855139089e-03 4.9238921345797451e-02  -1.7669532377794044e-02 -5.2048196077638205e-03 4.8180628317939150e-02  -1.1032650805546893e-02 -8.4844223199632418e-03 5.0311281641577874e-02  -6.2220147862256285e-03 -8.2648151538529963e-03 4.9084376909006772e-02  1.5075117310188427e-03 3.1029821260946115e-03 5.0773107018317450e-02  4.8638392999909082e-04 5.4337583493476839e-03 5.0208323635736296e-02  -7.7642812325405723e-03 5.9330713799091465e-03 4.9276989084762364e-02  -5.1158568243302284e-03 -4.7113547690941259e-04 4.9855812990208692e-02  -5.3120912144517512e-03 -2.4745360659925587e-04 5.0310351879253111e-02  -7.0911772735090736e-03 -2.3953985182614647e-04 5.0367087846783676e-02  -6.0652278713383351e-03 7.8678687993331722e-04 4.9742630387479253e-02  -4.7426447578322972e-04 5.2465802027245627e-03 5.0235809454816968e-02  -9.8670877653302888e-03 -1.5877159204473383e-03 4.9026367881392675e-02  -9.9185468441478353e-03 -1.6893424834394553e-03 4.8677732191937308e-02  -3.3424677712759489e-03