<?xml version="1.0"?>
<VTKFile type="UnstructuredGrid"  version="0.1"  >
<UnstructuredGrid>
<Piece  NumberOfPoints="176" NumberOfCells="626">
<Points>
<DataArray  type="Float64"  NumberOfComponents="3"  format="ascii">-1.462744779920422 0.4173062759430208 0.7927788025429325  -1.315004706961013 0.6972167789990056 0.7557377227898123  -1.24261630433174 0.4137133052539228 0.6762314288941822  -1.564690195006766 0.6196325639107423 0.6892222911693506  -0.9912607890003962 0.0887306983322423 0.7688596154928593  -1.157675661796024 0.2874316557483794 0.8237284357888865  -1.193677763294787 0.02935523231729001 0.812175874957884  -0.9819498088636408 0.1832666661363625 1  -1.370317109984933 0.6068829405856371 1  -1.374007622100844 0.09777626041767989 0.7163944533892758  -1.497526988319634 0.06223231979832809 1  -1.257318893890059 0.113297357199552 1  -1.426410269324307 -0.2746123173713337 1  -1.500573791635198 -0.1343119170450844 0.7793914918465166  -1.628642811205088 -0.2280282795420948 1  -1.553893487133441 0.2026855142925206 0.8123817161664363  -1.724055721366079 0.08454345261679307 1  -1.730806770054562 0.2680869584325063 1  -1.738241993048834 -0.1668323661063556 0.5052707113179995  -1.678786771260193 0.05495038097256552 0.6892783914122976  -1.475115822476183 -0.1061604368231795 0.5102968426790093  -1.65956562518322 0.6779485992594181 0.1896533736052345  -1.720532437548271 0.4373519509618823 0.1754478773861343  -1.709763549103771 0.6410356720050135 0.4332539624816215  -1.885130003936691 0.6421713892771141 0.270111656601095  -1.636071442661823 -0.3475227057135603 0.6780535416162582  -1.770439526340713 -0.3857097409097593 0.4625341959737544  -1.944522349779485 -0.4463810640409471 0.5920894244586623  -1.974189182631205 -0.2620616265888291 0.7298883433989083  -1.311232433775281 -0.5655346387499858 0.2575624298059242  -1.115114617145163 -0.4774046250283511 0.183365501259989  -1.389282245793132 -0.390104725039531 0.1762849063852214  -1.272047610987646 -0.2896564134506388 0.3164264087849299  -0.9290527823196455 0.3656295132424565 0  -1.190015801986949 0.4859549610262058 0.2855300420029705  -1.154952165344322 0.2392481477379702 0.1941991349140578  -0.9566144206959937 0.2747709680011161 0.2420850819122637  -0.9917877951958876 -0.08337991463409308 0.3014470703819548  -1.203640036831656 -0.08325252803474509 0.4828454397889581  -0.9711427085821456 -0.226877621308203 0.5  -0.9912607890003962 0.0887306983322422 0.5  -1.200554184744864 0.1951582901488528 0.5722415843174004  -0.9566144206959937 0.2747709680011161 0.7579149180877363  -0.9807852804032304 -0.1950903220161286 0  -1.209935812895535 -0.3819042831015633 0  -1.820860037820459 0.0940778455954159 0.8249209159235769  -1.740429359649223 -0.4716914031645397 0.8098827929228846  -1.675175657750933 -0.6607398531446582 0.8269759785572082  -1.863047176396528 -0.7149687156812052 1  -1.892475081514288 -0.6179579134933961 0.6823257906480289  -1.694030268265159 0.2521086332974301 0  -1.9123088686015 0.5525746798567135 0  -1.963291281964382 0.3727098689263164 0  -0.8818497861445191 -0.4613155571981953 0.5  -1.150536973579396 -0.480913571459282 0.4660449197857321  -0.9563006605232179 -0.2758052966743181 0.7404721885678482  -1.971763274727665 -0.286692282878117 0.4416850368765731  -1.989110983577033 -0.1105580390958591 0.2754498220525415  -1.761579966123775 -0.2663709394208962 0.2302127468000587  -1.93944788191584 -0.4631093427328397 0.312468973614769  -1.7586360996564 -0.1593651247605219 0.7674836060750635  -0.8818497861445191 -0.4613155571981952 0.7311394935597686  -1.115941880422272 -0.4305433895007025 0.796606423718511  -0.9256039491140714 -0.3769987926575506 1  -1.212002869458737 -0.2375731748946453 0.8353124047479963  -1.21000317190587 -0.3819247162339598 1  -0.9807852804032304 -0.1950903220161286 1  -1.525927344464973 -0.2393749232136364 0.2219150219271743  -1.415930250292146 -0.03013962490768879 0.2431523579218497  -1.749285118686629 -0.0940061731589974 1  -1.575027654417853 -0.4272778672614745 0.3583387676772505  -1.376556337245432 -0.4413811822579451 0.4728095292503682  -1.540546267421118 0.3160575247297414 0.5788901295650919  -1.725771647669393 0.3430097485514121 0.7545419563727896  -1.72596058113537 0.4955108474915281 0.5828909256489527  -1.969434863507119 0.3103330387327409 0.6361264082428812  -1.929321970332065 0.4964899996873173 0.7245501779474556  -1.190487498900903 0.03615294689702322 0.2137535486344003  -1.473771864508179 0.1228524379847805 0.4668768675845455  -1.986252054781623 0.1395852302816939 0.4691986221315061  -1.780044200666404 0.05311175152980256 0.4889464863196062  -1.991422321557937 0.08709063075238727 0.2572330376846003  -1.972468461473287 0.2795324016947319 0.3020560919448448  -1.720206073487053 -0.3872292339129283 1  -1.917404905726146 -0.535775296840406 1  -1.9650120031223 -0.3552390938204129 1  -1.944522349779485 -0.4463810640409477 0.772562156837397  -1.731067350347138 0.3425306741520479 0.411742788949795  -1.940529183105366 0.4595447704201737 0.2391745997996103  -1.939447881915845 0.4631093427328218 0.4952633427125438  -1.907212831476848 0.5693740628730387 1  -1.733336968666854 0.4378256679860146 1  -1.961570560806461 0.3901806440322567 1  -1.570108367541714 0.5323200146201426 0.3214131146464111  -1.4996994999672 0.3046073686345621 0.2461276645980091  -1.573062635283103 0.710522813525687 1  -1.69636532186868 0.6500391759259293 0.82538474617488  -1.664660741945468 0.560043186159905 1  -1.85285510214723 0.74856748171384 1  -1.295818339527629 -0.1133243096087688 1  -1.450441019651562 -0.2765949854519154 0  -1.5576587466791 -0.06806370280219359 0  -1.222473603421901 0.3518873350067027 0  -1.46295663988695 0.3280486082887119 0  -1.257150721370752 0.1132818288738338 0  -1.614445528027136 -0.0895553740106462 0.3477398800377443  -0.9482005564984586 -0.3025077610903928 0.2301063922394252  -1.796694049967172 -0.01478787568249089 0.2086438349576154  -1.781864168871655 0.1864306443293937 0.1730525028907116  -2 -2.449293598294706e-16 0  -1.540227286709983 -0.7594309578000181 0.7158969883666931  -1.432341127333238 -0.8020961674110092 1  -1.285361083627857 -0.7056318215590633 0.7820307561532949  -1.459371640292367 -0.5186517413535566 0.749881381869644  -1.875920433601355 0.672531273966861 0.7616887288907539  -1.34376490772025 -0.6629168230233793 0.5232079866624604  -1.146979132093379 -0.6111977257244187 0.6415714464460128  -1.285156043291617 -0.351816949472253 0.6633811875835041  -1.992530085494706 -0.07584331475312509 0.504736657287455  -1.683847711978677 -0.6637140041757016 0.3554943844166969  -1.647750840002398 -0.5800941792630666 0.5582074612571528  -1.111399709213698 0.3143340114943649 0.3936982570693697  -1.417412770778386 -0.48194566875493 1  -1.596231885380743 -0.724927919435626 1  -1.635305746268364 -0.5480427802511509 1  -1.13407750712131 -0.2153179274375809 0.6269079539693194  -1.250327345612778 0.359966722685725 1  -1.358753583540909 0.4331344014522989 0.4586164123344102  -1.877945506506339 0.6658555032582358 0.5583149631234268  -1.687422812760598 -0.5289845451979994 0.1787939533334902  -1.963291281964381 -0.3727098689263351 0  -0.9994177357697949 -0.005911827939883069 1  -1.774018349100714 -0.2423465202832379 1  -0.9819498088636408 0.1832666661363625 0  -1.161618529882714 -0.6086679473328844 1  -1.412883232192979 -0.498916897224404 0  -1.304133030842394 -0.1097012979738302 0.6789968233247218  -1.599403017832927 0.3964101795874956 1  -1.652148460867653 0.1195813693636491 0.3168599109785838  -1.465782815393488 0.1193474926581011 0  -1.295023116703767 -0.113245986996865 0  -1.820074272553176 0.817161468448121 0.4079105755413405  -1.828344611031377 -0.8016887534344467 0.501479594258776  -1.895141120398549 -0.6091691611241368 0.4773268319077155  -1.989102099333176 0.1106482423375056 0.6979439080551546  -1.99827927884208 0.01747077510592193 1  -1.979924919824271 0.2038257095690893 1  -1.027492750785988 -0.6524847028891798 0.8199378413995048  -1.436854688949139 0.2633462915169819 1  -1.292882032904074 0.2047573215974398 0.3447930596874081  -1.663935857491406 0.5750728785195803 0  -1.781648922374962 0.2379196086930771 0.5841112152691851  -1.828344611031377 -0.801688753434447 0.7315233149267526  -1.78431344816284 -0.8840652651795469 1  -1.559641239500735 -0.4052782369023943 1  -1.820074272553177 0.8171614684481179 0.2274378431626041  -1.598442001919816 0.8131212705610243 0.8005177185861571  -1.7677624176777 0.9150300652967593 1  -1.857951139271881 0.7317680986975148 0  -1.98336636214011 -0.1688841593572455 1  -0.947388990623786 0.3051831352366393 0.5363564105802381  -1.650217386037167 -0.3811273884986385 0  -0.9917877951958877 -0.08337991463409308 0.6985529296180453  -1.557364917173048 0.7833533360165803 0.4519990588587856  -1.811833783889858 0.8325783383860297 0.6875310263852326  -1.623972487846827 -0.7834420794628646 0.5282118138501414  -1.972459577229428 0.2796226049363978 0.7864098642370551  -1.98164564098219 -0.1863549344631677 0  -1.981645640982192 0.1863549344631475 0  -1.748038853727744 -0.08681450671670213 0  -1.992530085494706 -0.07584331475312481 0.7646942852785927  -1.562107303025337 -0.8714576333881834 1  -0.9256039491140714 -0.3769987926575506 0  -0.9994177357697949 -0.005911827939883069 0  -0.8370702135273155 -0.5450922451011507 1  -1.391582474002526 0.487267687798005 0.2096997911392877  </DataArray>
</Points>
<Cells>
[...]
<PointData  Vectors="f_18"> 
<DataArray  type="Float64"  Name="f_18"  NumberOfComponents="3" format="ascii">-5.5198796442875710e-02 1.6269522886405440e-02 -3.0620326886946583e-03  -5.1527612129437524e-02 2.7938726747997165e-02 -2.6291155220662496e-03  -6.0506603227092379e-02 2.0789621064660094e-02 -1.5930252158534814e-03  -5.0186357419879528e-02 2.0423580378091975e-02 -1.8962440431312527e-03  -7.7810078433170449e-02 7.7677095293094646e-03 -3.0761045900651383e-03  -6.6254364881843122e-02 1.7120317716104200e-02 -3.4556511780860217e-03  -6.8115076128533902e-02 2.3275715377111274e-03 -3.3286911963489145e-03  -7.6649996955098804e-02 1.5128873650456337e-02 -5.2869179806768352e-03  -5.3150258078774423e-02 2.4107077696821789e-02 -5.5504066034560593e-03  -6.1273800113080243e-02 4.8966177224213344e-03 -2.1288792681478244e-03  -5.7954168527961043e-02 2.8958656300435816e-03 -5.4089658426288156e-03  -6.5301489502479979e-02 6.4669699593279256e-03 -5.3511521953391785e-03  -5.8108088902379153e-02 -1.0772095684478839e-02 -5.5081527770922505e-03  -5.7538145139516619e-02 -4.5545146346119220e-03 -2.8352000433175756e-03  -5.3969959180669907e-02 -7.1282465284033415e-03 -5.5415382347746575e-03  -5.5790943323823852e-02 7.8033343224717883e-03 -3.3218998163393625e-03  -5.2973354309118856e-02 3.0350097300068874e-03 -5.5065882354741573e-03  -5.2073980864886557e-02 8.6739744528599970e-03 -5.6380569891530796e-03  -5.2372845833920795e-02 -4.5280551839079978e-03 2.9488841745319830e-04  -5.3897180779110362e-02 2.3014973625760183e-03 -1.8487273198232808e-03  -5.8306462294759276e-02 -3.5420438452812152e-03 1.3783522742581307e-04  -4.8132832880434011e-02 2.0192264176754095e-02 4.0149671845620665e-03  -5.0649088989574362e-02 1.3484887448014344e-02 4.2145361054716545e-03  -4.8165588334850795e-02 1.8578863305564804e-02 1.1004468370124263e-03  -4.6591860548044026e-02 1.6352522198355774e-02 3.1369344349144470e-03  -5.2789705099336337e-02 -1.0708865327064316e-02 -1.7450281017340659e-03  -5.0317777720333544e-02 -1.0462083860035920e-02 7.7480093547717963e-04  -4.7801345021644424e-02 -1.0447626569686492e-02 -7.3474542629717570e-04  -4.8648582565716449e-02 -5.9866960360454909e-03 -2.4007695898591863e-03  -5.4799091843265119e-02 -2.3015293675135679e-02 3.0539449181318386e-03  -6.1881781190613723e-02 -2.5950159918668704e-02 4.0118694077553802e-03  -5.7114306487169489e-02 -1.5495566588245925e-02 4.0274516438855061e-03  -6.2144184520727577e-02 -1.3574933012197081e-02 2.3061393370630168e-03  -7.2814691520686065e-02 2.9316611156028155e-02 5.8368190674791751e-03  -5.9839960095579452e-02 2.5086767261663048e-02 2.7250930961900816e-03  -6.7543061062510470e-02 1.4610379249130752e-02 3.8440752701790698e-03  -7.5331378659304143e-02 2.1956380039446301e-02 3.3824778373840896e-03  -7.7851833348602420e-02 -5.3626510047913170e-03 2.6386416198334356e-03  -6.7798234519708678e-02 -3.9357029301703038e-03 5.4369301684736491e-04  -7.6276404854836638e-02 -1.6847466744784250e-02 2.4329692691756963e-04  -7.7889589344417157e-02 7.8519269614183897e-03 3.0219248264779137e-04  -6.6452997467230282e-02 1.1490436027617816e-02 -4.1863705604069435e-04  -7.5281627966614598e-02 2.2435465836124029e-02 -2.8119223993375163e-03  -7.6456007190477238e-02 -1.4417799765896506e-02 6.1408296898706975e-03  -6.2179495963302925e-02 -1.8983699863427964e-02 5.9623544479889970e-03  -5.1244857582795629e-02 3.1540975876857384e-03 -3.4972959553515722e-03  -4.9843867839454284e-02 -1.2968964549429654e-02 -3.3155831613543543e-03  -4.7970083131623972e-02 -1.8426303979864105e-02 -3.5940223670473878e-03  -4.5642736559481138e-02 -1.7047685905571059e-02 -5.7424838853944622e-03  -4.6495829407537811e-02 -1.4735411992856336e-02 -1.9349306036452582e-03  -5.2887247908061631e-02 8.3856623065739037e-03 6.2622539722977880e-03  -4.7362663616621392e-02 1.4187564371895098e-02 6.4203494756755689e-03  -4.8318233091240732e-02 9.7166183472273595e-03 6.3652075538437785e-03  -6.9075240605326327e-02 -3.5623341481000555e-02 3.4853847924882803e-04  -6.0841392948646739e-02 -2.4853277927174046e-02 6.0306860909273036e-04  -7.5085256379624876e-02 -2.0983221469210427e-02 -2.7087829891824099e-03  -4.8493004895042720e-02 -6.5199776615155521e-03 1.0241402676930366e-03  -4.9097795526283253e-02 -2.1510790355268503e-03 3.0887883507196780e-03  -5.1473018930173822e-02 -7.2410993592979256e-03 3.5385684645226354e-03  -4.7705973960050663e-02 -1.0911548246866959e-02 2.5922880816146745e-03  -5.2056743219946397e-02 -4.2153865139669677e-03 -2.8545624247135770e-03  -6.9449154636258212e-02 -3.5640770953166069e-02 -2.4809173669489569e-03  -6.3438281741427641e-02 -2.3934457876902883e-02 -3.0471792833817930e-03  -7.2160227080198508e-02 -2.8670813863572907e-02 -5.5702907082810062e-03  -6.4968211125345676e-02 -1.2187043318048140e-02 -3.6021495194547750e-03  -6.2139057321081305e-02 -1.9066945386667929e-02 -5.3762503506509683e-03  -7.6817954832413493e-02 -1.4435802084386277e-02 -5.6549642531261608e-03  -5.6166464028872147e-02 -8.2442474994438263e-03 3.4911040848987470e-03  -6.0206354221551607e-02 -6.5183600856605871e-04 3.2921664477408882e-03  -5.2496665701212725e-02 -2.4300784882962880e-03 -5.5881566773090165e-03  -5.2836852299315569e-02 -1.3680719113431983e-02 2.0195067199270649e-03  -5.6494514820105340e-02 -1.7572207100595729e-02 5.8459337182330327e-04  -5.5138556232140111e-02 1.1887596986436223e-02 -6.1375707251565509e-04  -5.1412438386004407e-02 1.0749653758554171e-02 -2.7639229311496355e-03  -4.9875151400303609e-02 1.4930307380286374e-02 -6.4879542737308915e-04  -4.8430317647843522e-02 8.1534446610779417e-03 -1.2632719506517356e-03  -4.7575849478163908e-02 1.2723533643258133e-02 -2.4430537481120698e-03  -6.8466419277700252e-02 2.7528546340532252e-03 3.5514615807971132e-03  -5.8364414751852847e-02 5.4842037190566068e-03 7.8768468888264014e-04  -4.9009280261417335e-02 3.9036035777887394e-03 7.6744081474962561e-04  -5.2071544011507424e-02 2.1304174228056116e-03 5.1617692862460454e-04  -4.9078302566397350e-02 2.7218794283653939e-03 3.3249732170079209e-03  -4.8664145243601478e-02 7.3554651661146700e-03 2.8037380945287503e-03  -5.1021461867635828e-02 -1.0946035958620972e-02 -5.6218874673200202e-03  -4.7260109692473004e-02 -1.2761256466914356e-02 -5.7038090598110977e-03  -4.8254416196367882e-02 -8.2796744294779852e-03 -5.6501080064428454e-03  -4.7753068629832307e-02 -1.0468388818830233e-02 -2.9364232375296935e-03  -5.1429770110550492e-02 1.0671460640641823e-02 1.4016233764554717e-03  -4.7891039296793475e-02 1.1841484163824384e-02 3.5467381629027610e-03  -4.7754905497030022e-02 1.1938750252356222e-02 3.9436776694718281e-04  -4.7275313949414456e-02 1.4576123254806192e-02 -5.7355365598748655e-03  -5.0521353169925419e-02 1.3367370077453162e-02 -5.6333829953711502e-03  -4.8216585369643822e-02 1.0102974065213592e-02 -5.7709189808297758e-03  -5.1541848969242923e-02 1.8050586479931411e-02 2.4543824760217639e-03  -5.6006629891983260e-02 1.2050642611386823e-02 3.3466066507592822e-03  -4.8458112674206404e-02 2.2535558483350756e-02 -5.4885101256641755e-03  -4.8175816174570819e-02 1.8999354278962627e-02 -3.5447110585758047e-03  -4.9925452558612742e-02 1.7365996179275655e-02 -5.6852817606967733e-03  -4.5694434255089608e-02 1.8924275776368814e-02 -5.7417291263193457e-03  -6.3651731600947004e-02 -5.0744600586438851e-03 -5.4094680643506062e-03  -5.7522148806519166e-02 -1.0330514577442803e-02 6.1202820384209187e-03  -5.6556340027566702e-02 -1.8568466032068620e-03 6.2261408586348002e-03  -6.2753381046365561e-02 1.8569836061868294e-02 5.9908455324302430e-03  -5.6820668321483477e-02 1.3362770421894305e-02 6.1967363608216525e-03  -6.5375808971107091e-02 6.4795089855780126e-03 5.9013398634454360e-03  -5.5065199520766668e-02 -2.5085559304318717e-03 2.0758002323959641e-03  -7.4437976553805518e-02 -2.2952719263548600e-02 3.6191643984270620e-03  -5.1822649642063665e-02 9.3820638420987157e-05 3.8236760415918500e-03  -5.1751517972844704e-02 5.9528295853339764e-03 4.2701091763968878e-03  -4.9131463247917326e-02 4.7522288528969390e-04 6.4090220552958550e-03  -4.7588653917021100e-02 -2.2929932040897331e-02 -2.3116938281657440e-03  -4.7566639185944705e-02 -2.6051601129761202e-02 -5.6355656287252589e-03  -5.1426639890826985e-02 -2.7757740494721177e-02 -2.9400100032503044e-03  -5.3306113166992561e-02 -1.8425677888465983e-02 -2.5402482790643742e-03  -4.6242673549253585e-02 1.7122063695937287e-02 -2.7795623205900933e-03  -5.1924540735091403e-02 -2.5090541826357973e-02 1.6326330965972414e-05  -5.6525026277701597e-02 -2.9483904416068501e-02 -1.3890107696691825e-03  -6.0595782089364905e-02 -1.6059056887809908e-02 -1.5246274912181323e-03  -4.9037528950910139e-02 -1.3908778706690280e-03 3.2050059696790164e-04  -4.7940646838079706e-02 -1.8317249912714301e-02 2.0552802823994320e-03  -4.9562288508106969e-02 -1.6840661904093342e-02 -3.2186149427396144e-04  -6.7238380330729250e-02 1.9555439188429332e-02 1.6822022295520493e-03  -5.4868713255976434e-02 -1.8153404802601504e-02 -5.6373299333607905e-03  -4.7741391571489100e-02 -2.1239553058403832e-02 -5.6896628935283900e-03  -5.0276289623143990e-02 -1.6333967529127608e-02 -5.6186033051906096e-03  -6.8717248978435036e-02 -1.2491244854492234e-02 -1.1451550099668762e-03  -6.1594818465366422e-02 1.8257068048700777e-02 -5.5239966918335208e-03  -5.7202178647929931e-02 1.8933003164447956e-02 6.9189406954745728e-04  -4.6290509941909176e-02 1.7075897625424538e-02 -3.5953086401980681e-04  -4.9798034633032104e-02 -1.5130890540715152e-02 4.1121374933179699e-03  -4.8219231715299564e-02 -8.6048290507929042e-03 6.3492715195932730e-03  -7.7861093051887847e-02 5.6065869063989436e-06 -5.3303365178187928e-03  -5.1419603001010686e-02 -6.5533858839903567e-03 -5.5925431453648037e-03  -7.6668709135887955e-02 1.5036033577487635e-02 6.2381424404605382e-03  -5.6321736277960339e-02 -2.9007591795171605e-02 -5.4164306508233742e-03  -5.4518864245889087e-02 -1.8631434375720051e-02 6.0738600493848698e-03  -6.3454503675277080e-02 -4.7997125686625522e-03 -1.7590743369662910e-03  -5.3118706883797502e-02 1.3758594467938886e-02 -5.4671782417593951e-03  -5.4263708551847270e-02 4.4080862810190764e-03 2.5069212908225714e-03  -5.8658601013124569e-02 5.3781160946769413e-03 6.0902761469161671e-03  -6.3769046782532979e-02 -4.9860636673543885e-03 6.0337424497552503e-03  -4.4871470522017363e-02 2.0712783789354268e-02 1.4451065359438475e-03  -4.4719378797103096e-02 -1.9090270881068901e-02 2.8297931921828656e-04  -4.6672025489704151e-02 -1.4482907821122121e-02 6.1865798631213504e-04  -4.8971904793742117e-02 3.0887306719402127e-03 -2.0333943709410570e-03  -4.9044249212454628e-02 9.7610526793703357e-04 -5.6664731393182748e-03  -4.8906779762878078e-02 5.5320752602640759e-03 -5.7086761371527295e-03  -5.6558939153419169e-02 -3.5492286228103936e-02 -3.4059605439203332e-03  -5.8125976839549863e-02 1.1356039664670421e-02 -5.6146291584541416e-03  -6.3067366024888147e-02 1.0504840775126985e-02 2.0440727822444659e-03  -4.9686980168606967e-02 1.7795951109868171e-02 6.2984157367733471e-03  -5.1335872655929073e-02 7.3417486342689806e-03 -5.8614800656244740e-04  -4.4721258307744198e-02 -1.9152310912607533e-02 -2.4717172182741115e-03  -4.3971879516227712e-02 -2.1226931358649625e-02 -5.7194244598282222e-03  -5.3526359168829439e-02 -1.3398954726597717e-02 -5.5273348427457751e-03  -4.4932043318895783e-02 2.0694075578063170e-02 3.6238959417301633e-03  -4.6318143873684069e-02 2.4111153050987533e-02 -3.2393990319246292e-03  -4.3786955665475746e-02 2.3134742107055555e-02 -5.7977693982745031e-03  -4.5789041717985104e-02 1.8586244860379516e-02 6.3753474431355881e-03  -4.8959037708991918e-02 -3.6644424028258868e-03 -5.7734621295914661e-03  -7.4482531910817301e-02 2.5060921917108389e-02 -1.2784353153789531e-04  -5.2240620456692213e-02 -1.1539053177413766e-02 6.2026058747915178e-03  -7.7988298335196729e-02 -5.9981466468859894e-03 -2.1376521257201711e-03  -4.7203439843207469e-02 2.4257476811257239e-02 8.9207703693175054e-04  -4.4701916795122233e-02 2.1050417330607609e-02 -1.9090887158028840e-03  -4.6409881971703301e-02 -2.1850737475400561e-02 -9.1890957211153239e-05  -4.8569129399640018e-02 7.3862699687976064e-03 -3.1322228217188605e-03  -4.8994017700988150e-02 -4.0334907800366601e-03 6.4209783248485022e-03  -4.9081497196805830e-02 5.1445280822001362e-03 6.5702662280722477e-03  -5.2598198259286154e-02 -2.1258023911542782e-03 6.3273621720347705e-03  -4.8936886328656379e-02 -1.3590211381136676e-03 -2.7977022021560189e-03  -4.5220055606930099e-02 -2.4767105941261896e-02 -5.6790749824452529e-03  -7.2048392490645416e-02 -2.8603516244572785e-02 6.4040805118299911e-03  -7.7847438299690486e-02 2.8105458199042469e-04 6.4568790906713034e-03  -6.4965235090424206e-02 -4.1732762948633581e-02 -6.2447578748592815e-03  -5.5487996516406526e-02 1.9958475306936733e-02 3.6891350854531594e-03  </DataArray> 
</PointData> 
</Piece>
</UnstructuredGrid>
</VTKFile>