<?xml version="1.0"?>
<VTKFile type="UnstructuredGrid"  version="0.1"  >
<UnstructuredGrid>
<Piece  NumberOfPoints="180" NumberOfCells="626">
<Points>
<DataArray  type="Float64"  NumberOfComponents="3"  format="ascii">-1.412883232192979 -0.498916897224404 0  -1.595864871923849 -0.7076981334402126 0  -1.424974064043019 -0.8180641451546321 0  -1.496133812848886 -0.6224620133938269 0.168029496722675  -1.073831515515874 -1.381296027576066 0.4703149899896178  -1.222912435612129 -1.211258208550986 0.5924324065281698  -0.9969898328475651 -1.363191667272982 0.7007929224873214  -0.9602840871252403 -1.119883154337391 0.5000000000000003  -1.512011392687988 -0.7917510345546442 0.2966161284015407  -1.82007427255317 -0.8171614684481319 0.2701477341636163  -1.623972487846827 -0.7834420794628646 0.5282118138501414  -1.683847711978677 -0.6637140041757016 0.3554943844166969  -1.34376490772025 -0.6629168230233793 0.5232079866624604  -1.540227286709983 -0.7594309578000181 0.7158969883666931  -1.486680182709609 -0.9357655947055598 0.5005733069352488  -1.325812149253608 -0.9556560748352179 0.692162030564986  -1.334552913091629 -1.215813856519444 0.3976467594449599  -1.415326496627902 -1.118270480731319 0.5860770877722016  -1.289838922750997 -0.9992737188619498 0.3584443832289749  -1.016378813307524 -1.085925806803902 0.7785250480141073  -1.319832932085968 -1.220158808863818 0.797553015984893  -1.04215606515532 -1.265258740361177 1  -1.224143446475008 -1.257655592102634 1  -0.4088784021612257 -0.9098780294493575 0  -0.5229419073512893 -1.071131864134972 0.1858598554011229  -0.2291981602613921 -0.9704387807865139 0  -0.3199640933144202 -0.9429052360103518 0.2421718464526027  -0.8300753132502592 -1.509513793106689 1  -0.9480652577231136 -1.538949907681568 0.8061489537317872  -1.038889265765676 -1.701558295737102 1  -0.9927400037819177 -1.469592821760114 1  -1.828344611031377 -0.8016887534344467 0.501479594258776  -1.736582952516703 -0.973362741762956 0.6816999714220926  -1.828344611031377 -0.801688753434447 0.7315233149267526  -1.311232433775281 -0.5655346387499858 0.2575624298059242  -1.115114617145163 -0.4774046250283511 0.183365501259989  -1.155897705984207 -0.6056548263397348 0  -1.025812920413763 -0.6511834817819452 0.1439798677502316  -1.029314058751751 -1.277283305743657 0  -1.178992651785597 -1.60725437485166 0  -0.814899804420075 -1.518363461454386 0  -1.064430939898313 -1.438297828212334 0.1876351619911193  -1.100293793730394 -1.440233234786469 0.8308817755846929  -1.409648970501671 -1.417959626110762 0.7315592004692577  -1.259072795543131 -1.541534299303341 0.681542773860404  -1.337314418527182 -1.477323058760319 1  -1.252030506876232 -1.547313756251158 0.4762918344255788  -1.409648970501671 -1.417959626110762 0.5014885213334912  -0.4956491309591998 -1.563380666785781 0  -0.6869697439873288 -1.871540571604282 0  -0.7580030332512193 -1.620602597475575 0.200800306043187  -1.14427663396646 -0.9784691238319053 0.5430642805458707  -1.149350747726731 -1.254278997813574 0.2766244916622759  -1.460269210528559 -0.997142497751212 1  -1.536047625067858 -0.9519929514599034 0.8052694561656402  -1.588692758267181 -1.201610047034396 1  -1.696041285575386 -1.049210865804753 1  -0.9276927122636932 -1.18966297302634 0.2221042075729678  -0.8872796870605097 -1.4002985370975 0.3147842555428691  -1.288568259440269 -0.805512686298428 0.2258674758772604  -1.225520025366661 -0.794093745484538 0  -0.8818497861445191 -0.4613155571981952 0.7311394935597686  -0.8370702135273155 -0.5450922451011507 1  -1.027492750785988 -0.6524847028891798 0.8199378413995048  -0.7786461866372218 -0.6199357634264332 0.8011130297803182  -1.575027654417853 -0.4272778672614745 0.3583387676772505  -0.8639445355284535 -0.8583291060170649 0.8054362079504707  -0.6681267201658774 -1.099552128393463 0.6661740090429282  -0.6715769074605573 -0.9935685522856664 0.8357754955456658  -1.4222824581895 -1.084590503732421 0.1953208450696405  -1.63681176493991 -1.142976867755885 0.3120733790262914  -1.539885573357767 -1.261081773920541 0.4764827457208107  -1.647982157896459 -1.129365704556127 0.5912151627944675  -1.432341127333238 -0.8020961674110092 1  -1.285361083627857 -0.7056318215590633 0.7820307561532949  -1.395988323856173 -1.429170629081726 0.2701485651502452  -1.229384016800246 -0.8172292866491174 0.4411307233346597  -1.562107303025337 -0.8714576333881834 1  -0.6473028356127737 -0.7561866109268153 0.3046988722058142  -0.6622625981428886 -0.9674380054790881 0.1667270624174167  -0.4925509432611309 -0.8651541244581579 0.2340519535717435  -0.5864317813477913 -1.00499243216721 0.3747039238690006  -0.8561474899215658 -1.001364049625688 1  -0.8234030488632201 -1.227864263700687 0.7971660546693747  -0.6240956319681428 -1.097419055583654 1  -1.895141120398549 -0.6091691611241368 0.4773268319077155  -0.7019581915565072 -1.428580415300582 0.6030955109277132  -0.7677466476962631 -1.430304235837895 0.8149664493944945  -1.732293608121397 -0.981387540699419 0.4766342653695815  -1.136023885573776 -0.9739462810986533 0  -1.312143823607195 -1.118484178884738 0  -1.214077727804358 -1.08067869725745 0.1803917315920848  -0.2895078849523348 -0.9521440258122447 0.5362539270910905  -0.4925509432611309 -0.8651541244581579 0.5  -0.8003104928752021 -0.9034212800942407 0.5276102543982508  -1.031197119573864 -0.7966433949198815 0.6423524737321922  -0.9903393271760718 -0.7893858577995121 0  -1.041556514867787 -0.9879428034616119 0.2526681143367585  -1.521721023277034 -1.283215342234634 0.2410338395570504  -0.865384944162939 -0.8553394389184948 0.1720783019779129  -0.7184124931061813 -0.6933307313531918 0  -0.8515368795528185 -0.9959513296075999 0  -1.247013422168451 -1.551431171262626 0.2410943834276965  -1.105932760739789 -1.665722801080378 0.3119391242858136  -0.945887529797514 -1.75126875927484 0.2410674713138804  -1.581662913688258 -0.9018160801693318 0.1602142017296592  -1.687422812760598 -0.5289845451979994 0.1787939533334902  -1.912308868601495 -0.5525746798567313 0  -1.857951139271877 -0.7317680986975303 0  -1.886844210104414 -0.636520408863094 0.2410868471557569  -0.7773345907527112 -1.628786731198925 0.6526384974201469  -0.9654368394123369 -1.740819435585567 0.4637035560543035  -0.9481983015956591 -1.526869931125131 0.5686233152649492  -0.9632662672522199 -1.741979630576535 0.6815427738604043  -0.87374366514047 -1.789830458324557 1  -1.729293316485563 -0.9870006915470573 0.2409605973021356  -1.687765770332812 -1.064693265863366 0  -0.8551724930659974 -1.190489734935458 0  -0.7071448212676967 -1.316768067261704 0  -0.6247867466263319 -1.098639338212029 0  -0.7238313813679086 -1.185068705398414 0.1631518420404129  -1.023406865707063 -1.709833810979676 0  -0.9897573047550841 -0.8823754244453341 0.4310666916709433  -0.7588352083306384 -0.6440755103383521 0.4625780124890055  -0.7757759682717937 -1.842195283264316 0.4985126599772499  -0.7840616717201718 -1.583902828399041 0.4377923672640045  -1.322923833929898 -1.104620792539591 1  -0.7219618228038823 -1.307247678942268 1  -0.6473028356127738 -0.7561866109268152 0.6953011277941858  -0.7184124931061813 -0.6933307313531918 1  -1.534091637551517 -1.268141705127494 0.6816999714220948  -1.469898412126526 -1.346361376626702 1  -1.155280858039766 -0.8775855316856152 0.8000382702498052  -1.93944788191584 -0.4631093427328397 0.312468973614769  -1.136279175487017 -1.379948082139655 1  -1.192563088934876 -1.596117404900973 1  -1.389282245793132 -0.390104725039531 0.1762849063852214  -0.9735201934283557 -0.6570251083210682 0.4872795627034311  -0.7820125957907885 -0.6158337820042405 0.6573822497979197  -1.150536973579396 -0.480913571459282 0.4660449197857321  -0.8818497861445193 -0.4613155571981951 0.2688605064402313  -1.086061906529874 -0.729431175999589 0.3171054587016006  -1.146386478336709 -0.9597403290152839 1  -1.161618529882714 -0.6086679473328844 1  -0.7760330678762961 -1.024059073548987 0.2866398217060592  -0.573938299464078 -0.8163953297430323 1  -0.7625848589994415 -1.249272832911995 0.4545509433042903  -1.577555788316494 -1.215180484183675 0  -1.329969763722953 -1.258164074353386 0.1990057211837501  -1.45876144217584 -1.359931813775981 0  -0.9888459432127936 -0.7881904763484712 1  -0.4925834195271322 -1.072587773108498 0.7942257610232533  -0.8370702135273155 -0.5450922451011507 0  -0.7758641285073432 -0.623325711066081 0.2407365067161483  -0.8582612650818566 -1.798105973567131 0  -0.775775968271794 -1.842195283264316 0.2684499835474483  -1.120264121600167 -1.655451633991383 0.5909860504971736  -1.120264121600167 -1.655451633991383 0.7720994972236346  -0.573938299464078 -0.8163953297430323 0  -1.78431344816284 -0.8840652651795469 1  -0.4088784021612257 -0.9098780294493575 1  -0.4973685655474065 -0.8625790516973388 0.7595504241117759  -1.323743981377903 -1.488460028711005 0  -0.4224459877560165 -1.246963081678484 0  -0.5391031786369436 -1.386651023185445 0  -0.670056525276606 -1.377886873936386 0.2250212001955873  -1.963291281964381 -0.3727098689263351 0  -1.64798215789646 -1.129365704556126 0.7721847800497199  -1.209935812895535 -0.3819042831015633 0  -0.8818497861445191 -0.4613155571981953 0.5  -0.9482005564984586 -0.3025077610903928 0.2301063922394252  -1.776037932920266 -0.89954766523816 0  -1.650217386037167 -0.3811273884986385 0  -1.146979132093379 -0.6111977257244187 0.6415714464460128  -0.5521062382202796 -1.211666613348794 0.3442023460192692  -0.4792183519131534 -1.094876157717112 0.5312084515566817  -0.3199640933144202 -0.9429052360103518 0.7578281535473974  -0.9256039491140714 -0.3769987926575506 0  -0.7107840783041939 -0.9868412936944161 0  -0.7913424350245954 -1.833874833437536 0.7298481380810278  </DataArray>
</Points>
<Cells>
[...]
<PointData  Vectors="f_18"> 
<DataArray  type="Float64"  Name="f_18"  NumberOfComponents="3" format="ascii">-8.3382027889839741e-02 -2.8502934916057605e-02 9.1438694084249490e-03  -7.3670499896780553e-02 -3.1679883991160417e-02 9.3364958473095838e-03  -7.2438251761032330e-02 -4.0595846792945492e-02 9.3478071622444155e-03  -7.7594744304050930e-02 -3.1482139642684107e-02 6.3331542277966354e-03  -4.9481415005100574e-02 -6.2580785348284998e-02 6.5938025300640293e-04  -5.7567090106374660e-02 -5.6151615616578714e-02 -1.4067544299322919e-03  -4.8472268840271449e-02 -6.5547859946249301e-02 -3.4795631794151808e-03  -5.8008843701212419e-02 -6.7024700441233001e-02 2.6722249925767585e-04  -7.2102603125612147e-02 -3.6827462817369767e-02 4.0506708392067372e-03  -6.8481292959757412e-02 -3.0036576674865444e-02 4.6003350231707818e-03  -7.1064638451143858e-02 -3.3460785840196156e-02 -1.6423185818687113e-04  -7.3399387280321665e-02 -2.8046680586929024e-02 3.0900016297202106e-03  -7.9378855166697904e-02 -3.8356046319199713e-02 2.6164990286324726e-05  -7.2867944951453906e-02 -3.5111940009443891e-02 -3.5175590136524988e-03  -6.7807912907527829e-02 -4.1871246913408405e-02 2.4305184414449607e-04  -6.7827811597854684e-02 -4.8093958542705810e-02 -3.1597524066519487e-03  -5.8405507901988965e-02 -5.2252295087607682e-02 2.1606552460165722e-03  -6.1954662214034111e-02 -4.8107695088609986e-02 -1.3061965287065392e-03  -6.6177618874943320e-02 -5.0407584820026947e-02 2.7745685300418796e-03  -6.0844359210568487e-02 -6.4075133632732109e-02 -4.4672252858705104e-03  -5.8216006327762755e-02 -5.2909386069947308e-02 -5.1568446704019048e-03  -5.3248968087890078e-02 -6.3961562025989280e-02 -8.5646668215768607e-03  -5.6107982047280465e-02 -5.6887019817277715e-02 -8.8730214838494449e-03  -4.8508009586541799e-02 -1.0737474928049451e-01 8.7165962627544051e-03  -4.5700268004171388e-02 -9.2682551074982439e-02 5.7412632115620655e-03  -2.7410679423015064e-02 -1.1515544275109024e-01 7.7358239047220926e-03  -3.8063633773805734e-02 -1.1120568269238906e-01 4.7914552949430891e-03  -3.9264874258123424e-02 -7.0671114757426157e-02 -8.8604613137452121e-03  -4.1489787971943200e-02 -6.6607260823256090e-02 -5.4565536548586910e-03  -3.9460116119661423e-02 -6.3590483453478244e-02 -9.2407686394055805e-03  -4.4774380072841360e-02 -6.5644158720126508e-02 -8.9296620869706196e-03  -6.8519445540063187e-02 -2.9250769596440841e-02 3.8710921531107768e-04  -6.5509145816342262e-02 -3.5887046040047124e-02 -3.0274273571196859e-03  -6.8546669566254020e-02 -2.9354739798556514e-02 -3.8048292492196961e-03  -8.3729488232408458e-02 -3.5165620210592309e-02 4.6008403509745083e-03  -9.4342288754066542e-02 -3.9555821747361136e-02 5.9917536191686988e-03  -8.6255630194418384e-02 -4.4154428374415355e-02 8.8202100314745836e-03  -8.6526814371556945e-02 -5.3916708139517176e-02 6.3590831067217683e-03  -5.2538430697014041e-02 -6.3986157304272623e-02 9.1148696402134563e-03  -4.4601561508068342e-02 -5.9481790181296568e-02 9.1174238264077213e-03  -3.8713536377675599e-02 -7.0451947288495728e-02 9.0158162625718595e-03  -4.7387257092558963e-02 -6.2780965821507148e-02 5.7590992687347126e-03  -4.7943736112726613e-02 -6.1898709348800575e-02 -5.8484904939345361e-03  -5.2842540311790781e-02 -5.2336367912528610e-02 -4.0924621752925659e-03  -4.7476442894553036e-02 -5.7369174953773104e-02 -3.3054224491439821e-03  -5.0671916823450860e-02 -5.5036269489881190e-02 -8.9755605270597210e-03  -4.7352934998180198e-02 -5.7420723264636091e-02 5.2622659279318268e-04  -5.2865596981752430e-02 -5.2259780359516110e-02 1.5184523929351315e-04  -2.5327165627487946e-02 -7.8776057964081728e-02 8.8055311424113398e-03  -2.6339037881887857e-02 -6.9637211132594190e-02 8.9912492976163792e-03  -3.3759518974378365e-02 -7.0828903876165777e-02 5.4336991995258700e-03  -6.6939906558473275e-02 -5.6394172927085623e-02 -4.1856723332029630e-04  -5.5216928090348089e-02 -5.9230463267795477e-02 4.2345981757367047e-03  -6.6052601726909507e-02 -4.4466913832274649e-02 -8.6325230056348620e-03  -6.7080624366412572e-02 -4.0832459513085402e-02 -5.1712967352244947e-03  -6.0005286556805620e-02 -4.4665222910508784e-02 -8.7883467585621686e-03  -6.3874310999191122e-02 -3.8816072159791756e-02 -8.8732257093322095e-03  -5.4224831940416142e-02 -6.8404179609630300e-02 4.9783557405879376e-03  -4.4454896300811238e-02 -6.9074616244454823e-02 3.3573227304403990e-03  -7.4155970977417135e-02 -4.5484538113977353e-02 5.1416179696400768e-03  -7.5595765155301003e-02 -4.7890529161326155e-02 9.1425887112672344e-03  -1.0550044841440410e-01 -5.4153929176650656e-02 -3.5544751026819759e-03  -9.8891917500807572e-02 -6.3527168321101321e-02 -8.9968960062563642e-03  -8.6301050908992677e-02 -5.4141457084067077e-02 -5.0149947183309737e-03  -9.2653916603924386e-02 -7.3516080861313615e-02 -4.8344698716668889e-03  -8.0832743622548484e-02 -2.0936750329375871e-02 3.0416822840107255e-03  -7.2621284010676662e-02 -7.1520389686929031e-02 -4.8396125880063460e-03  -5.0979622522552351e-02 -8.3249703070302300e-02 -2.6899525284423973e-03  -5.8003924082724159e-02 -8.5213586068552546e-02 -5.3479752571359163e-03  -6.3030376865816903e-02 -4.7216570977374556e-02 5.7189035780501754e-03  -6.1488973269127431e-02 -4.2004639972835961e-02 3.7513766427326491e-03  -5.8091057963199612e-02 -4.6659190667437699e-02 6.9005642493497835e-04  -6.1818430494364938e-02 -4.1536717180934754e-02 -1.3686595870392056e-03  -7.2881407432207002e-02 -3.9915787608680142e-02 -8.5313155585131500e-03  -7.8646187992476232e-02 -4.2448795531245226e-02 -4.4181313471334744e-03  -5.2439951996606005e-02 -5.2697152376331845e-02 4.3979172438884506e-03  -7.4192082062875697e-02 -4.8490655754553767e-02 1.4046316380831631e-03  -6.9328059175312665e-02 -3.7966398673866683e-02 -8.6326707753360266e-03  -7.7410537544964478e-02 -8.9013155681352901e-02 3.6506532488416736e-03  -5.9451211340629251e-02 -8.5863699657524592e-02 6.0739513686099448e-03  -5.8847046807655796e-02 -1.0296581860900507e-01 5.1498950623059085e-03  -5.3276671902572376e-02 -9.0420975650415264e-02 2.5403992916570883e-03  -6.3063394689755206e-02 -7.3044377785058984e-02 -8.2157375143912491e-03  -4.9892530354914782e-02 -7.3410381594082474e-02 -5.0147280427774226e-03  -4.9423615340050256e-02 -8.6276747977651447e-02 -8.2081597143955944e-03  -7.1502136451623136e-02 -2.2190030622006838e-02 8.9808921568369717e-04  -3.7709366721581962e-02 -7.5630710397496109e-02 -1.7384119261650273e-03  -3.9961306165043620e-02 -7.3391505791781539e-02 -5.4230043991997465e-03  -6.5199560970974332e-02 -3.6163066113708550e-02 7.1274845787580945e-04  -6.7288821097588283e-02 -5.6718589153606169e-02 9.0289973063381965e-03  -6.1726117670774870e-02 -5.1565238114224379e-02 9.1215286338646815e-03  -6.2540964639314328e-02 -5.4830365400939787e-02 5.8629216036735522e-03  -3.4215162895589325e-02 -1.1326898238633333e-01 -2.6373890538461664e-06  -5.9078017655451405e-02 -1.0248047266570767e-01 2.5077752885837733e-04  -6.8404676637485951e-02 -7.6404019915238527e-02 -1.0130906211135748e-04  -7.7100981215173600e-02 -5.8642377401184123e-02 -2.0431545967474476e-03  -7.7927761794310102e-02 -6.0929468555821570e-02 8.8851492016842476e-03  -6.5976088622304543e-02 -6.1561298814306491e-02 4.4958013780168988e-03  -5.7476081972938513e-02 -4.7385830674339137e-02 4.9897185671100288e-03  -7.2813944527818628e-02 -7.1054246514777902e-02 5.8319027310209711e-03  -8.5337152548356138e-02 -8.1711819458482104e-02 9.0517172367133580e-03  -6.3104307952346742e-02 -7.2748655911462928e-02 8.7056636369301065e-03  -4.7063697063335831e-02 -5.7494243165539118e-02 4.8870730905471874e-03  -4.1600415103167518e-02 -6.1445583785299032e-02 3.4277288558584129e-03  -3.6045090513895275e-02 -6.5030373093007868e-02 4.6903967364809208e-03  -6.8199932561152962e-02 -3.7967675985449721e-02 6.5708187910018560e-03  -7.6238249454657625e-02 -2.3168731377333825e-02 6.2069396334245653e-03  -7.2338572473330059e-02 -1.9967009219162994e-02 9.6565097912019535e-03  -6.9881576886332397e-02 -2.6703393991009027e-02 9.5618782692015111e-03  -7.1128404179094620e-02 -2.3246125302511994e-02 5.1196495075420583e-03  -3.4252714543993881e-02 -7.0485195023392830e-02 -2.6746597448553682e-03  -3.6597946000280587e-02 -6.4745751290668493e-02 5.4402523837150370e-04  -4.1903070840226299e-02 -6.6412358691532572e-02 -1.2504738570876571e-03  -3.6649495959723839e-02 -6.4968640175364453e-02 -3.4029862219734893e-03  -3.3244281984576504e-02 -6.7097030310339159e-02 -9.1773433199056256e-03  -6.5105896520697162e-02 -3.6301035091348695e-02 5.0525488675893038e-03  -6.3469120435479545e-02 -3.9038148843762097e-02 9.3738740526491567e-03  -5.2500348606499429e-02 -7.1847187997295794e-02 8.7753160521522600e-03  -4.2295893377009959e-02 -7.7300303878272733e-02 8.8188349396361443e-03  -4.9134697390521627e-02 -8.5782620974511517e-02 8.5972861857009416e-03  -4.8761252022581379e-02 -7.8495556409310163e-02 5.9733537971763820e-03  -3.8870978302590196e-02 -6.3448722099636382e-02 9.1251999658738502e-03  -7.1804375051532157e-02 -6.3120759228069839e-02 1.4127437987590643e-03  -9.0305726865166927e-02 -7.6336378259617324e-02 1.1409977152684369e-03  -2.9389425972170494e-02 -6.8316402134992751e-02 6.6741436551844548e-06  -3.5659193331091334e-02 -7.0779966717622544e-02 1.1150674397035691e-03  -6.2259191814567849e-02 -5.1447951276531616e-02 -8.6719931753682193e-03  -4.3001082799151678e-02 -7.7188236859997456e-02 -8.5754386115283639e-03  -7.7159132732788793e-02 -8.9319652229757240e-02 -3.1100242657561314e-03  -8.4985508626164663e-02 -8.1730567116981373e-02 -8.0657573914103414e-03  -5.7829120001159758e-02 -4.7000987831639481e-02 -3.0442012387121016e-03  -5.5458092274098821e-02 -5.0053219617857664e-02 -9.0699218154676551e-03  -7.2074465574599927e-02 -5.4012276200163800e-02 -4.9132092106620433e-03  -7.3079632183451315e-02 -1.6721348777862487e-02 3.8996639136486067e-03  -5.0624880401686841e-02 -6.0792725315532613e-02 -8.8800755849964795e-03  -4.5220491815977426e-02 -5.9650031137057594e-02 -9.2145664918437172e-03  -8.7284465028677524e-02 -2.3684925423131893e-02 6.0640267075332483e-03  -8.7005147412620179e-02 -5.7933232536001696e-02 6.0879372825901196e-04  -9.3383913528356607e-02 -7.2647608153269497e-02 -1.9967671965317097e-03  -9.2784321675943748e-02 -3.7899596782765436e-02 9.3064294484391044e-04  -1.0486059946128891e-01 -5.4346560275098564e-02 4.5357965255533829e-03  -8.0558648728479385e-02 -5.3266058421982995e-02 3.5769100647628856e-03  -6.8098333471090275e-02 -5.6345213277804465e-02 -8.5333523254385590e-03  -8.6097443500949056e-02 -4.4343051271416904e-02 -8.0644532713854723e-03  -5.9603933678615627e-02 -7.7367562924846117e-02 3.8890754803909138e-03  -6.8549988311799384e-02 -9.6805511558719540e-02 -7.5761929915308009e-03  -4.6861696307249755e-02 -7.5842900471648600e-02 9.3718916144274259e-04  -5.9596150059577378e-02 -4.4835639911775457e-02 9.4306047821256823e-03  -5.6922167777234266e-02 -5.2762701543618271e-02 5.6788151124407228e-03  -5.5129446753438865e-02 -5.0269559300791716e-02 9.4167835374804158e-03  -7.8009921612804026e-02 -6.1303722987600610e-02 -8.0454512291127569e-03  -4.3833074856134781e-02 -9.4390545758188324e-02 -4.8487604221118027e-03  -9.9473506035258813e-02 -6.3543365937727955e-02 9.6810592957720567e-03  -9.2662435728941464e-02 -7.3338231386963132e-02 5.1431958489080980e-03  -3.2699265690347423e-02 -6.6787165516893565e-02 9.1739310358498628e-03  -2.9471852956571780e-02 -6.8245395896675151e-02 4.1708281882824423e-03  -4.2246737134550794e-02 -6.1171775973280759e-02 -1.6487358510173806e-03  -4.2228118756400826e-02 -6.1252119025829270e-02 -5.0171667976598713e-03  -6.8271494933351357e-02 -9.6298123283711470e-02 8.3255571803438431e-03  -6.7448756414029185e-02 -3.2558659501093240e-02 -8.7411691740625803e-03  -4.8700020824835079e-02 -1.0873359235165647e-01 -6.8450078054270291e-03  -5.9560042919579094e-02 -1.0228310497997803e-01 -4.3536570101159458e-03  -5.0137654294391883e-02 -5.5264330867108080e-02 9.3107456154948136e-03  -3.1200902063135531e-02 -9.0689005133182510e-02 8.6667476461882234e-03  -3.2327480293160009e-02 -8.1953841820503540e-02 8.6699528266595029e-03  -3.8102069049799285e-02 -7.7482720008245687e-02 4.8638531291399327e-03  -7.3878616023395419e-02 -1.3192816246799289e-02 9.6065859929604057e-03  -6.1957963596419148e-02 -4.1545550834640052e-02 -4.7191214230616757e-03  -9.4918643930941335e-02 -2.8975887601164024e-02 8.9109188226577096e-03  -1.0490993809130689e-01 -5.4094329624179677e-02 5.8549223326220974e-04  -1.1307632312790149e-01 -3.4854248867045169e-02 5.3471501492597211e-03  -6.7047918443753671e-02 -3.3069946546977307e-02 9.5760342846113074e-03  -7.9968831121076583e-02 -1.7668819801060075e-02 9.3682656963413897e-03  -8.6276596849819032e-02 -4.5002037197245472e-02 -2.0447957408788486e-03  -3.9683785904572229e-02 -8.6445672595377748e-02 2.8121758008459738e-03  -4.1582076587107962e-02 -9.4219024645932167e-02 -2.9892740742327154e-04  -3.7885028824780211e-02 -1.1204515316742847e-01 -4.1672886020284270e-03  -1.0952622498071821e-01 -4.3490466653628719e-02 9.4073271189064230e-03  -5.9764917623654240e-02 -8.2014657327737064e-02 8.7601819374691688e-03  -2.9984023164342601e-02 -6.8175780941695907e-02 -4.3227855046291067e-03  </DataArray> 
</PointData> 
</Piece>
</UnstructuredGrid>
</VTKFile>