<?xml version="1.0"?>
<VTKFile type="UnstructuredGrid"  version="0.1"  >
<UnstructuredGrid>
<Piece  NumberOfPoints="172" NumberOfCells="626">
<Points>
<DataArray  type="Float64"  NumberOfComponents="3"  format="ascii">0.3335227193744119 1.455823083785915 0.5059548517043282  0.5147335164951123 1.695375458309009 0.4045574146742378  0.3114922696473099 1.749879024378842 0.4952208711948659  0.362054055747579 1.621275077683425 0.6647683656809289  -0.08003934538014729 1.295501408685772 0.6971819095783099  0.04160764913545779 0.9959020042462563 0.6951876610204599  -0.1158014551741539 0.9885945521690958 0.5360510107907983  0.07039621903639844 1.193189424248325 0.4925197764598668  0.1491014704226533 1.206091432684536 0.1645315316658615  -0.1324954485561265 1.170160433752792 0.1730870475574952  -0.1167133356171148 1.304836660355007 0.3171019939379283  0.05531881852987598 1.314100493560312 0  0.3749437861923043 1.759916422654703 0.1643598384089756  0.4181796157261225 1.953077165598711 0  0.2329436680789495 1.977057051227739 0  0.3259282302928117 1.967898871204744 0.2701428045681138  -0.03280364265358246 1.831764972791291 0.1909259915725535  0.1793593889274742 1.763015629161613 0.1712485623520171  0.04658873361578186 1.995411410245548 0  0.1342877826595882 1.986773807832135 0.2409428933173995  -0.1988450770295621 1.980415469312695 0.4765700177088378  -0.401475179542921 1.958144400916416 0.5014873400227502  -0.374651815137472 1.717339434420175 0.6085609355383461  -0.2079297969927716 1.979520702494411 0.6817345837013904  0.5381140213278526 1.390649914862936 0  0.6935573934875271 1.489966702901899 0  0.6178842866238763 1.653744004512532 0  0.6728588884486792 1.610917347527578 0.2548265037722429  -0.5174396855537765 1.720603924206695 0.4455678853971146  -0.5790841934569149 1.560047235753897 0.6688754989314865  -0.4936253294979922 1.718220497575566 0.7876615208084401  -0.3283769853446082 1.144478249162979 0.8173417573936155  -0.3313057231869523 0.9394647902018172 0.7658315521872423  -0.2561666640715012 1.181257425698613 0.4770501627805496  -0.1475674136574341 0.9854658783390922 0.7577188562340105  0.07700126095066522 1.682714208157353 0.7989154210002125  0.1496726080582213 1.985258534788219 0.6817345837013906  0.06405950872170407 1.993690689087629 1  0.2504144431848718 1.975336330069819 1  0.110401540764338 1.7332933916339 0.5796558032405165  -0.07750087508183946 1.800969151666767 0.8279227609020432  0.2048886859813426 1.196325857895504 0.8171041573670768  0.1521457689287699 1.46939554524601 0.7744805392251949  0.05327259198751798 1.266613209591833 1  0.3072755743763494 1.298128564921423 1  -0.02931156313904373 1.997113063011843 0.5912670530496571  -0.02931156313904381 1.997113063011843 0.7722021143531239  -0.136335120665138 1.165141683417144 0.8286009011088074  -0.1920863180589073 1.285833315808135 1  -0.05320645145894509 0.9947596219281536 1  -0.227322383702962 1.977610699414599 0.2410275370475777  -0.2650360456214789 1.766060148854649 0.4064192804260539  -0.418365780237981 1.953020693211433 0.2701518619189722  -0.01390323686899099 1.49649430458733 1  0.410518663746953 1.145132281820996 0.1739528830163619  0.2905179731863293 1.227597612573122 0  0.2837431250514884 1.249607101053172 0.3303922545174872  0.1359720426173005 0.986607922705282 1  -0.4415185705098927 1.234655578466227 0.3250771953421422  0.3491266470639922 1.27883886307539 0.653749421028249  0.1438448025419988 1.303592767475835 0.6511903400626229  -0.2052262700167732 1.742669606420431 1  -0.2705224113918926 1.788506398788648 0.7920907391560218  -0.30865036020463 1.969600592876752 1  -0.1222954257414632 1.987954951894561 1  -0.357384183629547 1.74991491539818 1  -0.5167936440622312 1.693560966141761 1  -0.4909769421302151 1.930994338058548 1  0.3438338580400074 1.40181872259556 0.8224503098828937  0.103093539495368 1.471311370500275 0.497432076544691  0.3103021914988589 1.640840135697603 0.3056135752515149  0.09546023827782463 1.799245266192117 0.3708259648659264  -0.6049140089552396 1.896431906697228 0.3184572261395962  0.638893776382075 1.350457219934239 1  0.5364371386811475 1.440262568815689 0.7514707611545899  0.4446142206860653 1.462490086235967 1  -0.1282818058554273 1.473443331520114 0.8149455763647924  -0.1298367230950829 1.645365652865343 0.6796708863251  0.2294042013770801 0.9703762788973833 0.5  -0.02091362204091463 1.724262737013829 1  0.2294042013770801 0.9703762788973833 0.2219342289479005  0.3180072301138635 0.9434988439725138 0.369550939792054  0.4090525719063911 0.9097849337810207 0.2424133430077436  0.1359720426173005 0.986607922705282 0  -0.05320645145894509 0.9947596219281536 0  0.04160764913545793 0.9959020042462563 0.3048123389795401  0.5517231384485761 1.454403164442377 0.4298188378448305  0.4427408690880801 1.396002481071734 0.2220788193503419  -0.3346493386806206 1.523066756827354 0.432978452806852  -0.510994707505987 1.404217254440446 0.5163700951909265  -0.5307010043682088 1.3826952685512 0.785767467294626  -0.7036168792142508 1.675069862734098 0.8042164232910654  -0.6560191600603796 1.594701905386204 1  -0.4213746699951029 1.196244977459891 1  -0.4193563900796843 0.9042774282245836 1  -0.2405674396764836 0.9669899475809407 1  0.3127784255943373 1.759801072747297 1  0.3815905473586579 1.774793899673047 0.8040607665745886  0.4349789987424477 1.947981128474059 1  0.4562239397760435 1.698328907282103 1  -0.3992359231948405 1.264547218604192 0.6584240094702515  -0.2405674396764836 0.9669899475809407 0  -0.1475674136574341 0.9854658783390922 0.2422811437659895  0.6123194148856593 1.595725146552285 1  0.1406163157490528 1.986150501726962 0.476703985580191  0.4447834298253233 1.138815981887424 0.4774553823536878  0.5134310105355009 1.924182970874312 0.2410486235520743  0.3433670328132341 1.966181299071639 0.7315217946800907  0.5320136015975745 1.918546003502801 0.6819394328745076  -0.4252082943158828 1.690757594369593 0.2517423600102111  -0.3525296771925283 1.668146412112005 0  -0.3104991349673931 1.771082428469115 0.1427957048384714  -0.5077763251465404 1.925898300933896 0  0.1362149577381199 1.771073376748708 1  0.6192707387864216 1.627646493536906 0.6021451367074655  -0.6701703609710137 1.87663660872893 1  0.6297047863728796 1.149324118574361 0.3176746376671157  0.1055758056023959 1.639093322194773 0  -0.03520695558867812 1.759700557244488 0  -0.07243405846105599 1.67129438251824 0.3106356819049336  -0.1397662008473854 1.986234230736642 0  -0.04681361121902319 1.995389261734822 0.3120977828758459  -0.130384258602981 1.459072419845429 0.5337985841846137  -0.337213639101939 1.501492538619427 0.756467587796092  -0.3365162964824625 0.9378841800729312 0.2405432884014713  0.5426779840473307 1.206243742029588 0  0.3201523955821021 0.9428481151419348 0  0.6960222699964466 1.295807126413262 0.5330849355015431  0.3629782645538802 1.448563065648879 0  0.1078855420021618 1.472353851890794 0.2207892749069789  0.4355148696451734 1.128293321660349 0.7938795729772468  -0.3261378736895026 1.602347301912156 1  0.4298144404842145 1.668892410066069 0  -0.2061907784858699 1.75663260727747 0  -0.3313057231869522 0.9394647902018173 0.5  0.6141724175832469 1.893623399144441 1  -0.6072692169943243 1.895717462149367 0.5362964439456972  -0.5821061254012698 1.903350602533428 0.7233926634179388  -0.09526771893400257 1.462254103387357 0.1851919689388542  -0.5717031409302165 1.095411659227544 0.7615148223574963  0.5177585703954607 1.150958002924106 1  0.2908057772749696 1.611552409424868 1  0.22940420137708 0.9703762788973832 0.7656888621634398  -0.4431978912794227 1.258461435479526 0  -0.1866458556859395 1.249126712993331 0  -0.4245415806414557 1.469208041090329 0  -0.3127418367516563 1.413080425805059 0.2129410587532759  0.6604224575562542 1.345792777446799 0.2156757224577727  0.6997615025342375 1.302391046738392 0  -0.2349853917682375 1.614037023346226 0.1761732302485803  -0.632518690427178 1.508037302070591 0  -0.5246326138228607 1.437575172319297 0.1874291779963437  0.5407342723545181 1.91590061694985 0.4770057860357425  -0.5702152500099751 1.383891866592444 1  -0.09061163158917654 1.798141818632429 0.5310159772803459  0.3433670328132339 1.966181299071639 0.5014776788175115  -0.4014751795429212 1.958144400916416 0.7315500164525519  0.3201523955821021 0.9428481151419348 1  -0.1842668800468397 1.482833328416011 0  -0.3261211353105523 1.967879871718832 0  0.6369413111082657 1.134962770928983 0.6982435355650809  -0.5897572390507918 1.041671125967472 0.5035706790610246  0.5816022277758496 1.690086983344825 0.8067655618993008  0.409052571906391 0.9097849337810207 0.7575866569922562  0.4373270451765627 0.8946719129549711 0.4642534374329268  -0.502990862578652 0.859573871324515 0.6952505369826911  0.5973730345669217 1.898719436269093 0  -0.3643877484015743 1.399503448212913 1  0.4927023055088699 0.8650732196511788 1  0.6868754821180931 1.871569165629705 0.3122079285272521  0.775688464769247 1.842242054860862 0  -0.3177026153873686 1.177369199564174 0  </DataArray>
</Points>
<Cells>
[...]
<PointData  Vectors="f_18"> 
<DataArray  type="Float64"  Name="f_18"  NumberOfComponents="3" format="ascii">1.2675079323690995e-02 5.7248016959853779e-02 2.6949538926581881e-05  1.4882158297514322e-02 5.0549567508408555e-02 1.2034741968875036e-03  8.9519818123763063e-03 5.1934886237585909e-02 1.2154376141522061e-04  1.1653843718156877e-02 5.3532201253736540e-02 -1.7746411321976736e-03  -4.2254723900498545e-03 6.4662572540983621e-02 -2.0177713498988475e-03  3.1510447195318776e-03 7.8979193058491465e-02 -2.1338676139857167e-03  -8.8154909616732311e-03 7.8457223729795508e-02 -3.1240759175195945e-04  3.8058288079432364e-03 6.8817284544571825e-02 2.0208534748810582e-04  7.9690638673340052e-03 6.7396784671030538e-02 4.0802882377451132e-03  -7.9540400691022837e-03 6.9093697595799683e-02 3.7626900510448098e-03  -5.8201076558176568e-03 6.4037162229311440e-02 2.2370031973294462e-03  2.3616244364974936e-03 6.4092580421694634e-02 5.7780677844472966e-03  1.0515735018967172e-02 5.1209122117573572e-02 4.1151212285618207e-03  1.0024758887968778e-02 4.8653882129617319e-02 6.2113424309883352e-03  5.4430349972880415e-03 4.9497231768394948e-02 6.2425619712938221e-03  7.8246476234989475e-03 4.8932022983595870e-02 2.8783213488856041e-03  -1.2044019247032715e-03 5.1826170035698019e-02 3.8503223964133667e-03  4.9846667185175020e-03 5.2544468926155691e-02 4.0530792929340817e-03  8.6132721689582221e-04 4.9721788889104598e-02 6.2003254526210912e-03  3.0644812655515946e-03 4.9614171342519636e-02 3.3147726991881077e-03  -5.1772315120046106e-03 4.9436276718940436e-02 4.3661112224367064e-04  -1.0068236132676288e-02 4.8539712921643621e-02 2.2648978197386608e-04  -1.1386210636861837e-02 5.1798094100839361e-02 -1.0336646799219019e-03  -5.3122158763649549e-03 4.9440029846193688e-02 -2.0337244047332319e-03  2.0688601078530263e-02 5.4957240697899160e-02 5.9698103080307388e-03  2.2837105829223912e-02 5.0152194006964565e-02 5.9201053662610859e-03  1.8073605966972290e-02 4.9639489381661177e-02 6.0531108111635343e-03  2.0026452861589373e-02 4.9148174351186402e-02 3.0432540350418089e-03  -1.5213092696838891e-02 5.0179673288126232e-02 8.3912783783612866e-04  -1.9036601397657456e-02 5.1338997475139383e-02 -1.7429560577997172e-03  -1.4550734116834704e-02 5.0532290188918028e-02 -3.2475124971003601e-03  -1.8905793493534783e-02 6.6330667983349897e-02 -3.3671200068891693e-03  -2.6137388099705554e-02 7.4383276020546160e-02 -2.8990979730892812e-03  -1.4615764550225174e-02 6.6516058462532474e-02 4.8694830043071575e-04  -1.1542484425986014e-02 7.8040573465290253e-02 -2.9674256074254646e-03  2.3723975906115840e-03 5.4335659589608447e-02 -3.4075424507759517e-03  3.4696399915276964e-03 4.9522738616934001e-02 -2.0996630740421542e-03  1.4328060424620469e-03 4.9800649630588931e-02 -5.9268170882122839e-03  6.0475646152794134e-03 4.9522876381505244e-02 -5.9708040696395143e-03  3.1871975815225451e-03 5.3304920775625826e-02 -7.4445917133618607e-04  -2.3714476185622843e-03 5.2259918540988312e-02 -3.7354606504903650e-03  1.1229260691745482e-02 6.7041684601946969e-02 -3.3021380560774474e-03  5.8742781637781578e-03 5.8744155966846061e-02 -3.0674640093935157e-03  2.5535383890730669e-03 6.5917620129655241e-02 -5.5036575337857425e-03  1.4317199965530259e-02 6.1946548158885159e-02 -5.5646591290523968e-03  -8.8230985692242653e-04 4.9675703962786713e-02 -9.6052632563160237e-04  -9.0973236187422439e-04 4.9626302674860442e-02 -3.1383437540686465e-03  -8.1658870679713804e-03 6.9262079302473523e-02 -3.3732073279518727e-03  -9.6779200085152992e-03 6.3870893098105133e-02 -5.3435124210964597e-03  -4.4384753495110545e-03 7.8690755206831706e-02 -4.9461668438389936e-03  -5.9385326190175393e-03 4.9414637463331662e-02 3.3381130476024885e-03  -7.8674623744298955e-03 5.2007248965264291e-02 1.3428974104819074e-03  -1.0560455756458089e-02 4.8497177177226763e-02 3.0024866160565590e-03  -7.2583303669086459e-04 5.8725991537053872e-02 -5.6464233117247201e-03  2.2286205582255907e-02 6.3932452237692464e-02 3.8281325271923264e-03  1.4764929788494807e-02 6.4426441493753775e-02 5.6439320912926470e-03  1.4097281110685419e-02 6.3707832891627916e-02 2.2512884104844795e-03  1.0614803832534013e-02 7.8199543503066501e-02 -5.6863670159638877e-03  -2.1510454931013927e-02 6.0324290972699417e-02 2.3242038280121584e-03  1.6302721035848525e-02 6.1439116744838110e-02 -1.6048439655970944e-03  6.7218732626013909e-03 6.3795353908030594e-02 -1.6960273360805259e-03  -6.2692358045156075e-03 5.2858850492246021e-02 -5.8385106928460591e-03  -7.8149723118547121e-03 5.1670113087110114e-02 -3.2794923681156852e-03  -7.7849753893624307e-03 4.9215736035292661e-02 -5.9644981179360172e-03  -3.1192226514875632e-03 4.9717005284851949e-02 -5.9104915212510314e-03  -1.0522672575425685e-02 5.1594154830761088e-02 -5.7601307051300702e-03  -1.5376859306758268e-02 5.0622119695241559e-02 -5.6829638452424820e-03  -1.2261476656861227e-02 4.8247461765045664e-02 -5.7970046620993308e-03  1.3876125605105049e-02 5.8356046815212198e-02 -3.6252629503663136e-03  3.8333339451646453e-03 5.9093448026758609e-02 1.6045440919912427e-04  9.7977844481719947e-03 5.3735110576600048e-02 2.4100482930636737e-03  2.4783308276336200e-03 5.2271957427690342e-02 1.7384911009377454e-03  -1.5166582659950956e-02 4.7373499010053097e-02 2.4836159702561252e-03  2.4609956630797361e-02 5.3226858927559427e-02 -5.8007037715653298e-03  1.9614735118973197e-02 5.4000723931931699e-02 -2.8362101935904983e-03  1.6494886465938392e-02 5.5567879069549415e-02 -5.7535819363134294e-03  -5.2615058416262094e-03 5.8957133812183531e-02 -3.5174678517465008e-03  -4.4054605649969294e-03 5.4867692212798323e-02 -1.9379757512690359e-03  1.7373277580116381e-02 7.6482141925890340e-02 2.5400273989519760e-04  -6.9246019647249094e-04 5.3766538779821640e-02 -5.7761013097834260e-03  1.7620824658583858e-02 7.6873037828966304e-02 3.4277586099765692e-03  2.4434666689371502e-02 7.4886000748329462e-02 1.6023336985303686e-03  3.1719914386157268e-02 7.2008972479866248e-02 3.1012865977571588e-03  1.0250245336988218e-02 7.8228478271383517e-02 5.9842186861071706e-03  -4.4025739370424626e-03 7.8792565616694343e-02 5.6688504777775636e-03  2.9490794147944005e-03 7.8747759057294711e-02 2.4706919116795865e-03  1.9768101114251559e-02 5.3490369708463589e-02 9.5638379988833427e-04  1.7486027446542450e-02 5.6702659657204793e-02 3.2907300330970277e-03  -1.2384090923174726e-02 5.5702421969751795e-02 9.9025763211536681e-04  -2.0151689813270510e-02 5.5197934629031671e-02 8.8583650785017081e-06  -2.1036847299444151e-02 5.5110587141201060e-02 -3.1095794777333467e-03  -2.0156760729716765e-02 4.8062857854807885e-02 -3.3222411702551330e-03  -2.0392832856122842e-02 4.9704933861088083e-02 -5.6875430838096482e-03  -2.1823152331951173e-02 6.2285192819969359e-02 -5.3596856546485614e-03  -3.3079869304200031e-02 7.1471867523428712e-02 -5.3188075168849229e-03  -1.8995073539351919e-02 7.6364827178038427e-02 -5.4605157308103619e-03  8.9812400722182259e-03 5.1903612786696723e-02 -5.8368322987183705e-03  1.0651189759337668e-02 5.0984353896500204e-02 -3.5532719321079626e-03  1.0640865228096385e-02 4.8633388286712209e-02 -6.0514593969087978e-03  1.3408562254075317e-02 5.1335822780475653e-02 -5.8940243597403064e-03  -1.9183712570846348e-02 6.0728467342294916e-02 -1.5578539590226093e-03  -1.9076891072993912e-02 7.6744517667275580e-02 5.5235224136796811e-03  -1.1724401584226812e-02 7.8208982269686866e-02 3.1248950072717838e-03  1.9015045532235098e-02 5.0480025079704539e-02 -5.9040369019232779e-03  3.1940928851008289e-03 4.9504300164257518e-02 3.8764555208942381e-04  2.4092901678330152e-02 6.2856207536212613e-02 3.1202036837459888e-04  1.2406969760033823e-02 4.8006670537269404e-02 3.2367368784481654e-03  8.2794471855546121e-03 4.8966454496590518e-02 -2.7268576539973234e-03  1.2896213999537982e-02 4.7907324153172906e-02 -2.1136608402063982e-03  -1.3058480841663172e-02 5.1705555374255661e-02 3.1826277489259776e-03  -1.1356185523281544e-02 5.2901474425475922e-02 6.1063957099508522e-03  -9.1719616464553989e-03 5.1615825979634967e-02 4.4612415146488022e-03  -1.2819299062343812e-02 4.8127701215980541e-02 6.2570737946583705e-03  3.8880688173852243e-03 5.2731608474020697e-02 -5.8668394485959724e-03  1.8573309928795540e-02 4.9845638787537720e-02 -1.1122342702212800e-03  -1.6709000886641054e-02 4.6870704752866366e-02 -5.7619867315709351e-03  3.0139783874154377e-02 5.6320941156340100e-02 2.2296537859217659e-03  3.2245058460260811e-03 5.5164054342222296e-02 6.0344652757888294e-03  -1.3900706642268517e-03 5.3111467566596925e-02 6.1052610793047518e-03  -2.6383062980575717e-03 5.4599525220890094e-02 2.3962862150315296e-03  -3.7420843951867029e-03 4.9774456088659873e-02 6.2425707818766756e-03  -1.4461008751518970e-03 4.9611947868029090e-02 2.4785299963513050e-03  -5.3157479661761434e-03 5.9243377135633546e-02 -2.5312694018738991e-04  -1.2712153658747186e-02 5.6089788364151447e-02 -2.8190450408743873e-03  -2.6504097170935641e-02 7.4359078666364417e-02 3.3176045025714437e-03  2.5591016378963671e-02 5.8398652410237097e-02 5.7871512035729362e-03  2.4983152818200436e-02 7.4846108041616607e-02 5.4501638419614694e-03  2.7682926432012204e-02 5.2266586627364886e-02 -3.3038231063175903e-04  1.3779534955725075e-02 5.7063631997569586e-02 5.9479560045137504e-03  4.0318566131184331e-03 5.8919010210440499e-02 3.3552722589593725e-03  2.4167524444471757e-02 6.3559027797525564e-02 -3.1357043836865695e-03  -1.1029988746224541e-02 5.4307772199954633e-02 -5.6281535425372073e-03  1.2923079667177512e-02 5.2017794827494482e-02 6.0631734271207613e-03  -6.4089856861512902e-03 5.2640320787581650e-02 6.1052526123000434e-03  -2.6286320029370244e-02 7.4103489483930279e-02 2.6314970833830783e-04  1.5130766572683930e-02 4.7325934527088089e-02 -6.0379914879084510e-03  -1.5214127001588978e-02 4.7275015213908360e-02 -1.9985557249059055e-04  -1.4587822849250403e-02 4.7580247185374076e-02 -2.4663429032240280e-03  -4.1359392735803718e-03 5.9402816913059937e-02 3.8292493524556873e-03  -3.0936352933373434e-02 5.9500898862711850e-02 -2.6633581394461411e-03  2.6734944787602181e-02 6.0495100879220443e-02 -5.4463816477963913e-03  9.5525594794839842e-03 5.4579956899074467e-02 -5.7202780790766520e-03  1.7432671267106497e-02 7.6796642098730994e-02 -2.7443751295642988e-03  -2.1319741649743849e-02 5.9887708598305410e-02 5.7949397163294877e-03  -1.0039780679985252e-02 6.5338192480416848e-02 5.8701480764746577e-03  -1.6072812001671766e-02 5.5544069704896067e-02 6.0292642352194189e-03  -1.2996665621888573e-02 5.8553580382505896e-02 3.5219485632379892e-03  2.5101182889576072e-02 5.2553283711618194e-02 3.4220393689360774e-03  2.7463251938954332e-02 5.2131699120371321e-02 6.0194261036681379e-03  -8.1467768960577780e-03 5.4912410109704976e-02 4.0023491252149882e-03  -2.1413850897625201e-02 5.1136681003278117e-02 6.0943106140861460e-03  -1.9772205170210350e-02 5.4208931442912132e-02 3.8807389500660570e-03  1.3166082217611905e-02 4.7829713052333106e-02 3.2522858230346543e-04  -2.2262256219368157e-02 5.4464068910346955e-02 -5.5673532327969759e-03  -2.8104744763443653e-03 5.2293025719065071e-02 -1.7204288585840997e-04  8.2246374303982430e-03 4.8937568112016029e-02 5.1020529144924176e-05  -1.0063192400911280e-02 4.8615867669338224e-02 -2.6337893852298958e-03  2.5088437293484728e-02 7.4964475780044448e-02 -5.0577588207808702e-03  -7.4942362736775377e-03 5.8315643538733100e-02 6.0375518491138334e-03  -8.3963282119420696e-03 4.9138372822285122e-02 6.3366502572340380e-03  3.0906069629547513e-02 5.6449391571630564e-02 -2.1962191392443453e-03  -3.3856035015511557e-02 6.0001576948702687e-02 2.2168442569224682e-04  1.6609099491908523e-02 4.9742940963277388e-02 -3.5410813042570325e-03  3.1967628530081643e-02 7.2296976471502850e-02 -3.0103035361433556e-03  3.4255959523326440e-02 7.0805182753980664e-02 5.1253458981367277e-04  -3.9869210009039147e-02 6.8062479915748431e-02 -1.9013457864103351e-03  1.4534485335291612e-02 4.7514312331668244e-02 6.1306028974123005e-03  -1.5083036378775980e-02 5.8243718890697731e-02 -5.6069647686981632e-03  3.8655988043085322e-02 6.8746718868652301e-02 -4.7684249257088918e-03  1.6638033913328423e-02 4.6578698185216573e-02 2.2880253659533075e-03  1.8776629377726770e-02 4.5804726571931034e-02 6.1157951342861189e-03  -1.7711052379432903e-02 6.5473420001727858e-02 5.8514228035340720e-03  </DataArray> 
</PointData> 
</Piece>
</UnstructuredGrid>
</VTKFile>