<?xml version="1.0"?>
<VTKFile type="UnstructuredGrid"  version="0.1"  >
<UnstructuredGrid>
<Piece  NumberOfPoints="172" NumberOfCells="626">
<Points>
<DataArray  type="Float64"  NumberOfComponents="3"  format="ascii">0.3335227193744119 1.455823083785915 0.5059548517043282  0.5147335164951123 1.695375458309009 0.4045574146742378  0.3114922696473099 1.749879024378842 0.4952208711948659  0.362054055747579 1.621275077683425 0.6647683656809289  -0.08003934538014729 1.295501408685772 0.6971819095783099  0.04160764913545779 0.9959020042462563 0.6951876610204599  -0.1158014551741539 0.9885945521690958 0.5360510107907983  0.07039621903639844 1.193189424248325 0.4925197764598668  0.1491014704226533 1.206091432684536 0.1645315316658615  -0.1324954485561265 1.170160433752792 0.1730870475574952  -0.1167133356171148 1.304836660355007 0.3171019939379283  0.05531881852987598 1.314100493560312 0  0.3749437861923043 1.759916422654703 0.1643598384089756  0.4181796157261225 1.953077165598711 0  0.2329436680789495 1.977057051227739 0  0.3259282302928117 1.967898871204744 0.2701428045681138  -0.03280364265358246 1.831764972791291 0.1909259915725535  0.1793593889274742 1.763015629161613 0.1712485623520171  0.04658873361578186 1.995411410245548 0  0.1342877826595882 1.986773807832135 0.2409428933173995  -0.1988450770295621 1.980415469312695 0.4765700177088378  -0.401475179542921 1.958144400916416 0.5014873400227502  -0.374651815137472 1.717339434420175 0.6085609355383461  -0.2079297969927716 1.979520702494411 0.6817345837013904  0.5381140213278526 1.390649914862936 0  0.6935573934875271 1.489966702901899 0  0.6178842866238763 1.653744004512532 0  0.6728588884486792 1.610917347527578 0.2548265037722429  -0.5174396855537765 1.720603924206695 0.4455678853971146  -0.5790841934569149 1.560047235753897 0.6688754989314865  -0.4936253294979922 1.718220497575566 0.7876615208084401  -0.3283769853446082 1.144478249162979 0.8173417573936155  -0.3313057231869523 0.9394647902018172 0.7658315521872423  -0.2561666640715012 1.181257425698613 0.4770501627805496  -0.1475674136574341 0.9854658783390922 0.7577188562340105  0.07700126095066522 1.682714208157353 0.7989154210002125  0.1496726080582213 1.985258534788219 0.6817345837013906  0.06405950872170407 1.993690689087629 1  0.2504144431848718 1.975336330069819 1  0.110401540764338 1.7332933916339 0.5796558032405165  -0.07750087508183946 1.800969151666767 0.8279227609020432  0.2048886859813426 1.196325857895504 0.8171041573670768  0.1521457689287699 1.46939554524601 0.7744805392251949  0.05327259198751798 1.266613209591833 1  0.3072755743763494 1.298128564921423 1  -0.02931156313904373 1.997113063011843 0.5912670530496571  -0.02931156313904381 1.997113063011843 0.7722021143531239  -0.136335120665138 1.165141683417144 0.8286009011088074  -0.1920863180589073 1.285833315808135 1  -0.05320645145894509 0.9947596219281536 1  -0.227322383702962 1.977610699414599 0.2410275370475777  -0.2650360456214789 1.766060148854649 0.4064192804260539  -0.418365780237981 1.953020693211433 0.2701518619189722  -0.01390323686899099 1.49649430458733 1  0.410518663746953 1.145132281820996 0.1739528830163619  0.2905179731863293 1.227597612573122 0  0.2837431250514884 1.249607101053172 0.3303922545174872  0.1359720426173005 0.986607922705282 1  -0.4415185705098927 1.234655578466227 0.3250771953421422  0.3491266470639922 1.27883886307539 0.653749421028249  0.1438448025419988 1.303592767475835 0.6511903400626229  -0.2052262700167732 1.742669606420431 1  -0.2705224113918926 1.788506398788648 0.7920907391560218  -0.30865036020463 1.969600592876752 1  -0.1222954257414632 1.987954951894561 1  -0.357384183629547 1.74991491539818 1  -0.5167936440622312 1.693560966141761 1  -0.4909769421302151 1.930994338058548 1  0.3438338580400074 1.40181872259556 0.8224503098828937  0.103093539495368 1.471311370500275 0.497432076544691  0.3103021914988589 1.640840135697603 0.3056135752515149  0.09546023827782463 1.799245266192117 0.3708259648659264  -0.6049140089552396 1.896431906697228 0.3184572261395962  0.638893776382075 1.350457219934239 1  0.5364371386811475 1.440262568815689 0.7514707611545899  0.4446142206860653 1.462490086235967 1  -0.1282818058554273 1.473443331520114 0.8149455763647924  -0.1298367230950829 1.645365652865343 0.6796708863251  0.2294042013770801 0.9703762788973833 0.5  -0.02091362204091463 1.724262737013829 1  0.2294042013770801 0.9703762788973833 0.2219342289479005  0.3180072301138635 0.9434988439725138 0.369550939792054  0.4090525719063911 0.9097849337810207 0.2424133430077436  0.1359720426173005 0.986607922705282 0  -0.05320645145894509 0.9947596219281536 0  0.04160764913545793 0.9959020042462563 0.3048123389795401  0.5517231384485761 1.454403164442377 0.4298188378448305  0.4427408690880801 1.396002481071734 0.2220788193503419  -0.3346493386806206 1.523066756827354 0.432978452806852  -0.510994707505987 1.404217254440446 0.5163700951909265  -0.5307010043682088 1.3826952685512 0.785767467294626  -0.7036168792142508 1.675069862734098 0.8042164232910654  -0.6560191600603796 1.594701905386204 1  -0.4213746699951029 1.196244977459891 1  -0.4193563900796843 0.9042774282245836 1  -0.2405674396764836 0.9669899475809407 1  0.3127784255943373 1.759801072747297 1  0.3815905473586579 1.774793899673047 0.8040607665745886  0.4349789987424477 1.947981128474059 1  0.4562239397760435 1.698328907282103 1  -0.3992359231948405 1.264547218604192 0.6584240094702515  -0.2405674396764836 0.9669899475809407 0  -0.1475674136574341 0.9854658783390922 0.2422811437659895  0.6123194148856593 1.595725146552285 1  0.1406163157490528 1.986150501726962 0.476703985580191  0.4447834298253233 1.138815981887424 0.4774553823536878  0.5134310105355009 1.924182970874312 0.2410486235520743  0.3433670328132341 1.966181299071639 0.7315217946800907  0.5320136015975745 1.918546003502801 0.6819394328745076  -0.4252082943158828 1.690757594369593 0.2517423600102111  -0.3525296771925283 1.668146412112005 0  -0.3104991349673931 1.771082428469115 0.1427957048384714  -0.5077763251465404 1.925898300933896 0  0.1362149577381199 1.771073376748708 1  0.6192707387864216 1.627646493536906 0.6021451367074655  -0.6701703609710137 1.87663660872893 1  0.6297047863728796 1.149324118574361 0.3176746376671157  0.1055758056023959 1.639093322194773 0  -0.03520695558867812 1.759700557244488 0  -0.07243405846105599 1.67129438251824 0.3106356819049336  -0.1397662008473854 1.986234230736642 0  -0.04681361121902319 1.995389261734822 0.3120977828758459  -0.130384258602981 1.459072419845429 0.5337985841846137  -0.337213639101939 1.501492538619427 0.756467587796092  -0.3365162964824625 0.9378841800729312 0.2405432884014713  0.5426779840473307 1.206243742029588 0  0.3201523955821021 0.9428481151419348 0  0.6960222699964466 1.295807126413262 0.5330849355015431  0.3629782645538802 1.448563065648879 0  0.1078855420021618 1.472353851890794 0.2207892749069789  0.4355148696451734 1.128293321660349 0.7938795729772468  -0.3261378736895026 1.602347301912156 1  0.4298144404842145 1.668892410066069 0  -0.2061907784858699 1.75663260727747 0  -0.3313057231869522 0.9394647902018173 0.5  0.6141724175832469 1.893623399144441 1  -0.6072692169943243 1.895717462149367 0.5362964439456972  -0.5821061254012698 1.903350602533428 0.7233926634179388  -0.09526771893400257 1.462254103387357 0.1851919689388542  -0.5717031409302165 1.095411659227544 0.7615148223574963  0.5177585703954607 1.150958002924106 1  0.2908057772749696 1.611552409424868 1  0.22940420137708 0.9703762788973832 0.7656888621634398  -0.4431978912794227 1.258461435479526 0  -0.1866458556859395 1.249126712993331 0  -0.4245415806414557 1.469208041090329 0  -0.3127418367516563 1.413080425805059 0.2129410587532759  0.6604224575562542 1.345792777446799 0.2156757224577727  0.6997615025342375 1.302391046738392 0  -0.2349853917682375 1.614037023346226 0.1761732302485803  -0.632518690427178 1.508037302070591 0  -0.5246326138228607 1.437575172319297 0.1874291779963437  0.5407342723545181 1.91590061694985 0.4770057860357425  -0.5702152500099751 1.383891866592444 1  -0.09061163158917654 1.798141818632429 0.5310159772803459  0.3433670328132339 1.966181299071639 0.5014776788175115  -0.4014751795429212 1.958144400916416 0.7315500164525519  0.3201523955821021 0.9428481151419348 1  -0.1842668800468397 1.482833328416011 0  -0.3261211353105523 1.967879871718832 0  0.6369413111082657 1.134962770928983 0.6982435355650809  -0.5897572390507918 1.041671125967472 0.5035706790610246  0.5816022277758496 1.690086983344825 0.8067655618993008  0.409052571906391 0.9097849337810207 0.7575866569922562  0.4373270451765627 0.8946719129549711 0.4642534374329268  -0.502990862578652 0.859573871324515 0.6952505369826911  0.5973730345669217 1.898719436269093 0  -0.3643877484015743 1.399503448212913 1  0.4927023055088699 0.8650732196511788 1  0.6868754821180931 1.871569165629705 0.3122079285272521  0.775688464769247 1.842242054860862 0  -0.3177026153873686 1.177369199564174 0  </DataArray>
</Points>
<Cells>
[...]
<PointData  Vectors="f_18"> 
<DataArray  type="Float64"  Name="f_18"  NumberOfComponents="3" format="ascii">2.6320540238968067e-02 1.1880683325243693e-01 9.4336935220707354e-05  3.0990032494866392e-02 1.0519546011320914e-01 2.3654619158396959e-03  1.8644423777395461e-02 1.0810230249771167e-01 1.5855784246715879e-04  2.4259166143767344e-02 1.1141274046205243e-01 -3.6535983806021194e-03  -8.7446109044614830e-03 1.3384982630677997e-01 -3.8522707080623744e-03  6.4545157427867489e-03 1.6192197084319868e-01 -3.6772862125200676e-03  -1.8063749874996485e-02 1.6077142417387763e-01 -2.6402512575813506e-04  7.8789061879740562e-03 1.4194931123712554e-01 5.9621319044147233e-04  1.6450886975810854e-02 1.3907890155773464e-01 8.2001884641934811e-03  -1.6380512177880648e-02 1.4242419349660296e-01 7.5477562080941670e-03  -1.2020051767859037e-02 1.3240857882209564e-01 4.5825338040389870e-03  4.9300884042154233e-03 1.3266493177363012e-01 1.1592869144606126e-02  2.1894267192211964e-02 1.0655535855745324e-01 8.2961217174877359e-03  2.0889465719472051e-02 1.0134426767455773e-01 1.2545051145212859e-02  1.1349303177127344e-02 1.0308600486170155e-01 1.2614069870694284e-02  1.6299605509011474e-02 1.0194112929056960e-01 5.7266826205177503e-03  -2.4995204223510941e-03 1.0784972375914383e-01 7.7533921714158082e-03  1.0380248946532758e-02 1.0930590492842403e-01 8.1714649798892043e-03  1.8006395775967403e-03 1.0355888541697902e-01 1.2526805059226065e-02  6.3819234383902905e-03 1.0334847212940225e-01 6.6221307889481563e-03  -1.0788182993683629e-02 1.0303012240384481e-01 7.1922359132126632e-04  -2.0982366854561042e-02 1.0118120155294155e-01 2.7995906115881665e-04  -2.3704139495685332e-02 1.0783781577230621e-01 -2.1951708257226970e-03  -1.1082839182615295e-02 1.0313168571042935e-01 -4.3569407313899938e-03  4.2958772693835939e-02 1.1404158969058116e-01 1.2049426181173514e-02  4.7489266014065716e-02 1.0423426364968427e-01 1.1970545249058689e-02  3.7620392034044922e-02 1.0326329340085047e-01 1.2235903456576963e-02  4.1675617690293411e-02 1.0222879242956293e-01 6.1173845645558569e-03  -3.1650906853829902e-02 1.0443200051137259e-01 1.6180992763933730e-03  -3.9621060247360167e-02 1.0683149806038794e-01 -3.5956724337338239e-03  -3.0341496675704866e-02 1.0534550753999285e-01 -6.7228523265660933e-03  -3.9076828101164154e-02 1.3706446152416490e-01 -6.3559846407864259e-03  -5.3632247348466847e-02 1.5267415985962093e-01 -5.1392614129307417e-03  -3.0147220292668597e-02 1.3729132648995748e-01 1.1501842119970049e-03  -2.3683931403758147e-02 1.6010961869666140e-01 -5.2487188219240075e-03  4.9465269595100371e-03 1.1320879224578656e-01 -6.9828972275219822e-03  7.2363579659150568e-03 1.0332415089342085e-01 -4.5012735688839747e-03  2.9878413531305810e-03 1.0411718322319466e-01 -1.2354947104902142e-02  1.2647056278614595e-02 1.0353860525101749e-01 -1.2447446492851177e-02  6.6375440064213899e-03 1.1095183327524349e-01 -1.5941338615710070e-03  -4.9455740458129458e-03 1.0900906923037262e-01 -7.7327136923229303e-03  2.3233841765265460e-02 1.3863776596102440e-01 -6.2908269258912693e-03  1.2207795348459055e-02 1.2208891820775990e-01 -6.1433247051996352e-03  5.2978748500617538e-03 1.3679371813356234e-01 -1.0733197891494657e-02  2.9761330737754225e-02 1.2875839703285533e-01 -1.0947658966672040e-02  -1.8449043471354431e-03 1.0358138595016726e-01 -2.1623620931556387e-03  -1.8992319748425608e-03 1.0359255501346529e-01 -6.6368278762529726e-03  -1.6852355499814942e-02 1.4307244248301629e-01 -6.3638922198223881e-03  -2.0092368083217516e-02 1.3264618215048563e-01 -1.0481798602595556e-02  -9.0798289368992282e-03 1.6204165665506251e-01 -8.9303669507183048e-03  -1.2355011687831674e-02 1.0292625194995685e-01 6.6691692307045882e-03  -1.6364479821914770e-02 1.0822119591526930e-01 2.6427981395737168e-03  -2.1987823769985974e-02 1.0103086476436103e-01 5.9804571810869343e-03  -1.4959608531945998e-03 1.2232470192444322e-01 -1.1330848088859780e-02  4.6028206337785940e-02 1.3191831589449496e-01 7.7049860484398967e-03  3.0555852891115967e-02 1.3318035399625822e-01 1.1298851246436988e-02  2.9166981051679440e-02 1.3165986306923699e-01 4.6111820080581420e-03  2.1856904385088593e-02 1.6106368379759056e-01 -1.0221713171649155e-02  -4.4497002139479783e-02 1.2476547535783847e-01 4.7438985334432244e-03  3.3786164960863611e-02 1.2725367031175119e-01 -3.0686460850957251e-03  1.3932338706741090e-02 1.3206405475916910e-01 -3.2157511157721794e-03  -1.3100764153697457e-02 1.1035881293724892e-01 -1.1982559753887257e-02  -1.6303466459904756e-02 1.0774121900545007e-01 -6.8058384816145406e-03  -1.6284389863973757e-02 1.0287422728246866e-01 -1.2416124337129120e-02  -6.5298665763330885e-03 1.0394095095352800e-01 -1.2324912153963034e-02  -2.1990217178897892e-02 1.0773617165556477e-01 -1.1856345706717642e-02  -3.2118167020544153e-02 1.0569371456786153e-01 -1.1690888339473625e-02  -2.5639374562595151e-02 1.0085580053291454e-01 -1.2087751846014514e-02  2.8860060146352610e-02 1.2127708429873882e-01 -7.2248945512823175e-03  7.9782529262843547e-03 1.2258301392166988e-01 3.7326581436687565e-04  2.0379526602786979e-02 1.1169762795358212e-01 4.8567250080756245e-03  5.1668913655510138e-03 1.0877912652573220e-01 3.4466730415943633e-03  -3.1586299724354859e-02 9.8684229774810492e-02 4.9204477074610096e-03  5.1310625621912055e-02 1.1091093329808202e-01 -1.1647189442091300e-02  4.0822595904179658e-02 1.1231636347793222e-01 -5.7161733145906406e-03  3.4390300020575575e-02 1.1578936946749355e-01 -1.1611264390081484e-02  -1.0929458410626799e-02 1.2253519061890873e-01 -7.0321815013926568e-03  -9.1690019269101801e-03 1.1417218508469752e-01 -3.9733815841205477e-03  3.5641399182612256e-02 1.5677094811720799e-01 8.3496125066778119e-04  -1.4506798825196507e-03 1.1223895548554290e-01 -1.1833717461534363e-02  3.6083173313006388e-02 1.5741412075397304e-01 6.8022616589298035e-03  5.0067639343072706e-02 1.5337813198333439e-01 3.3794782056955522e-03  6.5009580761508576e-02 1.4747667295979100e-01 6.1998955739858124e-03  2.1052867087098675e-02 1.6049572389415798e-01 1.1482283537641769e-02  -9.0159634981244029e-03 1.6159823675204482e-01 1.0940149751746252e-02  6.0420399324085539e-03 1.6130468078203603e-01 5.0116431201421762e-03  4.1069025280659588e-02 1.1107362658847766e-01 1.9400694479312901e-03  3.6282996429687867e-02 1.1756934159325981e-01 6.6797643495899390e-03  -2.5711168818620907e-02 1.1566303609250264e-01 2.0119026496304227e-03  -4.1805385760680901e-02 1.1452579188741135e-01 5.9242248613480835e-05  -4.3737031702647595e-02 1.1452654197499514e-01 -6.2281284674048348e-03  -4.2044796764216123e-02 1.0023356428658819e-01 -6.9059350631366480e-03  -4.2574755182415644e-02 1.0374208051605734e-01 -1.1654449562385016e-02  -4.5299946733478647e-02 1.2922743160894748e-01 -1.0454170006683550e-02  -6.8076538720463972e-02 1.4713275413445040e-01 -9.6383638570236851e-03  -3.9106668203423761e-02 1.5723090212814442e-01 -9.8820181911998730e-03  1.8757378048223493e-02 1.0840734500620887e-01 -1.2014281589034894e-02  2.2219350720189650e-02 1.0635237984729247e-01 -7.3738937981891834e-03  2.2241531741754274e-02 1.0169951711880663e-01 -1.2612087099933321e-02  2.8012613724902595e-02 1.0722654493424905e-01 -1.2099592194861685e-02  -3.9724840522738218e-02 1.2574134751883903e-01 -2.9756954258329058e-03  -3.9111335028353532e-02 1.5739040460367701e-01 1.0701666691720679e-02  -2.4015956419949792e-02 1.6017022023833791e-01 6.2464212664790960e-03  3.9712221462485015e-02 1.0539780247385913e-01 -1.2089681868623473e-02  6.6610428029414311e-03 1.0318346846304302e-01 6.1234985246709625e-04  4.9760042624933311e-02 1.2978404489498108e-01 8.1393786876399687e-04  2.5855625706554787e-02 1.0001543313165116e-01 6.4611345940425195e-03  1.7277102785510690e-02 1.0219336664166684e-01 -5.7940516094366849e-03  2.6910005344911198e-02 9.9959077320636386e-02 -4.5376945569194265e-03  -2.7151705669119539e-02 1.0753387397368371e-01 6.4038692913949112e-03  -2.3602429366101966e-02 1.0999085089736124e-01 1.2354867823805477e-02  -1.9077196282265275e-02 1.0738637443363237e-01 9.0030103492408763e-03  -2.6681592265227878e-02 1.0023417492269689e-01 1.2648595626377705e-02  8.1264185338864071e-03 1.1012055084086497e-01 -1.2062219723102183e-02  3.8679576827889500e-02 1.0378542514899138e-01 -2.3530608016103073e-03  -3.4947210378056488e-02 9.7978152620895639e-02 -1.2019042741212526e-02  6.2380259685974514e-02 1.1648935315141436e-01 4.5661004619746504e-03  6.7201303871072520e-03 1.1463333848291457e-01 1.2203555081533887e-02  -2.8739414865023337e-03 1.1047059951857120e-01 1.2341472551761278e-02  -5.4708020348633018e-03 1.1347325421518355e-01 4.8299728705361051e-03  -7.7838631616931461e-03 1.0364735874011496e-01 1.2615884398743895e-02  -3.0041735957116104e-03 1.0335795193131439e-01 4.9054264570531645e-03  -1.1026889255667912e-02 1.2289849046344678e-01 -4.5082373224351359e-04  -2.6438285744620912e-02 1.1663224915074474e-01 -5.6810563646683679e-03  -5.4325428727939440e-02 1.5230215525918869e-01 6.5811932720955552e-03  5.2991720390438042e-02 1.2088355515840415e-01 1.1599196963168546e-02  5.1253891005137560e-02 1.5351815583742018e-01 1.0503511984213704e-02  5.7445570558523534e-02 1.0844398515809119e-01 -6.0552677475631867e-04  2.8607173247984754e-02 1.1841294261947162e-01 1.2014651217792537e-02  8.3809595575078215e-03 1.2219097150131121e-01 6.8121304014606490e-03  4.9984792489195774e-02 1.3142411704670415e-01 -5.9387313207911185e-03  -2.3020045767272405e-02 1.1327503455681427e-01 -1.1461107149419935e-02  2.6894369812445459e-02 1.0818916702775611e-01 1.2252253513298951e-02  -1.3318474322738184e-02 1.0948798854039987e-01 1.2346958057009293e-02  -5.3864943292529707e-02 1.5187884765290566e-01 8.2719328457640535e-04  3.1636707759213352e-02 9.8976048173908468e-02 -1.2597767452485498e-02  -3.1712289874827465e-02 9.8547445295014580e-02 -5.9435463116484582e-04  -3.0432246513974345e-02 9.9263695476367445e-02 -5.2478519451718310e-03  -8.5581295367334644e-03 1.2314777354971147e-01 7.7640394943589838e-03  -6.3981021093535859e-02 1.2302922738784181e-01 -5.0824681102306698e-03  5.5514836467104589e-02 1.2555518285687356e-01 -1.0582917243217202e-02  1.9941785232423660e-02 1.1386933232389816e-01 -1.1650287477705712e-02  3.5833310707611754e-02 1.5759358934535977e-01 -4.7941183288200077e-03  -4.4121993423090033e-02 1.2400946596839935e-01 1.1635435030013996e-02  -2.0732476827014994e-02 1.3507272653871105e-01 1.1724209816866584e-02  -3.3358742885123471e-02 1.1531697971772285e-01 1.2178516859891880e-02  -2.6946309359232621e-02 1.2138292520688704e-01 7.1491216924931900e-03  5.2109182640416071e-02 1.0903932652417654e-01 6.9397545776686180e-03  5.7010555132208561e-02 1.0816669534945671e-01 1.2144130847529078e-02  -1.6912700045800037e-02 1.1408530807875875e-01 8.0946222495041614e-03  -4.4500040771214604e-02 1.0626610868025972e-01 1.2315843223503571e-02  -4.1043237283375535e-02 1.1250473825625878e-01 7.8602466877868704e-03  2.7446758552518373e-02 9.9700175153552548e-02 4.8276517717110902e-04  -4.6384117711629716e-02 1.1340177695149169e-01 -1.1186932956758183e-02  -5.8531906133575838e-03 1.0886800326101036e-01 -4.5861809195677368e-04  1.7147894835420802e-02 1.0201511635811603e-01 -7.5708165444898328e-05  -2.0997108465438969e-02 1.0144390415692144e-01 -5.5946146321054794e-03  5.1655531442660649e-02 1.5432848291604109e-01 -9.0729968759232105e-03  -1.5534550143464197e-02 1.2099995021547497e-01 1.2189108219505045e-02  -1.7472088741360744e-02 1.0232844254161264e-01 1.2797304650793812e-02  6.4051314352647437e-02 1.1689187961599247e-01 -4.1903118368680778e-03  -6.9811135683033126e-02 1.2376575439840752e-01 6.3635826159869535e-04  3.4658441875698921e-02 1.0375565396219737e-01 -7.3395179744077136e-03  6.5625381876941932e-02 1.4829699479715550e-01 -5.3167064663453773e-03  7.0248288114830928e-02 1.4505747316559078e-01 1.3457754286354507e-03  -8.1719762953821565e-02 1.3956957978135837e-01 -3.2716165822144999e-03  3.0280712575470121e-02 9.8961944447930175e-02 1.2385679578439593e-02  -3.1404377597784597e-02 1.2120585764237309e-01 -1.1219263307693921e-02  7.9643458388185276e-02 1.4155624403126721e-01 -8.5458956377670054e-03  3.4679814448468453e-02 9.7063559208708891e-02 4.5146528251412878e-03  3.9121605045614072e-02 9.5413714656608611e-02 1.2343660607282217e-02  -3.6581163699541591e-02 1.3522596138828177e-01 1.1649085614186382e-02  </DataArray> 
</PointData> 
</Piece>
</UnstructuredGrid>
</VTKFile>