<?xml version="1.0"?>
<VTKFile type="UnstructuredGrid"  version="0.1"  >
<UnstructuredGrid>
<Piece  NumberOfPoints="176" NumberOfCells="626">
<Points>
<DataArray  type="Float64"  NumberOfComponents="3"  format="ascii">-1.462744779920422 0.4173062759430208 0.7927788025429325  -1.315004706961013 0.6972167789990056 0.7557377227898123  -1.24261630433174 0.4137133052539228 0.6762314288941822  -1.564690195006766 0.6196325639107423 0.6892222911693506  -0.9912607890003962 0.0887306983322423 0.7688596154928593  -1.157675661796024 0.2874316557483794 0.8237284357888865  -1.193677763294787 0.02935523231729001 0.812175874957884  -0.9819498088636408 0.1832666661363625 1  -1.370317109984933 0.6068829405856371 1  -1.374007622100844 0.09777626041767989 0.7163944533892758  -1.497526988319634 0.06223231979832809 1  -1.257318893890059 0.113297357199552 1  -1.426410269324307 -0.2746123173713337 1  -1.500573791635198 -0.1343119170450844 0.7793914918465166  -1.628642811205088 -0.2280282795420948 1  -1.553893487133441 0.2026855142925206 0.8123817161664363  -1.724055721366079 0.08454345261679307 1  -1.730806770054562 0.2680869584325063 1  -1.738241993048834 -0.1668323661063556 0.5052707113179995  -1.678786771260193 0.05495038097256552 0.6892783914122976  -1.475115822476183 -0.1061604368231795 0.5102968426790093  -1.65956562518322 0.6779485992594181 0.1896533736052345  -1.720532437548271 0.4373519509618823 0.1754478773861343  -1.709763549103771 0.6410356720050135 0.4332539624816215  -1.885130003936691 0.6421713892771141 0.270111656601095  -1.636071442661823 -0.3475227057135603 0.6780535416162582  -1.770439526340713 -0.3857097409097593 0.4625341959737544  -1.944522349779485 -0.4463810640409471 0.5920894244586623  -1.974189182631205 -0.2620616265888291 0.7298883433989083  -1.311232433775281 -0.5655346387499858 0.2575624298059242  -1.115114617145163 -0.4774046250283511 0.183365501259989  -1.389282245793132 -0.390104725039531 0.1762849063852214  -1.272047610987646 -0.2896564134506388 0.3164264087849299  -0.9290527823196455 0.3656295132424565 0  -1.190015801986949 0.4859549610262058 0.2855300420029705  -1.154952165344322 0.2392481477379702 0.1941991349140578  -0.9566144206959937 0.2747709680011161 0.2420850819122637  -0.9917877951958876 -0.08337991463409308 0.3014470703819548  -1.203640036831656 -0.08325252803474509 0.4828454397889581  -0.9711427085821456 -0.226877621308203 0.5  -0.9912607890003962 0.0887306983322422 0.5  -1.200554184744864 0.1951582901488528 0.5722415843174004  -0.9566144206959937 0.2747709680011161 0.7579149180877363  -0.9807852804032304 -0.1950903220161286 0  -1.209935812895535 -0.3819042831015633 0  -1.820860037820459 0.0940778455954159 0.8249209159235769  -1.740429359649223 -0.4716914031645397 0.8098827929228846  -1.675175657750933 -0.6607398531446582 0.8269759785572082  -1.863047176396528 -0.7149687156812052 1  -1.892475081514288 -0.6179579134933961 0.6823257906480289  -1.694030268265159 0.2521086332974301 0  -1.9123088686015 0.5525746798567135 0  -1.963291281964382 0.3727098689263164 0  -0.8818497861445191 -0.4613155571981953 0.5  -1.150536973579396 -0.480913571459282 0.4660449197857321  -0.9563006605232179 -0.2758052966743181 0.7404721885678482  -1.971763274727665 -0.286692282878117 0.4416850368765731  -1.989110983577033 -0.1105580390958591 0.2754498220525415  -1.761579966123775 -0.2663709394208962 0.2302127468000587  -1.93944788191584 -0.4631093427328397 0.312468973614769  -1.7586360996564 -0.1593651247605219 0.7674836060750635  -0.8818497861445191 -0.4613155571981952 0.7311394935597686  -1.115941880422272 -0.4305433895007025 0.796606423718511  -0.9256039491140714 -0.3769987926575506 1  -1.212002869458737 -0.2375731748946453 0.8353124047479963  -1.21000317190587 -0.3819247162339598 1  -0.9807852804032304 -0.1950903220161286 1  -1.525927344464973 -0.2393749232136364 0.2219150219271743  -1.415930250292146 -0.03013962490768879 0.2431523579218497  -1.749285118686629 -0.0940061731589974 1  -1.575027654417853 -0.4272778672614745 0.3583387676772505  -1.376556337245432 -0.4413811822579451 0.4728095292503682  -1.540546267421118 0.3160575247297414 0.5788901295650919  -1.725771647669393 0.3430097485514121 0.7545419563727896  -1.72596058113537 0.4955108474915281 0.5828909256489527  -1.969434863507119 0.3103330387327409 0.6361264082428812  -1.929321970332065 0.4964899996873173 0.7245501779474556  -1.190487498900903 0.03615294689702322 0.2137535486344003  -1.473771864508179 0.1228524379847805 0.4668768675845455  -1.986252054781623 0.1395852302816939 0.4691986221315061  -1.780044200666404 0.05311175152980256 0.4889464863196062  -1.991422321557937 0.08709063075238727 0.2572330376846003  -1.972468461473287 0.2795324016947319 0.3020560919448448  -1.720206073487053 -0.3872292339129283 1  -1.917404905726146 -0.535775296840406 1  -1.9650120031223 -0.3552390938204129 1  -1.944522349779485 -0.4463810640409477 0.772562156837397  -1.731067350347138 0.3425306741520479 0.411742788949795  -1.940529183105366 0.4595447704201737 0.2391745997996103  -1.939447881915845 0.4631093427328218 0.4952633427125438  -1.907212831476848 0.5693740628730387 1  -1.733336968666854 0.4378256679860146 1  -1.961570560806461 0.3901806440322567 1  -1.570108367541714 0.5323200146201426 0.3214131146464111  -1.4996994999672 0.3046073686345621 0.2461276645980091  -1.573062635283103 0.710522813525687 1  -1.69636532186868 0.6500391759259293 0.82538474617488  -1.664660741945468 0.560043186159905 1  -1.85285510214723 0.74856748171384 1  -1.295818339527629 -0.1133243096087688 1  -1.450441019651562 -0.2765949854519154 0  -1.5576587466791 -0.06806370280219359 0  -1.222473603421901 0.3518873350067027 0  -1.46295663988695 0.3280486082887119 0  -1.257150721370752 0.1132818288738338 0  -1.614445528027136 -0.0895553740106462 0.3477398800377443  -0.9482005564984586 -0.3025077610903928 0.2301063922394252  -1.796694049967172 -0.01478787568249089 0.2086438349576154  -1.781864168871655 0.1864306443293937 0.1730525028907116  -2 -2.449293598294706e-16 0  -1.540227286709983 -0.7594309578000181 0.7158969883666931  -1.432341127333238 -0.8020961674110092 1  -1.285361083627857 -0.7056318215590633 0.7820307561532949  -1.459371640292367 -0.5186517413535566 0.749881381869644  -1.875920433601355 0.672531273966861 0.7616887288907539  -1.34376490772025 -0.6629168230233793 0.5232079866624604  -1.146979132093379 -0.6111977257244187 0.6415714464460128  -1.285156043291617 -0.351816949472253 0.6633811875835041  -1.992530085494706 -0.07584331475312509 0.504736657287455  -1.683847711978677 -0.6637140041757016 0.3554943844166969  -1.647750840002398 -0.5800941792630666 0.5582074612571528  -1.111399709213698 0.3143340114943649 0.3936982570693697  -1.417412770778386 -0.48194566875493 1  -1.596231885380743 -0.724927919435626 1  -1.635305746268364 -0.5480427802511509 1  -1.13407750712131 -0.2153179274375809 0.6269079539693194  -1.250327345612778 0.359966722685725 1  -1.358753583540909 0.4331344014522989 0.4586164123344102  -1.877945506506339 0.6658555032582358 0.5583149631234268  -1.687422812760598 -0.5289845451979994 0.1787939533334902  -1.963291281964381 -0.3727098689263351 0  -0.9994177357697949 -0.005911827939883069 1  -1.774018349100714 -0.2423465202832379 1  -0.9819498088636408 0.1832666661363625 0  -1.161618529882714 -0.6086679473328844 1  -1.412883232192979 -0.498916897224404 0  -1.304133030842394 -0.1097012979738302 0.6789968233247218  -1.599403017832927 0.3964101795874956 1  -1.652148460867653 0.1195813693636491 0.3168599109785838  -1.465782815393488 0.1193474926581011 0  -1.295023116703767 -0.113245986996865 0  -1.820074272553176 0.817161468448121 0.4079105755413405  -1.828344611031377 -0.8016887534344467 0.501479594258776  -1.895141120398549 -0.6091691611241368 0.4773268319077155  -1.989102099333176 0.1106482423375056 0.6979439080551546  -1.99827927884208 0.01747077510592193 1  -1.979924919824271 0.2038257095690893 1  -1.027492750785988 -0.6524847028891798 0.8199378413995048  -1.436854688949139 0.2633462915169819 1  -1.292882032904074 0.2047573215974398 0.3447930596874081  -1.663935857491406 0.5750728785195803 0  -1.781648922374962 0.2379196086930771 0.5841112152691851  -1.828344611031377 -0.801688753434447 0.7315233149267526  -1.78431344816284 -0.8840652651795469 1  -1.559641239500735 -0.4052782369023943 1  -1.820074272553177 0.8171614684481179 0.2274378431626041  -1.598442001919816 0.8131212705610243 0.8005177185861571  -1.7677624176777 0.9150300652967593 1  -1.857951139271881 0.7317680986975148 0  -1.98336636214011 -0.1688841593572455 1  -0.947388990623786 0.3051831352366393 0.5363564105802381  -1.650217386037167 -0.3811273884986385 0  -0.9917877951958877 -0.08337991463409308 0.6985529296180453  -1.557364917173048 0.7833533360165803 0.4519990588587856  -1.811833783889858 0.8325783383860297 0.6875310263852326  -1.623972487846827 -0.7834420794628646 0.5282118138501414  -1.972459577229428 0.2796226049363978 0.7864098642370551  -1.98164564098219 -0.1863549344631677 0  -1.981645640982192 0.1863549344631475 0  -1.748038853727744 -0.08681450671670213 0  -1.992530085494706 -0.07584331475312481 0.7646942852785927  -1.562107303025337 -0.8714576333881834 1  -0.9256039491140714 -0.3769987926575506 0  -0.9994177357697949 -0.005911827939883069 0  -0.8370702135273155 -0.5450922451011507 1  -1.391582474002526 0.487267687798005 0.2096997911392877  </DataArray>
</Points>
<Cells>
[...]
<PointData  Vectors="f_18"> 
<DataArray  type="Float64"  Name="f_18"  NumberOfComponents="3" format="ascii">-1.1483457350194273e-01 3.3825831506827386e-02 -6.1687580940135269e-03  -1.0709646997121339e-01 5.8037157236176223e-02 -5.2669342817785059e-03  -1.2531380920682231e-01 4.3026270938641746e-02 -3.0366448375902452e-03  -1.0450202044685668e-01 4.2509501610240891e-02 -3.9113158133936574e-03  -1.5973740000716385e-01 1.5915934271249509e-02 -5.4737987525484743e-03  -1.3698512899409632e-01 3.5371775255861868e-02 -6.5450892743078217e-03  -1.4083586647411142e-01 4.7916621171581299e-03 -6.3016961429809481e-03  -1.5788187664941941e-01 3.1130671049255081e-02 -9.6090400246748135e-03  -1.1074519978140701e-01 5.0194166716749707e-02 -1.1172475090313189e-02  -1.2711492807888278e-01 1.0133742502072204e-02 -4.1639502136197534e-03  -1.2079396713892743e-01 6.0153619432602723e-03 -1.0882510153055996e-02  -1.3552229860897938e-01 1.3394753335059552e-02 -1.0424405974908710e-02  -1.2103840021480078e-01 -2.2436694070665356e-02 -1.1024790607508401e-02  -1.1967797259048663e-01 -9.5000396214099756e-03 -5.7069458562385746e-03  -1.1267586779740260e-01 -1.4889214836731507e-02 -1.1306862140934659e-02  -1.1616655776662858e-01 1.6231171674586757e-02 -6.7365168859363543e-03  -1.1065753728903964e-01 6.3228945091668093e-03 -1.1301308392801648e-02  -1.0876965681129780e-01 1.8094994083537447e-02 -1.1588946692787769e-02  -1.0905317921955841e-01 -9.4449244271671822e-03 5.0696866133762594e-04  -1.1225423101537457e-01 4.7757483355504197e-03 -3.8266607427422808e-03  -1.2105123361000629e-01 -7.3850571382442030e-03 3.1956256948133065e-04  -1.0018121734530254e-01 4.2014281627632065e-02 8.0840929484652050e-03  -1.0541729709591408e-01 2.8049581020978941e-02 8.4942014823568990e-03  -1.0030679895766288e-01 3.8673137340401030e-02 2.1289912555926245e-03  -9.7095957192734131e-02 3.4075722215861547e-02 6.2536130041080358e-03  -1.0995329776038956e-01 -2.2312483457670014e-02 -3.6135360558554245e-03  -1.0481808496419240e-01 -2.1796762660784452e-02 1.4529931559752434e-03  -9.9747505230114011e-02 -2.1810603186542338e-02 -1.7281522424590196e-03  -1.0159906659389631e-01 -1.2512384035134773e-02 -5.1455692539611689e-03  -1.1363158869769190e-01 -4.7723837712406326e-02 6.1944027638549618e-03  -1.2773643154838768e-01 -5.3548797654724568e-02 8.0503082981385424e-03  -1.1846004619780842e-01 -3.2148693465209988e-02 8.1424864862009606e-03  -1.2857050980105611e-01 -2.8080148989217756e-02 4.7069348987431037e-03  -1.4936852395415123e-01 6.0069359643992105e-02 1.1381545432780473e-02  -1.2371277558998985e-01 5.1811283987272659e-02 5.5285483754444024e-03  -1.3929242356120808e-01 3.0113565291560743e-02 7.6914738671826988e-03  -1.5437075469941960e-01 4.4893631816006814e-02 6.7276985383564157e-03  -1.5954768135395955e-01 -1.0911689839252807e-02 5.3439864404143519e-03  -1.3992698316676383e-01 -8.1236541390512975e-03 1.2654263566893584e-03  -1.5632663755750961e-01 -3.4510467139671333e-02 8.1134832441839084e-04  -1.5967628746207510e-01 1.6037636344081917e-02 8.7152673958011098e-04  -1.3724138876214256e-01 2.3693515914976277e-02 -6.1415933225342407e-04  -1.5449699894938443e-01 4.5975376207395044e-02 -5.0006354637702590e-03  -1.5687554372031640e-01 -2.9575167052284971e-02 1.1940296219165068e-02  -1.2862764777296071e-01 -3.9260597206984625e-02 1.1908940587798228e-02  -1.0697319950435596e-01 6.5630483942616148e-03 -7.2773970126335501e-03  -1.0403979021043881e-01 -2.7074144265929176e-02 -6.9029680266804727e-03  -1.0015166362529773e-01 -3.8474277993449497e-02 -7.4686419712955152e-03  -9.5535012561713206e-02 -3.5687411618653887e-02 -1.2021378702943978e-02  -9.7082267672836495e-02 -3.0767827258485241e-02 -4.1930108504005699e-03  -1.1004001881374859e-01 1.7440782531610376e-02 1.2654162523858075e-02  -9.8690963441105214e-02 2.9559889042317166e-02 1.2978154262528352e-02  -1.0070064940477033e-01 2.0240623958491369e-02 1.2870919801592039e-02  -1.4160725883785444e-01 -7.3003552787122200e-02 1.0390126883056813e-03  -1.2573375292167924e-01 -5.1356578645374511e-02 1.3666161186147428e-03  -1.5408689643980650e-01 -4.3096353051169670e-02 -4.8050893068500864e-03  -1.0113516093155940e-01 -1.3615484010756742e-02 1.8943433753703094e-03  -1.0234124916916687e-01 -4.4960523595399884e-03 6.1396500341735797e-03  -1.0715199923153239e-01 -1.5088928802753416e-02 7.1002252691187923e-03  -9.9446568401275109e-02 -2.2762418523045860e-02 5.1103943091164407e-03  -1.0857932090442420e-01 -8.8112367597990328e-03 -5.9286150106733363e-03  -1.4249359017993585e-01 -7.3161568990753156e-02 -4.3431837988243110e-03  -1.3117893747419226e-01 -4.9470782482826978e-02 -5.7567350969688217e-03  -1.4861606713744716e-01 -5.9102717618906363e-02 -1.0156292409896187e-02  -1.3455929721423637e-01 -2.5239915401298319e-02 -6.9076223696245978e-03  -1.2901778011379150e-01 -3.9596178065222060e-02 -1.0471321882408130e-02  -1.5811219136647631e-01 -2.9731548814616711e-02 -1.0341983761720847e-02  -1.1664519131129016e-01 -1.7132158075295875e-02 7.0538148735259385e-03  -1.2480536131637521e-01 -1.3675957996820602e-03 6.6696046720131031e-03  -1.0968782720539770e-01 -5.0900256734033641e-03 -1.1499247118884429e-02  -1.0986124137408315e-01 -2.8465134896699707e-02 4.0528753032968590e-03  -1.1720562059176599e-01 -3.6452317565510116e-02 1.2270019037948776e-03  -1.1461519809522014e-01 2.4690832605930146e-02 -1.2467155728403750e-03  -1.0719516822282976e-01 2.2393789975702433e-02 -5.7336822835595382e-03  -1.0390776271998213e-01 3.1093251956349894e-02 -1.4318205631219624e-03  -1.0106907929233144e-01 1.7010038461756843e-02 -2.7912834358844343e-03  -9.9318016783751448e-02 2.6554810279037548e-02 -5.2087580149670068e-03  -1.4124205185296249e-01 5.6485114828168283e-03 7.1389803414320576e-03  -1.2112962108577904e-01 1.1364945650674337e-02 1.6253375819963959e-03  -1.0219945798534125e-01 8.1282036846638036e-03 1.3803224170560926e-03  -1.0844377594526400e-01 4.4144326505375295e-03 9.4818733518095099e-04  -1.0230109515175168e-01 5.6493849230149946e-03 6.6266001688419021e-03  -1.0143383221615133e-01 1.5328014978508570e-02 5.5670591084088150e-03  -1.0663430895083627e-01 -2.2884695085883790e-02 -1.1574105740382366e-02  -9.8901065929927409e-02 -2.6706169657677237e-02 -1.1931481368772459e-02  -1.0097202644971327e-01 -1.7332823550654231e-02 -1.1818034865672716e-02  -9.9765235705914959e-02 -2.1876651580340131e-02 -6.2470315418013036e-03  -1.0705644039660557e-01 2.2204971938040920e-02 2.7632146992836813e-03  -9.9810831220530749e-02 2.4673379879338930e-02 7.0922129495796611e-03  -9.9579633347809018e-02 2.4889479483157780e-02 6.1792147531085427e-04  -9.8870218188372674e-02 3.0470708753864564e-02 -1.1973795206809960e-02  -1.0555384805768388e-01 2.7894627745505680e-02 -1.1608081645195750e-02  -1.0085483911198219e-01 2.1118750861371612e-02 -1.2047084710698708e-02  -1.0715967265056875e-01 3.7505371044522146e-02 4.9391820307634225e-03  -1.1629892786022616e-01 2.4989257195983841e-02 6.7648398964236627e-03  -1.0118787716727924e-01 4.7018137821240417e-02 -1.1257128524491029e-02  -1.0052370219109132e-01 3.9628183912865954e-02 -7.3561988650534867e-03  -1.0427969555018783e-01 3.6236557413573074e-02 -1.1680473651194572e-02  -9.5551336954236551e-02 3.9561087128620602e-02 -1.1976627217052371e-02  -1.3223818555080133e-01 -1.0559728141942535e-02 -1.0590932065450864e-02  -1.1940500826822055e-01 -2.1457939505704880e-02 1.2328981986969875e-02  -1.1750597917304667e-01 -3.8788840600060765e-03 1.2558290478560321e-02  -1.2978886249053945e-01 3.8393137846157943e-02 1.1961522178449469e-02  -1.1796904180038599e-01 2.7729582637618617e-02 1.2493743214083546e-02  -1.3520515818945872e-01 1.3396445216180174e-02 1.1766501345390862e-02  -1.1447133116448303e-01 -5.2284289135963247e-03 4.1773489816307047e-03  -1.5258095502561167e-01 -4.7014709263522636e-02 7.1922848192452439e-03  -1.0789235977398344e-01 1.7866155509919595e-04 7.6880270327925448e-03  -1.0772788752168978e-01 1.2374678390342652e-02 8.5978147954518559e-03  -1.0239339657843056e-01 9.8279330890809055e-04 1.2940844529292651e-02  -9.9196711957275349e-02 -4.7802617323394046e-02 -4.7955062450542700e-03  -9.9336680020347415e-02 -5.4407860110522420e-02 -1.1501908020696816e-02  -1.0694100908113131e-01 -5.7721923805244518e-02 -5.8765476590446359e-03  -1.1094622369104562e-01 -3.8348710653612061e-02 -5.1422555214725866e-03  -9.6553941637051596e-02 3.5745161460485744e-02 -5.9038845119922037e-03  -1.0784113051279012e-01 -5.2108886484567095e-02 5.5101050153704621e-05  -1.1705584858047928e-01 -6.1057482342941317e-02 -2.6007294749752765e-03  -1.2558224742293722e-01 -3.3284831830236186e-02 -2.9143065284479640e-03  -1.0228338226569585e-01 -2.9080025362008570e-03 4.5661636400134287e-04  -9.9836034307908078e-02 -3.8151071680603561e-02 4.0669361462561462e-03  -1.0323535188253925e-01 -3.5090078194085675e-02 -7.5977995053264124e-04  -1.3857374798881827e-01 4.0280728442084850e-02 3.4919186564188352e-03  -1.1439222807788112e-01 -3.7835273446483228e-02 -1.1335937987796007e-02  -9.9785153702268342e-02 -4.4394644654388915e-02 -1.1710624631755212e-02  -1.0504777010044092e-01 -3.4131389497440268e-02 -1.1537528375546073e-02  -1.4172324125225216e-01 -2.5783837446765247e-02 -1.9965177758448495e-03  -1.2794794668804346e-01 3.7911459310711840e-02 -1.0821091472149092e-02  -1.1858773758414384e-01 3.9220239870477874e-02 1.4595200673384475e-03  -9.6550275532706467e-02 3.5594241742229582e-02 -9.2852711305408927e-04  -1.0365145042197026e-01 -3.1504338263206137e-02 8.2711871591528551e-03  -1.0048429124266262e-01 -1.7954549522364312e-02 1.2805496153819023e-02  -1.6035780805433542e-01 -4.5268805525673083e-06 -9.7358421784467363e-03  -1.0747049566781479e-01 -1.3707904033759325e-02 -1.1541043980757126e-02  -1.5736803621307538e-01 3.0773325082217484e-02 1.2072680599580873e-02  -1.1707955902302226e-01 -6.0301716321780705e-02 -1.0609380341048536e-02  -1.1320465829034684e-01 -3.8706227836839691e-02 1.2240613143305370e-02  -1.3144079431730993e-01 -9.9588439280936802e-03 -3.3383715665239551e-03  -1.1085114069240486e-01 2.8674211245498536e-02 -1.1156729254102941e-02  -1.1284430718637528e-01 9.1445800429180834e-03 5.0442413583087200e-03  -1.2175023746646724e-01 1.1139005410929772e-02 1.2278390336019407e-02  -1.3201114729194666e-01 -1.0355497165730799e-02 1.2080560718737620e-02  -9.3538621866476809e-02 4.3155060863144967e-02 2.7806969540815933e-03  -9.3298121763307387e-02 -3.9829821573424296e-02 3.6306779080478923e-04  -9.7342076644618983e-02 -3.0212396530824335e-02 1.0561248676352231e-03  -1.0224071817114597e-01 6.4504413829785624e-03 -4.3810474429567146e-03  -1.0260853250361997e-01 2.0212008158461345e-03 -1.1842030813427858e-02  -1.0230725112383537e-01 1.1558340958784215e-02 -1.1925379357967666e-02  -1.1709184523995170e-01 -7.3442046870463282e-02 -6.4664681279264277e-03  -1.2106380418271118e-01 2.3614815986122063e-02 -1.1234095526415747e-02  -1.3046545197975504e-01 2.1712763356921586e-02 4.1839271646998445e-03  -1.0340215379775944e-01 3.7012410543215135e-02 1.2730133845093238e-02  -1.0697152006610371e-01 1.5281457160723745e-02 -1.3137622599601064e-03  -9.3412803963696597e-02 -4.0003190459740545e-02 -5.3055744425710349e-03  -9.2036084347779198e-02 -4.4428161962476349e-02 -1.1975875606623132e-02  -1.1172305889294126e-01 -2.7966156688374530e-02 -1.1243954127588288e-02  -9.3627728035352034e-02 4.3109811314737539e-02 7.2526333034655206e-03  -9.6612847615033984e-02 5.0271576752770865e-02 -6.7164108117291777e-03  -9.1559720247310433e-02 4.8364378578054222e-02 -1.2082655611589960e-02  -9.5416609060242588e-02 3.8722894125941723e-02 1.2878458652006937e-02  -1.0243126998460431e-01 -7.6814756315018509e-03 -1.2057438115779954e-02  -1.5267665576944434e-01 5.1297384600947266e-02 7.3798385675590382e-05  -1.0866890678082609e-01 -2.4015504493131595e-02 1.2532363042521456e-02  -1.6001763478495379e-01 -1.2277578838029329e-02 -3.7327641229623599e-03  -9.8234774601627953e-02 5.0460878146937636e-02 1.7308142921326614e-03  -9.3288083441229769e-02 4.3917903845186138e-02 -4.1102464789426292e-03  -9.6707269532170570e-02 -4.5538259354512209e-02 -3.1356751399195561e-04  -1.0144885410933904e-01 1.5418678887891970e-02 -6.6284289563248045e-03  -1.0210230940162288e-01 -8.4177857794097526e-03 1.2963978224449575e-02  -1.0228605366991306e-01 1.0715245458723618e-02 1.3270607354021705e-02  -1.0947283645556766e-01 -4.4343643855100402e-03 1.2781211114746491e-02  -1.0222808785212122e-01 -2.8489204883767254e-03 -5.9545246649515210e-03  -9.4552048873146777e-02 -5.1776496850636552e-02 -1.1720704970234103e-02  -1.4782542992863762e-01 -5.8706200649848286e-02 1.2443580538893283e-02  -1.5973223276338747e-01 5.9651402956549255e-04 1.2539077513434270e-02  -1.3390958844650139e-01 -8.6026707412896211e-02 -1.1346629471509799e-02  -1.1509843327325747e-01 4.1386735560279650e-02 7.4641563862760654e-03  </DataArray> 
</PointData> 
</Piece>
</UnstructuredGrid>
</VTKFile>