<?xml version="1.0"?>
<VTKFile type="UnstructuredGrid"  version="0.1"  >
<UnstructuredGrid>
<Piece  NumberOfPoints="190" NumberOfCells="680">
<Points>
<DataArray  type="Float64"  NumberOfComponents="3"  format="ascii">0.7774620075900223 0.6213786897703732 0.6301803247013167  1.111892032715658 0.6950153870911676 0.6782986928341398  0.9398731368034582 0.9099149963248007 0.6065948067581353  0.9918676312209388 0.6543886671119523 0.8433271873984621  0.941138706865577 1.555920911307085 0.1704413559358486  1.182595711909019 1.604297419826286 0.2395450545717993  1.105979666019659 1.665697729685953 0  1.023406865707056 1.70983381097968 0.2701021146961656  0.410518663746953 1.145132281820996 0.1739528830163619  0.7253839885668945 1.031099139266958 0  0.5426779840473307 1.206243742029588 0  0.6297047863728796 1.149324118574361 0.3176746376671157  1.249304098544304 0.9818639786871559 0.6226004215358898  1.094501835405095 0.9069959230168483 0.7911110155726667  1.309593523734593 0.7964501727899614 0.7808372169612792  1.20556721898046 1.585445191179384 0.4476684804600739  1.091862571121528 1.371305525622352 0.2344987357957295  1.00357872437095 1.423058332434916 0.5177435908903606  0.6960222699964466 1.295807126413262 0.5330849355015431  0.8083390270524147 1.571591874322219 0.472239330174774  0.5517231384485761 1.454403164442377 0.4298188378448305  0.7915237499511695 1.458085557217198 0.6786322054571055  1.357588177110721 0.6051791325630997 0.4890122966951662  1.240163171506982 0.8056445430899435 0.4703265802928889  1.151085225078327 0.5687533494461764 0.2783924227271701  1.028457323040231 0.6449199764202236 0.4738119802244047  0.7150729101162372 0.6974000250004323 0.2407973732256986  0.7277563338502576 0.9325702370966827 0.1974234667644578  0.6474105652419927 0.7560981995049714 0  0.5740716115140515 0.8162859233710571 0.3048877041465921  0.8970303684702503 1.066138203770662 0.2442796007958575  0.9002133998610917 1.17533804169472 0.5123000448132571  0.6975758679023071 0.962264812445522 0.4999493235888443  0.8232270239921954 0.8366784538598585 0.3712692579210483  0.737989278808085 0.9484405353945584 0.8032480055582302  0.409052571906391 0.9097849337810207 0.7575866569922562  0.5740716115140516 0.8162859233710571 0.6951122958534079  0.4927023055088699 0.8650732196511788 1  1.318945904687044 1.211757931086913 0.1685462058045276  1.396119646174049 1.429062855640683 0  1.323743981377897 1.48846002871101 0.3033542810346415  0.8885834835094115 1.181931362434751 0.7862592131011225  0.6369413111082657 1.134962770928983 0.6982435355650809  1.608167053419037 1.177880549733519 0.5573502448101206  1.46993186874006 1.346320609625157 0.7298905348311824  1.337407211512027 1.172612294715934 0.6929771450134057  1.59208793517882 1.197473011997568 0.7591192318740774  0.9557526506976128 1.246217261180822 0.326487242387449  0.8546900028804062 1.42338227677442 0.2943349773090908  1.550998233803861 0.9111995664116754 0.1849175119678493  1.77241109869346 0.9063329948278898 0.3181289097797291  1.731901851626535 0.9821204655507698 0  1.68787056222753 1.064497214017726 0.227718517315201  1.212161326653626 0.7531181568750674 0.1983795961898235  1.452679860600187 0.9255222884508991 0  1.402424438470243 0.9010384370198017 0.3328658404411891  1.18759127663864 1.094084956292823 0.8187586393627059  1.132894300730159 1.25777000605403 0.6977305977620669  1.233403622207101 1.350707387097658 0.8306224871848118  1.110453387798646 0.7228126356976606 1  1.396334107737673 0.6569586265601434 0.2293062230638377  0.7586957751701788 1.078390789473408 1  0.638893776382075 1.350457219934239 1  0.7136870768114949 1.303857447958486 0.8049640593555427  0.5177585703954607 1.150958002924106 1  0.8445300158709623 1.604981812614957 0.8082361558247371  1.04220806685117 1.6997843595989 0.7606505371969035  0.9563164654530667 1.745694377030833 1  1.120187424138717 1.655514577971305 1  1.038802393529454 1.701604729914768 0.5014728633543934  1.19256308893487 1.596117404900978 0.6966893074531462  0.9567898099724369 0.9228692940619503 0  1.03031496855106 1.231174964082768 0  0.8632850317318228 1.217658577272664 0  1.079774313938461 1.133379028982271 0.1751659358748436  1.197697268132032 1.171089125397355 0.3405911527006547  1.083810992509664 1.023977793514315 0.4719324767211387  1.099182398949108 0.3880552209149545 0.1957914270122534  0.8818750233254947 0.4612683417535055 0  1.056155958575636 0.6874912936824367 0  1.229886675696233 0.5007899141836832 0  0.4927023055088699 0.8650732196511788 0  0.9749819037011852 0.7024885010645605 0.1975389432192668  0.6123194148856593 1.595725146552285 1  0.7812639663649553 1.584748348389377 1  1.292228821875236 0.3076565757391458 0.3322186037030394  1.098809470646287 0.4309227919496545 0.4970820672189703  1.590138388628021 0.4593370694758154 0.2945152002274293  1.315813659229962 0.4642700054059137 0.190741969146883  1.408994663971455 0.4584005427637182 0  1.51933550996271 0.6057145881881473 0  1.041709101276478 0.8351940240328192 0.3517222846659885  1.019966115184728 1.452340326101413 0.7686697543582467  1.652267750340121 0.7170285837690376 0.1942889247819515  1.598629367531194 0.7112307742484612 0.4067389616198721  1.251368316581744 1.547857201781337 0  0.4090525719063911 0.9097849337810207 0.2424133430077436  0.4373270451765627 0.8946719129549711 0.4642534374329268  0.8523194685862787 0.5165628955080167 0.5353394748175138  0.8371176937844129 0.5450034157879631 0.2425687671324744  0.9256196219250847 0.3769471263237471 0.3049757398701155  0.7150729101162372 0.6974000250004323 0.7592026267743015  1.064420116520024 1.439974741234165 1  1.264938753731023 1.53672023183065 1  0.6728588884486792 1.610917347527578 0.2548265037722429  0.6604224575562542 1.345792777446799 0.2156757224577727  0.3201523955821021 0.9428481151419348 0  1.605658537252647 0.6244509830031152 1  1.640805752085594 0.7917066994273915 0.8363217813185927  1.555168925950011 0.8010892577516333 1  1.828449529456563 0.8014924648669517 1  0.5816022277758496 1.690086983344825 0.8067655618993008  0.7035836352175737 1.866500802797774 0.7723279307459789  0.6141724175832469 1.893623399144441 1  0.7911708648278604 1.833966539618288 1  0.9378173110873954 0.7761969569558207 0  0.6192707387864216 1.627646493536906 0.6021451367074655  1.518158615246162 1.287556148979834 0  1.458868696661322 1.359801123807286 0.2353254896464294  0.837117693784413 0.5450034157879631 0.7574312328675255  0.7787096233442427 0.6198584655752766 1  1.196308602036355 0.9625326601231052 0.1942587025961539  0.7787096233442427 0.6198584655752766 0  1.36894933200201 1.089093832260849 0  1.675712442972969 0.5076096835010768 0  1.250939842260001 1.00707420999901 1  1.084815113648739 1.026312084294493 1  1.393810227468341 1.10336698973964 0.468472854108257  1.421858507630868 0.5458021515535201 0.7388856714641274  1.534309277461855 0.7778511024357632 0.6857270238177977  1.218689289798513 1.357769733466394 0.4721948408694612  1.758219163862446 0.5058320789461144 0.1873275422099707  0.8737436651404633 1.789830458324561 0.7297320227919915  1.863111706926676 0.7147559870323206 0.7298487012854733  1.661746245061362 0.5816837277146546 0.7663103395431662  0.9408340653944534 1.753969892273407 0  0.8582612650818502 1.798105973567135 0.2353520733753807  1.692680460452608 0.5205670870368633 0.4884510932914654  1.91452828856335 0.5452582327623938 0.3183348412008885  1.858012708296988 0.7315651328223836 0.2684738954631778  1.858012708296987 0.7315651328223847 0.4985186121010893  0.7185014395798415 0.693222349761448 0.5  0.5364371386811475 1.440262568815689 0.7514707611545899  1.784313448162836 0.8840652651795544 0.764993707176584  1.25394881010603 0.8080914854508547 0  1.189192821247533 1.127225816277893 0  1.636952961386817 1.142804819387528 0  0.928663134189185 1.501464274898857 1  0.4355148696451734 1.128293321660349 0.7938795729772468  0.4447834298253233 1.138815981887424 0.4774553823536878  1.450468287554834 0.9958694460606382 0.764245092388805  1.768113762273237 0.9143727457913158 0.5231233826115309  1.536370480643302 0.9309159599273107 0.5158130040637304  1.687870562227531 1.064497214017725 0.4085393022442587  0.9076703735219958 0.8755311530187188 1  1.696120982847927 1.049061762695049 0.6878222845953621  1.342926703294695 1.472717175683529 0.6269914679574615  1.458868696661323 1.359801123807285 0.4985311965600771  0.9256196219250848 0.3769471263237471 0.6950242601298844  1.177835336004069 1.310669829909235 0  1.211168023066412 0.540194530300085 0.7960425385136159  1.740177366869109 0.9666380654921573 1  1.529295585196848 1.273985711830556 1  0.6935573934875271 1.489966702901899 0  0.6997615025342375 1.302391046738392 0  1.008956372805014 1.397384178309885 0  1.885130003936683 0.6421713892771383 0  0.6474105652419927 0.7560981995049714 1  1.82017401421399 0.8169748649255643 0  0.8818750233254947 0.4612683417535055 1  1.167609977272698 0.4754420500101144 1  1.262446367615859 1.173912818054248 1  1.410939694326908 1.055731877453815 1  1.577555788316489 1.215180484183681 0.2703499351130658  1.388222600345667 0.5481825370432527 1  1.409690083323328 1.417925885689996 1  0.9710044101109969 1.326147373629475 1  1.386390748158082 0.8736441173880511 1  0.8515894704581112 1.8016721220903 0.4413049598686785  0.7035836352175724 1.866500802797774 0.5915509350030332  0.5320136015975745 1.918546003502801 0.6819394328745076  1.15204924228296 1.3176550378158 1  1.033366496021805 1.077557223283553 0.682543228095905  1.516698867441217 0.9474449314155249 1  1.648089931337503 1.12923438223825 1  0.5407342723545181 1.91590061694985 0.4770057860357425  0.6868754821180931 1.871569165629705 0.3122079285272521  0.775688464769247 1.842242054860862 0  1.103193596384578 0.3504086635323349 0.7926247744809052  0.5147335164951123 1.695375458309009 0.4045574146742378  </DataArray>
</Points>
<Cells>
[...]
<PointData  Vectors="f_18"> 
<DataArray  type="Float64"  Name="f_18"  NumberOfComponents="3" format="ascii">3.0001958884390202e-02 2.4369837330512879e-02 -7.1330580759714239e-04  2.6318652008465698e-02 1.6851565035663447e-02 -1.0311001578111269e-03  2.2306281837516213e-02 2.1970180837105596e-02 -6.1043266843927870e-04  2.7968118822922886e-02 1.8908498869996421e-02 -1.8974228043550498e-03  1.2896421132823088e-02 2.1832356833708298e-02 1.9632143297350886e-03  1.4081551736844503e-02 1.9576776013794789e-02 1.5533835028329482e-03  1.3116902456205498e-02 2.0273516069942033e-02 2.9590619706082680e-03  1.2194208933265727e-02 2.0849967191803487e-02 1.3909571419954811e-03  1.0955670682530564e-02 3.1445242471952579e-02 1.9253050367575091e-03  1.8369946549974991e-02 2.6623665545632516e-02 2.8724636145630250e-03  1.2560057576983146e-02 2.8668053757547260e-02 2.8998676101655583e-03  1.4803527564454542e-02 2.7673467953701680e-02 1.1143440419270200e-03  2.1303098388501907e-02 1.7161962973164874e-02 -7.7702023830036589e-04  2.2539700522759849e-02 1.9048062537149218e-02 -1.6726274957032028e-03  2.3771841645534530e-02 1.4768613178128481e-02 -1.6674124173673029e-03  1.4432561739079067e-02 1.9354281452558693e-02 2.6299020372162269e-04  1.5808846884789271e-02 2.0369281385171092e-02 1.5708894028885867e-03  1.4754815678379860e-02 2.1365998976653588e-02 -1.2401927865219784e-04  1.3584219958393481e-02 2.5650076838349842e-02 -1.6793621279324086e-04  1.1630682041135647e-02 2.3053086293582194e-02 1.9578970015445195e-04  9.6930530264973998e-03 2.6235965608279614e-02 4.7419765980434087e-04  1.2601105564036189e-02 2.3646100029623678e-02 -1.0138355620046024e-03  2.5838411432187802e-02 1.1899622167642834e-02 3.3913275204848580e-05  2.3849599688932709e-02 1.5841849611554673e-02 1.3972799530833713e-04  2.8271181396091253e-02 1.4332551923703810e-02 1.2263386442779554e-03  2.7852425526481029e-02 1.7813387529878245e-02 1.4196102461821070e-04  2.7337777550645672e-02 2.7137801858774385e-02 1.5369638262448661e-03  2.0677070358762800e-02 2.6909526181825454e-02 1.7408471868454942e-03  2.4779342964211384e-02 2.9664202891258755e-02 2.9513561794388800e-03  2.1896113808039620e-02 3.1963428087119966e-02 1.1274109925121256e-03  1.9097063314152327e-02 2.3160507785796123e-02 1.5027933540909936e-03  1.7298057242367337e-02 2.2958069827669930e-02 -4.2226683730216838e-05  1.9602337656269186e-02 2.7612342101179434e-02 6.2481854281030139e-05  2.3521236853302284e-02 2.4501435174712989e-02 7.6078134041704002e-04  2.0364618125314239e-02 2.6668422131150286e-02 -1.6428325593860424e-03  1.5778093492621756e-02 3.5700182768587101e-02 -1.5612726802260129e-03  2.2068545182213753e-02 3.1964203019737278e-02 -1.0022713707164232e-03  1.9051451349120591e-02 3.3893913289860030e-02 -2.4763272058749520e-03  1.8536280718724280e-02 1.7421527292508076e-02 1.8992288123903178e-03  1.6582817303092592e-02 1.7378761370582509e-02 2.8993563831001892e-03  1.5840615387090837e-02 1.8136704417353183e-02 1.1414919691188309e-03  1.7105245887991116e-02 2.3167518806886920e-02 -1.6609280171839397e-03  1.5178609098593228e-02 2.7736419173515284e-02 -1.1103070526324833e-03  1.9271003801797672e-02 1.4415048002292241e-02 -4.2718752898782049e-04  1.7578754624715073e-02 1.6462113814236699e-02 -1.4543581931528069e-03  1.9057453309338904e-02 1.7073629365831882e-02 -1.1715349642645080e-03  1.9080192312913042e-02 1.4667094295191219e-02 -1.6287862089945106e-03  1.6584883349749148e-02 2.2096264109398415e-02 9.9670856348100904e-04  1.3532093178049058e-02 2.3073083239801295e-02 1.2076885487772031e-03  2.1603967182495885e-02 1.3047041200308605e-02 1.7778632545744080e-03  2.1164241088939977e-02 1.1120470642658918e-02 1.0301674222836484e-03  2.0710053848341528e-02 1.2089306878184608e-02 2.9355705007046923e-03  2.0085329534939127e-02 1.3024077987833293e-02 1.5610858236539714e-03  2.4756166311808468e-02 1.5780317847840161e-02 1.7115892991779753e-03  2.1736612542551069e-02 1.4166735836533911e-02 2.8690547092406825e-03  2.2093945086084706e-02 1.4553388812861756e-02 9.2645530789307797e-04  1.9754601481775304e-02 1.8565317272127707e-02 -1.8843296139212707e-03  1.7489087637433721e-02 1.9768381364788250e-02 -1.2191760259628499e-03  1.6861849963122684e-02 1.8779746742800248e-02 -1.9938974664297157e-03  2.5932600192926522e-02 1.7185088159593770e-02 -2.9440433829582475e-03  2.5060746798158146e-02 1.2096168732058585e-02 1.5554916586240065e-03  1.7841361687148925e-02 2.5735134332512500e-02 -2.8722381977515261e-03  1.2056094188414895e-02 2.6084368185406798e-02 -2.8916441921679700e-03  1.3614618016170692e-02 2.5371196191042354e-02 -1.7606560568708852e-03  1.3123912318442552e-02 2.9705217646087915e-02 -2.7474431628091499e-03  1.1685064252109750e-02 2.2558448256581275e-02 -1.8121876715383452e-03  1.2453995176312221e-02 2.0744785464395506e-02 -1.5614081281143549e-03  1.1522614630591033e-02 2.1349330333409654e-02 -3.0606331850148872e-03  1.3390607613101580e-02 2.0102228467170087e-02 -2.9837292509040892e-03  1.2462064587999994e-02 2.0781122601740636e-02 1.5421665417456687e-05  1.4289423467400567e-02 1.9483769707626074e-02 -1.2281860358482504e-03  2.2044165525924791e-02 2.1800450054070535e-02 2.8819921007969917e-03  1.7212394942872192e-02 2.1112882770619346e-02 2.9130873595488499e-03  1.6276637103988450e-02 2.3544645297868847e-02 2.9225236998485192e-03  1.8861495648994992e-02 2.0224418089003618e-02 1.8678741307003263e-03  1.8746272403742169e-02 1.8688999048233911e-02 8.8029937433060717e-04  2.0492382973317600e-02 1.9819326755923093e-02 1.6036617658030244e-04  3.2070136579881107e-02 1.1636255471533470e-02 1.6609780960353635e-03  3.4003099333994466e-02 1.8169728189086683e-02 2.6936391137610551e-03  2.6799236491615606e-02 1.7807570861441593e-02 2.8016572650556180e-03  2.8473341596060221e-02 1.1879552796026056e-02 2.8831086676095771e-03  1.8932094522480139e-02 3.4042498022854993e-02 2.5883819508256177e-03  2.6830116150771164e-02 1.9749770791956570e-02 1.7301176916517504e-03  9.3076699675832490e-03 2.4713830125441715e-02 -2.9242680140344258e-03  1.1272755484365710e-02 2.3249154212550707e-02 -2.9513774817171803e-03  2.9851054770023821e-02 7.3558725687386502e-03 9.1066595244564032e-04  3.1308386695916866e-02 1.2732111452274621e-02 -1.0637655256380420e-05  2.5372343440421229e-02 7.5482206919642685e-03 1.0955916118769880e-03  2.7928237617553218e-02 1.0148894143507621e-02 1.8024551330681254e-03  2.7017206696430186e-02 9.0602611668871031e-03 2.8846771722656696e-03  2.4724322819545883e-02 1.0152732632160778e-02 2.8597451488615055e-03  2.3834885053964933e-02 1.9449931008199025e-02 7.8447743224896666e-04  1.4608806072373878e-02 2.1109848846212819e-02 -1.6044989365329302e-03  2.2995825114246159e-02 1.0284193563784679e-02 1.7388593606351721e-03  2.3280671564091453e-02 1.0660947969691763e-02 4.8921131539638341e-04  1.4945250168818860e-02 1.8940425868190364e-02 2.9886265364977935e-03  1.5657320364529978e-02 3.5559590097304028e-02 1.5827118117425860e-03  1.6908522095269853e-02 3.4969757753692259e-02 2.4849031012247471e-04  3.2865167720041284e-02 2.0370456618860295e-02 -1.0971276480529234e-04  3.2338516198745060e-02 2.1356739890813090e-02 1.4085099832513146e-03  3.5649799105005417e-02 1.4889619875948125e-02 1.0070724455074525e-03  2.7485042181890219e-02 2.7167232031680116e-02 -1.4828442535023956e-03  1.5066340647566142e-02 2.0663625473587747e-02 -2.9656538138629019e-03  1.5226504458331980e-02 1.8822578866753252e-02 -3.0131672024682663e-03  9.8090348127352345e-03 2.4079350797975196e-02 1.5071498812448724e-03  1.2308456829566687e-02 2.5777451644113505e-02 1.7005762974068596e-03  1.2320668727949497e-02 3.6917869659273843e-02 2.8054862469293934e-03  2.4112735790370390e-02 9.7047689627735370e-03 -3.0220261175730565e-03  2.2507224107982265e-02 1.1172230459065206e-02 -2.0821423035101891e-03  2.2771636630517893e-02 1.2093722752796016e-02 -3.0269632615184802e-03  2.1852393335017369e-02 9.8704235725997642e-03 -3.0662227550636309e-03  8.1313318316665346e-03 2.4358165931030733e-02 -1.7493916752312326e-03  8.4060989099497031e-03 2.2687368819839078e-02 -1.6109340453885530e-03  7.4025203245448598e-03 2.3151138015934169e-02 -2.9739545265686073e-03  9.4537699897202995e-03 2.2310835935739768e-02 -2.9344419748583645e-03  2.5225556732758704e-02 2.1331208285291052e-02 2.8646828037449269e-03  9.0991394116684086e-03 2.4422322627281088e-02 -5.4923413233478116e-04  1.8125444871614532e-02 1.5771514433890976e-02 2.9446016927291876e-03  1.7372164026214842e-02 1.6567187790978280e-02 1.4985013548133935e-03  3.2435256964998826e-02 2.1550060577328205e-02 -1.2781886709340728e-03  3.0323286803698571e-02 2.4256933247715183e-02 -2.5265772614321007e-03  2.1589461410196388e-02 1.7766227618342446e-02 1.7390814640901439e-03  3.0202873159874712e-02 2.4376550560089288e-02 2.6808591976136050e-03  1.9953917783262266e-02 1.6259502071715528e-02 2.9047057516763748e-03  2.4423530570601773e-02 7.6734935710613709e-03 2.8748453095176459e-03  2.1014065125114369e-02 1.7269732041651047e-02 -2.9806293684864218e-03  2.0562625508355303e-02 1.9842647284126453e-02 -2.9317147440303948e-03  1.9881462388801015e-02 1.6070841870978538e-02 1.4400029572809515e-04  2.6023533865000094e-02 1.0275771432299003e-02 -1.4231230315819379e-03  2.3026895315148031e-02 1.2000018842278755e-02 -1.1637435518127852e-03  1.6684500462827163e-02 1.8935186621632395e-02 1.2842375638371512e-04  2.3914067983214427e-02 7.1396863837947470e-03 1.7975014332866667e-03  1.0442378978296491e-02 2.1836759398481335e-02 -1.3554436353853630e-03  2.2233979755636520e-02 8.8090699743484588e-03 -1.4560201191731981e-03  2.4030586425469576e-02 8.6819309011445418e-03 -1.6495268785993095e-03  1.1241959120688360e-02 2.1527254444532518e-02 3.0509126439958859e-03  1.0224601711362314e-02 2.1944629218819477e-02 1.6277394724910658e-03  2.4249097093178421e-02 7.7339221843826435e-03 -3.4225622028165607e-05  2.2925371646068005e-02 6.7912065913710885e-03 1.0071492109965492e-03  2.2100056735837675e-02 9.0036061720912622e-03 1.2990763111996376e-03  2.2120703418043754e-02 9.0056856494981300e-03 -9.4198120504871864e-05  2.7585018709383534e-02 2.7141722163062085e-02 4.5152875489927906e-05  9.6141400843309417e-03 2.6477766730477033e-02 -1.4119202587537340e-03  2.1327867554152512e-02 1.0863368462517271e-02 -1.6680544691907708e-03  2.3759560559453691e-02 1.5687950748211710e-02 2.8739643510452642e-03  1.9226381398944423e-02 1.8685979628785196e-02 2.8838294779321978e-03  1.9515546361734932e-02 1.3926833613525744e-02 2.8797946642082867e-03  1.3450724068605490e-02 2.2056709320170991e-02 -2.9787961396409578e-03  1.1883305582007559e-02 3.1257088466278837e-02 -1.5917433674476076e-03  1.1849535643171750e-02 3.0919042814160323e-02 1.5013165283446549e-04  2.0999926856443259e-02 1.4795251629103759e-02 -1.6206434379583668e-03  2.1172760079756828e-02 1.1200164214764755e-02 -1.9462829287036432e-04  2.1506051021477134e-02 1.3387162510695385e-02 -1.5770939212938012e-04  2.0111675186810188e-02 1.2999430032214276e-02 4.2113306418231676e-04  2.2981904176710356e-02 2.2718121026724918e-02 -2.8693899545097694e-03  2.0277764390585037e-02 1.2846348865651740e-02 -1.2180866131771390e-03  1.6069026680098880e-02 1.8003418968330232e-02 -8.1057105688618332e-04  1.7460448034661787e-02 1.6634747511829643e-02 -7.7076084562800561e-05  3.5494549838465651e-02 1.4851958568091607e-02 -9.7323826105927822e-04  1.6939238153438542e-02 1.9333021968485572e-02 2.9419625154371572e-03  2.8159315200175568e-02 1.2870208613424755e-02 -1.6742470251595912e-03  2.0900873037546834e-02 1.1927138515527234e-02 -3.0633323433835809e-03  1.8403003315996806e-02 1.5662146818787984e-02 -3.0579482494455575e-03  1.1184859319820949e-02 2.4569868820238518e-02 2.9359909403421881e-03  1.3461867420295372e-02 2.5560705316749151e-02 2.9972582699554942e-03  1.5059407775866517e-02 2.1348104391179422e-02 2.9347929129494160e-03  2.2540719274323131e-02 7.9708889530129019e-03 2.8915358157993415e-03  2.4940209066684149e-02 2.9623670424884275e-02 -2.9887777365810823e-03  2.1745305707091805e-02 1.0048677053146743e-02 2.9638256990717790e-03  3.4302873263479784e-02 1.8233964747372787e-02 -2.6603159529364380e-03  2.9760610942316273e-02 1.2340402369784811e-02 -2.8110813519197052e-03  1.8956201754494400e-02 1.7931929066337612e-02 -2.9863300171225596e-03  2.0455069195629779e-02 1.5661471599186107e-02 -2.9817239381908808e-03  1.8888061528068188e-02 1.4871897842789283e-02 1.2919958874948729e-03  2.6452872241385355e-02 1.0677352670780321e-02 -3.0288344214063506e-03  1.6864075150140285e-02 1.7281040405431186e-02 -3.0359895089727960e-03  1.5766629574651320e-02 2.1796926288615473e-02 -2.9274442214863279e-03  2.2474344933028325e-02 1.4585021558536361e-02 -2.9918704467738816e-03  1.0126588120176546e-02 2.1953293319161845e-02 3.8828659621236567e-04  8.3364893117946898e-03 2.2732215791254947e-02 -5.1275601184839635e-04  6.3127616768279418e-03 2.3451472871085909e-02 -1.0380509812364100e-03  1.6899120583454965e-02 1.9657042933458182e-02 -2.9795479730074658e-03  1.9546703515473506e-02 2.0822221093089024e-02 -1.0430719487576779e-03  2.1434098766851296e-02 1.3737891626422461e-02 -3.0198251577268982e-03  1.9722828028752123e-02 1.3820111449941762e-02 -3.0826792411098114e-03  6.4459533549757380e-03 2.3417243606060737e-02 1.6318887914833235e-04  8.1440445532478898e-03 2.2801790295595668e-02 1.1304558650247275e-03  9.1878200058485154e-03 2.2415318581125963e-02 3.0203914921605179e-03  3.2554921687323671e-02 1.0638086495810205e-02 -1.6779976332301572e-03  7.2887794420692818e-03 2.4766161774906908e-02 5.9576310191024535e-04  </DataArray> 
</PointData> 
</Piece>
</UnstructuredGrid>
</VTKFile>