<?xml version="1.0"?>
<VTKFile type="UnstructuredGrid"  version="0.1"  >
<UnstructuredGrid>
<Piece  NumberOfPoints="180" NumberOfCells="626">
<Points>
<DataArray  type="Float64"  NumberOfComponents="3"  format="ascii">-1.412883232192979 -0.498916897224404 0  -1.595864871923849 -0.7076981334402126 0  -1.424974064043019 -0.8180641451546321 0  -1.496133812848886 -0.6224620133938269 0.168029496722675  -1.073831515515874 -1.381296027576066 0.4703149899896178  -1.222912435612129 -1.211258208550986 0.5924324065281698  -0.9969898328475651 -1.363191667272982 0.7007929224873214  -0.9602840871252403 -1.119883154337391 0.5000000000000003  -1.512011392687988 -0.7917510345546442 0.2966161284015407  -1.82007427255317 -0.8171614684481319 0.2701477341636163  -1.623972487846827 -0.7834420794628646 0.5282118138501414  -1.683847711978677 -0.6637140041757016 0.3554943844166969  -1.34376490772025 -0.6629168230233793 0.5232079866624604  -1.540227286709983 -0.7594309578000181 0.7158969883666931  -1.486680182709609 -0.9357655947055598 0.5005733069352488  -1.325812149253608 -0.9556560748352179 0.692162030564986  -1.334552913091629 -1.215813856519444 0.3976467594449599  -1.415326496627902 -1.118270480731319 0.5860770877722016  -1.289838922750997 -0.9992737188619498 0.3584443832289749  -1.016378813307524 -1.085925806803902 0.7785250480141073  -1.319832932085968 -1.220158808863818 0.797553015984893  -1.04215606515532 -1.265258740361177 1  -1.224143446475008 -1.257655592102634 1  -0.4088784021612257 -0.9098780294493575 0  -0.5229419073512893 -1.071131864134972 0.1858598554011229  -0.2291981602613921 -0.9704387807865139 0  -0.3199640933144202 -0.9429052360103518 0.2421718464526027  -0.8300753132502592 -1.509513793106689 1  -0.9480652577231136 -1.538949907681568 0.8061489537317872  -1.038889265765676 -1.701558295737102 1  -0.9927400037819177 -1.469592821760114 1  -1.828344611031377 -0.8016887534344467 0.501479594258776  -1.736582952516703 -0.973362741762956 0.6816999714220926  -1.828344611031377 -0.801688753434447 0.7315233149267526  -1.311232433775281 -0.5655346387499858 0.2575624298059242  -1.115114617145163 -0.4774046250283511 0.183365501259989  -1.155897705984207 -0.6056548263397348 0  -1.025812920413763 -0.6511834817819452 0.1439798677502316  -1.029314058751751 -1.277283305743657 0  -1.178992651785597 -1.60725437485166 0  -0.814899804420075 -1.518363461454386 0  -1.064430939898313 -1.438297828212334 0.1876351619911193  -1.100293793730394 -1.440233234786469 0.8308817755846929  -1.409648970501671 -1.417959626110762 0.7315592004692577  -1.259072795543131 -1.541534299303341 0.681542773860404  -1.337314418527182 -1.477323058760319 1  -1.252030506876232 -1.547313756251158 0.4762918344255788  -1.409648970501671 -1.417959626110762 0.5014885213334912  -0.4956491309591998 -1.563380666785781 0  -0.6869697439873288 -1.871540571604282 0  -0.7580030332512193 -1.620602597475575 0.200800306043187  -1.14427663396646 -0.9784691238319053 0.5430642805458707  -1.149350747726731 -1.254278997813574 0.2766244916622759  -1.460269210528559 -0.997142497751212 1  -1.536047625067858 -0.9519929514599034 0.8052694561656402  -1.588692758267181 -1.201610047034396 1  -1.696041285575386 -1.049210865804753 1  -0.9276927122636932 -1.18966297302634 0.2221042075729678  -0.8872796870605097 -1.4002985370975 0.3147842555428691  -1.288568259440269 -0.805512686298428 0.2258674758772604  -1.225520025366661 -0.794093745484538 0  -0.8818497861445191 -0.4613155571981952 0.7311394935597686  -0.8370702135273155 -0.5450922451011507 1  -1.027492750785988 -0.6524847028891798 0.8199378413995048  -0.7786461866372218 -0.6199357634264332 0.8011130297803182  -1.575027654417853 -0.4272778672614745 0.3583387676772505  -0.8639445355284535 -0.8583291060170649 0.8054362079504707  -0.6681267201658774 -1.099552128393463 0.6661740090429282  -0.6715769074605573 -0.9935685522856664 0.8357754955456658  -1.4222824581895 -1.084590503732421 0.1953208450696405  -1.63681176493991 -1.142976867755885 0.3120733790262914  -1.539885573357767 -1.261081773920541 0.4764827457208107  -1.647982157896459 -1.129365704556127 0.5912151627944675  -1.432341127333238 -0.8020961674110092 1  -1.285361083627857 -0.7056318215590633 0.7820307561532949  -1.395988323856173 -1.429170629081726 0.2701485651502452  -1.229384016800246 -0.8172292866491174 0.4411307233346597  -1.562107303025337 -0.8714576333881834 1  -0.6473028356127737 -0.7561866109268153 0.3046988722058142  -0.6622625981428886 -0.9674380054790881 0.1667270624174167  -0.4925509432611309 -0.8651541244581579 0.2340519535717435  -0.5864317813477913 -1.00499243216721 0.3747039238690006  -0.8561474899215658 -1.001364049625688 1  -0.8234030488632201 -1.227864263700687 0.7971660546693747  -0.6240956319681428 -1.097419055583654 1  -1.895141120398549 -0.6091691611241368 0.4773268319077155  -0.7019581915565072 -1.428580415300582 0.6030955109277132  -0.7677466476962631 -1.430304235837895 0.8149664493944945  -1.732293608121397 -0.981387540699419 0.4766342653695815  -1.136023885573776 -0.9739462810986533 0  -1.312143823607195 -1.118484178884738 0  -1.214077727804358 -1.08067869725745 0.1803917315920848  -0.2895078849523348 -0.9521440258122447 0.5362539270910905  -0.4925509432611309 -0.8651541244581579 0.5  -0.8003104928752021 -0.9034212800942407 0.5276102543982508  -1.031197119573864 -0.7966433949198815 0.6423524737321922  -0.9903393271760718 -0.7893858577995121 0  -1.041556514867787 -0.9879428034616119 0.2526681143367585  -1.521721023277034 -1.283215342234634 0.2410338395570504  -0.865384944162939 -0.8553394389184948 0.1720783019779129  -0.7184124931061813 -0.6933307313531918 0  -0.8515368795528185 -0.9959513296075999 0  -1.247013422168451 -1.551431171262626 0.2410943834276965  -1.105932760739789 -1.665722801080378 0.3119391242858136  -0.945887529797514 -1.75126875927484 0.2410674713138804  -1.581662913688258 -0.9018160801693318 0.1602142017296592  -1.687422812760598 -0.5289845451979994 0.1787939533334902  -1.912308868601495 -0.5525746798567313 0  -1.857951139271877 -0.7317680986975303 0  -1.886844210104414 -0.636520408863094 0.2410868471557569  -0.7773345907527112 -1.628786731198925 0.6526384974201469  -0.9654368394123369 -1.740819435585567 0.4637035560543035  -0.9481983015956591 -1.526869931125131 0.5686233152649492  -0.9632662672522199 -1.741979630576535 0.6815427738604043  -0.87374366514047 -1.789830458324557 1  -1.729293316485563 -0.9870006915470573 0.2409605973021356  -1.687765770332812 -1.064693265863366 0  -0.8551724930659974 -1.190489734935458 0  -0.7071448212676967 -1.316768067261704 0  -0.6247867466263319 -1.098639338212029 0  -0.7238313813679086 -1.185068705398414 0.1631518420404129  -1.023406865707063 -1.709833810979676 0  -0.9897573047550841 -0.8823754244453341 0.4310666916709433  -0.7588352083306384 -0.6440755103383521 0.4625780124890055  -0.7757759682717937 -1.842195283264316 0.4985126599772499  -0.7840616717201718 -1.583902828399041 0.4377923672640045  -1.322923833929898 -1.104620792539591 1  -0.7219618228038823 -1.307247678942268 1  -0.6473028356127738 -0.7561866109268152 0.6953011277941858  -0.7184124931061813 -0.6933307313531918 1  -1.534091637551517 -1.268141705127494 0.6816999714220948  -1.469898412126526 -1.346361376626702 1  -1.155280858039766 -0.8775855316856152 0.8000382702498052  -1.93944788191584 -0.4631093427328397 0.312468973614769  -1.136279175487017 -1.379948082139655 1  -1.192563088934876 -1.596117404900973 1  -1.389282245793132 -0.390104725039531 0.1762849063852214  -0.9735201934283557 -0.6570251083210682 0.4872795627034311  -0.7820125957907885 -0.6158337820042405 0.6573822497979197  -1.150536973579396 -0.480913571459282 0.4660449197857321  -0.8818497861445193 -0.4613155571981951 0.2688605064402313  -1.086061906529874 -0.729431175999589 0.3171054587016006  -1.146386478336709 -0.9597403290152839 1  -1.161618529882714 -0.6086679473328844 1  -0.7760330678762961 -1.024059073548987 0.2866398217060592  -0.573938299464078 -0.8163953297430323 1  -0.7625848589994415 -1.249272832911995 0.4545509433042903  -1.577555788316494 -1.215180484183675 0  -1.329969763722953 -1.258164074353386 0.1990057211837501  -1.45876144217584 -1.359931813775981 0  -0.9888459432127936 -0.7881904763484712 1  -0.4925834195271322 -1.072587773108498 0.7942257610232533  -0.8370702135273155 -0.5450922451011507 0  -0.7758641285073432 -0.623325711066081 0.2407365067161483  -0.8582612650818566 -1.798105973567131 0  -0.775775968271794 -1.842195283264316 0.2684499835474483  -1.120264121600167 -1.655451633991383 0.5909860504971736  -1.120264121600167 -1.655451633991383 0.7720994972236346  -0.573938299464078 -0.8163953297430323 0  -1.78431344816284 -0.8840652651795469 1  -0.4088784021612257 -0.9098780294493575 1  -0.4973685655474065 -0.8625790516973388 0.7595504241117759  -1.323743981377903 -1.488460028711005 0  -0.4224459877560165 -1.246963081678484 0  -0.5391031786369436 -1.386651023185445 0  -0.670056525276606 -1.377886873936386 0.2250212001955873  -1.963291281964381 -0.3727098689263351 0  -1.64798215789646 -1.129365704556126 0.7721847800497199  -1.209935812895535 -0.3819042831015633 0  -0.8818497861445191 -0.4613155571981953 0.5  -0.9482005564984586 -0.3025077610903928 0.2301063922394252  -1.776037932920266 -0.89954766523816 0  -1.650217386037167 -0.3811273884986385 0  -1.146979132093379 -0.6111977257244187 0.6415714464460128  -0.5521062382202796 -1.211666613348794 0.3442023460192692  -0.4792183519131534 -1.094876157717112 0.5312084515566817  -0.3199640933144202 -0.9429052360103518 0.7578281535473974  -0.9256039491140714 -0.3769987926575506 0  -0.7107840783041939 -0.9868412936944161 0  -0.7913424350245954 -1.833874833437536 0.7298481380810278  </DataArray>
</Points>
<Cells>
[...]
<PointData  Vectors="f_18"> 
<DataArray  type="Float64"  Name="f_18"  NumberOfComponents="3" format="ascii">-5.4518864245889087e-02 -1.8631434375720051e-02 6.0738600493848698e-03  -4.8117275809832202e-02 -2.0686554276184644e-02 6.1792348469988040e-03  -4.7332499056974155e-02 -2.6519233414631187e-02 6.1925894235178511e-03  -5.0716600098720581e-02 -2.0574612727124450e-02 4.1962038449008983e-03  -3.2324895179826903e-02 -4.0884382854947096e-02 4.4538072369077419e-04  -3.7602861414757160e-02 -3.6679776692718630e-02 -9.1921759897861731e-04  -3.1660258616276152e-02 -4.2820002798661994e-02 -2.2924394213390581e-03  -3.7950200342362149e-02 -4.3858428219882152e-02 1.6924495545143491e-04  -4.7112271201321457e-02 -2.4060113250036163e-02 2.6861023170580041e-03  -4.4701829903384338e-02 -1.9606794889825425e-02 3.0525664918602748e-03  -4.6409881971703301e-02 -2.1850737475400561e-02 -9.1890957211153239e-05  -4.7940646838079706e-02 -1.8317249912714301e-02 2.0552802823994320e-03  -5.1924540735091403e-02 -2.5090541826357973e-02 1.6326330965972414e-05  -4.7588653917021100e-02 -2.2929932040897331e-02 -2.3116938281657440e-03  -4.4294406143691921e-02 -2.7349427268925419e-02 1.7304680493106800e-04  -4.4314718387236142e-02 -3.1425098123378507e-02 -2.0856827148225420e-03  -3.8145684026836851e-02 -3.4128935105244007e-02 1.4414025067798122e-03  -4.0455959531261118e-02 -3.1414653645311333e-02 -8.4573342019852473e-04  -4.3258735475121608e-02 -3.2949757293027231e-02 1.8410732801522258e-03  -3.9777840110421923e-02 -4.1896782850994074e-02 -2.9703912647826647e-03  -3.7995163604923471e-02 -3.4534960150198656e-02 -3.3876533935645603e-03  -3.4750720447855488e-02 -4.1754825335747779e-02 -5.6598565449894828e-03  -3.6601060667198961e-02 -3.7115713196914500e-02 -5.8467872092977614e-03  -3.1901342113120013e-02 -7.0651907126791397e-02 5.9335401236113488e-03  -2.9984887777924435e-02 -6.0821598300454610e-02 3.8399842652851613e-03  -1.8026654350100386e-02 -7.5792994634087035e-02 5.2655350194595494e-03  -2.5029466810659966e-02 -7.3235673842584059e-02 3.2203711690704600e-03  -2.5616534852648590e-02 -4.6120366837066044e-02 -5.8454108114086925e-03  -2.7078184899929161e-02 -4.3479416956850682e-02 -3.5851414582405909e-03  -2.5726383109692084e-02 -4.1465445397970868e-02 -6.0557157567598238e-03  -2.9205544182075938e-02 -4.2829843183604395e-02 -5.8825803463156820e-03  -4.4719378797103096e-02 -1.9090270881068901e-02 2.8297931921828656e-04  -4.2745033657005098e-02 -2.3416581021047767e-02 -1.9621943080600983e-03  -4.4721258307744198e-02 -1.9152310912607533e-02 -2.4717172182741115e-03  -5.4799091843265119e-02 -2.3015293675135679e-02 3.0539449181318386e-03  -6.1881781190613723e-02 -2.5950159918668704e-02 4.0118694077553802e-03  -5.6490672844865718e-02 -2.8911616756600908e-02 5.8887735913605854e-03  -5.6746757564706804e-02 -3.5358554623238170e-02 4.2551446452322172e-03  -3.4330869559782096e-02 -4.1808650355458644e-02 6.0376189167397976e-03  -2.9116024207354572e-02 -3.8820018312326100e-02 6.0247946915674465e-03  -2.5289822838309130e-02 -4.6022307313690974e-02 5.9665987091154452e-03  -3.0953203598270761e-02 -4.1004883378061276e-02 3.8132884226857386e-03  -3.1286976780371199e-02 -4.0399096386190395e-02 -3.8417363284806777e-03  -3.4473933109362365e-02 -3.4144630987488288e-02 -2.6633650815789116e-03  -3.0978880998992049e-02 -3.7434378395797621e-02 -2.1487464107565139e-03  -3.3034746048322655e-02 -3.5882343555760435e-02 -5.8767197834826241e-03  -3.0909407897610850e-02 -3.7478316941027788e-02 3.7096006073877527e-04  -3.4504431064317401e-02 -3.4110405701064377e-02 1.2584436662854063e-04  -1.6551100606621329e-02 -5.1485805489929606e-02 5.8285536069532951e-03  -1.7199256686877159e-02 -4.5459025755053499e-02 5.9396456023183154e-03  -2.2051688392402933e-02 -4.6267361059019359e-02 3.5966333152224338e-03  -4.3781085716032633e-02 -3.6886884162369515e-02 -2.8166360275852753e-04  -3.6080485688674252e-02 -3.8701902014918299e-02 2.8055142089709133e-03  -4.3083179970646597e-02 -2.9010992792068081e-02 -5.6841941918795123e-03  -4.3779957873470061e-02 -2.6650393537472464e-02 -3.3929398098497452e-03  -3.9117716384575833e-02 -2.9121198710026698e-02 -5.7506164877416700e-03  -4.1639706517927540e-02 -2.5306217680934009e-02 -5.8082440314495597e-03  -3.5467646127903041e-02 -4.4745745106775481e-02 3.2985851729744591e-03  -2.9052241415128181e-02 -4.5150120926608264e-02 2.2229380644649371e-03  -4.8500435404569830e-02 -2.9747207613346920e-02 3.4083289194003024e-03  -4.9444984475489742e-02 -3.1319996193107651e-02 6.0752520090898970e-03  -6.9449154636258212e-02 -3.5640770953166069e-02 -2.4809173669489569e-03  -6.4965235090424206e-02 -4.1732762948633581e-02 -6.2447578748592815e-03  -5.6558939153419169e-02 -3.5492286228103936e-02 -3.4059605439203332e-03  -6.0958946685027264e-02 -4.8395643661436234e-02 -3.3638344029561771e-03  -5.2836852299315569e-02 -1.3680719113431983e-02 2.0195067199270649e-03  -4.7601636016754524e-02 -4.6889521882452233e-02 -3.2872134335597820e-03  -3.3398135193806716e-02 -5.4556903132259194e-02 -1.8277860684635778e-03  -3.8024398822627335e-02 -5.5880420581998533e-02 -3.6401182897816747e-03  -4.1168439787036840e-02 -3.0836615186098253e-02 3.7888386124845298e-03  -4.0139125227193845e-02 -2.7416886655530166e-02 2.4939767968714800e-03  -3.7916526328631489e-02 -3.0454784519993779e-02 4.8052107001928912e-04  -4.0341170786782357e-02 -2.7106373585781648e-02 -8.7176614847520777e-04  -4.7566639185944705e-02 -2.6051601129761202e-02 -5.6355656287252589e-03  -5.1426639890826985e-02 -2.7757740494721177e-02 -2.9400100032503044e-03  -3.4231550626179413e-02 -3.4397368211435249e-02 2.9169288978193914e-03  -4.8540818713391720e-02 -3.1724023858032101e-02 9.2664747899696986e-04  -4.5220055606930099e-02 -2.4767105941261896e-02 -5.6790749824452529e-03  -5.0980263519719793e-02 -5.8608493257587421e-02 2.4450783625734815e-03  -3.9011941168640922e-02 -5.6357413508761153e-02 4.0722854087974587e-03  -3.8746350947937408e-02 -6.7833306955741926e-02 3.4735988602406262e-03  -3.4968379429294323e-02 -5.9371214307311501e-02 1.6789649073608165e-03  -4.1245933029879257e-02 -4.7787551426193141e-02 -5.5162635454763980e-03  -3.2621808276808981e-02 -4.8001885152176876e-02 -3.3368635401513852e-03  -3.2341143677985761e-02 -5.6478684807638881e-02 -5.5312567057981005e-03  -4.6672025489704151e-02 -1.4482907821122121e-02 6.1865798631213504e-04  -2.4648296020950058e-02 -4.9447361696815156e-02 -1.1517700135752933e-03  -2.6100293143787329e-02 -4.7946554319068725e-02 -3.5857634995477379e-03  -4.2556003974564625e-02 -2.3602907911173799e-02 4.9570219327240935e-04  -4.3999741941719496e-02 -3.7086024178191769e-02 5.9972147794144174e-03  -4.0320094669496334e-02 -3.3678190749041569e-02 6.0382712714174402e-03  -4.0875528631850087e-02 -3.5836591054692168e-02 3.8835593146297983e-03  -2.2530566874035908e-02 -7.4604578895018162e-02 -6.3708948812012052e-05  -3.8893153127428567e-02 -6.7503228359616904e-02 1.1230493769379918e-04  -4.4873904041163190e-02 -5.0134295095516500e-02 -9.8738700146449392e-05  -5.0509877744808251e-02 -3.8420473157053867e-02 -1.3899764158863469e-03  -5.1061034134955156e-02 -3.9913929228776672e-02 5.9435475328585372e-03  -4.3175832743870546e-02 -4.0289156673072132e-02 2.9807088342678049e-03  -3.7519755034151503e-02 -3.0928936173396024e-02 3.3073741839827558e-03  -4.7756663498282739e-02 -4.6609458328810971e-02 3.9004033408482869e-03  -5.6142524813347264e-02 -5.3766644787473922e-02 6.1656427137674625e-03  -4.1326040526288244e-02 -4.7642157524567255e-02 5.8183689180613526e-03  -3.0721986068580419e-02 -3.7528178967699409e-02 3.2389307423640206e-03  -2.7158427051703155e-02 -4.0110013931967926e-02 2.2773137582020788e-03  -2.3534939110321902e-02 -4.2451811508065068e-02 3.1074522855568084e-03  -4.4537765610204512e-02 -2.4792400250692667e-02 4.3512657484943359e-03  -4.9798034633032104e-02 -1.5130890540715152e-02 4.1121374933179699e-03  -4.7216966817046443e-02 -1.3028732092154636e-02 6.3843759512585150e-03  -4.5609378281399375e-02 -1.7424246682286149e-02 6.3179215983847799e-03  -4.6429983257540150e-02 -1.5172019622710234e-02 3.3941881809398350e-03  -2.2364754609871289e-02 -4.6030798266023187e-02 -1.7517826265704126e-03  -2.3891179075388454e-02 -4.2263786600180819e-02 3.8000590733778275e-04  -2.7366699362064793e-02 -4.3375785388449904e-02 -8.1229633107601546e-04  -2.3917162265936345e-02 -4.2399359931245835e-02 -2.2153927293375119e-03  -2.1673947701339628e-02 -4.3751957908685087e-02 -6.0124212897945742e-03  -4.2498949954906308e-02 -2.3692394240079993e-02 3.3500167948475306e-03  -4.1424829187847345e-02 -2.5473682071942585e-02 6.1945173253705179e-03  -3.4340038698513521e-02 -4.6991035293451444e-02 5.8264908342425285e-03  -2.7662857985576359e-02 -5.0555610124430168e-02 5.8519961629919107e-03  -3.2186726810403000e-02 -5.6209205578186761e-02 5.7462788567233429e-03  -3.1923985502024910e-02 -5.1393769026502410e-02 3.9660920887367333e-03  -2.5376628336642258e-02 -4.1412375150688067e-02 6.0282480305722877e-03  -4.7041125805905068e-02 -4.1356469783783718e-02 9.2623957877228697e-04  -5.9467227608583480e-02 -5.0274860659910790e-02 7.2318924846403597e-04  -1.9186319185779763e-02 -4.4596805456251352e-02 2.7238994239573174e-05  -2.3294935160619409e-02 -4.6244312527488958e-02 7.4587063996154799e-04  -4.0618827600585612e-02 -3.3572906936425874e-02 -5.7179468400563125e-03  -2.8083220118087469e-02 -5.0430970667533277e-02 -5.7043359564143119e-03  -5.0775536415614178e-02 -5.8800364900748303e-02 -2.1922218313729465e-03  -5.5837892398544677e-02 -5.3716852507137335e-02 -5.5899144805646953e-03  -3.7732721908123351e-02 -3.0669089136190857e-02 -1.9740616877005840e-03  -3.6154499642542560e-02 -3.2634376499539437e-02 -5.9410175138777136e-03  -4.7131360095040348e-02 -3.5325669821883447e-02 -3.2749680090331012e-03  -4.7705973960050663e-02 -1.0911548246866959e-02 2.5922880816146745e-03  -3.3020811905327352e-02 -3.9661643047400351e-02 -5.8454169615157082e-03  -2.9482656496201503e-02 -3.8892634164030375e-02 -6.0377492560617172e-03  -5.7114306487169489e-02 -1.5495566588245925e-02 4.0274516438855061e-03  -5.7105860403382981e-02 -3.8032995814395364e-02 3.8019744017175807e-04  -6.1471369293748891e-02 -4.7827273464450037e-02 -1.4210486430014017e-03  -6.0841392948646739e-02 -2.4853277927174046e-02 6.0306860909273036e-04  -6.9038766327664661e-02 -3.5781804646743492e-02 3.0552370537611541e-03  -5.2786969571723769e-02 -3.4907538129816097e-02 2.3760426169362665e-03  -4.4481057799811985e-02 -3.6810383106941867e-02 -5.6740047660003862e-03  -5.6321736277960339e-02 -2.9007591795171605e-02 -5.4164306508233742e-03  -3.9070326770582677e-02 -5.0718020960795487e-02 2.5849459679421305e-03  -4.5049753317934434e-02 -6.3645631745867057e-02 -5.2610378364858759e-03  -3.0660643133750810e-02 -4.9636818299494685e-02 6.1209941052450464e-04  -3.8899123547559630e-02 -2.9258092199421583e-02 6.2323768620621417e-03  -3.7173826206986768e-02 -3.4454499102508092e-02 3.7617116091834429e-03  -3.5985239706560423e-02 -3.2805395863456932e-02 6.2224345752101102e-03  -5.1052946419282104e-02 -4.0124155073018697e-02 -5.4218523171267298e-03  -2.8750429370409780e-02 -6.1920966035798095e-02 -3.3058761598247911e-03  -6.5450425117774394e-02 -4.1813184189492862e-02 6.5895876258368737e-03  -6.1024440398455372e-02 -4.8291166890907712e-02 3.4691848325516090e-03  -2.1350727148607637e-02 -4.3593205698395913e-02 6.0604319444213274e-03  -1.9245629632089194e-02 -4.4556083818201482e-02 2.7664217880896962e-03  -2.7573256662534906e-02 -3.9922693280262399e-02 -1.0589877228376825e-03  -2.7549422806209551e-02 -3.9960647268674612e-02 -3.2739552471449940e-03  -4.4907199220260423e-02 -6.3361156216840783e-02 5.6698109496540758e-03  -4.3971879516227712e-02 -2.1226931358649625e-02 -5.7194244598282222e-03  -3.1999831640345706e-02 -7.1485500552622344e-02 -4.7703778180250888e-03  -3.9201293543881098e-02 -6.7332156186694025e-02 -3.0468998637206905e-03  -3.2727524129180778e-02 -3.6067199506521611e-02 6.1510882534040294e-03  -2.0429727561176163e-02 -5.9400983776833879e-02 5.7766984512630706e-03  -2.1142667804172850e-02 -5.3603451504937533e-02 5.7512918583043282e-03  -2.4917401384959112e-02 -5.0683500524654521e-02 3.2190723148284002e-03  -4.8219231715299564e-02 -8.6048290507929042e-03 6.3492715195932730e-03  -4.0418804289566110e-02 -2.7102489384689090e-02 -3.0756351459820695e-03  -6.2179495963302925e-02 -1.8983699863427964e-02 5.9623544479889970e-03  -6.9075240605326327e-02 -3.5623341481000555e-02 3.4853847924882803e-04  -7.4437976553805518e-02 -2.2952719263548600e-02 3.6191643984270620e-03  -4.3757959676077540e-02 -2.1578873122955099e-02 6.3260339202740271e-03  -5.2240620456692213e-02 -1.1539053177413766e-02 6.2026058747915178e-03  -5.6525026277701597e-02 -2.9483904416068501e-02 -1.3890107696691825e-03  -2.5996311522332165e-02 -5.6647789703980440e-02 1.8566164178196094e-03  -2.7278516659546895e-02 -6.1834094089756174e-02 -2.3685247097643273e-04  -2.4925659868165650e-02 -7.3760052247803881e-02 -2.9209582054824492e-03  -7.2048392490645416e-02 -2.8603516244572785e-02 6.4040805118299911e-03  -3.9174342529694137e-02 -5.3764834221914033e-02 5.8702190160978013e-03  -1.9563801248473778e-02 -4.4487393554126939e-02 -2.8184381266582771e-03  </DataArray> 
</PointData> 
</Piece>
</UnstructuredGrid>
</VTKFile>