<?xml version="1.0"?>
<VTKFile type="UnstructuredGrid"  version="0.1"  >
<UnstructuredGrid>
<Piece  NumberOfPoints="187" NumberOfCells="659">
<Points>
<DataArray  type="Float64"  NumberOfComponents="3"  format="ascii">1.103193596384578 0.3504086635323349 0.7926247744809052  1.167609977272698 0.4754420500101144 1  0.9531946147586513 0.2860445573368379 1  1.298466289634289 0.2582810036338386 1  1.334629349047023 0.1545402339819274 0.6080677862736639  1.481952171293317 0.069454883228632 0.4891924348618718  1.292228821875236 0.3076565757391458 0.3322186037030394  1.499512864842357 0.3016748379228968 0.4450803538138309  1.059531587242102 -0.5973251627738123 0.226746809598138  1.234689442690562 -0.4855157749746795 0  1.12700915308356 -0.3265270678978057 0.1991237339620514  1.228727303117767 -0.459331046989373 0.3236051145881703  1.304637174418844 -0.7075626243921807 0.5186954339142219  1.054700059797406 -0.6058616406515142 0.4895215437898623  1.29264339957742 -0.7108631639275693 0.248925098563288  1.438290730876674 -0.4534288042395038 0.1837168804337665  1.519369205000765 -0.6057271090750227 0  1.685940558953262 -0.4500196176801594 0.2303894085313369  1.548728803732611 -0.6572481953988726 0.3158315927164428  1.183651748105934 -0.0883654662417532 0.1686858213653584  1.475518248201104 -0.03253804452700697 0.1856409670857923  1.244700343070279 0.08518987797507366 0.2297974176709325  1.302253607553284 -0.1432650666920791 0.3118732805312475  1.404571026518731 -0.5037511239056995 0.5348683201513614  1.691569412576089 -0.5609133899741244 0.4730081079198554  1.639622120442623 -0.7656643535348759 0.5754969080455435  1.460188519029665 -0.1629806199680669 0.5487051496768689  1.300998876090121 -0.06620015533026624 0.701459469341089  1.273734645489973 -0.3733223405901023 0.6677503680638732  1.462819035581377 -0.247240831275101 0.7930628205732373  1.670473167333107 -0.1571316353029762 0.6661267788475292  1.979883779915309 -0.2042434100745073 0.712108154714385  1.818614516256198 -0.02030257729722755 0.8224734275766558  1.718772121177439 -0.3866834318575563 0.7667746127709867  1.677712194062701 -0.09696593309475177 0.3004554327500731  1.692680460452608 0.5205670870368633 0.4884510932914654  1.917169598334859 0.5365510013527777 0.5234405719839987  1.863111706926676 0.7147559870323206 0.7298487012854733  1.917475790756809 0.5355416202106846 0.7116028463733042  1.465303716475479 0.1555907954635532 0.7693066961510502  1.492196561710194 -0.008262575110031561 1  1.260567092565374 0.007573152124507587 1  1.695334600029578 0.4618342482922941 1  1.769735857858306 0.3884762685421728 0.7884801425292696  1.890226041061335 0.6253720062608139 1  1.944583770390953 0.4461785874200146 1  1.596035538136801 -0.6475556862479659 1  1.647316553768361 -0.730739989356719 0.8042598622939813  1.68486642811149 -0.4847299792061015 1  1.880033966812036 -0.6589707722934499 1  1.589046394326455 0.1734990304878107 0.2392673584508079  1.590138388628021 0.4593370694758154 0.2945152002274293  1.75161262238811 -0.3424365565861829 0.5282437615390115  1.963304819553189 -0.3725724194805271 0.4090317868572118  1.914590748157589 -0.5450523310742783 0.3184745400471098  0.9812655729033243 0.1902138304267845 0.7574987250233383  1.215050768910942 0.1386989957370904 0.8003094172228006  0.9901015080865125 0.1005010749780065 1  1.464528240804089 -0.2828999629988727 0  1.534419107269049 -0.249970942395027 0.2134224265406987  1.633398862698542 4.551914400963142e-15 0  1.74700851512454 -0.1466881081279602 0  1.972468461473286 -0.2795324016947447 0  1.990822820491096 -0.09317746723157688 0  1.77461743563473 -0.2526246580210096 0.1862321566955051  1.98001051630629 0.2029566339025678 0.5236088117471787  1.760989227500415 -0.00528833666817291 0.5050452009358164  1.980906185775178 0.1938627491739629 0.3183348412008982  1.999999999999999 6.562936821510024e-15 0.4985104204901593  0.9851205740732167 -0.1510733467044346 0.5353394748175133  1.179472118936147 -0.275639623696938 0.4699018881232729  0.9994124437091498 0.005965559133313763 0.3049757398701156  1.211266277324824 0.05376660925060736 0.4750222709998441  1.722788334576396 0.2269019344391441 0.4623229700254903  1.532068162910535 -0.3538891104669777 0.4205296918786089  1.464362911603639 0.2828702393186497 0  1.691255191910918 0.3236620266614035 0  1.235813838380573 0.2458186562328234 0  1.099182398949108 0.3880552209149545 0.1957914270122534  0.9801620048072415 0.1971449862985168 0.2440297745786687  1.098809470646287 0.4309227919496545 0.4970820672189703  0.9807852804032302 0.1950903220161293 0.5  0.9994124437091498 0.005965559133313836 0.6950242601298845  1.761211515941985 0.3028647779885489 0.2630824387328117  1.91452828856335 0.5452582327623938 0.3183348412008885  1.963304819553187 0.3725724194805456 0.4088381320164703  1.315813659229962 0.4642700054059137 0.190741969146883  1.972468461473285 0.2795324016947586 0  1.963304819553187 0.3725724194805407 0.2278315503853166  1.60847672517662 0.2976949531213646 1  1.758219163862446 0.5058320789461144 0.1873275422099707  1.464759749160692 -0.2279365418393593 1  1.60218884797417 -0.3186951767398252 1  1.396392869618368 -0.3890520924672942 1  1.939487733266301 0.4629779704363389 0  1.417000388060469 -0.4785679949273929 0.7990159217257774  1.57182247208157 -0.573028538950262 0.6727634197640624  1.965032792437917 0.3550280163567101 0.6879528036207221  1.551045726738103 -0.3625086508181027 0.6344933565110418  1.270372303020529 0.3399894720193283 0.6755547641879112  1.602160287285755 0.3797090771718592 0.6428539477659331  1.374638822880307 -0.7269623812337992 0.7816877154595647  1.741278588091689 0.126947386673496 0.7075978800613815  1.998265741253273 -0.01760822455171618 0.729856113257398  0.9566434479642242 -0.2746752779217476 1  1.15960963244366 -0.133784674508656 0.813768916263945  0.9819596813949061 -0.1831664286442689 0.7574312328675253  0.991266036546923 -0.08867741909823949 1  0.9275246612083399 -0.3706670534361827 0.7592026267743015  1.083789219068689 -0.4208873855954158 0.843718620744255  1.651706286231434 -0.492963913758677 0  1.69133149318951 -0.3236757444728861 0  1.6011203483499 -0.009784525300421199 0.8111175192995834  1.722264110875199 -0.01251126431956822 1  1.742111332403817 -0.1969314331959243 1  1.915304617909812 -0.5426990178824754 0.5362464328982399  1.961570560806462 -0.3901806440322502 0.6880758838225918  1.992543541649014 0.07570669212566944 1  1.989102099333176 -0.1106482423374983 1  1.980906734726085 -0.1938571755818702 0.3184745400471098  1.999999999999999 7.030017234740516e-15 0.2684303249375376  1.472680754612366 -0.8169236440154841 0.189840841356636  1.575155775830446 -0.7921739152598291 0  1.684658001812216 -0.707206143290794 0.1871133687462477  1.885130003936687 -0.6421713892771256 0  1.939487733266305 -0.4629779704363262 0  0.9901015080865125 0.1005010749780065 0  0.9531946147586513 0.2860445573368379 0  1.110028565937067 -0.5800778232130865 0.7539770568553924  0.9290934823066148 -0.3654953433663091 0.5  0.9256196219250848 0.3769471263237471 0.6950242601298844  1.769613665775187 0.05997591630620478 0.1684085184033754  1.970747740315366 -0.2970031768006661 1  1.764178512674736 -0.9217350799576589 0.681768998400603  1.852895194671704 -0.7484353143731675 0.5014860358011748  1.852895194671704 -0.7484353143731672 0.7315421186961406  1.820174014213996 -0.8169748649255524 0  1.858012708296992 -0.7315651328223709 0.270153780587444  1.990822820491094 0.0931774672315908 0  1.742593188394772 0.1709180888880761 1  1.731901851626541 -0.9821204655507586 0  1.421858507630868 0.5458021515535201 0.7388856714641274  1.441408417263395 0.372870218740492 1  1.211168023066412 0.540194530300085 0.7960425385136159  1.300711656090317 -0.2425005443680098 1  1.811898498971423 -0.8324572649841648 1  1.980013336132633 -0.2029280037252451 0.5237366283853655  1.354488390167804 -0.10560864479399 1  1.661746245061362 0.5816837277146546 0.7663103395431662  1.094939503450844 -0.5311189597851912 0  1.357588177110721 0.6051791325630997 0.4890122966951662  1.908887973030375 -0.5638518612336261 0.7589171845960132  1.934391696141654 -0.4797773534526505 1  1.974189182631204 0.2620616265888372 1  1.963304819553189 -0.372572419480527 0.2279172932370081  0.991266036546923 -0.08867741909823949 0  1.675712442972969 0.5076096835010768 0  1.885130003936683 0.6421713892771383 0  1.773358286409876 -0.9045609312492104 0.2410240474052892  0.9566434479642242 -0.2746752779217476 0  0.981959681394906 -0.1831664286442689 0.2425687671324747  1.759877105553066 -0.9297824466678363 0.4766530223320761  1.117097531608276 -0.7081609724092219 1  1.17332786419343 -0.4614164932755894 1  0.9275246612083398 -0.3706670534361827 0.2407973732256985  1.326819405245446 0.007980982327727537 0  0.8818750233254947 0.4612683417535055 0  1.229886675696233 0.5007899141836832 0  1.158873917003066 0.3715846019556962 0  1.605658537252647 0.6244509830031152 1  1.858012708296987 0.7315651328223847 0.4985186121010893  1.654707948355699 -0.6668018593030738 0  1.238811424842835 -0.2309781201142494 0  0.8874756245502677 -0.4507903538350485 1  1.757277036224743 0.3216215622190277 1  1.18691889078285 0.007119794952739233 0  1.381951970976821 -0.5634760338254743 1  0.9256196219250847 0.3769471263237471 0.3049757398701155  0.8874756245502677 -0.4507903538350485 0  1.388222600345667 0.5481825370432527 1  0.8523194685862787 0.5165628955080167 0.5353394748175138  1.408994663971455 0.4584005427637182 0  1.254380730905587 -0.8083467088102502 0  1.064679695988678 -0.6749731916823414 0  1.209271688098489 -0.1289204172949369 1  1.828449529456563 0.8014924648669517 1  0.8818750233254947 0.4612683417535055 1  </DataArray>
</Points>
<Cells>
[...]
<PointData  Vectors="f_18"> 
<DataArray  type="Float64"  Name="f_18"  NumberOfComponents="3" format="ascii">3.2554921687323671e-02 1.0638086495810205e-02 -1.6779976332301572e-03  2.9760610942316273e-02 1.2340402369784811e-02 -2.8110813519197052e-03  3.6970107752323379e-02 1.1407319296040224e-02 -2.7015205475287769e-03  3.0329606964244461e-02 6.3199434850311270e-03 -2.8001885023424562e-03  3.0221472302545557e-02 3.8146380513328871e-03 -7.1483639459877938e-04  2.8332532504682130e-02 1.5404500482764623e-03 2.9208013754362309e-05  2.9851054770023821e-02 7.3558725687386502e-03 9.1066595244564032e-04  2.7208630328594927e-02 5.7673391093294672e-03 3.0081602033570282e-04  2.8780077092195339e-02 -1.6044440845373247e-02 1.5090999170741385e-03  2.8749171761519844e-02 -1.1112977136748917e-02 2.8069183391612944e-03  3.2487600813258931e-02 -9.2760609340505670e-03 1.7101385100849759e-03  2.9023054975560254e-02 -1.0654322026360345e-02 9.3200102607228117e-04  2.4985963284047223e-02 -1.3374659727414114e-02 -1.4550889331187098e-04  2.8541440701408547e-02 -1.6311752625368763e-02 -4.4400116351391885e-06  2.4989423036110119e-02 -1.3656934418235818e-02 1.3891955057440128e-03  2.6834832826911705e-02 -8.2803264038541560e-03 1.7843820531620834e-03  2.4786517744675572e-02 -9.7139089417840486e-03 2.8023230793598861e-03  2.4710498716950163e-02 -6.4206368665818058e-03 1.4910933426134727e-03  2.4119468149069252e-02 -1.0035235027609581e-02 1.0400696946088219e-03  3.3431152014243001e-02 -2.2492598710026632e-03 1.8595597220791571e-03  2.8485616841852090e-02 -3.6058770951466419e-04 1.7242392581525265e-03  3.2156828255140810e-02 2.4089086569326493e-03 1.5353287581952300e-03  3.0883462876939830e-02 -3.0854543423643561e-03 1.0603494695981773e-03  2.6704007416255098e-02 -9.4453926725792687e-03 -2.7822262593249090e-04  2.4017216146359668e-02 -7.7496638820668800e-03 9.5645684134070666e-05  2.2777285882001466e-02 -1.0447136200568021e-02 -5.3189898033014112e-04  2.8504705358074100e-02 -2.9547667863053296e-03 -3.3211703273201967e-04  3.1192556400358562e-02 -1.3242935823141405e-03 -1.1323143359274960e-03  2.9511318479096039e-02 -8.4954297642853820e-03 -1.0202110109998363e-03  2.8037671965110110e-02 -4.5556319397862992e-03 -1.7502775811973304e-03  2.6124676864829083e-02 -2.2645939729223821e-03 -1.0215216378041121e-03  2.3722160412729908e-02 -2.2249372729068371e-03 -1.3713823168410701e-03  2.5042188645381949e-02 -5.5955252977620537e-05 -1.9683977084904263e-03  2.4884441474053064e-02 -5.3819756080346910e-03 -1.6358137380818921e-03  2.6100883214678468e-02 -1.2762701824839357e-03 1.0550355812194293e-03  2.4249097093178421e-02 7.7339221843826435e-03 -3.4225622028165607e-05  2.2970375583118440e-02 6.6878361348401277e-03 -2.0264050723581601e-04  2.2233979755636520e-02 8.8090699743484588e-03 -1.4560201191731981e-03  2.2980699419306007e-02 6.6551667706683092e-03 -1.3707910515703609e-03  2.8403624639130407e-02 3.2612942368170574e-03 -1.5771909853087966e-03  2.8361940357427694e-02 4.9681600534863388e-05 -2.9627307234798032e-03  3.2103340483476558e-02 4.3035854495332242e-04 -2.8576542204190938e-03  2.4679012672463793e-02 6.9678040905365741e-03 -2.9900966287925313e-03  2.4495457722284196e-02 5.6173195099320297e-03 -1.7593598105510562e-03  2.2693125577973851e-02 7.8150183301722749e-03 -3.0900337803305587e-03  2.3290442052260898e-02 5.5950483714278338e-03 -3.0887626713050568e-03  2.4009613833007534e-02 -9.5518008803112588e-03 -3.0008768999946695e-03  2.3052078119476526e-02 -1.0021836580928688e-02 -1.8961516072758149e-03  2.4635014595192396e-02 -6.8644772452809769e-03 -3.0202779805243484e-03  2.2569029431943107e-02 -7.7206673675249407e-03 -3.0454192952561743e-03  2.6834925763890047e-02 3.1957436938133046e-03 1.4750653089708507e-03  2.5372343440421229e-02 7.5482206919642685e-03 1.0955916118769880e-03  2.4808003930705650e-02 -4.6278894029907810e-03 -2.3701192018431744e-04  2.3361345648863715e-02 -4.1676299761446130e-03 4.5425430356835575e-04  2.2937285520289941e-02 -6.2836621718873314e-03 1.0058420907692459e-03  3.7701486883955609e-02 7.5982820768375064e-03 -1.4504999071210292e-03  3.2545291305957035e-02 3.9694568682653664e-03 -1.7731199087861519e-03  3.8591331296467545e-02 4.4109035624413572e-03 -2.7638628376257515e-03  2.7822409512223645e-02 -5.1228631236799839e-03 2.8570939690781613e-03  2.7146684947399795e-02 -4.2327388535106716e-03 1.6282312548582781e-03  2.6637680195605393e-02 2.9696214957983285e-04 2.8279349735270843e-03  2.5435872724591385e-02 -1.8906798399018472e-03 2.8770611488040704e-03  2.3583368564993202e-02 -3.0956849364188210e-03 2.9026756517752691e-03  2.3749103395349649e-02 -8.5985932387287951e-04 2.8387519033889657e-03  2.4924808856315293e-02 -3.3183782672938926e-03 1.7625597319923482e-03  2.3677504287443221e-02 2.6917247295715867e-03 -2.0166938374911275e-04  2.5469740410665173e-02 1.5217448408100804e-04 -1.0618960730073354e-04  2.3748229380448349e-02 2.5283677831029680e-03 1.0071473399979537e-03  2.3785415997067762e-02 2.1942321666374850e-04 -7.8380030530459893e-05  3.8050246443071943e-02 -5.5636057602256568e-03 -8.2167152518448176e-05  3.2022872778927895e-02 -7.4224241183379856e-03 1.1582884064728044e-04  3.8451108633802626e-02 4.6671620060101935e-04 1.0506862555701552e-03  3.3036697395806155e-02 1.6471490037230673e-03 5.5539964439737400e-05  2.5396136305613531e-02 3.5329687435167486e-03 1.3805003149459298e-04  2.6629196652309353e-02 -5.9371541035407229e-03 4.2462748493098351e-04  2.7780386921515635e-02 5.6625996158595013e-03 2.8293311179207639e-03  2.5314599884701451e-02 5.0745700159104462e-03 2.8685941919241891e-03  3.1374090489059203e-02 6.5472576241482686e-03 2.8082427695236829e-03  3.2070136579881107e-02 1.1636255471533470e-02 1.6609780960353635e-03  3.7552814930099196e-02 7.7657740294153031e-03 1.4449933201271276e-03  3.1308386695916866e-02 1.2732111452274621e-02 -1.0637655256380420e-05  3.7504825263192987e-02 7.6259206525225364e-03 -3.9391226795099798e-06  3.8431853574303017e-02 3.3671545112590808e-04 -1.0979620723042998e-03  2.4922375131194892e-02 4.4900485198110336e-03 1.3537929099405350e-03  2.2925371646068005e-02 6.7912065913710885e-03 1.0071492109965492e-03  2.3340342115932996e-02 4.6776001558591117e-03 4.4375230552053520e-04  2.7928237617553218e-02 1.0148894143507621e-02 1.8024551330681254e-03  2.3596963044777822e-02 3.6380331772422844e-03 2.8719148574157015e-03  2.3346649969960123e-02 4.6849188325183829e-03 1.5528042615178491e-03  2.6241362329116159e-02 5.0867152457141082e-03 -2.9649946533834852e-03  2.3914067983214427e-02 7.1396863837947470e-03 1.7975014332866667e-03  2.8177667465101832e-02 -4.2003445632317823e-03 -2.9006688626290744e-03  2.6227536043337950e-02 -4.9950591742191934e-03 -3.0093381861902371e-03  2.7913888566212387e-02 -7.6500481293838010e-03 -2.9830148808762469e-03  2.3173627710535657e-02 5.8040025836454245e-03 2.8777030419030081e-03  2.6813172256831164e-02 -8.8507236252705016e-03 -1.8062957746383230e-03  2.4711877015883652e-02 -8.7712608118963777e-03 -1.0623251127685159e-03  2.3446415708912073e-02 4.4830007581287004e-03 -1.1999338109618762e-03  2.6355123827597891e-02 -5.9663177190947417e-03 -8.6455996362877605e-04  2.9929638749183928e-02 8.2569007456047248e-03 -1.0368965972196199e-03  2.5812960939029864e-02 6.3667619688457687e-03 -8.7506824172005099e-04  2.4402719237006477e-02 -1.2741981065317314e-02 -1.6923842425691680e-03  2.5478278045153888e-02 2.1089099896281333e-03 -1.2862143665037886e-03  2.3846328838014266e-02 -1.6867221513768872e-06 -1.4701379245388401e-03  3.7064119280926434e-02 -1.0548789732236561e-02 -2.7296472004083479e-03  3.3761027300499534e-02 -3.6494076370747449e-03 -1.7494840166895878e-03  3.7820458174640498e-02 -7.1700508640245549e-03 -1.5025856311532905e-03  3.8391883242166212e-02 -3.1984146845911248e-03 -2.8973823634393181e-03  3.5774910475646918e-02 -1.4150503758892402e-02 -1.4750948628723668e-03  3.1811171959496135e-02 -1.2269640881148238e-02 -1.9485011586779873e-03  2.4762263361623807e-02 -7.1980053373958972e-03 2.8625461390711709e-03  2.5338241558823377e-02 -4.6428076166486016e-03 2.8636613910592240e-03  2.6999450013188122e-02 1.3734658728322936e-05 -1.8456279191715658e-03  2.5870029849633117e-02 4.8248166568207797e-05 -2.9978217136048166e-03  2.5464388726516466e-02 -2.6496386134669441e-03 -2.9827774409941950e-03  2.2966036461121758e-02 -6.2625067252611898e-03 -3.0890257376544624e-04  2.3374119492184070e-02 -4.4047072536168939e-03 -1.2240938372920537e-03  2.3872388369626667e-02 1.1366400056803322e-03 -3.0717278806892288e-03  2.3886215520599035e-02 -1.0461628882202140e-03 -3.1005157998474902e-03  2.3717943238216747e-02 -2.0348381832559674e-03 9.5598755271517110e-04  2.3769738936293527e-02 2.0578000082874015e-04 1.2780779658785012e-03  2.2887212652227370e-02 -1.2499815573515658e-02 1.7714750589927217e-03  2.2790175266947682e-02 -1.1284855233956777e-02 2.8523301222126676e-03  2.3028219726048495e-02 -9.4340795331504402e-03 1.7736780257584627e-03  2.2603490303551573e-02 -7.4558566257770104e-03 2.8819300044132632e-03  2.3169100120714527e-02 -5.2803287929834679e-03 2.8660473574097364e-03  3.8516380852706485e-02 4.1541946713862798e-03 2.5755305248304147e-03  3.6897085281123537e-02 1.1396412566573741e-02 2.8331290041165983e-03  2.8562720664229789e-02 -1.4848283456546520e-02 -1.4838736246186837e-03  3.5559429186395944e-02 -1.4001104943511400e-02 -1.5687696823262690e-05  3.5494549838465651e-02 1.4851958568091607e-02 -9.7323826105927822e-04  2.5338656108760377e-02 1.1028638892596270e-03 1.8569372396847427e-03  2.3643266761465807e-02 -3.3310556990666152e-03 -3.0367788962219560e-03  2.1208448010380757e-02 -1.0806472945573617e-02 -1.2164934299974542e-03  2.2148663874732945e-02 -8.6955036650660025e-03 -1.1060014265053961e-04  2.2134895271526189e-02 -8.6757881226526608e-03 -1.4596800547190447e-03  2.1779234793658411e-02 -9.5714809618598715e-03 2.9013165737273869e-03  2.2169283952163780e-02 -8.5249579723060739e-03 1.2685006323378569e-03  2.3836205344945124e-02 1.3486518213005878e-03 2.8920425281216051e-03  2.5524610944220608e-02 2.7499592147325644e-03 -3.0323789722129044e-03  2.0785224997617292e-02 -1.1607123113602813e-02 2.8874220951199251e-03  2.6023533865000094e-02 1.0275771432299003e-02 -1.4231230315819379e-03  2.7529173264090771e-02 7.3772709658472572e-03 -2.9746235413245577e-03  2.8159315200175568e-02 1.2870208613424755e-02 -1.6742470251595912e-03  3.0438791066496673e-02 -5.4410028100628401e-03 -2.8571245254341983e-03  2.1741548510498272e-02 -9.7729136523522914e-03 -3.1147766006057662e-03  2.3744969125832155e-02 -2.1821369417303858e-03 -2.4163182927427267e-04  3.0228790648573950e-02 -2.1651015349160850e-03 -2.8941420130776702e-03  2.4030586425469576e-02 8.6819309011445418e-03 -1.6495268785993095e-03  2.9593117650285671e-02 -1.4242149446853718e-02 2.8274019745501526e-03  2.5838411432187802e-02 1.1899622167642834e-02 3.3913275204848580e-05  2.2893065873026232e-02 -6.5493710703195740e-03 -1.6463313648538110e-03  2.3179112043913180e-02 -5.5273847491399061e-03 -3.0574199994792095e-03  2.3739180067500473e-02 3.3628207003408429e-03 -3.0693409089999494e-03  2.3363784233179852e-02 -4.1650403735616452e-03 1.5174328489645174e-03  3.8471019102278355e-02 -3.3330162595811164e-03 2.9062566627368826e-03  2.4423530570601773e-02 7.6734935710613709e-03 2.8748453095176459e-03  2.2540719274323131e-02 7.9708889530129019e-03 2.8915358157993415e-03  2.1263290549561970e-02 -1.0608092438161843e-02 1.4336905580139459e-03  3.7013234439076843e-02 -1.0518753568437941e-02 2.6557120638360989e-03  3.7828878119991492e-02 -6.7512923234910012e-03 1.4446983627014224e-03  2.1123787358471331e-02 -1.0934483899103103e-02 3.2913958568337690e-05  2.6160079226303229e-02 -1.6421441761029460e-02 -2.8731711553815508e-03  2.9885682138483822e-02 -1.1636073950228863e-02 -2.8744599079846634e-03  3.5573523015845238e-02 -1.4184427356595416e-02 1.4300482426033601e-03  3.0785939836449349e-02 3.8840707452052203e-04 2.8145523711270376e-03  3.4003099333994466e-02 1.8169728189086683e-02 2.6936391137610551e-03  2.8473341596060221e-02 1.1879552796026056e-02 2.8831086676095771e-03  3.1263152835240476e-02 1.0268409377750941e-02 2.7933328985980600e-03  2.4112735790370390e-02 9.7047689627735370e-03 -3.0220261175730565e-03  2.2120703418043754e-02 9.0056856494981300e-03 -9.4198120504871864e-05  2.3490483471816904e-02 -9.2813964218949642e-03 2.8751566518271324e-03  3.1456072836240946e-02 -5.7323988804387554e-03 2.7456703627253788e-03  3.4449231891770023e-02 -1.7372530537948488e-02 -2.6981169661936060e-03  2.4899464258689375e-02 4.8072435241887463e-03 -3.0022983855141679e-03  3.3612277669582871e-02 4.4735948763959400e-04 2.6764408182264670e-03  2.6311009929622785e-02 -1.0586669496351094e-02 -2.9506928933207420e-03  3.5649799105005417e-02 1.4889619875948125e-02 1.0070724455074525e-03  3.4459097620729330e-02 -1.7522153686630414e-02 2.6538780152311164e-03  2.6452872241385355e-02 1.0677352670780321e-02 -3.0288344214063506e-03  3.2865167720041284e-02 2.0370456618860295e-02 -1.0971276480529234e-04  2.7017206696430186e-02 9.0602611668871031e-03 2.8846771722656696e-03  2.3827178853638369e-02 -1.5263581067501022e-02 2.7992829669897757e-03  2.7127728014731681e-02 -1.7063323755197077e-02 2.7124760386648423e-03  3.2793748954152421e-02 -3.1784366525197693e-03 -2.8697666121143082e-03  2.1852393335017369e-02 9.8704235725997642e-03 -3.0662227550636309e-03  3.4302873263479784e-02 1.8233964747372787e-02 -2.6603159529364380e-03  </DataArray> 
</PointData> 
</Piece>
</UnstructuredGrid>
</VTKFile>