<?xml version="1.0"?>
<VTKFile type="UnstructuredGrid"  version="0.1"  >
<UnstructuredGrid>
<Piece  NumberOfPoints="187" NumberOfCells="657">
<Points>
<DataArray  type="Float64"  NumberOfComponents="3"  format="ascii">0.7119454820819836 -1.311017197308812 0.7850254167931945  0.6711564508304207 -1.401253329984251 0.5622240771778685  0.7873485614796214 -1.551119900712338 0.747618612172079  0.509899363520301 -1.411274404689723 0.7930410904030668  1.571223386396861 -1.222896538248188 0.681768998400601  1.365943112648017 -1.134934275590741 0.4914509233146168  1.447765498390705 -1.373330410045335 0.7315215413413203  1.404410164647943 -1.149349917793486 0.7975908961567035  0.803830552736335 -1.241808787336111 1  1.027552987385453 -1.122421832866236 0.7520124683793958  0.9317589561501367 -1.126789045658179 1  0.9466024263613499 -1.337784875385508 1  1.015601792777485 -0.8204518079745813 0.6525547521204649  1.304637174418844 -0.7075626243921807 0.5186954339142219  1.054700059797406 -0.6058616406515142 0.4895215437898623  1.110028565937067 -0.5800778232130865 0.7539770568553924  0.9065780864506976 -0.7643401139982925 0.8193321493755804  0.8427521110205465 -0.5344621625620394 0.6951122958534079  0.8874756245502677 -0.4507903538350485 1  0.6565945984642327 -0.7485610582252132 1  0.7260749200787838 -0.683994037072515 0.7575866569922562  0.7862467646240011 -0.6106744323530362 1  0.4437787684872145 -1.472384709319954 1  0.3808210433871149 -1.763882641155164 0.817384939724187  0.5886194165627399 -1.607799173493189 1  0.2828443174131989 -1.737656437702833 1  0.8427521110205465 -0.5344621625620393 0.304887704146592  0.9275246612083398 -0.3706670534361827 0.2407973732256985  0.9290934823066148 -0.3654953433663091 0.5  1.254380730905587 -0.8083467088102502 0  1.452879240810067 -0.9256401028442123 0  1.469388374880087 -1.034040776775462 0.1882486755660968  1.347617246490652 -1.061163179822044 0  0.5031802934273266 -0.8594726184264059 0  0.7805047611923689 -0.9061187185566575 0.2197836778390664  0.6565945984642327 -0.7485610582252132 0  0.5790946986177532 -0.8121635823205643 0.2406591020066253  0.8638068359660822 -1.218302366084752 0  0.9324225297118618 -1.069640369270793 0.223104162955864  0.7932047642417024 -1.26389931307753 0.1963766327108795  1.030433715894798 -1.231858392111446 0  0.9080933109673303 -1.392933173756074 0.3219887364722751  0.818663626867002 -1.250496447075703 0.4758235842672084  0.5790946986177532 -0.8121635823205644 0.7593408979933747  0.7288306932309858 -0.9486137962695518 0.8304626122976658  0.7999786526575325 -0.8565217994501219 0.6452470139574003  1.157231385552274 -1.253901033215793 0.281726668262764  1.224429837858597 -1.367445394691974 0.1621926997827459  1.177855468001781 -1.310694360819405 0  1.636952961386825 -1.142804819387519 0  0.7464136245425157 -0.6592112539775661 0.464253437432927  0.9590515939106158 -1.078423956001888 0  1.189271625505363 -1.127293779066439 0  0.7450638420349176 -1.620742934143578 1  0.9598730660345802 -1.549077209085725 0.8242980760773153  0.8995443726527385 -1.515344433769769 1  0.9253516653358499 -1.762245407515976 1  1.29264339957742 -0.7108631639275693 0.248925098563288  1.064679695988678 -0.6749731916823414 0  1.119003905466543 -0.9695779869373969 0.2100492968754825  1.576997441744635 -1.215860831449986 0.4767686081794522  1.687870562227536 -1.064497214017714 0.3121204132896461  1.577555788316497 -1.215180484183672 0.2425537263387976  0.4566179955496571 -1.609390190456626 0.6989686505589768  0.4780196499422931 -1.718624147876173 0.4860276821231871  0.4598397724961487 -1.407027747603131 0.4646693967668116  0.6555930567863257 -1.664756582497279 0.5960201095882456  1.080685194586458 -1.202250007878773 1  0.580573651550607 -1.903815473393742 1  0.5734276495182083 -1.711685493650841 0.8245233371918688  0.9720734413444984 -1.373627274294348 0.6790269542916713  0.7381014911438812 -1.022860552606942 0  0.5649892703019659 -1.018153738993141 0.2065824908697158  0.6859686601772466 -1.136244635014237 0.3299139575879882  1.059531587242102 -0.5973251627738123 0.226746809598138  1.023435757713041 -0.8146736758415731 0.3189846134813204  1.297544141558148 -1.005011241379223 0.3189684790296657  0.5832887714184972 -0.8087215957258024 0.4999999999999999  1.000672008306493 -1.113805047495691 0.487632913986857  1.1929972635708 -0.8536914974626655 0.780931025369012  1.284717519815038 -1.02228507292348 0.6703955176972156  1.20351971211937 -1.239767330590945 0.7939120312707418  1.10743765731954 -1.431746180074469 0.8139666446241006  1.206663380515088 -1.269235118192567 0.5803433203994834  0.5031802934273266 -0.8594726184264059 1  0.7739143362555156 -1.072397343309636 1  1.300974086628094 -1.226302537576867 0  1.338534520264107 -1.194150655990213 0.2011991283607386  1.244666982182433 -1.191554482389109 1  1.176003996493655 -1.33611093172008 1  0.8428253757598037 -1.806356628303072 0.7017027633753112  0.6701703609710061 -1.876636608728933 0.7670361119449685  1.251368316581753 -1.54785720178133 0  1.396119646174059 -1.429062855640675 0  0.9633396945064303 -1.532543348225953 0.504411395532755  1.51815861524617 -1.287556148979825 0  1.496956996248435 -0.92836030672711 0.733478808495897  1.486803694599748 -0.9110561600863133 0.4938031200867036  0.8140359668217003 -0.928879231333442 0.4392990111823438  1.173511336853638 -0.9048826654188855 0.4957352355486239  0.4037512339627746 -1.080144681274499 0.7916997388280334  0.5315656042297237 -1.1447348656588 1  1.639622120442623 -0.7656643535348759 0.5754969080455435  1.647316553768361 -0.730739989356719 0.8042598622939813  1.764178512674736 -0.9217350799576589 0.681768998400603  0.9657215264631963 -0.9093291733414921 0  0.609932068791446 -1.364176709429583 1  1.472680754612366 -0.8169236440154841 0.189840841356636  1.773358286409876 -0.9045609312492104 0.2410240474052892  0.5038238211581905 -1.074271211065006 0.5112063182307277  0.4006956025444619 -1.24843802094553 0.6812500201025888  0.7276110770644739 -1.094877295120382 0.6732896863357209  0.4909769421302074 -1.93099433805855 0.7575947101728453  1.38956983664371 -1.075452775247462 1  1.009197349932888 -1.397681489770207 0  0.5007099757113176 -1.928041854600282 0.3180605671254946  0.6868754821181033 -1.871569165629702 0.2684565302298717  0.6868754821181031 -1.871569165629702 0.4985271366456067  1.374638822880307 -0.7269623812337992 0.7816877154595647  1.596035538136801 -0.6475556862479659 1  1.811898498971423 -0.8324572649841648 1  1.576862202356231 -0.8129917743520412 1  0.6936374543645428 -1.490116486267707 0  0.8025770010134894 -1.582936134930714 0.1789258885538291  1.45886869666133 -1.359801123807276 0.2329044500023627  1.323743981377906 -1.488460028711002 0.2983514543155433  0.7571261393854014 -1.588227948599163 0.4034342435924383  0.5105785823554512 -1.583270420542069 0.3212501110323914  0.8191217493535388 -0.9003543932255844 0  0.9108064832199552 -0.7168879053805575 0.1960696744913284  0.5834852897946156 -1.717308399664762 0.1887386398541893  0.8582612650818593 -1.79810597356713 0.2345944512541738  1.023406865707066 -1.709833810979675 0.3360631755621046  0.9134091603486951 -1.768628809422758 0.5063694337812823  0.617899748202294 -1.653792821188109 0  0.7756884647692561 -1.842242054860857 0  1.500447934349236 -0.9696295598465304 1  1.723626336383968 -0.9976028656093712 1  1.304133313638584 -1.504554087798652 0.6818852646335845  1.382549209024781 -1.440199825591361 1  1.237797879432475 -1.558994171732016 1  1.372150915982795 -0.8905933020381092 1  1.447765498390705 -1.373330410045335 0.5014756417954529  1.731901851626541 -0.9821204655507586 0  1.548728803732611 -0.6572481953988726 0.3158315927164428  1.759877105553066 -0.9297824466678363 0.4766530223320761  0.9182578431128523 -0.8646999765548649 1  1.073201216885297 -1.038090295992939 1  1.183469093176923 -0.8848763635278679 1  1.142512612418792 -0.9516293590046008 0  1.109591404263192 -1.393011847861546 0.4362628689155215  1.215386324078908 -1.577386859880171 0.4184832804743677  1.117097531608276 -0.7081609724092219 1  0.7260749200787839 -0.683994037072515 0.2424133430077437  1.038706690905149 -1.45578038790324 1  1.625815991436139 -1.156375256536797 1  1.507021645295484 -1.301126586129103 1  0.49198228108192 -1.930689371821647 0.5229837268563096  1.165552904605024 -1.618284090316855 0.5914719092900202  1.165552904605024 -1.618284090316855 0.7722986199771491  1.090497265961056 -1.673973244928521 1  1.018251277396346 -1.493874823880694 0.1811641159579966  0.9408340653944625 -1.753969892273402 0  0.7862467646240011 -0.6106744323530362 0  1.105979666019669 -1.665697729685947 0  1.679590237761743 -1.079988611500134 0.5913175450030814  0.6027785381133539 -1.359332156263882 0.2124371689903601  0.5587472371219874 -1.203112900522971 0  1.381951970976821 -0.5634760338254743 1  0.7597670703914065 -1.849457744064124 1  1.679590237761742 -1.079988611500134 0.7722204517981226  0.4999697403346577 -1.076876380065217 0  1.17903341878715 -1.607220918238119 0.2399632141173498  0.2713321621710769 -0.9576575710401055 0.4639489892092016  0.2407869516577543 -0.9669233593494102 0.2422811437659894  0.384799343308686 -1.090040125494568 0.2000785832607395  0.4195556527163921 -0.9041709201262842 0.3048123389795397  0.3315216749971926 -0.9393992819363619 0  0.4195556527163921 -0.9041709201262842 0.6951876610204601  0.3833720884367542 -1.248266169376449 0.3125100964111098  1.016841500351821 -1.713343071873639 0.6818852646335847  0.9275246612083399 -0.3706670534361827 0.7592026267743015  0.3070347646120418 -1.231266475456671 1  0.5973730345669322 -1.89871943626909 0  0.8874756245502677 -0.4507903538350485 0  0.3315216749971926 -0.9393992819363619 1  1.575155775830446 -0.7921739152598291 0  </DataArray>
</Points>
<Cells>
[...]
<PointData  Vectors="f_18"> 
<DataArray  type="Float64"  Name="f_18"  NumberOfComponents="3" format="ascii">2.7631985937212743e-02 -5.0940363864084855e-02 -3.3645931079256241e-03  2.4338734179185372e-02 -5.0696852343473479e-02 -8.7718585659495236e-04  2.3718643562226357e-02 -4.6705803177602673e-02 -3.1537997051370266e-03  1.9554731754755125e-02 -5.4077681615634095e-02 -3.5364837216619823e-03  3.8655500980160282e-02 -2.9702157282492293e-02 -2.4673501262704530e-03  3.9998763402818667e-02 -3.2825727236422152e-02 -5.4718089251450882e-05  3.5510350101426384e-02 -3.3367913108524327e-02 -3.0566177547468329e-03  3.9765552292370061e-02 -3.2155406648411107e-02 -3.7882934803880829e-03  3.1843134236943724e-02 -4.9019226898838704e-02 -5.9381662495278219e-03  3.8673441816475751e-02 -4.1891328127528674e-02 -3.1274599463042398e-03  3.7523627946903219e-02 -4.5215430021034390e-02 -5.9513873772894660e-03  3.1795736328817388e-02 -4.4355056189959330e-02 -6.0085089357909413e-03  4.9533855769314593e-02 -3.9727373225036389e-02 -1.7837910016887018e-03  5.0926499886371705e-02 -2.7255954857208328e-02 -2.9310127114501262e-04  5.8024183751212113e-02 -3.3144450979184149e-02 6.8152851401997139e-06  5.8117199663365364e-02 -3.0198341645204525e-02 -2.9339113216300286e-03  5.2128382545523926e-02 -4.3800568900939675e-02 -3.4478994350997248e-03  6.5838609281337959e-02 -4.1578199589176884e-02 -2.2115993186991550e-03  6.9875827987256028e-02 -3.5235448133434523e-02 -5.1994243539917433e-03  5.1495227876737389e-02 -5.8881860765167923e-02 -5.0457652907255996e-03  5.6786560501359544e-02 -5.3568907573921042e-02 -2.9416570081417302e-03  6.1558155354851603e-02 -4.7656997476660724e-02 -5.7820318275106095e-03  1.6411587724378677e-02 -5.4370479384703713e-02 -5.9123690215336314e-03  1.0781633526917290e-02 -5.0197054795790251e-02 -3.9502228252793811e-03  1.8224798517529492e-02 -4.9883349998754822e-02 -6.0937065114339290e-03  8.2181604715788805e-03 -5.1545888068320021e-02 -6.1062292990130248e-03  6.5850535086757644e-02 -4.1561088404323210e-02 2.0083363841272043e-03  7.2063811499124247e-02 -2.8717624759856359e-02 2.8075032712253476e-03  7.2028906582620136e-02 -2.8348768374780661e-02 2.2541047934880009e-07  4.8595418979354918e-02 -3.1120724205663849e-02 5.6222638972204947e-03  4.4547497684499192e-02 -2.8017873497089139e-02 5.7943789415288022e-03  4.2091515730293433e-02 -2.9318661561646940e-02 3.5041705250959689e-03  4.1578376247945047e-02 -3.2518075176369100e-02 5.7414624025296694e-03  3.9532454019127763e-02 -6.7241103027646909e-02 5.3454901232879697e-03  4.4308029582872173e-02 -5.1258877511372487e-02 3.1434014154031859e-03  5.1770081855656014e-02 -5.8734962698979640e-02 5.1955214641072290e-03  4.5430286469017353e-02 -6.3291762514866748e-02 2.9067452572153541e-03  3.3460072996068034e-02 -4.6999053733608374e-02 5.6534366272093422e-03  3.9337745266702653e-02 -4.4894072787298976e-02 3.0646751409874906e-03  3.0616264540384446e-02 -4.8833861737975090e-02 3.5141725768200157e-03  3.5487303220912259e-02 -4.2109322948565113e-02 5.6940319021867589e-03  2.9426211522317062e-02 -4.4958776552846934e-02 1.9426569874189472e-03  3.1660244837087251e-02 -4.8287072464856640e-02 3.0755705740880560e-04  4.5530091214298560e-02 -6.4116452789826889e-02 -2.6880699835525558e-03  4.1515579416420145e-02 -5.3582947394290627e-02 -3.6638057216225478e-03  4.6864539827213995e-02 -5.0103275852040989e-02 -1.6114063326298654e-03  3.5979088271374637e-02 -3.8740716054297498e-02 2.4601909785669910e-03  3.3963525468154079e-02 -3.7709316909347104e-02 3.8940468643905751e-03  3.4900209938606673e-02 -3.8578743155456376e-02 5.7906907661961294e-03  4.0045720838764058e-02 -2.7544955373281624e-02 5.8362118996650916e-03  5.8493064941247411e-02 -5.1166488260579707e-02 5.9263655221439098e-04  3.9277670975209282e-02 -4.4012310555949251e-02 5.6417558142384926e-03  3.9475494495390749e-02 -3.7317975372258866e-02 5.7098773467583949e-03  2.1674238544556693e-02 -4.7043199543925267e-02 -6.1805170481596611e-03  2.7017218613807924e-02 -4.3366934743538005e-02 -4.0636447791213750e-03  2.6797902097403320e-02 -4.4838067736491356e-02 -6.2294986849181300e-03  2.2711729867813373e-02 -4.3279656776573139e-02 -6.3639977023917313e-03  5.0934299505570962e-02 -2.7825355697000464e-02 2.7914309814237835e-03  5.5215800425257359e-02 -3.4724382484704670e-02 5.3973651383416588e-03  4.3927113361140843e-02 -3.7772575805325719e-02 3.3022971595355341e-03  3.8832292150014887e-02 -2.9410279144973833e-02 2.0083007077643034e-05  4.1291547790783097e-02 -2.5516389839643203e-02 2.0485734596154769e-03  3.8712674014039279e-02 -2.9427654568897836e-02 2.9606141912814419e-03  1.4600957769669229e-02 -5.1610907090034942e-02 -2.5458661757521558e-03  1.3866142665458407e-02 -4.9741258674751848e-02 5.0077440663339296e-05  1.7985153921370043e-02 -5.5225135524993495e-02 2.6128304475338379e-04  1.8927380319893217e-02 -4.7961795327140580e-02 -1.2967599813703391e-03  3.6855642499150111e-02 -4.0709680230695253e-02 -6.0309871119422053e-03  1.4290343462338852e-02 -4.6826514421016541e-02 -6.3928068645463521e-03  1.6295110663248024e-02 -4.8634826841593183e-02 -4.0653771941130106e-03  3.0933187975093722e-02 -4.3584351976612895e-02 -2.2377453993084502e-03  3.7993008693084133e-02 -5.2773036109433041e-02 5.6242234471958717e-03  3.3418896516440998e-02 -6.0483648980827628e-02 3.3419847091533767e-03  3.2508693632569016e-02 -5.3579390821975402e-02 1.8607155912160045e-03  5.8500361119476867e-02 -3.2604105364012627e-02 3.0070145812412857e-03  4.9439522376086349e-02 -3.9245448452151742e-02 1.8861153416276355e-03  4.2983007774685049e-02 -3.2919090962596799e-02 1.9803601702240740e-03  4.5084679055517399e-02 -6.3075861075244308e-02 1.0834821870522651e-04  3.8538225429204785e-02 -4.2702257917030806e-02 8.2192449189959224e-06  4.7603930401630280e-02 -3.3839716281342309e-02 -3.3944571590017844e-03  4.2526877458750306e-02 -3.3531021005264172e-02 -2.1415271498582324e-03  3.6814966015004294e-02 -3.7620634527248883e-02 -3.6481528659711511e-03  3.1472314662238897e-02 -4.0439482627195211e-02 -3.9881311303140371e-03  3.6084942748518756e-02 -3.7653719087816860e-02 -1.0821720805807846e-03  3.9692232604607587e-02 -6.7810040529648188e-02 -4.6826250052030352e-03  3.6983288007892461e-02 -5.1040529491084438e-02 -5.6849268188707237e-03  3.7640972484395963e-02 -3.5197129157526250e-02 5.8302435852934072e-03  3.8474641793941271e-02 -3.4028310248816272e-02 3.4003532045026228e-03  3.8282654913786837e-02 -3.6462620874546860e-02 -6.0536765455702366e-03  3.4443712581804571e-02 -3.8828145673923953e-02 -6.1562855406458042e-03  2.0569529171415076e-02 -4.3972414401984808e-02 -2.6944992902152966e-03  1.6399225869403431e-02 -4.5837141872356754e-02 -3.4675215547251342e-03  3.0743804219301851e-02 -3.7851501518011317e-02 5.9340513401530248e-03  3.4105709023038118e-02 -3.4620865714564159e-02 5.8301443711088734e-03  2.7397121141332803e-02 -4.3239754272767959e-02 -2.5099713178102211e-04  3.7296033237965237e-02 -3.1303296385983163e-02 5.9171836920591499e-03  4.4357443525325183e-02 -2.7239665988658440e-02 -3.0028230271099670e-03  4.4680832175258013e-02 -2.6994014442940525e-02 -9.6559499168245538e-05  4.3543210501105101e-02 -4.9562287425955587e-02 7.3090075428126715e-04  4.6046194393012239e-02 -3.5262725733856089e-02 -8.9474801715336741e-05  2.4392967065201526e-02 -6.5223529554554793e-02 -3.2265058909661018e-03  2.7507137874191512e-02 -5.9410064053318251e-02 -5.5972830367077642e-03  4.6509472582865863e-02 -2.1329584924009649e-02 -1.0915411620458758e-03  4.7095519567563776e-02 -2.0471097574713229e-02 -3.8506207207318430e-03  4.3336355460802591e-02 -2.2086037008812360e-02 -2.4913381320817106e-03  4.5676279621980981e-02 -4.2890278980698263e-02 5.5674805911399483e-03  2.3812609700279246e-02 -5.2854647384765772e-02 -5.9056007451427231e-03  4.6707291308489475e-02 -2.5509634168363653e-02 3.5653359260549395e-03  4.3434902018507505e-02 -2.1674296683635394e-02 2.8866923348177575e-03  2.8861047986095980e-02 -6.1684295256989166e-02 -1.8985098671044716e-04  1.9229525545579558e-02 -6.0164552050230032e-02 -2.0394756671182923e-03  3.4884393042261853e-02 -5.2479612713742879e-02 -1.9887204421923385e-03  1.1921526040264974e-02 -4.7213400920800487e-02 -3.3155953143709917e-03  4.1456547833556977e-02 -3.1788801813593198e-02 -6.1317232561094179e-03  3.0980425096943612e-02 -4.2558162146590986e-02 5.7818364919896923e-03  1.2126497892672646e-02 -4.7085221426025690e-02 2.0349052042451595e-03  1.6729960593613473e-02 -4.5632215166887952e-02 2.5533374252738649e-03  1.6731077031521609e-02 -4.5697909056580312e-02 -1.6670346074992810e-04  4.9792501873423621e-02 -2.5992938825914698e-02 -3.4102077888254890e-03  4.9067919962114744e-02 -1.9515198763360539e-02 -6.0740437797143828e-03  4.4465839825267653e-02 -1.9987191318460960e-02 -6.3412164024981990e-03  4.6307298267274158e-02 -2.3506236118214924e-02 -6.2226450426222822e-03  2.2893681155448684e-02 -4.9016297586019122e-02 5.7923348990007676e-03  2.3364810803940823e-02 -4.6043024093454260e-02 3.6703895522788234e-03  3.5711938705079570e-02 -3.2983717238422958e-02 3.0188130040402438e-03  3.2478893495953717e-02 -3.6135116394140479e-02 2.2396826358824689e-03  2.2422846774741888e-02 -4.6950734455680584e-02 9.3037034832633763e-04  1.6412333410890479e-02 -5.1192871786401993e-02 2.0066188828282284e-03  4.4882774598440214e-02 -4.9414460428178236e-02 5.6088903618194321e-03  5.4449839963870830e-02 -4.2833266408883984e-02 3.3816917929432645e-03  1.6358418048007174e-02 -4.8374668340904904e-02 3.5973384061111862e-03  2.0979267931205744e-02 -4.3820073494390682e-02 3.0530693719352377e-03  2.5008094378559841e-02 -4.1672509406468987e-02 1.7858979896374120e-03  2.2394578833534670e-02 -4.3209257151533904e-02 -3.0534382114565079e-04  1.8115768110065326e-02 -4.8595004216684314e-02 5.8048846222223428e-03  1.8884254125977527e-02 -4.4711513039781547e-02 5.7905625269908251e-03  4.3559792152468524e-02 -2.7814953980924931e-02 -6.2004269214351567e-03  4.2457324353393236e-02 -2.4172498733968886e-02 -6.2712358561840759e-03  3.2086116045484794e-02 -3.6692127833493939e-02 -2.3945249165582276e-03  3.3941267989704829e-02 -3.4966446372538332e-02 -6.3391101699914803e-03  3.0566262407843298e-02 -3.8248493179471349e-02 -6.4585375686231619e-03  4.5845108996659237e-02 -2.9474363824433164e-02 -6.0145725873993255e-03  3.5450563656635369e-02 -3.3234104081993322e-02 -2.4911596669486007e-04  4.2465704521569773e-02 -2.3718000166634567e-02 5.8319962533228643e-03  4.9221447391228482e-02 -2.0478300814430524e-02 2.0882248526927112e-03  4.3151690563416362e-02 -2.2340895417804513e-02 4.4144136214210033e-05  4.7680687046578379e-02 -4.4759283992441820e-02 -5.6984366513092395e-03  4.1836612369532865e-02 -4.0022079958949582e-02 -6.0057177915862365e-03  4.6847402074330309e-02 -3.4728964788927619e-02 -5.8762410616138563e-03  4.4556687909782337e-02 -3.6914549037238786e-02 5.6263523164104701e-03  3.2295921964351049e-02 -4.0283192919097210e-02 5.8024329890140561e-04  2.9836988299325202e-02 -3.8467022774215480e-02 7.2040291303933346e-04  5.3329116175196728e-02 -3.3466503588198936e-02 -5.7193030346647912e-03  5.6608810728203084e-02 -5.3366916965285970e-02 2.9203297019494982e-03  3.0278444676245842e-02 -4.2068914786841133e-02 -6.1310233268681126e-03  3.9979757264274621e-02 -2.8023531043050449e-02 -6.2263010382281958e-03  3.7197647096428178e-02 -3.1786292424207691e-02 -6.2865102587805269e-03  1.1912858948480008e-02 -4.7176139768804096e-02 -4.8755989136817262e-04  2.8675079405156775e-02 -3.9378955734362300e-02 -1.2738441820304804e-03  2.8569594283918733e-02 -3.9448996144913588e-02 -3.5669784948848086e-03  2.6728362254257239e-02 -4.0895132096041939e-02 -6.3213621567172907e-03  2.8924749009587278e-02 -4.2175277726650154e-02 3.6951959877690155e-03  2.3024732784448391e-02 -4.2861853678035820e-02 5.9371614972013251e-03  6.1718533479724023e-02 -4.7685025306728919e-02 5.2128772591703149e-03  2.6969685899640668e-02 -4.0402917689610462e-02 5.8594340170314190e-03  4.1118610260699642e-02 -2.5977174506184149e-02 -1.2935135444257318e-03  2.3437876178747687e-02 -5.2826254164845182e-02 3.2703627127294841e-03  2.6406292902632474e-02 -5.6950918087137405e-02 5.5232396779466000e-03  5.3713093933143670e-02 -2.1606579475842987e-02 -5.9269248001792068e-03  1.8583804043318351e-02 -4.5124224633421417e-02 -6.2890191039905253e-03  4.1130510955453128e-02 -2.5989514134374628e-02 -3.5321004863997393e-03  2.8735601180996492e-02 -6.1813900497362524e-02 5.5396278680258215e-03  2.8826708041472995e-02 -3.9121786863097925e-02 2.9815360360846760e-03  2.1297685294297354e-02 -7.4693658983142480e-02 4.7605462712094128e-04  1.8767515866521114e-02 -7.5523830761325475e-02 3.1642505438565305e-03  2.3219839074844966e-02 -6.5346240916818649e-02 3.3030842394206734e-03  3.2814912728843106e-02 -7.0607897242334863e-02 2.2780743706389927e-03  2.5584011449236613e-02 -7.3402952879446662e-02 5.5636326228027718e-03  3.2892263170062712e-02 -7.0489409110013321e-02 -2.0838478596310163e-03  1.8594261132275341e-02 -6.0517641950768641e-02 2.0577648581480575e-03  2.4860274890533236e-02 -4.1836655265402964e-02 -2.4545294114113225e-03  7.2472863859394290e-02 -2.8651024195943557e-02 -2.8353818937163181e-03  1.5531678113600449e-02 -6.3050939790138982e-02 -5.6524325289619981e-03  1.4566702447094605e-02 -4.6436677013278305e-02 5.9415780906576492e-03  6.9832456737587631e-02 -3.5495742103452375e-02 5.1639991045176166e-03  2.6017221743014504e-02 -7.3588043080956442e-02 -5.3257189371164072e-03  4.6536135022609400e-02 -2.3042571972702926e-02 5.7492455221211901e-03  </DataArray> 
</PointData> 
</Piece>
</UnstructuredGrid>
</VTKFile>