<?xml version="1.0"?>
<VTKFile type="UnstructuredGrid"  version="0.1"  >
<UnstructuredGrid>
<Piece  NumberOfPoints="30" NumberOfCells="53">
<Points>
<DataArray  type="Float64"  NumberOfComponents="3"  format="ascii">1.225257003058708 1.087822772977291 1.802378243505504  1.291716056056339 1.514744667736657 1.566197140660724  1.229206351219692 1.160190834715364 1.468546914215901  0.8002820848895167 1.245517446431679 1.806354342913812  1.025116009025532 1.341367238375896 2.03791273432409  0.937047807243359 1.139143600548469 2.292287176494212  1.026500503865961 1.708180226933143 2.203820081032769  0.724634143467811 1.448197965544568 2.145869248227742  1.258308491177613 1.542161547685859 2.27170526119972  1.013770822252929 1.714984383512416 1.793150909366531  0.7348330606125655 1.857021393239568 2.170834804539639  1.324835377882232 1.487564342747517 1.991528779165446  1.3230625116969 1.011817659597906 2.172887002434679  0.7561328111026439 1.850560184566739 2.561201759852887  0.5537687920112865 1.351859095829314 2.530044562726093  0.4637410722358405 1.939256248866168 2.338340568812943  1.27376505431592 1.529476674139147 2.564118891466585  1.493220117564737 1.317943796327518 2.345955234064158  0.5681290962822957 1.549327866949738 1.773146020401223  0.8742082723200244 1.446804419358319 2.687174279676173  1.681101295712113 1.077161620912404 1.812157250467173  1.513913159533107 1.29272925173392 1.334115922848251  1.300244485950819 1.049871952119805 2.714136197892474  0.9523811489366802 0.9280136144060591 1.991006714703743  0.5165522821737178 1.172046529814467 2.226237013913654  1.310285011115728 1.499505520151565 1.221305217044282  0.9218510219741471 0.9261978185950753 1.624065965663955  0.5558257833500052 1.911322657138745 1.900059277335361  0.6188712620331606 0.7795198003534882 2.306042624597293  0.4647844889462314 1.222718290358298 1.725376484616937  </DataArray>
</Points>
<Cells>
<DataArray  type="UInt32"  Name="connectivity"  format="ascii">0 1 2 3  4 5 6 7  4 5 6 8  6 7 9 10  0 4 11 12  3 4 7 9  6 7 10 13  0 1 4 11  4 6 8 11  7 14 13 15  5 8 16 17  0 1 3 4  1 3 4 9  3 7 18 9  6 7 19 13  1 2 20 21  1 4 9 11  5 22 16 17  7 14 19 13  3 4 5 7  4 6 7 9  3 4 5 23  0 4 12 23  4 5 12 23  5 7 14 24  5 12 22 17  1 2 25 21  6 19 13 16  0 1 2 20  0 3 4 23  0 2 3 26  0 3 23 26  18 27 9 10  5 23 24 28  0 11 12 20  5 7 14 19  5 6 7 19  3 7 29 24  3 7 18 29  0 1 11 20  4 5 8 12  4 8 11 12  3 5 7 24  3 5 23 24  11 12 20 17  4 6 9 11  7 18 9 10  7 10 13 15  5 8 19 16  6 8 19 16  5 6 8 19  5 8 12 17  8 11 12 17  </DataArray>
<DataArray  type="UInt32"  Name="offsets"  format="ascii">4 8 12 16 20 24 28 32 36 40 44 48 52 56 60 64 68 72 76 80 84 88 92 96 100 104 108 112 116 120 124 128 132 136 140 144 148 152 156 160 164 168 172 176 180 184 188 192 196 200 204 208 212 </DataArray>
<DataArray  type="UInt8"  Name="types"  format="ascii">10 10 10 10 10 10 10 10 10 10 10 10 10 10 10 10 10 10 10 10 10 10 10 10 10 10 10 10 10 10 10 10 10 10 10 10 10 10 10 10 10 10 10 10 10 10 10 10 10 10 10 10 10 </DataArray>
</Cells>
<CellData  Scalars="f">
<DataArray  type="Float64"  Name="f"  format="ascii">2 2 2 3 3 2 3 3 3 2 2 2 2 2 3 3 3 2 2 2 3 2 2 2 2 2 3 3 3 2 2 2 3 2 3 2 2 2 2 3 2 3 2 2 3 3 3 3 2 3 2 2 3 </DataArray>
</CellData>
</Piece>
</UnstructuredGrid>
</VTKFile>