<?xml version="1.0"?>
<VTKFile type="UnstructuredGrid"  version="0.1"  >
<UnstructuredGrid>
<Piece  NumberOfPoints="26" NumberOfCells="52">
<Points>
<DataArray  type="Float64"  NumberOfComponents="3"  format="ascii">1.157225533554486 -0.557645663691798 2.6634089496916  0.8314696123025456 -0.5555702330196017 2.531509163349302  0.9579954471492395 -0.2702183339099079 2.60999222922397  0.9370351277853799 -0.3393152467708075 2.235031275832076  1.295725324823253 -0.139469752160702 2.675694683882688  0.9961291647000609 0.03930125034265278 2.366149253747398  0.9961291647000609 0.03930125034265268 2.644899764220374  1.467694350291765 -0.251631636679377 2.391948981687476  1.505099855798953 -0.5784556841769523 2.617920706697614  1.406312500063851 -0.519018134215518 3  1.334881933157432 -0.2657950447011849 3  0.9884711682419383 -0.1170541932096764 3  1.497058853128168 -0.05861660571545971 3  1.670567549696843 0.2856369856662641 2.703176839502749  1.270170102859987 0.2094753273902723 2.691490875233663  1.340566720707703 0.1314059989472456 3  0.9951802512173802 -0.04893573061540975 2.071059000858836  1.373199007690748 -0.07088942277561612 2.072909093853512  1.329644016801523 -0.7148664512826449 2.196512634839139  1.225354387501196 -0.4131867490015729 2.04310263419407  1.568024024482216 -0.4128773890885717 1.95366538225923  0.9053975484695387 -0.4172607924959917 3  1.671430039097014 -0.1851805014878861 2.677115681997409  1.597496237632134 -0.3175570153254815 3  1.461407354084697 0.3188625083491338 2.451301070500147  1.651877234927607 0.04661358185998513 2.316529382948543  </DataArray>
</Points>
<Cells>
<DataArray  type="UInt32"  Name="connectivity"  format="ascii">0 1 2 3  2 4 5 6  2 3 5 7  2 4 5 7  0 8 9 10  2 4 6 11  12 13 14 15  0 2 3 7  16 3 5 17  0 7 18 19  7 19 20 17  0 2 4 21  2 4 11 21  12 22 10 23  4 5 6 14  7 18 19 20  24 4 5 7  4 6 14 11  0 1 2 21  25 24 22 13  25 24 7 17  16 3 19 17  3 7 19 17  12 4 11 10  8 9 10 23  0 8 7 18  0 9 10 21  3 5 7 17  24 5 7 17  12 4 15 11  4 14 15 11  25 7 20 17  4 11 10 21  0 2 4 7  0 3 7 19  24 4 5 14  24 13 4 14  12 13 4 14  12 4 14 15  12 22 13 4  12 22 4 10  22 4 10 23  22 4 8 23  22 4 8 7  25 22 4 7  25 24 4 7  25 24 22 4  24 22 13 4  0 4 8 7  0 4 8 10  0 4 10 21  4 8 10 23  </DataArray>
<DataArray  type="UInt32"  Name="offsets"  format="ascii">4 8 12 16 20 24 28 32 36 40 44 48 52 56 60 64 68 72 76 80 84 88 92 96 100 104 108 112 116 120 124 128 132 136 140 144 148 152 156 160 164 168 172 176 180 184 188 192 196 200 204 208 </DataArray>
<DataArray  type="UInt8"  Name="types"  format="ascii">10 10 10 10 10 10 10 10 10 10 10 10 10 10 10 10 10 10 10 10 10 10 10 10 10 10 10 10 10 10 10 10 10 10 10 10 10 10 10 10 10 10 10 10 10 10 10 10 10 10 10 10 </DataArray>
</Cells>
<CellData  Scalars="f">
<DataArray  type="Float64"  Name="f"  format="ascii">2 2 2 2 2 2 2 2 2 2 2 2 2 2 2 2 2 2 2 2 2 2 2 2 2 2 2 2 2 2 2 2 2 2 2 2 2 2 2 2 2 2 2 2 2 2 2 2 2 2 2 2 </DataArray>
</CellData>
</Piece>
</UnstructuredGrid>
</VTKFile>