<?xml version="1.0"?>
<VTKFile type="UnstructuredGrid"  version="0.1"  >
<UnstructuredGrid>
<Piece  NumberOfPoints="32" NumberOfCells="53">
<Points>
<DataArray  type="Float64"  NumberOfComponents="3"  format="ascii">0.4443099137545717 -1.629069757836743 1.49943402743056  0.2355468326973051 -1.976800661891307 1.867626148715342  0.1254157448558533 -1.703756195858605 1.588785014067285  0.3805775488420485 -1.962516383128317 1.496847999729285  0.1021569525316506 -1.327805660959527 1.653761852414816  0.1825353671571631 -1.449660084558329 1.338705133025003  0.02082006329791752 -1.710709865751513 1.203182801737701  -0.05339583133012425 -1.994740969638874 0.9837095761186229  0.1922639486628559 -1.643987499174081 0.9224333582651919  0.2923638439165652 -1.971204674721763 1.130906188940025  0.4927506055834525 -1.603916414605352 1.164357972639447  -0.09067192459746451 -1.991069594901301 0.7370700840091073  0.1412329740125325 -1.9860897661892 0.8288815456926253  0.5008599238356093 -1.41435896777325 0.8102226109784102  0.1225121416717126 -1.277591265884165 1.003367433258137  0.1549142625105386 -0.9847422768852969 1.663462742699079  0.03930125034265457 -0.9961291647000607 1.913127150561488  -0.1001116010720892 -0.9901398679180773 1.559727400289164  0.6374322841645239 -1.886567595755861 1.814272024545088  0.6870330808033569 -1.871521358591189 1.38108905317057  0.781499263791819 -1.839136118074525 1.05609281052021  0.3805775488420486 -1.962516383128317 0.7649643781507658  0.1666558328843934 -1.549864895007343 1.91279759807228  0.4900224729062127 -1.618213138855729 1.965515523460702  0.5238237203988727 -1.388038725607619 1.724904091630777  0.07996573517703856 -1.992124062521926 1.37630983427414  0.2477625217914785 -1.239771052565929 2.035833713489379  0.7002180092698143 -1.86752175426729 0.7322883312125787  0.8485002008188643 -1.429461788386965 0.9449229369154447  0.3640039983156202 -0.9295458768818553 1.492983459038144  0.1164685713061415 -0.9885288469650542 1.392686278619681  0.9674222440721738 -1.739758214685516 1.521144800278962  </DataArray>
</Points>
<Cells>
<DataArray  type="UInt32"  Name="connectivity"  format="ascii">0 1 2 3  0 2 4 5  6 7 8 9  10 0 5 6  7 8 11 12  13 10 14 8  7 8 9 12  15 4 16 17  0 3 18 19  10 9 20 21  10 0 3 19  10 9 20 19  0 3 6 9  0 1 3 18  0 2 22 23  10 8 9 21  8 9 12 21  1 2 22 23  24 0 23 18  10 0 6 9  10 6 8 9  0 1 23 18  14 5 6 8  10 5 6 8  1 2 3 25  0 1 2 23  15 4 16 26  0 2 5 6  10 3 9 19  24 0 4 22  24 0 22 23  0 2 4 22  13 10 8 21  13 10 21 27  13 10 20 27  24 26 22 23  10 20 21 27  10 14 5 8  13 10 28 20  24 0 4 5  10 0 3 9  13 28 20 27  29 15 4 30  29 15 24 4  15 4 17 30  24 4 26 22  15 24 4 26  0 18 19 31  24 0 18 31  6 7 9 25  3 6 9 25  2 3 6 25  0 2 3 6  </DataArray>
<DataArray  type="UInt32"  Name="offsets"  format="ascii">4 8 12 16 20 24 28 32 36 40 44 48 52 56 60 64 68 72 76 80 84 88 92 96 100 104 108 112 116 120 124 128 132 136 140 144 148 152 156 160 164 168 172 176 180 184 188 192 196 200 204 208 212 </DataArray>
<DataArray  type="UInt8"  Name="types"  format="ascii">10 10 10 10 10 10 10 10 10 10 10 10 10 10 10 10 10 10 10 10 10 10 10 10 10 10 10 10 10 10 10 10 10 10 10 10 10 10 10 10 10 10 10 10 10 10 10 10 10 10 10 10 10 </DataArray>
</Cells>
<CellData  Scalars="f">
<DataArray  type="Float64"  Name="f"  format="ascii">3 2 3 2 3 2 3 2 3 3 3 3 3 3 2 3 3 2 2 3 3 3 2 2 3 3 2 2 3 2 2 2 2 2 2 2 3 2 2 2 3 2 2 2 2 2 2 3 2 3 3 3 3 </DataArray>
</CellData>
</Piece>
</UnstructuredGrid>
</VTKFile>