<?xml version="1.0"?>
<VTKFile type="UnstructuredGrid"  version="0.1"  >
<UnstructuredGrid>
<Piece  NumberOfPoints="28" NumberOfCells="53">
<Points>
<DataArray  type="Float64"  NumberOfComponents="3"  format="ascii">-1.230947643491196 0.8176538316399466 1.805737396756329  -1.458253475485442 0.7179109713450691 1.446858482212952  -1.332861560589527 1.031877019211556 1.55094688052432  -1.102503165573828 0.9305784620941925 1.310385370874145  -0.959866315318026 0.9405257741639269 1.626839118754434  -0.892990212372111 1.21769769929962 1.825057446330698  -0.8820462338257501 0.460948029436811 1.506002633699789  -0.6063260378053834 0.7898153998034148 1.360921506343469  -1.025539932059421 1.252856230816483 1.479334304136633  -1.4721675795117 1.343596388167719 1.618925523222353  -1.148333263155938 1.632415884839794 1.78015986768522  -1.244442521979935 1.553541054520678 1.478755947660962  -1.175934197438558 1.609764383466992 1.145300421014613  -1.033643812175094 1.704362049094382 1.368988998214624  -1.672031258210054 1.094130467568752 1.503148845658035  -1.638874003421083 1.140464022895973 1.869087621001219  -1.25543923261207 0.4266477155525202 1.530718952541371  -1.416794453136306 0.8959934799664772 1.134827001072054  -1.407451935737898 1.419762685944103 1.94387714301358  -0.844926995554161 1.068622128813088 1.069123252014927  -0.7055764457917805 1.317597013421202 1.301115225193525  -1.772518719756024 0.9061316499814949 1.723462302473687  -0.7776421256809075 0.6211592152416074 1.155195246109528  -1.480986984530375 1.332849912058876 1.261931321708856  -1.160136507076256 1.085340793162865 2.131518943889536  -1.183147165165283 1.093160462193829 0.9268828513999143  -1.325295674960669 1.487186586697765 0.8594457826546948  -0.8721315865875905 1.790692132263099 1.582747669094182  </DataArray>
</Points>
<Cells>
<DataArray  type="UInt32"  Name="connectivity"  format="ascii">0 1 2 3  4 5 0 2  4 3 6 7  8 9 10 11  8 11 12 13  2 9 14 15  4 0 3 16  1 2 14 17  2 9 15 18  19 8 12 20  0 1 2 21  4 5 2 8  4 2 3 8  19 3 7 22  4 0 2 3  1 2 3 17  19 4 8 20  2 9 14 23  5 0 2 24  3 6 7 22  2 14 17 23  2 3 17 23  0 2 15 24  4 3 6 16  19 4 7 20  2 3 8 23  2 8 9 23  5 2 18 24  5 8 9 18  5 2 9 18  25 12 23 26  5 2 8 9  8 10 13 27  8 13 20 27  8 12 13 20  8 9 11 23  3 8 25 23  8 25 12 23  8 11 12 23  2 15 18 24  19 8 25 12  19 3 8 25  0 1 3 16  3 25 17 23  0 2 15 21  5 8 10 18  8 9 10 18  5 8 10 27  19 4 3 7  19 4 3 8  1 2 14 21  2 14 15 21  8 10 11 13  </DataArray>
<DataArray  type="UInt32"  Name="offsets"  format="ascii">4 8 12 16 20 24 28 32 36 40 44 48 52 56 60 64 68 72 76 80 84 88 92 96 100 104 108 112 116 120 124 128 132 136 140 144 148 152 156 160 164 168 172 176 180 184 188 192 196 200 204 208 212 </DataArray>
<DataArray  type="UInt8"  Name="types"  format="ascii">10 10 10 10 10 10 10 10 10 10 10 10 10 10 10 10 10 10 10 10 10 10 10 10 10 10 10 10 10 10 10 10 10 10 10 10 10 10 10 10 10 10 10 10 10 10 10 10 10 10 10 10 10 </DataArray>
</Cells>
<CellData  Scalars="f">
<DataArray  type="Float64"  Name="f"  format="ascii">2 2 2 3 3 3 2 3 3 2 2 2 2 2 2 2 2 3 2 2 3 2 2 2 2 2 3 2 2 2 3 2 3 2 2 3 2 3 3 3 2 2 2 2 2 2 3 2 2 2 3 3 3 </DataArray>
</CellData>
</Piece>
</UnstructuredGrid>
</VTKFile>