<?xml version="1.0"?>
<VTKFile type="UnstructuredGrid"  version="0.1"  >
<UnstructuredGrid>
<Piece  NumberOfPoints="30" NumberOfCells="54">
<Points>
<DataArray  type="Float64"  NumberOfComponents="3"  format="ascii">-0.6571924400077004 -1.132942709121853 0.2777506580342663  -0.477034786316047 -1.434737795423532 0.6100050385611827  -0.07999978958043799 -1.32601206611405 0.2980872037322101  -0.2702183339099049 -0.9579954471492403 0.4637058108451387  -0.4172607924959886 -0.9053975484695405 0  0.1225121416717126 -1.277591265884165 1.003367433258137  0.03930125034265457 -0.9961291647000606 0.7268684015262323  -0.1165581619143174 -0.9885200230603273 1.180135402155414  0.3077697302541748 -0.9466043556033813 0.9610693252871769  0.2501934646059933 -1.24885304619393 0.6598587190296312  -0.1597412751727726 -1.314488294550709 0.7106169361566651  -0.4815816036293408 -0.871017358645376 0.728879522819906  -0.229929915231689 -0.9702168053430612 0.7309149559182833  -0.31496024115303 -0.944423137968771 0.9927145489753666  -0.3869777352155326 -1.446196857513344 0  0.3448925070327128 -0.9353432843813161 0.463504082372962  0.06049353073874015 -1.685042099785589 0.2673914529575276  0.08114472573962614 -1.520582054345446 0.5577751558120352  0.3055479189482405 -1.298395155588183 0.3322665218640753  0.1922639486628559 -1.643987499174081 0.9224333582651919  -0.1170541932096738 -0.9884711682419386 0  -0.8100995776433193 -1.247237953441347 0  -0.676799471553154 -0.7319793474097507 0  0.1950903220161306 -0.9807852804032298 0  0.03930125034265476 -0.9961291647000605 0.3886819100978383  -0.1781048351034047 -1.512718633412544 1.000838964097707  0.0514852044923706 -1.484500497547712 0  -0.555570233019598 -0.8314696123025476 0.3889995797975083  -0.4164114630926857 -1.270321899080475 0.9379339257406052  0.1164685713061415 -0.9885288469650542 1.392686278619681  </DataArray>
</Points>
<Cells>
<DataArray  type="UInt32"  Name="connectivity"  format="ascii">0 1 2 3  0 2 3 4  5 6 7 8  5 9 10 6  1 3 11 12  5 10 7 13  0 2 4 14  5 10 6 12  9 6 8 15  1 3 10 12  2 16 17 18  5 19 17 10  2 3 4 20  5 9 6 8  0 4 21 22  2 18 23 24  0 1 3 11  5 19 10 25  2 26 20 23  2 17 9 18  0 4 21 14  2 20 23 24  2 26 18 23  0 3 4 27  0 4 27 22  5 17 9 10  15 18 23 24  0 3 11 27  5 10 12 13  2 4 14 20  2 26 14 20  5 6 7 13  2 3 20 24  2 26 16 18  1 28 11 12  5 6 12 13  5 7 8 29  1 2 3 10  3 10 6 24  3 10 6 12  2 3 10 24  1 10 28 12  10 28 12 13  10 28 7 13  5 10 28 7  5 10 25 28  1 10 25 28  28 11 12 13  2 17 9 10  2 9 10 24  9 10 6 24  9 6 15 24  9 15 18 24  2 9 18 24  </DataArray>
<DataArray  type="UInt32"  Name="offsets"  format="ascii">4 8 12 16 20 24 28 32 36 40 44 48 52 56 60 64 68 72 76 80 84 88 92 96 100 104 108 112 116 120 124 128 132 136 140 144 148 152 156 160 164 168 172 176 180 184 188 192 196 200 204 208 212 216 </DataArray>
<DataArray  type="UInt8"  Name="types"  format="ascii">10 10 10 10 10 10 10 10 10 10 10 10 10 10 10 10 10 10 10 10 10 10 10 10 10 10 10 10 10 10 10 10 10 10 10 10 10 10 10 10 10 10 10 10 10 10 10 10 10 10 10 10 10 10 </DataArray>
</Cells>
<CellData  Scalars="f">
<DataArray  type="Float64"  Name="f"  format="ascii">2 2 2 2 2 2 2 2 2 2 2 2 2 2 2 2 2 2 2 2 2 2 2 2 2 2 2 2 2 2 2 2 2 2 2 2 2 2 2 2 2 2 2 2 2 2 2 2 2 2 2 2 2 2 </DataArray>
</CellData>
</Piece>
</UnstructuredGrid>
</VTKFile>