<?xml version="1.0"?>
<VTKFile type="UnstructuredGrid"  version="0.1"  >
<UnstructuredGrid>
<Piece  NumberOfPoints="190" NumberOfCells="679">
<Points>
<DataArray  type="Float64"  NumberOfComponents="3"  format="ascii">-1.146527028962373 1.167114312334814 0  -0.9184143406250429 1.15951227012599 0.181890248271007  -1.117408632183515 1.349324948359656 0  -1.127667895979856 1.429138092744414 0.1957268739948787  -0.843554369120634 1.571972381406213 0.1893355977975628  -1.023406865707073 1.709833810979671 0  -1.105932760739799 1.665722801080373 0.2684407995307424  -0.6404454764412717 1.557452185064736 0.3229483011552194  -0.6049140089552396 1.896431906697228 0.3184572261395962  -0.5174396855537765 1.720603924206695 0.4455678853971146  -0.6789195424108355 1.679413385346867 0.172716471184192  -1.297015254039048 1.200330857140984 0.198215552709849  -1.513321347298536 1.293450377028231 0.318300028577906  -1.577555788316503 1.215180484183664 0  -1.466118612717564 1.06068664004738 0.1854634457573004  -1.417954567522155 0.9826958282046394 0  -1.687765770332819 1.064693265863353 0  -1.776037932920274 0.899547665238146 0  -1.538403791801157 0.8564673244602555 0.1943213337786517  -0.3365162964824625 0.9378841800729312 0.2405432884014713  -0.4415185705098927 1.234655578466227 0.3250771953421422  -0.5209854872342006 1.060897459510266 0.207962911636449  -0.3313057231869522 0.9394647902018173 0.5  -1.264272254491768 1.537267213620411 0.5235172542791873  -1.237771957270619 1.559015445500463 0.7085720153548473  -1.382377160656424 1.440341022038268 0.687926620973708  -1.192571215110794 1.302722308512609 0.4782864723562278  -0.8092614669963184 1.031632698922229 0.6791456875279881  -0.747028838074304 0.9125730243322504 0.8266226570201092  -0.984599909939442 1.149923132667671 0.7848661116286425  -0.9141816130997213 0.7634549129288799 0.8251041360935342  -0.867837335236696 0.8425368172721063 0.5309559614124686  -0.6564424890631831 0.7486858911845402 0.7578281535473971  -0.631840153311841 0.7688765063405124 0.5362539270910898  -0.688391004567446 1.30457807950404 0.2279694399321673  -0.632518690427178 1.508037302070591 0  -0.5246326138228607 1.437575172319297 0.1874291779963437  -1.162812384258729 0.869959537678654 0.1967137241630482  -1.098472765100997 1.059915202872253 0.2606957431243106  -1.34993589569112 0.9730419110075272 0.3324974874943423  -0.786137885070551 0.6108071024727797 0.5  -1.027957718484444 0.807486031122658 0.3458033622348064  -1.052829203020905 0.5589047274949172 0.5085767754743842  -1.190015801986949 0.4859549610262058 0.2855300420029705  -1.156663002991701 0.588550599634463 0  -1.391582474002526 0.487267687798005 0.2096997911392877  -1.351229656953599 0.5151732646136987 0  -0.7757759682718035 1.842195283264311 0.2279005027763657  -0.7757759682718033 1.842195283264311 0.409013949502827  -0.502990862578652 0.859573871324515 0.3047494630173089  -1.061606909442319 0.9785837600988989 0  -1.315004706961013 0.6972167789990056 0.7557377227898123  -1.232115836721338 0.7631644816213363 1  -1.341896336811819 0.9405672826140373 1  -1.519741993526035 0.8886244139057863 1  -0.686969743987339 1.871540571604279 0  -0.7259496343859416 0.6841466981309493 1  -1.026493956220598 0.7984228743741494 1  -0.8426708147520899 0.5346142571826912 1  -1.24261630433174 0.4137133052539228 0.6762314288941822  -0.88740992893716 0.4509132616824052 0.6953011277941856  -0.947388990623786 0.3051831352366393 0.5363564105802381  -0.3992359231948405 1.264547218604192 0.6584240094702515  -0.5717031409302165 1.095411659227544 0.7615148223574963  -0.5307010043682088 1.3826952685512 0.785767467294626  -0.729538575546018 1.293711139943365 0.7838102578313236  -0.7951415571745835 1.035950760589855 0.3163792525461149  -0.7096214621866395 1.292436199645492 0.5012219118924913  -0.9057171194088783 1.167072336234832 0.4757488249981465  -0.5897572390507918 1.041671125967472 0.5035706790610246  -1.314905435161327 0.6745560659922012 0.4904638895724882  -1.082991713996318 0.5611808793048219 0.7692622717403119  -1.059160609976377 0.7755841138468872 0.6725939498558352  -0.8710834293743044 1.505323501426417 0.4555006884842235  -1.105932760739799 1.665722801080372 0.4985114786665089  -0.8055581621776347 1.507858556983968 0.6786829354555336  -0.9261071527929903 1.761841591057063 0.523708165574422  -0.9290527823196455 0.3656295132424565 1  -1.257212323284817 1.543061149426666 0.3183000285779041  -1.323743981377913 1.488460028710997 0  -1.395988323856183 1.429170629081718 0.2278152199502795  -0.9341416419748636 1.757547067117675 0.3184572261395966  -0.9856468025470075 1.360627069214379 0.677554604785177  -1.201967891204917 0.876419588486421 0.481981018650006  -1.109788677070211 1.078120207642546 0.5482802068902228  -1.43290247623816 1.102502474805115 0.8016223533815361  -1.625681761742057 1.156538815892274 0.729852265836384  -1.382702032230889 0.9409546224454185 0.6727156764281601  -1.723626336383972 0.9976028656093632 0.7650330778500383  -1.308120441486432 0.7203201397046752 0.2251752624482485  -1.234622620676914 0.8484318635280916 0  -1.49971092276425 0.6607539289614928 0  -1.358753583540909 0.4331344014522989 0.4586164123344102  -1.557364917173048 0.7833533360165803 0.4519990588587856  -1.501461285193593 0.980762205338028 0.5025361493182261  -0.7120164604963927 1.653427389927467 0.5133392593030189  -0.6072692169943243 1.895717462149367 0.5362964439456972  -0.829538772807962 1.24650646003822 0  -1.155399090771521 0.9863986739672237 0.7842371480028336  -0.6715976806087487 0.9382906322624599 0.2026049840720276  -1.735554095143283 0.9752875985231242 0.3176742093519687  -1.820074272553177 0.8171614684481179 0.2274378431626041  -1.50754886084441 1.300484172123991 0.5233657346304179  -1.503511147564677 1.30540413999066 0.759039402697864  -1.566418818365817 1.228750921332943 1  -0.5831223326863202 0.8088581884632724 0  -0.7259496343859416 0.6841466981309493 0  -0.8777650763659706 0.8392187700021254 0.1791968347231586  -1.08750656824373 1.473373412162729 0.4186198326001243  -1.447624472225162 1.37350225092525 1  -0.836286829552076 0.9546547382372724 1  -1.598442001919816 0.8131212705610243 0.8005177185861571  -1.7677624176777 0.9150300652967593 1  -1.679490255090245 1.080175665921967 1  -1.001523373036278 1.311368911517147 0.3182110729693932  -0.9546612534662056 1.436284063075672 0  -1.081385764646495 1.38355427730711 1  -1.215281538736748 1.23842223823042 0.7322010707000174  -1.090347441409376 1.674053327819833 0.7298514348497547  -0.9253516653358563 1.762245407515972 0.7647596514128244  -0.6561306764426973 1.122404365790671 1  -0.5831223326863202 0.8088581884632724 1  -1.033708622788163 1.501105289131701 0.8095881280656126  -0.8326984114354637 1.541357275927116 1  -1.65956562518322 0.6779485992594181 0.1896533736052345  -0.859137602666504 1.164403067154992 1  -0.3346493386806206 1.523066756827354 0.432978452806852  -0.4252082943158828 1.690757594369593 0.2517423600102111  -1.157675661796024 0.2874316557483794 0.8237284357888865  -1.132192252194075 0.5760415911141321 1  -1.250327345612778 0.359966722685725 1  -0.6564424890631833 0.7486858911845402 0.2421718464526029  -1.015880871007985 0.6194584810981399 0.2107616280594863  -0.88740992893716 0.4509132616824052 0.3046988722058144  -1.341242197725124 1.124251621324452 1  -1.570108367541714 0.5323200146201426 0.3214131146464111  -1.395988323856182 1.429170629081719 0.4087848372055307  -1.460830652517014 1.031080833577986 1  -0.4431978912794227 1.258461435479526 0  -0.8426708147520899 0.5346142571826912 0  -1.003191405728223 0.7802335023438158 0  -1.111399709213698 0.3143340114943649 0.3936982570693697  -0.3525296771925283 1.668146412112005 0  -0.5077763251465404 1.925898300933896 0  -0.8582612650818664 1.798105973567126 0  -1.564690195006766 0.6196325639107423 0.6892222911693506  -1.007924465648459 1.718109326222245 1  -1.044995883534605 1.072574953573793 1  -0.510994707505987 1.404217254440446 0.5163700951909265  -0.9566144206959937 0.2747709680011161 0.7579149180877363  -1.346016855126876 1.122799247643388 0.5201991910084716  -1.739883507367786 0.9671878379506875 0.5226731680922776  -1.811833783889858 0.8325783383860297 0.6875310263852326  -1.198818116171656 1.24025052295321 1  -1.310173544228634 1.499596998661683 1  -0.7896033500135112 0.6065844212219812 0.7595504241117756  -0.5790841934569149 1.560047235753897 0.6688754989314865  -0.4193563900796843 0.9042774282245836 0  -0.502990862578652 0.859573871324515 0.6952505369826911  -1.857951139271881 0.7317680986975148 0  -0.9819498088636408 0.1832666661363625 1  -1.458761442175848 1.359931813775971 0  -0.9290527823196455 0.3656295132424565 0  -0.6409506341987898 1.096351193148543 0  -1.370317109984933 0.6068829405856371 1  -1.636811764939919 1.142976867755874 0.2684766850732475  -0.854850831960664 0.9759153804258832 0  -1.178992651785606 1.607254374851652 0  -0.5702152500099751 1.383891866592444 1  -0.4213746699951029 1.196244977459891 1  -0.2405674396764836 0.9669899475809407 0  -0.3177026153873686 1.177369199564174 0  -1.573062635283103 0.710522813525687 1  -0.8967436892907179 1.368269408810351 1  -0.7036168792142508 1.675069862734098 0.8042164232910654  -0.8427788650232531 1.8063814888097 1  -0.7827528258206699 0.6149318091030841 0.3055073908801145  -0.6560191600603796 1.594701905386204 1  -0.9772470823615382 1.495419026301591 1  -1.165422214636327 1.618391344802338 1  -0.5821061254012698 1.903350602533428 0.7233926634179388  -0.6701703609710137 1.87663660872893 1  -0.7597161751969241 1.849473182952581 0.6880608757141868  -1.636811764939919 1.142976867755873 0.4985204057412241  -1.663935857491406 0.5750728785195803 0  -1.222473603421901 0.3518873350067027 0  -0.9566144206959937 0.2747709680011161 0.2420850819122637  -1.820074272553176 0.817161468448121 0.4079105755413405  -0.4193563900796843 0.9042774282245836 1  -1.46295663988695 0.3280486082887119 0  </DataArray>
</Points>
<Cells>
<DataArray  type="UInt32"  Name="connectivity"  format="ascii">0 1 2 3  3 4 5 6  7 8 9 10  11 12 13 14  15 16 17 18  19 20 21 22  23 24 25 26  27 28 29 30  27 31 32 33  4 34 35 36  11 37 38 39  31 40 41 42  43 44 45 46  8 10 47 48  19 21 22 49  0 37 38 50  51 52 53 54  8 10 47 55  4 7 10 35  30 56 57 58  59 42 60 61  62 63 64 65  66 67 68 69  42 70 71 72  73 74 75 76  58 60 71 77  3 78 79 80  14 15 16 18  4 5 6 81  27 29 68 82  31 41 83 84  85 86 87 88  18 89 90 91  43 42 70 92  11 14 15 37  70 83 93 94  9 48 95 96  0 1 2 97  52 57 72 98  33 49 69 99  17 18 100 101  85 86 102 103  85 86 103 104  99 105 106 107  65 67 75 82  73 74 81 108  85 103 104 109  28 30 56 110  54 111 112 113  34 67 68 114  26 68 82 84  23 24 26 82  4 34 114 115  29 82 116 117  83 84 87 98  75 76 118 119  48 76 81 95  28 110 120 121  75 119 122 123  73 74 82 108  17 18 124 91  27 28 120 125  20 21 34 69  7 9 126 127  128 77 129 130  49 99 105 131  21 22 49 69  24 82 118 122  31 41 42 72  13 14 15 16  27 65 120 125  43 42 132 133  85 104 109 134  31 33 66 131  124 45 89 135  73 82 108 114  24 25 26 117  43 45 70 89  43 41 42 132  11 26 80 136  53 85 134 137  73 74 75 82  18 39 93 94  34 35 36 138  88 111 112 113  41 42 72 83  44 132 139 140  1 34 114 115  106 107 132 139  43 42 141 133  124 45 89 91  26 68 84 114  10 55 142 143  53 54 85 137  51 52 72 98  10 47 55 144  11 12 14 39  43 44 45 89  24 26 82 117  145 70 87 93  119 122 123 146  67 73 75 82  34 35 97 138  74 75 76 118  30 57 110 147  43 41 89 132  7 9 95 148  128 149 71 77  31 66 107 131  8 10 127 143  0 2 11 79  33 66 99 131  66 99 107 131  42 60 71 72  29 110 125 147  53 98 134 147  85 104 113 137  4 47 81 144  27 63 65 120  42 61 141 133  21 49 69 99  1 34 97 115  85 103 117 150  15 17 18 91  107 132 139 140  93 111 151 152  42 70 72 83  43 42 92 141  51 70 72 83  21 66 69 99  4 7 10 81  116 117 153 154  31 40 72 155  53 54 85 87  9 156 95 148  31 32 33 40  87 88 94 111  43 44 89 132  86 88 94 151  51 52 53 98  39 70 83 93  4 10 47 144  86 87 88 94  1 34 66 68  51 59 145 70  99 106 107 131  21 99 105 157  0 2 3 11  83 84 87 150  24 25 117 154  27 28 33 158  28 63 120 121  37 44 132 140  31 40 42 72  15 18 90 91  27 65 68 82  59 128 71 130  85 86 104 113  93 94 100 151  1 2 3 115  1 2 97 115  7 9 48 95  84 98 117 150  38 68 84 114  0 1 50 97  21 34 66 69  27 33 69 158  16 17 18 100  52 57 98 147  17 124 91 159  25 26 102 136  23 25 26 136  39 83 93 94  8 10 55 143  37 38 50 107  75 118 119 122  7 10 48 81  21 34 66 99  128 160 149 77  4 7 34 36  9 156 95 96  10 47 48 81  0 11 15 161  21 49 99 157  14 15 18 39  162 132 133 139  19 21 49 157  106 107 139 140  34 66 99 163  128 160 77 130  27 66 68 69  11 12 26 136  51 164 52 54  12 13 14 165  85 104 134 137  3 4 5 115  106 107 140 166  51 164 71 129  40 42 72 155  3 5 115 167  30 56 57 110  64 65 120 168  64 169 120 168  52 53 98 147  23 26 78 108  7 8 10 48  4 34 97 115  59 164 71 129  87 93 94 111  11 12 13 161  88 111 112 152  21 170 157 171  19 21 170 157  19 21 170 171  19 20 21 171  31 33 66 69  11 12 80 136  51 164 54 172  27 31 72 84  85 87 94 150  21 138 157 171  38 39 83 84  33 66 69 99  70 83 87 94  20 21 34 138  20 21 138 171  21 105 157 163  21 138 157 163  21 34 138 163  51 59 164 71  11 13 15 161  51 145 70 87  54 85 111 113  31 41 66 107  3 26 78 80  29 116 125 173  37 50 107 140  21 99 105 163  85 86 87 94  50 107 140 166  29 116 147 153  31 41 72 83  174 123 146 175  3 4 6 108  22 33 69 158  41 42 132 176  22 33 49 69  28 32 56 121  118 119 122 146  64 65 177 168  4 5 81 144  30 57 58 129  28 63 121 158  122 146 178 179  156 95 96 180  3 26 78 108  34 66 67 68  145 70 92 135  26 84 117 150  26 82 84 117  0 11 37 38  85 86 88 113  25 26 117 150  3 11 79 80  23 24 82 108  27 30 31 72  51 70 83 87  3 4 114 115  174 177 123 175  174 177 181 175  174 181 175 182  7 73 81 95  14 16 18 165  27 31 33 69  16 18 100 165  4 34 73 114  39 70 89 93  156 64 67 148  65 120 125 168  34 67 73 114  28 110 120 125  65 125 168 173  0 1 38 114  174 119 123 146  28 30 31 32  174 119 146 175  174 119 175 182  11 13 14 15  29 82 84 117  51 52 71 72  18 124 89 135  63 64 169 120  83 87 94 150  29 68 82 84  3 11 26 114  145 70 135 93  162 43 44 132  162 44 132 139  43 41 42 70  3 11 26 80  8 9 48 96  31 107 131 176  59 128 149 71  59 71 129 130  94 100 165 183  51 72 83 87  14 18 100 165  13 14 16 165  2 3 11 79  23 26 78 136  54 85 113 137  59 149 60 61  59 164 129 130  45 46 91 184  20 34 67 69  34 66 67 69  30 32 56 155  30 56 58 155  23 24 74 108  85 102 103 150  7 9 10 127  37 107 132 140  1 3 114 115  27 67 68 69  43 44 46 185  20 21 22 69  85 87 117 150  48 95 96 182  156 174 180 182  149 60 71 77  98 134 147 153  51 70 71 72  85 87 88 111  85 88 111 113  162 43 186 133  162 43 44 185  7 48 81 95  10 35 55 144  7 36 126 127  59 42 92 141  0 1 3 114  14 15 37 39  27 65 67 68  38 41 83 84  4 34 35 97  156 65 67 75  27 28 63 120  65 177 123 168  65 123 168 173  34 97 138 163  64 65 174 177  38 41 66 107  40 42 60 155  40 42 60 61  40 42 61 133  28 32 121 158  28 30 32 56  27 28 63 158  28 29 110 125  42 60 72 155  94 100 151 183  0 11 38 114  12 102 150 183  11 79 80 161  11 12 80 161  0 11 79 161  174 181 180 182  116 122 178 179  7 9 126 148  93 187 151 152  6 74 78 108  26 78 80 136  73 74 76 81  43 41 70 89  15 37 89 90  28 32 33 158  7 34 67 73  27 28 29 125  63 169 188 120  88 94 111 151  4 7 73 81  4 6 73 81  4 7 34 73  4 35 115 144  4 5 115 144  4 35 97 115  15 18 39 89  15 18 89 90  44 46 89 90  46 89 90 91  11 14 37 39  18 39 89 93  18 93 100 101  93 100 101 187  93 100 187 151  18 89 135 93  70 89 135 93  3 6 78 108  85 86 94 150  51 164 52 129  44 45 46 89  45 46 189 184  45 46 89 91  25 102 103 117  25 103 109 117  85 103 109 117  85 109 117 134  109 117 134 153  109 117 153 154  25 109 117 154  33 49 99 131  29 82 116 173  51 52 71 129  24 122 154 179  28 56 110 121  24 118 122 179  116 122 154 179  72 83 87 98  87 98 117 150  156 95 180 182  51 53 87 98  51 72 87 98  1 34 66 163  1 34 97 163  1 34 68 114  1 38 68 114  162 43 132 133  30 31 32 155  31 32 40 155  30 31 72 155  3 6 78 167  3 5 6 167  30 98 110 147  30 57 98 147  30 57 72 98  27 30 72 98  27 72 84 98  128 71 129 130  85 87 98 117  85 98 117 134  98 117 134 153  53 85 98 134  53 85 87 98  29 98 147 153  29 98 110 147  4 10 35 144  10 35 55 142  29 98 117 153  29 84 98 117  29 116 125 147  27 29 84 98  29 116 117 153  88 111 151 152  24 74 82 108  27 63 69 158  27 63 67 69  62 63 67 69  62 63 65 67  27 63 65 67  63 188 121 158  63 188 120 121  59 42 61 141  186 61 141 133  7 8 9 48  118 122 146 179  24 74 82 118  43 45 46 185  45 70 89 135  124 45 91 184  40 42 133 176  18 124 93 101  11 26 38 114  85 86 102 150  86 102 150 183  26 38 84 114  105 106 107 166  51 54 172 111  54 172 111 112  51 53 54 111  53 54 87 111  54 85 87 111  51 53 87 111  51 145 87 111  145 87 93 111  59 42 70 92  59 145 70 92  27 31 66 69  84 87 98 150  18 124 89 91  15 37 39 89  63 64 65 120  31 41 107 176  40 41 42 176  70 87 93 94  4 10 47 81  66 99 107 166  48 76 95 182  95 96 180 182  17 18 124 101  106 107 131 176  18 124 135 93  49 99 105 157  99 105 106 131  99 105 163 166  99 105 107 166  0 15 37 90  0 11 15 37  2 3 115 167  2 3 79 167  3 78 79 167  0 3 11 114  25 26 102 150  25 102 117 150  102 103 117 150  26 102 136 150  12 26 136 150  12 102 136 150  11 12 26 150  11 12 39 150  11 38 39 150  11 26 38 150  26 38 84 150  38 39 84 150  20 34 36 148  7 34 36 148  7 10 35 36  10 35 36 127  7 10 36 127  4 7 35 36  7 36 126 148  29 30 98 110  27 29 30 98  27 29 65 125  27 29 65 82  29 65 82 173  29 65 125 173  58 71 77 129  128 71 77 129  30 58 71 129  30 57 71 129  52 57 71 129  52 57 71 72  30 57 71 72  30 71 72 155  60 71 72 155  58 60 71 155  30 58 71 155  59 149 60 71  59 42 60 71  59 42 70 71  51 59 70 71  132 133 139 176  106 107 132 176  31 33 40 176  41 107 132 176  31 33 131 176  106 132 139 176  8 9 10 127  62 67 69 148  65 67 68 82  67 68 73 82  67 68 73 114  68 73 82 114  26 68 82 114  27 29 68 84  27 31 68 84  27 31 66 68  31 41 66 68  38 41 66 68  38 41 68 84  31 41 68 84  31 40 41 176  42 132 133 176  122 123 146 178  122 123 173 178  27 28 31 32  28 29 30 110  27 28 30 31  27 28 32 33  82 116 122 173  82 116 117 122  116 117 122 154  24 117 122 154  24 82 117 122  116 122 173 178  10 35 127 142  10 127 142 143  75 174 119 123  75 174 119 182  65 75 174 177  75 174 177 123  65 75 177 123  65 75 123 173  75 122 123 173  75 82 122 173  75 82 118 122  74 75 82 118  65 75 82 173  1 50 97 166  39 70 83 89  41 70 83 89  41 42 70 83  39 83 84 150  72 83 84 98  31 72 83 84  20 67 69 148  20 34 67 148  23 26 82 108  4 6 73 108  3 4 108 114  23 74 78 108  4 73 108 114  6 73 81 108  7 34 67 148  43 186 141 133  93 94 111 151  73 76 81 95  156 67 95 148  156 67 75 95  67 73 75 95  7 67 73 95  7 67 95 148  73 75 76 95  75 76 95 119  75 95 119 182  75 95 174 182  156 95 174 182  156 75 95 174  76 95 119 182  21 34 99 163  1 97 163 166  1 99 163 166  1 66 99 163  1 66 99 166  1 66 107 166  1 50 107 166  1 38 50 107  0 1 38 50  1 38 66 107  1 38 66 68  124 91 184 159  26 82 108 114  3 26 108 114  17 124 101 159  156 64 65 67  156 64 65 75  64 65 75 174  156 64 75 174  62 64 65 67  62 64 67 148  45 70 92 135  43 45 70 92  45 46 185 189  20 34 36 138  6 74 81 108  14 18 39 94  14 18 94 100  14 94 100 165  12 14 94 165  12 94 165 183  12 94 150 183  86 94 150 183  86 94 151 183  12 39 94 150  39 83 94 150  12 14 39 94  18 93 94 100  37 44 89 132  37 44 89 90  37 44 90 140  37 50 90 140  0 37 50 90  37 41 89 132  37 41 83 89  37 38 41 83  37 38 41 107  37 41 107 132  37 38 39 83  37 39 83 89  </DataArray>
<DataArray  type="UInt32"  Name="offsets"  format="ascii">4 8 12 16 20 24 28 32 36 40 44 48 52 56 60 64 68 72 76 80 84 88 92 96 100 104 108 112 116 120 124 128 132 136 140 144 148 152 156 160 164 168 172 176 180 184 188 192 196 200 204 208 212 216 220 224 228 232 236 240 244 248 252 256 260 264 268 272 276 280 284 288 292 296 300 304 308 312 316 320 324 328 332 336 340 344 348 352 356 360 364 368 372 376 380 384 388 392 396 400 404 408 412 416 420 424 428 432 436 440 444 448 452 456 460 464 468 472 476 480 484 488 492 496 500 504 508 512 516 520 524 528 532 536 540 544 548 552 556 560 564 568 572 576 580 584 588 592 596 600 604 608 612 616 620 624 628 632 636 640 644 648 652 656 660 664 668 672 676 680 684 688 692 696 700 704 708 712 716 720 724 728 732 736 740 744 748 752 756 760 764 768 772 776 780 784 788 792 796 800 804 808 812 816 820 824 828 832 836 840 844 848 852 856 860 864 868 872 876 880 884 888 892 896 900 904 908 912 916 920 924 928 932 936 940 944 948 952 956 960 964 968 972 976 980 984 988 992 996 1000 1004 1008 1012 1016 1020 1024 1028 1032 1036 1040 1044 1048 1052 1056 1060 1064 1068 1072 1076 1080 1084 1088 1092 1096 1100 1104 1108 1112 1116 1120 1124 1128 1132 1136 1140 1144 1148 1152 1156 1160 1164 1168 1172 1176 1180 1184 1188 1192 1196 1200 1204 1208 1212 1216 1220 1224 1228 1232 1236 1240 1244 1248 1252 1256 1260 1264 1268 1272 1276 1280 1284 1288 1292 1296 1300 1304 1308 1312 1316 1320 1324 1328 1332 1336 1340 1344 1348 1352 1356 1360 1364 1368 1372 1376 1380 1384 1388 1392 1396 1400 1404 1408 1412 1416 1420 1424 1428 1432 1436 1440 1444 1448 1452 1456 1460 1464 1468 1472 1476 1480 1484 1488 1492 1496 1500 1504 1508 1512 1516 1520 1524 1528 1532 1536 1540 1544 1548 1552 1556 1560 1564 1568 1572 1576 1580 1584 1588 1592 1596 1600 1604 1608 1612 1616 1620 1624 1628 1632 1636 1640 1644 1648 1652 1656 1660 1664 1668 1672 1676 1680 1684 1688 1692 1696 1700 1704 1708 1712 1716 1720 1724 1728 1732 1736 1740 1744 1748 1752 1756 1760 1764 1768 1772 1776 1780 1784 1788 1792 1796 1800 1804 1808 1812 1816 1820 1824 1828 1832 1836 1840 1844 1848 1852 1856 1860 1864 1868 1872 1876 1880 1884 1888 1892 1896 1900 1904 1908 1912 1916 1920 1924 1928 1932 1936 1940 1944 1948 1952 1956 1960 1964 1968 1972 1976 1980 1984 1988 1992 1996 2000 2004 2008 2012 2016 2020 2024 2028 2032 2036 2040 2044 2048 2052 2056 2060 2064 2068 2072 2076 2080 2084 2088 2092 2096 2100 2104 2108 2112 2116 2120 2124 2128 2132 2136 2140 2144 2148 2152 2156 2160 2164 2168 2172 2176 2180 2184 2188 2192 2196 2200 2204 2208 2212 2216 2220 2224 2228 2232 2236 2240 2244 2248 2252 2256 2260 2264 2268 2272 2276 2280 2284 2288 2292 2296 2300 2304 2308 2312 2316 2320 2324 2328 2332 2336 2340 2344 2348 2352 2356 2360 2364 2368 2372 2376 2380 2384 2388 2392 2396 2400 2404 2408 2412 2416 2420 2424 2428 2432 2436 2440 2444 2448 2452 2456 2460 2464 2468 2472 2476 2480 2484 2488 2492 2496 2500 2504 2508 2512 2516 2520 2524 2528 2532 2536 2540 2544 2548 2552 2556 2560 2564 2568 2572 2576 2580 2584 2588 2592 2596 2600 2604 2608 2612 2616 2620 2624 2628 2632 2636 2640 2644 2648 2652 2656 2660 2664 2668 2672 2676 2680 2684 2688 2692 2696 2700 2704 2708 2712 2716 </DataArray>
<DataArray  type="UInt8"  Name="types"  format="ascii">10 10 10 10 10 10 10 10 10 10 10 10 10 10 10 10 10 10 10 10 10 10 10 10 10 10 10 10 10 10 10 10 10 10 10 10 10 10 10 10 10 10 10 10 10 10 10 10 10 10 10 10 10 10 10 10 10 10 10 10 10 10 10 10 10 10 10 10 10 10 10 10 10 10 10 10 10 10 10 10 10 10 10 10 10 10 10 10 10 10 10 10 10 10 10 10 10 10 10 10 10 10 10 10 10 10 10 10 10 10 10 10 10 10 10 10 10 10 10 10 10 10 10 10 10 10 10 10 10 10 10 10 10 10 10 10 10 10 10 10 10 10 10 10 10 10 10 10 10 10 10 10 10 10 10 10 10 10 10 10 10 10 10 10 10 10 10 10 10 10 10 10 10 10 10 10 10 10 10 10 10 10 10 10 10 10 10 10 10 10 10 10 10 10 10 10 10 10 10 10 10 10 10 10 10 10 10 10 10 10 10 10 10 10 10 10 10 10 10 10 10 10 10 10 10 10 10 10 10 10 10 10 10 10 10 10 10 10 10 10 10 10 10 10 10 10 10 10 10 10 10 10 10 10 10 10 10 10 10 10 10 10 10 10 10 10 10 10 10 10 10 10 10 10 10 10 10 10 10 10 10 10 10 10 10 10 10 10 10 10 10 10 10 10 10 10 10 10 10 10 10 10 10 10 10 10 10 10 10 10 10 10 10 10 10 10 10 10 10 10 10 10 10 10 10 10 10 10 10 10 10 10 10 10 10 10 10 10 10 10 10 10 10 10 10 10 10 10 10 10 10 10 10 10 10 10 10 10 10 10 10 10 10 10 10 10 10 10 10 10 10 10 10 10 10 10 10 10 10 10 10 10 10 10 10 10 10 10 10 10 10 10 10 10 10 10 10 10 10 10 10 10 10 10 10 10 10 10 10 10 10 10 10 10 10 10 10 10 10 10 10 10 10 10 10 10 10 10 10 10 10 10 10 10 10 10 10 10 10 10 10 10 10 10 10 10 10 10 10 10 10 10 10 10 10 10 10 10 10 10 10 10 10 10 10 10 10 10 10 10 10 10 10 10 10 10 10 10 10 10 10 10 10 10 10 10 10 10 10 10 10 10 10 10 10 10 10 10 10 10 10 10 10 10 10 10 10 10 10 10 10 10 10 10 10 10 10 10 10 10 10 10 10 10 10 10 10 10 10 10 10 10 10 10 10 10 10 10 10 10 10 10 10 10 10 10 10 10 10 10 10 10 10 10 10 10 10 10 10 10 10 10 10 10 10 10 10 10 10 10 10 10 10 10 10 10 10 10 10 10 10 10 10 10 10 10 10 10 10 10 10 10 10 10 10 10 10 10 10 10 10 10 10 10 10 10 10 10 10 10 10 10 10 10 10 10 10 10 10 10 10 10 10 10 10 10 10 10 10 10 10 10 10 10 10 10 10 10 10 10 10 10 10 10 10 10 10 10 10 10 10 10 10 10 10 10 10 10 10 10 10 10 10 10 10 10 10 10 10 10 10 10 10 10 10 10 10 10 10 </DataArray>
</Cells>
<CellData  Scalars="f">
<DataArray  type="Float64"  Name="f"  format="ascii">2 3 3 3 3 2 3 2 2 2 2 2 2 3 2 2 2 3 3 2 2 2 2 2 3 2 3 3 3 2 2 3 2 2 2 2 3 2 2 2 3 3 3 2 2 3 3 2 3 2 2 3 2 2 2 3 3 2 3 3 3 2 2 2 2 2 2 3 2 3 2 2 3 2 2 3 3 2 2 3 3 3 3 2 3 2 2 2 2 2 2 2 3 3 2 3 3 2 3 2 3 2 2 3 2 2 2 2 2 3 3 2 2 2 2 2 3 3 2 2 2 2 3 3 2 3 2 2 2 2 3 3 2 3 2 2 3 2 3 2 2 3 3 2 2 2 2 3 2 3 2 2 2 2 2 2 2 3 3 2 2 3 2 2 2 2 2 3 2 3 3 3 2 3 2 3 3 2 2 2 3 3 3 2 3 2 2 2 2 2 2 3 2 3 3 3 2 2 2 3 2 2 2 2 3 3 2 2 3 3 3 2 2 2 2 2 3 2 2 3 2 2 2 2 2 2 2 2 2 2 3 2 3 2 3 2 2 2 3 2 2 2 3 3 2 2 2 2 3 2 3 2 2 3 3 3 2 2 2 2 2 3 3 3 3 2 2 3 3 3 3 3 3 2 3 2 2 2 2 2 2 2 2 3 2 3 3 3 2 2 2 2 2 2 3 2 2 2 2 3 3 2 2 2 3 2 3 3 3 3 3 2 2 2 2 2 2 2 3 3 3 2 2 2 2 2 3 3 3 2 2 2 3 3 2 2 3 3 2 2 2 2 2 2 2 2 2 2 2 2 2 2 2 2 2 2 2 2 2 2 3 2 3 3 3 3 3 3 2 3 3 3 3 2 2 2 2 2 2 3 3 3 2 3 3 2 2 2 2 2 2 2 3 3 3 2 2 3 3 2 2 2 2 3 3 3 3 3 3 3 2 2 2 3 2 3 3 2 2 3 2 2 2 2 2 2 2 2 2 2 3 3 2 2 2 2 2 2 2 2 2 2 2 2 2 3 3 2 2 2 2 2 3 3 2 2 2 2 2 2 2 2 2 3 3 3 2 2 2 2 3 2 3 3 2 2 2 3 2 3 3 2 2 3 2 2 2 2 2 2 2 2 2 2 3 2 3 3 3 2 3 2 2 2 2 2 2 3 3 3 3 3 3 3 3 3 3 3 3 2 2 2 2 2 2 2 2 2 2 2 2 2 2 2 2 2 2 2 2 2 2 2 2 2 2 2 2 2 2 2 2 2 2 2 2 2 2 3 2 2 2 2 2 2 2 2 2 2 2 2 2 2 2 3 3 2 2 2 2 3 3 3 3 3 3 3 3 3 3 2 3 2 2 3 3 3 3 2 2 2 2 2 2 2 2 2 2 3 3 3 3 3 3 2 2 3 3 2 2 2 2 2 3 3 3 3 3 3 3 2 2 2 2 2 2 2 2 2 2 2 3 3 3 3 2 2 2 2 2 2 2 2 2 2 3 3 3 3 3 3 3 3 3 3 2 3 3 2 2 2 2 2 2 2 2 2 2 2 2 </DataArray>
</CellData>
</Piece>
</UnstructuredGrid>
</VTKFile>