<?xml version="1.0"?>
<VTKFile type="UnstructuredGrid"  version="0.1"  >
<UnstructuredGrid>
<Piece  NumberOfPoints="25" NumberOfCells="54">
<Points>
<DataArray  type="Float64"  NumberOfComponents="3"  format="ascii">0.1643047838855171 1.320926202876569 0.2601257099434788  0.05207958592487053 1.496570209466655 0  -0.1302178383729681 1.254910122246268 0.292770397207166  0.1391998973416516 1.661628473974168 0.2874369829148079  -0.3414150989220618 0.9363981445992313 1.071005738840007  -0.4922678887532528 1.230649576046017 0.6724026039041537  -0.4681260799992067 0.8782094858657317 0.8325819908896523  -0.09708392555109108 0.9904380679290505 0.8772233868214522  -0.2730822081236509 1.405944611692334 0  -0.1950903220161293 0.9807852804032301 0  -0.07086380667432458 1.309039291560229 0  -0.4012415102259741 1.637630821126016 0.2710145018262761  -0.5487309629084373 1.168830080656482 0.2795309104015246  -0.6162581739138656 0.78166430635156 0.4191414197236378  -0.4864155127577982 0.8684335803860413 0  -0.3448925070327119 0.9353432843813163 0.3369121132772922  -0.3788887885544553 1.455913956808009 0.8999474566814727  0.02676643764601537 1.300197661506557 0.7064266809922422  0.117054193209676 0.9884711682419384 0  -0.1756545249279831 1.50164596419359 0.4637215754534496  -0.3448925070327119 0.9353432843813163 0.5920893883453691  -0.6062226566438368 1.439697221576838 0.430144653775685  -0.424094315044897 1.244242140113477 0  -0.05076296388909356 0.9950002844479942 0.4645007508113306  -0.6083507165798478 1.366724482697605 0  </DataArray>
</Points>
<Cells>
<DataArray  type="UInt32"  Name="connectivity"  format="ascii">0 1 2 3  4 5 6 7  2 8 9 10  2 8 11 12  13 12 14 15  5 16 7 17  0 1 10 18  1 3 11 19  1 2 3 19  2 9 12 15  13 12 15 20  0 2 3 19  21 5 16 19  9 12 14 15  9 12 14 22  0 2 10 18  21 2 11 12  2 9 15 23  1 8 11 19  1 2 8 19  1 2 8 10  2 9 12 22  21 11 12 24  2 8 9 22  2 8 12 22  5 16 17 19  4 5 16 7  8 11 24 22  11 12 24 22  8 11 12 22  7 17 20 23  2 9 10 18  0 1 2 10  2 9 18 23  0 2 18 23  2 15 20 23  0 2 17 23  21 2 12 19  0 2 17 19  21 2 11 19  2 8 11 19  5 6 7 20  5 6 13 20  21 5 12 19  5 13 12 20  5 12 15 20  5 2 15 20  5 2 20 23  5 2 17 23  5 17 20 23  5 7 17 20  5 2 17 19  5 2 12 19  5 2 12 15  </DataArray>
<DataArray  type="UInt32"  Name="offsets"  format="ascii">4 8 12 16 20 24 28 32 36 40 44 48 52 56 60 64 68 72 76 80 84 88 92 96 100 104 108 112 116 120 124 128 132 136 140 144 148 152 156 160 164 168 172 176 180 184 188 192 196 200 204 208 212 216 </DataArray>
<DataArray  type="UInt8"  Name="types"  format="ascii">10 10 10 10 10 10 10 10 10 10 10 10 10 10 10 10 10 10 10 10 10 10 10 10 10 10 10 10 10 10 10 10 10 10 10 10 10 10 10 10 10 10 10 10 10 10 10 10 10 10 10 10 10 10 </DataArray>
</Cells>
<CellData  Scalars="f">
<DataArray  type="Float64"  Name="f"  format="ascii">2 2 2 2 2 2 2 2 2 2 2 2 2 2 2 2 2 2 2 2 2 2 2 2 2 2 2 2 2 2 2 2 2 2 2 2 2 2 2 2 2 2 2 2 2 2 2 2 2 2 2 2 2 2 </DataArray>
</CellData>
</Piece>
</UnstructuredGrid>
</VTKFile>