<?xml version="1.0"?>
<VTKFile type="UnstructuredGrid"  version="0.1"  >
<UnstructuredGrid>
<Piece  NumberOfPoints="28" NumberOfCells="52">
<Points>
<DataArray  type="Float64"  NumberOfComponents="3"  format="ascii">0.0514852044923706 -1.484500497547712 0  -0.07613280859165761 -1.992501572840285 0  0.2283984257749825 -1.977504718520855 0  0.06049353073874015 -1.685042099785589 0.2673914529575276  0.1922639486628559 -1.643987499174081 0.9224333582651919  0.08114472573962614 -1.520582054345446 0.5577751558120352  -0.09067192459746451 -1.991069594901301 0.7370700840091073  0.1412329740125325 -1.9860897661892 0.8288815456926253  0.1225121416717126 -1.277591265884165 1.003367433258137  0.2501934646059933 -1.24885304619393 0.6598587190296312  0.3096592431759244 -1.596165513188446 0  0.5092733774920255 -1.397980984656434 0  0.3055479189482405 -1.298395155588183 0.3322665218640753  0.06224447347299699 -1.993869454456417 0.3955276012186419  0.5008599238356093 -1.41435896777325 0.8102226109784102  0.9509039190911233 -1.748587443335142 0.5444774374960997  0.4355591104185333 -1.608215376055195 0.5028826748439459  0.7002180092698143 -1.86752175426729 0.7322883312125787  0.3332898201224507 -1.72832152582061 0.2759898335740377  0.3805775488420488 -1.962516383128317 0.4148476597554701  0.5798054975135298 -1.603082966240016 0.2217289724962523  0.6735271539842731 -1.875618336700802 0.3797361240487547  0.5274438955071097 -1.919932208690404 0  0.2103079122548459 -1.979286478584905 0.589906018953118  0.1950903220161306 -0.9807852804032298 0  0.3077697302541748 -0.9466043556033813 0.9610693252871769  0.8159678795558938 -1.820712259107818 0  0.3805775488420486 -1.962516383128317 0.7649643781507658  </DataArray>
</Points>
<Cells>
<DataArray  type="UInt32"  Name="connectivity"  format="ascii">0 1 2 3  4 5 6 7  8 4 5 9  0 10 11 12  1 2 3 13  14 15 16 17  3 5 12 18  2 13 18 19  0 3 10 12  10 11 12 20  15 16 17 21  10 11 20 22  16 18 20 21  18 19 21 22  5 6 7 23  0 2 3 10  16 17 19 21  5 6 13 23  14 5 9 16  3 5 13 23  2 3 13 18  2 3 10 18  5 12 16 18  3 10 12 18  0 11 12 24  14 8 9 25  2 18 19 22  14 4 5 9  16 18 19 21  5 9 12 16  12 16 18 20  20 21 22 26  18 20 21 22  11 20 22 26  14 4 27 16  14 4 5 16  14 27 16 17  27 16 17 19  10 18 20 22  10 12 18 20  2 10 18 22  14 8 4 9  3 13 18 23  3 5 18 23  5 16 18 23  16 18 19 23  27 16 19 23  4 27 16 23  4 5 16 23  13 18 19 23  4 7 27 23  4 5 7 23  </DataArray>
<DataArray  type="UInt32"  Name="offsets"  format="ascii">4 8 12 16 20 24 28 32 36 40 44 48 52 56 60 64 68 72 76 80 84 88 92 96 100 104 108 112 116 120 124 128 132 136 140 144 148 152 156 160 164 168 172 176 180 184 188 192 196 200 204 208 </DataArray>
<DataArray  type="UInt8"  Name="types"  format="ascii">10 10 10 10 10 10 10 10 10 10 10 10 10 10 10 10 10 10 10 10 10 10 10 10 10 10 10 10 10 10 10 10 10 10 10 10 10 10 10 10 10 10 10 10 10 10 10 10 10 10 10 10 </DataArray>
</Cells>
<CellData  Scalars="f">
<DataArray  type="Float64"  Name="f"  format="ascii">2 2 2 2 3 2 2 3 2 2 3 2 3 3 2 2 3 2 2 2 3 3 2 2 2 2 3 2 3 2 2 3 3 2 2 2 2 3 3 2 3 2 3 2 2 3 3 3 2 3 3 2 </DataArray>
</CellData>
</Piece>
</UnstructuredGrid>
</VTKFile>