<?xml version="1.0"?>
<VTKFile type="UnstructuredGrid"  version="0.1"  >
<UnstructuredGrid>
<Piece  NumberOfPoints="30" NumberOfCells="54">
<Points>
<DataArray  type="Float64"  NumberOfComponents="3"  format="ascii">0.1021569525316506 -1.327805660959527 1.653761852414816  0.03930125034265457 -0.9961291647000607 1.913127150561488  0.2477625217914785 -1.239771052565929 2.035833713489379  -0.1944002557694448 -1.462850901679491 2.138911827054358  -0.2702183339099048 -0.9579954471492402 2.65502077809543  -0.5419255578714477 -1.160974362821279 2.702919024237293  -0.2702183339099048 -0.9579954471492403 2.389504889458908  -0.2692661782052067 -1.30707326254948 2.725938409516953  -0.466214676280916 -1.211890401209563 2.187344616839348  -0.4913090933137605 -0.8658179070842074 2.050180167494419  -0.5555702330195978 -0.8314696123025476 2.575390594315841  -0.4661008678108942 -1.421230556846709 3  -0.4172607924959886 -0.9053975484695405 3  -0.5321608870766419 -1.398484468300908 2.503641531981524  -0.08343158218106622 -1.258718650314781 2.406550114037556  -0.1170541932096738 -0.9884711682419386 3  -0.7292392180407681 -1.471181385415635 3  -0.2396638677351643 -0.9672640431327406 1.819416289723803  -0.006483297213640909 -1.49224073078184 3  0.2758048264117831 -1.271826340920732 2.659392961480815  -0.4235675924273373 -1.68416512920486 2.651495969977106  0.03930125034265458 -0.9961291647000606 2.610505229417855  0.2111965712192294 -1.657578762555701 2.226202535386112  -0.6105578224874055 -1.21798685280362 3  -0.1001116010720892 -0.9901398679180773 1.559727400289164  0.1666558328843934 -1.549864895007343 1.91279759807228  0.1167513975266851 -0.9885009910136866 2.261816189989672  0.4530074376641818 -1.426915595940797 2.237640096430802  -0.1397771848346633 -1.729954020531203 2.339033044469641  0.08506998043270131 -1.550401618887115 2.516743328284348  </DataArray>
</Points>
<Cells>
<DataArray  type="UInt32"  Name="connectivity"  format="ascii">0 1 2 3  4 5 6 7  8 9 6 10  5 7 11 12  8 6 13 14  5 6 7 13  7 11 12 15  5 11 13 16  8 9 6 17  7 11 18 15  8 5 6 10  19 7 18 15  4 5 7 12  20 7 11 13  8 1 6 14  1 2 3 14  19 7 15 21  4 7 12 15  8 3 13 14  8 5 6 13  8 1 3 14  20 11 13 16  2 3 14 22  4 7 15 21  5 11 12 23  0 1 24 17  5 11 16 23  0 2 3 25  5 7 11 13  8 1 3 17  8 1 6 17  26 1 2 14  0 1 3 17  4 5 10 12  4 5 6 10  6 7 13 14  4 6 14 21  26 6 14 21  4 6 7 14  19 26 14 21  19 27 26 14  19 7 14 21  4 7 14 21  26 1 6 14  3 28 29 22  2 3 25 22  3 14 29 22  27 26 2 14  3 13 28 14  3 28 14 29  7 13 28 14  20 7 13 28  27 2 14 22  27 14 29 22  </DataArray>
<DataArray  type="UInt32"  Name="offsets"  format="ascii">4 8 12 16 20 24 28 32 36 40 44 48 52 56 60 64 68 72 76 80 84 88 92 96 100 104 108 112 116 120 124 128 132 136 140 144 148 152 156 160 164 168 172 176 180 184 188 192 196 200 204 208 212 216 </DataArray>
<DataArray  type="UInt8"  Name="types"  format="ascii">10 10 10 10 10 10 10 10 10 10 10 10 10 10 10 10 10 10 10 10 10 10 10 10 10 10 10 10 10 10 10 10 10 10 10 10 10 10 10 10 10 10 10 10 10 10 10 10 10 10 10 10 10 10 </DataArray>
</Cells>
<CellData  Scalars="f">
<DataArray  type="Float64"  Name="f"  format="ascii">2 2 2 2 2 2 2 2 2 2 2 2 2 2 2 2 2 2 2 2 2 2 2 2 2 2 2 2 2 2 2 2 2 2 2 2 2 2 2 2 2 2 2 2 2 2 2 2 2 2 2 2 2 2 </DataArray>
</CellData>
</Piece>
</UnstructuredGrid>
</VTKFile>