<?xml version="1.0"?>
<VTKFile type="UnstructuredGrid"  version="0.1"  >
<UnstructuredGrid>
<Piece  NumberOfPoints="27" NumberOfCells="52">
<Points>
<DataArray  type="Float64"  NumberOfComponents="3"  format="ascii">1.260707342937499 0.7300631062328511 0.9419800973833657  1.536685347343925 0.4564202830929406 0.9144532787471632  1.521730041657627 0.5767379203131159 1.274706434082253  1.210151134424121 0.4870046897190103 1.173712518554512  1.65659855429246 0.01793192137783933 0.7080773934678531  1.989245257061672 0.1091947375277718 0.997252531244357  1.970041898255384 0.3041697115024052 0.5247613097723676  1.342598497655672 -0.06787414183251217 0.940529907570455  1.483670250902227 0.1972611969767152 1.200509124604304  1.236921501535322 0.2780080843168226 0.8712056601341078  0.9945396279790377 -0.05544008750856189 1.131547179751708  1.897725087561839 0.6006509629603677 0.8889621766775162  1.775794024887503 0.9000039850720389 0.7554440117419637  1.864806414414905 0.7091692851502488 1.17856660369761  1.873317132660131 0.6811132070549863 0.6336369605768306  1.411246688167548 0.8229637507738986 0.588954136180895  1.442428941341114 0.3784721442466215 0.5445319399544513  1.93825850119158 0.4670302055229528 1.35940920517109  1.185694870140822 0.5668471748948971 0.6562871613763798  0.9349189856343629 0.3462912325500227 0.7047979544872645  0.9529390101181481 0.2868871729127317 1.078171209914726  1.388409894790153 0.9793438094792545 1.146169918058405  1.980796191678785 0.1949795379762737 1.272752160226466  1.689400724141101 0.2795524307698475 0.3175238567445141  1.312522086149463 0.04418798656386991 0.5971271750425831  0.9961291647000607 0.03930125034265271 0.7784817129724662  0.996129164700061 0.03930125034265267 0.4203233659115466  </DataArray>
</Points>
<Cells>
<DataArray  type="UInt32"  Name="connectivity"  format="ascii">0 1 2 3  1 4 5 6  7 8 9 10  1 5 6 11  1 12 11 13  1 6 11 14  1 15 14 16  1 2 8 17  9 18 19 20  1 9 18 16  0 1 2 21  9 18 19 16  1 8 22 17  1 22 5 11  1 8 22 5  1 15 18 16  4 23 6 16  1 4 6 16  1 12 21 13  0 1 15 18  24 25 19 26  4 23 24 16  1 22 11 17  4 24 9 16  1 4 9 16  7 25 9 10  1 12 11 14  1 6 14 16  1 2 21 13  3 9 18 20  0 3 9 18  1 15 12 14  1 2 13 17  3 8 9 20  24 9 19 16  25 9 10 20  8 9 10 20  1 11 13 17  0 1 15 12  1 4 8 5  1 7 4 8  0 1 9 18  7 24 25 9  24 25 9 19  25 9 19 20  1 3 8 9  1 7 8 9  1 7 4 9  7 4 24 9  1 2 3 8  0 1 3 9  0 1 12 21  </DataArray>
<DataArray  type="UInt32"  Name="offsets"  format="ascii">4 8 12 16 20 24 28 32 36 40 44 48 52 56 60 64 68 72 76 80 84 88 92 96 100 104 108 112 116 120 124 128 132 136 140 144 148 152 156 160 164 168 172 176 180 184 188 192 196 200 204 208 </DataArray>
<DataArray  type="UInt8"  Name="types"  format="ascii">10 10 10 10 10 10 10 10 10 10 10 10 10 10 10 10 10 10 10 10 10 10 10 10 10 10 10 10 10 10 10 10 10 10 10 10 10 10 10 10 10 10 10 10 10 10 10 10 10 10 10 10 </DataArray>
</Cells>
<CellData  Scalars="f">
<DataArray  type="Float64"  Name="f"  format="ascii">2 3 2 3 3 3 2 2 2 2 2 2 2 3 2 2 2 2 3 2 2 2 3 2 2 2 3 2 3 2 2 3 3 2 2 2 2 3 2 2 2 2 2 2 2 2 2 2 2 2 2 2 </DataArray>
</CellData>
</Piece>
</UnstructuredGrid>
</VTKFile>