<?xml version="1.0"?>
<VTKFile type="UnstructuredGrid"  version="0.1"  >
<UnstructuredGrid>
<Piece  NumberOfPoints="190" NumberOfCells="680">
<Points>
<DataArray  type="Float64"  NumberOfComponents="3"  format="ascii">0.7774620075900223 0.6213786897703732 0.6301803247013167  1.111892032715658 0.6950153870911676 0.6782986928341398  0.9398731368034582 0.9099149963248007 0.6065948067581353  0.9918676312209388 0.6543886671119523 0.8433271873984621  0.941138706865577 1.555920911307085 0.1704413559358486  1.182595711909019 1.604297419826286 0.2395450545717993  1.105979666019659 1.665697729685953 0  1.023406865707056 1.70983381097968 0.2701021146961656  0.410518663746953 1.145132281820996 0.1739528830163619  0.7253839885668945 1.031099139266958 0  0.5426779840473307 1.206243742029588 0  0.6297047863728796 1.149324118574361 0.3176746376671157  1.249304098544304 0.9818639786871559 0.6226004215358898  1.094501835405095 0.9069959230168483 0.7911110155726667  1.309593523734593 0.7964501727899614 0.7808372169612792  1.20556721898046 1.585445191179384 0.4476684804600739  1.091862571121528 1.371305525622352 0.2344987357957295  1.00357872437095 1.423058332434916 0.5177435908903606  0.6960222699964466 1.295807126413262 0.5330849355015431  0.8083390270524147 1.571591874322219 0.472239330174774  0.5517231384485761 1.454403164442377 0.4298188378448305  0.7915237499511695 1.458085557217198 0.6786322054571055  1.357588177110721 0.6051791325630997 0.4890122966951662  1.240163171506982 0.8056445430899435 0.4703265802928889  1.151085225078327 0.5687533494461764 0.2783924227271701  1.028457323040231 0.6449199764202236 0.4738119802244047  0.7150729101162372 0.6974000250004323 0.2407973732256986  0.7277563338502576 0.9325702370966827 0.1974234667644578  0.6474105652419927 0.7560981995049714 0  0.5740716115140515 0.8162859233710571 0.3048877041465921  0.8970303684702503 1.066138203770662 0.2442796007958575  0.9002133998610917 1.17533804169472 0.5123000448132571  0.6975758679023071 0.962264812445522 0.4999493235888443  0.8232270239921954 0.8366784538598585 0.3712692579210483  0.737989278808085 0.9484405353945584 0.8032480055582302  0.409052571906391 0.9097849337810207 0.7575866569922562  0.5740716115140516 0.8162859233710571 0.6951122958534079  0.4927023055088699 0.8650732196511788 1  1.318945904687044 1.211757931086913 0.1685462058045276  1.396119646174049 1.429062855640683 0  1.323743981377897 1.48846002871101 0.3033542810346415  0.8885834835094115 1.181931362434751 0.7862592131011225  0.6369413111082657 1.134962770928983 0.6982435355650809  1.608167053419037 1.177880549733519 0.5573502448101206  1.46993186874006 1.346320609625157 0.7298905348311824  1.337407211512027 1.172612294715934 0.6929771450134057  1.59208793517882 1.197473011997568 0.7591192318740774  0.9557526506976128 1.246217261180822 0.326487242387449  0.8546900028804062 1.42338227677442 0.2943349773090908  1.550998233803861 0.9111995664116754 0.1849175119678493  1.77241109869346 0.9063329948278898 0.3181289097797291  1.731901851626535 0.9821204655507698 0  1.68787056222753 1.064497214017726 0.227718517315201  1.212161326653626 0.7531181568750674 0.1983795961898235  1.452679860600187 0.9255222884508991 0  1.402424438470243 0.9010384370198017 0.3328658404411891  1.18759127663864 1.094084956292823 0.8187586393627059  1.132894300730159 1.25777000605403 0.6977305977620669  1.233403622207101 1.350707387097658 0.8306224871848118  1.110453387798646 0.7228126356976606 1  1.396334107737673 0.6569586265601434 0.2293062230638377  0.7586957751701788 1.078390789473408 1  0.638893776382075 1.350457219934239 1  0.7136870768114949 1.303857447958486 0.8049640593555427  0.5177585703954607 1.150958002924106 1  0.8445300158709623 1.604981812614957 0.8082361558247371  1.04220806685117 1.6997843595989 0.7606505371969035  0.9563164654530667 1.745694377030833 1  1.120187424138717 1.655514577971305 1  1.038802393529454 1.701604729914768 0.5014728633543934  1.19256308893487 1.596117404900978 0.6966893074531462  0.9567898099724369 0.9228692940619503 0  1.03031496855106 1.231174964082768 0  0.8632850317318228 1.217658577272664 0  1.079774313938461 1.133379028982271 0.1751659358748436  1.197697268132032 1.171089125397355 0.3405911527006547  1.083810992509664 1.023977793514315 0.4719324767211387  1.099182398949108 0.3880552209149545 0.1957914270122534  0.8818750233254947 0.4612683417535055 0  1.056155958575636 0.6874912936824367 0  1.229886675696233 0.5007899141836832 0  0.4927023055088699 0.8650732196511788 0  0.9749819037011852 0.7024885010645605 0.1975389432192668  0.6123194148856593 1.595725146552285 1  0.7812639663649553 1.584748348389377 1  1.292228821875236 0.3076565757391458 0.3322186037030394  1.098809470646287 0.4309227919496545 0.4970820672189703  1.590138388628021 0.4593370694758154 0.2945152002274293  1.315813659229962 0.4642700054059137 0.190741969146883  1.408994663971455 0.4584005427637182 0  1.51933550996271 0.6057145881881473 0  1.041709101276478 0.8351940240328192 0.3517222846659885  1.019966115184728 1.452340326101413 0.7686697543582467  1.652267750340121 0.7170285837690376 0.1942889247819515  1.598629367531194 0.7112307742484612 0.4067389616198721  1.251368316581744 1.547857201781337 0  0.4090525719063911 0.9097849337810207 0.2424133430077436  0.4373270451765627 0.8946719129549711 0.4642534374329268  0.8523194685862787 0.5165628955080167 0.5353394748175138  0.8371176937844129 0.5450034157879631 0.2425687671324744  0.9256196219250847 0.3769471263237471 0.3049757398701155  0.7150729101162372 0.6974000250004323 0.7592026267743015  1.064420116520024 1.439974741234165 1  1.264938753731023 1.53672023183065 1  0.6728588884486792 1.610917347527578 0.2548265037722429  0.6604224575562542 1.345792777446799 0.2156757224577727  0.3201523955821021 0.9428481151419348 0  1.605658537252647 0.6244509830031152 1  1.640805752085594 0.7917066994273915 0.8363217813185927  1.555168925950011 0.8010892577516333 1  1.828449529456563 0.8014924648669517 1  0.5816022277758496 1.690086983344825 0.8067655618993008  0.7035836352175737 1.866500802797774 0.7723279307459789  0.6141724175832469 1.893623399144441 1  0.7911708648278604 1.833966539618288 1  0.9378173110873954 0.7761969569558207 0  0.6192707387864216 1.627646493536906 0.6021451367074655  1.518158615246162 1.287556148979834 0  1.458868696661322 1.359801123807286 0.2353254896464294  0.837117693784413 0.5450034157879631 0.7574312328675255  0.7787096233442427 0.6198584655752766 1  1.196308602036355 0.9625326601231052 0.1942587025961539  0.7787096233442427 0.6198584655752766 0  1.36894933200201 1.089093832260849 0  1.675712442972969 0.5076096835010768 0  1.250939842260001 1.00707420999901 1  1.084815113648739 1.026312084294493 1  1.393810227468341 1.10336698973964 0.468472854108257  1.421858507630868 0.5458021515535201 0.7388856714641274  1.534309277461855 0.7778511024357632 0.6857270238177977  1.218689289798513 1.357769733466394 0.4721948408694612  1.758219163862446 0.5058320789461144 0.1873275422099707  0.8737436651404633 1.789830458324561 0.7297320227919915  1.863111706926676 0.7147559870323206 0.7298487012854733  1.661746245061362 0.5816837277146546 0.7663103395431662  0.9408340653944534 1.753969892273407 0  0.8582612650818502 1.798105973567135 0.2353520733753807  1.692680460452608 0.5205670870368633 0.4884510932914654  1.91452828856335 0.5452582327623938 0.3183348412008885  1.858012708296988 0.7315651328223836 0.2684738954631778  1.858012708296987 0.7315651328223847 0.4985186121010893  0.7185014395798415 0.693222349761448 0.5  0.5364371386811475 1.440262568815689 0.7514707611545899  1.784313448162836 0.8840652651795544 0.764993707176584  1.25394881010603 0.8080914854508547 0  1.189192821247533 1.127225816277893 0  1.636952961386817 1.142804819387528 0  0.928663134189185 1.501464274898857 1  0.4355148696451734 1.128293321660349 0.7938795729772468  0.4447834298253233 1.138815981887424 0.4774553823536878  1.450468287554834 0.9958694460606382 0.764245092388805  1.768113762273237 0.9143727457913158 0.5231233826115309  1.536370480643302 0.9309159599273107 0.5158130040637304  1.687870562227531 1.064497214017725 0.4085393022442587  0.9076703735219958 0.8755311530187188 1  1.696120982847927 1.049061762695049 0.6878222845953621  1.342926703294695 1.472717175683529 0.6269914679574615  1.458868696661323 1.359801123807285 0.4985311965600771  0.9256196219250848 0.3769471263237471 0.6950242601298844  1.177835336004069 1.310669829909235 0  1.211168023066412 0.540194530300085 0.7960425385136159  1.740177366869109 0.9666380654921573 1  1.529295585196848 1.273985711830556 1  0.6935573934875271 1.489966702901899 0  0.6997615025342375 1.302391046738392 0  1.008956372805014 1.397384178309885 0  1.885130003936683 0.6421713892771383 0  0.6474105652419927 0.7560981995049714 1  1.82017401421399 0.8169748649255643 0  0.8818750233254947 0.4612683417535055 1  1.167609977272698 0.4754420500101144 1  1.262446367615859 1.173912818054248 1  1.410939694326908 1.055731877453815 1  1.577555788316489 1.215180484183681 0.2703499351130658  1.388222600345667 0.5481825370432527 1  1.409690083323328 1.417925885689996 1  0.9710044101109969 1.326147373629475 1  1.386390748158082 0.8736441173880511 1  0.8515894704581112 1.8016721220903 0.4413049598686785  0.7035836352175724 1.866500802797774 0.5915509350030332  0.5320136015975745 1.918546003502801 0.6819394328745076  1.15204924228296 1.3176550378158 1  1.033366496021805 1.077557223283553 0.682543228095905  1.516698867441217 0.9474449314155249 1  1.648089931337503 1.12923438223825 1  0.5407342723545181 1.91590061694985 0.4770057860357425  0.6868754821180931 1.871569165629705 0.3122079285272521  0.775688464769247 1.842242054860862 0  1.103193596384578 0.3504086635323349 0.7926247744809052  0.5147335164951123 1.695375458309009 0.4045574146742378  </DataArray>
</Points>
<Cells>
<DataArray  type="UInt32"  Name="connectivity"  format="ascii">0 1 2 3  4 5 6 7  8 9 10 11  1 12 13 14  5 15 16 17  18 19 20 21  22 23 24 25  1 2 3 13  26 27 28 29  30 31 32 33  34 35 36 37  16 38 39 40  2 34 41 42  43 44 45 46  16 17 47 48  49 50 51 52  49 53 54 55  45 56 57 58  1 13 14 59  49 53 55 60  61 62 63 64  1 2 12 23  65 66 67 68  42 61 63 64  2 31 32 33  1 2 12 13  15 17 69 70  71 72 73 74  47 74 75 76  77 78 79 80  11 18 47 48  27 28 29 81  24 77 78 82  62 63 83 84  85 24 77 86  87 88 89 90  2 23 76 91  17 41 57 92  49 50 93 94  5 16 40 95  11 29 96 97  25 98 99 100  2 3 34 101  68 92 102 103  20 104 48 105  12 45 56 57  8 10 81 106  24 77 79 80  107 108 109 110  49 54 90 93  111 112 113 114  27 28 71 115  18 20 21 116  38 39 117 118  3 101 119 120  53 82 91 121  78 82 99 122  49 54 121 123  87 89 90 124  16 38 40 75  13 59 125 126  12 75 76 127  17 69 70 92  1 25 86 98  11 27 30 32  24 53 80 88  79 82 115 122  14 22 128 129  22 55 60 94  25 33 82 99  15 16 40 130  26 33 82 99  23 55 76 127  26 82 99 122  87 90 131 124  111 112 116 132  17 57 70 92  133 108 129 134  4 7 135 136  9 30 71 73  137 138 139 140  25 98 99 141  23 76 91 121  38 55 75 121  137 94 139 140  62 63 83 142  133 108 129 143  4 19 104 48  121 123 144 145  49 51 52 146  62 63 84 147  38 117 123 146  49 50 51 93  8 9 27 81  34 37 64 148  9 11 27 30  34 41 42 61  16 40 75 130  53 60 80 88  71 82 91 121  53 54 55 121  71 74 121 145  32 42 97 149  38 121 123 145  14 108 129 150  50 151 152 153  12 23 55 127  21 63 92 147  27 30 32 33  4 5 6 16  13 59 126 154  108 129 150 155  38 55 75 127  15 16 17 130  22 24 60 88  5 7 15 17  40 130 156 157  1 98 119 158  45 57 75 130  34 37 61 64  12 14 56 150  62 63 64 148  4 5 7 16  24 53 79 80  16 38 74 159  1 14 128 160  133 108 110 143  1 3 13 59  108 110 143 161  15 40 130 156  78 79 82 122  30 33 82 91  66 68 70 92  85 22 24 86  49 50 152 153  45 46 150 162  163 48 164 165  133 108 110 134  138 131 139 166  38 40 75 118  30 76 91 121  65 83 84 111  108 109 110 161  11 18 31 47  7 17 19 69  65 68 92 147  5 15 16 40  65 67 84 147  34 61 154 167  93 139 166 168  19 65 116 132  0 1 3 119  23 24 53 91  9 10 11 164  30 71 74 121  3 59 120 169  3 34 101 154  34 36 101 167  3 170 59 160  25 33 82 91  38 117 123 145  9 11 73 164  65 111 112 114  129 151 152 155  45 56 171 172  38 49 55 173  34 101 120 154  34 36 37 167  45 56 150 172  24 25 82 99  50 94 139 140  27 30 33 82  27 30 71 82  60 80 88 89  23 55 76 121  27 71 82 115  27 82 115 122  26 27 82 122  26 27 33 82  24 77 78 79  50 51 93 168  18 21 31 41  14 109 128 174  58 162 171 175  41 56 126 176  42 63 64 148  45 57 75 76  85 22 24 88  38 39 40 118  16 47 48 165  34 120 154 167  41 56 57 176  60 88 89 90  45 57 130 156  3 13 59 154  14 125 150 177  49 54 55 121  118 127 157 173  38 49 146 173  49 55 121 123  35 36 42 97  19 132 178 179  108 128 129 134  107 108 110 134  1 3 158 160  34 35 37 148  65 67 114 132  61 62 63 176  65 111 112 132  25 86 98 100  27 29 81 96  52 55 153 173  26 27 28 122  38 39 145 159  44 45 58 156  1 3 59 160  2 25 33 91  4 163 48 165  29 32 33 141  26 33 99 141  2 32 34 101  63 65 84 147  55 127 152 153  44 58 162 175  34 37 61 167  38 55 127 173  22 23 24 60  93 94 131 139  1 86 98 158  14 56 125 150  43 44 45 157  53 71 82 121  49 54 60 90  22 87 60 94  23 24 53 60  11 73 105 164  49 52 55 173  45 162 171 172  45 58 162 171  45 150 162 172  137 129 134 140  137 94 129 140  18 20 48 105  24 25 82 91  45 127 130 157  45 75 127 130  12 45 75 127  12 45 75 76  2 31 33 76  43 45 127 150  12 45 57 76  45 130 156 157  44 45 156 157  22 87 60 88  12 45 127 150  43 45 127 157  30 74 76 121  17 21 41 92  41 42 61 63  7 19 69 178  11 29 32 97  87 90 93 131  163 48 105 164  111 112 113 180  19 21 65 69  9 11 30 73  4 6 7 135  90 93 166 168  9 27 28 71  21 41 63 92  24 77 80 88  18 42 63 142  18 21 63 142  24 53 79 82  62 63 147 176  18 41 42 63  34 42 61 64  30 71 82 91  49 55 60 94  38 39 117 145  11 27 29 32  85 24 77 88  41 61 126 154  83 111 113 114  55 75 76 127  57 75 76 130  21 63 65 142  49 51 54 93  41 61 63 176  83 84 111 114  58 103 175 181  1 22 23 25  2 23 25 91  3 170 59 169  3 101 120 154  77 78 82 99  38 55 121 123  14 109 174 177  56 57 58 181  16 39 40 95  38 49 55 123  16 47 75 130  24 25 99 100  2 34 41 182  19 20 21 116  1 3 119 158  58 103 156 175  30 47 73 74  111 116 180 179  34 41 61 154  2 31 41 42  22 23 55 60  150 172 183 184  94 129 140 151  24 78 79 82  90 93 131 124  49 52 55 153  49 52 146 173  111 112 116 179  133 129 140 151  50 93 94 139  58 92 102 103  116 180 185 179  49 55 152 153  13 34 41 182  8 9 10 81  9 27 28 81  90 93 124 166  65 66 68 92  92 102 176 181  41 57 92 176  66 69 70 92  57 92 176 181  38 117 146 173  38 117 118 173  2 32 33 141  23 53 55 60  23 53 55 121  2 12 23 76  93 131 139 166  34 101 120 167  43 45 46 150  41 56 126 182  47 72 73 74  5 7 16 17  13 41 126 182  75 127 130 157  48 73 164 165  2 31 32 42  13 56 125 126  3 59 120 154  1 2 23 25  2 12 76 182  7 15 17 69  109 150 177 183  38 118 127 173  4 7 16 17  22 55 94 152  1 22 25 86  41 61 126 176  53 71 121 144  53 54 121 144  53 71 82 115  23 53 91 121  50 94 140 151  32 36 97 141  32 34 36 101  3 119 158 169  3 119 120 169  13 14 56 125  49 50 52 153  34 35 36 42  11 30 31 32  32 36 42 97  29 32 97 141  14 128 160 174  58 70 92 103  68 92 102 147  68 70 92 103  0 2 25 141  1 86 158 160  50 93 139 168  87 93 94 131  4 163 104 48  7 17 19 48  38 74 75 121  16 38 74 75  16 72 74 159  38 74 121 145  19 21 65 116  75 118 130 157  93 131 124 166  170 59 160 174  133 129 143 151  38 49 123 146  49 54 123 146  49 51 54 146  17 19 21 69  19 116 132 179  17 18 19 21  19 65 69 132  40 118 130 157  9 27 30 71  112 116 132 179  65 67 84 114  16 47 74 75  24 77 86 100  87 60 88 90  150 155 161 184  4 16 17 48  17 18 21 31  24 53 82 91  11 30 31 47  65 84 111 114  31 75 76 130  4 7 19 136  4 7 17 48  54 90 93 168  51 54 93 168  53 54 60 144  53 60 80 144  49 53 54 60  8 81 96 106  32 36 101 141  2 32 101 141  22 24 25 86  24 25 86 100  44 45 58 162  45 57 58 156  8 9 11 27  44 45 46 162  2 32 34 42  2 12 13 182  32 34 36 42  56 125 150 172  12 13 14 56  58 70 103 156  58 102 103 181  57 58 70 156  17 31 41 57  17 21 31 41  42 63 142 148  24 77 99 100  77 78 99 100  16 72 73 165  16 72 159 165  55 75 76 121  2 13 34 182  49 60 93 94  49 60 90 93  87 60 90 93  87 60 93 94  60 80 90 144  54 60 90 144  75 118 127 157  44 58 156 175  111 112 180 179  65 83 142 111  19 69 132 178  104 136 186 187  104 136 178 186  163 104 135 187  104 135 136 187  60 80 89 90  107 109 128 174  150 161 183 184  46 150 162 184  150 162 172 184  12 14 129 150  8 27 81 96  11 27 29 96  8 11 27 96  16 17 47 130  23 24 25 91  24 77 82 99  151 152 153 155  43 150 152 155  43 152 153 155  50 94 151 152  49 50 94 152  49 55 94 152  45 56 58 171  54 121 123 144  71 121 144 145  30 71 91 121  41 63 92 176  18 21 41 63  63 92 147 176  31 47 75 130  16 47 72 74  16 38 39 159  16 39 95 159  16 95 159 165  12 57 76 182  5 6 16 95  6 16 95 165  2 33 76 91  163 104 48 105  94 129 151 152  22 94 129 152  56 58 171 181  4 7 19 48  4 16 48 165  16 47 72 73  43 46 150 155  46 150 155 184  150 172 177 183  12 14 23 129  1 12 14 23  65 67 68 147  21 65 66 69  65 66 69 132  65 66 67 132  65 112 114 132  65 83 84 142  1 14 22 128  14 59 174 177  11 32 97 149  133 129 134 140  108 129 143 155  31 57 76 130  43 127 157 173  43 127 153 173  55 127 153 173  38 75 118 127  62 63 142 148  27 28 115 122  26 29 33 141  13 41 126 154  13 34 41 154  3 13 34 154  2 3 13 34  34 42 64 148  56 125 126 171  56 125 171 172  137 128 129 134  12 23 76 127  18 31 41 42  18 31 32 42  18 32 42 149  11 18 32 149  11 18 31 32  2 31 41 182  17 18 31 48  18 21 142 116  0 3 101 119  0 2 3 101  18 31 47 48  19 116 178 179  19 104 136 178  7 19 136 178  19 20 104 48  18 19 20 48  17 18 19 48  17 21 69 92  21 66 69 92  21 65 66 92  21 65 92 147  92 102 147 176  3 188 158 169  0 25 98 141  4 6 16 165  4 6 135 165  4 163 135 165  4 163 104 135  4 104 135 136  4 19 104 136  189 19 20 104  189 19 104 178  189 19 116 178  189 116 178 179  189 178 179 186  189 185 179 186  189 116 185 179  189 104 178 186  189 19 20 116  14 22 23 129  1 14 22 23  24 53 60 88  74 75 76 121  16 47 73 165  40 75 118 130  17 31 57 130  17 57 70 130  57 70 130 156  15 70 130 156  15 17 70 130  41 56 57 182  58 92 102 181  57 58 92 181  58 171 175 181  57 58 70 92  129 150 152 155  12 129 150 152  12 23 129 152  12 23 55 152  12 55 127 152  12 127 150 152  43 127 150 152  43 127 152 153  22 23 55 152  22 23 129 152  34 35 42 148  22 137 128 129  22 137 94 129  22 137 87 94  137 87 94 131  137 94 131 139  137 138 131 139  129 143 151 155  107 108 128 134  107 108 109 128  14 108 109 128  14 108 109 177  108 109 150 177  108 109 150 183  108 109 161 183  108 150 161 183  108 150 155 161  108 143 155 161  14 108 150 177  14 108 128 129  12 56 57 182  11 18 48 105  2 31 76 182  11 30 73 105  31 57 76 182  48 73 105 164  0 2 101 141  0 1 2 25  14 59 125 177  13 14 59 125  125 150 172 177  2 25 33 141  27 29 32 33  26 27 29 33  63 65 84 142  30 33 76 91  30 31 33 76  21 63 65 147  63 83 84 142  25 33 99 141  17 31 47 48  14 59 160 174  31 47 75 76  30 47 74 76  3 170 160 169  3 188 160 169  3 188 158 160  1 22 128 160  1 22 86 160  1 14 59 160  21 142 111 116  21 65 111 116  65 111 116 132  21 65 142 111  0 1 98 119  0 1 25 98  56 57 176 181  56 126 176 181  56 126 171 181  12 45 56 150  53 79 82 115  53 71 79 115  53 71 79 144  53 79 80 144  30 71 73 74  13 56 126 182  31 41 57 182  12 13 56 182  71 72 74 145  72 74 145 159  38 74 145 159  17 31 47 130  30 31 47 76  30 47 73 105  11 30 47 105  11 47 48 105  47 48 73 105  47 48 73 165  </DataArray>
<DataArray  type="UInt32"  Name="offsets"  format="ascii">4 8 12 16 20 24 28 32 36 40 44 48 52 56 60 64 68 72 76 80 84 88 92 96 100 104 108 112 116 120 124 128 132 136 140 144 148 152 156 160 164 168 172 176 180 184 188 192 196 200 204 208 212 216 220 224 228 232 236 240 244 248 252 256 260 264 268 272 276 280 284 288 292 296 300 304 308 312 316 320 324 328 332 336 340 344 348 352 356 360 364 368 372 376 380 384 388 392 396 400 404 408 412 416 420 424 428 432 436 440 444 448 452 456 460 464 468 472 476 480 484 488 492 496 500 504 508 512 516 520 524 528 532 536 540 544 548 552 556 560 564 568 572 576 580 584 588 592 596 600 604 608 612 616 620 624 628 632 636 640 644 648 652 656 660 664 668 672 676 680 684 688 692 696 700 704 708 712 716 720 724 728 732 736 740 744 748 752 756 760 764 768 772 776 780 784 788 792 796 800 804 808 812 816 820 824 828 832 836 840 844 848 852 856 860 864 868 872 876 880 884 888 892 896 900 904 908 912 916 920 924 928 932 936 940 944 948 952 956 960 964 968 972 976 980 984 988 992 996 1000 1004 1008 1012 1016 1020 1024 1028 1032 1036 1040 1044 1048 1052 1056 1060 1064 1068 1072 1076 1080 1084 1088 1092 1096 1100 1104 1108 1112 1116 1120 1124 1128 1132 1136 1140 1144 1148 1152 1156 1160 1164 1168 1172 1176 1180 1184 1188 1192 1196 1200 1204 1208 1212 1216 1220 1224 1228 1232 1236 1240 1244 1248 1252 1256 1260 1264 1268 1272 1276 1280 1284 1288 1292 1296 1300 1304 1308 1312 1316 1320 1324 1328 1332 1336 1340 1344 1348 1352 1356 1360 1364 1368 1372 1376 1380 1384 1388 1392 1396 1400 1404 1408 1412 1416 1420 1424 1428 1432 1436 1440 1444 1448 1452 1456 1460 1464 1468 1472 1476 1480 1484 1488 1492 1496 1500 1504 1508 1512 1516 1520 1524 1528 1532 1536 1540 1544 1548 1552 1556 1560 1564 1568 1572 1576 1580 1584 1588 1592 1596 1600 1604 1608 1612 1616 1620 1624 1628 1632 1636 1640 1644 1648 1652 1656 1660 1664 1668 1672 1676 1680 1684 1688 1692 1696 1700 1704 1708 1712 1716 1720 1724 1728 1732 1736 1740 1744 1748 1752 1756 1760 1764 1768 1772 1776 1780 1784 1788 1792 1796 1800 1804 1808 1812 1816 1820 1824 1828 1832 1836 1840 1844 1848 1852 1856 1860 1864 1868 1872 1876 1880 1884 1888 1892 1896 1900 1904 1908 1912 1916 1920 1924 1928 1932 1936 1940 1944 1948 1952 1956 1960 1964 1968 1972 1976 1980 1984 1988 1992 1996 2000 2004 2008 2012 2016 2020 2024 2028 2032 2036 2040 2044 2048 2052 2056 2060 2064 2068 2072 2076 2080 2084 2088 2092 2096 2100 2104 2108 2112 2116 2120 2124 2128 2132 2136 2140 2144 2148 2152 2156 2160 2164 2168 2172 2176 2180 2184 2188 2192 2196 2200 2204 2208 2212 2216 2220 2224 2228 2232 2236 2240 2244 2248 2252 2256 2260 2264 2268 2272 2276 2280 2284 2288 2292 2296 2300 2304 2308 2312 2316 2320 2324 2328 2332 2336 2340 2344 2348 2352 2356 2360 2364 2368 2372 2376 2380 2384 2388 2392 2396 2400 2404 2408 2412 2416 2420 2424 2428 2432 2436 2440 2444 2448 2452 2456 2460 2464 2468 2472 2476 2480 2484 2488 2492 2496 2500 2504 2508 2512 2516 2520 2524 2528 2532 2536 2540 2544 2548 2552 2556 2560 2564 2568 2572 2576 2580 2584 2588 2592 2596 2600 2604 2608 2612 2616 2620 2624 2628 2632 2636 2640 2644 2648 2652 2656 2660 2664 2668 2672 2676 2680 2684 2688 2692 2696 2700 2704 2708 2712 2716 2720 </DataArray>
<DataArray  type="UInt8"  Name="types"  format="ascii">10 10 10 10 10 10 10 10 10 10 10 10 10 10 10 10 10 10 10 10 10 10 10 10 10 10 10 10 10 10 10 10 10 10 10 10 10 10 10 10 10 10 10 10 10 10 10 10 10 10 10 10 10 10 10 10 10 10 10 10 10 10 10 10 10 10 10 10 10 10 10 10 10 10 10 10 10 10 10 10 10 10 10 10 10 10 10 10 10 10 10 10 10 10 10 10 10 10 10 10 10 10 10 10 10 10 10 10 10 10 10 10 10 10 10 10 10 10 10 10 10 10 10 10 10 10 10 10 10 10 10 10 10 10 10 10 10 10 10 10 10 10 10 10 10 10 10 10 10 10 10 10 10 10 10 10 10 10 10 10 10 10 10 10 10 10 10 10 10 10 10 10 10 10 10 10 10 10 10 10 10 10 10 10 10 10 10 10 10 10 10 10 10 10 10 10 10 10 10 10 10 10 10 10 10 10 10 10 10 10 10 10 10 10 10 10 10 10 10 10 10 10 10 10 10 10 10 10 10 10 10 10 10 10 10 10 10 10 10 10 10 10 10 10 10 10 10 10 10 10 10 10 10 10 10 10 10 10 10 10 10 10 10 10 10 10 10 10 10 10 10 10 10 10 10 10 10 10 10 10 10 10 10 10 10 10 10 10 10 10 10 10 10 10 10 10 10 10 10 10 10 10 10 10 10 10 10 10 10 10 10 10 10 10 10 10 10 10 10 10 10 10 10 10 10 10 10 10 10 10 10 10 10 10 10 10 10 10 10 10 10 10 10 10 10 10 10 10 10 10 10 10 10 10 10 10 10 10 10 10 10 10 10 10 10 10 10 10 10 10 10 10 10 10 10 10 10 10 10 10 10 10 10 10 10 10 10 10 10 10 10 10 10 10 10 10 10 10 10 10 10 10 10 10 10 10 10 10 10 10 10 10 10 10 10 10 10 10 10 10 10 10 10 10 10 10 10 10 10 10 10 10 10 10 10 10 10 10 10 10 10 10 10 10 10 10 10 10 10 10 10 10 10 10 10 10 10 10 10 10 10 10 10 10 10 10 10 10 10 10 10 10 10 10 10 10 10 10 10 10 10 10 10 10 10 10 10 10 10 10 10 10 10 10 10 10 10 10 10 10 10 10 10 10 10 10 10 10 10 10 10 10 10 10 10 10 10 10 10 10 10 10 10 10 10 10 10 10 10 10 10 10 10 10 10 10 10 10 10 10 10 10 10 10 10 10 10 10 10 10 10 10 10 10 10 10 10 10 10 10 10 10 10 10 10 10 10 10 10 10 10 10 10 10 10 10 10 10 10 10 10 10 10 10 10 10 10 10 10 10 10 10 10 10 10 10 10 10 10 10 10 10 10 10 10 10 10 10 10 10 10 10 10 10 10 10 10 10 10 10 10 10 10 10 10 10 10 10 10 10 10 10 10 10 10 10 10 10 10 10 10 10 10 10 10 10 10 10 10 10 10 10 10 10 10 10 10 10 10 10 10 10 10 10 10 10 10 10 10 10 10 10 10 10 10 10 10 10 10 10 </DataArray>
</Cells>
<CellData  Scalars="f">
<DataArray  type="Float64"  Name="f"  format="ascii">2 3 2 2 3 2 2 2 2 2 2 3 2 3 2 3 2 3 2 2 2 2 3 2 2 2 3 2 2 2 2 2 2 2 2 2 2 2 3 3 2 2 2 3 2 3 2 2 3 3 3 2 2 3 2 2 2 2 2 3 2 2 3 2 2 2 2 2 2 2 3 2 2 2 3 3 3 3 3 2 3 2 2 2 3 2 3 3 2 3 2 3 3 2 2 2 2 3 2 2 2 2 2 2 2 3 2 2 2 3 2 3 3 3 2 3 3 2 3 2 2 2 3 2 2 2 3 2 3 3 2 2 3 2 3 3 2 3 3 3 2 3 3 2 3 3 3 3 2 3 3 2 2 2 2 2 2 2 2 2 3 2 3 3 3 3 2 2 3 2 3 2 2 2 2 2 2 2 2 2 3 2 2 3 2 2 2 2 3 2 2 2 2 3 2 2 2 3 3 2 2 3 2 3 2 2 3 2 3 2 2 3 2 3 3 2 2 3 2 2 2 2 3 3 2 3 2 3 2 2 3 2 2 2 2 2 3 3 3 3 3 3 2 2 3 3 3 2 2 3 2 3 3 2 3 3 2 2 2 3 2 3 2 3 3 2 3 3 2 2 2 2 2 2 2 2 2 2 2 3 2 2 2 3 2 2 2 3 2 3 3 2 2 2 2 2 2 2 3 3 3 2 2 2 2 2 3 2 3 2 2 2 3 3 2 3 3 3 3 3 3 3 3 3 2 2 2 3 3 3 2 3 3 3 3 2 2 2 2 3 2 3 2 2 3 2 3 2 2 2 2 2 2 3 3 3 3 2 2 2 2 2 2 2 3 2 2 2 2 2 3 2 2 2 2 2 3 3 3 2 2 3 3 3 3 2 2 2 2 3 3 3 2 3 3 3 3 3 3 2 3 3 2 3 3 2 2 2 3 3 2 2 2 3 2 3 3 3 3 2 2 2 2 2 2 2 2 3 3 2 3 2 2 2 3 2 3 3 3 2 2 2 2 2 2 3 2 2 2 2 2 2 2 2 3 3 3 2 3 3 3 3 3 2 2 3 3 3 2 2 2 2 2 2 2 3 3 3 3 3 3 3 2 2 2 2 2 2 2 2 3 3 3 2 3 3 2 2 3 2 3 3 3 2 3 3 3 2 2 3 3 3 3 3 2 2 2 2 3 3 2 3 3 3 3 2 2 2 2 2 2 2 2 2 3 2 2 2 2 2 2 2 2 2 2 2 2 2 3 3 3 2 2 2 3 3 3 3 3 2 2 3 3 3 3 3 3 2 3 3 3 3 3 3 3 2 2 2 2 2 2 3 2 3 3 3 3 2 3 3 3 3 3 3 2 2 3 3 3 3 2 2 2 2 2 2 3 3 3 3 2 2 2 2 3 3 3 3 3 3 2 2 2 2 2 2 2 2 2 2 2 2 3 2 2 2 2 2 2 2 2 2 2 2 2 2 2 2 2 2 2 2 2 3 3 2 2 2 3 2 2 3 2 2 2 2 2 2 2 2 2 2 2 2 2 2 2 2 2 2 </DataArray>
</CellData>
</Piece>
</UnstructuredGrid>
</VTKFile>