<?xml version="1.0"?>
<VTKFile type="UnstructuredGrid"  version="0.1"  >
<UnstructuredGrid>
<Piece  NumberOfPoints="27" NumberOfCells="54">
<Points>
<DataArray  type="Float64"  NumberOfComponents="3"  format="ascii">0.1661565775744638 1.551646101203875 2.556887451517214  0.009516601073950248 1.999062696605036 3  -0.2364866174756214 1.668666085867203 2.679620485558821  -0.1428347826811779 1.985932001805516 2.521964616201382  -0.09711585788368765 1.490793832837871 3  -0.1950903220161293 0.9807852804032301 3  -0.3268399160465632 1.2991464862264 2.700131573630263  -0.5519289362489997 1.38314656429069 3  -0.6796881143437906 1.523987731700569 2.661181032844699  -0.7376982336589788 1.856152252497978 2.455194588060328  -0.5915000795287085 1.90050097770291 3  -0.4454176205645277 1.9448146071629 2.61157576185748  0.04504083786607943 1.649225737844505 2.218881006887865  -0.2285005142135763 1.469324511627211 2.388520136497989  -0.2267774030441232 1.683882521290659 1.983168789418239  -0.4564056051469291 1.941481438480299 2.257537498022789  -0.3601128451112234 1.587340955334554 3  0.1276238778575568 1.637250392049376 3  -0.8750023968525584 1.789157652207271 3  -0.295014633292688 1.970943594756104 3  -0.06873693303092365 1.389446822062717 1.983219617280064  0.01090256986352663 1.296448819505796 2.715241883618103  0.08031105797774156 1.311169543640173 2.313436608907443  -0.03930125034265274 0.996129164700061 2.568295406843527  -0.5458800897167457 1.599865209253661 2.307170106181403  -0.7062297636539285 1.865698108512207 2.04206230673467  -0.475714278225114 1.461073098013345 1.990623103556109  </DataArray>
</Points>
<Cells>
<DataArray  type="UInt32"  Name="connectivity"  format="ascii">0 1 2 3  4 5 6 7  8 9 10 11  8 2 10 11  12 13 14 15  12 13 2 3  12 13 3 15  4 2 6 16  0 1 17 2  8 18 7 10  2 10 11 19  20 12 13 14  4 6 7 16  21 4 5 6  12 0 22 13  21 22 23 13  0 21 22 13  0 17 4 2  8 18 9 10  2 3 11 15  2 3 11 19  8 7 10 16  13 2 3 15  21 23 5 6  4 2 16 19  2 10 16 19  1 2 3 19  1 4 2 19  8 2 10 16  1 17 4 2  8 13 2 24  8 13 2 6  8 2 6 16  8 6 7 16  20 12 22 13  12 0 13 2  9 11 15 24  12 0 2 3  13 2 15 24  8 2 11 24  21 23 13 6  21 13 2 6  0 21 13 2  2 11 15 24  8 9 11 24  9 15 24 25  0 21 4 2  0 21 17 4  21 4 2 6  13 14 15 24  14 15 24 25  26 14 24 25  26 13 14 24  20 26 13 14  </DataArray>
<DataArray  type="UInt32"  Name="offsets"  format="ascii">4 8 12 16 20 24 28 32 36 40 44 48 52 56 60 64 68 72 76 80 84 88 92 96 100 104 108 112 116 120 124 128 132 136 140 144 148 152 156 160 164 168 172 176 180 184 188 192 196 200 204 208 212 216 </DataArray>
<DataArray  type="UInt8"  Name="types"  format="ascii">10 10 10 10 10 10 10 10 10 10 10 10 10 10 10 10 10 10 10 10 10 10 10 10 10 10 10 10 10 10 10 10 10 10 10 10 10 10 10 10 10 10 10 10 10 10 10 10 10 10 10 10 10 10 </DataArray>
</Cells>
<CellData  Scalars="f">
<DataArray  type="Float64"  Name="f"  format="ascii">2 2 3 3 2 2 2 2 2 2 3 2 2 2 2 2 2 2 3 3 3 2 2 2 2 3 3 2 3 2 2 2 2 2 2 2 3 2 2 3 2 2 2 3 3 3 2 2 2 2 3 2 2 2 </DataArray>
</CellData>
</Piece>
</UnstructuredGrid>
</VTKFile>