<?xml version="1.0"?>
<VTKFile type="UnstructuredGrid"  version="0.1"  >
<UnstructuredGrid>
<Piece  NumberOfPoints="27" NumberOfCells="54">
<Points>
<DataArray  type="Float64"  NumberOfComponents="3"  format="ascii">-1.481565705491017 0.68148072401284 3  -1.248180643451476 0.8184088958206328 3  -1.321792150157253 1.072788000801277 2.704729680744416  -1.744079642349356 0.9593374215620627 3  -1.367558477847229 0.6445551758769376 2.337856785046428  -1.638966401215254 0.4151887879065263 2.165380235642512  -1.909045548548626 0.5633324043654051 2.412625223397536  -1.584587574927397 0.5250362983745115 2.724163446472293  -1.51628174194805 0.2500805710234424 2.548357219803956  -1.226372019819206 0.3270480739075828 2.370012777508555  -1.072417303205681 0.7889984600428528 2.264878008245959  -1.207345100161593 0.5453646283348765 2.668306038957506  -0.9884711682419383 0.1170541932096765 3  -0.9053975484695388 0.4172607924959917 3  -1.425722034133373 0.4167178191580928 3  -1.067661353863925 0.9868268625447008 2.537163485791395  -1.378646892471328 0.9857052500752941 2.377250895472625  -0.7319793474097477 0.6767994715531579 3  -0.8307595196333297 0.5564354834405354 2.615727172224359  -1.31793437860139 0.05225952987493204 2.731411973099033  -1.418270870718573 0.08770913575380102 2.157018349698728  -0.8314696123025459 0.5555702330196011 2.237427138497466  -0.965058522091939 0.246934496227205 2.15304399136757  -0.9579954471492393 0.2702183339099078 2.585704176216106  -1.872742076292211 0.6830089138452586 3  -1.823856666218048 0.8100851076195585 2.602030043929778  -1.909045548548627 0.5633324043654053 2.657570655743448  </DataArray>
</Points>
<Cells>
<DataArray  type="UInt32"  Name="connectivity"  format="ascii">0 1 2 3  4 5 6 7  4 5 8 7  4 9 10 11  11 12 13 14  8 7 11 14  2 15 11 16  4 8 7 11  11 13 17 18  1 11 13 17  0 2 3 7  2 4 7 16  8 11 14 19  0 2 7 11  1 2 15 11  9 8 19 20  21 9 22 23  0 7 14 24  0 3 7 24  4 7 25 16  4 9 8 11  5 8 6 7  0 1 11 14  0 1 2 11  9 8 11 19  1 15 11 17  15 11 17 18  1 11 13 14  21 9 10 11  0 7 11 14  2 7 25 16  2 4 11 16  2 3 7 25  3 7 25 24  11 13 18 23  11 12 13 23  2 4 7 11  4 6 7 25  6 7 25 26  7 25 26 24  8 6 7 26  4 15 11 16  11 12 14 19  11 12 19 23  21 9 18 23  21 9 11 18  9 11 18 23  9 11 19 23  5 9 8 20  4 5 9 8  21 10 11 18  15 10 11 18  4 15 10 11  4 15 10 16  </DataArray>
<DataArray  type="UInt32"  Name="offsets"  format="ascii">4 8 12 16 20 24 28 32 36 40 44 48 52 56 60 64 68 72 76 80 84 88 92 96 100 104 108 112 116 120 124 128 132 136 140 144 148 152 156 160 164 168 172 176 180 184 188 192 196 200 204 208 212 216 </DataArray>
<DataArray  type="UInt8"  Name="types"  format="ascii">10 10 10 10 10 10 10 10 10 10 10 10 10 10 10 10 10 10 10 10 10 10 10 10 10 10 10 10 10 10 10 10 10 10 10 10 10 10 10 10 10 10 10 10 10 10 10 10 10 10 10 10 10 10 </DataArray>
</Cells>
<CellData  Scalars="f">
<DataArray  type="Float64"  Name="f"  format="ascii">2 2 2 2 2 2 2 2 2 2 3 2 2 2 2 2 2 2 3 2 2 2 2 2 2 2 2 2 2 2 3 2 3 3 2 2 2 2 3 3 2 2 2 2 2 2 2 2 2 2 2 2 2 2 </DataArray>
</CellData>
</Piece>
</UnstructuredGrid>
</VTKFile>