<?xml version="1.0"?>
<VTKFile type="UnstructuredGrid"  version="0.1"  >
<UnstructuredGrid>
<Piece  NumberOfPoints="34" NumberOfCells="53">
<Points>
<DataArray  type="Float64"  NumberOfComponents="3"  format="ascii">0.9975900863756388 -0.02446826364756045 1.820162622298472  1.306565176860637 0.2424610329078545 1.813117726371024  0.975916883062993 0.2111392772324619 1.907184550331901  0.9951802512173802 -0.04893573061540975 2.071059000858836  1.30638307684875 -0.09277109321427224 1.289033245456324  1.465402221623878 -0.04489871403178196 1.706566879402843  0.9879066000062189 0.122786350702366 1.431478669349838  1.240324522846978 -0.3320077038749461 1.621876263441188  1.427438726121689 -0.4205119031039213 1.226491637279935  0.983209864912874 -0.1704731023705619 1.402644267236984  1.68221040786837 -1.075086618014131 1.897078622044345  1.525834664853178 -1.278202855471096 2.001983103516767  1.577906393046284 -1.214753271084339 2.322127980053373  1.328949563601201 -1.01262221653328 1.84952744500381  1.311974525224038 -0.6956341727803129 1.675784623073192  1.329644016801523 -0.7148664512826449 2.196512634839139  1.225354387501196 -0.4131867490015729 2.04310263419407  1.568024024482216 -0.4128773890885717 1.95366538225923  0.9348982732850508 -0.3463595120151748 0.9483086574781385  0.7293269091082188 -0.6800314769749751 1.813533847354121  1.025396053603225 -0.8796225306606058 1.994863228994994  0.8087702907739448 -0.5832294363306567 2.257349008093577  0.9370351277853799 -0.3393152467708075 2.235031275832076  0.9579954471492396 -0.2702183339099079 1.860070322440181  1.878852127552321 -0.6628667742067083 2.216665104030088  1.799324494115028 -0.8559815734796798 2.019519625868195  0.9945396279790377 -0.05544008750856189 1.131547179751708  0.889697853345768 -0.4466328561777781 1.359680527267251  1.373199007690748 -0.07088942277561612 2.072909093853512  1.857778795633229 -0.7323362395342716 1.753883395069307  1.961570560806461 -0.3901806440322506 2.180828740535496  1.735674200836646 -0.9750628965753344 2.473325756265922  1.73621466789964 -0.9740517538195665 1.62714171255065  0.9499318752610488 0.296800368011287 1.644410838642258  </DataArray>
</Points>
<Cells>
<DataArray  type="UInt32"  Name="connectivity"  format="ascii">0 1 2 3  4 5 6 7  4 8 7 9  10 11 12 13  14 15 16 17  4 8 9 18  19 20 16 21  22 16 23 21  15 17 24 25  9 18 26 27  0 1 5 28  19 14 16 23  4 6 7 9  17 24 25 29  7 14 16 17  13 14 20 15  0 1 3 28  14 15 17 25  8 9 18 27  17 30 24 29  1 2 3 28  14 20 15 16  10 12 15 25  7 9 27 23  4 9 18 26  3 16 23 28  5 7 16 28  12 15 25 31  15 24 25 31  19 16 23 21  7 16 23 28  10 12 13 15  4 6 9 26  7 14 16 23  19 14 20 16  14 17 25 29  0 3 23 28  3 22 16 23  8 7 9 27  13 14 15 25  10 13 14 25  10 13 15 25  0 5 7 28  0 7 23 28  0 7 9 23  0 6 7 9  0 5 6 7  10 14 25 29  10 14 32 29  0 1 5 6  0 1 6 33  1 4 5 6  0 1 2 33  </DataArray>
<DataArray  type="UInt32"  Name="offsets"  format="ascii">4 8 12 16 20 24 28 32 36 40 44 48 52 56 60 64 68 72 76 80 84 88 92 96 100 104 108 112 116 120 124 128 132 136 140 144 148 152 156 160 164 168 172 176 180 184 188 192 196 200 204 208 212 </DataArray>
<DataArray  type="UInt8"  Name="types"  format="ascii">10 10 10 10 10 10 10 10 10 10 10 10 10 10 10 10 10 10 10 10 10 10 10 10 10 10 10 10 10 10 10 10 10 10 10 10 10 10 10 10 10 10 10 10 10 10 10 10 10 10 10 10 10 </DataArray>
</Cells>
<CellData  Scalars="f">
<DataArray  type="Float64"  Name="f"  format="ascii">2 2 2 3 2 2 2 2 2 2 2 2 2 3 2 2 2 2 2 3 2 2 2 2 2 2 2 2 2 2 2 2 2 2 2 2 2 2 2 2 2 2 2 2 2 2 2 2 2 2 2 2 2 </DataArray>
</CellData>
</Piece>
</UnstructuredGrid>
</VTKFile>