<?xml version="1.0"?>
<VTKFile type="UnstructuredGrid"  version="0.1"  >
<UnstructuredGrid>
<Piece  NumberOfPoints="29" NumberOfCells="54">
<Points>
<DataArray  type="Float64"  NumberOfComponents="3"  format="ascii">0.1442795150810441 1.484939248488856 1.010602050919654  -0.009012304300633239 1.708706554924846 0.7398374173822192  -0.1118209022403694 1.988986602413682 0.9801646178047809  0.182152240719404 1.982059570186894 1.044691886492768  -0.2730822081236509 1.405944611692334 0  -0.380664042958306 1.962507864201424 0  -0.6738580304136191 1.875517966433276 0  -0.4012415102259741 1.637630821126016 0.2710145018262761  -0.6062226566438368 1.439697221576838 0.430144653775685  -0.5275263661176661 1.919907191504196 0.3753676109091024  -0.5275263661176652 1.919907191504196 0.6776658123553367  -0.1756545249279831 1.50164596419359 0.4637215754534496  -0.2460470695733416 1.975766478825804 0.5265167116322187  0.07650029150423335 1.992465378932516 0.4968308293025495  -0.3788887885544553 1.455913956808009 0.8999474566814727  0.02676643764601537 1.300197661506557 0.7064266809922422  0.3035663841944029 1.468329231260957 0.5178133255738145  -0.1834299297759022 1.649144526163002 1.221032517683487  -0.8162735538549999 1.820548872790972 0.395726449599914  0.1391998973416516 1.661628473974168 0.2874369829148079  0.4506392931273455 1.615455817897696 0.7978568622240574  0.3805775488420378 1.962516383128318 0.8191316464293175  -0.07613280859166777 1.992501572840284 0  0.380577548842038 1.962516383128318 0.3823981616479639  -0.6083507165798478 1.366724482697605 0  -0.09708392555109108 0.9904380679290505 0.8772233868214522  0.1643047838855171 1.320926202876569 0.2601257099434788  -0.9509039190911256 1.74858744333514 0  0.05207958592487053 1.496570209466655 0  </DataArray>
</Points>
<Cells>
<DataArray  type="UInt32"  Name="connectivity"  format="ascii">0 1 2 3  4 5 6 7  8 7 9 10  1 11 12 13  14 1 15 11  5 7 9 12  1 16 15 11  0 2 3 17  5 6 7 9  8 9 10 18  1 10 11 12  19 11 12 13  1 19 16 13  1 20 13 21  19 12 13 22  20 13 23 21  1 2 12 13  1 19 11 13  7 10 11 12  14 1 2 17  8 6 7 24  14 0 25 15  1 3 20 21  26 19 16 11  7 9 10 12  26 16 15 11  8 6 18 27  8 7 10 11  8 14 10 11  1 3 13 21  0 1 2 17  5 7 12 22  14 0 1 17  14 1 2 10  14 0 1 15  19 7 12 22  19 7 11 12  8 6 24 27  8 6 7 18  1 19 16 11  14 1 10 11  6 7 9 18  8 7 9 18  1 2 10 12  4 6 7 24  28 4 7 22  4 5 7 22  28 19 7 22  0 1 16 15  0 1 20 16  1 20 16 13  20 16 13 23  1 2 3 13  0 1 3 20  </DataArray>
<DataArray  type="UInt32"  Name="offsets"  format="ascii">4 8 12 16 20 24 28 32 36 40 44 48 52 56 60 64 68 72 76 80 84 88 92 96 100 104 108 112 116 120 124 128 132 136 140 144 148 152 156 160 164 168 172 176 180 184 188 192 196 200 204 208 212 216 </DataArray>
<DataArray  type="UInt8"  Name="types"  format="ascii">10 10 10 10 10 10 10 10 10 10 10 10 10 10 10 10 10 10 10 10 10 10 10 10 10 10 10 10 10 10 10 10 10 10 10 10 10 10 10 10 10 10 10 10 10 10 10 10 10 10 10 10 10 10 </DataArray>
</Cells>
<CellData  Scalars="f">
<DataArray  type="Float64"  Name="f"  format="ascii">2 2 2 2 2 3 2 2 3 2 2 2 2 3 3 3 3 2 2 2 2 2 3 2 3 2 2 2 2 3 2 3 2 2 2 3 2 2 2 2 2 3 2 3 2 2 2 2 2 2 2 2 3 2 </DataArray>
</CellData>
</Piece>
</UnstructuredGrid>
</VTKFile>