<?xml version="1.0"?>
<VTKFile type="UnstructuredGrid"  version="0.1"  >
<UnstructuredGrid>
<Piece  NumberOfPoints="29" NumberOfCells="55">
<Points>
<DataArray  type="Float64"  NumberOfComponents="3"  format="ascii">0.9909472039646317 -1.396967610995839 1.453240451611627  1.092491429426801 -1.237240286631584 1.100137911566619  1.249062703564479 -1.017640071547412 1.395575611324744  1.327968818890031 -1.484992794170104 1.416664223210889  1.036045472981225 -1.131598142160147 2.305939992440852  1.293553889202226 -1.513236397052745 2.007893450637432  1.377007681604169 -1.444747639614252 2.604296761945696  1.140923172883932 -1.638497188764155 2.487169426358633  0.9955766913757021 -0.8275633668952809 1.576748496695827  0.9891672680131292 -1.158577117081503 1.709826940973592  0.6813237769356962 -1.132131688961445 1.54583786593008  0.8987160698082683 -0.9435129158360137 1.23366329697726  0.5238237203988727 -1.388038725607619 1.724904091630777  0.7107646604222453 -1.050939884317248 1.921355779877147  0.4900224729062127 -1.618213138855729 1.965515523460702  0.6374322841645239 -1.886567595755861 1.814272024545088  1.045616735806038 -1.697962388083754 1.854642902969586  0.8752002485092774 -1.789051898293489 2.140550538656832  1.328949563601201 -1.01262221653328 1.84952744500381  1.025396053603225 -0.8796225306606058 1.994863228994994  0.823618557462329 -1.38027006992058 2.033389351131806  1.525834664853178 -1.278202855471096 2.001983103516767  0.6749552035345591 -0.7334928990572152 1.451553990159651  1.577906393046284 -1.214753271084339 2.322127980053373  0.9674222440721738 -1.739758214685516 1.521144800278962  0.7251335680040807 -1.584997682751503 2.368746179622643  1.329644016801523 -0.7148664512826449 2.196512634839139  1.37635383017384 -1.445284241615477 1.718668445928643  1.577906393046284 -1.214753271084338 1.681838226980161  </DataArray>
</Points>
<Cells>
<DataArray  type="UInt32"  Name="connectivity"  format="ascii">0 1 2 3  4 5 6 7  8 9 10 11  12 13 9 10  8 2 9 11  14 15 16 17  8 9 18 19  5 9 16 20  8 13 9 10  8 2 9 18  0 1 2 11  4 5 21 18  12 0 16 20  22 8 10 11  8 13 9 19  4 5 6 23  4 5 7 20  4 5 9 20  12 15 16 24  4 9 19 20  0 9 10 11  4 9 18 19  13 4 19 20  5 7 17 20  4 5 9 18  7 17 20 25  4 5 21 23  5 16 17 20  12 0 9 20  12 0 16 24  4 18 19 26  13 9 19 20  12 13 9 20  4 21 23 18  4 23 18 26  5 9 16 27  12 0 9 10  0 2 9 11  0 9 16 20  4 7 20 25  5 9 18 27  5 21 18 27  2 3 28 27  0 2 3 27  0 3 24 27  0 16 24 27  0 9 16 27  0 2 9 27  2 9 18 27  2 18 28 27  21 18 28 27  12 14 15 16  12 14 16 20  14 16 17 20  14 17 20 25  </DataArray>
<DataArray  type="UInt32"  Name="offsets"  format="ascii">4 8 12 16 20 24 28 32 36 40 44 48 52 56 60 64 68 72 76 80 84 88 92 96 100 104 108 112 116 120 124 128 132 136 140 144 148 152 156 160 164 168 172 176 180 184 188 192 196 200 204 208 212 216 220 </DataArray>
<DataArray  type="UInt8"  Name="types"  format="ascii">10 10 10 10 10 10 10 10 10 10 10 10 10 10 10 10 10 10 10 10 10 10 10 10 10 10 10 10 10 10 10 10 10 10 10 10 10 10 10 10 10 10 10 10 10 10 10 10 10 10 10 10 10 10 10 </DataArray>
</Cells>
<CellData  Scalars="f">
<DataArray  type="Float64"  Name="f"  format="ascii">3 2 2 2 2 3 2 2 2 2 2 2 2 2 2 2 2 2 2 2 2 2 2 3 2 3 2 3 2 2 2 2 2 2 2 2 2 2 2 2 2 3 3 3 3 3 2 2 2 3 3 2 2 3 3 </DataArray>
</CellData>
</Piece>
</UnstructuredGrid>
</VTKFile>