<?xml version="1.0"?>
<VTKFile type="UnstructuredGrid"  version="0.1"  >
<UnstructuredGrid>
<Piece  NumberOfPoints="29" NumberOfCells="56">
<Points>
<DataArray  type="Float64"  NumberOfComponents="3"  format="ascii">0.4290099311982717 0.8991175029953397 1.197491932796561  0.5911820470464325 0.802243751827791 0.8786518036551082  0.7016393297798049 1.063836696035372 1.070733255320897  0.7816643063515599 0.6162581739138656 1.201287791390862  1.260707342937499 0.7300631062328511 0.9419800973833657  0.9407160489645355 0.8426778128053216 0.8413702161955313  1.185694870140822 0.5668471748948971 0.6562871613763798  0.9349189856343629 0.3462912325500227 0.7047979544872645  0.4671578611291403 1.204306292433994 0.6398323713313319  0.5811491229633505 0.8104775598327704 0.4195582311435302  0.4813410780483055 0.8711459222469204 0.6525577465606014  0.4706916550363877 1.200155881993751 0.3061720388465  1.411246688167548 0.8229637507738986 0.588954136180895  1.12927075251153 1.116891617068138 0.9615898563112137  1.017988283394929 1.096890304312389 0.5685089787574747  0.9248198794793943 1.157533796277712 1.31350528724392  1.388409894790153 0.9793438094792545 1.146169918058405  1.041119345695563 0.8518276646801668 1.186872341811162  0.9529390101181481 0.2868871729127317 1.078171209914726  0.7610821922140668 1.480496114794606 1.212109319789605  0.6048500187449869 1.094333828430617 1.416453345737009  0.2702183339099075 0.9579954471492396 0.7783171086140179  0.2702183339099075 0.9579954471492393 0.4203232145017637  1.116274092375622 0.7030559869568249 0.3554305840292444  0.7816643063515599 0.6162581739138655 0.6208355503410141  1.210151134424121 0.4870046897190103 1.173712518554512  0.6539837630963129 1.343736809428488 0.8786087193327419  1.266959080528367 1.072837320342046 0.3070083336368682  0.9352571762918497 1.404926263040069 0.6931304041311881  </DataArray>
</Points>
<Cells>
<DataArray  type="UInt32"  Name="connectivity"  format="ascii">0 1 2 3  4 5 6 7  8 9 10 11  12 5 13 14  15 16 13 17  4 5 7 18  2 5 13 17  19 2 20 15  4 12 16 13  1 2 8 21  22 9 10 11  5 6 23 24  12 5 6 14  5 9 14 24  12 6 14 23  2 20 15 17  4 25 3 5  4 16 13 17  4 3 5 17  4 12 5 6  4 6 7 18  5 6 7 24  5 14 23 24  5 9 10 14  25 3 5 18  2 3 20 17  2 15 13 17  8 9 10 14  4 25 6 18  0 1 2 21  1 8 10 21  8 22 10 11  5 13 14 26  4 12 5 13  1 5 10 24  27 12 14 23  4 25 5 18  8 22 10 21  0 2 3 20  1 3 5 24  3 5 7 24  3 5 7 18  5 9 10 24  1 2 3 5  1 2 5 26  4 5 13 17  2 3 5 17  2 5 13 26  4 25 3 17  5 6 14 23  8 14 26 28  8 5 14 26  1 8 5 26  1 2 8 26  1 8 5 10  8 5 10 14  </DataArray>
<DataArray  type="UInt32"  Name="offsets"  format="ascii">4 8 12 16 20 24 28 32 36 40 44 48 52 56 60 64 68 72 76 80 84 88 92 96 100 104 108 112 116 120 124 128 132 136 140 144 148 152 156 160 164 168 172 176 180 184 188 192 196 200 204 208 212 216 220 224 </DataArray>
<DataArray  type="UInt8"  Name="types"  format="ascii">10 10 10 10 10 10 10 10 10 10 10 10 10 10 10 10 10 10 10 10 10 10 10 10 10 10 10 10 10 10 10 10 10 10 10 10 10 10 10 10 10 10 10 10 10 10 10 10 10 10 10 10 10 10 10 10 </DataArray>
</Cells>
<CellData  Scalars="f">
<DataArray  type="Float64"  Name="f"  format="ascii">2 2 2 2 2 2 2 2 2 2 2 2 2 2 2 2 2 2 2 2 2 2 2 2 2 2 2 2 2 2 2 2 2 2 2 2 2 2 2 2 2 2 2 2 2 2 2 2 2 2 2 2 2 2 2 2 </DataArray>
</CellData>
</Piece>
</UnstructuredGrid>
</VTKFile>