<?xml version="1.0"?>
<VTKFile type="UnstructuredGrid"  version="0.1"  >
<UnstructuredGrid>
<Piece  NumberOfPoints="29" NumberOfCells="54">
<Points>
<DataArray  type="Float64"  NumberOfComponents="3"  format="ascii">-0.7816643063515567 -0.6162581739138697 0.6026581783062313  -0.9371087481055426 -0.8922251360447764 1.088664921171928  -1.16338190992118 -0.9589332540313191 0.8328925187681296  -0.7884716442301241 -1.095831524663976 0.8509538879258189  -1.019261186056348 -0.8585171825553823 1.460518224155073  -1.205148256874422 -0.3774773616642302 1.56089248708819  -0.7951296159210844 -0.5998506467302667 1.75433246864053  -0.9179380497992715 -0.3937991646901919 1.364903497849802  -1.657390101034077 -1.117902092674408 1.056122856986421  -1.32529567496066 -1.487186586697769 0.9371745409670237  -1.299777470967316 -0.9630104139010042 1.242983813690666  -0.9588110646998161 -1.223096706791814 1.189203961289622  -0.718776826249423 -1.07158912740432 1.415368659861116  -0.7044377747742363 -0.709297178141717 1.39923211058477  -1.13882373532475 -0.638349042128715 1.210784036510337  -1.535543153705772 -1.266373027576076 0.5445885382132033  -0.9372154852963699 -0.3387206877374102 0.7761614215651188  -0.8210399622300658 -0.5682787984035673 1.048144645553444  -1.497195668686971 -0.7760486313250851 0.9253912365542269  -0.5555702330195977 -0.8314696123025477 1.068759465842304  -0.9423848302186555 -0.3216796412990161 1.782274022494871  -1.195386833276349 -0.5940202242492556 0.825287507851131  -1.716317304170605 -1.011277103098104 0.634173731770606  -1.31118241156544 -0.7076136899520298 1.591462913785664  -1.136987574194024 -0.6174439811883486 1.914508136383919  -1.829876992465486 -0.7988218694145495 1.130912378998781  -1.853357911672155 -0.7469099408469142 0.7649736036555974  -1.405602299093617 -0.4281699265829389 1.080392801027884  -1.576745284602963 -0.4950996627568143 1.416069836141637  </DataArray>
</Points>
<Cells>
<DataArray  type="UInt32"  Name="connectivity"  format="ascii">0 1 2 3  4 5 6 7  2 8 9 10  2 9 10 11  1 3 12 11  1 4 13 14  2 8 9 15  7 16 14 17  1 2 10 11  2 10 18 14  1 13 17 19  5 6 7 20  16 21 14 17  2 8 18 22  4 5 6 23  5 6 24 23  25 26 8 18  2 8 15 22  10 27 18 14  4 6 12 13  0 1 3 17  1 4 12 11  1 4 10 11  1 3 17 19  1 12 13 19  0 3 17 19  1 3 12 19  0 1 21 17  1 2 21 14  0 1 2 21  1 13 14 17  1 2 3 11  2 18 21 14  1 4 12 13  4 23 10 14  4 6 24 23  25 8 10 18  4 7 13 14  4 6 7 13  10 28 27 14  23 10 28 14  2 8 10 18  26 8 18 22  7 13 14 17  5 6 24 20  25 28 27 18  25 10 28 18  10 28 27 18  1 2 10 14  1 4 10 14  0 16 21 17  1 21 14 17  4 5 7 14  4 5 23 14  </DataArray>
<DataArray  type="UInt32"  Name="offsets"  format="ascii">4 8 12 16 20 24 28 32 36 40 44 48 52 56 60 64 68 72 76 80 84 88 92 96 100 104 108 112 116 120 124 128 132 136 140 144 148 152 156 160 164 168 172 176 180 184 188 192 196 200 204 208 212 216 </DataArray>
<DataArray  type="UInt8"  Name="types"  format="ascii">10 10 10 10 10 10 10 10 10 10 10 10 10 10 10 10 10 10 10 10 10 10 10 10 10 10 10 10 10 10 10 10 10 10 10 10 10 10 10 10 10 10 10 10 10 10 10 10 10 10 10 10 10 10 </DataArray>
</Cells>
<CellData  Scalars="f">
<DataArray  type="Float64"  Name="f"  format="ascii">2 2 2 2 2 2 2 2 2 2 2 2 2 2 2 2 3 2 2 2 2 2 2 2 2 2 2 2 2 2 2 2 2 2 2 2 3 2 2 2 2 2 3 2 2 2 3 2 2 2 2 2 2 2 </DataArray>
</CellData>
</Piece>
</UnstructuredGrid>
</VTKFile>