<?xml version="1.0"?>
<VTKFile type="UnstructuredGrid"  version="0.1"  >
<UnstructuredGrid>
<Piece  NumberOfPoints="28" NumberOfCells="54">
<Points>
<DataArray  type="Float64"  NumberOfComponents="3"  format="ascii">-1.550049039632537 -0.6496605292722291 0.2853683968296907  -1.784649851221481 -0.8834358993235059 0  -1.63260682677192 -1.14810059973846 0  -1.625683641873808 -1.156536524945106 0.3576525378457722  -1.420642843664937 -0.4846101958058707 0.5578312570836884  -1.497195668686971 -0.7760486313250851 0.9253912365542269  -1.195386833276349 -0.5940202242492556 0.825287507851131  -1.296655448597995 -0.9614796122255694 0.460037240580255  -0.9372154852963699 -0.3387206877374102 0.7761614215651188  -1.245130762560976 -0.2889533303603645 0.3509780132825951  -1.291798766716753 -0.222227216590204 0.7903288354638301  -1.346501354169998 0.04122682333998573 0.4612535976434082  -0.9988204316776867 -0.01197635816027373 0.4906428092101087  -0.9273729073291088 -0.3711673189325002 0.4153610048404833  -1.183076468172314 -0.614602892452802 0.3065258891784802  -1.853357911672155 -0.7469099408469142 0.7649736036555974  -1.716317304170605 -1.011277103098104 0.634173731770606  -1.535543153705772 -1.266373027576076 0.5445885382132033  -1.476988071181309 -1.337722602073234 0.3436644764325797  -0.7816643063515567 -0.6162581739138697 0.6026581783062313  -0.945054747744883 -0.9397443290066212 0.2792226860027984  -0.8684335803860386 -0.4864155127578036 0  -1.150281274228815 -0.9501967741745472 0  -1.381450270377713 -0.5582115301166275 0  -1.16338190992118 -0.9589332540313191 0.8328925187681296  -0.9807852804032304 -0.1950903220161286 0  -1.853357911672155 -0.7469099408469135 0.4148669158960601  -0.9988204316776866 -0.01197635816027369 0.9202779528728253  </DataArray>
</Points>
<Cells>
<DataArray  type="UInt32"  Name="connectivity"  format="ascii">0 1 2 3  4 5 6 7  4 8 9 10  11 9 10 12  4 8 9 13  4 6 7 14  4 6 13 14  8 9 10 12  15 4 5 16  3 7 17 18  19 20 14 21  22 20 14 21  2 3 7 18  22 14 21 23  24 7 17 16  14 21 23 25  9 12 13 25  0 9 14 23  0 1 22 23  4 0 16 26  19 24 6 7  13 14 21 25  4 5 7 16  4 9 13 14  0 3 7 16  0 1 3 26  24 5 6 7  4 0 9 14  19 24 7 20  19 13 14 21  0 3 16 26  0 1 2 22  8 9 12 13  24 5 7 16  15 4 16 26  0 22 14 23  4 0 7 16  19 7 20 14  4 8 6 13  4 0 7 14  9 13 14 25  3 7 17 16  9 14 23 25  0 2 3 7  7 22 20 14  0 7 22 14  0 2 7 22  27 11 10 12  27 8 10 12  4 8 6 10  19 6 7 14  19 6 13 14  19 8 6 13  11 9 12 25  </DataArray>
<DataArray  type="UInt32"  Name="offsets"  format="ascii">4 8 12 16 20 24 28 32 36 40 44 48 52 56 60 64 68 72 76 80 84 88 92 96 100 104 108 112 116 120 124 128 132 136 140 144 148 152 156 160 164 168 172 176 180 184 188 192 196 200 204 208 212 216 </DataArray>
<DataArray  type="UInt8"  Name="types"  format="ascii">10 10 10 10 10 10 10 10 10 10 10 10 10 10 10 10 10 10 10 10 10 10 10 10 10 10 10 10 10 10 10 10 10 10 10 10 10 10 10 10 10 10 10 10 10 10 10 10 10 10 10 10 10 10 </DataArray>
</Cells>
<CellData  Scalars="f">
<DataArray  type="Float64"  Name="f"  format="ascii">3 2 2 2 2 2 2 2 2 3 2 2 3 2 2 2 2 2 2 2 2 2 2 2 3 3 2 2 2 2 3 2 2 2 2 2 2 2 2 2 2 3 2 3 2 2 2 2 2 2 2 2 2 2 </DataArray>
</CellData>
</Piece>
</UnstructuredGrid>
</VTKFile>