<?xml version="1.0"?>
<VTKFile type="UnstructuredGrid"  version="0.1"  >
<UnstructuredGrid>
<Piece  NumberOfPoints="25" NumberOfCells="54">
<Points>
<DataArray  type="Float64"  NumberOfComponents="3"  format="ascii">0.3992169207580993 -1.237099101505668 1.191803284662142  0.5008599238356093 -1.41435896777325 0.8102226109784102  0.4927506055834525 -1.603916414605352 1.164357972639447  0.1225121416717126 -1.277591265884165 1.003367433258137  0.3640039983156202 -0.9295458768818553 1.492983459038144  0.5238237203988727 -1.388038725607619 1.724904091630777  0.1021569525316506 -1.327805660959527 1.653761852414816  0.8485002008188643 -1.429461788386965 0.9449229369154447  0.781499263791819 -1.839136118074525 1.05609281052021  1.044105157612409 -1.698770343461109 1.201419811392828  0.7254674099728107 -1.304169847058303 1.244484909711385  0.9909472039646317 -1.396967610995839 1.453240451611627  0.6749552035345591 -0.7334928990572152 1.451553990159651  0.6813237769356962 -1.132131688961445 1.54583786593008  0.4241446011805524 -0.9017180760698862 1.216529763708969  1.092491429426801 -1.237240286631584 1.100137911566619  0.6880433675056885 -1.121966191992488 0.9284130437667307  0.1825353671571631 -1.449660084558329 1.338705133025003  0.1164685713061415 -0.9885288469650542 1.392686278619681  0.6870330808033569 -1.871521358591189 1.38108905317057  0.9674222440721738 -1.739758214685516 1.521144800278962  0.4443099137545717 -1.629069757836743 1.49943402743056  0.8987160698082683 -0.9435129158360137 1.23366329697726  0.3077697302541748 -0.9466043556033813 0.9610693252871769  1.327968818890031 -1.484992794170104 1.416664223210889  </DataArray>
</Points>
<Cells>
<DataArray  type="UInt32"  Name="connectivity"  format="ascii">0 1 2 3  4 5 0 6  7 8 9 10  11 7 9 10  4 12 13 14  15 7 10 16  4 0 17 18  1 7 10 16  11 10 19 20  0 2 21 10  15 22 10 16  11 15 7 10  11 15 22 10  4 0 6 17  0 1 3 23  0 2 21 17  0 23 18 14  11 9 10 20  5 0 6 17  4 5 0 13  0 1 2 10  11 13 22 10  4 0 13 14  4 6 17 18  0 2 3 17  2 7 8 10  1 2 7 10  5 11 13 10  12 13 22 14  13 22 10 14  22 10 16 14  9 10 19 20  2 9 10 19  2 8 9 19  2 8 9 10  4 0 18 14  0 3 23 18  11 15 7 9  11 24 9 20  11 15 24 9  5 21 11 10  21 11 10 19  2 21 10 19  21 11 19 20  5 21 11 20  0 3 17 18  5 0 21 17  5 0 21 10  5 0 13 10  0 13 10 14  0 10 16 14  0 23 16 14  0 1 23 16  0 1 10 16  </DataArray>
<DataArray  type="UInt32"  Name="offsets"  format="ascii">4 8 12 16 20 24 28 32 36 40 44 48 52 56 60 64 68 72 76 80 84 88 92 96 100 104 108 112 116 120 124 128 132 136 140 144 148 152 156 160 164 168 172 176 180 184 188 192 196 200 204 208 212 216 </DataArray>
<DataArray  type="UInt8"  Name="types"  format="ascii">10 10 10 10 10 10 10 10 10 10 10 10 10 10 10 10 10 10 10 10 10 10 10 10 10 10 10 10 10 10 10 10 10 10 10 10 10 10 10 10 10 10 10 10 10 10 10 10 10 10 10 10 10 10 </DataArray>
</Cells>
<CellData  Scalars="f">
<DataArray  type="Float64"  Name="f"  format="ascii">2 2 2 2 2 2 2 2 2 2 2 2 2 2 2 2 2 2 2 2 2 2 2 2 2 2 2 2 2 2 2 2 2 3 2 2 2 3 3 3 2 2 2 3 2 2 2 2 2 2 2 2 2 2 </DataArray>
</CellData>
</Piece>
</UnstructuredGrid>
</VTKFile>