<?xml version="1.0"?>
<VTKFile type="UnstructuredGrid"  version="0.1"  >
<UnstructuredGrid>
<Piece  NumberOfPoints="30" NumberOfCells="56">
<Points>
<DataArray  type="Float64"  NumberOfComponents="3"  format="ascii">1.291716056056339 1.514744667736657 1.566197140660724  1.229206351219692 1.160190834715364 1.468546914215901  0.8002820848895167 1.245517446431679 1.806354342913812  0.8085647595130739 1.466040108342257 1.5481343673394  0.4290099311982717 0.8991175029953397 1.197491932796561  0.1523760183173296 0.9849922721179493 1.540021591033011  0.4902387178597494 0.8663900346840245 1.644223245116999  0.6048500187449869 1.094333828430617 1.416453345737009  0.7610821922140668 1.480496114794606 1.212109319789605  0.9248198794793943 1.157533796277712 1.31350528724392  1.310285011115728 1.499505520151565 1.221305217044282  1.043351705441751 1.699173072036732 1.471319563029217  0.5681290962822957 1.549327866949738 1.773146020401223  0.4653676037139801 1.406216133155081 1.432180213150491  0.4647844889462314 1.222718290358298 1.725376484616937  0.9218510219741471 0.9261978185950753 1.624065965663955  0.756132811102644 1.850560184566739 1.503152000270716  0.2619811471086827 0.9604941704476454 1.824094099115754  0.4810476458715273 0.8713027650130547 2.041009416210509  0.5558257833500052 1.911322657138745 1.900059277335361  0.1898814847936827 1.573183929223919 1.712662906107614  0.3333848312727352 1.967164460109957 1.63125333343706  1.041119345695563 0.8518276646801668 1.186872341811162  1.013770822252929 1.714984383512416 1.793150909366531  0.5165522821737178 1.172046529814467 2.226237013913654  0.834773061326767 0.5493899145902292 1.644223245116999  0.7816643063515599 0.6162581739138656 1.201287791390862  0.9523811489366802 0.9280136144060591 1.991006714703743  0.78166430635156 0.6162581739138655 2.087158698843136  0.6188712620331606 0.7795198003534882 2.306042624597293  </DataArray>
</Points>
<Cells>
<DataArray  type="UInt32"  Name="connectivity"  format="ascii">0 1 2 3  4 5 6 7  8 9 10 11  3 8 7 9  12 3 13 14  2 7 9 15  3 8 16 11  5 6 7 14  0 1 9 10  3 7 13 14  1 2 3 9  6 14 17 18  1 2 9 15  12 19 20 21  7 9 15 22  0 1 3 9  12 3 16 23  2 3 7 9  3 8 9 11  3 16 23 11  12 19 16 23  14 24 17 18  0 3 9 11  2 6 14 18  12 20 13 21  25 26 6 15  12 19 16 21  12 16 13 21  2 6 27 15  0 3 23 11  0 2 3 23  2 6 27 18  25 26 15 22  2 14 24 18  12 20 13 14  0 9 10 11  1 9 15 22  26 7 15 22  2 27 24 18  3 8 7 13  25 6 27 15  25 6 27 28  6 27 18 28  2 6 7 15  5 7 13 14  27 24 29 18  27 29 18 28  5 6 14 17  2 6 7 14  26 6 7 15  4 26 6 7  2 12 3 23  2 12 3 14  2 3 7 14  12 3 16 13  3 8 16 13  </DataArray>
<DataArray  type="UInt32"  Name="offsets"  format="ascii">4 8 12 16 20 24 28 32 36 40 44 48 52 56 60 64 68 72 76 80 84 88 92 96 100 104 108 112 116 120 124 128 132 136 140 144 148 152 156 160 164 168 172 176 180 184 188 192 196 200 204 208 212 216 220 224 </DataArray>
<DataArray  type="UInt8"  Name="types"  format="ascii">10 10 10 10 10 10 10 10 10 10 10 10 10 10 10 10 10 10 10 10 10 10 10 10 10 10 10 10 10 10 10 10 10 10 10 10 10 10 10 10 10 10 10 10 10 10 10 10 10 10 10 10 10 10 10 10 </DataArray>
</Cells>
<CellData  Scalars="f">
<DataArray  type="Float64"  Name="f"  format="ascii">2 2 2 2 2 2 3 2 2 2 2 2 2 3 2 2 3 2 2 3 3 2 2 2 2 2 3 2 2 3 2 2 2 2 2 2 2 2 2 2 2 2 2 2 2 2 2 2 2 2 2 2 2 2 2 2 </DataArray>
</CellData>
</Piece>
</UnstructuredGrid>
</VTKFile>