<?xml version="1.0"?>
<VTKFile type="UnstructuredGrid"  version="0.1"  >
<UnstructuredGrid>
<Piece  NumberOfPoints="31" NumberOfCells="55">
<Points>
<DataArray  type="Float64"  NumberOfComponents="3"  format="ascii">-1.460442964317437 0.4468419858689834 0.4688061786729282  -1.346501354169998 0.04122682333998573 0.4612535976434082  -1.644974219726995 0.1468516289030477 0.3052610429514422  -1.248556068119212 0.3362010128583522 0.2497271173000339  -0.9682729950644814 0.23633779896216 0.705460381041467  -1.169289290396311 0.6178694334978951 0.5466151963945229  -0.8314696123025457 0.5555702330196015 0.592131870607596  -0.9579954471492395 0.2702183339099079 0.3776095963251764  -1.516372324331108 0.7485961155389076 0.3164509087323885  -1.712674355228347 1.018092581199935 0.3953999050837103  -1.853357911672159 0.7469099408469015 0.3783673613307225  -1.853357911672159 0.7469099408469011 0.7128101324276359  -1.632606826771926 1.148100599738452 0  -1.784649851221487 0.8834358993234956 0  -1.619170700615981 0.4264249514190394 0.2243393354361861  -1.942033750161308 0.4545848775410102 0.4566553162984529  -1.363110819737119 0.09168499290265755 0  -1.897725087561845 0.6006509629603471 0  -0.9053975484695388 0.4172607924959917 0  -1.455363504811968 0.3357913363129197 0  -0.9884711682419383 0.1170541932096765 0  -0.8314696123025458 0.5555702330196014 0.3368551254436298  -1.987591768241366 0.125982891254348 0.4868394589393813  -2 -2.449293598294706e-16 0  -1.970006291361142 0.3045312343666257 0  -1.310453516629691 0.6951426320007211 0.8534972697453511  -0.8163371733870979 0.5740091631888196 0.9096750751367708  -1.281405002593622 0.7703394935226551 0  -0.9988204316776866 -0.01197635816027369 0.9202779528728253  -0.9988204316776867 -0.01197635816027373 0.4906428092101087  -0.9807852804032304 -0.1950903220161286 0  </DataArray>
</Points>
<Cells>
<DataArray  type="UInt32"  Name="connectivity"  format="ascii">0 1 2 3  4 5 6 7  4 5 3 7  8 9 10 11  12 8 9 13  0 10 14 15  1 2 3 16  8 10 13 17  3 18 19 20  3 16 19 20  2 3 14 19  3 7 21 18  2 22 23 24  5 25 0 8  0 8 10 11  8 9 10 13  0 10 11 15  5 6 7 21  5 3 7 21  4 5 26 6  3 27 18 19  8 27 13 14  4 5 0 3  5 0 3 8  3 7 18 20  2 23 19 24  2 22 15 24  2 16 23 19  2 3 16 19  2 14 19 24  8 10 14 17  0 8 10 14  25 0 8 11  4 28 1 29  0 3 8 14  12 8 27 13  0 2 14 15  2 14 15 24  14 15 17 24  4 1 7 29  1 7 29 20  1 29 20 30  1 16 20 30  1 3 16 20  1 3 7 20  4 1 3 7  4 0 1 3  10 14 15 17  0 2 3 14  3 27 14 19  27 13 14 19  8 13 14 17  3 8 27 14  13 14 17 19  14 17 19 24  </DataArray>
<DataArray  type="UInt32"  Name="offsets"  format="ascii">4 8 12 16 20 24 28 32 36 40 44 48 52 56 60 64 68 72 76 80 84 88 92 96 100 104 108 112 116 120 124 128 132 136 140 144 148 152 156 160 164 168 172 176 180 184 188 192 196 200 204 208 212 216 220 </DataArray>
<DataArray  type="UInt8"  Name="types"  format="ascii">10 10 10 10 10 10 10 10 10 10 10 10 10 10 10 10 10 10 10 10 10 10 10 10 10 10 10 10 10 10 10 10 10 10 10 10 10 10 10 10 10 10 10 10 10 10 10 10 10 10 10 10 10 10 10 </DataArray>
</Cells>
<CellData  Scalars="f">
<DataArray  type="Float64"  Name="f"  format="ascii">2 2 2 3 3 2 2 3 2 2 2 2 3 2 2 3 2 2 2 2 2 2 2 2 2 2 3 2 2 2 3 2 2 2 2 2 2 3 3 2 2 2 2 2 2 2 2 3 2 2 2 3 2 2 2 </DataArray>
</CellData>
</Piece>
</UnstructuredGrid>
</VTKFile>