<?xml version="1.0"?>
<VTKFile type="UnstructuredGrid"  version="0.1"  >
<UnstructuredGrid>
<Piece  NumberOfPoints="27" NumberOfCells="54">
<Points>
<DataArray  type="Float64"  NumberOfComponents="3"  format="ascii">-1.002683651764804 1.113111278796196 0  -1.438479480639637 1.384645455413685 0  -1.345495349846485 1.110404825705179 0.2846011875062693  -1.264591130544536 1.044008448835518 0  -1.169289290396311 0.6178694334978951 0.5466151963945229  -0.9529143709840853 0.8722663860045278 0.7494782604831286  -1.310453516629691 0.6951426320007211 0.8534972697453511  -0.8163371733870979 0.5740091631888196 0.9096750751367708  -1.632606826771926 1.148100599738452 0  -1.53554315370578 1.266373027576068 0.512597756310079  -1.149563912351546 0.9506533662689182 0.4520590941616618  -1.516372324331108 0.7485961155389076 0.3164509087323885  -1.281405002593622 0.7703394935226551 0  -0.8314696123025457 0.5555702330196015 0.592131870607596  -0.6162581739138656 0.78166430635156 0.4191414197236378  -0.6675264527648972 0.7395895172562288 0.8100690993224364  -1.248556068119212 0.3362010128583522 0.2497271173000339  -1.047573360754929 0.7503466696464647 0.2463986470037509  -1.712674355228347 1.018092581199935 0.3953999050837103  -0.8565322307174396 0.9851968215745449 0.2806003666290897  -0.7319793474097477 0.6767994715531579 0  -0.8314696123025458 0.5555702330196014 0.3368551254436298  -0.9053975484695388 0.4172607924959917 0  -1.682973576838292 1.073658829295447 0.6882383971439707  -1.183147165165283 1.093160462193829 0.9268828513999143  -1.853357911672159 0.7469099408469011 0.7128101324276359  -1.652789181055146 1.123508329889683 0.9820547617975177  </DataArray>
</Points>
<Cells>
<DataArray  type="UInt32"  Name="connectivity"  format="ascii">0 1 2 3  4 5 6 7  1 2 8 9  10 4 6 11  2 3 8 12  5 13 14 15  4 16 11 17  2 10 11 17  2 8 9 18  14 19 20 21  5 13 17 19  16 17 21 22  4 16 17 21  10 4 11 17  0 3 12 17  0 2 3 10  4 13 17 21  10 4 5 13  10 4 5 6  16 11 12 17  10 4 13 17  5 7 13 15  17 19 20 21  13 14 19 21  2 8 11 18  2 10 23 18  2 8 11 12  2 11 12 17  1 2 3 8  2 3 12 17  13 17 19 21  10 5 13 17  17 20 21 22  0 3 10 17  4 5 7 13  5 13 14 19  0 10 17 19  10 5 17 19  2 10 11 18  2 23 9 18  2 10 23 9  2 3 10 17  10 5 6 24  10 6 23 24  10 6 23 11  10 23 11 18  23 11 18 25  6 23 26 25  6 23 24 26  6 23 11 25  16 12 17 22  12 17 20 22  0 12 17 20  0 17 19 20  </DataArray>
<DataArray  type="UInt32"  Name="offsets"  format="ascii">4 8 12 16 20 24 28 32 36 40 44 48 52 56 60 64 68 72 76 80 84 88 92 96 100 104 108 112 116 120 124 128 132 136 140 144 148 152 156 160 164 168 172 176 180 184 188 192 196 200 204 208 212 216 </DataArray>
<DataArray  type="UInt8"  Name="types"  format="ascii">10 10 10 10 10 10 10 10 10 10 10 10 10 10 10 10 10 10 10 10 10 10 10 10 10 10 10 10 10 10 10 10 10 10 10 10 10 10 10 10 10 10 10 10 10 10 10 10 10 10 10 10 10 10 </DataArray>
</Cells>
<CellData  Scalars="f">
<DataArray  type="Float64"  Name="f"  format="ascii">2 2 3 2 2 2 2 2 3 2 2 2 2 2 2 2 2 2 2 2 2 2 2 2 3 2 2 2 3 2 2 2 2 2 2 2 2 2 2 3 2 2 2 2 2 2 3 2 2 2 2 2 2 2 </DataArray>
</CellData>
</Piece>
</UnstructuredGrid>
</VTKFile>