<?xml version="1.0"?>
<VTKFile type="UnstructuredGrid"  version="0.1"  >
<UnstructuredGrid>
<Piece  NumberOfPoints="395" NumberOfCells="1500">
<Points>
<DataArray  type="Float64"  NumberOfComponents="3"  format="ascii">0 0 0.3  0 0 0.4  1 0 0.4  1 0.5 0.4  0 0.5 0.4  1 0.5 0.5  1 0 0.5  0 0 0.5  0 0.5 0.5  2 0 0.4  2 0.5 0.4  2 0.5 0.5  2 0 0.5  3 0 0.4  3 0.5 0.4  3 0.5 0.5  3 0 0.5  4 0 0.4  4 0.5 0.4  4 0.5 0.5  4 0 0.5  5 0 0.4  5 0.5 0.4  5 0.5 0.5  5 0 0.5  1 1 0.4  1 1 0.5  0 1 0.4  0 1 0.5  2 1 0.4  2 1 0.5  3 1 0.4  3 1 0.5  4 1 0.4  4 1 0.5  5 1 0.4  5 1 0.5  1 1.5 0.4  1 1.5 0.5  0 1.5 0.4  0 1.5 0.5  2 1.5 0.4  2 1.5 0.5  3 1.5 0.4  3 1.5 0.5  4 1.5 0.4  4 1.5 0.5  5 1.5 0.4  5 1.5 0.5  1 2 0.4  1 2 0.5  0 2 0.4  0 2 0.5  2 2 0.4  2 2 0.5  3 2 0.4  3 2 0.5  4 2 0.4  4 2 0.5  5 2 0.4  5 2 0.5  1 2.5 0.5  0 2.5 0.5  0 2.5 0.4  2 2.5 0.5  3 2.5 0.5  4 2.5 0.5  5 2.5 0.5  1 3 0.5  0 3 0.5  1 0.5 0.6  1 0 0.6  0 0 0.6  0 0.5 0.6  2 0.5 0.6  2 0 0.6  3 0.5 0.6  3 0 0.6  4 0.5 0.6  4 0 0.6  5 0.5 0.6  5 0 0.6  1 1 0.6  0 1 0.6  2 1 0.6  3 1 0.6  4 1 0.6  5 1 0.6  1 1.5 0.6  0 1.5 0.6  2 1.5 0.6  3 1.5 0.6  4 1.5 0.6  5 1.5 0.6  1 2 0.6  0 2 0.6  2 2 0.6  3 2 0.6  4 2 0.6  5 2 0.6  1 2.5 0.6  0 2.5 0.6  2 2.5 0.6  3 2.5 0.6  4 2.5 0.6  5 2.5 0.6  1 3 0.6  0 3 0.6  2 3 0.6  3 3 0.6  4 3 0.6  5 3 0.6  1 3.5 0.6  0 3.5 0.6  2 3.5 0.6  1 0.5 0.7  1 0 0.7  0 0 0.7  0 0.5 0.7  2 0.5 0.7  2 0 0.7  3 0.5 0.7  3 0 0.7  4 0.5 0.7  4 0 0.7  5 0.5 0.7  5 0 0.7  1 1 0.7  0 1 0.7  2 1 0.7  3 1 0.7  4 1 0.7  5 1 0.7  1 1.5 0.7  0 1.5 0.7  2 1.5 0.7  3 1.5 0.7  4 1.5 0.7  5 1.5 0.7  1 2 0.7  0 2 0.7  2 2 0.7  3 2 0.7  4 2 0.7  5 2 0.7  1 2.5 0.7  0 2.5 0.7  2 2.5 0.7  3 2.5 0.7  4 2.5 0.7  5 2.5 0.7  1 3 0.7  0 3 0.7  2 3 0.7  3 3 0.7  4 3 0.7  5 3 0.7  1 3.5 0.7  0 3.5 0.7  2 3.5 0.7  3 3.5 0.6  3 3.5 0.7  4 3.5 0.6  4 3.5 0.7  5 3.5 0.6  5 3.5 0.7  1 4 0.6  1 4 0.7  0 4 0.6  0 4 0.7  2 4 0.6  2 4 0.7  3 4 0.6  3 4 0.7  4 4 0.6  4 4 0.7  5 4 0.6  5 4 0.7  1 4.5 0.6  1 4.5 0.7  0 4.5 0.6  0 4.5 0.7  2 4.5 0.6  2 4.5 0.7  3 4.5 0.6  3 4.5 0.7  4 4.5 0.6  4 4.5 0.7  5 4.5 0.7  1 5 0.6  1 5 0.7  0 5 0.6  0 5 0.7  2 5 0.7  3 5 0.7  4 5 0.7  5 5 0.7  1 0.5 0.8  1 0 0.8  0 0 0.8  0 0.5 0.8  2 0.5 0.8  2 0 0.8  3 0.5 0.8  3 0 0.8  4 0.5 0.8  4 0 0.8  5 0.5 0.8  5 0 0.8  1 1 0.8  0 1 0.8  2 1 0.8  3 1 0.8  4 1 0.8  5 1 0.8  1 1.5 0.8  0 1.5 0.8  2 1.5 0.8  3 1.5 0.8  4 1.5 0.8  5 1.5 0.8  1 2 0.8  0 2 0.8  2 2 0.8  3 2 0.8  4 2 0.8  5 2 0.8  1 2.5 0.8  0 2.5 0.8  2 2.5 0.8  3 2.5 0.8  4 2.5 0.8  5 2.5 0.8  1 3 0.8  0 3 0.8  2 3 0.8  3 3 0.8  4 3 0.8  5 3 0.8  1 3.5 0.8  0 3.5 0.8  2 3.5 0.8  3 3.5 0.8  4 3.5 0.8  5 3.5 0.8  1 4 0.8  0 4 0.8  2 4 0.8  3 4 0.8  4 4 0.8  5 4 0.8  1 4.5 0.8  0 4.5 0.8  2 4.5 0.8  3 4.5 0.8  4 4.5 0.8  5 4.5 0.8  1 5 0.8  0 5 0.8  2 5 0.8  3 5 0.8  4 5 0.8  5 5 0.8  1 0.5 0.9  1 0 0.9  0 0 0.9  0 0.5 0.9  2 0.5 0.9  2 0 0.9  3 0.5 0.9  3 0 0.9  4 0.5 0.9  4 0 0.9  5 0.5 0.9  5 0 0.9  1 1 0.9  0 1 0.9  2 1 0.9  3 1 0.9  4 1 0.9  5 1 0.9  1 1.5 0.9  0 1.5 0.9  2 1.5 0.9  3 1.5 0.9  4 1.5 0.9  5 1.5 0.9  1 2 0.9  0 2 0.9  2 2 0.9  3 2 0.9  4 2 0.9  5 2 0.9  1 2.5 0.9  0 2.5 0.9  2 2.5 0.9  3 2.5 0.9  4 2.5 0.9  5 2.5 0.9  1 3 0.9  0 3 0.9  2 3 0.9  3 3 0.9  4 3 0.9  5 3 0.9  1 3.5 0.9  0 3.5 0.9  2 3.5 0.9  3 3.5 0.9  4 3.5 0.9  5 3.5 0.9  1 4 0.9  0 4 0.9  2 4 0.9  3 4 0.9  4 4 0.9  5 4 0.9  1 4.5 0.9  0 4.5 0.9  2 4.5 0.9  3 4.5 0.9  4 4.5 0.9  5 4.5 0.9  1 5 0.9  0 5 0.9  2 5 0.9  3 5 0.9  4 5 0.9  5 5 0.9  1 0.5 1  1 0 1  0 0 1  0 0.5 1  2 0.5 1  2 0 1  3 0.5 1  3 0 1  4 0.5 1  4 0 1  5 0.5 1  5 0 1  1 1 1  0 1 1  2 1 1  3 1 1  4 1 1  5 1 1  1 1.5 1  0 1.5 1  2 1.5 1  3 1.5 1  4 1.5 1  5 1.5 1  1 2 1  0 2 1  2 2 1  3 2 1  4 2 1  5 2 1  1 2.5 1  0 2.5 1  2 2.5 1  3 2.5 1  4 2.5 1  5 2.5 1  1 3 1  0 3 1  2 3 1  3 3 1  4 3 1  5 3 1  1 3.5 1  0 3.5 1  2 3.5 1  3 3.5 1  4 3.5 1  5 3.5 1  1 4 1  0 4 1  2 4 1  3 4 1  4 4 1  5 4 1  1 4.5 1  0 4.5 1  2 4.5 1  3 4.5 1  4 4.5 1  5 4.5 1  1 5 1  0 5 1  2 5 1  3 5 1  4 5 1  5 5 1  </DataArray>
</Points>
<Cells>
<DataArray  type="UInt32"  Name="connectivity"  format="ascii">0 1 2 3  0 1 4 3  1 2 3 5  1 2 6 5  1 7 6 5  1 4 3 5  1 7 8 5  1 4 8 5  2 9 10 11  2 9 12 11  2 6 12 11  2 3 10 11  2 6 5 11  2 3 5 11  9 13 14 15  9 13 16 15  9 12 16 15  9 10 14 15  9 12 11 15  9 10 11 15  13 17 18 19  13 17 20 19  13 16 20 19  13 14 18 19  13 16 15 19  13 14 15 19  17 21 22 23  17 21 24 23  17 20 24 23  17 18 22 23  17 20 19 23  17 18 19 23  4 3 25 26  4 3 5 26  4 8 5 26  4 27 25 26  4 8 28 26  4 27 28 26  3 10 29 30  3 10 11 30  3 5 11 30  3 25 29 30  3 5 26 30  3 25 26 30  10 14 31 32  10 14 15 32  10 11 15 32  10 29 31 32  10 11 30 32  10 29 30 32  14 18 33 34  14 18 19 34  14 15 19 34  14 31 33 34  14 15 32 34  14 31 32 34  18 22 35 36  18 22 23 36  18 19 23 36  18 33 35 36  18 19 34 36  18 33 34 36  27 25 37 38  27 25 26 38  27 28 26 38  27 39 37 38  27 28 40 38  27 39 40 38  25 29 41 42  25 29 30 42  25 26 30 42  25 37 41 42  25 26 38 42  25 37 38 42  29 31 43 44  29 31 32 44  29 30 32 44  29 41 43 44  29 30 42 44  29 41 42 44  31 33 45 46  31 33 34 46  31 32 34 46  31 43 45 46  31 32 44 46  31 43 44 46  33 35 47 48  33 35 36 48  33 34 36 48  33 45 47 48  33 34 46 48  33 45 46 48  39 37 49 50  39 37 38 50  39 40 38 50  39 51 49 50  39 40 52 50  39 51 52 50  37 41 53 54  37 41 42 54  37 38 42 54  37 49 53 54  37 38 50 54  37 49 50 54  41 43 55 56  41 43 44 56  41 42 44 56  41 53 55 56  41 42 54 56  41 53 54 56  43 45 57 58  43 45 46 58  43 44 46 58  43 55 57 58  43 44 56 58  43 55 56 58  45 47 59 60  45 47 48 60  45 46 48 60  45 57 59 60  45 46 58 60  45 57 58 60  51 49 50 61  51 52 50 61  51 52 62 61  51 63 62 61  49 53 54 64  49 50 54 64  49 50 61 64  53 55 56 65  53 54 56 65  53 54 64 65  55 57 58 66  55 56 58 66  55 56 65 66  57 59 60 67  57 58 60 67  57 58 66 67  63 62 61 68  63 62 69 68  7 6 5 70  7 6 71 70  7 72 71 70  7 8 5 70  7 72 73 70  7 8 73 70  6 12 11 74  6 12 75 74  6 71 75 74  6 5 11 74  6 71 70 74  6 5 70 74  12 16 15 76  12 16 77 76  12 75 77 76  12 11 15 76  12 75 74 76  12 11 74 76  16 20 19 78  16 20 79 78  16 77 79 78  16 15 19 78  16 77 76 78  16 15 76 78  20 24 23 80  20 24 81 80  20 79 81 80  20 19 23 80  20 79 78 80  20 19 78 80  8 5 26 82  8 5 70 82  8 73 70 82  8 28 26 82  8 73 83 82  8 28 83 82  5 11 30 84  5 11 74 84  5 70 74 84  5 26 30 84  5 70 82 84  5 26 82 84  11 15 32 85  11 15 76 85  11 74 76 85  11 30 32 85  11 74 84 85  11 30 84 85  15 19 34 86  15 19 78 86  15 76 78 86  15 32 34 86  15 76 85 86  15 32 85 86  19 23 36 87  19 23 80 87  19 78 80 87  19 34 36 87  19 78 86 87  19 34 86 87  28 26 38 88  28 26 82 88  28 83 82 88  28 40 38 88  28 83 89 88  28 40 89 88  26 30 42 90  26 30 84 90  26 82 84 90  26 38 42 90  26 82 88 90  26 38 88 90  30 32 44 91  30 32 85 91  30 84 85 91  30 42 44 91  30 84 90 91  30 42 90 91  32 34 46 92  32 34 86 92  32 85 86 92  32 44 46 92  32 85 91 92  32 44 91 92  34 36 48 93  34 36 87 93  34 86 87 93  34 46 48 93  34 86 92 93  34 46 92 93  40 38 50 94  40 38 88 94  40 89 88 94  40 52 50 94  40 89 95 94  40 52 95 94  38 42 54 96  38 42 90 96  38 88 90 96  38 50 54 96  38 88 94 96  38 50 94 96  42 44 56 97  42 44 91 97  42 90 91 97  42 54 56 97  42 90 96 97  42 54 96 97  44 46 58 98  44 46 92 98  44 91 92 98  44 56 58 98  44 91 97 98  44 56 97 98  46 48 60 99  46 48 93 99  46 92 93 99  46 58 60 99  46 92 98 99  46 58 98 99  52 50 61 100  52 50 94 100  52 95 94 100  52 62 61 100  52 95 101 100  52 62 101 100  50 54 64 102  50 54 96 102  50 94 96 102  50 61 64 102  50 94 100 102  50 61 100 102  54 56 65 103  54 56 97 103  54 96 97 103  54 64 65 103  54 96 102 103  54 64 102 103  56 58 66 104  56 58 98 104  56 97 98 104  56 65 66 104  56 97 103 104  56 65 103 104  58 60 67 105  58 60 99 105  58 98 99 105  58 66 67 105  58 98 104 105  58 66 104 105  62 61 68 106  62 61 100 106  62 101 100 106  62 69 68 106  62 101 107 106  62 69 107 106  61 64 102 108  61 100 102 108  61 100 106 108  61 68 106 108  64 65 103 109  64 102 103 109  64 102 108 109  65 66 104 110  65 103 104 110  65 103 109 110  66 67 105 111  66 104 105 111  66 104 110 111  69 68 106 112  69 107 106 112  69 107 113 112  68 106 108 114  68 106 112 114  72 71 70 115  72 71 116 115  72 117 116 115  72 73 70 115  72 117 118 115  72 73 118 115  71 75 74 119  71 75 120 119  71 116 120 119  71 70 74 119  71 116 115 119  71 70 115 119  75 77 76 121  75 77 122 121  75 120 122 121  75 74 76 121  75 120 119 121  75 74 119 121  77 79 78 123  77 79 124 123  77 122 124 123  77 76 78 123  77 122 121 123  77 76 121 123  79 81 80 125  79 81 126 125  79 124 126 125  79 78 80 125  79 124 123 125  79 78 123 125  73 70 82 127  73 70 115 127  73 118 115 127  73 83 82 127  73 118 128 127  73 83 128 127  70 74 84 129  70 74 119 129  70 115 119 129  70 82 84 129  70 115 127 129  70 82 127 129  74 76 85 130  74 76 121 130  74 119 121 130  74 84 85 130  74 119 129 130  74 84 129 130  76 78 86 131  76 78 123 131  76 121 123 131  76 85 86 131  76 121 130 131  76 85 130 131  78 80 87 132  78 80 125 132  78 123 125 132  78 86 87 132  78 123 131 132  78 86 131 132  83 82 88 133  83 82 127 133  83 128 127 133  83 89 88 133  83 128 134 133  83 89 134 133  82 84 90 135  82 84 129 135  82 127 129 135  82 88 90 135  82 127 133 135  82 88 133 135  84 85 91 136  84 85 130 136  84 129 130 136  84 90 91 136  84 129 135 136  84 90 135 136  85 86 92 137  85 86 131 137  85 130 131 137  85 91 92 137  85 130 136 137  85 91 136 137  86 87 93 138  86 87 132 138  86 131 132 138  86 92 93 138  86 131 137 138  86 92 137 138  89 88 94 139  89 88 133 139  89 134 133 139  89 95 94 139  89 134 140 139  89 95 140 139  88 90 96 141  88 90 135 141  88 133 135 141  88 94 96 141  88 133 139 141  88 94 139 141  90 91 97 142  90 91 136 142  90 135 136 142  90 96 97 142  90 135 141 142  90 96 141 142  91 92 98 143  91 92 137 143  91 136 137 143  91 97 98 143  91 136 142 143  91 97 142 143  92 93 99 144  92 93 138 144  92 137 138 144  92 98 99 144  92 137 143 144  92 98 143 144  95 94 100 145  95 94 139 145
[...]
<CellData  Scalars="f">
<DataArray  type="Float64"  Name="f"  format="ascii">1 1 1 1 1 1 1 1 1 1 1 1 1 1 1 1 1 1 1 1 1 1 1 1 1 1 1 1 1 1 1 1 1 1 1 1 1 1 1 1 1 1 1 1 1 1 1 1 1 1 1 1 1 1 1 1 1 1 1 1 1 1 1 1 1 1 1 1 1 1 1 1 1 1 1 1 1 1 1 1 1 1 1 1 1 1 1 1 1 1 1 1 1 1 1 1 1 1 1 1 1 1 1 1 1 1 1 1 1 1 1 1 1 1 1 1 1 1 1 1 1 1 1 1 1 1 1 1 1 1 1 1 1 1 1 1 1 1 1 1 1 1 1 1 1 1 1 1 1 1 1 1 1 1 1 1 1 1 1 1 1 1 1 1 1 1 1 1 1 1 1 1 1 1 1 1 1 1 1 1 1 1 1 1 1 1 1 1 1 1 1 1 1 1 1 1 1 1 1 1 1 1 1 1 1 1 1 1 1 1 1 1 1 1 1 1 1 1 1 1 1 1 1 1 1 1 1 1 1 1 1 1 1 1 1 1 1 1 1 1 1 1 1 1 1 1 1 1 1 1 1 1 1 1 1 1 1 1 1 1 1 1 1 1 1 1 1 1 1 1 1 1 1 1 1 1 1 1 1 1 1 1 1 1 1 1 1 1 1 1 1 1 1 1 1 1 1 1 1 1 1 1 1 1 1 1 1 1 1 1 1 1 1 1 1 1 1 1 1 1 1 1 1 1 1 1 1 1 1 1 1 1 1 1 1 1 1 1 1 1 1 1 1 1 1 1 1 1 1 1 1 1 1 1 1 1 1 1 1 1 1 1 1 1 1 1 1 1 1 1 1 1 1 1 1 1 1 1 1 1 1 1 1 1 1 1 1 1 1 1 1 1 1 1 1 1 1 1 1 1 1 1 1 1 1 1 1 1 1 1 1 1 1 1 1 1 1 1 1 1 1 1 1 1 1 1 1 1 1 1 1 1 1 1 1 1 1 1 1 1 1 1 1 1 1 1 1 1 1 1 1 1 1 1 1 1 1 1 1 1 1 1 1 1 1 1 1 1 1 1 1 1 1 1 1 1 1 1 1 1 1 1 1 1 1 1 1 1 1 1 1 1 1 1 1 1 1 1 1 1 1 1 1 1 1 1 1 1 1 1 1 1 1 1 1 1 1 1 1 1 1 1 1 1 1 1 1 1 1 1 1 1 1 1 1 1 1 1 1 1 1 1 1 1 1 1 1 1 1 1 1 1 1 1 1 1 1 1 1 1 1 1 1 1 1 1 1 1 1 1 1 1 1 1 1 1 1 1 1 1 1 1 1 1 1 1 1 1 1 1 1 1 1 1 1 1 1 1 1 1 2 2 2 2 2 2 2 2 2 2 2 2 2 2 2 2 2 2 2 2 2 2 2 2 2 2 2 2 2 2 2 2 2 2 2 2 2 2 2 2 2 2 2 2 2 2 2 2 2 2 2 2 2 2 2 2 2 2 2 2 2 2 2 2 2 2 2 2 2 2 2 2 2 2 2 2 2 2 2 2 2 2 2 2 2 2 2 2 2 2 2 2 2 2 2 2 2 2 2 2 2 2 2 2 2 2 2 2 2 2 2 2 2 2 2 2 2 2 2 2 2 2 2 2 2 2 2 2 2 2 2 2 2 2 2 2 2 2 2 2 2 2 2 2 2 2 2 2 2 2 2 2 2 2 2 2 2 2 2 2 2 2 2 2 2 2 2 2 2 2 2 2 2 2 2 2 2 2 2 2 2 2 2 2 2 2 2 2 2 2 2 2 2 2 2 2 2 2 2 2 2 2 2 2 2 2 2 2 2 2 2 2 2 2 2 2 2 2 2 2 2 2 2 2 2 2 2 2 2 2 2 2 2 2 2 2 2 2 2 2 2 2 2 2 2 2 2 2 2 2 2 2 2 2 2 2 2 2 2 2 2 2 2 2 2 2 2 2 2 2 2 2 2 2 2 2 2 2 2 2 2 2 2 2 2 2 2 2 2 2 2 2 2 2 2 2 2 2 2 2 2 2 2 2 2 2 2 2 2 2 2 2 2 2 2 2 2 2 2 2 2 2 2 2 2 2 2 2 2 2 2 2 2 2 2 2 2 2 2 2 2 2 2 2 2 2 2 2 2 2 2 2 2 2 2 2 2 2 2 2 2 2 2 2 2 2 2 2 2 2 2 2 2 2 2 2 2 2 2 2 2 2 2 2 2 2 2 2 2 2 2 2 2 2 2 2 2 2 2 2 2 2 2 2 2 2 2 2 2 2 2 2 2 2 2 2 2 2 2 2 2 2 2 2 2 2 2 2 2 2 2 2 2 2 2 2 2 2 2 2 2 2 2 2 2 2 2 2 2 2 2 2 2 2 2 2 2 2 2 2 2 2 2 2 2 2 2 2 2 2 2 2 2 2 2 2 2 2 2 2 2 2 2 2 2 2 2 2 2 2 2 2 2 2 2 2 2 2 2 2 2 2 2 2 2 2 2 2 2 2 2 2 2 2 2 2 2 2 2 2 2 2 2 2 2 2 2 2 2 2 2 2 2 2 2 2 2 2 2 2 2 2 2 2 2 2 2 2 2 2 2 2 2 2 2 2 2 2 2 2 2 2 2 2 2 2 2 2 2 2 2 2 2 2 2 2 2 2 2 2 2 2 2 2 2 2 2 2 2 2 2 2 2 2 2 2 2 2 2 2 2 2 2 2 2 2 2 2 2 2 2 2 2 2 2 2 2 2 2 2 2 2 2 2 2 2 2 2 2 2 2 2 2 2 2 2 2 2 2 2 2 2 2 2 2 2 2 2 2 2 2 2 2 2 2 2 2 2 2 2 2 2 2 2 2 2 2 2 2 2 2 2 2 2 2 2 2 2 2 2 2 2 2 2 2 2 2 2 2 2 2 2 2 2 2 2 2 2 2 2 2 2 2 2 2 2 2 2 2 2 2 2 2 2 2 2 2 2 2 2 2 2 2 2 2 2 2 2 2 2 2 2 2 2 2 2 2 2 2 2 2 2 2 2 2 2 2 2 2 2 2 2 2 2 2 2 2 2 2 2 2 2 2 2 2 2 2 2 2 2 2 2 2 2 2 2 2 2 2 2 2 2 2 2 2 2 2 2 2 2 2 2 2 2 2 2 2 2 2 2 2 2 2 2 2 2 2 2 2 2 2 2 2 2 2 2 2 2 2 2 2 2 2 2 2 2 2 2 2 2 2 2 2 2 2 2 2 2 2 2 2 2 2 2 2 2 2 2 2 2 2 2 2 2 2 2 2 2 2 2 2 2 2 2 2 2 2 2 2 2 2 2 2 2 2 2 2 2 2 2 2 2 2 2 2 2 2 2 2 2 2 2 2 2 2 2 2 2 2 2 </DataArray>
</CellData>
</Piece>
</UnstructuredGrid>
</VTKFile>