<?xml version="1.0"?>
<VTKFile type="UnstructuredGrid"  version="0.1"  >
<UnstructuredGrid>
<Piece  NumberOfPoints="27" NumberOfCells="51">
<Points>
<DataArray  type="Float64"  NumberOfComponents="3"  format="ascii">0.4424771317703592 1.636537897080414 1.145980375529705  0.4653676037139801 1.406216133155081 1.432180213150491  0.1365322227412603 1.705542136429821 1.380205762255295  0.3693333200234774 1.963623843004327 1.279756406306504  0.1898814847936827 1.573183929223919 1.712662906107614  -0.007223157962659155 1.999288581035586 1.542883892344841  0.3333848312727352 1.967164460109957 1.63125333343706  0.1442795150810441 1.484939248488856 1.010602050919654  0.08130583150362561 1.348055664983449 1.373419031199028  -0.1834299297759022 1.649144526163002 1.221032517683487  0.1523760183173296 0.9849922721179493 1.540021591033011  0.6048500187449869 1.094333828430617 1.416453345737009  0.1795243367964527 0.982318396132153 1.268880345408205  -0.210955085465953 1.473064701073961 1.604276690252083  0.4290099311982717 0.8991175029953397 1.197491932796561  -0.09267091514051604 0.9908727115174178 1.258964479371273  -0.09708392555109108 0.9904380679290505 0.8772233868214522  0.3972842327229683 1.249065946580822 1.11427448885042  -0.1118209022403694 1.988986602413682 0.9801646178047809  0.182152240719404 1.982059570186894 1.044691886492768  -0.3653837498630332 0.9291273338257455 1.55456478137134  -0.3228874270112512 1.296959932787666 1.282266916427373  -0.3788887885544553 1.455913956808009 0.8999474566814727  0.3805775488420378 1.962516383128318 0.8191316464293175  -0.3414150989220618 0.9363981445992313 1.071005738840007  0.2702183339099075 0.9579954471492396 0.7783171086140179  0.7016393297798049 1.063836696035372 1.070733255320897  </DataArray>
</Points>
<Cells>
<DataArray  type="UInt32"  Name="connectivity"  format="ascii">0 1 2 3  4 2 5 6  7 2 8 9  10 11 1 12  4 13 2 8  14 10 11 12  13 2 8 9  10 8 12 15  4 1 2 8  7 16 12 15  11 1 12 17  18 19 2 5  0 1 2 8  4 13 2 5  4 1 2 6  0 1 8 17  20 13 21 15  18 2 5 9  10 1 8 12  7 8 12 15  18 19 2 9  22 7 16 21  20 13 8 15  7 8 9 21  14 11 12 17  19 0 3 23  13 8 9 21  7 16 21 15  7 8 21 15  24 22 16 21  24 16 21 15  22 7 9 21  7 0 2 8  13 8 21 15  13 2 5 9  1 2 3 6  19 2 3 5  20 10 8 15  24 20 21 15  7 0 8 17  2 3 5 6  1 8 12 17  7 8 12 17  7 16 12 17  16 12 25 17  14 12 25 17  19 0 2 3  14 26 11 17  14 26 25 17  7 19 0 2  7 19 2 9  </DataArray>
<DataArray  type="UInt32"  Name="offsets"  format="ascii">4 8 12 16 20 24 28 32 36 40 44 48 52 56 60 64 68 72 76 80 84 88 92 96 100 104 108 112 116 120 124 128 132 136 140 144 148 152 156 160 164 168 172 176 180 184 188 192 196 200 204 </DataArray>
<DataArray  type="UInt8"  Name="types"  format="ascii">10 10 10 10 10 10 10 10 10 10 10 10 10 10 10 10 10 10 10 10 10 10 10 10 10 10 10 10 10 10 10 10 10 10 10 10 10 10 10 10 10 10 10 10 10 10 10 10 10 10 10 </DataArray>
</Cells>
<CellData  Scalars="f">
<DataArray  type="Float64"  Name="f"  format="ascii">2 3 2 2 2 2 2 2 2 2 2 3 2 2 2 2 2 3 2 2 3 2 2 2 2 3 2 2 2 2 2 2 2 2 2 2 3 2 2 2 3 2 2 2 2 2 3 2 2 2 2 </DataArray>
</CellData>
</Piece>
</UnstructuredGrid>
</VTKFile>