<?xml version="1.0"?>
<VTKFile type="UnstructuredGrid"  version="0.1"  >
<UnstructuredGrid>
<Piece  NumberOfPoints="30" NumberOfCells="54">
<Points>
<DataArray  type="Float64"  NumberOfComponents="3"  format="ascii">-1.458253475485442 0.7179109713450691 1.446858482212952  -1.672031258210054 1.094130467568752 1.503148845658035  -1.846612959781425 0.76751107682243 1.151675842041366  -1.416794453136306 0.8959934799664772 1.134827001072054  -1.467499692352606 0.3281647548731498 1.250840500992602  -1.102503165573828 0.9305784620941925 1.310385370874145  -1.25543923261207 0.4266477155525202 1.530718952541371  -1.212849458285667 0.6015237920645535 1.207583937569291  -1.310453516629691 0.6951426320007211 0.8534972697453511  -1.183147165165283 1.093160462193829 0.9268828513999143  -1.652789181055146 1.123508329889683 0.9820547617975177  -1.22247303577894 0.3326178634798861 0.9654715603529608  -0.911179233850709 0.406444019949456 1.163307837086328  -1.314897154059142 0.1070208957759803 1.450635008672167  -1.580305958260196 0.4275683301379611 0.8988882789704619  -0.8820462338257501 0.460948029436811 1.506002633699789  -0.9128204895243113 0.4033734465540432 1.848051248605139  -0.9776281769980494 0.2054978971629451 1.613870951770253  -1.649275819615228 0.200243567272196 1.535775802024003  -1.480986984530375 1.332849912058876 1.261931321708856  -1.325295674960669 1.487186586697765 0.8594457826546948  -0.8163371733870979 0.5740091631888196 0.9096750751367708  -0.9965365958288395 0.03516453267094798 1.375847279374345  -1.853357911672159 0.7469099408469011 0.7128101324276359  -1.913724342306761 0.5479084883940999 1.526300691384503  -0.9529143709840853 0.8722663860045278 0.7494782604831286  -0.7776421256809075 0.6211592152416074 1.155195246109528  -1.939560067135936 0.4627395176246096 1.214058446966351  -1.991574622675041 0.08554429156020171 1.519340412504626  -1.772518719756024 0.9061316499814949 1.723462302473687  </DataArray>
</Points>
<Cells>
<DataArray  type="UInt32"  Name="connectivity"  format="ascii">0 1 2 3  0 2 3 4  0 5 6 7  8 9 3 10  11 4 12 13  2 3 4 14  15 16 6 17  3 4 7 14  11 8 7 14  8 2 3 14  6 4 13 18  1 3 10 19  9 10 19 20  8 3 7 14  11 8 21 7  15 6 17 22  0 6 4 7  8 3 10 23  8 2 3 23  0 4 18 24  0 3 4 7  11 21 7 12  11 4 7 12  0 6 4 18  25 21 7 26  9 3 10 19  11 4 7 14  6 12 13 22  6 4 12 13  21 7 12 26  6 4 7 12  25 8 21 7  6 13 17 22  5 25 8 9  15 6 12 22  5 25 8 7  5 25 7 26  5 15 7 26  5 15 6 7  15 6 7 12  15 7 12 26  0 5 3 7  5 8 3 7  5 8 9 3  1 2 3 10  2 3 10 23  2 4 14 27  0 2 4 27  0 4 27 24  4 27 18 24  28 27 18 24  0 2 27 24  0 2 29 24  0 1 2 29  </DataArray>
<DataArray  type="UInt32"  Name="offsets"  format="ascii">4 8 12 16 20 24 28 32 36 40 44 48 52 56 60 64 68 72 76 80 84 88 92 96 100 104 108 112 116 120 124 128 132 136 140 144 148 152 156 160 164 168 172 176 180 184 188 192 196 200 204 208 212 216 </DataArray>
<DataArray  type="UInt8"  Name="types"  format="ascii">10 10 10 10 10 10 10 10 10 10 10 10 10 10 10 10 10 10 10 10 10 10 10 10 10 10 10 10 10 10 10 10 10 10 10 10 10 10 10 10 10 10 10 10 10 10 10 10 10 10 10 10 10 10 </DataArray>
</Cells>
<CellData  Scalars="f">
<DataArray  type="Float64"  Name="f"  format="ascii">3 2 2 2 2 2 2 2 2 2 2 3 3 2 2 2 2 2 2 2 2 2 2 2 2 3 2 2 2 2 2 2 2 2 2 2 2 2 2 2 2 2 2 2 3 3 2 2 2 2 3 3 3 3 </DataArray>
</CellData>
</Piece>
</UnstructuredGrid>
</VTKFile>