<?xml version="1.0"?>
<VTKFile type="UnstructuredGrid"  version="0.1"  >
<UnstructuredGrid>
<Piece  NumberOfPoints="29" NumberOfCells="56">
<Points>
<DataArray  type="Float64"  NumberOfComponents="3"  format="ascii">1.537938004108834 0.3988833851826157 1.610246889482192  1.483670250902227 0.1972611969767152 1.200509124604304  1.980796191678785 0.1949795379762737 1.272752160226466  1.973375011178071 0.270328048077222 1.551316322258586  1.21280184750641 0.4890103147549554 1.513303729082223  1.309042816421539 0.6566897535263003 1.914589461721429  0.834773061326767 0.5493899145902292 1.644223245116999  0.9499318752610488 0.296800368011287 1.644410838642258  1.225257003058708 1.087822772977291 1.802378243505504  1.229206351219692 1.160190834715364 1.468546914215901  0.9218510219741471 0.9261978185950753 1.624065965663955  1.284222657818734 0.8244103938606859 1.438202364894423  1.210151134424121 0.4870046897190103 1.173712518554512  0.9879066000062189 0.122786350702366 1.431478669349838  0.9156369094044521 0.3981042955659521 1.350014245799508  1.521730041657627 0.5767379203131159 1.274706434082253  1.528628048170029 0.793259518902411 1.682866074878788  1.864887735742922 0.7089012046588129 1.70230315691564  1.041119345695563 0.8518276646801668 1.186872341811162  1.93825850119158 0.4670302055229528 1.35940920517109  1.306565176860637 0.2424610329078545 1.813117726371024  1.681101295712113 1.077161620912404 1.812157250467173  1.513913159533107 1.29272925173392 1.334115922848251  0.7816643063515599 0.6162581739138656 1.201287791390862  0.9529390101181481 0.2868871729127317 1.078171209914726  1.864806414414905 0.7091692851502488 1.17856660369761  1.30638307684875 -0.09277109321427224 1.289033245456324  1.734321938866167 0.9775928007803685 1.266049215340356  0.9945396279790377 -0.05544008750856189 1.131547179751708  </DataArray>
</Points>
<Cells>
<DataArray  type="UInt32"  Name="connectivity"  format="ascii">0 1 2 3  4 5 6 7  8 9 10 11  12 13 4 14  15 0 16 17  9 10 18 11  0 1 2 19  0 3 17 19  20 4 5 7  9 21 16 22  12 23 24 14  4 6 7 14  0 4 5 16  15 17 25 19  12 13 1 24  26 13 1 4  15 17 25 27  15 0 1 19  21 16 17 27  21 16 22 27  12 4 18 11  0 2 3 19  12 13 24 14  15 12 4 11  15 0 17 19  15 0 4 16  15 4 16 11  4 6 10 18  9 16 11 22  15 16 11 27  15 16 17 27  20 0 4 5  8 5 10 11  6 23 18 14  16 11 22 27  4 10 18 11  15 12 1 4  12 13 1 4  4 6 18 14  8 5 16 11  26 13 1 24  26 13 28 24  26 1 28 24  13 4 7 14  15 0 1 4  4 5 6 10  4 5 10 11  4 5 16 11  20 13 4 7  20 26 13 4  20 0 1 4  20 26 1 4  8 9 16 11  8 9 21 16  12 4 18 14  12 23 18 14  </DataArray>
<DataArray  type="UInt32"  Name="offsets"  format="ascii">4 8 12 16 20 24 28 32 36 40 44 48 52 56 60 64 68 72 76 80 84 88 92 96 100 104 108 112 116 120 124 128 132 136 140 144 148 152 156 160 164 168 172 176 180 184 188 192 196 200 204 208 212 216 220 224 </DataArray>
<DataArray  type="UInt8"  Name="types"  format="ascii">10 10 10 10 10 10 10 10 10 10 10 10 10 10 10 10 10 10 10 10 10 10 10 10 10 10 10 10 10 10 10 10 10 10 10 10 10 10 10 10 10 10 10 10 10 10 10 10 10 10 10 10 10 10 10 10 </DataArray>
</Cells>
<CellData  Scalars="f">
<DataArray  type="Float64"  Name="f"  format="ascii">2 2 2 2 3 2 2 3 2 3 2 2 2 3 2 2 3 2 3 3 2 3 2 2 3 2 2 2 2 2 3 2 2 2 2 2 2 2 2 2 2 2 2 2 2 2 2 2 2 2 2 2 2 3 2 2 </DataArray>
</CellData>
</Piece>
</UnstructuredGrid>
</VTKFile>