<?xml version="1.0"?>
<VTKFile type="UnstructuredGrid"  version="0.1"  >
<UnstructuredGrid>
<Piece  NumberOfPoints="32" NumberOfCells="55">
<Points>
<DataArray  type="Float64"  NumberOfComponents="3"  format="ascii">0.3640039983156202 -0.9295458768818553 1.492983459038144  0.5487107599987853 -0.835136077018926 1.674549895774226  0.1549142625105386 -0.9847422768852969 1.663462742699079  0.5238237203988727 -1.388038725607619 1.724904091630777  0.6749552035345591 -0.7334928990572152 1.451553990159651  0.7293269091082188 -0.6800314769749751 1.813533847354121  0.9955766913757021 -0.8275633668952809 1.576748496695827  0.3817783677305346 -0.9241540808666293 2.018511703932645  0.7107646604222453 -1.050939884317248 1.921355779877147  0.2355468326973051 -1.976800661891307 1.867626148715342  0.4900224729062127 -1.618213138855729 1.965515523460702  0.6374322841645239 -1.886567595755861 1.814272024545088  0.5947910766812117 -1.899502664630937 2.113557369996113  0.3350208444374065 -1.967003326877458 2.253272772226712  0.4530074376641818 -1.426915595940797 2.237640096430802  0.823618557462329 -1.38027006992058 2.033389351131806  0.7251335680040807 -1.584997682751503 2.368746179622643  0.6667024173463881 -1.138373263222274 2.268151214422505  0.1167513975266851 -0.9885009910136866 2.261816189989672  0.2477625217914785 -1.239771052565929 2.035833713489379  1.036045472981225 -1.131598142160147 2.305939992440852  0.6813237769356962 -1.132131688961445 1.54583786593008  1.025396053603225 -0.8796225306606058 1.994863228994994  0.6162581739138656 -0.7816643063515599 2.259950676278146  0.8087702907739448 -0.5832294363306567 2.257349008093577  0.03930125034265457 -0.9961291647000607 1.913127150561488  0.8752002485092774 -1.789051898293489 2.140550538656832  0.4307402755318971 -1.596714692926355 2.540288253336501  0.5915000795287066 -1.90050097770291 2.487433307252731  0.2946705332933404 -1.970977485647935 2.604543857138447  0.1666558328843934 -1.549864895007343 1.91279759807228  0.2111965712192294 -1.657578762555701 2.226202535386112  </DataArray>
</Points>
<Cells>
<DataArray  type="UInt32"  Name="connectivity"  format="ascii">0 1 2 3  1 4 5 6  1 5 7 8  9 10 11 12  9 10 12 13  14 10 15 16  17 14 18 19  17 20 15 16  0 1 3 21  2 3 7 19  14 10 12 16  17 8 14 19  1 5 6 8  17 7 18 19  1 2 3 7  17 8 20 22  17 8 20 15  3 14 10 15  0 1 4 21  5 22 23 24  1 6 8 21  1 3 7 8  7 18 25 19  5 6 8 22  17 7 8 19  10 11 12 26  12 13 27 28  2 7 25 19  3 7 8 19  17 7 8 23  29 13 27 28  5 8 22 23  1 3 8 21  3 8 14 15  5 7 8 23  14 19 30 10  17 8 14 15  17 8 22 23  1 4 6 21  3 14 19 10  12 26 16 28  17 14 15 16  3 8 14 19  12 16 27 28  10 12 26 16  14 19 30 31  14 30 10 31  9 30 10 31  9 10 13 31  10 12 13 31  12 13 27 31  12 16 27 31  14 12 16 31  14 10 12 31  14 16 27 31  </DataArray>
<DataArray  type="UInt32"  Name="offsets"  format="ascii">4 8 12 16 20 24 28 32 36 40 44 48 52 56 60 64 68 72 76 80 84 88 92 96 100 104 108 112 116 120 124 128 132 136 140 144 148 152 156 160 164 168 172 176 180 184 188 192 196 200 204 208 212 216 220 </DataArray>
<DataArray  type="UInt8"  Name="types"  format="ascii">10 10 10 10 10 10 10 10 10 10 10 10 10 10 10 10 10 10 10 10 10 10 10 10 10 10 10 10 10 10 10 10 10 10 10 10 10 10 10 10 10 10 10 10 10 10 10 10 10 10 10 10 10 10 10 </DataArray>
</Cells>
<CellData  Scalars="f">
<DataArray  type="Float64"  Name="f"  format="ascii">2 2 2 3 3 2 2 2 2 2 2 2 2 2 2 2 2 2 2 2 2 2 2 2 2 3 3 2 2 2 3 2 2 2 2 2 2 2 2 2 3 2 2 3 3 2 2 2 3 3 3 3 2 2 2 </DataArray>
</CellData>
</Piece>
</UnstructuredGrid>
</VTKFile>