<?xml version="1.0"?>
<VTKFile type="UnstructuredGrid"  version="0.1"  >
<UnstructuredGrid>
<Piece  NumberOfPoints="26" NumberOfCells="53">
<Points>
<DataArray  type="Float64"  NumberOfComponents="3"  format="ascii">-0.2955503383624419 -1.632675963079159 0.3123705710465166  -0.5275263661176575 -1.919907191504199 0.3786589058290399  -0.3806640429582971 -1.962507864201425 0  -0.2283984257749775 -1.977504718520859 0.529509417716183  -0.07613280859165761 -1.992501572840285 0  0.06049353073874015 -1.685042099785589 0.2673914529575276  0.06224447347299699 -1.993869454456417 0.3955276012186419  -0.477034786316047 -1.434737795423532 0.6100050385611827  -0.216786300210237 -1.660704239491408 0.6833828092547644  -0.1597412751727726 -1.314488294550709 0.7106169361566651  -0.1781048351034047 -1.512718633412544 1.000838964097707  -0.3869777352155326 -1.446196857513344 0  -0.6738580304136116 -1.875517966433278 0  -0.7983372904891837 -1.489459449269377 0.3162784420933646  -0.6640335932016037 -1.486004151380947 0  -0.6571924400077004 -1.132942709121853 0.2777506580342663  0.08114472573962614 -1.520582054345446 0.5577751558120352  -0.6953786612592505 -1.471852142185765 0.9705856189616491  -0.527526366117657 -1.919907191504199 0.9011207031391884  0.0514852044923706 -1.484500497547712 0  -0.09067192459746451 -1.991069594901301 0.7370700840091073  -0.05339583133012425 -1.994740969638874 0.9837095761186229  0.1922639486628559 -1.643987499174081 0.9224333582651919  -0.07999978958043799 -1.32601206611405 0.2980872037322101  -0.8100995776433193 -1.247237953441347 0  -0.4164114630926857 -1.270321899080475 0.9379339257406052  </DataArray>
</Points>
<Cells>
<DataArray  type="UInt32"  Name="connectivity"  format="ascii">0 1 2 3  4 5 3 6  7 8 9 10  0 2 11 12  0 13 11 14  15 0 13 11  5 0 16 8  8 10 17 18  7 8 17 18  19 4 5 0  16 20 6 8  21 8 10 18  21 22 20 8  0 1 2 12  23 19 5 0  15 7 0 13  23 19 0 11  4 5 0 3  15 24 11 14  15 13 11 14  23 5 0 16  0 13 12 14  0 11 12 14  4 0 2 3  15 7 23 0  4 0 2 11  3 20 8 18  3 20 6 8  15 23 0 11  7 0 1 13  7 10 25 17  19 4 0 11  16 8 9 10  15 13 24 14  0 1 13 12  22 16 9 10  21 20 8 18  0 1 3 8  7 8 10 17  7 1 8 18  7 0 1 8  23 0 16 8  5 16 6 8  1 3 8 18  5 3 6 8  5 0 3 8  22 16 8 10  21 22 8 10  7 23 0 9  23 0 8 9  23 16 8 9  7 0 8 9  22 16 20 8  </DataArray>
<DataArray  type="UInt32"  Name="offsets"  format="ascii">4 8 12 16 20 24 28 32 36 40 44 48 52 56 60 64 68 72 76 80 84 88 92 96 100 104 108 112 116 120 124 128 132 136 140 144 148 152 156 160 164 168 172 176 180 184 188 192 196 200 204 208 212 </DataArray>
<DataArray  type="UInt8"  Name="types"  format="ascii">10 10 10 10 10 10 10 10 10 10 10 10 10 10 10 10 10 10 10 10 10 10 10 10 10 10 10 10 10 10 10 10 10 10 10 10 10 10 10 10 10 10 10 10 10 10 10 10 10 10 10 10 10 </DataArray>
</Cells>
<CellData  Scalars="f">
<DataArray  type="Float64"  Name="f"  format="ascii">3 3 2 2 2 2 2 2 2 2 2 2 3 3 2 2 2 3 2 2 2 3 2 3 2 2 3 3 2 2 2 2 2 2 3 2 3 3 2 2 2 2 2 3 3 3 2 2 2 2 2 2 2 </DataArray>
</CellData>
</Piece>
</UnstructuredGrid>
</VTKFile>