<?xml version="1.0"?>
<VTKFile type="UnstructuredGrid"  version="0.1"  >
<UnstructuredGrid>
<Piece  NumberOfPoints="29" NumberOfCells="54">
<Points>
<DataArray  type="Float64"  NumberOfComponents="3"  format="ascii">1.969031808222339 0.3144253277147419 1.824793590277201  1.983317250557431 0.1693827976241926 2.256222692206497  1.922661372009443 0.5184470497641958 2.229265343267069  1.577516263527545 0.2445926416712043 2.026984224023344  1.651877234927607 0.04661358185998513 2.316529382948543  1.461407354084697 0.3188625083491338 2.451301070500147  1.497058853128168 -0.05861660571545971 3  1.671430039097014 -0.1851805014878861 2.677115681997409  1.670567549696843 0.2856369856662641 2.703176839502749  1.993438876235249 0.06661620751770959 3  1.467694350291765 -0.251631636679377 2.391948981687476  1.872847528621966 -0.682661284101951 2.503120042733804  1.962669710648668 -0.3790207884028147 2.607477846662984  1.961570560806461 -0.3901806440322506 2.180828740535496  1.329644016801523 -0.7148664512826449 2.196512634839139  1.568024024482216 -0.4128773890885717 1.95366538225923  1.878852127552321 -0.6628667742067083 2.216665104030088  1.991528662551076 -0.08601093252985167 2.503120042733803  1.597496237632134 -0.3175570153254815 3  1.976567415125891 -0.2379150268489301 3  1.917156318549336 -0.5365947789387575 3  1.978442021915819 0.2188818247010295 2.608043335220048  1.505099855798953 -0.5784556841769523 2.617920706697614  1.406312500063851 -0.519018134215518 3  1.81620445812203 -0.8244013820268373 3  1.993328127250876 -0.06774066082630309 1.93584042027411  1.989102210474495 -0.1106471139007493 2.215562818940823  1.373199007690748 -0.07088942277561612 2.072909093853512  1.735674200836646 -0.9750628965753344 2.473325756265922  </DataArray>
</Points>
<Cells>
<DataArray  type="UInt32"  Name="connectivity"  format="ascii">0 1 2 3  1 2 4 5  6 7 8 9  10 11 12 13  10 14 15 16  10 12 13 17  7 18 19 20  10 15 13 16  1 2 5 21  1 2 3 4  22 23 20 24  22 10 11 16  1 3 4 25  7 12 19 20  22 14 11 16  1 4 25 26  1 4 17 26  3 4 5 27  22 10 14 16  4 7 10 17  6 7 18 19  4 10 15 13  1 4 21 17  2 5 8 21  6 7 9 19  22 11 20 24  22 14 11 28  2 3 4 5  4 15 13 26  4 15 25 27  4 10 17 26  7 9 17 19  4 10 13 26  7 9 21 17  7 8 9 21  7 12 17 19  0 1 3 25  7 10 12 17  15 13 25 26  14 11 16 28  10 11 13 16  10 13 17 26  7 22 18 20  22 23 18 20  7 22 12 20  22 11 12 20  22 10 11 12  7 22 10 12  3 4 25 27  1 4 5 21  4 5 8 21  4 15 25 26  4 7 21 17  4 7 8 21  </DataArray>
<DataArray  type="UInt32"  Name="offsets"  format="ascii">4 8 12 16 20 24 28 32 36 40 44 48 52 56 60 64 68 72 76 80 84 88 92 96 100 104 108 112 116 120 124 128 132 136 140 144 148 152 156 160 164 168 172 176 180 184 188 192 196 200 204 208 212 216 </DataArray>
<DataArray  type="UInt8"  Name="types"  format="ascii">10 10 10 10 10 10 10 10 10 10 10 10 10 10 10 10 10 10 10 10 10 10 10 10 10 10 10 10 10 10 10 10 10 10 10 10 10 10 10 10 10 10 10 10 10 10 10 10 10 10 10 10 10 10 </DataArray>
</Cells>
<CellData  Scalars="f">
<DataArray  type="Float64"  Name="f"  format="ascii">3 2 2 2 2 2 3 2 2 3 2 2 3 3 2 3 3 2 2 2 2 2 3 2 2 3 2 2 3 2 2 3 2 3 3 3 3 2 3 2 2 2 3 2 3 3 2 2 2 2 2 3 3 3 </DataArray>
</CellData>
</Piece>
</UnstructuredGrid>
</VTKFile>