<?xml version="1.0"?>
<VTKFile type="UnstructuredGrid"  version="0.1"  >
<UnstructuredGrid>
<Piece  NumberOfPoints="29" NumberOfCells="54">
<Points>
<DataArray  type="Float64"  NumberOfComponents="3"  format="ascii">0.9955766913757021 -0.8275633668952809 1.576748496695827  1.240324522846978 -0.3320077038749461 1.621876263441188  1.311974525224038 -0.6956341727803129 1.675784623073192  1.174552485327538 -0.6701200621072125 1.311229520333875  0.889697853345768 -0.4466328561777781 1.359680527267251  0.9579954471492396 -0.2702183339099079 1.860070322440181  1.144172503956892 -0.5822964095468832 0.7715770218375753  1.181418673939591 -0.860428236046094 0.9995055285808094  0.8168025044115795 -0.573442155694923 1.090153470182442  0.6749552035345591 -0.7334928990572152 1.451553990159651  0.8987160698082683 -0.9435129158360137 1.23366329697726  1.249062703564479 -1.017640071547412 1.395575611324744  1.328949563601201 -1.01262221653328 1.84952744500381  1.73621466789964 -0.9740517538195665 1.62714171255065  1.502587126797696 -0.7724354070681122 1.389484988646381  0.7293269091082188 -0.6800314769749751 1.813533847354121  1.427438726121689 -0.4205119031039213 1.226491637279935  0.9348982732850508 -0.3463595120151748 0.9483086574781385  1.092491429426801 -1.237240286631584 1.100137911566619  1.327968818890031 -1.484992794170104 1.416664223210889  1.601311506955577 -1.186234057269077 1.212109988118662  1.68221040786837 -1.075086618014131 1.897078622044345  1.488449307202325 -0.6496696596622297 0.9313764137170886  1.577906393046284 -1.214753271084338 1.681838226980161  1.924505282974867 -0.5123684899345773 1.116811070342246  1.763363161222965 -0.923260495233283 1.206600525694679  1.525834664853178 -1.278202855471096 2.001983103516767  1.025396053603225 -0.8796225306606058 1.994863228994994  1.848384386024129 -0.7633054576492785 1.456864315407857  </DataArray>
</Points>
<Cells>
<DataArray  type="UInt32"  Name="connectivity"  format="ascii">0 1 2 3  0 1 3 4  0 1 2 5  6 3 7 8  9 0 3 4  9 10 3 4  11 12 13 14  9 0 10 3  10 3 7 8  0 11 10 3  0 11 2 3  9 15 0 4  10 3 4 8  16 17 6 3  9 10 4 8  18 11 19 20  0 1 4 5  21 12 2 13  16 6 3 22  11 10 3 7  11 19 20 23  11 3 7 14  11 2 3 14  16 2 3 14  3 7 14 22  16 14 22 24  12 2 13 14  11 12 2 14  11 7 20 14  15 0 2 5  14 22 25 24  18 11 7 20  16 3 14 22  11 20 13 14  17 6 3 8  18 11 10 7  11 20 13 23  17 3 4 8  16 1 3 4  16 17 3 4  16 1 2 3  21 26 12 23  21 12 13 23  11 12 13 23  6 3 7 22  15 0 4 5  15 0 2 27  0 11 12 2  0 12 2 27  13 14 28 25  20 13 14 25  7 20 14 25  7 14 22 25  14 28 25 24  </DataArray>
<DataArray  type="UInt32"  Name="offsets"  format="ascii">4 8 12 16 20 24 28 32 36 40 44 48 52 56 60 64 68 72 76 80 84 88 92 96 100 104 108 112 116 120 124 128 132 136 140 144 148 152 156 160 164 168 172 176 180 184 188 192 196 200 204 208 212 216 </DataArray>
<DataArray  type="UInt8"  Name="types"  format="ascii">10 10 10 10 10 10 10 10 10 10 10 10 10 10 10 10 10 10 10 10 10 10 10 10 10 10 10 10 10 10 10 10 10 10 10 10 10 10 10 10 10 10 10 10 10 10 10 10 10 10 10 10 10 10 </DataArray>
</Cells>
<CellData  Scalars="f">
<DataArray  type="Float64"  Name="f"  format="ascii">2 2 2 2 2 2 3 2 2 2 2 2 2 2 2 3 2 2 2 2 3 2 2 2 2 2 2 2 2 2 3 2 2 3 2 2 3 2 2 2 2 3 3 3 2 2 2 2 2 3 3 2 2 3 </DataArray>
</CellData>
</Piece>
</UnstructuredGrid>
</VTKFile>