<?xml version="1.0"?>
<VTKFile type="UnstructuredGrid"  version="0.1"  >
<UnstructuredGrid>
<Piece  NumberOfPoints="27" NumberOfCells="51">
<Points>
<DataArray  type="Float64"  NumberOfComponents="3"  format="ascii">0.5178791473244835 1.26489927786667 3  0.4029248414127026 1.204631806333226 2.73567576311457  0.5537687920112865 1.351859095829314 2.530044562726093  0.775394094633397 1.277211819456766 3  0.4549035203945458 1.604343132989162 2.724617221798848  0.4637410722358405 1.939256248866168 2.631686396845068  0.3140478354405893 1.969068987966176 3  0.6098018463920098 1.894949197420773 3  0.1661565775744638 1.551646101203875 2.556887451517214  0.1785856489387258 1.982410848816575 2.485013482829006  0.009516601073950248 1.999062696605036 3  0.01090256986352663 1.296448819505796 2.715241883618103  0.1276238778575568 1.637250392049376 3  -0.09711585788368765 1.490793832837871 3  0.3419724544540532 1.453373101437235 3  0.6161044964006956 1.506569816507054 3  0.08031105797774156 1.311169543640173 2.313436608907443  -0.03930125034265274 0.996129164700061 2.568295406843527  0.2702183339099076 0.9579954471492396 2.644717245247153  0.4172607924959916 0.9053975484695388 3  0.8742082723200244 1.446804419358319 2.687174279676173  0.7561328111026439 1.850560184566739 2.561201759852887  -0.1950903220161293 0.9807852804032301 3  0.117054193209676 0.9884711682419384 3  0.8918694017944511 1.780142050235693 3  -0.1428347826811779 1.985932001805516 2.521964616201382  0.4637410722358405 1.939256248866168 2.338340568812943  </DataArray>
</Points>
<Cells>
<DataArray  type="UInt32"  Name="connectivity"  format="ascii">0 1 2 3  4 5 6 7  6 8 9 10  11 12 13 14  0 4 14 15  11 16 17 18  0 1 4 15  0 1 3 19  4 6 12 14  0 1 2 15  0 3 20 15  2 20 4 15  4 6 7 14  2 20 4 21  8 11 12 14  0 1 4 14  0 2 3 20  6 8 10 12  4 8 12 14  11 13 22 23  0 1 19 23  20 4 21 24  4 7 21 24  4 7 14 15  4 7 24 15  8 9 10 25  4 6 8 12  20 4 24 15  1 2 4 15  11 13 14 23  11 17 18 23  3 20 24 15  2 4 21 26  0 2 20 15  5 8 9 26  5 6 8 9  4 5 8 26  4 5 6 8  4 5 21 26  2 4 8 26  0 1 14 23  4 5 7 21  11 17 22 23  1 2 8 16  1 2 4 8  1 4 8 14  1 8 11 14  1 8 11 16  1 11 16 18  1 11 18 23  1 11 14 23  </DataArray>
<DataArray  type="UInt32"  Name="offsets"  format="ascii">4 8 12 16 20 24 28 32 36 40 44 48 52 56 60 64 68 72 76 80 84 88 92 96 100 104 108 112 116 120 124 128 132 136 140 144 148 152 156 160 164 168 172 176 180 184 188 192 196 200 204 </DataArray>
<DataArray  type="UInt8"  Name="types"  format="ascii">10 10 10 10 10 10 10 10 10 10 10 10 10 10 10 10 10 10 10 10 10 10 10 10 10 10 10 10 10 10 10 10 10 10 10 10 10 10 10 10 10 10 10 10 10 10 10 10 10 10 10 </DataArray>
</Cells>
<CellData  Scalars="f">
<DataArray  type="Float64"  Name="f"  format="ascii">2 3 2 2 2 2 2 2 2 2 2 2 2 2 2 2 2 2 2 2 2 3 3 2 3 2 2 3 2 2 2 2 2 2 2 2 2 2 3 2 2 3 2 2 2 2 2 2 2 2 2 </DataArray>
</CellData>
</Piece>
</UnstructuredGrid>
</VTKFile>