<?xml version="1.0"?>
<VTKFile type="UnstructuredGrid"  version="0.1"  >
<UnstructuredGrid>
<Piece  NumberOfPoints="28" NumberOfCells="53">
<Points>
<DataArray  type="Float64"  NumberOfComponents="3"  format="ascii">-1.472188914050033 0.3488894112955785 1.813515171551642  -1.314897154059142 0.1070208957759803 1.450635008672167  -1.328269106117748 -0.09218334284684881 1.876064687926369  -1.649275819615228 0.200243567272196 1.535775802024003  -0.965058522091939 0.246934496227205 2.15304399136757  -1.418270870718573 0.08770913575380102 2.157018349698728  -0.9983813517004134 -0.01643441198331545 2.112705389863635  -1.681438847184343 0.02209342104386963 1.848541819215936  -1.47674118856428 -0.1600094556322346 1.571512162555031  -1.559711166137235 -0.3106849806081239 2.010557024887333  -1.218231011818699 0.5181979106001584 2.02333925239462  -0.9128204895243113 0.4033734465540432 1.848051248605139  -0.9988204316776865 -0.01197635816027367 1.809529042826779  -1.201893715091328 -0.3615169074776507 2.325028010528075  -0.9547800418474424 -0.2808181046526108 2.095356488282758  -1.950962252746328 -0.4251515490508395 1.462938981298615  -1.991574622675041 0.08554429156020171 1.519340412504626  -1.969972668408264 -0.3048726139361433 1.778179663051902  -1.136987574194024 -0.6174439811883486 1.914508136383919  -1.205148256874422 -0.3774773616642302 1.56089248708819  -0.9423848302186555 -0.3216796412990161 1.782274022494871  -0.9776281769980494 0.2054978971629451 1.613870951770253  -1.979306087000891 0.2101088246663102 2.015075104935846  -0.9965365958288395 0.03516453267094798 1.375847279374345  -1.25543923261207 0.4266477155525202 1.530718952541371  -1.226372019819206 0.3270480739075828 2.370012777508555  -1.913724342306761 0.5479084883940999 1.526300691384503  -1.939082293579585 0.4643145259638104 1.830641441407223  </DataArray>
</Points>
<Cells>
<DataArray  type="UInt32"  Name="connectivity"  format="ascii">0 1 2 3  4 5 2 6  0 7 2 3  8 9 7 2  10 11 0 12  13 2 6 14  15 8 16 17  18 13 9 2  18 13 2 14  10 4 5 12  2 6 12 14  4 2 6 12  19 2 20 12  19 18 9 2  19 18 2 20  0 21 2 12  16 7 22 17  8 16 7 17  8 9 7 17  19 23 20 12  19 8 9 2  11 0 21 12  10 4 11 12  8 7 2 3  10 11 0 24  11 0 24 21  8 16 7 3  10 25 4 5  25 4 5 6  0 3 26 27  16 3 26 27  13 5 2 6  13 9 5 2  9 7 5 2  0 7 5 2  10 0 5 2  10 0 2 12  10 5 2 12  4 5 2 12  2 20 12 14  18 2 20 14  16 7 22 27  16 7 3 27  0 7 3 27  0 24 1 3  8 1 2 3  19 8 1 2  0 24 1 21  0 1 21 2  1 21 2 12  1 21 23 12  19 1 23 12  19 1 2 12  </DataArray>
<DataArray  type="UInt32"  Name="offsets"  format="ascii">4 8 12 16 20 24 28 32 36 40 44 48 52 56 60 64 68 72 76 80 84 88 92 96 100 104 108 112 116 120 124 128 132 136 140 144 148 152 156 160 164 168 172 176 180 184 188 192 196 200 204 208 212 </DataArray>
<DataArray  type="UInt8"  Name="types"  format="ascii">10 10 10 10 10 10 10 10 10 10 10 10 10 10 10 10 10 10 10 10 10 10 10 10 10 10 10 10 10 10 10 10 10 10 10 10 10 10 10 10 10 10 10 10 10 10 10 10 10 10 10 10 10 </DataArray>
</Cells>
<CellData  Scalars="f">
<DataArray  type="Float64"  Name="f"  format="ascii">2 2 2 2 2 2 2 2 2 2 2 2 2 2 2 2 3 2 2 2 2 2 2 2 2 2 2 2 2 2 3 2 2 2 2 2 2 2 2 2 2 3 3 2 2 2 2 2 2 2 2 2 2 </DataArray>
</CellData>
</Piece>
</UnstructuredGrid>
</VTKFile>