<?xml version="1.0"?>
<VTKFile type="UnstructuredGrid"  version="0.1"  >
<UnstructuredGrid>
<Piece  NumberOfPoints="31" NumberOfCells="52">
<Points>
<DataArray  type="Float64"  NumberOfComponents="3"  format="ascii">1.046236435761914 1.259623450252614 3  0.8742082723200244 1.446804419358319 2.687174279676173  1.155492626478305 1.626540347205291 3  1.392037482153536 1.432413001073002 3  1.27376505431592 1.529476674139147 2.564118891466585  0.8918694017944511 1.780142050235693 3  -0.03919175637006414 0.9961399489150803 2.208831768913183  0.2702183339099073 0.9579954471492396 2.365945188904822  0.08031105797774156 1.311169543640173 2.313436608907443  0.5165522821737178 1.172046529814467 2.226237013913654  0.937047807243359 1.139143600548469 2.292287176494212  0.8850474053629072 1.047062943728529 2.678047646755426  0.78166430635156 0.6162581739138655 2.517007383206871  0.6188712620331606 0.7795198003534882 2.306042624597293  0.2619811471086827 0.9604941704476454 1.824094099115754  1.300244485950819 1.049871952119805 2.714136197892474  1.590141469805477 1.199844786917422 3  1.117210130711165 0.9976546370238477 3  0.775394094633397 1.277211819456766 3  0.5555702330196015 0.8314696123025457 2.60763218026135  0.4810476458715273 0.8713027650130547 2.041009416210509  0.6767994715531577 0.7319793474097477 3  1.493220117564737 1.317943796327518 2.635091161824943  0.4029248414127026 1.204631806333226 2.73567576311457  0.5537687920112865 1.351859095829314 2.530044562726093  -0.03930125034265274 0.996129164700061 2.568295406843527  0.2702183339099076 0.9579954471492396 2.644717245247153  1.493220117564737 1.317943796327518 2.345955234064158  0.4172607924959916 0.9053975484695388 3  0.7561328111026439 1.850560184566739 2.561201759852887  0.117054193209676 0.9884711682419384 3  </DataArray>
</Points>
<Cells>
<DataArray  type="UInt32"  Name="connectivity"  format="ascii">0 1 2 3  1 2 4 5  6 7 8 9  10 11 12 13  6 7 9 14  3 15 16 17  1 2 3 4  18 0 1 2  10 11 9 19  7 9 14 20  10 9 13 19  21 11 18 17  11 18 0 17  3 15 4 22  3 15 16 22  11 23 24 18  11 0 15 17  11 0 1 15  11 23 24 19  18 1 2 5  7 8 25 26  11 18 0 1  15 4 22 27  11 23 28 19  11 1 15 4  0 1 3 15  0 3 15 17  1 3 15 4  23 24 7 19  10 11 15 4  1 29 4 5  24 7 8 9  10 11 24 9  11 24 9 19  24 7 9 19  10 11 1 4  10 11 24 1  11 24 18 1  11 23 18 28  21 11 18 28  21 11 28 19  21 11 12 19  23 24 7 8  6 7 8 25  10 11 13 19  7 9 13 20  7 9 13 19  11 12 13 19  23 26 28 30  23 26 28 19  23 7 26 19  23 7 8 26  </DataArray>
<DataArray  type="UInt32"  Name="offsets"  format="ascii">4 8 12 16 20 24 28 32 36 40 44 48 52 56 60 64 68 72 76 80 84 88 92 96 100 104 108 112 116 120 124 128 132 136 140 144 148 152 156 160 164 168 172 176 180 184 188 192 196 200 204 208 </DataArray>
<DataArray  type="UInt8"  Name="types"  format="ascii">10 10 10 10 10 10 10 10 10 10 10 10 10 10 10 10 10 10 10 10 10 10 10 10 10 10 10 10 10 10 10 10 10 10 10 10 10 10 10 10 10 10 10 10 10 10 10 10 10 10 10 10 </DataArray>
</Cells>
<CellData  Scalars="f">
<DataArray  type="Float64"  Name="f"  format="ascii">3 3 2 2 2 2 3 2 2 2 2 2 2 3 3 2 2 2 2 2 2 2 3 2 2 3 2 3 2 2 3 2 2 2 2 2 2 2 2 2 2 2 2 2 2 2 2 2 2 2 2 2 </DataArray>
</CellData>
</Piece>
</UnstructuredGrid>
</VTKFile>