<?xml version="1.0"?>
<VTKFile type="UnstructuredGrid"  version="0.1"  >
<UnstructuredGrid>
<Piece  NumberOfPoints="28" NumberOfCells="55">
<Points>
<DataArray  type="Float64"  NumberOfComponents="3"  format="ascii">1.465402221623878 -0.04489871403178196 1.706566879402843  1.537938004108834 0.3988833851826157 1.610246889482192  1.483670250902227 0.1972611969767152 1.200509124604304  1.648107957350248 -0.1227976461946005 1.364587885103908  1.969031808222339 0.3144253277147419 1.824793590277201  1.999999999999999 6.980763961486643e-15 1.4968451739389  1.993328127250876 -0.06774066082630309 1.93584042027411  1.980796191678785 0.1949795379762737 1.272752160226466  1.973375011178071 0.270328048077222 1.551316322258586  1.240324522846978 -0.3320077038749461 1.621876263441188  1.311974525224038 -0.6956341727803129 1.675784623073192  1.568024024482216 -0.4128773890885717 1.95366538225923  1.604943108763754 -0.462954963753897 1.569836829435835  1.958242189498175 -0.4011528137909813 1.720021362738116  1.30638307684875 -0.09277109321427224 1.289033245456324  1.306565176860637 0.2424610329078545 1.813117726371024  1.577516263527545 0.2445926416712043 2.026984224023344  1.373199007690748 -0.07088942277561612 2.072909093853512  1.961570560806461 -0.3901806440322506 2.180828740535496  1.948141038291293 -0.4344518467217544 1.366360190275243  1.427438726121689 -0.4205119031039213 1.226491637279935  1.857778795633229 -0.7323362395342716 1.753883395069307  1.502587126797696 -0.7724354070681122 1.389484988646381  1.848384386024129 -0.7633054576492785 1.456864315407857  1.974226746434842 -0.2616802348901017 1.056914573512967  1.225354387501196 -0.4131867490015729 2.04310263419407  1.73621466789964 -0.9740517538195665 1.62714171255065  1.924505282974867 -0.5123684899345773 1.116811070342246  </DataArray>
</Points>
<Cells>
<DataArray  type="UInt32"  Name="connectivity"  format="ascii">0 1 2 3  0 4 5 6  2 7 8 3  0 1 8 4  9 10 11 12  0 5 6 13  14 0 2 3  15 0 1 16  0 16 6 17  0 11 6 17  11 18 6 13  3 12 13 19  20 9 3 12  0 11 6 13  0 3 5 13  20 9 10 12  11 18 13 21  15 0 16 17  20 10 12 22  20 3 12 19  10 11 12 21  12 13 19 23  7 8 3 5  0 1 4 16  0 3 12 13  3 5 24 19  0 9 3 12  0 8 4 5  0 11 12 13  3 5 13 19  0 4 16 6  0 9 25 11  14 0 9 3  0 9 11 12  1 2 8 3  0 1 8 3  10 12 26 22  0 8 3 5  14 20 9 3  11 12 13 21  10 12 26 21  12 13 21 23  0 25 11 17  12 22 19 23  20 12 22 19  12 22 21 23  26 22 21 23  12 26 22 21  15 14 0 2  15 0 1 2  20 22 19 27  22 19 23 27  20 3 19 27  3 24 19 27  7 3 5 24  </DataArray>
<DataArray  type="UInt32"  Name="offsets"  format="ascii">4 8 12 16 20 24 28 32 36 40 44 48 52 56 60 64 68 72 76 80 84 88 92 96 100 104 108 112 116 120 124 128 132 136 140 144 148 152 156 160 164 168 172 176 180 184 188 192 196 200 204 208 212 216 220 </DataArray>
<DataArray  type="UInt8"  Name="types"  format="ascii">10 10 10 10 10 10 10 10 10 10 10 10 10 10 10 10 10 10 10 10 10 10 10 10 10 10 10 10 10 10 10 10 10 10 10 10 10 10 10 10 10 10 10 10 10 10 10 10 10 10 10 10 10 10 10 </DataArray>
</Cells>
<CellData  Scalars="f">
<DataArray  type="Float64"  Name="f"  format="ascii">2 2 2 2 2 2 2 2 2 2 3 3 2 2 2 2 3 2 2 2 2 3 3 2 2 3 2 2 2 3 2 2 2 2 2 2 2 2 2 3 2 3 2 3 2 3 3 3 2 2 2 3 2 3 3 </DataArray>
</CellData>
</Piece>
</UnstructuredGrid>
</VTKFile>