<?xml version="1.0"?>
<VTKFile type="UnstructuredGrid"  version="0.1"  >
<UnstructuredGrid>
<Piece  NumberOfPoints="27" NumberOfCells="54">
<Points>
<DataArray  type="Float64"  NumberOfComponents="3"  format="ascii">0.703832443164323 1.296774617755608 0  0.815967879555884 1.820712259107823 0  0.7210652289595565 1.382696465015165 0.4268810221756049  0.5143124361856025 1.615035728290868 0.3030368477971916  0.1442795150810441 1.484939248488856 1.010602050919654  0.4671578611291403 1.204306292433994 0.6398323713313319  0.4506392931273455 1.615455817897696 0.7978568622240574  0.3035663841944029 1.468329231260957 0.5178133255738145  0.1643047838855171 1.320926202876569 0.2601257099434788  0.02676643764601537 1.300197661506557 0.7064266809922422  0.2702183339099075 0.9579954471492393 0.4203232145017637  0.5274438955070994 1.919932208690407 0  0.6735271539842622 1.875618336700805 0.4401973666696549  0.5128119165016742 1.408270784007002 0  0.2873730628823594 1.47813042380554 0  0.05207958592487053 1.496570209466655 0  0.117054193209676 0.9884711682419384 0  0.950903919091113 1.748587443335147 0.3702691123058184  0.4706916550363877 1.200155881993751 0.3061720388465  0.3512803055319093 1.25093246974146 0  0.1391998973416516 1.661628473974168 0.2874369829148079  0.07650029150423335 1.992465378932516 0.4968308293025495  0.380577548842038 1.962516383128318 0.3823981616479639  0.2283984257749718 1.977504718520856 0  -0.07613280859166777 1.992501572840284 0  -0.05076296388909356 0.9950002844479942 0.4645007508113306  0.4172607924959916 0.9053975484695388 0  </DataArray>
</Points>
<Cells>
<DataArray  type="UInt32"  Name="connectivity"  format="ascii">0 1 2 3  4 5 6 7  8 7 9 10  1 3 11 12  3 11 13 14  8 15 16 14  1 3 12 17  18 13 14 19  8 5 10 18  20 7 21 22  20 21 23 24  3 6 7 22  8 18 14 19  8 10 16 25  20 11 22 23  8 16 14 19  3 11 12 22  3 6 12 22  0 18 19 26  2 3 7 18  0 18 13 19  20 3 11 14  8 3 18 14  20 3 7 22  2 3 6 7  8 9 10 25  3 18 13 14  2 3 12 17  1 2 3 17  8 10 18 16  4 5 7 9  20 21 22 23  8 5 7 10  8 15 20 14  10 18 16 26  0 2 3 13  15 20 23 24  15 20 14 23  20 11 14 23  0 2 18 13  18 16 19 26  8 18 16 19  5 7 9 10  2 3 18 13  1 3 11 13  0 1 3 13  8 20 3 7  20 3 11 22  8 20 3 14  8 3 7 18  2 5 7 18  8 5 7 18  2 5 6 7  2 3 6 12  </DataArray>
<DataArray  type="UInt32"  Name="offsets"  format="ascii">4 8 12 16 20 24 28 32 36 40 44 48 52 56 60 64 68 72 76 80 84 88 92 96 100 104 108 112 116 120 124 128 132 136 140 144 148 152 156 160 164 168 172 176 180 184 188 192 196 200 204 208 212 216 </DataArray>
<DataArray  type="UInt8"  Name="types"  format="ascii">10 10 10 10 10 10 10 10 10 10 10 10 10 10 10 10 10 10 10 10 10 10 10 10 10 10 10 10 10 10 10 10 10 10 10 10 10 10 10 10 10 10 10 10 10 10 10 10 10 10 10 10 10 10 </DataArray>
</Cells>
<CellData  Scalars="f">
<DataArray  type="Float64"  Name="f"  format="ascii">2 2 2 3 2 2 3 2 2 2 3 2 2 2 3 2 3 3 2 2 2 2 2 2 2 2 2 2 2 2 2 3 2 2 2 2 2 2 2 2 2 2 2 2 2 2 2 3 2 2 2 2 2 2 </DataArray>
</CellData>
</Piece>
</UnstructuredGrid>
</VTKFile>