<?xml version="1.0"?>
<VTKFile type="UnstructuredGrid"  version="0.1"  >
<UnstructuredGrid>
<Piece  NumberOfPoints="31" NumberOfCells="56">
<Points>
<DataArray  type="Float64"  NumberOfComponents="3"  format="ascii">0.3448925070327128 -0.935343284381316 2.53156913794189  0.6667024173463881 -1.138373263222274 2.268151214422505  0.534251333889346 -1.150859463366025 2.723599234707922  0.2758048264117831 -1.271826340920732 2.659392961480815  0.4530074376641818 -1.426915595940797 2.237640096430802  0.1167513975266851 -0.9885009910136866 2.261816189989672  1.021224317089319 -0.8321952982497536 2.744115519016117  1.047013801459084 -0.7987522746294097 2.360842438458281  0.8314696123025456 -0.5555702330196017 2.531509163349302  0.6162581739138655 -0.78166430635156 2.610192205524704  0.4864155127577986 -0.8684335803860411 3  0.7319793474097475 -0.676799471553158 3  0.7999369507764019 -1.017034017230526 3  1.025396053603225 -0.8796225306606058 1.994863228994994  0.6162581739138656 -0.7816643063515599 2.259950676278146  0.3817783677305346 -0.9241540808666293 2.018511703932645  0.7268010615927014 -1.314753802040943 2.576584690100681  0.7251335680040807 -1.584997682751503 2.368746179622643  0.03930125034265458 -0.9961291647000606 2.610505229417855  0.8087702907739448 -0.5832294363306567 2.257349008093577  1.036045472981225 -1.131598142160147 2.305939992440852  0.5974423874163273 -1.222689372975486 3  0.4486295320384649 -1.429519901558441 3  0.1950903220161306 -0.9807852804032298 3  -0.006483297213640909 -1.49224073078184 3  -0.1170541932096738 -0.9884711682419386 3  1.329644016801523 -0.7148664512826449 2.196512634839139  1.157225533554486 -0.557645663691798 2.6634089496916  0.9370351277853799 -0.3393152467708075 2.235031275832076  1.225354387501196 -0.4131867490015729 2.04310263419407  0.4307402755318971 -1.596714692926355 2.540288253336501  </DataArray>
</Points>
<Cells>
<DataArray  type="UInt32"  Name="connectivity"  format="ascii">0 1 2 3  0 3 4 5  6 7 8 9  9 10 11 12  6 8 9 11  1 7 13 14  0 1 15 5  2 9 10 12  0 2 9 10  1 16 4 17  0 3 5 18  7 13 14 19  1 20 7 13  6 9 11 12  2 21 22 23  7 8 9 14  0 1 9 14  3 24 22 23  1 3 16 4  7 8 14 19  2 21 10 23  3 24 25 23  1 16 20 9  20 7 13 26  1 20 7 9  6 7 27 8  3 25 18 23  0 1 15 14  16 20 6 9  7 8 28 19  0 3 18 23  7 13 29 19  2 21 10 12  0 2 3 23  20 6 7 9  0 2 10 23  27 28 26 29  1 16 20 17  7 27 8 28  7 28 26 29  7 28 29 19  7 13 26 29  7 27 28 26  0 1 3 4  0 1 4 5  3 16 4 30  1 7 9 14  1 2 3 16  2 16 6 9  1 2 16 9  0 1 2 9  2 6 9 12  2 3 22 23  2 3 30 22  2 3 16 30  16 4 17 30  </DataArray>
<DataArray  type="UInt32"  Name="offsets"  format="ascii">4 8 12 16 20 24 28 32 36 40 44 48 52 56 60 64 68 72 76 80 84 88 92 96 100 104 108 112 116 120 124 128 132 136 140 144 148 152 156 160 164 168 172 176 180 184 188 192 196 200 204 208 212 216 220 224 </DataArray>
<DataArray  type="UInt8"  Name="types"  format="ascii">10 10 10 10 10 10 10 10 10 10 10 10 10 10 10 10 10 10 10 10 10 10 10 10 10 10 10 10 10 10 10 10 10 10 10 10 10 10 10 10 10 10 10 10 10 10 10 10 10 10 10 10 10 10 10 10 </DataArray>
</Cells>
<CellData  Scalars="f">
<DataArray  type="Float64"  Name="f"  format="ascii">2 2 2 2 2 2 2 2 2 2 2 2 2 2 2 2 2 2 2 2 2 2 2 2 2 2 2 2 2 2 2 2 2 2 2 2 2 2 2 2 2 2 2 2 2 2 2 2 2 2 2 2 2 2 2 2 </DataArray>
</CellData>
</Piece>
</UnstructuredGrid>
</VTKFile>