<?xml version="1.0"?>
<VTKFile type="UnstructuredGrid"  version="0.1"  >
<UnstructuredGrid>
<Piece  NumberOfPoints="31" NumberOfCells="54">
<Points>
<DataArray  type="Float64"  NumberOfComponents="3"  format="ascii">-0.9694713875451534 1.385937676744171 2.106230155188507  -1.009694780086552 1.717163073440949 2.062825459032976  -1.258981000836231 1.541609633272406 2.455411461786796  -1.009694780086552 1.71716307344095 2.59683869758662  -1.463451918388717 1.354216451973904 2.267569611736246  -1.160136507076256 1.085340793162865 2.131518943889536  -1.263802713180702 1.53765255621582 2.165927881019185  -0.8314696123025459 0.5555702330196011 2.237427138497466  -1.072417303205681 0.7889984600428528 2.264878008245959  -0.6162581739138655 0.78166430635156 2.568064102241023  -0.607113779179846 0.7891689171647351 2.244318164518808  -0.7437850672925156 1.310274425777958 2.344038711966598  -1.407451935737898 1.419762685944103 1.94387714301358  -1.638874003421083 1.140464022895973 1.869087621001219  -0.7247392452730292 0.6856215615323663 1.96900354591404  -0.7376982336589788 1.856152252497978 2.455194588060328  -0.5458800897167457 1.599865209253661 2.307170106181403  -0.7062297636539285 1.865698108512207 2.04206230673467  -0.8110786017792939 1.047269901791205 2.121104941428879  -1.067661353863925 0.9868268625447008 2.537163485791395  -0.9778930460282533 1.30754977276707 2.675174608316912  -0.7319793474097477 0.6767994715531579 3  -0.8307595196333297 0.5564354834405354 2.615727172224359  -0.892990212372111 1.21769769929962 1.825057446330698  -1.148333263155938 1.632415884839794 1.78015986768522  -0.8716856950617791 1.790930466249067 1.848290639321739  -0.6581426274935399 1.141175892022394 2.668245984588441  -0.475714278225114 1.461073098013345 1.990623103556109  -0.4438400887891144 0.891190618615129 1.952018840292058  -1.230947643491196 0.8176538316399466 1.805737396756329  -1.378646892471328 0.9857052500752941 2.377250895472625  </DataArray>
</Points>
<Cells>
<DataArray  type="UInt32"  Name="connectivity"  format="ascii">0 1 2 3  2 4 5 6  7 8 9 10  0 2 3 11  0 12 5 6  13 12 4 5  14 7 8 10  0 2 5 6  1 15 16 17  18 19 8 5  18 11 19 5  18 14 8 10  18 19 9 10  1 3 11 15  19 8 9 10  0 2 11 20  0 2 20 5  19 21 22 9  18 19 8 10  0 23 24 25  26 19 21 9  12 4 5 6  18 26 11 19  0 1 24 25  0 23 24 12  1 11 15 16  0 1 11 16  0 11 27 16  0 1 3 11  0 1 27 25  1 27 17 25  18 26 19 9  0 18 11 27  18 14 28 10  0 18 23 27  0 23 27 25  18 23 29 5  0 1 2 6  0 1 24 6  0 24 12 6  18 14 29 8  19 8 30 5  18 29 8 5  19 8 22 9  7 8 22 9  0 23 12 5  0 18 23 5  0 18 11 5  0 11 19 5  0 11 19 20  0 19 20 5  0 1 27 17  0 1 16 17  0 27 16 17  </DataArray>
<DataArray  type="UInt32"  Name="offsets"  format="ascii">4 8 12 16 20 24 28 32 36 40 44 48 52 56 60 64 68 72 76 80 84 88 92 96 100 104 108 112 116 120 124 128 132 136 140 144 148 152 156 160 164 168 172 176 180 184 188 192 196 200 204 208 212 216 </DataArray>
<DataArray  type="UInt8"  Name="types"  format="ascii">10 10 10 10 10 10 10 10 10 10 10 10 10 10 10 10 10 10 10 10 10 10 10 10 10 10 10 10 10 10 10 10 10 10 10 10 10 10 10 10 10 10 10 10 10 10 10 10 10 10 10 10 10 10 </DataArray>
</Cells>
<CellData  Scalars="f">
<DataArray  type="Float64"  Name="f"  format="ascii">3 3 2 2 3 3 2 3 3 2 2 2 2 2 2 2 3 2 2 2 2 3 2 3 2 2 2 2 2 2 2 2 2 2 2 2 2 3 3 3 2 2 2 2 2 2 2 2 2 2 2 2 3 2 </DataArray>
</CellData>
</Piece>
</UnstructuredGrid>
</VTKFile>