<?xml version="1.0"?>
<VTKFile type="UnstructuredGrid"  version="0.1"  >
<UnstructuredGrid>
<Piece  NumberOfPoints="30" NumberOfCells="55">
<Points>
<DataArray  type="Float64"  NumberOfComponents="3"  format="ascii">-1.22247303577894 0.3326178634798861 0.9654715603529608  -1.518961711203538 0.07336982528669388 0.767522402488244  -0.9682729950644814 0.23633779896216 0.705460381041467  -0.9988204316776866 -0.01197635816027369 0.9202779528728253  -1.964638033666885 -0.3590360694210094 1.131809366286952  -1.638711807804228 -0.06826526146068315 1.173240500731697  -1.98226447380557 0.180071819365941 1.060137157110759  -1.991574622675041 0.08554429156020171 1.519340412504626  -1.346501354169998 0.04122682333998573 0.4612535976434082  -1.846612959781425 0.76751107682243 1.151675842041366  -1.580305958260196 0.4275683301379611 0.8988882789704619  -1.939560067135936 0.4627395176246096 1.214058446966351  -1.951777400009669 0.4224643686483734 0.8069121487439513  -1.269246140500716 -0.0930329356625437 1.160250501970419  -1.467499692352606 0.3281647548731498 1.250840500992602  -1.314897154059142 0.1070208957759803 1.450635008672167  -1.460442964317437 0.4468419858689834 0.4688061786729282  -1.987591768241366 0.125982891254348 0.4868394589393813  -1.47674118856428 -0.1600094556322346 1.571512162555031  -1.649275819615228 0.200243567272196 1.535775802024003  -1.169289290396311 0.6178694334978951 0.5466151963945229  -0.8163371733870979 0.5740091631888196 0.9096750751367708  -1.853357911672159 0.7469099408469011 0.7128101324276359  -1.942033750161308 0.4545848775410102 0.4566553162984529  -1.644974219726995 0.1468516289030477 0.3052610429514422  -0.911179233850709 0.406444019949456 1.163307837086328  -0.9965365958288395 0.03516453267094798 1.375847279374345  -1.310453516629691 0.6951426320007211 0.8534972697453511  -1.950962252746328 -0.4251515490508395 1.462938981298615  -1.205148256874422 -0.3774773616642302 1.56089248708819  </DataArray>
</Points>
<Cells>
<DataArray  type="UInt32"  Name="connectivity"  format="ascii">0 1 2 3  4 5 6 7  1 2 3 8  9 10 11 12  0 13 14 15  0 1 16 10  1 6 12 17  18 5 7 19  0 2 20 21  16 10 22 23  1 16 8 24  1 6 10 12  0 3 25 26  1 24 17 23  1 5 6 10  5 14 6 10  0 1 14 10  0 3 13 26  10 12 22 23  0 20 27 16  1 12 17 23  5 6 7 19  28 18 5 7  0 2 3 25  1 16 24 23  29 13 15 26  0 2 20 16  29 13 18 15  1 13 5 14  5 14 6 19  4 28 5 7  1 10 12 23  27 16 10 22  0 2 21 25  0 1 2 8  9 10 12 22  27 9 10 22  1 5 14 10  1 16 10 23  13 5 14 15  0 20 27 21  0 27 16 10  0 1 13 14  0 1 3 13  0 1 16 8  0 2 16 8  6 10 11 12  6 7 11 19  14 6 11 19  14 6 10 11  0 25 15 26  0 13 15 26  5 14 15 19  18 5 15 19  13 18 5 15  </DataArray>
<DataArray  type="UInt32"  Name="offsets"  format="ascii">4 8 12 16 20 24 28 32 36 40 44 48 52 56 60 64 68 72 76 80 84 88 92 96 100 104 108 112 116 120 124 128 132 136 140 144 148 152 156 160 164 168 172 176 180 184 188 192 196 200 204 208 212 216 220 </DataArray>
<DataArray  type="UInt8"  Name="types"  format="ascii">10 10 10 10 10 10 10 10 10 10 10 10 10 10 10 10 10 10 10 10 10 10 10 10 10 10 10 10 10 10 10 10 10 10 10 10 10 10 10 10 10 10 10 10 10 10 10 10 10 10 10 10 10 10 10 </DataArray>
</Cells>
<CellData  Scalars="f">
<DataArray  type="Float64"  Name="f"  format="ascii">2 3 2 3 2 2 2 2 2 2 2 2 2 2 2 2 2 2 3 2 2 3 2 2 2 2 2 2 2 2 3 2 2 2 2 3 2 2 2 2 2 2 2 2 2 2 3 3 2 2 2 2 2 2 2 </DataArray>
</CellData>
</Piece>
</UnstructuredGrid>
</VTKFile>