<?xml version="1.0"?>
<VTKFile type="UnstructuredGrid"  version="0.1"  >
<UnstructuredGrid>
<Piece  NumberOfPoints="29" NumberOfCells="55">
<Points>
<DataArray  type="Float64"  NumberOfComponents="3"  format="ascii">-1.009694780086552 1.71716307344095 2.59683869758662  -0.6796881143437906 1.523987731700569 2.661181032844699  -1.140708572998613 1.63867330633855 3  -0.8750023968525584 1.789157652207271 3  -0.6581426274935399 1.141175892022394 2.668245984588441  -0.7437850672925156 1.310274425777958 2.344038711966598  -1.067661353863925 0.9868268625447008 2.537163485791395  -0.9778930460282533 1.30754977276707 2.675174608316912  -1.321792150157253 1.072788000801277 2.704729680744416  -1.481145788223528 1.332656409198891 2.620319746743644  -1.578008510672219 1.214628840397112 3  -1.377253428673846 1.44454596020626 3  -1.258981000836231 1.541609633272406 2.455411461786796  -1.210914574792146 1.096700559299721 3  -1.672031258210054 1.094130467568752 2.235026396344403  -1.638874003421083 1.140464022895973 1.869087621001219  -1.463451918388717 1.354216451973904 2.267569611736246  -1.160136507076256 1.085340793162865 2.131518943889536  -0.9419791903414886 1.155341809566791 3  -1.248180643451476 0.8184088958206328 3  -1.744079642349356 0.9593374215620627 3  -1.187631426339074 1.600164715796871 2.65633552356742  -1.378646892471328 0.9857052500752941 2.377250895472625  -1.672031258210054 1.094130467568751 2.585133084103941  -0.7376982336589788 1.856152252497978 2.455194588060328  -0.5519289362489997 1.38314656429069 3  -0.8268940044230321 1.406118390396633 3  -1.823856666218048 0.8100851076195585 2.602030043929778  -0.7319793474097477 0.6767994715531579 3  </DataArray>
</Points>
<Cells>
<DataArray  type="UInt32"  Name="connectivity"  format="ascii">0 1 2 3  4 5 6 7  8 9 10 11  1 2 3 7  12 0 5 7  8 10 11 13  14 15 16 17  2 7 11 18  19 8 20 10  7 11 13 18  6 7 13 18  8 7 11 13  0 2 7 21  12 9 22 16  12 6 22 17  19 8 10 13  14 22 16 17  9 22 16 23  19 6 13 18  14 22 16 23  12 22 16 17  0 1 5 24  2 7 11 21  1 3 25 26  19 8 6 13  4 7 18 26  8 9 10 23  12 0 7 21  0 1 3 24  8 7 9 11  4 6 7 18  8 20 10 23  4 25 18 26  1 4 25 26  14 27 22 23  8 27 22 23  8 12 9 22  19 6 28 18  8 20 27 23  7 9 11 21  4 6 28 18  8 9 22 23  8 12 6 22  1 3 7 26  2 7 18 26  1 4 7 26  0 1 2 7  2 3 7 26  8 6 7 13  8 12 6 7  8 12 7 9  12 7 9 21  12 6 7 17  1 4 5 7  0 1 5 7  </DataArray>
<DataArray  type="UInt32"  Name="offsets"  format="ascii">4 8 12 16 20 24 28 32 36 40 44 48 52 56 60 64 68 72 76 80 84 88 92 96 100 104 108 112 116 120 124 128 132 136 140 144 148 152 156 160 164 168 172 176 180 184 188 192 196 200 204 208 212 216 220 </DataArray>
<DataArray  type="UInt8"  Name="types"  format="ascii">10 10 10 10 10 10 10 10 10 10 10 10 10 10 10 10 10 10 10 10 10 10 10 10 10 10 10 10 10 10 10 10 10 10 10 10 10 10 10 10 10 10 10 10 10 10 10 10 10 10 10 10 10 10 10 </DataArray>
</Cells>
<CellData  Scalars="f">
<DataArray  type="Float64"  Name="f"  format="ascii">3 2 3 3 2 3 3 2 2 2 2 3 3 3 2 2 3 3 2 3 3 2 3 2 2 2 3 3 3 3 2 3 2 2 3 3 3 2 3 3 2 3 2 3 2 2 3 3 2 2 3 3 2 2 2 </DataArray>
</CellData>
</Piece>
</UnstructuredGrid>
</VTKFile>