<?xml version="1.0"?>
<VTKFile type="UnstructuredGrid"  version="0.1"  >
<UnstructuredGrid>
<Piece  NumberOfPoints="29" NumberOfCells="55">
<Points>
<DataArray  type="Float64"  NumberOfComponents="3"  format="ascii">-0.8100995776433193 -1.247237953441347 0  -1.150281274228815 -0.9501967741745472 0  -1.09260254951289 -1.217374098972824 0  -0.945054747744883 -0.9397443290066212 0.2792226860027984  -0.6571924400077004 -1.132942709121853 0.2777506580342663  -0.676799471553154 -0.7319793474097507 0  -1.085640909602976 -1.676569021482061 0.5448054119396718  -1.038544912252551 -1.336141567478204 0.2595975030023214  -1.32529567496066 -1.487186586697771 0.4031613024133787  -1.085640909602975 -1.676569021482061 0.3178861843049291  -0.7816643063515567 -0.6162581739138697 0.6026581783062313  -0.9076481032910477 -1.213750681777729 0.4883010224057977  -0.555570233019598 -0.8314696123025476 0.3889995797975083  -1.43847948063963 -1.384645455413692 0  -1.207236813657266 -1.584074990238849 0  -1.296655448597995 -0.9614796122255694 0.460037240580255  -1.535543153705772 -1.266373027576076 0.5445885382132033  -1.476988071181309 -1.337722602073234 0.3436644764325797  -0.9509039190911186 -1.748587443335144 0  -0.7983372904891837 -1.489459449269377 0.3162784420933646  -1.16338190992118 -0.9589332540313191 0.8328925187681296  -0.8162735538549937 -1.820548872790978 0.4035368542558668  -0.5275263661176575 -1.919907191504199 0.3786589058290399  -0.6738580304136116 -1.875517966433278 0  -0.6640335932016037 -1.486004151380947 0  -1.32529567496066 -1.487186586697769 0.9371745409670237  -1.004848079183114 -1.384524186235258 0.7958511776485666  -0.8684335803860386 -0.4864155127578036 0  -1.63260682677192 -1.14810059973846 0  </DataArray>
</Points>
<Cells>
<DataArray  type="UInt32"  Name="connectivity"  format="ascii">0 1 2 3  4 0 3 5  6 7 8 9  10 11 3 12  2 7 13 14  15 16 17 8  10 3 12 5  7 8 9 14  7 9 14 18  0 2 7 14  19 7 9 18  19 6 11 7  7 8 13 14  10 20 11 3  19 6 7 9  20 11 15 3  15 1 2 13  19 9 21 18  19 6 9 21  22 19 23 21  19 23 24 18  19 23 21 18  25 26 6 8  10 3 5 27  1 3 5 27  0 1 3 5  4 3 12 5  4 11 3 12  19 0 24 18  28 15 17 13  28 15 1 13  20 26 11 15  26 15 16 8  26 6 11 8  20 25 26 16  20 26 15 16  25 26 16 8  6 11 7 8  15 17 7 8  15 17 7 13  17 7 8 13  11 15 7 8  26 11 15 8  15 2 7 13  15 1 2 7  15 1 3 7  11 15 3 7  4 11 3 7  4 19 11 7  4 19 0 7  4 0 3 7  0 2 3 7  1 2 3 7  19 0 7 18  0 7 14 18  </DataArray>
<DataArray  type="UInt32"  Name="offsets"  format="ascii">4 8 12 16 20 24 28 32 36 40 44 48 52 56 60 64 68 72 76 80 84 88 92 96 100 104 108 112 116 120 124 128 132 136 140 144 148 152 156 160 164 168 172 176 180 184 188 192 196 200 204 208 212 216 220 </DataArray>
<DataArray  type="UInt8"  Name="types"  format="ascii">10 10 10 10 10 10 10 10 10 10 10 10 10 10 10 10 10 10 10 10 10 10 10 10 10 10 10 10 10 10 10 10 10 10 10 10 10 10 10 10 10 10 10 10 10 10 10 10 10 10 10 10 10 10 10 </DataArray>
</Cells>
<CellData  Scalars="f">
<DataArray  type="Float64"  Name="f"  format="ascii">2 2 3 2 3 3 2 3 3 2 3 2 3 2 3 2 2 3 3 3 3 3 3 2 2 2 2 2 2 3 2 2 3 2 2 2 3 2 3 3 3 2 2 3 2 2 2 2 2 2 2 2 2 2 2 </DataArray>
</CellData>
</Piece>
</UnstructuredGrid>
</VTKFile>