<?xml version="1.0"?>
<VTKFile type="UnstructuredGrid"  version="0.1"  >
<UnstructuredGrid>
<Piece  NumberOfPoints="30" NumberOfCells="53">
<Points>
<DataArray  type="Float64"  NumberOfComponents="3"  format="ascii">-0.210955085465953 1.473064701073961 1.604276690252083  -0.007223157962659155 1.999288581035586 1.542883892344841  -0.3194953394224398 1.968532455654207 1.537546908821672  -0.2166237417827176 1.97866442367134 1.826102857666231  -0.1834299297759022 1.649144526163002 1.221032517683487  -0.5463090841630303 1.617934395573558 1.534150311174274  -0.3228874270112512 1.296959932787666 1.282266916427373  -0.5183545020952502 1.603496667730219 1.196719723593035  -0.7055764457917805 1.317597013421202 1.301115225193525  -1.033643812175094 1.704362049094382 1.368988998214624  -0.8721315865875905 1.790692132263099 1.582747669094182  -0.5275263661176657 1.919907191504196 1.317755112776175  -0.06873693303092365 1.389446822062717 1.983219617280064  0.04504083786607943 1.649225737844505 2.218881006887865  0.1898814847936827 1.573183929223919 1.712662906107614  -0.2267774030441232 1.683882521290659 1.983168789418239  -0.4925081637444058 1.930529847060011 1.787691111933809  -0.7298000471012913 1.461098541772524 0.9734197833778246  -0.9113628164237078 1.769722603038649 0.9921260307281596  -0.4564056051469291 1.941481438480299 2.257537498022789  -0.1118209022403694 1.988986602413682 0.9801646178047809  -0.6061119642725956 1.896068510924599 0.9977104625657558  -0.3788887885544553 1.455913956808009 0.8999474566814727  -0.1428347826811782 1.985932001805518 2.098879296860811  -0.1428347826811779 1.985932001805516 2.521964616201382  -0.8703772905936825 1.791629823007596 0.6925816834223161  -0.5275263661176652 1.919907191504196 0.6776658123553367  0.06418241993696404 1.99367858338955 1.85486200412636  -0.7062297636539285 1.865698108512207 2.04206230673467  -1.175934197438558 1.609764383466992 1.145300421014613  </DataArray>
</Points>
<Cells>
<DataArray  type="UInt32"  Name="connectivity"  format="ascii">0 1 2 3  0 4 5 6  5 6 7 8  9 7 10 11  0 1 4 2  0 4 2 5  9 5 7 8  12 13 14 15  2 5 11 16  9 7 17 18  3 15 16 19  20 4 2 11  4 2 5 11  7 11 18 21  4 5 7 11  5 10 11 16  22 6 7 17  9 7 11 18  9 5 7 10  3 15 19 23  13 24 19 23  12 14 0 15  25 26 17 21  0 2 3 16  4 7 11 21  9 7 8 17  5 7 10 11  0 2 5 16  22 26 17 21  4 5 6 7  7 17 18 21  22 4 6 7  25 17 18 21  22 4 7 21  3 27 15 23  14 1 3 27  14 0 1 3  22 20 26 21  20 1 4 2  22 20 4 21  20 4 11 21  0 3 15 16  15 16 19 28  13 15 19 23  13 27 15 23  22 7 17 21  29 9 17 18  29 9 8 17  9 5 8 10  14 0 3 15  6 7 8 17  14 3 27 15  13 14 27 15  </DataArray>
<DataArray  type="UInt32"  Name="offsets"  format="ascii">4 8 12 16 20 24 28 32 36 40 44 48 52 56 60 64 68 72 76 80 84 88 92 96 100 104 108 112 116 120 124 128 132 136 140 144 148 152 156 160 164 168 172 176 180 184 188 192 196 200 204 208 212 </DataArray>
<DataArray  type="UInt8"  Name="types"  format="ascii">10 10 10 10 10 10 10 10 10 10 10 10 10 10 10 10 10 10 10 10 10 10 10 10 10 10 10 10 10 10 10 10 10 10 10 10 10 10 10 10 10 10 10 10 10 10 10 10 10 10 10 10 10 </DataArray>
</Cells>
<CellData  Scalars="f">
<DataArray  type="Float64"  Name="f"  format="ascii">2 2 2 3 2 2 2 2 3 3 3 3 3 3 3 3 2 3 3 3 3 2 3 2 3 2 3 2 2 2 3 2 3 2 3 3 2 2 3 2 3 2 3 3 3 2 3 2 2 2 2 3 3 </DataArray>
</CellData>
</Piece>
</UnstructuredGrid>
</VTKFile>