<?xml version="1.0"?>
<VTKFile type="UnstructuredGrid"  version="0.1"  >
<UnstructuredGrid>
<Piece  NumberOfPoints="29" NumberOfCells="54">
<Points>
<DataArray  type="Float64"  NumberOfComponents="3"  format="ascii">-1.691847127104035 -1.057057584402842 1.792481564850882  -1.31118241156544 -0.7076136899520298 1.591462913785664  -1.508823376803995 -0.6604528802020468 1.900797887321078  -1.853357911672155 -0.7469099408469138 1.496851154341965  -1.829876992465486 -0.7988218694145495 1.130912378998781  -1.576745284602963 -0.4950996627568143 1.416069836141637  -1.950962252746328 -0.4251515490508395 1.462938981298615  -0.9682708406532703 -1.138792772600605 1.670236978742137  -0.853420495280782 -1.453890156540273 1.485574797935731  -1.190450381033078 -1.253673925332207 1.429810163371145  -1.260123051423864 -1.540672376577078 1.701925022327931  -1.20265655390644 -1.587833912272838 1.403902710452611  -1.523611732457502 -1.280911506432372 1.521244052339037  -1.019261186056348 -0.8585171825553823 1.460518224155073  -1.299777470967316 -0.9630104139010042 1.242983813690666  -1.306685448933046 -1.049055102510419 1.668773821659217  -1.706002944299271 -1.030573913169211 1.381074476777648  -0.7951296159210844 -0.5998506467302667 1.75433246864053  -0.718776826249423 -1.07158912740432 1.415368659861116  -1.217866055289757 -1.018367432924538 2.006040510804831  -0.8919454071444386 -1.780101424529732 1.682244887223824  -1.136987574194024 -0.6174439811883486 1.914508136383919  -1.657390101034077 -1.117902092674408 1.056122856986421  -0.9588110646998161 -1.223096706791814 1.189203961289622  -1.467388403511188 -1.349419830973749 1.854699578985386  -1.897442875023726 -0.6015812930195484 1.762338718678639  -1.419413192405067 -1.407877794847384 1.239336329786885  -0.8420473046177399 -1.806772515993067 1.222217715227834  -1.32529567496066 -1.487186586697769 0.9371745409670237  </DataArray>
</Points>
<Cells>
<DataArray  type="UInt32"  Name="connectivity"  format="ascii">0 1 2 3  4 3 5 6  7 8 9 10  9 10 11 12  13 14 9 15  0 1 3 16  13 17 18 7  0 19 2 15  8 10 11 20  19 21 1 2  4 22 14 16  18 7 23 8  24 10 12 15  14 9 12 15  8 9 10 11  13 17 21 7  1 14 5 16  13 18 7 23  0 2 3 25  24 0 12 15  1 3 5 16  14 23 9 26  14 12 16 26  23 9 11 26  4 3 5 16  8 27 11 20  9 10 12 15  3 5 6 25  14 9 12 26  1 14 15 16  14 12 15 16  4 14 5 16  9 11 12 26  13 7 23 9  7 23 8 9  0 1 15 16  13 1 14 15  23 8 9 11  2 3 5 25  1 2 3 5  7 9 10 15  13 21 1 15  19 21 1 15  19 1 2 15  0 1 2 15  0 12 15 16  24 0 19 15  13 14 23 9  13 7 9 15  13 21 7 15  22 14 16 26  22 28 14 26  28 14 23 26  28 23 11 26  </DataArray>
<DataArray  type="UInt32"  Name="offsets"  format="ascii">4 8 12 16 20 24 28 32 36 40 44 48 52 56 60 64 68 72 76 80 84 88 92 96 100 104 108 112 116 120 124 128 132 136 140 144 148 152 156 160 164 168 172 176 180 184 188 192 196 200 204 208 212 216 </DataArray>
<DataArray  type="UInt8"  Name="types"  format="ascii">10 10 10 10 10 10 10 10 10 10 10 10 10 10 10 10 10 10 10 10 10 10 10 10 10 10 10 10 10 10 10 10 10 10 10 10 10 10 10 10 10 10 10 10 10 10 10 10 10 10 10 10 10 10 </DataArray>
</Cells>
<CellData  Scalars="f">
<DataArray  type="Float64"  Name="f"  format="ascii">2 3 2 3 2 2 2 3 3 2 3 2 3 3 3 2 2 2 3 3 2 2 3 2 3 3 3 3 3 2 3 3 3 2 2 2 2 2 3 2 2 2 2 2 2 3 3 2 2 2 3 3 2 2 </DataArray>
</CellData>
</Piece>
</UnstructuredGrid>
</VTKFile>