<?xml version="1.0"?>
<VTKFile type="UnstructuredGrid"  version="0.1"  >
<UnstructuredGrid>
<Piece  NumberOfPoints="29" NumberOfCells="52">
<Points>
<DataArray  type="Float64"  NumberOfComponents="3"  format="ascii">-0.8262722068337489 1.214214377293678 0.7319552811989505  -0.6062226566438368 1.439697221576838 0.430144653775685  -1.085640909602985 1.676569021482061 0.5128342442179297  -0.8703772905936825 1.791629823007596 0.6925816834223161  -0.844926995554161 1.068622128813088 1.069123252014927  -0.3414150989220618 0.9363981445992313 1.071005738840007  -0.4922678887532528 1.230649576046017 0.6724026039041537  -0.3788887885544553 1.455913956808009 0.8999474566814727  -0.9529143709840853 0.8722663860045278 0.7494782604831286  -1.183147165165283 1.093160462193829 0.9268828513999143  -0.4681260799992067 0.8782094858657317 0.8325819908896523  -0.6162581739138656 0.7816643063515599 1.044769142674263  -0.5275263661176652 1.919907191504196 0.6776658123553367  -0.7298000471012913 1.461098541772524 0.9734197833778246  -0.6675264527648972 0.7395895172562288 0.8100690993224364  -1.175934197438558 1.609764383466992 1.145300421014613  -1.325295674960669 1.487186586697765 0.8594457826546948  -0.8163371733870979 0.5740091631888196 0.9096750751367708  -1.105204209531251 1.666112219814452 0.8046486665441992  -0.6063260378053834 0.7898153998034148 1.360921506343469  -0.3653837498630332 0.9291273338257455 1.55456478137134  -0.3228874270112512 1.296959932787666 1.282266916427373  -0.7055764457917805 1.317597013421202 1.301115225193525  -0.7776421256809075 0.6211592152416074 1.155195246109528  -1.102503165573828 0.9305784620941925 1.310385370874145  -0.8162735538549999 1.820548872790972 0.395726449599914  -0.9113628164237078 1.769722603038649 0.9921260307281596  -0.6162581739138656 0.78166430635156 0.4191414197236378  -0.5487309629084373 1.168830080656482 0.2795309104015246  </DataArray>
</Points>
<Cells>
<DataArray  type="UInt32"  Name="connectivity"  format="ascii">0 1 2 3  4 5 6 7  0 4 8 9  4 5 10 11  1 7 12 13  4 10 14 11  9 15 13 16  4 9 15 13  0 4 10 14  4 6 7 13  8 17 14 11  0 13 16 18  0 3 13 18  4 8 14 11  19 20 21 22  4 17 11 23  4 24 8 9  1 2 3 25  5 7 21 22  3 13 26 18  0 4 9 13  0 9 13 16  4 15 22 13  5 19 20 21  0 4 8 14  1 3 12 25  4 5 19 22  4 8 17 11  0 4 6 10  0 1 6 13  0 4 6 13  4 5 6 10  4 5 19 11  0 8 27 14  0 10 27 14  5 19 21 22  4 8 17 23  4 24 8 23  4 19 11 23  1 6 7 13  0 1 3 13  1 3 12 13  4 5 22 13  4 5 7 13  5 7 22 13  7 21 22 13  0 2 3 18  0 6 10 27  0 1 6 28  0 6 27 28  15 13 26 18  15 13 16 18  </DataArray>
<DataArray  type="UInt32"  Name="offsets"  format="ascii">4 8 12 16 20 24 28 32 36 40 44 48 52 56 60 64 68 72 76 80 84 88 92 96 100 104 108 112 116 120 124 128 132 136 140 144 148 152 156 160 164 168 172 176 180 184 188 192 196 200 204 208 </DataArray>
<DataArray  type="UInt8"  Name="types"  format="ascii">10 10 10 10 10 10 10 10 10 10 10 10 10 10 10 10 10 10 10 10 10 10 10 10 10 10 10 10 10 10 10 10 10 10 10 10 10 10 10 10 10 10 10 10 10 10 10 10 10 10 10 10 </DataArray>
</Cells>
<CellData  Scalars="f">
<DataArray  type="Float64"  Name="f"  format="ascii">2 2 2 2 2 2 3 2 2 2 2 2 2 2 2 2 2 2 2 3 2 2 2 2 2 2 2 2 2 2 2 2 2 2 2 2 2 2 2 2 2 2 2 2 2 2 2 2 2 2 3 3 </DataArray>
</CellData>
</Piece>
</UnstructuredGrid>
</VTKFile>