<?xml version="1.0"?>
<VTKFile type="UnstructuredGrid"  version="0.1"  >
<UnstructuredGrid>
<Piece  NumberOfPoints="28" NumberOfCells="55">
<Points>
<DataArray  type="Float64"  NumberOfComponents="3"  format="ascii">0.6767994715531577 0.7319793474097477 3  1.027959644058885 0.7192570667302717 2.691725847794147  0.8850474053629072 1.047062943728529 2.678047646755426  1.01830748860629 0.8009307475729233 3  1.368678078507036 0.6021012272576759 3  1.370337434648327 0.8804048728148564 3  0.78166430635156 0.6162581739138655 2.517007383206871  0.9353432843813162 0.3448925070327119 2.607724074330001  0.9303745232894607 0.361272317198322 2.264032526654605  1.104073015177871 0.6919044888178379 2.199827174464386  1.117210130711165 0.9976546370238477 3  1.461407354084697 0.3188625083491338 2.451301070500147  1.270170102859987 0.2094753273902723 2.691490875233663  1.3230625116969 1.011817659597906 2.172887002434679  1.265521896995151 0.7947982424302589 2.492591687190762  1.53094551303761 0.6457947355135885 2.241040458674436  1.494203005205635 0.7405095677646405 2.726263718587226  1.300244485950819 1.049871952119805 2.714136197892474  0.937047807243359 1.139143600548469 2.292287176494212  1.272051169397702 0.3887084163519063 2.15271658934227  0.9961291647000609 0.03930125034265278 2.366149253747398  1.212781482319629 0.4518885862551065 3  0.8684335803860413 0.4864155127577983 3  0.9523811489366802 0.9280136144060591 1.991006714703743  0.6188712620331606 0.7795198003534882 2.306042624597293  0.78166430635156 0.6162581739138655 2.087158698843136  0.9961291647000609 0.03930125034265268 2.644899764220374  0.9807852804032301 0.1950903220161294 3  </DataArray>
</Points>
<Cells>
<DataArray  type="UInt32"  Name="connectivity"  format="ascii">0 1 2 3  1 3 4 5  6 7 8 9  1 2 3 10  7 8 11 12  9 13 14 15  1 5 16 17  1 3 5 10  7 11 12 14  18 9 13 14  1 16 17 14  1 16 12 14  11 19 14 15  18 1 2 6  1 2 17 10  18 1 2 14  18 2 17 14  7 8 20 12  1 5 17 10  1 2 17 14  1 3 21 22  0 1 3 22  0 2 3 10  9 23 24 25  1 4 5 16  1 7 12 14  7 11 19 14  7 8 11 19  0 1 6 22  0 1 2 6  6 8 9 25  18 9 23 24  7 8 9 19  6 9 24 25  1 7 21 12  1 7 21 22  18 9 13 23  18 13 17 14  7 20 26 12  8 11 20 12  7 26 12 27  7 12 27 22  21 12 27 22  7 21 12 22  1 6 7 22  1 3 4 21  1 4 16 21  1 16 21 12  18 6 9 24  7 9 19 14  9 19 14 15  1 7 9 14  18 1 9 14  18 1 6 9  1 6 7 9  </DataArray>
<DataArray  type="UInt32"  Name="offsets"  format="ascii">4 8 12 16 20 24 28 32 36 40 44 48 52 56 60 64 68 72 76 80 84 88 92 96 100 104 108 112 116 120 124 128 132 136 140 144 148 152 156 160 164 168 172 176 180 184 188 192 196 200 204 208 212 216 220 </DataArray>
<DataArray  type="UInt8"  Name="types"  format="ascii">10 10 10 10 10 10 10 10 10 10 10 10 10 10 10 10 10 10 10 10 10 10 10 10 10 10 10 10 10 10 10 10 10 10 10 10 10 10 10 10 10 10 10 10 10 10 10 10 10 10 10 10 10 10 10 </DataArray>
</Cells>
<CellData  Scalars="f">
<DataArray  type="Float64"  Name="f"  format="ascii">2 2 2 2 2 2 2 2 2 2 2 2 2 2 2 2 2 2 2 2 2 2 2 2 2 2 2 2 2 2 2 2 2 2 2 2 2 2 2 2 2 2 2 2 2 2 2 2 2 2 2 2 2 2 2 </DataArray>
</CellData>
</Piece>
</UnstructuredGrid>
</VTKFile>