<?xml version="1.0"?>
<VTKFile type="UnstructuredGrid"  version="0.1"  >
<UnstructuredGrid>
<Piece  NumberOfPoints="25" NumberOfCells="54">
<Points>
<DataArray  type="Float64"  NumberOfComponents="3"  format="ascii">0.534251333889346 -1.150859463366025 2.723599234707922  0.7268010615927014 -1.314753802040943 2.576584690100681  0.5974423874163273 -1.222689372975486 3  0.7189424133110188 -1.466689219514399 3  0.8521765914922285 -1.228573143317182 3  1.021224317089319 -0.8321952982497536 2.744115519016117  0.7999369507764019 -1.017034017230526 3  1.125838279973159 -1.176786078093569 3  0.4450859446221999 -1.944915219960037 3  0.4486295320384649 -1.429519901558441 3  0.7241485718496734 -1.567990346274152 2.724706122010492  0.7379142144352133 -1.856086735445784 3  0.8752002485092785 -1.789051898293488 2.604743949534532  1.009938436387786 -1.717032836434596 3  0.9688159024938894 -1.381403408380291 2.757528773395823  1.258981000836228 -1.541609633272407 3  0.5915000795287066 -1.90050097770291 2.487433307252731  0.2946705332933404 -1.970977485647935 2.604543857138447  0.4307402755318971 -1.596714692926355 2.540288253336501  1.377007681604169 -1.444747639614252 2.604296761945696  1.480944837606072 -1.332901268234731 3  1.140923172883932 -1.638497188764155 2.487169426358633  0.8752002485092774 -1.789051898293489 2.140550538656832  0.7251335680040807 -1.584997682751503 2.368746179622643  1.036045472981225 -1.131598142160147 2.305939992440852  </DataArray>
</Points>
<Cells>
<DataArray  type="UInt32"  Name="connectivity"  format="ascii">0 1 2 3  1 2 3 4  5 4 6 7  8 9 10 11  10 11 12 13  0 2 3 10  4 7 14 15  10 11 12 16  3 4 13 14  3 10 11 13  5 4 6 14  17 8 18 16  19 14 15 20  2 3 9 10  21 22 23 12  3 9 10 11  1 3 4 14  3 10 13 14  8 18 11 16  23 10 12 16  1 24 21 23  7 14 15 20  0 2 9 10  0 1 2 4  0 1 3 10  19 21 14 15  21 13 14 15  4 13 14 15  5 4 7 14  1 3 10 14  21 23 10 12  1 4 6 14  8 18 9 10  1 24 5 14  1 5 6 14  1 24 21 14  21 10 12 14  21 12 13 14  10 12 13 14  24 19 21 14  19 7 14 20  8 18 10 11  0 1 4 6  0 1 5 6  0 2 4 6  0 1 18 10  18 10 11 16  0 18 9 10  22 23 12 16  23 18 10 16  1 23 18 10  1 23 10 14  21 23 10 14  1 21 23 14  </DataArray>
<DataArray  type="UInt32"  Name="offsets"  format="ascii">4 8 12 16 20 24 28 32 36 40 44 48 52 56 60 64 68 72 76 80 84 88 92 96 100 104 108 112 116 120 124 128 132 136 140 144 148 152 156 160 164 168 172 176 180 184 188 192 196 200 204 208 212 216 </DataArray>
<DataArray  type="UInt8"  Name="types"  format="ascii">10 10 10 10 10 10 10 10 10 10 10 10 10 10 10 10 10 10 10 10 10 10 10 10 10 10 10 10 10 10 10 10 10 10 10 10 10 10 10 10 10 10 10 10 10 10 10 10 10 10 10 10 10 10 </DataArray>
</Cells>
<CellData  Scalars="f">
<DataArray  type="Float64"  Name="f"  format="ascii">2 2 2 2 3 2 2 3 2 3 2 3 3 2 3 2 2 3 3 3 2 3 2 2 2 3 3 2 2 2 3 2 2 2 2 2 3 3 3 2 3 3 2 2 2 2 3 2 3 3 2 2 3 2 </DataArray>
</CellData>
</Piece>
</UnstructuredGrid>
</VTKFile>