<?xml version="1.0"?>
<VTKFile type="UnstructuredGrid"  version="0.1"  >
<UnstructuredGrid>
<Piece  NumberOfPoints="28" NumberOfCells="58">
<Points>
<DataArray  type="Float64"  NumberOfComponents="3"  format="ascii">-1.51628174194805 0.2500805710234424 2.548357219803956  -1.985856966579941 0.1435966281114978 2.320606943969726  -1.718207515630612 0.1656325407329907 2.730245358308145  -1.979306087000891 0.2101088246663099 2.626138783003607  -1.706347537702445 -0.04209313724448424 2.277841693175232  -1.993403226347628 -0.06697816690098257 2.551729856391235  -1.482021479503497 -0.2124598886321394 2.465159781195152  -1.963461059963792 -0.3709860839702404 2.619478339133881  -1.26350801991714 -0.4011185096612048 2.684939077533538  -1.624663411647594 -0.483272928112338 2.303499260371789  -1.201893715091328 -0.3615169074776507 2.325028010528075  -1.638966401215254 0.4151887879065263 2.165380235642512  -1.909045548548626 0.5633324043654051 2.412625223397536  -1.979306087000891 0.2101088246663102 2.015075104935846  -1.559711166137235 -0.3106849806081239 2.010557024887333  -1.681438847184343 0.02209342104386963 1.848541819215936  -1.969972668408264 -0.3048726139361433 1.778179663051902  -1.989133536154875 -0.1103290589303489 2.105183028359814  -1.963461059963792 -0.3709860839702401 2.310841223256423  -1.991564269445321 0.08564940966561729 3  -1.418270870718573 0.08770913575380102 2.157018349698728  -1.629173242682837 -0.4396626659265072 2.682257104076729  -1.409469123291521 -0.5063568954541185 3  -1.922708098831475 -0.5182930120754501 3  -1.59992985704397 -0.3033165346793004 3  -1.492037750164329 -0.04537433406292787 3  -1.362724606337284 -0.2509991221001741 3  -1.97844202191582 -0.2188818247010222 3  </DataArray>
</Points>
<Cells>
<DataArray  type="UInt32"  Name="connectivity"  format="ascii">0 1 2 3  1 3 4 5  4 5 6 7  8 9 10 6  11 1 12 13  9 4 14 6  14 15 16 17  4 14 18 17  2 3 5 19  0 1 2 4  9 4 14 18  0 4 6 20  11 0 1 4  0 2 4 6  1 2 3 4  14 16 18 17  2 3 4 5  9 4 6 18  15 13 16 17  2 4 5 6  11 4 15 13  2 21 5 6  4 6 7 18  9 10 14 6  21 22 23 24  21 25 26 24  21 8 6 26  21 23 24 27  21 5 7 27  21 7 23 27  21 22 26 24  21 8 22 26  10 14 6 20  21 5 6 7  21 6 25 26  2 25 24 27  4 5 7 18  21 9 6 7  21 8 9 6  9 6 7 18  2 21 5 27  2 25 19 27  2 5 19 27  2 21 24 27  2 21 6 25  2 21 25 24  0 1 3 12  11 0 1 12  11 1 4 13  4 15 13 17  4 14 15 17  4 14 15 20  11 0 4 20  11 4 15 20  4 14 6 20  1 4 5 17  4 5 18 17  1 4 13 17  </DataArray>
<DataArray  type="UInt32"  Name="offsets"  format="ascii">4 8 12 16 20 24 28 32 36 40 44 48 52 56 60 64 68 72 76 80 84 88 92 96 100 104 108 112 116 120 124 128 132 136 140 144 148 152 156 160 164 168 172 176 180 184 188 192 196 200 204 208 212 216 220 224 228 232 </DataArray>
<DataArray  type="UInt8"  Name="types"  format="ascii">10 10 10 10 10 10 10 10 10 10 10 10 10 10 10 10 10 10 10 10 10 10 10 10 10 10 10 10 10 10 10 10 10 10 10 10 10 10 10 10 10 10 10 10 10 10 10 10 10 10 10 10 10 10 10 10 10 10 </DataArray>
</Cells>
<CellData  Scalars="f">
<DataArray  type="Float64"  Name="f"  format="ascii">2 3 2 2 3 2 3 3 3 2 3 2 2 2 3 3 3 2 3 2 3 2 2 2 2 2 2 3 3 3 2 2 2 2 2 2 3 2 2 2 3 2 3 3 2 2 2 2 3 3 3 2 2 2 2 3 3 3 </DataArray>
</CellData>
</Piece>
</UnstructuredGrid>
</VTKFile>