<?xml version="1.0"?>
<VTKFile type="UnstructuredGrid"  version="0.1"  >
<UnstructuredGrid>
<Piece  NumberOfPoints="27" NumberOfCells="55">
<Points>
<DataArray  type="Float64"  NumberOfComponents="3"  format="ascii">0.2501934646059933 -1.24885304619393 0.6598587190296312  0.3448925070327128 -0.9353432843813161 0.463504082372962  0.5856823205122168 -1.158674077188969 0.5859765723483118  0.5475044054800325 -0.8357808869431038 0.7168899887310269  0.7127687774886917 -1.403756765098879 0.3700150094896146  0.9344489280029292 -1.205747589929833 0.6700235462414565  0.7158379904083254 -1.114471144088359 0.2436894953043403  0.9509039190911233 -1.748587443335142 0.3176862182917376  1.207410232084788 -1.583932669413443 0.4030665077673261  0.9509039190911233 -1.748587443335142 0.5444774374960997  0.3055479189482405 -1.298395155588183 0.3322665218640753  0.4864155127577986 -0.8684335803860411 0  0.9829058205933265 -0.9520320181590249 0.2877579712611045  0.6162581739138656 -0.78166430635156 0.388998261253502  0.7319793474097475 -0.676799471553158 0  0.8997596842625536 -1.194733006349771 0  0.5008599238356093 -1.41435896777325 0.8102226109784102  0.4355591104185333 -1.608215376055195 0.5028826748439459  1.117341003440476 -1.266002944659981 0.3130695116008358  0.5092733774920255 -1.397980984656434 0  0.1950903220161306 -0.9807852804032298 0  1.085839958626353 -1.676462627562465 0  0.5798054975135298 -1.603082966240016 0.2217289724962523  0.8159678795558938 -1.820712259107818 0  0.3077697302541748 -0.9466043556033813 0.9610693252871769  0.6880433675056885 -1.121966191992488 0.9284130437667307  0.6735271539842731 -1.875618336700802 0.3797361240487547  </DataArray>
</Points>
<Cells>
<DataArray  type="UInt32"  Name="connectivity"  format="ascii">0 1 2 3  2 4 5 6  4 7 8 9  1 6 10 11  2 5 6 12  1 2 6 13  6 14 15 12  16 4 9 17  2 4 10 17  6 15 18 12  5 6 18 12  1 2 6 10  6 14 15 11  19 10 11 20  4 15 18 21  2 4 6 10  4 19 22 23  4 10 17 22  1 10 11 20  6 19 15 11  4 5 8 9  4 5 8 18  4 7 21 23  0 24 2 3  6 14 12 13  16 0 24 25  4 15 21 23  4 19 15 23  4 7 22 23  4 7 9 26  16 2 4 17  1 2 3 13  4 6 19 15  6 19 10 11  16 2 4 5  6 14 11 13  4 6 15 18  16 0 2 25  1 6 11 13  4 17 22 26  4 7 22 26  7 22 26 23  4 19 10 22  4 9 17 26  4 7 18 21  7 8 18 21  4 7 8 18  4 5 6 18  0 24 2 25  0 24 1 3  4 6 19 10  2 6 12 13  0 1 2 10  0 2 10 17  16 0 2 17  </DataArray>
<DataArray  type="UInt32"  Name="offsets"  format="ascii">4 8 12 16 20 24 28 32 36 40 44 48 52 56 60 64 68 72 76 80 84 88 92 96 100 104 108 112 116 120 124 128 132 136 140 144 148 152 156 160 164 168 172 176 180 184 188 192 196 200 204 208 212 216 220 </DataArray>
<DataArray  type="UInt8"  Name="types"  format="ascii">10 10 10 10 10 10 10 10 10 10 10 10 10 10 10 10 10 10 10 10 10 10 10 10 10 10 10 10 10 10 10 10 10 10 10 10 10 10 10 10 10 10 10 10 10 10 10 10 10 10 10 10 10 10 10 </DataArray>
</Cells>
<CellData  Scalars="f">
<DataArray  type="Float64"  Name="f"  format="ascii">2 2 2 2 2 2 2 2 2 2 2 2 2 2 2 2 2 2 2 2 2 2 2 2 2 2 2 2 2 2 2 2 2 2 2 2 2 2 2 2 2 3 2 2 2 3 2 2 2 2 2 2 2 2 2 </DataArray>
</CellData>
</Piece>
</UnstructuredGrid>
</VTKFile>