<?xml version="1.0"?>
<VTKFile type="UnstructuredGrid"  version="0.1"  >
<UnstructuredGrid>
<Piece  NumberOfPoints="32" NumberOfCells="55">
<Points>
<DataArray  type="Float64"  NumberOfComponents="3"  format="ascii">1.494203005205635 0.7405095677646405 2.726263718587226  1.825070198773849 0.8078147478942337 2.521964489803257  1.681101295712113 1.077161620912404 2.611568727645668  1.753095244320932 0.9424704166201746 3  1.300244485950819 1.049871952119805 2.714136197892474  1.590141469805477 1.199844786917422 3  1.3230625116969 1.011817659597906 2.172887002434679  1.681101295712113 1.077161620912404 1.812157250467173  1.707767068799412 1.027273468367432 2.239090906721865  1.836814217677966 0.7858432338990634 2.034254300491162  1.493220117564737 1.317943796327518 2.635091161824943  1.368678078507036 0.6021012272576759 3  1.212781482319629 0.4518885862551065 3  1.528556046906038 0.2903348856475536 3  1.270170102859987 0.2094753273902723 2.691490875233663  1.670567549696843 0.2856369856662641 2.703176839502749  1.878293856574346 0.6647071469819641 3  1.978442021915819 0.2188818247010295 2.608043335220048  1.993438876235249 0.06661620751770959 3  1.963445167596389 0.3711474418843493 3  1.493220117564737 1.317943796327518 2.345955234064158  1.340566720707703 0.1314059989472456 3  0.9807852804032301 0.1950903220161294 3  0.9884711682419383 -0.1170541932096764 3  1.922661372009443 0.5184470497641958 2.229265343267069  1.497058853128168 -0.05861660571545971 3  1.265521896995151 0.7947982424302589 2.492591687190762  1.53094551303761 0.6457947355135885 2.241040458674436  1.370337434648327 0.8804048728148564 3  1.461407354084697 0.3188625083491338 2.451301070500147  1.117210130711165 0.9976546370238477 3  0.9961291647000609 0.03930125034265268 2.644899764220374  </DataArray>
</Points>
<Cells>
<DataArray  type="UInt32"  Name="connectivity"  format="ascii">0 1 2 3  2 3 4 5  6 7 8 9  2 4 5 10  11 12 13 14  1 15 16 17  15 18 17 19  6 2 4 20  14 21 22 23  11 0 15 13  11 0 15 14  11 0 13 16  24 1 15 17  25 15 18 13  0 15 13 16  0 1 26 27  1 2 8 26  11 28 0 3  0 29 15 14  28 0 3 5  24 1 29 27  2 4 10 20  6 8 9 27  6 7 8 20  0 1 29 15  15 18 13 19  6 2 8 20  0 1 3 16  11 0 3 16  0 1 29 27  15 16 17 19  25 15 13 21  1 8 9 27  0 2 3 4  28 4 5 30  0 3 4 5  15 13 14 21  12 13 14 21  11 15 13 14  15 13 16 19  24 1 29 15  24 1 9 27  31 14 22 23  0 29 14 26  1 8 26 27  0 29 26 27  0 2 4 26  0 1 2 26  28 0 4 5  0 1 15 16  6 8 26 27  6 2 8 26  6 2 4 26  11 0 12 14  12 14 21 22  </DataArray>
<DataArray  type="UInt32"  Name="offsets"  format="ascii">4 8 12 16 20 24 28 32 36 40 44 48 52 56 60 64 68 72 76 80 84 88 92 96 100 104 108 112 116 120 124 128 132 136 140 144 148 152 156 160 164 168 172 176 180 184 188 192 196 200 204 208 212 216 220 </DataArray>
<DataArray  type="UInt8"  Name="types"  format="ascii">10 10 10 10 10 10 10 10 10 10 10 10 10 10 10 10 10 10 10 10 10 10 10 10 10 10 10 10 10 10 10 10 10 10 10 10 10 10 10 10 10 10 10 10 10 10 10 10 10 10 10 10 10 10 10 </DataArray>
</Cells>
<CellData  Scalars="f">
<DataArray  type="Float64"  Name="f"  format="ascii">3 3 3 3 2 3 3 3 2 2 2 2 3 2 2 2 2 2 2 3 2 3 3 3 2 2 3 3 2 2 3 2 3 3 2 3 2 2 2 2 2 3 2 2 2 2 2 2 3 3 2 2 2 2 2 </DataArray>
</CellData>
</Piece>
</UnstructuredGrid>
</VTKFile>