<?xml version="1.0"?>
<VTKFile type="UnstructuredGrid"  version="0.1"  >
<UnstructuredGrid>
<Piece  NumberOfPoints="27" NumberOfCells="54">
<Points>
<DataArray  type="Float64"  NumberOfComponents="3"  format="ascii">-1.004848079183114 -1.384524186235258 0.7958511776485666  -0.7983372904891837 -1.489459449269377 0.3162784420933646  -1.085640909602976 -1.676569021482061 0.5448054119396718  -0.9076481032910477 -1.213750681777729 0.4883010224057977  -0.7816643063515567 -0.6162581739138697 0.6026581783062313  -1.16338190992118 -0.9589332540313191 0.8328925187681296  -0.7884716442301241 -1.095831524663976 0.8509538879258189  -0.718776826249423 -1.07158912740432 1.415368659861116  -0.9588110646998161 -1.223096706791814 1.189203961289622  -0.5136178706685083 -1.36028340084241 1.336078858819277  -0.853420495280782 -1.453890156540273 1.485574797935731  -0.477034786316047 -1.434737795423532 0.6100050385611827  -0.4164114630926857 -1.270321899080475 0.9379339257406052  -0.6953786612592505 -1.471852142185765 0.9705856189616491  -1.057867501756464 -1.691414217259324 0.9861298491175763  -0.8420473046177399 -1.806772515993067 1.222217715227834  -0.555570233019598 -0.8314696123025476 0.3889995797975083  -0.527526366117657 -1.919907191504199 0.9011207031391884  -0.8348570228180959 -1.810615801685602 0.7587959896549328  -1.32529567496066 -1.487186586697769 0.9371745409670237  -0.6571924400077004 -1.132942709121853 0.2777506580342663  -0.4815816036293408 -0.871017358645376 0.728879522819906  -0.5275263661176575 -1.919907191504199 0.3786589058290399  -0.8162735538549937 -1.820548872790978 0.4035368542558668  -0.5555702330195977 -0.8314696123025477 1.068759465842304  -1.20265655390644 -1.587833912272838 1.403902710452611  -0.31496024115303 -0.944423137968771 0.9927145489753666  </DataArray>
</Points>
<Cells>
<DataArray  type="UInt32"  Name="connectivity"  format="ascii">0 1 2 3  4 5 6 3  7 8 9 10  6 11 12 13  8 13 14 15  4 6 3 16  11 13 17 18  5 19 0 8  20 3 21 16  11 22 17 18  11 1 18 23  19 0 2 14  6 7 12 24  19 8 14 25  11 22 18 23  4 6 21 16  6 12 26 24  6 12 21 26  4 6 21 24  1 2 18 23  11 22 1 23  13 15 17 18  13 14 15 18  6 11 12 21  20 11 1 3  6 20 11 3  6 20 11 21  6 20 3 21  6 3 21 16  6 21 26 24  6 7 9 12  8 10 14 25  10 14 15 25  8 10 14 15  8 10 13 15  8 9 10 13  9 10 13 15  19 0 8 14  5 6 0 3  11 0 1 3  6 11 0 3  11 0 1 18  0 1 2 18  0 2 14 18  0 13 14 18  0 8 13 14  6 0 8 13  5 6 0 8  6 11 0 13  11 0 13 18  6 7 8 9  6 8 9 12  8 9 12 13  6 8 12 13  </DataArray>
<DataArray  type="UInt32"  Name="offsets"  format="ascii">4 8 12 16 20 24 28 32 36 40 44 48 52 56 60 64 68 72 76 80 84 88 92 96 100 104 108 112 116 120 124 128 132 136 140 144 148 152 156 160 164 168 172 176 180 184 188 192 196 200 204 208 212 216 </DataArray>
<DataArray  type="UInt8"  Name="types"  format="ascii">10 10 10 10 10 10 10 10 10 10 10 10 10 10 10 10 10 10 10 10 10 10 10 10 10 10 10 10 10 10 10 10 10 10 10 10 10 10 10 10 10 10 10 10 10 10 10 10 10 10 10 10 10 10 </DataArray>
</Cells>
<CellData  Scalars="f">
<DataArray  type="Float64"  Name="f"  format="ascii">2 2 2 2 2 2 2 2 2 2 2 3 2 2 2 2 2 2 2 3 2 3 3 2 2 2 2 2 2 2 2 2 3 2 2 2 2 2 2 2 2 2 3 3 3 2 2 2 2 2 2 2 2 2 </DataArray>
</CellData>
</Piece>
</UnstructuredGrid>
</VTKFile>