<?xml version="1.0"?>
<VTKFile type="UnstructuredGrid"  version="0.1"  >
<UnstructuredGrid>
<Piece  NumberOfPoints="735" NumberOfCells="6584">
<Points>
<DataArray  type="Float64"  NumberOfComponents="3"  format="ascii">11.46892205299309 4.301208142175684 3.08090688625695  11.37000375638554 4.349523708371754 2.983870844722425  11.36544525144734 4.276637964502956 3.107919623244493  11.35916717826773 4.345166885842662 3.147169417192552  11.36388640887053 4.420220700677074 3.019984424943979  11.46368309913316 4.373013678076815 3.121031471721833  11.35294932879273 4.413469712417222 3.185795245846503  11.35782236698266 4.490544359314971 3.05549532962943  11.45852764669901 4.444339118412499 3.160758522521514  11.34695138583056 4.481364189373251 3.224072172692272  11.35192759058436 4.560367163777624 3.090622813720131  11.45353739719314 4.515106408974897 3.20021568868128  11.34117736896864 4.548844577288458 3.262130697974525  11.3462512420716 4.629696071912051 3.125479072141496  11.44877266035393 4.585365490979004 3.239381133456053  11.33559679110555 4.615938557273944 3.300059196556118  11.34083338149776 4.698539108146708 3.160176042499225  11.44410902371752 4.655153510092348 3.278344168140169  11.33017397634872 4.682652950401079 3.338028920928359  11.33565238584362 4.766849055472982 3.1949258118366  11.43969428562951 4.724624515235171 3.317067988587807  11.24835274496754 4.284323615349476 3.075525542826874  11.23931763410547 4.350151996269473 3.112105454596856  11.23033097601114 4.415811504195858 3.14792540582076  11.22153749144908 4.481193771934572 3.183374318882702  11.21296747614926 4.546216097133716 3.218621554453655  11.204646607344 4.610831315547778 3.25377488178647  11.19643309609351 4.674854146219026 3.289053519689376  11.473496490558 4.581684720815278 2.315043272271982  11.35554628614476 4.58654788798983 2.215560398399691  11.36555238540025 4.56791765630912 2.33217772882838  11.35615872661984 4.649431968757528 2.348354299812817  11.3430596503358 4.669471787712348 2.225732732262429  11.46659868728702 4.667314800053976 2.332348832621216  11.34691948495627 4.729939128095088 2.364091208773528  11.33083581688136 4.751305043735932 2.23557969587024  11.45969962149561 4.751811230147148 2.349093211593317  11.33776379564969 4.809462576476921 2.379664246669696  11.31875049369038 4.832136866080386 2.245441190285718  11.45283223136449 4.835189185827645 2.365554459861302  11.32872429589053 4.888117015210193 2.395325543788882  11.30667575449059 4.912058001792687 2.255390744841099  11.4460504455599 4.917586214570012 2.382058262061889  11.31978315721761 4.965953118223792 2.411194268615275  11.29456686837016 4.991074653230447 2.265561890106608  11.43934910761499 4.999089094091869 2.398831054770207  11.31093164595502 5.042998526396492 2.427361182154339  11.28226409007896 5.069107027091889 2.275981777157865  11.432779315765 5.079653750359737 2.416087783771276  11.583127595826 4.564379653785263 2.423936944602224  11.47287405819688 4.552298927294934 2.438252931380431  11.46651260015506 4.635751569746486 2.459605898802031  11.5798000227872 4.652217736202044 2.445342767374893  11.57648519541845 4.738780393754055 2.465881423057652  11.46024284906003 4.718064403953225 2.480280368696557  11.57324398980878 4.82414957158118 2.485921139238816  11.45402260218647 4.799374342707119 2.500618874977806  11.57005880301751 4.908432137716533 2.505705708646018  11.44797563090014 4.879716146872711 2.520931069091097  11.56710705963185 4.991742781841353 2.525642078318135  11.44217361532618 4.959136806384246 2.541411868937148  11.56460483273419 5.074157827467747 2.546367968375398  11.43684410629371 5.037596914555502 2.562228957715805  11.25512887427081 4.343106572730402 2.968896499964971  11.24594536812884 4.411174683712209 3.001966253957212  11.23686027349959 4.478936089936285 3.034354282454161  11.227956767562 4.546306515221777 3.066301389173856  11.21929919456702 4.613255453618698 3.097973009636064  11.21090791027077 4.679728584826071 3.129543555856404  11.20272702117186 4.745612351625113 3.161320224263769  11.25048232512473 4.535796005144136 2.418786841237186  11.36032726904454 4.539210534662788 2.451156472393731  11.35308627292822 4.618820119133236 2.47097433124847  11.24065544109571 4.612565648408374 2.434515150752578  11.34590734939797 4.697473711694186 2.49030660649006  11.23094753372101 4.688520242715834 2.449923678588157  11.33876777871529 4.775235548110888 2.509309523414859  11.2213251783836 4.763676382215565 2.465135926339813  11.3317872708776 4.852175827961648 2.528291402287461  11.21178779320705 4.8380924087799 2.480295298985386  11.32498009390673 4.928344747001146 2.547407344534593  11.20236242103367 4.91177783576865 2.495523290142905  11.31846486682536 5.003800601898252 2.56685057813617  11.19306546461383 4.984637556681944 2.510925967510596  11.25989078458027 4.554248799957771 2.313802626970773  11.24818627591431 4.632789848616056 2.326186046831515  11.23678705803645 4.710281370610996 2.338256238297869  11.22551389452925 4.786860815438119 2.35020604642839  11.21431212845542 4.86263563559114 2.36215701265957  11.20315450967419 4.937648833270286 2.374242603332191  11.19201735136078 5.01192643244691 2.386523112852701  11.25120953113767 4.505356518473242 2.544728683613021  11.24272967599992 4.580253040454946 2.565003741731046  11.23432076781012 4.654429035345988 2.584904948504595  11.22597467876565 4.727865634113231 2.604522296512326  11.21773378370582 4.80062025590254 2.624027701866946  11.20964538347828 4.872704864278482 2.64355259178831  11.2017987727116 4.944126904798312 2.663277501793666  11.69600000000124 4.56459585412681 2.428529697915029  11.58333519910426 4.528328181270675 2.543021824061928  11.5806933408564 4.613787888143493 2.568591036036697  11.69600000000123 4.655625867392683 2.4523941394146  11.57812394195407 4.698066523808762 2.593380144302043  11.69600000000123 4.74533248291342 2.475000593585525  11.57571374984758 4.781174611291013 2.617670929991024  11.69600000000122 4.833755619714989 2.496925552981637  11.57362685749079 4.863224547559952 2.641717889216144  11.69600000000121 4.920960427272314 2.518518404777397  11.57182130873867 4.944296068349042 2.665886300535342  11.6960000000012 5.006956339375903 2.540381302521614  11.57036695979233 5.024775665471997 2.690507997312218  11.6960000000012 5.092048860124267 2.563531174629484  11.14486661161274 4.328910184804967 2.962724839006761  11.12916727322986 4.268203181018648 3.068848539405006  11.11719779347042 4.330814119027186 3.103461462344454  11.13388324762519 4.393499704926859 2.995146651330593  11.10532442116261 4.393274116672766 3.137311453914725  11.12298830373007 4.457764408923333 3.026827297067253  11.09364301932487 4.455522748772697 3.170782934022009  11.11223874718365 4.521725714227555 3.05811555137517  11.08217407345345 4.517486690919547 3.204049098764043  11.10167941080807 4.585319441172738 3.089178506320033  11.07089265224134 4.57909861406251 3.237272480519174  11.09134854257351 4.648482376472756 3.120178904267783  11.05966140965934 4.640206487313538 3.270765192062108  11.08119373996739 4.711057252203371 3.151412720359668  11.6960000000009 4.410101460490633 2.872922651689246  11.58410466219383 4.453897222140741 2.765877069424879  11.58112192766233 4.406319184431201 2.878742172810419  11.57963972447213 4.485579305390669 2.913866204180078  11.58273717956892 4.535535596516289 2.797014446561447  11.6960000000009 4.493314026152431 2.908760101754984  11.57803561141597 4.564001298594833 2.948909444247846  11.58118278371759 4.616373644762806 2.827814578464232  11.6960000000009 4.575285696422172 2.944873035051698  11.57658601136019 4.641545633915706 2.98372990964197  11.57989418899154 4.696349388028111 2.858126261640756  11.6960000000009 4.656282058051765 2.980740608365044  11.57534923016679 4.718306256655557 3.018333502116989  11.57900235847329 4.775532078270702 2.888063414824368  11.69600000000117 4.736650665091468 3.016136661644445  11.57429338575892 4.794373676236018 3.05280004565037  11.57824100500957 4.85399343035171 2.917943773496897  11.69600000000117 4.816337691506861 3.051462530088933  11.57353303649209 4.870036258040972 3.087054861308359  11.57756384996271 4.932081444097992 2.947728215142465  11.69600000000118 4.895844964373726 3.086546701140703  11.46521325673613 4.485571338891823 2.663534369583286  11.47408361652925 4.448009147625044 2.771454719028307  11.47083279683955 4.52609968625952 2.801671842785472  11.46112118185454 4.565200353632386 2.689866115324738  11.4674913217122 4.6034851197915 2.831366544639169  11.45695805337444 4.644140224029875 2.71571803776297  11.464342595249 4.680126020083367 2.86062265910061  11.45283325206112 4.722243660180356 2.741080116467642  11.46159805886698 4.756036945479408 2.889459178409942  11.44886041898262 4.799543535122387 2.766118534797471  11.45914956795885 4.831184486772321 2.918166071956755  11.44524995544036 4.876126944013462 2.791121462868928  11.4570797549641 4.905741644180542 2.946877511548016  11.44212380196595 4.952009452099114 2.816388700402586  11.69600000000121 4.496567046653045 2.652510623418117  11.58505583382387 4.492498109256601 2.656120078472791  11.58299073092089 4.576046526095133 2.684530789917899  11.6960000000012 4.583623473308594 2.681847260676769  11.58097074782976 4.658556498379911 2.712269504613968  11.69600000000119 4.669436930935492 2.710683390488879  11.57902769703716 4.740006449185582 2.73948427016258  11.69600000000118 4.754058626240611 2.739078663843819  11.57714206820084 4.820516281347333 2.766319970013731  11.69600000000117 4.837448364152338 2.76719719566369  11.57558667681393 4.900213620913343 2.793136740990446  11.69600000000115 4.919688795683758 2.795216102545288  11.57486695849832 4.979411884816358 2.820222673109126  11.69600000000114 5.001639436899016 2.823158225199795  11.69600000000121 4.61125513856389 1.98025168009756  11.69600000000119 4.597439530814992 1.868881846149055  11.58216772302816 4.615013754406168 1.982153459017302  11.57870605180548 4.709576609137192 1.97553205151409  11.69600
[...]
<CellData  Scalars="f">
<DataArray  type="Float64"  Name="f"  format="ascii">1 18446744073709551615 18446744073709551615 1 18446744073709551615 18446744073709551615 1 18446744073709551615 18446744073709551615 18446744073709551615 18446744073709551615 18446744073709551615 18446744073709551615 18446744073709551615 18446744073709551615 18446744073709551615 18446744073709551615 1 18446744073709551615 1 18446744073709551615 18446744073709551615 18446744073709551615 18446744073709551615 18446744073709551615 18446744073709551615 1 18446744073709551615 18446744073709551615 18446744073709551615 18446744073709551615 18446744073709551615 18446744073709551615 18446744073709551615 18446744073709551615 18446744073709551615 1 18446744073709551615 18446744073709551615 18446744073709551615 1 18446744073709551615 18446744073709551615 18446744073709551615 1 18446744073709551615 1 18446744073709551615 18446744073709551615 18446744073709551615 18446744073709551615 18446744073709551615 18446744073709551615 18446744073709551615 18446744073709551615 18446744073709551615 18446744073709551615 18446744073709551615 18446744073709551615 18446744073709551615 18446744073709551615 18446744073709551615 18446744073709551615 18446744073709551615 18446744073709551615 18446744073709551615 18446744073709551615 18446744073709551615 18446744073709551615 18446744073709551615 18446744073709551615 18446744073709551615 18446744073709551615 18446744073709551615 18446744073709551615 18446744073709551615 18446744073709551615 18446744073709551615 18446744073709551615 18446744073709551615 18446744073709551615 18446744073709551615 18446744073709551615 18446744073709551615 18446744073709551615 18446744073709551615 18446744073709551615 18446744073709551615 18446744073709551615 18446744073709551615 18446744073709551615 18446744073709551615 18446744073709551615 18446744073709551615 18446744073709551615 18446744073709551615 18446744073709551615 18446744073709551615 18446744073709551615 18446744073709551615 18446744073709551615 18446744073709551615 18446744073709551615 18446744073709551615 18446744073709551615 18446744073709551615 18446744073709551615 18446744073709551615 18446744073709551615 18446744073709551615 18446744073709551615 18446744073709551615 18446744073709551615 18446744073709551615 18446744073709551615 18446744073709551615 18446744073709551615 18446744073709551615 18446744073709551615 18446744073709551615 18446744073709551615 18446744073709551615 18446744073709551615 18446744073709551615 18446744073709551615 18446744073709551615 18446744073709551615 18446744073709551615 18446744073709551615 18446744073709551615 18446744073709551615 18446744073709551615 18446744073709551615 18446744073709551615 18446744073709551615 18446744073709551615 18446744073709551615 18446744073709551615 18446744073709551615 18446744073709551615 18446744073709551615 18446744073709551615 18446744073709551615 18446744073709551615 18446744073709551615 18446744073709551615 18446744073709551615 18446744073709551615 18446744073709551615 18446744073709551615 18446744073709551615 18446744073709551615 18446744073709551615 18446744073709551615 18446744073709551615 18446744073709551615 18446744073709551615 18446744073709551615 18446744073709551615 18446744073709551615 18446744073709551615 18446744073709551615 18446744073709551615 18446744073709551615 18446744073709551615 18446744073709551615 18446744073709551615 18446744073709551615 18446744073709551615 18446744073709551615 18446744073709551615 18446744073709551615 18446744073709551615 18446744073709551615 18446744073709551615 18446744073709551615 18446744073709551615 18446744073709551615 18446744073709551615 18446744073709551615 18446744073709551615 18446744073709551615 18446744073709551615 18446744073709551615 18446744073709551615 18446744073709551615 18446744073709551615 18446744073709551615 18446744073709551615 18446744073709551615 18446744073709551615 18446744073709551615 18446744073709551615 18446744073709551615 18446744073709551615 18446744073709551615 18446744073709551615 18446744073709551615 18446744073709551615 18446744073709551615 18446744073709551615 18446744073709551615 18446744073709551615 18446744073709551615 18446744073709551615 18446744073709551615 18446744073709551615 18446744073709551615 18446744073709551615 18446744073709551615 18446744073709551615 18446744073709551615 18446744073709551615 18446744073709551615 18446744073709551615 18446744073709551615 18446744073709551615 18446744073709551615 18446744073709551615 18446744073709551615 18446744073709551615 18446744073709551615 18446744073709551615 18446744073709551615 18446744073709551615 18446744073709551615 18446744073709551615 18446744073709551615 18446744073709551615 18446744073709551615 18446744073709551615 18446744073709551615 18446744073709551615 18446744073709551615 18446744073709551615 18446744073709551615 18446744073709551615 18446744073709551615 18446744073709551615 18446744073709551615 18446744073709551615 18446744073709551615 18446744073709551615 18446744073709551615 18446744073709551615 18446744073709551615 18446744073709551615 18446744073709551615 18446744073709551615 18446744073709551615 18446744073709551615 18446744073709551615 18446744073709551615 18446744073709551615 18446744073709551615 18446744073709551615 18446744073709551615 18446744073709551615 18446744073709551615 18446744073709551615 18446744073709551615 18446744073709551615 18446744073709551615 18446744073709551615 18446744073709551615 18446744073709551615 18446744073709551615 18446744073709551615 18446744073709551615 18446744073709551615 18446744073709551615 18446744073709551615 18446744073709551615 18446744073709551615 18446744073709551615 18446744073709551615 18446744073709551615 18446744073709551615 18446744073709551615 18446744073709551615 18446744073709551615 18446744073709551615 18446744073709551615 18446744073709551615 18446744073709551615 18446744073709551615 18446744073709551615 18446744073709551615 18446744073709551615 18446744073709551615 18446744073709551615 18446744073709551615 18446744073709551615 18446744073709551615 18446744073709551615 18446744073709551615 18446744073709551615 18446744073709551615 18446744073709551615 18446744073709551615 18446744073709551615 18446744073709551615 18446744073709551615 18446744073709551615 18446744073709551615 18446744073709551615 18446744073709551615 18446744073709551615 18446744073709551615 18446744073709551615 18446744073709551615 18446744073709551615 18446744073709551615 18446744073709551615 18446744073709551615 18446744073709551615 18446744073709551615 18446744073709551615 18446744073709551615 18446744073709551615 5 18446744073709551615 5 18446744073709551615 5 18446744073709551615 18446744073709551615 5 5 5 5 5 18446744073709551615 18446744073709551615 18446744073709551615 18446744073709551615 1 18446744073709551615 18446744073709551615 1 18446744073709551615 18446744073709551615 18446744073709551615 18446744073709551615 18446744073709551615 18446744073709551615 18446744073709551615 18446744073709551615 18446744073709551615 18446744073709551615 18446744073709551615 18446744073709551615 18446744073709551615 18446744073709551615 18446744073709551615 18446744073709551615 18446744073709551615 18446744073709551615 18446744073709551615 18446744073709551615 18446744073709551615 18446744073709551615 18446744073709551615 18446744073709551615 18446744073709551615 18446744073709551615 18446744073709551615 18446744073709551615 18446744073709551615 18446744073709551615 18446744073709551615 18446744073709551615 18446744073709551615 18446744073709551615 18446744073709551615 18446744073709551615 18446744073709551615 18446744073709551615 18446744073709551615 18446744073709551615 18446744073709551615 18446744073709551615 18446744073709551615 18446744073709551615 18446744073709551615 18446744073709551615 18446744073709551615 18446744073709551615 18446744073709551615 18446744073709551615 18446744073709551615 18446744073709551615 18446744073709551615 18446744073709551615 18446744073709551615 18446744073709551615 18446744073709551615 18446744073709551615 18446744073709551615 18446744073709551615 18446744073709551615 18446744073709551615 18446744073709551615 18446744073709551615 5 5 1 18446744073709551615 18446744073709551615 1 18446744073709551615 18446744073709551615 1 18446744073709551615 18446744073709551615 18446744073709551615 18446744073709551615 18446744073709551615 18446744073709551615 18446744073709551615 18446744073709551615 18446744073709551615 18446744073709551615 18446744073709551615 1 18446744073709551615 18446744073709551615 1 18446744073709551615 18446744073709551615 18446744073709551615 18446744073709551615 1 18446744073709551615 18446744073709551615 18446744073709551615 1 18446744073709551615 18446744073709551615 18446744073709551615 18446744073709551615 18446744073709551615 1 18446744073709551615 18446744073709551615 18446744073709551615 18446744073709551615 18446744073709551615 18446744073709551615 18446744073709551615 18446744073709551615 18446744073709551615 1 18446744073709551615 18446744073709551615 18446744073709551615 1 18446744073709551615 1 18446744073709551615 18446744073709551615 18446744073709551615 18446744073709551615 1 18446744073709551615 18446744073709551615 18446744073709551615 18446744073709551615 18446744073709551615 18446744073709551615 18446744073709551615 18446744073709551615 18446744073709551615 1 18446744073709551615 18446744073709551615 1 18446744073709551615 18446744073709551615 1 18446744073709551615 18446744073709551615 18446744073709551615 18446744073709551615 18446744073709551615 18446744073709551615 18446744073709551615 18446744073709551615 18446744073709551615 18446744073709551615 18446744073709551615 18446744073709551615 18446744073709551615 18446744073709551615 18446744073709551615 18446744073709551615 18446744073709551615 18446744073709551615 18446744073709551615 18446744073709551615 18446744073709551615 18446744073709551615 18446744073709551615 18446744073709551615 18446744073709551615 18446744073709551615 18446744073709551615 18446744073709551615 18446744073709551615 18446744073709551615 18446744073709551615 18446744073709551615 18446744073709551615 18446744073709551615 18446744073709551615 18446744073709551615 18446744073709551615 18446744073709551615 18446744073709551615 18446744073709551615 18446744073709551615 18446744073709551615 18446744073709551615 18446744073709551615 18446744073709551615 18446744073709551615 18446744073709551615 18446744073709551615 18446744073709551615 18446744073709551615 18446744073709551615 18446744073709551615 18446744073709551615 18446744073709551615 18446744073709551615 18446744073709551615 18446744073709551615 18446744073709551615 18446744073709551615 18446744073709551615 18446744073709551615 18446744073709551615 18446744073709551615 18446744073709551615 18446744073709551615 18446744073709551615 18446744073709551615 18446744073709551615 18446744073709551615 18446744073709551615 18446744073709551615 18446744073709551615 18446744073709551615 18446744073709551615 18446744073709551615 18446744073709551615 18446744073709551615 18446744073709551615 18446744073709551615 18446744073709551615 18446744073709551615 18446744073709551615 18446744073709551615 18446744073709551615 18446744073709551615 18446744073709551615 18446744073709551615 18446744073709551615 18446744073709551615 18446744073709551615 18446744073709551615 18446744073709551615 18446744073709551615 18446744073709551615 18446744073709551615 18446744073709551615 18446744073709551615 18446744073709551615 18446744073709551615 18446744073709551615 18446744073709551615 18446744073709551615 18446744073709551615 18446744073709551615 18446744073709551615 18446744073709551615 18446744073709551615 18446744073709551615 18446744073709551615 18446744073709551615 18446744073709551615 18446744073709551615 18446744073709551615 18446744073709551615 18446744073709551615 18446744073709551615 18446744073709551615 18446744073709551615 18446744073709551615 18446744073709551615 18446744073709551615 18446744073709551615 18446744073709551615 18446744073709551615 18446744073709551615 18446744073709551615 18446744073709551615 18446744073709551615 18446744073709551615 18446744073709551615 18446744073709551615 18446744073709551615 18446744073709551615 18446744073709551615 18446744073709551615 18446744073709551615 18446744073709551615 18446744073709551615 18446744073709551615 18446744073709551615 18446744073709551615 18446744073709551615 18446744073709551615 18446744073709551615 18446744073709551615 18446744073709551615 18446744073709551615 18446744073709551615 18446744073709551615 18446744073709551615 18446744073709551615 18446744073709551615 18446744073709551615 18446744073709551615 18446744073709551615 18446744073709551615 18446744073709551615 18446744073709551615 18446744073709551615 18446744073709551615 18446744073709551615 18446744073709551615 18446744073709551615 18446744073709551615 18446744073709551615 18446744073709551615 18446744073709551615 18446744073709551615 18446744073709551615 18446744073709551615 18446744073709551615 18446744073709551615 18446744073709551615 18446744073709551615 18446744073709551615 18446744073709551615 18446744073709551615 18446744073709551615 18446744073709551615 18446744073709551615 18446744073709551615 18446744073709551615 18446744073709551615 18446744073709551615 18446744073709551615 18446744073709551615 18446744073709551615 18446744073709551615 18446744073709551615 18446744073709551615 18446744073709551615 18446744073709551615 18446744073709551615 18446744073709551615 18446744073709551615 18446744073709551615 18446744073709551615 18446744073709551615 18446744073709551615 18446744073709551615 18446744073709551615 18446744073709551615 18446744073709551615 18446744073709551615 18446744073709551615 18446744073709551615 18446744073709551615 18446744073709551615 18446744073709551615 18446744073709551615 18446744073709551615 18446744073709551615 18446744073709551615 18446744073709551615 18446744073709551615 18446744073709551615 18446744073709551615 18446744073709551615 18446744073709551615 18446744073709551615 18446744073709551615 18446744073709551615 18446744073709551615 18446744073709551615 18446744073709551615 18446744073709551615 18446744073709551615 18446744073709551615 18446744073709551615 18446744073709551615 18446744073709551615 18446744073709551615 18446744073709551615 18446744073709551615 18446744073709551615 18446744073709551615 18446744073709551615 18446744073709551615 18446744073709551615 18446744073709551615 18446744073709551615 18446744073709551615 18446744073709551615 18446744073709551615 18446744073709551615 18446744073709551615 18446744073709551615 18446744073709551615 18446744073709551615 18446744073709551615 18446744073709551615 18446744073709551615 18446744073709551615 18446744073709551615 18446744073709551615 18446744073709551615 18446744073709551615 18446744073709551615 18446744073709551615 18446744073709551615 18446744073709551615 18446744073709551615 18446744073709551615 18446744073709551615 18446744073709551615 18446744073709551615 18446744073709551615 18446744073709551615 18446744073709551615 18446744073709551615 18446744073709551615 18446744073709551615 18446744073709551615 18446744073709551615 18446744073709551615 18446744073709551615 18446744073709551615 18446744073709551615 18446744073709551615 18446744073709551615 18446744073709551615 18446744073709551615 18446744073709551615 18446744073709551615 18446744073709551615 18446744073709551615 18446744073709551615 18446744073709551615 18446744073709551615 18446744073709551615 18446744073709551615 18446744073709551615 18446744073709551615 18446744073709551615 18446744073709551615 18446744073709551615 18446744073709551615 18446744073709551615 18446744073709551615 18446744073709551615 18446744073709551615 18446744073709551615 18446744073709551615 18446744073709551615 18446744073709551615 18446744073709551615 18446744073709551615 18446744073709551615 18446744073709551615 18446744073709551615 18446744073709551615 18446744073709551615 18446744073709551615 18446744073709551615 18446744073709551615 18446744073709551615 18446744073709551615 18446744073709551615 18446744073709551615 18446744073709551615 18446744073709551615 18446744073709551615 18446744073709551615 18446744073709551615 18446744073709551615 18446744073709551615 18446744073709551615 18446744073709551615 18446744073709551615 18446744073709551615 18446744073709551615 18446744073709551615 18446744073709551615 18446744073709551615 18446744073709551615 18446744073709551615 18446744073709551615 18446744073709551615 18446744073709551615 18446744073709551615 18446744073709551615 18446744073709551615 18446744073709551615 18446744073709551615 18446744073709551615 18446744073709551615 18446744073709551615 18446744073709551615 18446744073709551615 18446744073709551615 18446744073709551615 18446744073709551615 18446744073709551615 18446744073709551615 18446744073709551615 18446744073709551615 18446744073709551615 18446744073709551615 18446744073709551615 18446744073709551615 18446744073709551615 18446744073709551615 18446744073709551615 18446744073709551615 18446744073709551615 18446744073709551615 18446744073709551615 18446744073709551615 18446744073709551615 18446744073709551615 18446744073709551615 18446744073709551615 18446744073709551615 18446744073709551615 18446744073709551615 18446744073709551615 18446744073709551615 18446744073709551615 18446744073709551615 18446744073709551615 18446744073709551615 18446744073709551615 18446744073709551615 18446744073709551615 18446744073709551615 18446744073709551615 18446744073709551615 18446744073709551615 18446744073709551615 18446744073709551615 18446744073709551615 18446744073709551615 5 5 18446744073709551615 5 18446744073709551615 18446744073709551615 5 5 5 5 5 5 5 5 18446744073709551615 18446744073709551615 18446744073709551615 18446744073709551615 18446744073709551615 5 5 5 5 18446744073709551615 1 18446744073709551615 18446744073709551615 18446744073709551615 18446744073709551615 18446744073709551615 18446744073709551615 18446744073709551615 1 18446744073709551615 1 18446744073709551615 1 18446744073709551615 18446744073709551615 18446744073709551615 18446744073709551615 18446744073709551615 18446744073709551615 1 18446744073709551615 18446744073709551615 18446744073709551615 1 18446744073709551615 18446744073709551615 18446744073709551615 18446744073709551615 18446744073709551615 18446744073709551615 18446744073709551615 18446744073709551615 18446744073709551615 18446744073709551615 18446744073709551615 18446744073709551615 18446744073709551615 18446744073709551615 18446744073709551615 18446744073709551615 18446744073709551615 18446744073709551615 18446744073709551615 18446744073709551615 18446744073709551615 18446744073709551615 18446744073709551615 18446744073709551615 18446744073709551615 18446744073709551615 18446744073709551615 18446744073709551615 18446744073709551615 18446744073709551615 18446744073709551615 18446744073709551615 18446744073709551615 18446744073709551615 18446744073709551615 18446744073709551615 18446744073709551615 18446744073709551615 18446744073709551615 18446744073709551615 18446744073709551615 18446744073709551615 18446744073709551615 18446744073709551615 18446744073709551615 18446744073709551615 18446744073709551615 18446744073709551615 18446744073709551615 18446744073709551615 18446744073709551615 18446744073709551615 18446744073709551615 18446744073709551615 18446744073709551615 18446744073709551615 18446744073709551615 18446744073709551615 18446744073709551615 18446744073709551615 18446744073709551615 18446744073709551615 18446744073709551615 18446744073709551615 18446744073709551615 18446744073709551615 18446744073709551615 18446744073709551615 18446744073709551615 18446744073709551615 18446744073709551615 18446744073709551615 18446744073709551615 18446744073709551615 18446744073709551615 18446744073709551615 18446744073709551615 18446744073709551615 18446744073709551615 18446744073709551615 18446744073709551615 1844