<?xml version="1.0"?>
<VTKFile type="UnstructuredGrid"  version="0.1"  >
<UnstructuredGrid>
<Piece  NumberOfPoints="710" NumberOfCells="6255">
<Points>
<DataArray  type="Float64"  NumberOfComponents="3"  format="ascii">9.246424963975985 2.391950887374499 4.169214235160975  9.364325356594707 2.299843275113862 4.087292575257983  9.227509065318403 2.235878379865271 4.082101175352848  9.350032527355518 2.335713675134835 4.033806873332445  9.237609286556086 2.422406763795864 4.109749913089767  9.237361863529365 2.196529992228466 4.134423984258029  9.255238393170513 2.361437192922487 4.22863261272641  9.378574269252992 2.263916876056305 4.140732448481685  9.247183221182187 2.157087673491884 4.186685585015398  9.264039150983233 2.330812976954261 4.287990529548333  9.392727738666061 2.227882380073168 4.194115267766442  10.01784198890073 3.440294933427788 4.057427395824183  10.02860884934516 3.297634790674067 4.113166503951819  9.942793908941693 3.435019784023454 4.076962643743848  9.930475934842628 3.408841909501477 4.016034100584051  10.03714507755204 3.315637275164977 4.177727736049881  10.02256601064767 3.465601877383448 4.119267409944608  9.955226458833868 3.461218868689701 4.137926192204388  10.04591182118902 3.333713936424501 4.24230775208205  10.0274831095871 3.491010323740006 4.181202787987784  9.968088342313413 3.487478009283688 4.198904696657757  9.077373038589931 3.259683533263328 4.002848764150533  8.994165394544964 3.323734678912614 3.977723939903347  8.990427223869519 3.192860859896217 4.031499680485336  8.992289512074201 3.213051461251274 4.101154501737946  8.994454267453927 3.353867272433668 4.04314149033971  9.081953536894128 3.282808951975932 4.070966319241559  9.086513585021986 3.305865565842503 4.138857438150599  8.994825562452053 3.383866879397264 4.108315277989906  8.994183426202293 3.233190466056591 4.170577032774716  9.091065238851323 3.328821345575077 4.20658941318528  8.9952269766355 3.413743035862753 4.173344134930726  8.996090314952152 3.253255396903956 4.239864556233325  9.09561750526712 3.351668719377291 4.274226549158596  8.995632624533471 3.443509463730231 4.238277776942152  8.998004934222136 3.273229252043518 4.309051135439274  8.996022252196974 3.473168889477356 4.30314274820133  9.10017783189469 3.374402125127867 4.341777545327639  8.999920347497817 3.293096193145508 4.378151046694822  8.996363848837778 3.502704858437684 4.367928744123659  9.104761882133507 3.39702876895015 4.409242566705949  9.001823254483561 3.31282814614124 4.447162548023023  9.701875004047123 3.129814460679683 3.942288344804531  9.657481074899948 3.238665592837555 3.923641606782544  9.58974757138742 3.11045185651866 3.965843625218963  9.602554775511519 3.121169966912408 4.033734700644252  9.670540099379791 3.259048904076275 3.988767742627847  9.716065245513725 3.141108461906349 4.009288037263177  9.615222276364156 3.131823270205343 4.101533073149784  9.683401970867179 3.279334713668297 4.053868530915193  9.730082063378381 3.152311578971554 4.076257490106268  9.627817780370139 3.142410227990534 4.169265820107796  9.696177787937291 3.299537689842857 4.118951560048755  9.744020100548909 3.16343401035194 4.143203375628055  9.640396311875234 3.15291748081455 4.236948621514119  9.708954429455883 3.319662360024237 4.184009454250316  9.757948851493779 3.174477026273338 4.210125654364941  9.653015726794335 3.163355577260134 4.30457757173555  9.721811569849029 3.339721837671807 4.249025240401813  9.771944600151537 3.185467299472217 4.277008444654988  9.665732620248773 3.173756017674306 4.37212242392755  9.734843143070149 3.359765526009268 4.31394910807211  9.78607911805925 3.196449934196786 4.343809173190841  9.667394904004649 3.042103713219545 3.958225085765155  9.682107601342093 3.045956795714935 4.025988340993258  9.696675065509018 3.049752982880563 4.093673149791293  9.711170188943575 3.053479193621099 4.161306071197203  9.725649849080751 3.057132963872857 4.228896529537558  9.740175582447698 3.060733148551988 4.296441026751154  9.754808002743054 3.064310653588099 4.363914650348113  9.102608054297026 2.3088960391063 4.141353259239611  9.097276128633581 2.342448788634615 4.083620108232217  9.107945102756501 2.275282164568764 4.199037476155286  9.113291693399333 2.241561669203611 4.25665613834172  8.871380267280562 3.305795361482294 4.062983184112293  8.870225405103758 3.332359361240268 4.129924558064336  8.869126753753557 3.358813768249671 4.196726305761384  8.868040690760058 3.385164617877096 4.263437398410536  8.86693436863041 3.411411523749977 4.330074198175232  8.865777319657784 3.437547790782923 4.396634822451011  9.540126998473282 3.218104758244057 3.952169018398159  9.55257053022623 3.236444251249219 4.018716036533941  9.564842814741171 3.254714734332207 4.085169021194757  9.577035636917472 3.272896716372694 4.151555231853954  9.58921647213695 3.29098753310498 4.217888252920384  9.601450631279658 3.308998840629192 4.284161216819765  9.613809699765614 3.326965157567412 4.350345920171875  9.090110210521345 2.528443384977711 4.030212003046512  9.220006931412243 2.483326921418878 3.990780763548674  9.086609461039266 2.409532876434004 3.968120051311677  9.211205620705499 2.513882102258965 3.931352194485028  9.096377810653188 2.49942552485803 4.091830630423241  9.228801129301869 2.452850260986666 4.050260889087236  9.091946615602838 2.375980602969509 4.025862611881123  9.102643887956894 2.470447669360777 4.153454924512041  9.108914080180902 2.441457225787379 4.215053471456987  9.115185910972986 2.41240178794931 4.276603091362473  9.121459274725883 2.383217792774147 4.338077436706969  9.365022514008039 2.43150731996043 4.093697029387179  9.352786252866915 2.46375726228556 4.036031025379039  9.377266790828088 2.399250786520904 4.151331696875124  9.389489042036908 2.366941087323295 4.208916545106691  9.401659470202743 2.334529417602162 4.266440103366072  9.551968721860693 3.321054468334438 3.911210355355195  9.424248070038258 3.246234593547561 3.966497825412865  9.435216828258532 3.268265334988617 4.032853576605459  9.563758147105727 3.348531849310863 3.974163083833381  9.4460433440534 3.290228163557822 4.099095045237227  9.575354398346377 3.375902024066049 4.037034797914547  9.456798801839174 3.312104659382082 4.165235444533398  9.586864066388737 3.403177329417922 4.099854676497967  9.46754619263463 3.333885719937808 4.23130581410006  9.598369364744626 3.430361767498403 4.162632692519199  9.478338662022875 3.355578377493333 4.297313745450121  9.609935277231454 3.457461747935806 4.225358950620164  9.489226317428846 3.377206613140425 4.363252816586216  9.62164909748013 3.484508643270587 4.287993246083203  9.436128347488088 3.355891446684651 3.917087510753099  9.445381843584943 3.387002995657455 3.979335852627309  9.454494074307791 3.418006089007753 4.04145471816669  9.463537580032378 3.448893781723021 4.103489889506696  9.472578655578234 3.479676150251636 4.165468616868504  9.481667769766149 3.510363112578691 4.227395848796576  9.490866345394542 3.54100066437257 4.289254006874519  9.016175150112984 2.440413469660231 4.379394035729629  8.990470165591354 2.314380234072415 4.31418592149162  8.892763960341107 2.434860344935052 4.385312810840429  8.98634073428488 2.346073152752481 4.2541736601336  9.011703600782438 2.466356156109807 4.31551467084625  9.994608010491566 3.225259736244798 3.855491712405533  9.893096170225924 3.330077343770696 3.833672421559524  9.862036672282111 3.222213740997819 3.882435847968768  9.876211727050485 3.241045289875904 3.946353555748602  9.917849781451336 3.296956977977653 4.138558647203159  9.93180776401811 3.315516300779879 4.202673873028383  9.946039130842761 3.334101417734873 4.266755207566557  8.753860765379068 3.259322281244043 4.304369685064665  8.866097576336173 3.246274885492237 4.312586559867256  8.863985902457605 3.26499194182435 4.38200595908463  8.751443596286533 3.278397739679875 4.373783606743321  8.861824025579216 3.283580872258286 4.451367701666396  9.992578853674152 3.590696771773047 4.060935720749393  10.08555124471475 3.542543867395047 4.087355728448874  9.987272589056893 3.55821281534365 4.003028344873585  10.08656265430643 3.572276438926838 4.147738894549979  9.998112997199351 3.623263894402557 4.118896118354614  8.925319785311759 3.435973087763415 4.005660933689434  8.924765775734882 3.473570115736694 4.066600691980971  8.924267905055142 3.511036891894492 4.127455262413856  8.923779761878837 3.548402541899241 4.188246269816235  8.923266747808585 3.585682935137437 4.248982241138879  8.922693129111527 3.622895363091712 4.309655462004431  9.764268584577696 3.207742114260566 3.906563266688264  9.766098723716338 3.32164318202727 3.870281514712711  9.779713045813681 3.348072606330909 3.931876694991703  9.778595557551697 3.226299265066896 3.971151944431247  9.793049196861951 3.374399979406416 3.993569450688941  9.792680379888463 3.244729695168623 4.035757807425731  9.806299291230895 3.400667476175434 4.055312567643773  9.806669398215005 3.263080860459488 4.10037813681042  9.819580911662852 3.426893788806778 4.117073866226973  9.82065998988544 3.281368288802047 4.165001796523492  9.833010712737847 3.453091498197506 4.178817034807524  9.834742685968523 3.299604025961695 4.22960244498407  9.846690279561903 3.479284145152823 4.240487811636735  9.849027384107115 3.317840186379767 4.294122329510551  9.080847962399099 2.573783025898801 4.279034271668048  9.007240330710964 2.492164872762923 4.251558854244816  9.086239014374437 2.551904121525308 4.344964718560544  9.091638974922049 2.529882667569696 4.410827003337299  9.905774755572454 3.356428025994557 3.894331500217075  9.89015413423285 3.259742891004916 4.010372272305125  9.918170480203765 3.382655957839717 3.955147568735568  9.90399907707123 3.278372318504354 4.074450888198363  9.657981726388254 3.344117006313606 3.882306949735292  9.615259442126304 3.422930691139771 3.848039353995875  9.627456702946935 3.459143669706462 3.905134441118515  9.670264699525774 3.373876337473674 3.943374777525078  9.639408799565173 3.495240394816752 3.962252
[...]
<CellData  Scalars="f">
<DataArray  type="Float64"  Name="f"  format="ascii">18446744073709551615 18446744073709551615 18446744073709551615 18446744073709551615 18446744073709551615 18446744073709551615 18446744073709551615 18446744073709551615 18446744073709551615 18446744073709551615 18446744073709551615 18446744073709551615 18446744073709551615 18446744073709551615 18446744073709551615 18446744073709551615 18446744073709551615 18446744073709551615 18446744073709551615 18446744073709551615 18446744073709551615 18446744073709551615 18446744073709551615 18446744073709551615 18446744073709551615 18446744073709551615 18446744073709551615 18446744073709551615 18446744073709551615 18446744073709551615 18446744073709551615 18446744073709551615 18446744073709551615 18446744073709551615 18446744073709551615 18446744073709551615 18446744073709551615 18446744073709551615 18446744073709551615 18446744073709551615 18446744073709551615 18446744073709551615 18446744073709551615 18446744073709551615 18446744073709551615 18446744073709551615 18446744073709551615 18446744073709551615 18446744073709551615 18446744073709551615 18446744073709551615 18446744073709551615 18446744073709551615 18446744073709551615 18446744073709551615 18446744073709551615 18446744073709551615 18446744073709551615 18446744073709551615 18446744073709551615 18446744073709551615 18446744073709551615 18446744073709551615 18446744073709551615 18446744073709551615 18446744073709551615 18446744073709551615 18446744073709551615 18446744073709551615 18446744073709551615 18446744073709551615 18446744073709551615 18446744073709551615 18446744073709551615 18446744073709551615 18446744073709551615 18446744073709551615 18446744073709551615 18446744073709551615 18446744073709551615 18446744073709551615 18446744073709551615 18446744073709551615 18446744073709551615 18446744073709551615 18446744073709551615 18446744073709551615 18446744073709551615 18446744073709551615 18446744073709551615 18446744073709551615 18446744073709551615 18446744073709551615 18446744073709551615 18446744073709551615 18446744073709551615 18446744073709551615 18446744073709551615 18446744073709551615 18446744073709551615 18446744073709551615 18446744073709551615 18446744073709551615 18446744073709551615 18446744073709551615 18446744073709551615 18446744073709551615 18446744073709551615 18446744073709551615 18446744073709551615 18446744073709551615 18446744073709551615 18446744073709551615 18446744073709551615 18446744073709551615 18446744073709551615 18446744073709551615 18446744073709551615 18446744073709551615 18446744073709551615 18446744073709551615 18446744073709551615 18446744073709551615 18446744073709551615 18446744073709551615 18446744073709551615 18446744073709551615 18446744073709551615 18446744073709551615 18446744073709551615 18446744073709551615 18446744073709551615 18446744073709551615 18446744073709551615 18446744073709551615 18446744073709551615 5 18446744073709551615 5 18446744073709551615 18446744073709551615 5 18446744073709551615 18446744073709551615 5 5 18446744073709551615 18446744073709551615 5 5 18446744073709551615 18446744073709551615 5 18446744073709551615 18446744073709551615 18446744073709551615 18446744073709551615 18446744073709551615 18446744073709551615 18446744073709551615 18446744073709551615 18446744073709551615 18446744073709551615 18446744073709551615 18446744073709551615 18446744073709551615 18446744073709551615 18446744073709551615 18446744073709551615 18446744073709551615 18446744073709551615 18446744073709551615 18446744073709551615 18446744073709551615 18446744073709551615 18446744073709551615 18446744073709551615 18446744073709551615 18446744073709551615 18446744073709551615 18446744073709551615 18446744073709551615 18446744073709551615 18446744073709551615 18446744073709551615 18446744073709551615 18446744073709551615 18446744073709551615 18446744073709551615 18446744073709551615 18446744073709551615 18446744073709551615 18446744073709551615 18446744073709551615 18446744073709551615 18446744073709551615 18446744073709551615 18446744073709551615 18446744073709551615 18446744073709551615 18446744073709551615 18446744073709551615 18446744073709551615 18446744073709551615 18446744073709551615 18446744073709551615 18446744073709551615 18446744073709551615 18446744073709551615 18446744073709551615 18446744073709551615 18446744073709551615 18446744073709551615 18446744073709551615 18446744073709551615 18446744073709551615 18446744073709551615 18446744073709551615 18446744073709551615 18446744073709551615 18446744073709551615 18446744073709551615 18446744073709551615 18446744073709551615 18446744073709551615 18446744073709551615 18446744073709551615 18446744073709551615 18446744073709551615 18446744073709551615 18446744073709551615 18446744073709551615 18446744073709551615 18446744073709551615 18446744073709551615 18446744073709551615 18446744073709551615 18446744073709551615 18446744073709551615 18446744073709551615 18446744073709551615 18446744073709551615 18446744073709551615 18446744073709551615 18446744073709551615 18446744073709551615 18446744073709551615 18446744073709551615 18446744073709551615 18446744073709551615 18446744073709551615 18446744073709551615 18446744073709551615 18446744073709551615 18446744073709551615 18446744073709551615 18446744073709551615 18446744073709551615 18446744073709551615 18446744073709551615 18446744073709551615 18446744073709551615 18446744073709551615 18446744073709551615 18446744073709551615 5 5 5 5 5 5 5 5 1 18446744073709551615 18446744073709551615 1 18446744073709551615 18446744073709551615 1 18446744073709551615 18446744073709551615 18446744073709551615 18446744073709551615 18446744073709551615 18446744073709551615 18446744073709551615 18446744073709551615 18446744073709551615 1 18446744073709551615 18446744073709551615 1 18446744073709551615 18446744073709551615 18446744073709551615 18446744073709551615 18446744073709551615 18446744073709551615 18446744073709551615 18446744073709551615 18446744073709551615 18446744073709551615 18446744073709551615 18446744073709551615 18446744073709551615 18446744073709551615 18446744073709551615 18446744073709551615 18446744073709551615 1 18446744073709551615 18446744073709551615 18446744073709551615 1 18446744073709551615 18446744073709551615 18446744073709551615 18446744073709551615 18446744073709551615 1 18446744073709551615 18446744073709551615 18446744073709551615 18446744073709551615 18446744073709551615 18446744073709551615 18446744073709551615 18446744073709551615 18446744073709551615 18446744073709551615 18446744073709551615 18446744073709551615 18446744073709551615 18446744073709551615 18446744073709551615 18446744073709551615 18446744073709551615 18446744073709551615 18446744073709551615 18446744073709551615 18446744073709551615 18446744073709551615 18446744073709551615 18446744073709551615 18446744073709551615 18446744073709551615 18446744073709551615 18446744073709551615 18446744073709551615 18446744073709551615 18446744073709551615 18446744073709551615 18446744073709551615 18446744073709551615 18446744073709551615 18446744073709551615 18446744073709551615 18446744073709551615 18446744073709551615 18446744073709551615 18446744073709551615 18446744073709551615 18446744073709551615 18446744073709551615 18446744073709551615 18446744073709551615 18446744073709551615 18446744073709551615 18446744073709551615 18446744073709551615 18446744073709551615 18446744073709551615 18446744073709551615 18446744073709551615 18446744073709551615 18446744073709551615 18446744073709551615 18446744073709551615 18446744073709551615 18446744073709551615 18446744073709551615 18446744073709551615 18446744073709551615 18446744073709551615 18446744073709551615 18446744073709551615 18446744073709551615 18446744073709551615 18446744073709551615 18446744073709551615 18446744073709551615 18446744073709551615 18446744073709551615 18446744073709551615 18446744073709551615 18446744073709551615 18446744073709551615 18446744073709551615 18446744073709551615 18446744073709551615 18446744073709551615 18446744073709551615 18446744073709551615 18446744073709551615 18446744073709551615 18446744073709551615 18446744073709551615 18446744073709551615 18446744073709551615 18446744073709551615 18446744073709551615 18446744073709551615 18446744073709551615 18446744073709551615 18446744073709551615 18446744073709551615 18446744073709551615 18446744073709551615 18446744073709551615 18446744073709551615 18446744073709551615 18446744073709551615 18446744073709551615 18446744073709551615 18446744073709551615 18446744073709551615 18446744073709551615 18446744073709551615 18446744073709551615 18446744073709551615 18446744073709551615 18446744073709551615 18446744073709551615 18446744073709551615 18446744073709551615 18446744073709551615 18446744073709551615 18446744073709551615 18446744073709551615 18446744073709551615 18446744073709551615 18446744073709551615 18446744073709551615 18446744073709551615 18446744073709551615 18446744073709551615 18446744073709551615 18446744073709551615 18446744073709551615 18446744073709551615 18446744073709551615 18446744073709551615 18446744073709551615 18446744073709551615 18446744073709551615 18446744073709551615 18446744073709551615 18446744073709551615 18446744073709551615 18446744073709551615 18446744073709551615 18446744073709551615 18446744073709551615 18446744073709551615 18446744073709551615 18446744073709551615 18446744073709551615 18446744073709551615 18446744073709551615 18446744073709551615 18446744073709551615 18446744073709551615 18446744073709551615 18446744073709551615 18446744073709551615 18446744073709551615 18446744073709551615 18446744073709551615 18446744073709551615 18446744073709551615 18446744073709551615 18446744073709551615 18446744073709551615 18446744073709551615 18446744073709551615 18446744073709551615 18446744073709551615 18446744073709551615 18446744073709551615 18446744073709551615 18446744073709551615 18446744073709551615 18446744073709551615 18446744073709551615 18446744073709551615 18446744073709551615 18446744073709551615 18446744073709551615 18446744073709551615 18446744073709551615 18446744073709551615 18446744073709551615 18446744073709551615 18446744073709551615 18446744073709551615 18446744073709551615 18446744073709551615 18446744073709551615 18446744073709551615 18446744073709551615 18446744073709551615 18446744073709551615 18446744073709551615 18446744073709551615 18446744073709551615 18446744073709551615 18446744073709551615 18446744073709551615 18446744073709551615 18446744073709551615 18446744073709551615 18446744073709551615 18446744073709551615 18446744073709551615 18446744073709551615 18446744073709551615 18446744073709551615 18446744073709551615 18446744073709551615 18446744073709551615 18446744073709551615 18446744073709551615 18446744073709551615 18446744073709551615 18446744073709551615 18446744073709551615 18446744073709551615 18446744073709551615 18446744073709551615 18446744073709551615 18446744073709551615 18446744073709551615 18446744073709551615 18446744073709551615 18446744073709551615 18446744073709551615 18446744073709551615 18446744073709551615 18446744073709551615 18446744073709551615 18446744073709551615 18446744073709551615 18446744073709551615 18446744073709551615 18446744073709551615 18446744073709551615 18446744073709551615 18446744073709551615 18446744073709551615 18446744073709551615 18446744073709551615 18446744073709551615 18446744073709551615 18446744073709551615 18446744073709551615 18446744073709551615 18446744073709551615 18446744073709551615 18446744073709551615 18446744073709551615 18446744073709551615 18446744073709551615 18446744073709551615 18446744073709551615 18446744073709551615 18446744073709551615 18446744073709551615 18446744073709551615 18446744073709551615 18446744073709551615 18446744073709551615 18446744073709551615 18446744073709551615 18446744073709551615 18446744073709551615 18446744073709551615 18446744073709551615 18446744073709551615 18446744073709551615 18446744073709551615 18446744073709551615 18446744073709551615 18446744073709551615 18446744073709551615 18446744073709551615 18446744073709551615 18446744073709551615 18446744073709551615 18446744073709551615 18446744073709551615 18446744073709551615 18446744073709551615 18446744073709551615 18446744073709551615 18446744073709551615 18446744073709551615 18446744073709551615 18446744073709551615 18446744073709551615 18446744073709551615 18446744073709551615 18446744073709551615 18446744073709551615 18446744073709551615 18446744073709551615 18446744073709551615 18446744073709551615 18446744073709551615 18446744073709551615 18446744073709551615 18446744073709551615 18446744073709551615 18446744073709551615 18446744073709551615 18446744073709551615 18446744073709551615 18446744073709551615 18446744073709551615 18446744073709551615 18446744073709551615 18446744073709551615 18446744073709551615 18446744073709551615 18446744073709551615 18446744073709551615 18446744073709551615 18446744073709551615 18446744073709551615 18446744073709551615 18446744073709551615 18446744073709551615 18446744073709551615 18446744073709551615 18446744073709551615 5 5 5 5 5 5 5 5 5 5 5 5 5 1 18446744073709551615 18446744073709551615 1 18446744073709551615 18446744073709551615 1 18446744073709551615 18446744073709551615 18446744073709551615 18446744073709551615 18446744073709551615 18446744073709551615 18446744073709551615 18446744073709551615 18446744073709551615 18446744073709551615 18446744073709551615 1 18446744073709551615 18446744073709551615 18446744073709551615 1 18446744073709551615 18446744073709551615 18446744073709551615 1 18446744073709551615 18446744073709551615 18446744073709551615 18446744073709551615 1 18446744073709551615 18446744073709551615 18446744073709551615 18446744073709551615 18446744073709551615 18446744073709551615 18446744073709551615 18446744073709551615 18446744073709551615 1 18446744073709551615 18446744073709551615 18446744073709551615 1 18446744073709551615 18446744073709551615 1 18446744073709551615 18446744073709551615 18446744073709551615 1 18446744073709551615 18446744073709551615 18446744073709551615 18446744073709551615 18446744073709551615 18446744073709551615 18446744073709551615 18446744073709551615 18446744073709551615 18446744073709551615 1 18446744073709551615 18446744073709551615 18446744073709551615 1 18446744073709551615 18446744073709551615 18446744073709551615 1 18446744073709551615 18446744073709551615 18446744073709551615 1 18446744073709551615 18446744073709551615 18446744073709551615 18446744073709551615 18446744073709551615 18446744073709551615 18446744073709551615 18446744073709551615 18446744073709551615 18446744073709551615 18446744073709551615 18446744073709551615 18446744073709551615 18446744073709551615 18446744073709551615 18446744073709551615 18446744073709551615 18446744073709551615 18446744073709551615 18446744073709551615 18446744073709551615 18446744073709551615 18446744073709551615 18446744073709551615 18446744073709551615 18446744073709551615 18446744073709551615 18446744073709551615 18446744073709551615 18446744073709551615 18446744073709551615 18446744073709551615 18446744073709551615 18446744073709551615 18446744073709551615 18446744073709551615 18446744073709551615 18446744073709551615 18446744073709551615 18446744073709551615 18446744073709551615 18446744073709551615 18446744073709551615 18446744073709551615 18446744073709551615 18446744073709551615 18446744073709551615 18446744073709551615 18446744073709551615 18446744073709551615 18446744073709551615 18446744073709551615 18446744073709551615 18446744073709551615 18446744073709551615 18446744073709551615 18446744073709551615 18446744073709551615 18446744073709551615 18446744073709551615 18446744073709551615 18446744073709551615 18446744073709551615 18446744073709551615 18446744073709551615 18446744073709551615 18446744073709551615 18446744073709551615 18446744073709551615 18446744073709551615 18446744073709551615 18446744073709551615 18446744073709551615 18446744073709551615 18446744073709551615 18446744073709551615 18446744073709551615 18446744073709551615 18446744073709551615 18446744073709551615 18446744073709551615 18446744073709551615 18446744073709551615 18446744073709551615 18446744073709551615 18446744073709551615 18446744073709551615 18446744073709551615 18446744073709551615 18446744073709551615 18446744073709551615 18446744073709551615 18446744073709551615 18446744073709551615 18446744073709551615 18446744073709551615 18446744073709551615 18446744073709551615 18446744073709551615 18446744073709551615 18446744073709551615 18446744073709551615 18446744073709551615 18446744073709551615 18446744073709551615 18446744073709551615 18446744073709551615 18446744073709551615 18446744073709551615 18446744073709551615 18446744073709551615 18446744073709551615 18446744073709551615 18446744073709551615 18446744073709551615 18446744073709551615 18446744073709551615 18446744073709551615 18446744073709551615 18446744073709551615 18446744073709551615 18446744073709551615 18446744073709551615 18446744073709551615 18446744073709551615 18446744073709551615 18446744073709551615 18446744073709551615 18446744073709551615 18446744073709551615 18446744073709551615 18446744073709551615 18446744073709551615 18446744073709551615 18446744073709551615 18446744073709551615 18446744073709551615 18446744073709551615 18446744073709551615 18446744073709551615 18446744073709551615 18446744073709551615 18446744073709551615 18446744073709551615 18446744073709551615 18446744073709551615 18446744073709551615 18446744073709551615 18446744073709551615 18446744073709551615 18446744073709551615 18446744073709551615 18446744073709551615 18446744073709551615 18446744073709551615 18446744073709551615 18446744073709551615 18446744073709551615 18446744073709551615 18446744073709551615 18446744073709551615 18446744073709551615 18446744073709551615 18446744073709551615 18446744073709551615 18446744073709551615 18446744073709551615 18446744073709551615 18446744073709551615 18446744073709551615 18446744073709551615 18446744073709551615 18446744073709551615 18446744073709551615 18446744073709551615 18446744073709551615 18446744073709551615 18446744073709551615 18446744073709551615 18446744073709551615 18446744073709551615 18446744073709551615 18446744073709551615 18446744073709551615 18446744073709551615 18446744073709551615 18446744073709551615 18446744073709551615 18446744073709551615 18446744073709551615 18446744073709551615 18446744073709551615 18446744073709551615 18446744073709551615 18446744073709551615 18446744073709551615 18446744073709551615 18446744073709551615 18446744073709551615 18446744073709551615 18446744073709551615 18446744073709551615 18446744073709551615 18446744073709551615 18446744073709551615 18446744073709551615 18446744073709551615 18446744073709551615 18446744073709551615 18446744073709551615 18446744073709551615 18446744073709551615 18446744073709551615 18446744073709551615 18446744073709551615 18446744073709551615 18446744073709551615 18446744073709551615 18446744073709551615 18446744073709551615 18446744073709551615 18446744073709551615 18446744073709551615 18446744073709551615 18446744073709551615 18446744073709551615 18446744073709551615 18446744073709551615 18446744073709551615 18446744073709551615 18446744073709551615 18446744073709551615 18446744073709551615 18446744073709551615 18446744073709551615 18446744073709551615 18446744073709551615 18446744073709551615 18446744073709551615 18446744073709551615 18446744073709551615 18446744073709551615 18446744073709551615 18446744073709551615 18446744073709551615 18446744073709551615 18446744073709551615 18446744073709551615 18446744073709551615 18446744073709551615 18446744073709551615 18446744073709551615 18446744073709551615 18446744073709551615 18446744073709551615 18446744073709551615 18446744073709551615 18446744073709551615 18446744073709551615 18446744073709551615 18446744073709551615 1844674407370955