<?xml version="1.0"?>
<VTKFile type="UnstructuredGrid"  version="0.1"  >
<UnstructuredGrid>
<Piece  NumberOfPoints="908" NumberOfCells="3881">
<Points>
<DataArray  type="Float64"  NumberOfComponents="3"  format="ascii">7.934440710294164 3.997439614449585 2.198130916549096  7.832696423679625 4.000708113402715 2.139686622857154  7.86853945463513 3.989685264426098 2.295754972297622  7.871337222044698 4.047120218036699 2.300233483382296  7.8345960521989 4.059753398786164 2.142443208276615  7.933718358233222 4.055547616982287 2.203091091996743  7.836391882886629 4.118991856269262 2.145160288893846  7.932960985698721 4.113867507161552 2.208005606545632  7.874037363446805 4.10481355364467 2.304732446270388  7.838121782580591 4.178465119965788 2.147883021778873  7.932181097251869 4.1724353526761 2.212935413651445  7.876702759779946 4.162741737316836 2.309248784603636  7.839843905707599 4.23817754441224 2.150642093706682  7.931399212220525 4.231271056683665 2.217919857422229  7.879386235185541 4.220928294232024 2.313803539795805  7.841603294341793 4.298156419125681 2.153467800950978  7.930630483257713 4.290433839191646 2.223007611554669  7.882151188105116 4.279430253612083 2.318413133843713  7.929857522858907 4.349974512343684 2.228260961943342  7.843497111981597 4.358537995520314 2.156427973154706  7.885095326526407 4.338329901853133 2.323126905538317  7.672653256512517 4.128236787208876 2.618817185317212  7.780593917599284 4.101355522194165 2.629996807086159  7.724529136249416 4.118737320626375 2.756113626809114  7.768572389223087 4.043477326014183 2.628374436004047  7.741585600862687 4.177943968035956 2.755393827988798  7.687785267949344 4.187041003066472 2.617845230664065  7.792570723571585 4.159461331265504 2.631673538318617  7.758755152857717 4.237329760658588 2.754645408149828  7.703007930295865 4.246011942880838 2.616857543280048  7.804649192956331 4.217783399205834 2.633336050486284  7.776214329158553 4.296828429496322 2.753786186186359  7.718498660261585 4.305114048769888 2.615777293702209  7.817001570615628 4.276341403894413 2.634916464170793  7.794235213696831 4.356328577747814 2.752698034290422  7.734501150847785 4.364302055277746 2.614484847435176  7.829900255664599 4.335167068366461 2.636315966074616  7.98815861405948 3.930132528059549 2.819869017469321  7.915336958609338 3.950083013134791 2.743931240682197  7.892306110521463 3.944378168862724 2.871717567931367  7.905913470978318 4.002001029784148 2.875279114600418  7.925449240408911 4.006815935519147 2.747866416197219  7.998073269355079 3.986593985825855 2.824886001327856  7.919336663202399 4.059901105919251 2.879059240303981  7.935404264384037 4.063773527631564 2.751965702131578  8.007861192954108 4.043315821297057 2.830073929942623  7.932752328350405 4.118071453367064 2.882910541818835  7.945352293700624 4.120992122748174 2.756137009194059  8.017653439827582 4.100303237872749 2.83533281899706  7.946305429237696 4.176480471052471 2.886729136324044  7.955420763492657 4.178473579786985 2.76028602664644  8.027572055787594 4.157569573159343 2.840570011982723  7.96013572929394 4.235104474734189 2.890436008152347  7.965745183094176 4.236256016801948 2.764354265567984  8.037726946359058 4.215157543798894 2.845744550024389  7.974448765127627 4.293936732743047 2.89391177706282  7.976502203582214 4.294388644950223 2.768272988974759  8.04829669620559 4.273168836471797 2.850759374863022  8.207475029603891 3.967695244631578 2.47057760246273  8.171864728267227 3.982341062613199 2.369459403059518  8.087444406710059 3.973848497477081 2.415720925543038  8.086574877081913 4.029484126079774 2.423634102753222  8.168632146551568 4.03787766554902 2.378107055287793  8.20550590422692 4.022391793229614 2.480602212822068  8.085721376337629 4.085357329266033 2.431530702328439  8.165464825771934 4.093685546858451 2.386686239087987  8.203595160127625 4.077335990856516 2.490588676655047  8.084879726262763 4.141492720306021 2.439461980442442  8.16230581811867 4.149748577596275 2.395299018409189  8.20169358416679 4.132537791930126 2.500614019783844  8.084039612131679 4.197915058000834 2.447469683684047  8.159116339320475 4.206078407331259 2.404003137026968  8.199771187598893 4.18802489099375 2.510723389529691  8.083190475446944 4.254691792651064 2.455594620413413  8.155844599490791 4.262701187666272 2.412853185922518  8.197784683976572 4.243846040476119 2.520979962881519  8.082264986000348 4.311919540489148 2.463895897236507  8.152429197691882 4.319718417676606 2.421904758239475  8.19571086165174 4.300096826737729 2.531458913783163  8.144792245278499 3.95270647435495 2.553652667827423  8.144909257366267 4.007286675836069 2.563094986742033  8.145033731006141 4.062119986655923 2.572562614889263  8.145181086948975 4.117221348506737 2.582056185523195  8.145347308488459 4.172624725008237 2.591618395128133  8.145542097081975 4.228406477803728 2.601282778316311  8.145681757268314 4.28466246339261 2.611135735169881  7.675056665285436 4.338782069459918 2.713454566820923  7.696566479496979 4.398430507927329 2.708993272246416  7.756346543560839 3.985815953288962 2.626919644788184  7.69002750012586 4.001074645001665 2.757934063608752  7.809549911935015 3.970456803800995 2.723898799786645  7.821940252735507 4.027950517061744 2.725331399295184  7.707404812237086 4.059774471468604 2.756914221083961  7.834140569069448 4.08577131442286 2.726938644823606  7.84630268740199 4.143823213431173 2.728609822854427  7.858582143549969 4.202095295297696 2.730257065821509  7.871135178761512 4.260599269508427 2.731817163873946  7.884212441100548 4.319372723676367 2.733156445801286  7.750478744671098 4.00154869779594 2.267713075281797  7.755952496677304 4.059777013513634 2.270668032482279  7.761272887095173 4.118278540516778 2.273673120305146  7.766542138638913 4.176982569528078 2.276704075308301  7.771849793436668 4.235919165618624 2.279750978358936  7.777294102554839 4.295151378380817 2.282826251955457  7.783004268265292 4.354807095701696 2.285956139562538  7.792868566914091 3.974177812097957 2.822425636863768  7.808138559377344 4.032515642014587 2.823485888851099  7.823209079928778 4.091206146334235 2.824762732485139  7.838257064094502 4.150132170174357 2.82611759571004  7.853443487355087 4.209267784588235 2.827431266193812  7.86894267836764 4.268590026070552 2.828626109812327  7.885002502139682 4.328070714340559 2.829581317633941  8.294816223362385 4.049261228695586 1.967635809802287  8.173430951253961 4.020466724583418 2.077507408631679  8.311303499710379 4.038644455776517 2.085645466780971  8.301314028768589 4.097631990500277 2.092046214211678  8.166433489209712 4.079687122053372 2.082519817117849  8.282535861433791 4.11017266339964 1.971674489761229  8.270523184886772 4.171289698658777 1.975513169044637  8.159564805173561 4.139155299367092 2.087383775420166  8.291546283481079 4.156929643442346 2.098273926503519  8.152706005418073 4.198827267661041 2.092233166946296  8.258575972086913 4.232614474175747 1.979327006626255  8.281819394883978 4.216420062928576 2.104473600375389  8.145762453433161 4.258709272714468 2.097175136945506  8.246534022581084 4.294090790446432 1.983226429171328  8.271994341994377 4.276076238640846 2.110757888602808  8.234261738735649 4.355692881251115 1.987258321554007  8.13866060033668 4.318873674400593 2.10227512559805  8.261941554448029 4.335860647034629 2.117183879328102  8.221486929936338 4.417436731622852 1.991501554946359  8.131284171890417 4.379374826281685 2.107593686497002  8.251500654600827 4.395870596503079 2.123837790335006  7.643131579110362 4.398842578904764 2.584437879572134  8.119559628845932 4.404087396917643 1.943545720192631  8.945141437711648 4.188662905339514 2.257824435179705  8.975051382098368 4.146214383095935 2.394052919473817  8.86907845556552 4.144008504589112 2.366283225463278  8.950787244282248 4.130685335992926 2.242382029309165  8.862097548574022 4.198945441365408 2.38477701218976  8.939502003562557 4.246684332721401 2.273089322690033  8.969764813124435 4.200839531260796 2.412220277747406  8.855124256747047 4.253973424973394 2.403238188377883  8.641158003751638 4.109384749881825 2.148948306547229  8.519330082205501 4.082375140360138 2.134451673456707  8.593792322857924 4.071531364738894 2.242418308059487  8.581680015762974 4.127695976569326 2.257838487620647  8.50460147378662 4.140487023922005 2.146179148986045  8.62836458447064 4.168122815414575 2.162884459349742  8.569855334184085 4.184069621277464 2.27303088972296  8.490226419037391 4.198819369208998 2.157699298695921  8.615870248209896 4.227003554647759 2.176586808689933  8.558101456099829 4.240573213543382 2.28819908723852  8.475942941982137 4.25728443170374 2.169199286938852  8.603429508828077 4.285963728813301 2.190279097248888  8.546273502502078 4.297155171763295 2.303459790007211  8.461575369512028 4.315833230345671 2.180787339266409  8.590917310138911 4.344949133078616 2.204041016723417  8.534246311046781 4.353753491489198 2.318878470561119  8.446951752638228 4.374421904865243 2.192522382382966  8.578236709969996 4.403874505510972 2.217919101869957  8.521863335947629 4.410239304122749 2.334515950232033  8.431842236955722 4.432918124382285 2.204475043771142  8.565321349110906 4.462614839007496 2.231936553694808  8.703504692983365 3.926478746397023 2.737216955425222  8.60492256597805 3.950696752948628 2.643635325104742  8.54741901508455 3.907162251800965 2.767589484694996  8.545346445110837 3.958421845110029 2.783376802012124  8.600157413984315 4.002043190026303 2.659990807645748  8.699752227741014 3.97686158163255 2.754762765166923  8.543358656859057 4.009931871893698 2.799130168393453  8.595518333356223 4.0536512283433 2.676252213095669  8.696094698030722 4.027489880064721 2.772246150982338  8.541414152917351 4.061720881216752 2.814926857845337  8.590917499992118 4.105495764842038 2.69254881173383  8.692463804676892 4.0783557654534 2.78976822223495  8.539464611417213 4.113783656772204 2.830831514211695  8.586293612927912 4.157563231503593 2.708953947419596  8.688817074205929 4.129450454608144 2.
[...]
<PointData  Vectors="f_24"> 
<DataArray  type="Float64"  Name="f_24"  NumberOfComponents="3" format="ascii">-1.0648399593407907e-02 1.0431501307487098e-01 2.4905893793872494e-02  -1.0139851223568039e-02 9.8635762393971760e-02 2.5497027663825729e-02  -8.2085335506331906e-03 1.0807086817298553e-01 2.3714826457977681e-02  -9.5365967217419609e-03 1.0932125710476751e-01 2.1312495183792586e-02  -1.1260591757384327e-02 9.9457023170671940e-02 2.1674760103293639e-02  -1.1763331818947077e-02 1.0535420493509154e-01 2.1491124472854211e-02  -1.2376196411426831e-02 9.9933667930403494e-02 1.8267393251179410e-02  -1.2848809615450063e-02 1.0600943562517474e-01 1.8389105992971146e-02  -1.0854129947790704e-02 1.1014971830079212e-01 1.9091054418915520e-02  -1.3501588497142185e-02 1.0015078677264505e-01 1.5169654307736705e-02  -1.3910242587766311e-02 1.0635889963065995e-01 1.5515000570237273e-02  -1.2145812764082761e-02 1.1061958071284753e-01 1.6984881845452760e-02  -1.4710980940054307e-02 1.0012316741769046e-01 1.1970049907491865e-02  -1.5030926522346175e-02 1.0643365635452805e-01 1.2520429574968244e-02  -1.3492315376107280e-02 1.1078076539829072e-01 1.4829695291332681e-02  -1.5910487951771583e-02 9.9684832742777646e-02 8.2421656874404892e-03  -1.6173296907708221e-02 1.0609977221510378e-01 9.1044008911221174e-03  -1.4915291335014262e-02 1.1046703106110266e-01 1.2391488922142681e-02  -1.7282277606691245e-02 1.0527404991127777e-01 5.2633661323956095e-03  -1.7104322206168639e-02 9.8772634726317046e-02 4.0836871915282680e-03  -1.6384155473155214e-02 1.0956783639793172e-01 9.6727938099619732e-03  -5.8208229494421298e-03 1.0691066373867303e-01 1.9532537911729545e-02  -6.3782389361129671e-03 1.1109802116773920e-01 1.9423075685194646e-02  -5.6886242196205897e-03 1.0479798466009307e-01 1.9777199346676516e-02  -4.6660457232366032e-03 1.1006005195530166e-01 1.8617393039742833e-02  -7.4178199549205731e-03 1.0555170759502672e-01 2.1461361325300448e-02  -7.5851372989145576e-03 1.0766750454702916e-01 2.0183042621086337e-02  -8.0574679231027544e-03 1.1176887577145436e-01 2.0116622670203727e-02  -9.2251563382196623e-03 1.0603362458507273e-01 2.3155838156179696e-02  -9.4359701387370480e-03 1.0812402220901046e-01 2.0827595057186600e-02  -9.8176654592361384e-03 1.1212721280288435e-01 2.0792482244087661e-02  -1.1313713438016819e-02 1.0620862904501856e-01 2.5217838909320160e-02  -1.1587637413318020e-02 1.0818928526346781e-01 2.1765645389049536e-02  -1.1829687249148711e-02 1.1203804351822295e-01 2.1708218863152530e-02  -1.3674714278636205e-02 1.0602015615183351e-01 2.7696200293028463e-02  -1.4077688937856353e-02 1.0776115278279046e-01 2.3030659843141840e-02  -1.4157295610038064e-02 1.1143819516535083e-01 2.2900612388694324e-02  -4.0514127322156274e-03 1.1085977879236433e-01 1.3999589829495706e-02  -3.5977388802100867e-03 1.1139499838933521e-01 1.5509257860851054e-02  -3.1839652698991447e-03 1.0474501315302229e-01 1.3128513100546685e-02  -4.9188030903489386e-03 1.0575532827287545e-01 1.6354467039667996e-02  -5.3424718385264997e-03 1.1260418662190666e-01 1.7607651558430443e-02  -5.7582832135886722e-03 1.1187332497932791e-01 1.6805636573965728e-02  -6.5361775104959838e-03 1.0644235867895088e-01 1.9213700975897852e-02  -6.9737264532513266e-03 1.1343679139013939e-01 1.9423791182274344e-02  -7.3377292723143753e-03 1.1254379822531940e-01 1.9281572549386585e-02  -8.0873784714498072e-03 1.0685022121809622e-01 2.1810065177991497e-02  -8.5502884688657757e-03 1.1393486401189595e-01 2.1056800993959686e-02  -8.8545075525209068e-03 1.1290692246230948e-01 2.1519477899443917e-02  -9.6633699401035660e-03 1.0700518936613429e-01 2.4381551162831576e-02  -1.0161901948623278e-02 1.1412813984190745e-01 2.2650585383498036e-02  -1.0384560746289873e-02 1.1298906320526246e-01 2.3718758330157574e-02  -1.1468315877712004e-02 1.0686031480202215e-01 2.7349693230457158e-02  -1.2001221849491787e-02 1.1391469989205243e-01 2.4529849151243004e-02  -1.2138208377640406e-02 1.1268946133332258e-01 2.6241213242286090e-02  -1.3496869248253551e-02 1.0637282394856061e-01 3.0706535554438103e-02  -1.4088664957109852e-02 1.1323336519010134e-01 2.6710794451295119e-02  -1.4141502530308726e-02 1.1188772825564203e-01 2.9159551370698516e-02  -1.0933123234302133e-02 1.2186334892502147e-01 2.2375521042329122e-02  -1.1798541591308954e-02 1.1761301572628408e-01 2.3677100959634434e-02  -9.6580812557774225e-03 1.1771636878481623e-01 2.2627435466057375e-02  -1.0995860448360253e-02 1.1908397406901906e-01 2.1208401880282876e-02  -1.2983051511423470e-02 1.1898034648674458e-01 2.1637946112217261e-02  -1.2252023830656886e-02 1.2325297135091769e-01 2.1419825562493191e-02  -1.2265817770157885e-02 1.2000002348183822e-01 1.9855470018489071e-02  -1.4108495766396688e-02 1.1990404428075903e-01 1.9732975301250909e-02  -1.3488424116323052e-02 1.2417442391269978e-01 2.0480744897176283e-02  -1.3479705577305903e-02 1.2052963536982414e-01 1.8521894482302230e-02  -1.5158454194664090e-02 1.2044045106207163e-01 1.7896069782351375e-02  -1.4647162676614159e-02 1.2469571541724973e-01 1.9526752535933171e-02  -1.4677944999921682e-02 1.2071596425259554e-01 1.7060747019101305e-02  -1.6190351375297837e-02 1.2064239335345925e-01 1.5945947894196785e-02  -1.5759874512497118e-02 1.2487213962362394e-01 1.8426611668709385e-02  -1.5934393379068240e-02 1.2041302676151945e-01 1.5384526160112384e-02  -1.7219884925485766e-02 1.2041252346235624e-01 1.3622990990741863e-02  -1.6911248745825679e-02 1.2454608922050253e-01 1.7105997914120097e-02  -1.7188860487533056e-02 1.1952204584403762e-01 1.3422841081615245e-02  -1.8190839661778910e-02 1.1962049569684882e-01 1.0963502565981475e-02  -1.8056654651052901e-02 1.2362998099995867e-01 1.5503677125034782e-02  -8.5758038815574346e-03 1.2174597244118919e-01 2.0440886087529198e-02  -1.0080922097878189e-02 1.2302859575059899e-01 2.0506326962457608e-02  -1.1450129955413382e-02 1.2387325848442010e-01 2.0469089725558422e-02  -1.2742331469452719e-02 1.2432961832544542e-01 2.0353411434670024e-02  -1.4007893915695761e-02 1.2443757529071336e-01 2.0092867317301383e-02  -1.5400981348053342e-02 1.2400096509996286e-01 1.9841114644410081e-02  -1.6853285791732765e-02 1.2291974846519199e-01 1.9407948109290033e-02  -1.1632865768352712e-02 1.0304761571590966e-01 2.5142795585914205e-02  -1.4174158299542406e-02 1.0312212554380934e-01 2.7492442427168782e-02  -2.8786420817519566e-03 1.0861793767013206e-01 1.7620201485928279e-02  -2.0862908893203363e-03 1.0224914095955516e-01 1.5744975090030207e-02  -2.7366810895954009e-03 1.0810836989962361e-01 1.5881981714535996e-02  -4.5329001400079517e-03 1.0946285973668997e-01 1.7762719563425629e-02  -3.9252614958378224e-03 1.0371358478943364e-01 1.7902891811942809e-02  -6.2269915156763934e-03 1.1044195484345093e-01 1.9400423206304758e-02  -7.8815556264831676e-03 1.1107725546098442e-01 2.0871304995115622e-02  -9.5865372380373928e-03 1.1141158346099045e-01 2.2298293407526103e-02  -1.1539173493187756e-02 1.1137417368869738e-01 2.4001482144941268e-02  -1.3788008320689608e-02 1.1085214964702497e-01 2.6084220610930783e-02  -7.1876497783671355e-03 1.0387998536831526e-01 2.3754774941767996e-02  -8.5959813903968632e-03 1.0506036950889230e-01 2.1229310946014636e-02  -1.0009859384985619e-02 1.0581410331827762e-01 1.8907107549466218e-02  -1.1410366953101533e-02 1.0622897857419439e-01 1.6752052527293195e-02  -1.2878730794571922e-02 1.0636308983183723e-01 1.4536788179275903e-02  -1.4466369114029038e-02 1.0600030075452832e-01 1.2092325161444671e-02  -1.6160594916326813e-02 1.0505971626703109e-01 9.3195640174470080e-03  -2.6024380291166578e-03 1.0354429792702677e-01 1.4451203641293738e-02  -4.3889784541160763e-03 1.0479906295795220e-01 1.7199611624959477e-02  -6.0810462526030120e-03 1.0568212350486240e-01 1.9620047618692772e-02  -7.7280848686032411e-03 1.0626588709604644e-01 2.1810773977153461e-02  -9.4371339745868543e-03 1.0659832207994731e-01 2.4025885760548819e-02  -1.1388189330703256e-02 1.0663824982768612e-01 2.6590066354192476e-02  -1.3584899048868001e-02 1.0635667652475417e-01 2.9610732953507170e-02  -1.8130634422124071e-02 8.8219605363713358e-02 2.3953371198413995e-02  -1.5759458188416370e-02 9.8088855343946180e-02 2.5348061571199860e-02  -1.7715285806141290e-02 9.9337125115013220e-02 2.4695298246673259e-02  -1.8134640184238368e-02 1.0008880055715938e-01 1.9780561974254700e-02  -1.6324832580462623e-02 9.8753289252695109e-02 2.0553831526383601e-02  -1.8322506700969216e-02 8.8450211447659688e-02 1.8403765288765552e-02  -1.8542970357335587e-02 8.8597933325522668e-02 1.3660062186879750e-02  -1.6834552123889502e-02 9.9134246772049170e-02 1.6317458294033881e-02  -1.8498675308448755e-02 1.0056509156846373e-01 1.5435472713267291e-02  -1.7408803814881087e-02 9.9324916174744815e-02 1.2422758171380164e-02  -1.8855816506769662e-02 8.8652925922700895e-02 9.2205514181997617e-03  -1.8900617711154782e-02 1.0083741293643676e-01 1.1441657846341619e-02  -1.8046194438572832e-02 9.9307306326412922e-02 8.3225397422803417e-03  -1.9231667202355709e-02 8.8556590367406290e-02 4.4040789496150754e-03  -1.9363468314249798e-02 1.0090520825858254e-01 7.2373122547774952e-03  -1.9586862996938240e-02 8.8296166411577739e-02 -1.0068965542253268e-03  -1.8632121935615888e-02 9.9039979802959380e-02 3.5858794532191195e-03  -1.9789494915011779e-02 1.0077826639843770e-01 2.3651786653132280e-03  -1.9803011178257741e-02 8.7945991849048583e-02 -6.8910923631163796e-03  -1.9059516253118400e-02 9.8490909809930929e-02 -1.6214927286684947e-03  -2.0046968113222385e-02 1.0042927417755833e-01 -2.9471529048698607e-03  -1.4426348881001970e-02 1.0407981050350572e-01 2.3142311237362247e-02  -1.9098841841618450e-02 8.3063955849139406e-02 -6.1163247652866069e-03  -2.7251463264092196e-02 1.1369916446156408e-01 1.8285786965556806e-02  -2.7692718528509103e-02 1.2431596220880899e-01 2.2041615301842191e-02  -2.5935986370342060e-02 1.2264090035332198e-01 2.1271031817868061e-02  -2.7233737746036796e-02 1.1224554867350184e-01 2.2865693293887546e-02  -2.6114688213202380e-02 1.2386742053007635e-01 1.8320852027421727e-02  -2.7243266905348472e-02 1.1472506347048407e-01 1.4463466264357306e-02  -2.7781849431346217e-02 1.2549354222785150e-01 1.9249471057827226e-02  -2.6232853879801055e-02 1.2465220163303656e-01 1.5779826904960676e-02  -2.2450914381886955e-02 1.0494690146180768e-01 2.1686053537794108e-02  -2.0560665122395773e-02 1.0388957667408248e-01 2.2684792741418099e-02  -2.1063938161514674e-02 1.1306444645605797e-01 2.3673973452629678e-02  -2.1577610155557283e-02 1.1463756070355559e-01 1.9688226807087005e-02  -2.0901914213794906e-02 1.0503909595176120e-01 1.7911947601341235e-02  -2.2668631842444831e-02 1.0625037117426366e-01 1.6782572128612418e-02  -2.1922895836995946e-02 1.1576931671709725e-01 1.6188466563238274e-02  -2.1092367777056292e-02 1.0587675818293112e-01 1.3740858756729772e-02  -2.2773595559512819e-02 1.0720972541538969e-01 1.2603655378340415e-02  -2.2190023183326191e-02 1.1655228967410323e-01 1.3009541690318708e-02  -2.1284086134144051e-02 1.0647988868914340e-01 9.9118391041809976e-03  -2.2880097895220098e-02 1.0792838039035740e-01 8.7793096754313384e-03  -2.2459331573207463e-02 1.1714513447503136e-01 9.4625915062557069e-03  -2.1502907220529666e-02 1.0693711824388989e-01 5.6453278465779201e-03  -2.3021404345747464e-02 1.0854164946756720e-01 4.3712469205414951e-03  -2.2725622803360237e-02 1.1755401058352784e-01 5.2550083496954170e-03  -2.1753151052787131e-02 1.0721050880022283e-01 7.6998355678048447e-04  -2.3166321374068870e-02 1.0903442144852067e-01 -6.2391288040378168e-04  -2.2849367191060746e-02 1.1778333057155090e-01 5.5514883754763779e-04  -2.1847014340018074e-02 1.0741565583849652e-01 -4.5586304753052779e-03  -2.3196480712395030e-02 1.0946119526522015e-01 -6.0385649730809099e-03  -1.8144707656383055e-02 1.3225102185119297e-01 2.0859687780161819e-02  -1.6861030349634841e-02 1.3155942182560454e-01 2.2271985610209981e-02  -1.4008345152163119e-02 1.2901738946597760e-01 1.8515602010198241e-02  -1.5247208805432774e-02 1.2963822324649193e-01 2.0701897955069985e-02  -1.7942609734919058e-02 1.3268740753257069e-01 2.2908072774229779e-02  -1.9099650905478847e-02 1.3302637084310268e-01 2.2570945168074806e-02  -1.6311626117593476e-02 1.2987100467444790e-01 2.2562310163670260e-02  -1.8865345616340339e-02 1.3331975861188364e-01 2.3400100935052195e-02  -1.9907465824793982e-02 1.3334948233062494e-01 2.4013957431561747e-02  -1.7242195060449078e-02 1.2976079316989864e-01 2.4161943336284478e-02  -1.9654183755428441e-02 1.3352687886322911e-01 2.3741364216912961e-02  -2.0588088908435359e-02 1.3327381916609676e-01 2.5222215676400126e-02  -1.8094539056812377e-02 1.2933992265516256e-01 2.5484293946720332e-02  -2.0347433423036521e-02 1.3341448172521503e-01 2.3801513634898810e-02  -2.1110470628156165e-02 1.3295239389509408e-01 2.6028922245519368e-02  -1.9119388496772808e-02 1.2810502798277154e-01 2.7092828013086306e-02  -2.1110842651085961e-02 1.3269470354821650e-01 2.3739153574250885e-02  -2.1793477888542356e-02 1.3184839438560797e-01 2.7047564222382383e-02  -2.0128338342599326e-02 1.2628013796715071e-01 2.8426724042173165e-02  -2.1839741077042493e-02 1.3133686813675499e-01 2.3343573014835615e-02  -2.2462481257246262e-02 1.3004980811386205e-01 2.7675466021998000e-02  -2.1852269413951943e-02 9.6804096958544056e-02 2.0851289216050239e-02  -2.1935337674423801e-02 9.7548685986560274e-02 1.5408739297054842e-02  -2.1967666191264227e-02 9.8108939456212990e-02 1.0813313438522527e-02  -2.2023603760128432e-02 9.8512678836433692e-02 6.4989116053673400e-03  -2.2119622799601696e-02 9.8807613426994095e-02 1.6566197741087459e-03  -2.2256300282035214e-02 9.8993594194313764e-02 -3.8146558780761800e-03  -2.2272534296812925e-02 9.9115501864749045e-02 -9.5967191279590931e-03  -1.5656890195012912e-02 1.2846948539542946e-01 1.7330649673274662e-02  -1.6757721386065506e-02 1.2875613405917102e-01 2.0180121631867796e-02  -1.7678738012013091e-02 1.2869864951771307e-01 2.2644815093007226e-02  -1.8445137174336119e-02 1.2835133125342540e-01 2.4740046859625969e-02  -1.9050437762245763e-02 1.2777986794944202e-01 2.6512414200645405e-02  -1.9902882834372301e-02 1.2633034625366443e-01 2.8774192877818735e-02  -2.0777713463650444e-02 1.2415299462786140e-01 3.0861628573248666e-02  -5.8422274316602104e-03 1.1046903543457962e-01 2.1673915273228365e-02  -7.3829762740977743e-03 1.1184623418851698e-01 2.0490165607352818e-02  -8.8941516744669366e-03 1.1278891083138171e-01 1.9340377490418153e-02  -1.0387941441312555e-02 1.1335692603401165e-01 1.8210346627559465e-02  -1.1939432375045664e-02 1.1358602625185701e-01 1.7024580520949829e-02  -1.3648546959649566e-02 1.1330746666673193e-01 1.5769306561577923e-02  -1.5522792086900574e-02 1.1240308650783144e-01 1.4393441290076799e-02  -2.2523358211081177e-02 1.3076337958887052e-01 1.8946041848660593e-02  -2.1455632910473647e-02 1.3290055564544079e-01 2.0950554864210377e-02  -1.9786950220298995e-02 1.2679292738565265e-01 1.6119103078077238e-02  -2.0479508343456646e-02 1.2671999643420287e-01 1.9763230555521892e-02  -2.2128990894296156e-02 1.3355025675113469e-01 2.3024958573389535e-02  -2.3040599374955888e-02 1.3104031610940892e-01 2.1881804222951409e-02  -2.1030908513008002e-02 1.2631842407679197e-01 2.2938100357354191e-02  -2.6525278917791460e-02 1.3005761548951203e-01 2.3961778498682789e-02  -2.6777455842020459e-02 1.3122441208353747e-01 2.2176610382356455e-02  -2.6912425113684066e-02 1.3187882940301435e-01 2.0617634064850218e-02  -1.4212214547371895e-02 1.2958058937665620e-01 2.1336390090833782e-02  -1.5422748398940419e-02 1.3072090175713622e-01 2.2016517307686907e-02  -1.6519743133035236e-02 1.3139893738197608e-01 2.2551247668609154e-02  -1.7501778493972824e-02 1.3166446034792179e-01 2.2938835945364406e-02  -1.8398773902193011e-02 1.3160837614561638e-01 2.3109432658567439e-02  -1.9335564141208867e-02 1.3097807582487325e-01 2.3177215096606599e-02  -2.0313105790883249e-02 1.2965318418932475e-01 2.2958745861465454e-02  -1.4810625484608040e-02 1.0309477925466214e-01 3.3643426131468444e-02  -1.4340804141622341e-02 8.9283379714901787e-02 3.5583024422041615e-02  -1.4090281586116407e-02 9.7249010814850267e-02 3.4902989341606162e-02  -1.2442737498198702e-02 9.8136513739968526e-02 3.0094197250377392e-02  -1.3197752049782373e-02 1.0432828728169691e-01 2.9101866657799295e-02  -5.0307388098550579e-03 1.0613469276221943e-01 2.2032450850453685e-02  -6.6561478957791681e-03 1.0744239859701896e-01 2.0586107104152599e-02  -8.2433602437865759e-03 1.0834034129158440e-01 1.9215560240937589e-02  -9.8144450365905290e-03 1.0886420952141444e-01 1.7888730695852863e-02  -1.1456728584611154e-02 1.0907026893833913e-01 1.6548643781369606e-02  -1.3294751135665486e-02 1.0878249744982085e-01 1.5128059564562316e-02  -1.5344393234042013e-02 1.0784263355867189e-01 1.3640148610706214e-02  -1.8036427617560566e-02 1.2925394507049737e-01 1.7693227715344321e-02  -1.8945820607607484e-02 1.2949400474607442e-01 2.0664981812974239e-02  -1.9691879609956317e-02 1.2937355193859412e-01 2.3252393961712695e-02  -2.2674309229894603e-02 1.3374887576376163e-01 2.4801340987546033e-02  -2.1425999492352233e-02 1.2570877527296653e-01 2.5617523118572530e-02  -2.0280079096487779e-02 1.2896266356876726e-01 2.5451155567717706e-02  -2.3094783774896623e-02 1.3356367615564488e-01 2.6275663058808223e-02  -2.1702976702000217e-02 1.2485276557956257e-01 2.8008285427211982e-02  -2.0740068722456057e-02 1.2831642780124222e-01 2.7304194943114486e-02  -2.3406500243539383e-02 1.3311629109684281e-01 2.7400935255468519e-02  -2.2161953930146496e-02 1.2308039706432454e-01 3.1042718285868569e-02  -2.1383180044941170e-02 1.2679161273616624e-01 2.9629525675005337e-02  -2.3790953893320043e-02 1.3185181292912623e-01 2.8702835179317994e-02  -2.2609236541417291e-02 1.2051688731041678e-01 3.4057904053368310e-02  -2.2039540364269881e-02 1.2449695731632492e-01 3.1810741993753527e-02  -2.4154071685771866e-02 1.2984201137941245e-01 2.9688301221864322e-02  -1.8524282788827885e-02 8.8838975529891895e-02 -3.1104859468392082e-03  -1.7993783428218665e-02 8.9479705641531501e-02 2.4560082324450398e-03  -2.5629551009982501e-02 1.2082218450709888e-01 2.4650085835107551e-02  -2.3998688926699280e-02 1.2724964005535594e-01 2.5495808795343331e-02  -2.6176556721495950e-02 1.2825014672601903e-01 2.5909812181084690e-02  -2.4505541425110813e-02 1.2901854295081794e-01 2.3395552697675102e-02  -2.4910080102931734e-02 1.3016889108049928e-01 2.1491617241796782e-02  -2.5170957413570602e-02 1.3083670848242415e-01 1.9781881581377364e-02  -2.6367593537514535e-02 1.2528921795170328e-01 1.2748737714112116e-02  -2.5416390358603533e-02 1.3127710526512246e-01 1.7720515373542318e-02  -2.7019390448394853e-02 1.3231144111988888e-01 1.8670408143910532e-02  -2.6479657006551645e-02 1.2576592678489948e-01 8.9777687143551676e-03  -1.5499470323766645e-02 1.1664637991098858e-01 2.4460015332081305e-02  -1.7361389778408808e-02 1.1247598854349142e-01 2.4566636967689081e-02  -1.6161458531826142e-02 1.0743845406455689e-01 2.4684760867350095e-02  -1.6861108513323661e-02 1.0847534481227922e-01 2.0595980716636163e-02  -1.8073162074135313e-02 1.1378312111653491e-01 2.0840010410864987e-02  -1.6402975600947649e-02 1.1805097756086043e-01 2.1536667482419190e-02  -1.7496123738683950e-02 1.0912674737312737e-01 1.6960948142228389e-02  -1.8717504351048759e-02 1.1468724969618033e-01 1.7536998525952991e-02  -1.7253779171419736e-02 1.1899562901469858e-01 1.8891536433509458e-02  -1.8099184913938571e-02 1.0947971078663987e-01 1.3558027144991006e-02  -1.9288729709545229e-02 1.1525760263021376e-01 1.4451355278767172e-02  -1.8013550547645408e-02 1.1957196562242275e-01 1.6395730418325479e-02  -1.8734449368922036e-02 1.0959441708966425e-01 9.9407667602977989e-03  -1.9874664616209070e-02 1.1556471804143988e-01 1.1159058970779354e-02  -1.8764702847495068e-02 1.1986658673126946e-01 1.3728422791383929e-02  -1.9309789841459812e-02 1.0944780572402735e-01 5.6840967100422494e-03  -2.0370099663414288e-02 1.1560870477804662e-01 7.2194436312635153e-03  -