<?xml version="1.0"?>
<VTKFile type="UnstructuredGrid"  version="0.1"  >
<UnstructuredGrid>
<Piece  NumberOfPoints="710" NumberOfCells="2979">
<Points>
<DataArray  type="Float64"  NumberOfComponents="3"  format="ascii">6.136166158715032 3.822571241300565 3.274886713764307  6.222709764726726 3.903240936330124 3.233301474856872  6.159754876272062 3.893551683049547 3.147282827938702  6.124341676795716 3.944699879429323 3.168865309765043  6.185014255098896 3.953153403802282 3.258233508213139  6.105755736591256 3.876258330530458 3.300292664108877  6.075609419627858 3.930134289264108 3.32573086346799  6.147660909661735 4.003454231840695 3.283207162570597  6.089237524357851 3.996198876695072 3.190469208989109  6.045545838065894 3.984212870036775 3.351248995851003  6.110405055972965 4.053934815241482 3.308259444701666  6.054216409314396 4.04792004140217 3.212155883768835  6.0154319766718 4.038395630702425 3.376848665546305  6.073073968944207 4.10450700499042 3.333379983959187  6.019111480349337 4.099765041198624 3.233916986313173  5.983742961802297 4.151664299348034 3.255712749459991  6.035459349720901 4.155098954266355 3.358541155388977  5.98509901820474 4.092702798264269 3.402504169489289  5.947713189505186 4.203452815253006 3.277561785392614  5.997129415149553 4.205497362368132 3.38373999971797  5.954215323704203 4.147139456752471 3.428239807947751  6.033015285135861 3.957036522866772 2.485090290710156  6.005692477651858 3.926858314443983 2.623887975571126  6.112815556335619 4.004067308679018 2.582912431269406  6.077059231394999 4.055807499475136 2.587836388054631  5.971395285136457 3.977868932939475 2.631269583228787  5.999000536452023 4.008912784416517 2.488498219165445  5.937427766078018 4.029320697335232 2.638608184443515  5.965309347618031 4.061246353196456 2.491892539814128  6.041601041523227 4.108002364920687 2.592736643536631  5.903408171802544 4.081026352057269 2.645988212187662  5.931637217254336 4.113833288957746 2.495315822428493  6.006205339646885 4.160430608382407 2.597666101272193  5.869205130155776 4.13288713359384 2.653404401193326  5.897812226331258 4.166510854488606 2.498774558822274  5.970693063381772 4.212922607886663 2.60263233786044  5.863664498807376 4.219155985289006 2.50227033297276  5.834576158437923 4.184812660410462 2.660871594161703  5.934925120226441 4.265309579643115 2.607647934454209  5.828981811865893 4.271613139161663 2.505804412856929  5.799329108731897 4.236589667773156 2.66842964571068  5.898669936146946 4.31743923815168 2.612704219009634  5.733735295330242 4.031395138303977 2.023438990853864  5.657719962393249 4.013329018849689 1.879796099278702  5.778527954554974 4.053002277878773 1.87595975212305  5.678458264204282 3.950848401921297 1.881984508684221  5.757863397661137 3.972066691355431 2.023004902997647  5.756574290363064 4.115039113589663 1.871038938640301  5.709496580552551 4.090938281862366 2.023903721333174  5.63687485596162 4.076058113086777 1.877635368296881  5.734416551590543 4.177160160692333 1.866189116335573  5.684969130886293 4.150628773730016 2.024470152911679  5.61574591094383 4.13903302613814 1.875592713633348  5.711913845365187 4.23930759525157 1.861463614401032  5.659920163350006 4.210397463308258 2.025213336134686  5.594146706867406 4.202213845138335 1.873748808674332  5.503816972730406 3.717745363490922 2.446694785063803  5.608876105370785 3.753622772771769 2.329880235840471  5.475060755578077 3.720138047809851 2.324768893597981  5.46316265760479 3.778037997413046 2.328494914240889  5.591216155660037 3.810208239556239 2.335248452937499  5.492629250691381 3.775703699126632 2.450275699188259  5.48151216689492 3.83387227392096 2.453987056365051  5.573726683345972 3.867168672328784 2.340654975647356  5.451324847591845 3.836300534791802 2.332304486002881  5.470332435309651 3.892379048185086 2.457747531513054  5.556184580138972 3.924445182062482 2.346113330518509  5.439428264594548 3.894896545693953 2.336171609523839  5.538491619331985 3.982020471717504 2.351597708200103  5.459021590550446 3.95127805952368 2.461525646150141  5.427415743970467 3.953902475649028 2.340066515079156  5.520542130513414 4.040031866005188 2.357139304854186  5.447568455190455 4.010649953934611 2.465275325420519  5.415254841554984 4.013385387946191 2.344005843177225  5.502149290133665 4.098618274431161 2.362833189573159  5.436041137504592 4.070716606904687 2.46899353617808  5.402841018197978 4.073551769840385 2.34798261690842  5.955816304409664 3.812396134582933 3.027939686655101  5.994743245626038 3.862953996096322 2.905567548624556  5.875984398046093 3.804916230683712 2.909106148925267  5.851100558697389 3.860999373930781 2.919387908605414  5.963665835130034 3.916096941122914 2.916855671831525  5.929275401211817 3.868270289129236 3.041942431692714  5.902890644539897 3.924369386407581 3.056003953511937  5.932802737370827 3.96962159313811 2.928153402521537  5.826318119382653 3.917399927362311 2.929766630691297  5.876541950230967 3.980701159118842 3.070116072324304  5.901953521222571 4.023384263549272 2.939498381853149  5.801534736075917 3.97403873456064 2.940181960933346  5.850093548341252 4.037215538451929 3.084281561915555  5.870968425970766 4.077334156628556 2.950896140820355  5.77662839005212 4.030911833021201 2.950629523213366  5.823444306969642 4.093945757820519 3.098445621084384  5.839680129815836 4.131457168770607 2.962342058503137  5.75150593587099 4.088104616561759 2.961050930445106  5.807797936915681 4.185674342417721 2.973823407464133  5.796237328913136 4.151067134807614 3.112609752199065  5.725873517385177 4.145868147524881 2.971472667456308  5.907275941645332 3.765583004466432 3.152838751031717  5.831658128152075 3.768521863212402 2.999702724986903  5.811494161657934 3.827340031894322 3.009837606737384  5.886592415784807 3.825406042908241 3.167891319348152  5.791351720356103 3.886376667343137 3.020110608501883  5.865951522939557 3.885343721285208 3.183056322732894  5.771201209676156 3.945635122019731 3.030453300198979  5.845290971821086 3.945459205943873 3.198294062007385  5.750961604329127 4.005113546939129 3.040836725208018  5.824570969300063 4.005770065971142 3.213578319648778  5.730611817838883 4.064901308836649 3.051187391622388  5.803748198952219 4.066394827001088 3.228870462929969  5.710191168680228 4.125231177058276 3.061443867287865  5.782831920421403 4.127635757659182 3.244100145007581  5.988848805943825 4.282066803763691 1.900507104645354  5.928173005631683 4.243627742553975 1.793236940378828  6.047290040468973 4.271335649023044 1.710234757099518  5.950527930260407 4.182132721272498 1.804182341986012  6.013511050077674 4.222528469848848 1.911020279065448  6.02731156843045 4.332478156754011 1.693585538122784  5.963837950846921 4.341404400016172 1.890000941346344  5.905498391559152 4.305040313521369 1.782307834392505  6.280491086515354 4.117740947791112 2.663498268874296  6.296397624963699 4.105411086288909 2.831994576040755  6.365077596748239 4.174020413317361 2.740937593059936  6.327128890187447 4.230689257558859 2.746786595650759  6.256338764132637 4.158095285805604 2.842701128357591  6.24274054661562 4.171912704514685 2.668015685283197  6.289715395711887 4.287549697958701 2.752543517139334  6.216682890509758 4.21113877381593 2.853334023670448  6.205451846345365 4.22635626504315 2.672453405062706  6.252561326600092 4.344418015933704 2.758294252855424  6.17721254944169 4.264329591939813 2.863981484426617  6.168401081669483 4.280904509198016 2.676889838263557  6.21546370304655 4.401173984810493 2.764072637404557  6.137747695182673 4.317491287944208 2.874677857363377  6.13138494054353 4.335406689301482 2.681377099110424  5.650758274975062 3.734831860289661 2.753530940741861  5.75955990230649 3.761440407434661 2.865362909851531  5.769475518690051 3.780374744619796 2.735131183817155  5.746681744242399 3.836121371658344 2.740597160443508  5.739492989062611 3.819191804805048 2.871635574480625  5.635020778536047 3.793012726165429 2.757115195607874  5.724006967870227 3.892179214122858 2.746182590507337  5.719438053977131 3.877255683958189 2.878030905725432  5.619286951362961 3.851473518471013 2.760872380685994  5.701283290005815 3.948507366076147 2.751778517475185  5.699360196848231 3.935574495563808 2.88448283864084  5.603474947114993 3.910208851723247 2.76468280395189  5.67842144894999 4.005122696685859 2.757373251251521  5.679192504346584 3.994158667792446 2.890938184003399  5.587580140287698 3.969244384297457 2.7684713328207  5.655314687153137 4.062118530899368 2.762920974057126  5.658895138899919 4.05308429337381 2.89731930337835  5.571582000642414 4.028643942018262 2.77217207568438  5.631713733235466 4.119638167038427 2.768382653529414  5.63839289926868 4.112534519869802 2.90354270142397  5.555464407182222 4.088630011039942 2.775681235393195  5.432086804788863 3.725551223670982 2.083418426908465  5.373383869337287 3.707325480774589 2.234984843767408  5.510190167420771 3.736054196303498 2.198178329437145  5.49546445240573 3.794031755337168 2.202570758182116  5.364752969996205 3.766177578993104 2.238336198441971  5.41990163934229 3.785182598348436 2.087194526977004  5.480833527520605 3.852444552378924 2.206976319959705  5.356163865390113 3.825293185352383 2.241754889218101  5.407785111783633 3.845148725209032 2.090938757008863  5.466158124133659 3.91122904339598 2.211420438340918  5.347530500223264 3.88481953240729 2.245214002171014  5.395641546148254 3.905490113743769 2.094700314066865  5.451363292160784 3.970393782439534 2.215905839310377  5.338806040483099 3.944752136216885 2.248707234585976  5.383396460404095 3.966222331670606 2.098517855264732  5.436360838448304 4.029977204798141 2.220479948354265  5.329969017448806 4.005144584399792 2.252248339895806  5.370973888055492 4.027397562826971 2.102457293030227  5.420969128663419 4.090046159999485 2.225243960424578  5.321045550244237 4.066087066847752 2.255866553297248  5.358204159925323 4.089157358235858 2.106621516431397  6.075145378582302 3.882265396221322 3.040772027601136  6.041574170566144 3.934710854235421 3.05
[...]
<PointData  Vectors="f_24"> 
<DataArray  type="Float64"  Name="f_24"  NumberOfComponents="3" format="ascii">-1.7774645608253408e-02 8.9645367428658931e-02 3.6530688403380709e-02  -1.8388093869930938e-02 8.8269212530343144e-02 3.7501269592543469e-02  -2.0599727500206631e-02 9.6044601743187130e-02 3.8570813370034977e-02  -1.7988414728636080e-02 9.6358443559074455e-02 4.2032098040341387e-02  -1.5915625657575996e-02 8.8200503577185299e-02 4.1004413219111219e-02  -1.5350049288290573e-02 8.8996511669872228e-02 4.0483369665608546e-02  -1.3246700988185046e-02 8.8453322172044740e-02 4.3785229070993401e-02  -1.3763068485299498e-02 8.8096264033337979e-02 4.4082393499023674e-02  -1.5747471848337694e-02 9.6561366872452967e-02 4.4983174362612843e-02  -1.1247443145330013e-02 8.7914924096261893e-02 4.6898874110345691e-02  -1.1744474315086573e-02 8.7946205241139191e-02 4.7098067985547026e-02  -1.3691849854364443e-02 9.6681482805333271e-02 4.7827416710276884e-02  -9.1816106299013028e-03 8.7314837846997714e-02 5.0074133913381842e-02  -9.5424656327603562e-03 8.7933378477814100e-02 5.0102231540859500e-02  -1.1541530941067895e-02 9.6799124439369374e-02 5.0864849769896726e-02  -9.5408495803668680e-03 9.6116116067892665e-02 5.5130740875028485e-02  -7.3942586790584379e-03 8.7412616202354312e-02 5.3931310712437307e-02  -6.9796031244986649e-03 8.6308146939013008e-02 5.4019309053460710e-02  -6.7148040938703061e-03 9.6313306649269251e-02 5.8008263942666768e-02  -4.9945079326439764e-03 8.6935823770718290e-02 5.7617088556027700e-02  -4.6973480826627669e-03 8.4932551373233231e-02 5.8379141328883430e-02  -2.7204556410636030e-02 1.1685425421867572e-01 4.2596300769507933e-02  -2.8036116841179494e-02 1.2026971136395599e-01 4.3009838388730071e-02  -2.6672420984202076e-02 1.1255961113118318e-01 4.0614884969602021e-02  -2.4120030788261630e-02 1.1476674650890381e-01 4.0488660336521438e-02  -2.5716950240177512e-02 1.2263024445529652e-01 4.3187500180069407e-02  -2.4910822873649732e-02 1.1909997997963991e-01 4.1496634434207522e-02  -2.3588572918363877e-02 1.2443836195611133e-01 4.3464919769783630e-02  -2.2898837424526166e-02 1.2075561478995103e-01 4.0688506265675155e-02  -2.1960272458032722e-02 1.1638705833831821e-01 4.0551823538478894e-02  -2.1685811195677040e-02 1.2589555676320990e-01 4.3815311602842404e-02  -2.1130626787309190e-02 1.2202166890960815e-01 4.0080887275385599e-02  -2.0091198159250999e-02 1.1763742983171298e-01 4.0676369236014288e-02  -1.9760614272985335e-02 1.2716680860689289e-01 4.4275796575128333e-02  -1.9094066583445975e-02 1.2326636124953562e-01 3.9366528972256593e-02  -1.7840146930452959e-02 1.1901393258397773e-01 4.0549750017748160e-02  -1.6203453490594218e-02 1.2459164452116249e-01 3.8108801053656945e-02  -1.6871858523789269e-02 1.2835320797982380e-01 4.4357280260629933e-02  -1.4955169366680360e-02 1.2050565302049328e-01 4.0276605482840046e-02  -1.2870654360417733e-02 1.2574073748795697e-01 3.6759817513386847e-02  -1.3453406925997545e-02 1.2964366489467954e-01 4.4323124925288296e-02  -1.1624611431676818e-02 1.2194450831874573e-01 3.9964154598921754e-02  -1.4001102784368048e-02 1.0315387867492519e-01 3.5475739768121836e-02  -9.8723719494610215e-03 8.9361336452198445e-02 3.4570592200660735e-02  -1.0467373523613736e-02 8.5936402711993515e-02 3.3474641782333350e-02  -1.1093277997317554e-02 8.9331053240210137e-02 3.8902295421570685e-02  -1.5295107351025326e-02 1.0273871365464403e-01 3.9157972941355021e-02  -8.8045078714542018e-03 8.5686787797384589e-02 2.8697577096417695e-02  -1.2377408664287909e-02 1.0344494566323047e-01 3.1211979816671124e-02  -8.4232370042901499e-03 8.9191171733423419e-02 2.9189939843097652e-02  -7.2954552078316305e-03 8.4977688629645068e-02 2.2460001779130535e-02  -1.0559736762573903e-02 1.0342121477392278e-01 2.5611362640657814e-02  -6.9791635688801626e-03 8.8699799792414880e-02 2.2510752222044173e-02  -5.6653515036460449e-03 8.4083058890238205e-02 1.5721392001771764e-02  -8.5873416692293144e-03 1.0308162906999500e-01 1.9401832710530191e-02  -5.5488160762542675e-03 8.8002932021172903e-02 1.5161377503631937e-02  -2.2635733138135491e-02 1.4317451048403818e-01 5.4811769336070432e-02  -2.2918153901983342e-02 1.3374595455984228e-01 5.4217807510333151e-02  -1.9938487314268578e-02 1.3822800900622143e-01 5.6583655819219598e-02  -1.8690458597027608e-02 1.3984638856472303e-01 5.2968342764069268e-02  -2.1477447812584125e-02 1.3558546002325655e-01 5.0900764498762748e-02  -2.1089466346417691e-02 1.4498556003672020e-01 5.2633088674526332e-02  -1.9738332592214448e-02 1.4627793091372013e-01 5.0665138872811676e-02  -2.0146694795477479e-02 1.3696140155875916e-01 4.7988344850196728e-02  -1.7596723988137157e-02 1.4098540761989217e-01 4.9790705909946747e-02  -1.8559969828359970e-02 1.4713584349469289e-01 4.8962330188166377e-02  -1.8962803064550372e-02 1.3796886775988165e-01 4.5545845936372752e-02  -1.6665448511694655e-02 1.4174998222955693e-01 4.7113361052584783e-02  -1.7712292499217804e-02 1.3872490977682575e-01 4.3478947268435042e-02  -1.7308340949292737e-02 1.4769744934831275e-01 4.7453818567406117e-02  -1.5615981566827917e-02 1.4226289613964443e-01 4.4839248115967061e-02  -1.6033368522222469e-02 1.3959209785818838e-01 4.0992051764606005e-02  -1.5522613864564482e-02 1.4833559231637752e-01 4.5350032175539942e-02  -1.3988379388264969e-02 1.4292734455021885e-01 4.2057038069414687e-02  -1.3696203549631504e-02 1.3990963298535972e-01 3.6934985164794848e-02  -1.3660381276129112e-02 1.4809131591645938e-01 4.3122754929730431e-02  -1.2362550765521233e-02 1.4271009516510372e-01 3.7763189563315008e-02  -2.3552718386007664e-02 1.1309291851163324e-01 4.0800327710020200e-02  -2.6188170788865348e-02 1.1627186676967173e-01 4.1673366162923102e-02  -2.5736104577684066e-02 1.2297053780100312e-01 4.2922915044113455e-02  -2.3254984860185235e-02 1.2416383349641932e-01 4.5913910115975211e-02  -2.3577084241300103e-02 1.1775182099763830e-01 4.4391630789258736e-02  -2.0988804903055765e-02 1.1370389959698639e-01 4.4444545544673204e-02  -1.8736614508199072e-02 1.1420632684593510e-01 4.7320365036676970e-02  -2.1255052046001928e-02 1.1895051520222251e-01 4.6583615266930764e-02  -2.0988942026705457e-02 1.2508261052338518e-01 4.8267661372855181e-02  -1.6708797981332259e-02 1.1457755755231473e-01 4.9825595752206180e-02  -1.9201019045006915e-02 1.1993799509807737e-01 4.8541775190017296e-02  -1.8972256304822955e-02 1.2581711277520030e-01 5.0256527295678241e-02  -1.4731456102103264e-02 1.1471486473157254e-01 5.2438876868299115e-02  -1.7139893442529985e-02 1.2077851810054242e-01 5.0757356522714799e-02  -1.7212780557020923e-02 1.2630686499509214e-01 5.2404717506584139e-02  -1.2869769157867134e-02 1.1463327367305437e-01 5.6371138945330995e-02  -1.4633980757768717e-02 1.2087702240475277e-01 5.3338508459760008e-02  -1.4767375918463185e-02 1.2614987588325302e-01 5.5094270799499370e-02  -1.1438697229088857e-02 1.2126573454750909e-01 5.5830172917824189e-02  -9.9585373087272885e-03 1.1431005592360062e-01 5.9816723268261728e-02  -1.1615277168755121e-02 1.2605167894642333e-01 5.8141241401213427e-02  -1.9656365932517881e-02 1.0764318426441014e-01 3.9838107583523102e-02  -2.3393506756793612e-02 1.2072802773590534e-01 4.2187356573097655e-02  -2.0939625252666755e-02 1.2134915460521943e-01 4.5984375456313807e-02  -1.7291260843937183e-02 1.0745129828496401e-01 4.4242411348833978e-02  -1.8796836372335476e-02 1.2180507406038227e-01 4.8937198417570001e-02  -1.5305604022611259e-02 1.0734043568739422e-01 4.7650778588782597e-02  -1.6880111226752609e-02 1.2209891809847222e-01 5.1352005271370994e-02  -1.3483731514326920e-02 1.0720117175377297e-01 5.0628713169575783e-02  -1.5215214472387066e-02 1.2212157499932075e-01 5.3799578037707234e-02  -1.1692057567253486e-02 1.0691811474361719e-01 5.3577793658922748e-02  -1.3432896475118215e-02 1.2213646517331372e-01 5.7335249638359544e-02  -9.6510551966664422e-03 1.0620150872467632e-01 5.7182004314356438e-02  -1.0566687589736895e-02 1.2148657036910844e-01 6.1211851164537208e-02  -7.3610545533455331e-03 1.0468689170537493e-01 6.2771677013894925e-02  -8.3308313536384210e-03 8.1672189095961328e-02 2.2701630034051512e-02  -6.7783556896634451e-03 7.2983562197443203e-02 2.2268953266738625e-02  -6.6257528538696646e-03 6.2689673531988330e-02 2.2791695848534591e-02  -8.1328515248306355e-03 7.4129459171519432e-02 2.7880623362075866e-02  -9.9656305023406826e-03 8.2545327551242956e-02 2.7560085408346702e-02  -5.4004496014156151e-03 6.0974049425190691e-02 1.7285559333647903e-02  -6.4541016105185449e-03 8.0645028222953039e-02 1.7616284772908743e-02  -5.2517443360053607e-03 7.1686852010485205e-02 1.6338208923040578e-02  -2.3015944266943800e-02 1.0130272487048221e-01 3.7660901756216170e-02  -2.2009681634587590e-02 9.8207303451768674e-02 3.8266506378918201e-02  -2.0399345402641478e-02 9.5740557438801138e-02 3.7001403886829341e-02  -1.7847764066352113e-02 9.6852619158825579e-02 3.8150973788790121e-02  -1.9257455077761040e-02 9.9745814922855613e-02 3.9892431118327416e-02  -2.0273259794876725e-02 1.0294302677673554e-01 3.8301431775831549e-02  -1.5957265060540449e-02 9.7632878573851029e-02 3.9277376955629308e-02  -1.7108006544095052e-02 1.0082499974694448e-01 4.1515287488802240e-02  -1.8198187428337571e-02 1.0408977078924450e-01 3.8993182546825836e-02  -1.4303984832517004e-02 9.8290608225912415e-02 4.0260520348886060e-02  -1.5275276911666590e-02 1.0169484294120133e-01 4.3089421145181016e-02  -1.6447178483218292e-02 1.0498665535645876e-01 3.9606624050604396e-02  -1.2038886258884721e-02 9.9385039992864660e-02 4.1140529732609996e-02  -1.3017137047904342e-02 1.0290389310206591e-01 4.4412026005481102e-02  -1.4167095138369582e-02 1.0620605433627597e-01 4.0002572772439890e-02  -2.5892970106348886e-02 1.3903780852579015e-01 4.7547168301456472e-02  -2.5651777729633271e-02 1.3058185459263849e-01 4.4551132664401472e-02  -2.7406753973466379e-02 1.3371023153737455e-01 4.6235500423002077e-02  -2.5307941646573264e-02 1.3559969924731891e-01 4.7581810957995990e-02  -2.3395646057396868e-02 1.3195753571008897e-01 4.7280967338045786e-02  -2.3829593203754027e-02 1.4072784043691527e-01 4.9116301894649925e-02  -2.3250603813209970e-02 1.3700779880605124e-01 4.8686262262760578e-02  -2.1261935530158725e-02 1.3293141160351393e-01 4.9533575174796209e-02  -2.1937946221637982e-02 1.4195924532570361e-01 5.0420453819417850e-02  -2.1334064914776591e-02 1.3804363055263483e-01 4.9606992462238458e-02  -1.9375302427455322e-02 1.3363037593456548e-01 5.1321312903489964e-02  -2.0192623279680709e-02 1.4279240481759839e-01 5.1458390600544447e-02  -1.9568923207702711e-02 1.3883019924158399e-01 5.0406263016833361e-02  -1.7570270568016282e-02 1.3411869478424185e-01 5.2895923940106358e-02  -1.8551250441140619e-02 1.4331556049995692e-01 5.2248864109818195e-02  -1.7614557624174298e-02 1.3980266854397411e-01 5.1277714513086554e-02  -1.5371344243371731e-02 1.3475009006535718e-01 5.4593092251858433e-02  -1.6402148490162520e-02 1.4390440342373076e-01 5.2312970917377397e-02  -1.4908845940868149e-02 1.4007772303417784e-01 5.3008242324148955e-02  -1.2948068212710587e-02 1.3423849315901737e-01 5.8083192979055009e-02  -1.4478721054650444e-02 1.4314130112790033e-01 5.5150987774075594e-02  -1.3273318723600476e-02 1.1933783930607646e-01 5.7754444820538160e-02  -1.5336057702739292e-02 1.3466538355484428e-01 5.8491086278602993e-02  -1.7995349300214063e-02 1.2805279603707415e-01 5.6759839446367748e-02  -1.6933812657981794e-02 1.2939900156665735e-01 5.1817667098570171e-02  -1.4445126581172805e-02 1.3596274547970080e-01 5.3696203714037799e-02  -1.2595866133895399e-02 1.2008861672007741e-01 5.1591758202742526e-02  -1.6072724260832255e-02 1.3035787475861782e-01 4.7654386000184124e-02  -1.3801664457682362e-02 1.3685086513549360e-01 4.9628454789317149e-02  -1.2090255515697090e-02 1.2071676889610652e-01 4.6708789117781875e-02  -1.5290478382671013e-02 1.3107000829029317e-01 4.4233285507291956e-02  -1.3283569412494166e-02 1.3749022759448826e-01 4.6278659222134103e-02  -1.1584532278937666e-02 1.2129937042963826e-01 4.2645316212449415e-02  -1.4307623902770508e-02 1.3160554139352668e-01 4.1272850813004677e-02  -1.2566499967250833e-02 1.3793874329228895e-01 4.3449633660042480e-02  -1.0648412506749689e-02 1.2183985476428116e-01 3.8717152721309940e-02  -1.2817077164602593e-02 1.3225455687389318e-01 3.8003256783676685e-02  -1.1428717433084365e-02 1.3780165923111923e-01 4.0424640377968564e-02  -9.3057961668877916e-03 1.2158204799813119e-01 3.3338329282400693e-02  -1.1209037140054253e-02 1.3197204465983484e-01 3.1898251255165745e-02  -1.0132874328657147e-02 1.3710177408115548e-01 3.4113522643423239e-02  -8.0990203386093369e-03 1.2096343054137194e-01 2.6459643532676474e-02  -2.3022133617667879e-02 1.0591264678754835e-01 4.0294706982425023e-02  -2.0416584608784667e-02 1.0676636244976746e-01 4.3534638348641498e-02  -1.8133419420889686e-02 1.0744756576281536e-01 4.6223102364774386e-02  -1.6053004045592983e-02 1.0800325879056208e-01 4.8744929185800291e-02  -1.3857783485253686e-02 1.0845893869986158e-01 5.1720973985375958e-02  -1.1686936216206078e-02 1.0814923311435631e-01 5.5754019504388276e-02  -8.6121023733983070e-03 1.0861697444492840e-01 5.8383298712602547e-02  -1.1380801622848647e-02 9.3299346252562879e-02 2.8594828927252916e-02  -1.3304598110232135e-02 9.3196328218064839e-02 3.2279759630784693e-02  -9.4980098169690132e-03 9.2908535258233768e-02 2.3572896382430864e-02  -7.3488513398841876e-03 9.2290347758340344e-02 1.8221787978328925e-02  -1.5424273376549074e-02 1.1454331129144937e-01 5.5262828033416887e-02  -1.9586331404875919e-02 1.2250006173247072e-01 5.4298747314639843e-02  -1.6760313785126487e-02 1.0837730815629622e-01 5.2808204859478750e-02  -1.5670243009709307e-02 1.0904029560956693e-01 4.6780693067007509e-02  -1.8409054489055228e-02 1.2390414043119954e-01 4.9381820590804482e-02  -1.4580428239986488e-02 1.1530728794447559e-01 4.9203222916275144e-02  -1.4751474261568960e-02 1.0962124057795643e-01 4.2189265066836762e-02  -1.7412490620565470e-02 1.2493539721735249e-01 4.5309468519825681e-02  -1.3869874735645649e-02 1.1596321607251001e-01 4.4491322162978034e-02  -1.3803534947149766e-02 1.1018938684537261e-01 3.8276362234282560e-02  -1.6463871258770219e-02 1.2578283669427101e-01 4.1951730058145155e-02  -1.3143381451158259e-02 1.1658384286794941e-01 4.0521138533827238e-02  -1.2679642750885418e-02 1.1059518344698045e-01 3.4054506686644087e-02  -1.5217459903418594e-02 1.2655441831790606e-01 3.9105069116880907e-02  -1.2138492529723441e-02 1.1717298822883157e-01 3.6856041891878057e-02  -1.0890449315565685e-02 1.1056454933905492e-01 2.8404376638625002e-02  -1.3456542081029567e-02 1.2688485152543050e-01 3.5659291240735178e-02  -1.0241106541349578e-02 1.1707640392012614e-01 3.2480270245455592e-02  -9.0289492392268498e-03 1.1026572782791498e-01 2.1898730983467642e-02  -1.1334788308425808e-02 1.2699795005784548e-01 2.9247755199662752e-02  -8.8134329647730943e-03 1.1666737411702445e-01 2.4466131490078497e-02  -9.9230531859219560e-03 1.0302568593046227e-01 4.8808400118512937e-02  -1.1444481516179350e-02 9.6884151542987115e-02 4.6590791322895800e-02  -1.0702843024806105e-02 9.7135036200101679e-02 4.1659227434298216e-02  -9.4406980099572303e-03 1.0344678835172107e-01 4.3745852217481153e-02  -9.8645888232319900e-03 9.7443412646310096e-02 3.7204141104494853e-02  -8.8624437556440016e-03 1.0392664471355670e-01 3.9256020699181896e-02  -8.7630788462975864e-03 9.7602662351419317e-02 3.1981759810506119e-02  -7.8462600417910002e-03 1.0431288793516605e-01 3.4197584910834709e-02  -7.3979707023828214e-03 9.7374088352310026e-02 2.5322071469443513e-02  -6.7709081778548411e-03 1.0408027078650872e-01 2.7435027418136693e-02  -6.1132153691366969e-03 9.6887065247174789e-02 1.7789644422923301e-02  -5.7580237093752176e-03 1.0360607116021277e-01 1.9748466304712206e-02  -2.1689926431875502e-02 1.0642859722991276e-01 4.5068354258141659e-02  -1.8130695386768869e-02 9.2997982139831750e-02 4.3863333807955672e-02  -1.9528802307271515e-02 1.0207713054426071e-01 4.6511098135495949e-02  -1.7884440051159252e-02 1.0264549464826313e-01 4.1483977232079521e-02  -1.6436679151328362e-02 9.3003566668549073e-02 3.9032244879669276e-02  -1.9831837657174566e-02 1.0743868171852783e-01 4.0821613256838390e-02  -1.6499918264642630e-02 1.0307782092355652e-01 3.7692319806273855e-02  -1.4956354961237664e-02 9.3055614815942572e-02 3.5461015122476382e-02  -1.8307207281507806e-02 1.0812471734862536e-01 3.7561903433778097e-02  -1.5001252988050233e-02 1.0350147602856598e-01 3.4409463340998689e-02  -1.6725754279439616e-02 1.0871218786725195e-01 3.4772182178853292e-02  -1.3151661305273633e-02 1.0385692384054290e-01 3.0603020118489643e-02  -1.4766061278689660e-02 1.0927258097973928e-01 3.1526897277472224e-02  -1.1153814641950015e-02 1.0388018223197282e-01 2.5545229808327310e-02  -1.2498225058034060e-02 1.0957046050650507e-01 2.7200373188909010e-02  -8.8874657575545388e-03 1.0360533338629921e-01 2.0027315647170630e-02  -9.9093321119450347e-03 1.0959047936511102e-01 2.2503954026468851e-02  -2.7451379711041741e-02 1.2628342869359063e-01 4.3907781097060818e-02  -2.7940158612397993e-02 1.1983059377087794e-01 4.2607365865878218e-02  -2.5497118438086826e-02 1.2194286862633269e-01 4.4046230561558257e-02  -2.5113849958337542e-02 1.2803944121941530e-01 4.5934655139423387e-02  -2.3221705356768169e-02 1.2360963454643133e-01 4.5325123772612184e-02  -2.2875489914014151e-02 1.2938204830292271e-01 4.7617115362679055e-02  -2.1206091876900451e-02 1.2496985900970212e-01 4.6519544986480407e-02  -2.0869628872819214e-02 1.3044779526392272e-01 4.8993942361527480e-02  -1.9197038706421997e-02 1.2616379463816621e-01 4.7609510980120347e-02  -1.9114788451149403e-02 1.3125683298463978e-01 5.0302107884949855e-02  -1.6641671387861125e-02 1.2696596208416072e-01 4.9049391903868193e-02  -1.7142739390775843e-02 1.3167211972672188e-01 5.2139988309854779e-02  -1.3320685291804357e-02 1.2793865500335647e-01 5.0386162096670344e-02  -1.3556475267318348e-02 1.3218469408454037e-01 5.4348841008924231e-02  -2.0277626279024664e-02 1.0077248988353819e-01 3.8468589857186361e-02  -1.7755598139166523e-02 1.0065477684412258e-01 4.2501737555968998e-02  -1.5589630270623668e-02 1.0058394361666553e-01 4.5749530587279777e-02  -1.3588767234371503e-02 1.0047202942871902e-01 4.8659412262059262e-02  -1.1572347422524984e-02 1.0019589936724912e-01 5.1691387273594312e-02  -9.6933521731724717e-03 9.9858943420965324e-02 5.5763896199892062e-02  -7.1605146683107780e-03 9.9009957572049792e-02 6.0023074780272891e-02  -2.2434080029099898e-02 9.9905789057106065e-02 3.9559382818391331e-02  -1.9131710096759340e-02 8.9200038567506218e-02 3.8280085670766684e-02  -2.0225214054613905e-02 9.2400542331201596e-02 3.8678598707332638e-02  -1.7515814650997615e-02 9.3311495146892617e-02 4.1340902618378160e-02  -1.6541876404556750e-02 8.9647451629426209e-02 4.1410195533997704e-02  -1.9721904872653965e-02 1.0102189828064639e-01 4.2369227336808937e-02  -1.5321301799418494e-02 9.3889758519990027e-02 4.3869973605752705e-02  -1.4365880900874180e-02 8.9904459129040090e-02 4.4275641811139604e-02  -1.7436390375416968e-02 1.0184382619767253e-01 4.4863845191395746e-02  -1.3356715342653851e-02 9.4340115597780119e-02 4.6379806856736545e-02  -1.2378257692904961e-02 9.0071376666519223e-02 4.7128344663318472e-02  -1.5391550642901129e-02 1.0250554636660765e-01 4.7306949511233057e-02  -1.1134263844891350e-02 9.5087406242153796e-02 4.8719202410334082e-02  -1.0177187739045083e-02 9.0501820688807993e-02 4.9863735008990842e-02  -1.3227892352693041e-02 1.0323609000751217e-01 4.9752002997835686e-02  -8.8302827787012546e-03 9.5725954980716163e-02 5.1384844030740069e-02  -8.0065785515276745e-03 9.0556843620184735e-02 5.3106016760999422e-02  -1.0802499436672969e-02 1.0360582380502939e-01 5.2588525678870519e-02  -6.2875744941081040e-03 9.6513230128712699e-02 5.4001815615000816e-02  -5.5382149027497019e-03 9.0779735842188000e-02 5.6300442845540435e-02  -7.8843978423368301e-03 1.0428320939474868e-01 5.5387711209143507e-02  -1.351638049