<?xml version="1.0"?>
<VTKFile type="UnstructuredGrid"  version="0.1"  >
<UnstructuredGrid>
<Piece  NumberOfPoints="708" NumberOfCells="2953">
<Points>
<DataArray  type="Float64"  NumberOfComponents="3"  format="ascii">2.732335376117434 1.66638585452141 1.290071810752866  2.722950465402513 1.820323141355819 1.239402432854118  2.840498700174469 1.747052140861566 1.257027532418624  2.838006570746491 1.727167329260977 1.198873334768759  2.719543608276602 1.800481269578528 1.181166422553479  2.729195632697138 1.64624814321405 1.230829993240138  2.835580694609585 1.707288046412273 1.140678693780197  2.71616071225073 1.780646286974157 1.122890738777097  2.726089635822877 1.626100368369329 1.171540583342557  2.83318058012887 1.687406608899301 1.082457210156879  2.712782907055408 1.76080999128512 1.064592257678306  2.722991246875437 1.605947501501507 1.112217682646655  2.830762850662639 1.667530216772567 1.024211737039129  2.709384556216063 1.740973452585005 1.006273502290385  2.719871850186728 1.585806611846631 1.052859343882602  2.828277939249429 1.647667016352889 0.9659291587650127  2.705938789081356 1.721139543619658 0.9479202003588051  2.716700401368031 1.56569893092354 0.9934447301293239  2.825663071658508 1.627820563046296 0.9075814962504192  2.702416814164366 1.701303766422468 0.8894957279824569  2.713439913092545 1.545643363543238 0.9339231979165886  2.364546205299263 2.068719226109992 1.167084175005611  2.451092077502237 2.182216092197378 1.110734044669502  2.488677200063918 2.032695312667722 1.175186548539333  2.485844062163256 2.008934583906315 1.117808948857671  2.449441214418546 2.154950123677402 1.053289534029942  2.362997380912755 2.043352025486791 1.109986929677849  2.361466665049976 2.01801429527365 1.052872437819488  2.447804067667725 2.127701693210768 0.9958432681704744  2.483008074496295 1.98519793697831 1.06042070814903  2.35993080246027 1.992698878405088 0.9957369509284891  2.44617335071305 2.100464911806218 0.9383924378470571  2.480161652458699 1.961471322232308 1.003024513077387  2.358382171398155 1.967365728763672 0.9385867948010616  2.444524045881999 2.07322326773683 0.8809395090936363  2.477288177126619 1.937745248034914 0.9456245087069159  2.356816375911399 1.941964408472779 0.881426426574328  2.442855690962623 2.045922394464775 0.8234977546541681  2.474386062912941 1.913991921387302 0.8882213142052765  2.355227565946931 1.916457686186253 0.824274762704548  2.441185204937754 2.018520452942468 0.7660837049803439  2.471500021928948 1.890136763405394 0.8308123058552099  2.833823160162062 1.897446599888609 1.20698266505497  2.831007992040145 1.877192144730455 1.149526460129607  2.82824876913051 1.856953244971137 1.092031164120068  2.825514266357088 1.836714536945205 1.034516403069451  2.822764035321357 1.816470131476002 0.9769906491386641  2.819954446840018 1.796213517891558 0.9194463416659968  2.817032387853741 1.775928153957172 0.8618657104663962  2.625838839706284 1.73555469654092 1.273994355985354  2.621794032435346 1.715732915079366 1.214885210231872  2.617748567245513 1.695905056203223 1.155736670965698  2.613691527690761 1.67607184480461 1.096556089487759  2.609608759672883 1.65624649681362 1.03734652319407  2.605487716833109 1.636446541731382 0.9780939407494098  2.601326939903608 1.616689602297162 0.918768547074549  2.922441510566666 1.993031037938122 1.168084460005123  2.968016789682111 1.833903506421042 1.222795298772328  2.92043880460831 1.972346928599854 1.11086116479221  2.966210915395237 1.814018124402225 1.165701739470076  2.918528943198429 1.951685010424158 1.05361909001514  2.964509206915313 1.794148825209307 1.108572000423656  2.916657261331845 1.931025308861308 0.9963740079968451  2.962851431645515 1.774280138996774 1.051427497265887  2.914771955952282 1.910355596814184 0.9391333393780477  2.961179363357724 1.754407986504537 0.9942720782877388  2.912813800635992 1.889660340635979 0.8818934443589579  2.959426701852094 1.73452823455821 0.937095697481701  2.910704264356507 1.868911132043669 0.8246353463620641  2.95750911882058 1.714623260668019 0.8798769438442655  2.380656458126288 1.936671835390152 1.219151768206795  2.377695660958337 1.914108721425019 1.161319243119937  2.374744682001644 1.891570797156041 1.103465417280866  2.371774983662018 1.869048589415275 1.045594710164282  2.368770404173579 1.846527822035787 0.9877056416694813  2.365745281212057 1.82395973764327 0.9297922596563676  2.362717081385468 1.80131190828793 0.8718398481372437  2.714663345481976 2.068316919879569 1.149199163149893  2.806372483887765 1.999113244641923 1.170899199546333  2.722144626093435 1.948844730736004 1.19420264271706  2.718861785676475 1.927777522754298 1.136562618734658  2.803665895374258 1.977708604445061 1.113488044870838  2.711802489749874 2.045421403285286 1.0916444450193  2.715603676814784 1.906723260290174 1.078888156796295  2.801014443791623 1.956323404633981 1.056047683124529  2.708973327572699 2.022543378125622 1.034074547771511  2.712352880464966 1.885670033707824 1.02120121183365  2.798383287418082 1.934940066020933 0.9986001739778831  2.706156600321338 1.999668238775901 0.9765008281605784  2.709082514384415 1.864610061922282 0.9635076006117639  2.795735468357914 1.913546934661912 0.9411530267472661  2.703321298780739 1.976782452924662 0.9189314624404255  2.705765427256114 1.843533875673695 0.9058007629142496  2.793030316385225 1.892128358367626 0.8837033938060226  2.700434992228813 1.953865773911471 0.8613672439389971  2.702373650294487 1.822413830754352 0.8480585051543316  2.790218338009891 1.87065283559177 0.8262334295962377  2.697470614277227 1.930882034798636 0.8037989858861928  2.623452240330737 1.587264587993803 1.322966067156039  2.618956634154294 1.566125973281125 1.262705730673973  2.614447722035387 1.544957150231506 1.202396409207169  2.609926012792548 1.523779556237751 1.142051967292681  2.605380090501109 1.502625029385522 1.081665911346445  2.600800931043038 1.481529238512427 1.021216745397473  2.596193656331598 1.460527233951107 0.9606622189152496  2.945209395168748 1.676458759560379 1.278502490213004  2.943676208732978 1.656199441478679 1.220594013487558  2.942250375965757 1.635931837370934 1.162633551051664  2.940869705617879 1.615661566259725 1.104648998922509  2.939470691623445 1.595396707840963 1.0466369971189  2.937983288347934 1.575142496253256 0.9885742027782509  2.936341160785982 1.554916936056275 0.9304246486889675  2.256563764297882 1.969439712327065 1.211400566057641  2.25491500296849 1.945339055743168 1.153960477216332  2.253293699792547 1.921280852783105 1.09649318753744  2.251670699048877 1.897242636470052 1.038996405177222  2.250040644150641 1.873168039504105 0.9814756052724612  2.24838202734241 1.849027863588309 0.923935761075623  2.246700765203938 1.824794746258084 0.8663832121500123  2.606402779533791 1.999052007076425 1.182892334839154  2.603079886145051 1.976787545368076 1.12527415837647  2.599761233775985 1.954538056286903 1.067637464794835  2.596438892558161 1.932292084117787 1.009988830399614  2.593093653150435 1.910040696409236 0.9523356899962695  2.58970916994183 1.887770550256424 0.8946766604204396  2.586285519573413 1.865456064880536 0.836998153228353  2.523647987307352 1.656262262508522 1.308192601303362  2.518617674030544 1.635498938032518 1.248408172478592  2.513555487071171 1.614714225059268 1.188578133282323  2.508465282632015 1.593921833222377 1.128717416437457  2.503343924127986 1.573147280625865 1.068820955848178  2.498196773841161 1.552420245957247 1.008870274766937  2.49305687754 1.531760303404592 0.9488271911477573  2.611443819060383 1.865667498726733 1.230608230614203  2.607616995595732 1.845277075461303 1.172359437561381  2.603789221090357 1.82489441718825 1.114078692544992  2.599951008828276 1.804511820512277 1.055778185964108  2.596086776238832 1.784128955141231 0.9974621754798501  2.592185878842047 1.763746546988445 0.9391232212953197  2.588247189229936 1.743363062758458 0.8807375820126175  2.178644448512966 1.636571798712365 1.347363768307033  2.288853453923155 1.726177109346711 1.302742969058726  2.298315917007149 1.626758915773408 1.338966916617082  2.29244592875405 1.60384596879537 1.279205102792998  2.284172373259024 1.70424288041675 1.243597018939764  2.172303259117634 1.612611013621251 1.288038411506644  2.286550805774405 1.580879881856393 1.219419752381884  2.279483328070595 1.682291244146077 1.184427319629263  2.165934203356139 1.588581777940779 1.22871479144567  2.280610480305312 1.557899012716288 1.159612931147118  2.274754386564141 1.660337922383662 1.125234924637733  2.159515512716369 1.564537724493556 1.169375259278005  2.274630340291324 1.534945248858606 1.099778770329694  2.269978434175054 1.638401136956399 1.066016701399439  2.153058848767796 1.540500484660648 1.110005701610205  2.268633339420009 1.51205764341392 1.039895340814297  2.265182464703397 1.616466847772498 1.006751582268449  2.146590744793004 1.516489776785332 1.050578494425337  2.262669342322803 1.489238294605018 0.9799204659063445  2.26040972006959 1.594558072057849 0.9474030573803912  2.140188814418985 1.492563286519855 0.9910385422854128  2.156630624031318 1.526064087747533 1.395876607128921  2.276681586020161 1.533015874198635 1.379425361866569  2.266327400593965 1.416276572378371 1.432023815598247  2.269569208729763 1.50803483084607 1.319381019935352  2.148099136436988 1.498600998733792 1.336788409634459  2.256386709372238 1.387350406335945 1.372224887076698  2.262427191802057 1.482962194093216 1.259320391443508  2.139529110419601 1.471019321091965 1.277720765146592  2.246366343749277 1.358284627696172 1.312459494445362  2.255239964038052 1.457859610792873 1.199238371154538  2.130918344635144 1.443406318652777 1.218657413135279  2.236302120930782 1.329181995054974 1.252694282351362  2.248024072488847 1.432787398248005 1.139122237234713  2.122285422425784 1.415828922010547 1.159572339211195  2.226233869481641 1.30012182086037 1.192893295684815  2.24080834224783 1.407796476661086 1.078948004388882  2.113660506792346 1.388350974584256 1.10042
[...]
<PointData  Vectors="f_24"> 
<DataArray  type="Float64"  Name="f_24"  NumberOfComponents="3" format="ascii">5.2821020154797851e-02 -8.2215050579970195e-02 -1.1490351904063625e-01  5.4170297060554796e-02 -8.6034460464716120e-02 -1.2071137374715615e-01  5.2162904925989358e-02 -8.4433234229076698e-02 -1.1551046181059367e-01  5.3915929966776729e-02 -8.6527930802643496e-02 -1.1504859989399675e-01  5.5705617177817301e-02 -8.7256289896828459e-02 -1.2094218924024749e-01  5.4304919423063883e-02 -8.5373451979480638e-02 -1.1381817302394788e-01  5.5427899929273786e-02 -8.7576522640746335e-02 -1.1444174166995397e-01  5.7123166961136521e-02 -8.7801711731243917e-02 -1.2067155014548096e-01  5.5633468211006266e-02 -8.7150417368130145e-02 -1.1287240205997481e-01  5.6772052194576386e-02 -8.7789218275035663e-02 -1.1389904144574578e-01  5.8433172369091693e-02 -8.7718882124470404e-02 -1.2026195728876771e-01  5.6893347038904224e-02 -8.7933261592786652e-02 -1.1213276551325778e-01  5.8172792474588057e-02 -8.8395415152428394e-02 -1.1303968311427230e-01  5.9770873491586232e-02 -8.7868075750451594e-02 -1.1964475641741189e-01  5.8253134404544125e-02 -8.9289266288448119e-02 -1.1103527395087137e-01  5.9805936073935063e-02 -8.9772735116232905e-02 -1.1117714610079364e-01  6.1269355724441879e-02 -8.8199175844045491e-02 -1.1813027156154256e-01  5.9699848849160242e-02 -9.1735103007480556e-02 -1.0884718285051814e-01  6.1483255923577243e-02 -9.1271973662514799e-02 -1.0846198280576373e-01  6.2836821594747128e-02 -8.8600604829527155e-02 -1.1559542407745883e-01  6.1184241278205459e-02 -9.4476011525635339e-02 -1.0585096908299742e-01  6.3614500624168013e-02 -8.8729396143115730e-02 -1.2260814047969534e-01  6.3223736783470361e-02 -8.6782234690795157e-02 -1.1322410991221885e-01  6.0651941416986946e-02 -8.8886888827847510e-02 -1.2272472640256661e-01  6.1560296176661318e-02 -8.6914227904261412e-02 -1.2442113771640416e-01  6.4152176785413448e-02 -8.2259698159938374e-02 -1.1551168534279305e-01  6.4120226523142268e-02 -8.6281037590068443e-02 -1.2456733968119793e-01  6.4623960460680002e-02 -8.4124930830431391e-02 -1.2564306117014598e-01  6.4951008143883660e-02 -7.9122677024817747e-02 -1.1682297223249791e-01  6.2408734486561618e-02 -8.5129705676012787e-02 -1.2524239250304353e-01  6.5208017049591324e-02 -8.2502648438909962e-02 -1.2609917322681408e-01  6.5761767873015103e-02 -7.7001050071123595e-02 -1.1752473433946424e-01  6.3195148142468890e-02 -8.3761989059403727e-02 -1.2549088855292462e-01  6.5956797967227476e-02 -8.0805541171288742e-02 -1.2637635827432481e-01  6.6874909611526867e-02 -7.4411700296999325e-02 -1.1825507401505830e-01  6.4278218451762292e-02 -8.2365121921026255e-02 -1.2555510359214409e-01  6.6715023756106925e-02 -7.7547154704873403e-02 -1.2627539768048202e-01  6.7814646222371211e-02 -6.9408885039772231e-02 -1.1897716776827409e-01  6.5340071989619136e-02 -7.9484108920201677e-02 -1.2518693653938862e-01  6.7381542449557089e-02 -7.3512289534729117e-02 -1.2522428613880346e-01  6.8855306852625808e-02 -6.3373863944220135e-02 -1.1908233026547349e-01  6.6451152358152105e-02 -7.5990420944764450e-02 -1.2380348190730192e-01  5.3184924671169448e-02 -8.7321254030959056e-02 -1.1771091299744231e-01  5.5006236468245484e-02 -8.7275555953097009e-02 -1.1840904983042566e-01  5.6665267870196406e-02 -8.6891696181264036e-02 -1.1849857099604440e-01  5.8120344297012280e-02 -8.6272709735321293e-02 -1.1828960215195612e-01  5.9562356014527515e-02 -8.5750836192742583e-02 -1.1787638867435211e-01  6.1236923004723776e-02 -8.4882967391875494e-02 -1.1678843728643380e-01  6.2982882673636512e-02 -8.3865043932412467e-02 -1.1471722497025419e-01  5.4660126673892612e-02 -8.3844181377943389e-02 -1.2077539626613930e-01  5.5906003980779065e-02 -8.6329057422365615e-02 -1.2033213626075831e-01  5.7134024363081015e-02 -8.7752632701861163e-02 -1.1970289706457962e-01  5.8353810152103780e-02 -8.8215275226460943e-02 -1.1913455868032689e-01  5.9644921825244113e-02 -8.9074748060163120e-02 -1.1822893203071339e-01  6.0952933316971838e-02 -9.0718581103968257e-02 -1.1631424312492221e-01  6.2297140504754205e-02 -9.2580016631810508e-02 -1.1345570460457309e-01  5.2583774654637795e-02 -8.7809356511359279e-02 -1.1265866280729728e-01  5.0942759740678613e-02 -8.6089682082762534e-02 -1.1327762862930257e-01  5.4590086975787530e-02 -8.6133869807641789e-02 -1.1379651299556839e-01  5.2961595831977959e-02 -8.6870209376971125e-02 -1.1342618409392145e-01  5.6447021588638707e-02 -8.4628509633747143e-02 -1.1419471134324216e-01  5.4741979682492801e-02 -8.7005443209738201e-02 -1.1320687723156893e-01  5.8101796200171529e-02 -8.3454702330307801e-02 -1.1417008006817959e-01  5.6276819002792904e-02 -8.6620745201913527e-02 -1.1286721103155124e-01  5.9621734143358619e-02 -8.2203091618241561e-02 -1.1406518367091936e-01  5.7788735889100981e-02 -8.6494204152167062e-02 -1.1230430361290744e-01  6.1426939678310380e-02 -7.9695058203387042e-02 -1.1350926141887629e-01  5.9579433656702145e-02 -8.6542361568618303e-02 -1.1093339774328503e-01  6.3287386561652587e-02 -7.6886071179764773e-02 -1.1205178174404319e-01  6.1408730811009872e-02 -8.6561036305854877e-02 -1.0868247477710453e-01  6.1415773061908589e-02 -8.7955222613875686e-02 -1.2727711412900469e-01  6.1891589554005672e-02 -8.7655361746090843e-02 -1.2842825801525651e-01  6.2421346589518416e-02 -8.7040620307316977e-02 -1.2885960496437737e-01  6.3038504276083221e-02 -8.6241027212207194e-02 -1.2887754767719259e-01  6.3960734180431245e-02 -8.5590057242896742e-02 -1.2868613894605863e-01  6.4720213079313402e-02 -8.4229429409391154e-02 -1.2768978741981532e-01  6.5477755473997395e-02 -8.2652794053223275e-02 -1.2556717925714347e-01  5.6840370874445365e-02 -8.8270029141916034e-02 -1.1556216941720097e-01  5.4522231547819509e-02 -8.8205306121192512e-02 -1.1620376044338690e-01  5.5389835580296247e-02 -8.8142152329054244e-02 -1.2023993291348033e-01  5.6982460472036880e-02 -8.7349571259577236e-02 -1.2132153703493924e-01  5.6327501204380730e-02 -8.6507248824483879e-02 -1.1747183072038624e-01  5.8481622903019614e-02 -8.5423303016975066e-02 -1.1718773177725446e-01  5.8450169997570481e-02 -8.6450202963340828e-02 -1.2166511143020065e-01  5.7974990960279249e-02 -8.5002181343886415e-02 -1.1795422239159140e-01  5.9921145355432998e-02 -8.3260865229602965e-02 -1.1795758019916731e-01  5.9806083106426496e-02 -8.5621248748739776e-02 -1.2157497036191448e-01  5.9416928703742253e-02 -8.3852715166765193e-02 -1.1797018853903399e-01  6.1212022389661148e-02 -8.1801057247272477e-02 -1.1816498873387343e-01  6.1142132863752738e-02 -8.4761818079443926e-02 -1.2132704044128709e-01  6.0886653668043272e-02 -8.2584131973113900e-02 -1.1786895252993415e-01  6.2610289925186885e-02 -8.0058486805532486e-02 -1.1831194161524874e-01  6.2660034461506475e-02 -8.3074423539070547e-02 -1.2047655533188230e-01  6.2539548244495480e-02 -8.0054308642798624e-02 -1.1734402727675493e-01  6.4137660031200569e-02 -7.6455687095913494e-02 -1.1822029714493595e-01  6.4267352567790537e-02 -8.1111084451001667e-02 -1.1857800341520981e-01  6.4274017558317617e-02 -7.7109219079316949e-02 -1.1585890170604675e-01  6.5757577044033982e-02 -7.2213265406640123e-02 -1.1723522092770999e-01  5.3182510107448164e-02 -7.9737953651983329e-02 -1.1218820960043435e-01  5.4408705710451220e-02 -8.3653075199722343e-02 -1.1050607220755221e-01  5.5659677573488019e-02 -8.5931531034760131e-02 -1.0932014546799335e-01  5.6945833054292919e-02 -8.7205151341472317e-02 -1.0843266339820939e-01  5.8223319250273894e-02 -8.9289676528640075e-02 -1.0703561183511569e-01  5.9453575041268990e-02 -9.2677308514851578e-02 -1.0453390720460436e-01  6.0726216204478878e-02 -9.6410941293554847e-02 -1.0135328020369729e-01  5.0705296183414010e-02 -8.2737692144318239e-02 -1.0908062732716398e-01  5.2545761151109240e-02 -8.5461401607583115e-02 -1.0799263688656749e-01  5.3985648843987794e-02 -8.6827419075928183e-02 -1.0716728561199745e-01  5.5253870244908417e-02 -8.7339727771182679e-02 -1.0651930603489891e-01  5.6683395736440587e-02 -8.8398478427191812e-02 -1.0551593371443502e-01  5.8363333255101998e-02 -9.0559541495348575e-02 -1.0344055234221310e-01  6.0082071811250866e-02 -9.2927256105003395e-02 -1.0059237264858921e-01  6.4493702996893040e-02 -8.7819466519063000e-02 -1.2745080276249193e-01  6.4534174923617682e-02 -8.7096676868657560e-02 -1.2882157785662512e-01  6.4692149714473832e-02 -8.6141565679785870e-02 -1.2947974105935980e-01  6.5063524800975145e-02 -8.5101498324924918e-02 -1.2969052448059076e-01  6.5645018555425996e-02 -8.4106230886675487e-02 -1.2966580413388909e-01  6.6057572155612795e-02 -8.2322840526383140e-02 -1.2895201351160934e-01  6.6339467452575671e-02 -8.0123505079018345e-02 -1.2711438852435178e-01  5.7947137266922438e-02 -8.8707794689058136e-02 -1.2169822531998402e-01  5.9253636937568167e-02 -8.7193191546371202e-02 -1.2313954995162991e-01  6.0433227438902823e-02 -8.5761489711852171e-02 -1.2376728767931819e-01  6.1519135774961091e-02 -8.4647705713889868e-02 -1.2385280889677623e-01  6.2747863329524187e-02 -8.3463513412047330e-02 -1.2375324274593619e-01  6.4074403570511002e-02 -8.1027768934784014e-02 -1.2318958083252039e-01  6.5497349201731642e-02 -7.8141862369643850e-02 -1.2156259352431031e-01  5.4986284229919302e-02 -8.1290148787776503e-02 -1.1871048979431391e-01  5.5939014038177748e-02 -8.4756850641332718e-02 -1.1757417795153832e-01  5.7065513014870638e-02 -8.6778353435124286e-02 -1.1661661702915070e-01  5.8281105005734274e-02 -8.7766840138453123e-02 -1.1587985653085930e-01  5.9482313825185117e-02 -8.9318851764411095e-02 -1.1472735383766794e-01  6.0540632839227233e-02 -9.1978783916022835e-02 -1.1244392925925004e-01  6.1655282408428679e-02 -9.4985934056349600e-02 -1.0933116522993627e-01  5.6299302972144416e-02 -8.6973338127077041e-02 -1.2388673710202634e-01  5.7545649541958281e-02 -8.7610481993561598e-02 -1.2450396835769488e-01  5.8735560171706391e-02 -8.7746892112089664e-02 -1.2451117837934783e-01  5.9913931279241245e-02 -8.7443264067371240e-02 -1.2424089761640930e-01  6.1165384455120986e-02 -8.7249869193705032e-02 -1.2373313712279753e-01  6.2458746646085264e-02 -8.6947992804388891e-02 -1.2239360634675722e-01  6.3852938539705792e-02 -8.6593212819078530e-02 -1.1995027606715039e-01  5.9058115341410963e-02 -7.9000781523759389e-02 -1.1985658616250942e-01  5.9331125327103565e-02 -8.2504007217648986e-02 -1.2476222757099568e-01  5.7260605831173129e-02 -7.9461877729297192e-02 -1.1894561778487357e-01  5.7666200622445415e-02 -8.3077261495269408e-02 -1.1756093985332633e-01  5.9513183846276803e-02 -8.5220355180626914e-02 -1.2419255117130651e-01  5.9152822532151345e-02 -8.2418408256142661e-02 -1.1851739849974927e-01  5.8527226888105736e-02 -8.5155327632967598e-02 -1.1657313989981692e-01  6.0093975547258843e-02 -8.6687850436258124e-02 -1.2362186230443736e-01  5.9785445076030563e-02 -8.4326012193510644e-02 -1.1763432709016301e-01  5.9516974503463473e-02 -8.6231679646865816e-02 -1.1585374048668091e-01  6.0930346169201184e-02 -8.7216444963330836e-02 -1.2315372556802201e-01  6.0582612583669232e-02 -8.5278937664680018e-02 -1.1702182662984419e-01  6.0380986591068192e-02 -8.8034639353542665e-02 -1.1456368710210849e-01  6.1771032797718707e-02 -8.8247635410686781e-02 -1.2222931046329168e-01  6.1232611275247657e-02 -8.6933330529050501e-02 -1.1579368789569366e-01  6.0967085996643661e-02 -9.0975524258509619e-02 -1.1210318111367065e-01  6.2315964635639147e-02 -9.0011533102932084e-02 -1.2020366649910025e-01  6.1574694146845320e-02 -8.9621942748909805e-02 -1.1340842763581910e-01  6.1568412666406655e-02 -9.4258589764847051e-02 -1.0885714335761422e-01  6.2836251945706842e-02 -9.2059796261498808e-02 -1.1718116412573600e-01  6.1914294302072979e-02 -9.2647596142913347e-02 -1.1020169130910147e-01  5.7197635032264382e-02 -7.5010489011272941e-02 -1.1108868356317035e-01  5.5963154771637512e-02 -7.6068806932699351e-02 -1.1159421889839112e-01  5.4704869956624894e-02 -7.1612110793083217e-02 -1.0032552564517266e-01  5.6536528317740170e-02 -8.0214097300361095e-02 -1.0951139835862404e-01  5.7615064716920412e-02 -7.8874228998602733e-02 -1.0896724947452478e-01  5.5397350147517371e-02 -7.5879562129179554e-02 -9.7636913304609621e-02  5.7475533614230793e-02 -8.2598919381217023e-02 -1.0824166216567221e-01  5.8394808384330914e-02 -8.1051185630383896e-02 -1.0770442187824274e-01  5.6278023207474215e-02 -7.8389750014476886e-02 -9.6066658785922035e-02  5.8477776998672779e-02 -8.4106523872268621e-02 -1.0729194430857361e-01  5.9168869474790907e-02 -8.2422382541627662e-02 -1.0673827764167985e-01  5.7149349460377544e-02 -8.0297781579897476e-02 -9.4765879817039655e-02  5.9271140694655278e-02 -8.6497631873723085e-02 -1.0565026928259967e-01  5.9743602269076747e-02 -8.4849125572152156e-02 -1.0493205855990752e-01  5.7807422985044342e-02 -8.3311775558857104e-02 -9.2594732473225458e-02  5.9843955864353232e-02 -9.0253952725579498e-02 -1.0284764661731197e-01  6.0119278642023023e-02 -8.8464580839397372e-02 -1.0201193404027019e-01  5.8398233863603710e-02 -8.7674618685689848e-02 -8.9394685433457841e-02  6.0443132257021644e-02 -9.4383480386415794e-02 -9.9458459089449114e-02  6.0559543197688692e-02 -9.2468927137760268e-02 -9.8509782094273857e-02  5.9006228280777860e-02 -9.2400580618423947e-02 -8.5830670998155098e-02  6.0056295753980783e-02 -8.7745209183517081e-02 -1.1445574940132394e-01  6.1413064577918001e-02 -8.3864558161667352e-02 -1.1644129057612133e-01  6.2504082072964262e-02 -8.1126412944228024e-02 -1.1749981923338652e-01  6.3549307760345314e-02 -7.9316818833006078e-02 -1.1796702955958639e-01  6.4797962482214685e-02 -7.7117906144547499e-02 -1.1839016393479247e-01  6.6078995896411682e-02 -7.2618919075024935e-02 -1.1874673071515356e-01  6.7463465667753367e-02 -6.7228316608584957e-02 -1.1834455608187429e-01  5.8927656898404575e-02 -8.7817682185372933e-02 -1.2600910136455601e-01  5.9805388629886068e-02 -8.7785213204023466e-02 -1.2699503104480969e-01  6.0671705760952953e-02 -8.7395559821660404e-02 -1.2728600946066454e-01  6.1607683615837967e-02 -8.6776592236670377e-02 -1.2719251346296082e-01  6.2675432512062604e-02 -8.6272026990488304e-02 -1.2688769487260734e-01  6.3726825314866689e-02 -8.5212593993662586e-02 -1.2579412947597812e-01  6.4848928622474641e-02 -8.3975587282487052e-02 -1.2353388059458426e-01  5.3469873615889174e-02 -7.7235322086281089e-02 -1.0892682701963627e-01  5.4497829666514480e-02 -8.1586822019563118e-02 -1.0684989511344742e-01  5.5699611771610202e-02 -8.4170923460951119e-02 -1.0551683349652068e-01  5.6955752909269165e-02 -8.5804940059090978e-02 -1.0452202710380659e-01  5.8116483359868860e-02 -8.8309041838432689e-02 -1.0294584171701907e-01  5.9118277025633818e-02 -9.2241528380702681e-02 -1.0023861201094171e-01  6.0163510118961337e-02 -9.6568655002543455e-02 -9.6942996428925399e-02  6.1900618551816423e-02 -8.5537404918640772e-02 -1.2821782323416922e-01  6.1959224246286033e-02 -8.6775198544477572e-02 -1.2861251846369715e-01  6.2244199596313173e-02 -8.7247676707606234e-02 -1.2858257281680194e-01  6.2808248257888083e-02 -8.7083803445226260e-02 -1.2840981695411352e-01  6.3533498219881898e-02 -8.7134545190989482e-02 -1.2792771050098448e-01  6.4010270259964280e-02 -8.7309155872706601e-02 -1.2644258181997656e-01  6.4428399570546246e-02 -8.7512020105479427e-02 -1.2379154446332052e-01  5.2973358615761926e-02 -8.4599182650167401e-02 -9.5968813101879255e-02  5.2677004791244743e-02 -8.5555085279447177e-02 -9.8857285452006241e-02  5.1826003703033328e-02 -8.2635075329229951e-02 -9.7223471709554948e-02  5.3831088149669151e-02 -8.6302911946637681e-02 -9.8069365490350419e-02  5.4086965038496027e-02 -8.5826178019726432e-02 -9.4979902321275039e-02  5.5225457087087995e-02 -8.7848999897683994e-02 -9.6776340441669176e-02  5.5458846197742266e-02 -8.8035357106474726e-02 -9.3401885939273122e-02  5.6953596940806726e-02 -9.0711386439331257e-02 -9.4361699574232474e-02  5.7056703349256971e-02 -9.1634161843283421e-02 -9.0723003942623351e-02  5.8668243301803542e-02 -9.3802671068549046e-02 -9.1356018041280296e-02  5.8655102627478951e-02 -9.5547948844539432e-02 -8.7538854876217848e-02  5.8325145785947254e-02 -8.5145444490727001e-02 -1.0517397090254314e-01  5.5111552824024128e-02 -8.7591605669697578e-02 -1.1066739426280787e-01  5.6995156376620823e-02 -8.4272308123536963e-02 -1.1229696838637861e-01  5.9982022800459972e-02 -8.0290887360332824e-02 -1.0719887210186663e-01  6.1333130469980332e-02 -7.7358009258313903e-02 -1.0831936421474296e-01  5.8649734565068105e-02 -8.1912339570069131e-02 -1.1305700587025419e-01  6.2656039228286262e-02 -7.5368400129834923e-02 -1.0894384086029414e-01  6.0135037758352126e-02 -8.0319441220360596e-02 -1.1330688660389303e-01  6.4111909962470293e-02 -7.2676651187277494e-02 -1.0966154715586718e-01  6.1610640944755782e-02 -7.8377974132423325e-02 -1.1351175324785348e-01  6.5623194960759246e-02 -6.7392972303412332e-02 -1.1050190847625409e-01  6.3323321040784877e-02 -7.4457715680994227e-02 -1.1357851707179081e-01  6.7212319380112476e-02 -6.1082321970599332e-02 -1.1081193664206107e-01  6.5073858076042268e-02 -6.9844844096252787e-02 -1.1284142189763548e-01  4.7937326155921875e-02 -6.7366259366582873e-02 -7.1308622494654139e-02  4.7813793342140899e-02 -6.9544242447173318e-02 -7.3453132091796644e-02  4.5871744040319219e-02 -6.3206160800610714e-02 -5.9657348250101397e-02  4.9044171223810738e-02 -7.1570985009830099e-02 -6.8158815999965108e-02  4.8922362993344480e-02 -7.3522815820490292e-02 -7.0479309248422800e-02  4.6925362680735661e-02 -6.6907610061784140e-02 -5.6293029438010199e-02  4.9876585778654899e-02 -7.6054495910889086e-02 -6.8618061960640978e-02  5.0100876920026793e-02 -7.4345317733986643e-02 -6.6163179867075192e-02  5.1403737171504114e-02 -8.0647182661739439e-02 -1.0773545194295801e-01  5.2988118183500237e-02 -8.4177014150983526e-02 -1.0613656727191130e-01  5.4276258610976888e-02 -8.6127685398828230e-02 -1.0500597593387230e-01  5.5496811530071556e-02 -8.7143186394211924e-02 -1.0417558169217332e-01  5.6848078674081939e-02 -8.8837447643807049e-02 -1.0291376633582310e-01  5.8404576004394769e-02 -9.1945752174004927e-02 -1.0049435095121732e-01  5.9976321900519054e-02 -9.5329054302365393e-02 -9.7406123464803998e-02  6.4058421337860785e-02 -8.1556476642433012e-02 -1.2533413657826747e-01  6.1700712163490136e-02 -8.2177255947089231e-02 -1.2561148337514305e-01  6.0955651854563635e-02 -7.7762318956950668e-02 -1.1953723630451386e-01  6.0731881753319387e-02 -8.0978923120576210e-02 -1.1808252970891120e-01  6.1514374188829733e-02 -8.4653186903682842e-02 -1.2505504631763098e-01  6.3521110864078842e-02 -8.3758935903598661e-02 -1.2480026039083789e-01  6.1081298183064743e-02 -8.2755969570324120e-02 -1.1714982361018357e-01  6.1767451749768401e-02 -8.5903907489359083e-02 -1.2455341704305524e-01  6.3495010498238094e-02 -8.4779171877904527e-02 -1.2439290484333855e-01  6.1625419926367032e-02 -8.3630428227942186e-02 -1.1651551295317317e-01  6.2361117438015923e-02 -8.6301507713479747e-02 -1.2414659153205382e-01  6.3792328359248612e-02 -8.5013370805803776e-02 -1.2406409045318012e-01  6.1978933817253112e-02 -8.5013348370927500e-02 -1.1534881600971129e-01  6.2927880968857944e-02 -8.7129996587912678e-02 -1.2328609558356307e-01  6.4097691256307626e-02 -8.5826023114240091e-02 -1.2323029571568496e-01  6.2092952770257122e-02 -8.7539956540216235e-02 -1.1290983718301116e-01  6.3146119562396422e-02 -8.8663621777140975e-02 -1.2129373311327402e-01  6.4005624927104293e-02 -8.7084627980805115e-02 -1.2129426750477267e-01  6.2161098575168383e-02 -9.0283457303972303e-02 -1.0965441962474229e-01  6.3310589176943863e-02 -9.0411826278344778e-02 -1.1831385701257541e-01  6.3768413863479367e-02 -8.8574539530783980e-02 -1.1853724794645776e-01  8.0005042535058010e-02 -6.9039070210351591e-02 -1.0532737366020767e-01  7.9939924072090454e-02 -6.2534047558193126e-02 -9.5771016343222673e-02  7.8099600561570753e-02 -7.1767846857690498e-02 -1.0572394490471920e-01  7.7153731217496177e-02 -6.7404813025930627e-02 -1.0828411211874098e-01  7.9186648974899521e-02 -5.7622268726607070e-02 -9.8089696220418937e-02  7.8862624032303957e-