<?xml version="1.0"?>
<VTKFile type="UnstructuredGrid"  version="0.1"  >
<UnstructuredGrid>
<Piece  NumberOfPoints="672" NumberOfCells="2750">
<Points>
<DataArray  type="Float64"  NumberOfComponents="3"  format="ascii">5.83349320170168 2.396159728010131 4.232392342208047  5.991660867185877 2.365521959297128 4.230851136380902  5.954891390459629 2.511707350870121 4.259667658048257  5.95020889244117 2.501020180564715 4.342121305910991  5.98777254567937 2.342692910521508 4.309751047119654  5.831423365676634 2.377399662591351 4.312785350847534  5.945453596487776 2.490351016458935 4.424467096895794  5.98379693808737 2.31988494324799 4.388564596982912  5.829284845680042 2.358661909129329 4.393067542272558  5.940654760372648 2.479658978804046 4.506715615773973  5.979771038716313 2.297078588953686 4.467313158877489  5.827104997729361 2.339917856308037 4.473258726213913  5.935856781069462 2.468938066314953 4.588895952171259  5.97572777316647 2.274266234873029 4.546012510023073  5.824901982272516 2.321168300894866 4.553383073712863  5.822727596870475 2.302390599700626 4.633447796062099  5.971735443623333 2.251424767141494 4.624662560838557  5.9310951690378 2.45818960494154 4.671001083677912  5.820677696819946 2.283563739265053 4.713433169059269  5.967885816561587 2.228539138217999 4.703251852502311  5.926455940329285 2.447378319462262 4.753046056452628  5.46416211743795 2.745381363019189 4.248333246495232  5.445185818525446 2.583683449095705 4.262065620326183  5.577223024224714 2.615426168780923 4.261161341783235  5.577223809725 2.618916380294633 4.346028667088579  5.444124763210901 2.584099983043564 4.346994615351176  5.462190897623173 2.760343159600615 4.332259774689946  5.460129636970285 2.775265876016151 4.416009361948674  5.44299127908713 2.584521435166526 4.431728621824349  5.577131977078432 2.622407515446983 4.430702311519294  5.458015081390811 2.790116899844765 4.499594853850535  5.4418149906305 2.584902252258735 4.516302721522528  5.576997338517426 2.625859480615969 4.515223540682702  5.455892326288686 2.804895899880462 4.583061817719599  5.440645391814512 2.58523960664923 4.600761864375573  5.576860311569167 2.629265198859982 4.599637843110506  5.576750469346861 2.632640727124401 4.683985206098123  5.439505318622793 2.585547272194503 4.685148156962217  5.453814326464903 2.819622866524005 4.666420285521215  5.576727473489903 2.635957368153128 4.768284752294345  5.438472957667394 2.585788881219743 4.769475529212078  5.451847215506798 2.834269349409657 4.749712374908502  5.722378872659964 3.107795652805364 4.106444899948475  5.79863982263941 2.995814232970353 4.174099350559306  5.864477846385126 3.091669308878448 4.124389254420058  5.857452559412446 3.134562565499746 4.193546930469217  5.794089874372198 3.031431271766081 4.248907441377297  5.718316926310928 3.152131876651065 4.175430051637233  5.850369896715634 3.177297737156629 4.262683067138116  5.789463603701276 3.066916736777118 4.323616321506011  5.714154534770128 3.196324600191301 4.244369525528274  5.784810001277607 3.102312817635271 4.398252117884756  5.709950005455414 3.24042748793696 4.313258840229275  5.825187553386252 2.552362819084582 4.257907061583317  5.823184948766894 2.544374081424752 4.341121959322006  5.821111664225429 2.536414067278554 4.424206755623763  5.818995236746785 2.52842540989354 4.507175252837729  5.816872427849069 2.520398412394227 4.590058127324859  5.814780301186731 2.512333412495304 4.672874071676715  5.812796979067272 2.50421174970361 4.755630374514303  6.086413867481157 2.475006359132313 4.262562629751941  6.071159121211311 2.630892428887544 4.275890171627796  6.06394523144863 2.629643535578632 4.3593267192186  6.079115303729758 2.461112815617712 4.344238955325006  6.071723968094903 2.447236284111971 4.425801725923394  6.056657892166863 2.628391093224914 4.442645127572537  6.064301538298793 2.433349350443791 4.507290017156398  6.049344018286934 2.627106383674715 4.525874489581054  6.056880161494929 2.41944483432572 4.588719629066274  6.04204332928298 2.62578276477809 4.60903396427379  6.034792259111541 2.624413199967669 4.692142971786143  6.049500061736882 2.405511368483915 4.670106936546579  6.042255515237629 2.391507839689495 4.75145997050797  6.027636551227362 2.622986894991021 4.775202665286877  5.705732092058337 2.462307038271123 4.243201985603465  5.705386299590306 2.321131017899588 4.213306549081275  5.708189498396572 2.296874512775601 4.291911977465233  5.708307229524259 2.44807266182679 4.325301315671288  5.710944497936513 2.272655016976296 4.37040992756159  5.71081479725851 2.433873736239555 4.407275673776807  5.713656751682763 2.248447660598237 4.448821736730988  5.713277122672276 2.419667419145756 4.489131599016922  5.716340655605125 2.224244297233244 4.527172584539614  5.7157261333175 2.405439284170674 4.570903395548983  5.719051434179879 2.200013980593963 4.605456473903875  5.718190956976041 2.39118223573068 4.652611454232076  5.721831480228297 2.175724265517427 4.683648880016026  5.720741988334074 2.376865178013689 4.734251643698546  5.675467272242591 2.983793930309471 4.176915741761174  5.670943919108505 3.018842251201408 4.252802499587317  5.666339446905046 3.053768161956801 4.328573674229444  5.661692514095485 3.088606277044362 4.404246646735502  5.657046770689191 3.123376695721359 4.479838027673468  5.780164210863624 3.137642461150788 4.472824045192824  5.705752756214348 3.284468823216232 4.382092547677  5.652448233273357 3.158091490155725 4.555363228163405  5.775551338314112 3.172922798109854 4.547342862225836  5.701609121216259 3.328467649620052 4.450874355320111  5.647970156521394 3.192722923139615 4.630868233559098  5.77105017200531 3.208150564234728 4.621837549266336  5.69760283085914 3.372421925122579 4.519615174664668  5.495686930085207 2.871385154949619 4.211972519723443  5.580040989062365 2.743582529108558 4.249783182123375  5.617350500060201 2.856261426577158 4.216418348948371  5.6145151193838 2.881576734719399 4.296902584363981  5.579644673491091 2.760994636563121 4.333112436484229  5.495486912162651 2.898557152217565 4.29240072305431  5.611589832138272 2.906807182052044 4.377214391083874  5.579143611190605 2.778360140421153 4.416230712894413  5.495155852833186 2.925646343963763 4.372655225671235  5.608610841501392 2.931959931090322 4.457380466276842  5.578587399575322 2.795671111484474 4.499201273932254  5.494765784091516 2.95265228620652 4.452747401867083  5.605620641512166 2.957044979429776 4.537439299901688  5.578011487355667 2.812923409914005 4.582058669381987  5.49436523913506 2.979581546266281 4.532721714326335  5.602666500242322 2.982071911398755 4.617416176845808  5.577477135713767 2.830130616649081 4.664833624601791  5.494002721972451 3.006438976879232 4.612604200491633  5.599814535834389 3.007018492564014 4.697348421921166  5.577052128980649 2.847265478531582 4.747559745718799  5.493768271567489 3.033208284761563 4.692432401068149  5.482880867856126 2.273836424482473 4.206990233923855  5.598433777003343 2.229871557621468 4.185817263257669  5.578246913460776 2.367012180160269 4.234527432049203  5.582147018765236 2.346549311423868 4.315357707352885  5.603125901536502 2.199494639375623 4.261587906859779  5.487487694987641 2.247972228898318 4.285087171377212  5.58599125918619 2.326137589684011 4.39606149826726  5.607771764552164 2.169169613231294 4.337264913652504  5.492045955349369 2.222151910074969 4.363077138424818  5.58979513043366 2.305735901851872 4.476651934016501  5.61237050460841 2.138881791552909 4.412878098887958  5.496570190061258 2.196362820934749 4.440974058193062  5.593582419754182 2.285332856079997 4.55716541497272  5.61695347415758 2.108599652425139 4.488430892807717  5.501074367768951 2.17058480581292 4.518806262644962  5.597391573246561 2.264901227717663 4.637607797484183  5.621561644149765 2.078292200563724 4.563911015207281  5.505602866761306 2.144780416736047 4.596572687952271  5.601259349696541 2.244412677842901 4.717988324985687  5.626221729844074 2.047939711714579 4.639307534213097  5.510195191538734 2.118922249795615 4.674272361065541  5.88140234392457 2.27386061865477 4.19964144145013  5.989711104322975 2.216456810477187 4.173874890693371  5.988025280369053 2.182480949903856 4.246929067630258  5.879743905758459 2.24580577612371 4.276150178019397  5.986212786033881 2.148554254547704 4.319962145385393  5.877996275183475 2.217792058826062 4.352575929788087  5.984340507182563 2.114643050378484 4.392963048028273  5.876189765042967 2.189794378386114 4.428948321207734  5.982469992602424 2.080722076663155 4.465921315137445  5.874369372970791 2.161793075755206 4.505270028646868  5.980660490526089 2.046773102365318 4.538828548273815  5.87259891897795 2.133766438043305 4.581523850333417  5.97898365025157 2.012776311815612 4.611683868387111  5.870945008785099 2.105690852733044 4.657694730498308  5.342906681400597 2.705957692282227 4.248417950274213  5.338360169112073 2.719305194956465 4.332271733977592  5.333737532449724 2.732624074687347 4.415905742797895  5.329075122175617 2.745889991257903 4.499345067793869  5.324413845924468 2.759092679865439 4.582654237875648  5.319793908559769 2.772254228043129 4.665872961948113  5.315273310971669 2.785347122691252 4.74905030299348  6.095185754469647 2.884008425154176 4.245745390361957  6.180412642800878 2.825743753119091 4.274367737311208  6.215970686206376 2.927729045523373 4.24580926322671  6.206267719159817 2.954768263536396 4.323940955588104  6.170690048315978 2.842004771995648 4.356184598674989  6.086127137985667 2.908337822787849 4.325049944975469  6.19657069919783 2.981725770666041 4.401978504630002  6.160944882425664 2.858212617734392 4.437892827664228  6.077049320727226 2.932579601427777 4.404256679533395  6.186898185163645 3.008626185155968 4.47993442715979  6.151206055366087 2.874373300312039 4.519518412807366  6.067978604476185 2.956766073074856 4.483381991947321  6.177257464700886 3.035476241597427 4.557838973600652  6.14149707800838 2.890484758500449 4.601085894842488  6.058933356752437 2.980905039486149 4.562447977074225 
[...]
<PointData  Vectors="f_24"> 
<DataArray  type="Float64"  Name="f_24"  NumberOfComponents="3" format="ascii">8.8475501059099310e-03 -2.2904705432419754e-02 -2.9485196437580234e-02  6.7570684493493769e-03 -2.5128557997075762e-02 -2.9170025532769549e-02  7.2576218521935394e-03 -2.0059152178293287e-02 -3.2161757363989907e-02  7.7099163328723033e-03 -1.9557514881785167e-02 -3.2347554329544968e-02  6.9721077070009005e-03 -2.3467093551499757e-02 -2.9019418343635979e-02  8.9822060268180386e-03 -2.1567973220835531e-02 -2.9615552157128390e-02  8.2266635339222210e-03 -1.9208237823126795e-02 -3.2080459019081520e-02  7.1701786475672543e-03 -2.2104119473775528e-02 -2.8535881140747388e-02  9.0267236859773933e-03 -2.0544606581005872e-02 -2.9371234574103143e-02  8.6270339709418487e-03 -1.8846367869759465e-02 -3.1535140453030498e-02  7.2686161283487503e-03 -2.0524474542761802e-02 -2.7726182515621884e-02  9.0194822665991114e-03 -1.9405678028501284e-02 -2.8810528955513677e-02  8.9546459295031765e-03 -1.8490678171817248e-02 -3.0670963102569952e-02  7.2785330210247438e-03 -1.8816494263136641e-02 -2.6568339221366366e-02  9.0178425818585681e-03 -1.8210915439341183e-02 -2.7903658891253954e-02  9.0256417338577550e-03 -1.7068221987006915e-02 -2.6418097590772755e-02  7.1749679135582299e-03 -1.7128010320716622e-02 -2.4876358557227796e-02  9.1947368203749210e-03 -1.8189993811473640e-02 -2.9228965100476383e-02  9.0445413065118364e-03 -1.5926107888798575e-02 -2.4377345614000283e-02  6.9391830994702608e-03 -1.5403476243307703e-02 -2.2676149985602651e-02  9.3428056802014707e-03 -1.7907657589857393e-02 -2.7272322667781800e-02  1.4778356393763778e-02 -8.5444811703717909e-03 -2.4135482684008988e-02  1.4591462956127734e-02 -1.2984784631199852e-02 -2.8047690605935097e-02  1.3063453344450152e-02 -1.3631476937783918e-02 -2.9141222812762515e-02  1.3389171036751185e-02 -1.4617057616009082e-02 -2.9325166560136291e-02  1.4855589779591349e-02 -1.4021592025257941e-02 -2.8376588292919315e-02  1.5298772101069219e-02 -1.0819380358377460e-02 -2.3841888152731715e-02  1.5739123563601062e-02 -1.3003892071184882e-02 -2.3078020793041307e-02  1.4968741142166408e-02 -1.5060898404845365e-02 -2.8092022069585922e-02  1.3546361727016608e-02 -1.5674326139609448e-02 -2.8983781635969628e-02  1.6279872257061744e-02 -1.5462055073876961e-02 -2.1981879404991758e-02  1.5143970916247926e-02 -1.6229094083960467e-02 -2.7441930196527464e-02  1.3845216047394372e-02 -1.6883993771116119e-02 -2.8296105428026984e-02  1.6938144184568633e-02 -1.8068012405822141e-02 -2.0558976953046149e-02  1.5437842462520319e-02 -1.7488245790050601e-02 -2.6461064264523059e-02  1.4272936906254523e-02 -1.8214384226293158e-02 -2.7272454423369941e-02  1.4886772100448368e-02 -1.9634135323064465e-02 -2.5719509385444407e-02  1.5890650714938261e-02 -1.8826158206414499e-02 -2.4999133738572814e-02  1.7787508543734218e-02 -2.0740172312879251e-02 -1.8631484339334706e-02  1.5772828792164535e-02 -2.1119656917886930e-02 -2.3793462001756190e-02  1.6568882108462267e-02 -2.0231401380675935e-02 -2.3230390386841701e-02  1.8870598868288575e-02 -2.3534952560319802e-02 -1.6406282159216693e-02  7.7351285025642176e-03 9.3194807920519099e-03 -6.7655256077193936e-03  7.8595533401467806e-03 -2.7048559491182563e-05 -1.6806401612813306e-02  5.2166704041335180e-03 6.5349207474897919e-03 -1.0586953316891646e-02  6.7269133383846035e-03 2.6121655576676855e-03 -8.5427620220327547e-03  9.0111091370630170e-03 -3.4883024115114191e-03 -1.5263773255402610e-02  8.9821545753049348e-03 5.2404192199934649e-03 -4.4942206583807546e-03  8.3687033253785226e-03 -5.2355604279046713e-04 -6.4645002538662368e-03  1.0348356308324116e-02 -6.4134660691387213e-03 -1.3542268780972167e-02  1.0366987723569580e-02 1.8293056693827990e-03 -2.1986307908889516e-03  1.1654292543140191e-02 -9.8399196048505732e-03 -1.1423846443637958e-02  1.1770594460279523e-02 -2.0689972938192150e-03 5.4748124414569633e-04  8.9115015341910565e-03 -1.7940202082372077e-02 -3.1814638473103757e-02  9.5059602350514808e-03 -1.7921150536898349e-02 -3.2012442551429640e-02  9.9047853551130025e-03 -1.8036274982914199e-02 -3.1770412772197339e-02  1.0242632601509746e-02 -1.8174507826981712e-02 -3.1255295084171172e-02  1.0588916555942697e-02 -1.8364025422467470e-02 -3.0425064402354041e-02  1.0961321265800563e-02 -1.8615047925260149e-02 -2.9020890780170273e-02  1.1424465052042374e-02 -1.8931205193143875e-02 -2.7097473676705040e-02  5.6109482203735468e-03 -2.2076048854986988e-02 -3.2024320423370195e-02  5.5232808609561894e-03 -1.7529457806379489e-02 -3.2870371247739713e-02  6.3359194390307317e-03 -1.7856292758669776e-02 -3.3115581841791940e-02  6.1331401754287258e-03 -2.1036916405822857e-02 -3.2116192940577756e-02  6.6529435829185942e-03 -2.0289664237482061e-02 -3.1829493242919372e-02  7.2192607967084682e-03 -1.8191526946594417e-02 -3.2862303767102384e-02  7.0908649443363900e-03 -1.9466960021159201e-02 -3.1192144106504876e-02  7.9720269548178811e-03 -1.8658241271763156e-02 -3.2279181917167291e-02  7.4026067186333472e-03 -1.8609089462977998e-02 -3.0221470342283351e-02  8.6006635045562715e-03 -1.9199646453095093e-02 -3.1366710675927924e-02  9.0643416971725888e-03 -1.9778613724373419e-02 -2.9878497871403991e-02  7.5432974940770224e-03 -1.7783205544458159e-02 -2.8701402147943585e-02  7.4360812442629733e-03 -1.6943039741584249e-02 -2.6704502668901883e-02  9.2856037510753806e-03 -2.0384164104911673e-02 -2.7886505006804847e-02  1.0722485763749248e-02 -1.9621226754075155e-02 -2.9825426967453647e-02  1.0520576717608258e-02 -2.4180690043702373e-02 -2.7554659957123213e-02  1.0166323124056515e-02 -2.2495112816584277e-02 -2.7409490669421218e-02  1.0742655286199713e-02 -1.9002308232183386e-02 -3.0286155521810885e-02  9.7586835730760872e-03 -2.1223389832785110e-02 -2.6990884261257644e-02  1.0724875744072044e-02 -1.8617427128106556e-02 -3.0291303797779258e-02  9.4179322412878651e-03 -1.9708311964209590e-02 -2.6249861363296174e-02  1.0702227389937539e-02 -1.8183959691110457e-02 -2.9897346510801937e-02  9.1405194990487812e-03 -1.8087062068164527e-02 -2.5146649828367725e-02  1.0757307577304958e-02 -1.7770309558565085e-02 -2.9123778863866821e-02  8.9463829752096484e-03 -1.6507473358604734e-02 -2.3501194582420878e-02  1.0917775489113062e-02 -1.7415846793902671e-02 -2.7783608926990395e-02  8.9003718601216517e-03 -1.4955202243290406e-02 -2.1345958543164036e-02  1.1306433296003601e-02 -1.7126589039068753e-02 -2.5923092334122638e-02  1.0125611302296703e-02 1.6388948864679869e-04 -1.5570779876883538e-02  1.1290175954289871e-02 -3.2257600679275245e-03 -1.3976513479690589e-02  1.2433189923602673e-02 -6.3227077878968210e-03 -1.2099286211816600e-02  1.3607155177208943e-02 -9.8937120014516208e-03 -9.9001795190363073e-03  1.4805753498057812e-02 -1.3832844586392997e-02 -7.3174965966352912e-03  1.2903400455373706e-02 -1.3661489159668477e-02 -8.8937887920790305e-03  1.3146638775892162e-02 -6.5020791095977675e-03 3.8218277711698397e-03  1.6102987956180325e-02 -1.7866416687325255e-02 -4.1558669192994892e-03  1.4149249610006987e-02 -1.7585668300337261e-02 -5.7729565508358657e-03  1.4548404088117389e-02 -1.1062317519076128e-02 7.7103944875545442e-03  1.7601165187140649e-02 -2.2021816418801441e-02 -5.4014645672526343e-04  1.5519383147428113e-02 -2.1585477151725884e-02 -2.0909158665543002e-03  1.6090712058133026e-02 -1.5735116432002958e-02 1.2112740367701987e-02  1.3739117056195186e-02 -3.4106129214768258e-03 -1.8136953297696594e-02  1.2966690744449885e-02 -9.7970250720777908e-03 -2.6369777048469080e-02  1.1880066640005502e-02 -5.0977746066242493e-03 -2.0951442255256626e-02  1.2791774493287097e-02 -8.1341454996137798e-03 -2.0510691939274493e-02  1.3573051614019728e-02 -1.1763229486459253e-02 -2.5835074832701772e-02  1.4642632755048101e-02 -6.6971647881211190e-03 -1.7491798883145660e-02  1.3663084875751302e-02 -1.0791086670996560e-02 -1.9552126941748491e-02  1.4128452354132646e-02 -1.3736174944608442e-02 -2.4908134278949230e-02  1.5337679509625817e-02 -9.6365228490252405e-03 -1.6395577548092809e-02  1.4548349944310932e-02 -1.3787180429397750e-02 -1.8147526547470785e-02  1.4734772700777343e-02 -1.6009205376055623e-02 -2.3732336124513739e-02  1.6149739608956260e-02 -1.2916825783969070e-02 -1.4863079027335094e-02  1.5485023793234852e-02 -1.7029689369755338e-02 -1.6341431540439044e-02  1.5442473498357926e-02 -1.8475097769478008e-02 -2.2243699076274832e-02  1.7047511131074829e-02 -1.6448298010911702e-02 -1.2935116149311457e-02  1.6583783680075091e-02 -2.0339547613289492e-02 -1.3975960086815016e-02  1.6353040512809669e-02 -2.1012989227070483e-02 -2.0219391185875308e-02  1.8142240126174040e-02 -2.0043684697939251e-02 -1.0461158674196952e-02  1.7943621105109157e-02 -2.3724666711351684e-02 -1.1128212619185505e-02  1.7590941966130282e-02 -2.3634038023501249e-02 -1.7835833822403002e-02  1.9576583081106446e-02 -2.3736212790419917e-02 -7.5830420041374108e-03  1.2475067582086380e-02 -2.2955821612186279e-02 -2.5591990405834875e-02  1.1376674226608648e-02 -2.6468704675615160e-02 -2.4271079611329766e-02  1.2071890542828931e-02 -2.0699973285735338e-02 -2.8752040061342521e-02  1.1742262724410410e-02 -1.9727969431938216e-02 -2.8847463838531241e-02  1.0686354194518263e-02 -2.4287738241117924e-02 -2.4056583443830291e-02  1.1991154482429288e-02 -2.1138655675954882e-02 -2.5979339080516771e-02  1.1358444054611385e-02 -1.8927297668781561e-02 -2.8450158006722272e-02  1.0001890479202693e-02 -2.2597371003283174e-02 -2.3487416339224142e-02  1.1395093038852503e-02 -1.9842309262542396e-02 -2.5738856996573273e-02  1.1030753409217891e-02 -1.7981425129318104e-02 -2.7736579699218576e-02  9.3564756051656272e-03 -2.0587071491261284e-02 -2.2479084020684967e-02  1.0817845280133524e-02 -1.8335609672252604e-02 -2.4951140162571057e-02  1.0820591473115678e-02 -1.7013740985218191e-02 -2.6686659764854695e-02  8.7998272647446044e-03 -1.8413042950147916e-02 -2.1056994745838973e-02  1.0337518426592560e-02 -1.6765187820343339e-02 -2.3749551872718148e-02  1.0743272030591293e-02 -1.6105085069999570e-02 -2.5116426492100028e-02  8.3379424754669515e-03 -1.6273436220027832e-02 -1.9116443112668424e-02  9.9607030120250177e-03 -1.5250608987182730e-02 -2.2054105062592890e-02  1.0885159736542187e-02 -1.5270393363598384e-02 -2.3170728065564708e-02  7.9971421339975236e-03 -1.4174277997304975e-02 -1.6737565134954380e-02  9.7092467497029190e-03 -1.3794563380570930e-02 -1.9969588204805423e-02  8.1592063751611370e-03 -2.7831829820954074e-02 -2.5997952642336997e-02  6.5696652612222605e-03 -3.2113892524410166e-02 -2.2778172846307971e-02  6.5048105845151999e-03 -2.9309446045681430e-02 -2.1954724947163974e-02  7.9874956969482012e-03 -2.5657793409235807e-02 -2.5464810091150664e-02  6.4523187088783417e-03 -2.7121501112618913e-02 -2.1050817274993583e-02  7.8119940264708325e-03 -2.3883973361285508e-02 -2.4777668662955169e-02  6.2308302635767044e-03 -2.4510167993539479e-02 -1.9721580522694467e-02  7.5828748232735933e-03 -2.1778214689060910e-02 -2.3792325320191564e-02  5.9153074612061738e-03 -2.1609384492600085e-02 -1.7961342279309202e-02  7.3268927385168811e-03 -1.9486918372982869e-02 -2.2436113605800331e-02  5.5040803571088700e-03 -1.8664314290605215e-02 -1.5692034935864640e-02  7.0354060339559658e-03 -1.7201506964786274e-02 -2.0529239586147222e-02  4.9900339134564455e-03 -1.5686998098155394e-02 -1.2933636330374261e-02  6.6905454937157454e-03 -1.4897339106542113e-02 -1.8131045693949015e-02  1.6155286606053875e-02 -8.1488130003945745e-03 -2.3079824514895649e-02  1.6651107254650129e-02 -1.0423356135117660e-02 -2.3151023693002756e-02  1.7091279270344938e-02 -1.2538622723337386e-02 -2.2589988589141071e-02  1.7545001520489850e-02 -1.4882484701208998e-02 -2.1643093212125531e-02  1.8080439415152017e-02 -1.7372848385677476e-02 -2.0343856060779719e-02  1.8754635839736480e-02 -1.9957429116701075e-02 -1.8552409435175502e-02  1.9601263602647304e-02 -2.2659231293639618e-02 -1.6445798690891147e-02  3.8318281387653692e-03 -9.6064507283161790e-03 -2.7222163105420003e-02  3.4353463300098295e-03 -1.2844521911971290e-02 -3.0835743044506737e-02  1.9664457898531276e-03 -8.6038863548808606e-03 -2.5774432089420887e-02  3.5038959195699626e-03 -1.1143333501127435e-02 -2.5373870756098985e-02  4.6990760454516303e-03 -1.4407105332336386e-02 -3.0228219751485132e-02  5.3073209149821542e-03 -1.1737636051281794e-02 -2.6611315703049761e-02  5.0985957064586165e-03 -1.3205927976893298e-02 -2.4402848505787635e-02  6.0357219914154497e-03 -1.5932660578649869e-02 -2.9319977831833172e-02  6.8118373241347124e-03 -1.3686071976938725e-02 -2.5573318421577517e-02  6.5318883203283494e-03 -1.5700172643404387e-02 -2.2949779083558840e-02  7.2369511498306689e-03 -1.7786837056814744e-02 -2.8146186462350377e-02  8.1618603343776297e-03 -1.6051940795318742e-02 -2.4142976418123071e-02  7.7450438937704804e-03 -1.8479613574691117e-02 -2.1083628107769762e-02  8.2484744057721472e-03 -1.9823400905728102e-02 -2.6656064644500273e-02  9.3028125252009666e-03 -1.8697941880223074e-02 -2.2349062845135784e-02  8.7353176064502748e-03 -2.1308896336706316e-02 -1.8670050611280260e-02  9.0423767443515712e-03 -2.1910928198581731e-02 -2.4631122282165834e-02  1.0265461591873377e-02 -2.1411923138625524e-02 -1.9991990831340095e-02  9.4421188414849314e-03 -2.4191402906327975e-02 -1.5814694827132145e-02  9.5249138457657156e-03 -2.4059966290853788e-02 -2.2259852794074247e-02  1.1035358517169471e-02 -2.4141301007779292e-02 -1.7131664390761522e-02  1.2003634351903216e-03 -2.0842147912285280e-02 -3.4464471294932790e-02  1.1830034868829835e-03 -1.7850524788098617e-02 -3.2888768957045074e-02  2.6365217263336375e-03 -2.0138659617030506e-02 -3.4026498272639601e-02  3.2600328939880342e-03 -1.9809098059894281e-02 -3.4095631093005070e-02  1.9151532198776024e-03 -1.8324439866195218e-02 -3.3579470085030476e-02  1.7482488413525033e-03 -2.0386483250232929e-02 -3.4406892856686223e-02  2.5043548259889724e-03 -2.0009384698493986e-02 -3.3928796657448572e-02  2.8905766031662103e-03 -1.8771439949901301e-02 -3.3518522541382871e-02  4.0946671123809151e-03 -1.9610350456252226e-02 -3.3703034668074616e-02  3.2230292255382609e-03 -1.9586238828250176e-02 -3.3168735286727327e-02  3.8060145638591724e-03 -1.9308213247402724e-02 -3.2975655561443766e-02  4.8124995223015384e-03 -1.9409593847021005e-02 -3.2989181904957317e-02  3.8388860164525729e-03 -1.9151517924861763e-02 -3.2117747508686491e-02  4.5999333637067093e-03 -1.9895886065006283e-02 -3.2066632761994819e-02  5.3770407792780358e-03 -1.9204307795453544e-02 -3.1960119362245347e-02  4.3242332302389627e-03 -1.8749176342786177e-02 -3.0637667858480096e-02  5.2283392993927600e-03 -2.0517624924697626e-02 -3.0656611200056784e-02  5.7433418104930719e-03 -1.9024921230830511e-02 -3.0454831972134156e-02  4.6371583557326176e-03 -1.8358896691298129e-02 -2.8940402917252167e-02  5.6446630710535505e-03 -2.1162970883782509e-02 -2.8845818247315795e-02  5.8639429405062489e-03 -1.8844309491539722e-02 -2.8691968863364534e-02  1.5476480122994124e-02 -2.7069147731520211e-03 -1.6425943098568166e-02  1.3720527662111490e-02 1.6015244107400414e-03 -1.2060045330811009e-02  1.4874543654580370e-02 4.4021605265887765e-03 -7.8684972245967374e-03  1.5971715890420304e-02 3.5025296131998115e-04 -6.1607010937791435e-03  1.4678136955601998e-02 -2.3336078615830546e-03 -1.0927340505956871e-02  1.6341475805263489e-02 -6.0632736204158447e-03 -1.5707896690442959e-02  1.5572895043329180e-02 -5.7822088830955702e-03 -9.4195232861552149e-03  1.7067958648967332e-02 -9.1308217484736796e-03 -1.4536603551395740e-02  1.6939852436074390e-02 -3.3116881071267963e-03 -4.1439750391528869e-03  1.7840149201268724e-02 -1.2516442215550204e-02 -1.2937386704263268e-02  1.6534358926442550e-02 -9.5924490904393499e-03 -7.4331471870764318e-03  1.7959943997522449e-02 -7.3720445096902417e-03 -1.6993070934786983e-03  1.8694614480638045e-02 -1.6139510075570077e-02 -1.0969721589047916e-02  1.7567526064997056e-02 -1.3703920664979800e-02 -5.0299992445777082e-03  1.9035232892067863e-02 -1.1762068702849807e-02 1.1455545761884778e-03  1.9715839535489173e-02 -1.9846891870531055e-02 -8.4962045024966765e-03  1.8775817450077985e-02 -1.7906468081857935e-02 -2.0943716333016510e-03  2.0247779541091582e-02 -1.6273317906009648e-02 4.4771963198439275e-03  2.0971272297404260e-02 -2.3696041217048356e-02 -5.6956133431232871e-03  2.0294294517608683e-02 -2.2249311375879405e-02 1.2273364696233013e-03  2.1684345981853721e-02 -2.0941357810117463e-02 8.0981626287224013e-03  2.2234577894793971e-03 -2.3228326416554403e-02 -3.2269099817075035e-02  2.6867520941044813e-03 -2.1985311135018823e-02 -3.2562664099985185e-02  3.3146636847601421e-03 -2.1007923297459000e-02 -3.2253351581414430e-02  3.8563156635799604e-03 -1.9906296030598035e-02 -3.1463596804905111e-02  4.2814175831470689e-03 -1.8763720450285667e-02 -3.0315777472309305e-02  4.5475573481322494e-03 -1.7656681103793353e-02 -2.8717997098157089e-02  4.6094492012322191e-03 -1.6552611177664021e-02 -2.6803416075010425e-02  3.6110519050992487e-03 -2.2360512980727144e-02 -1.6666322392949025e-02  3.7598433534507016e-03 -2.5779718940085329e-02 -1.0699620037265507e-02  4.9441865001489445e-03 -1.9992624315258757e-02 -2.2574445376565545e-02  3.6494317901401042e-03 -2.5377020559678384e-02 -1.8981406795921661e-02  4.9506139868352658e-03 -2.2416297942581726e-02 -2.4310558963916398e-02  3.4135193608780829e-03 -2.2200088759554096e-02 -7.6689472401919884e-03  3.4329622853020813e-03 -1.9313773991076612e-02 -1.3891180775812102e-02  4.7610505903384866e-03 -1.7551382905321537e-02 -2.0380294969123094e-02  2.9452845196896857e-03 -1.8564274418992645e-02 -4.1814244123835539e-03  3.0690395939114521e-03 -1.6238462443320386e-02 -1.0763252678452375e-02  4.4005440793954860e-03 -1.5113266060294559e-02 -1.7771568506600777e-02  1.0960128021231447e-02 -1.5807564847784571e-02 -3.1308198828939801e-02  9.2085755900240002e-03 -1.4652208026627580e-02 -3.1310653030332675e-02  1.0901037346615579e-02 -1.1207302230713187e-02 -2.8493414518601792e-02  1.1676420043955403e-02 -1.3022497469921637e-02 -2.8135830903323764e-02  1.0006462296076699e-02 -1.5576155450871329e-02 -3.1203372559764488e-02  1.1315636067780570e-02 -1.6362215464687500e-02 -3.1261225534171239e-02  1.0679695395969340e-02 -1.6525983407660153e-02 -3.0761634743366902e-02  1.1575024728916682e-02 -1.6935887068578782e-02 -3.0914252634408605e-02  1.2349934289670203e-02 -1.4722752654955016e-02 -2.7407876376156305e-02  1.1268187022739348e-02 -1.7645440613063220e-02 -3.0064885712462287e-02  1.1866338146342855e-02 -1.7583521858602083e-02 -3.0311989148345410e-02  1.3031668004429259e-02 -1.6677380206399934e-02 -2.6410087818118013e-02  1.2230909858667444e-02 -1.8318263134026722e-02 -2.9404601661673638e-02  1.1858756545141467e-02 -1.8889459820233791e-02 -2.9054532271894178e-02  1.3749883312746720e-02 -1.8797718971463345e-02 -2.5109933891560757e-02  1.2725524783598586e-02 -1.9125996358688720e-02 -2.7953752114288993e-02  1.2507503892163442e-02 -2.0197788239819200e-02 -2.7471212029713692e-02  1.4611973435273675e-02 -2.0961011815147319e-02 -2.3263033036955476e-02  1.3460907287052758e-02 -1.9973330666958087e-02 -2.6067450821685337e-02  1.3293511744655921e-02 -2.1550629440139402e-02 -2.5416082933520733e-02  1.5743406255107686e-02 -2.3200407913382525e-02 -2.0966869513568274e-02  1.1980880368272630e-02 -2.6721923736377415e-02 -2.2706740860313560e-02  1.1187845344679502e-02 -2.4596146061952612e-02 -2.2001888229722568e-02  1.0363395878450683e-02 -2.2813254062145766e-02 -2.1019838807581303e-02  9.5184020370619668e-03 -2.0613546575995928e-02 -1.9645765690794105e-02  8.7397483934780612e-03 -1.8199737629639924e-02 -1.7868930317260286e-02  8.0316883513500970e-03 -1.5806759831187192e-02 -1.5608075376494569e-02  7.4120733425319541e-03 -1.3431520994300008e-02 -1.3003825773889132e-02  1.4005386944461483e-02 -1.6324877652701998e-02 -2.8848537494094727e-02  1.2529799316637877e-02 -1.7120161919297494e-02 -3.0173100071754205e-02  1.2523019283522294e-02 -1.7104759003064789e-02 -3.0374368181645982e-02  1.3902063897503753e-02 -1.63214397198