<?xml version="1.0"?>
<VTKFile type="UnstructuredGrid"  version="0.1"  >
<UnstructuredGrid>
<Piece  NumberOfPoints="903" NumberOfCells="3876">
<Points>
<DataArray  type="Float64"  NumberOfComponents="3"  format="ascii">2.970661497336727 2.941733734300413 3.805232978036947  3.003699485289884 2.795908100102143 3.898981283261265  3.11445703294627 2.851525026546283 3.871402112890002  3.113022688792225 2.889257732794711 3.926330670658063  3.00071358387055 2.829352474525627 3.956250334964079  2.972313988181754 2.979012415471084 3.858105221888468  2.997751248684766 2.862524970123393 4.013501019162925  2.973921394374294 3.016058150756107 3.911020513971242  3.111581873077067 2.926715648089388 3.981302851121221  2.994776177341594 2.895542947656563 4.070675050490751  2.975466489770794 3.052996926486638 3.963916452887054  3.110094864049846 2.964042902806547 4.036250399966455  2.991763928105214 2.928493502366791 4.127764880005215  3.108551714198577 3.001324417046731 4.091127277961774  3.037485104277719 3.052623679266858 3.714879405338707  3.163741044463531 3.055715278804398 3.704365535870997  3.082324273738312 3.155723522484229 3.620614626364137  3.1672428005499 3.098815609723992 3.752177421096534  3.041633667669929 3.092978050232251 3.764288744833563  3.089162560401963 3.198854196640382 3.666480383871189  3.045695164146265 3.133167932617154 3.813800167860077  3.170646746981924 3.141750452549303 3.800146118132023  3.09586961535733 3.241899636525011 3.712462581173241  3.049672209444761 3.173290722842612 3.863342709545708  3.173959613706581 3.184631014774613 3.848176279495837  3.102485842976654 3.284931330079036 3.758513191664669  3.053593292385719 3.213406763391983 3.912879829065953  3.177208281370874 3.227536135405954 3.896218503884163  3.109062614872809 3.328000806445415 3.804599448599834  3.115649401439921 3.371155587639342 3.850696800849141  3.180431244275497 3.270529154412568 3.944242970963267  3.057492253392887 3.253571548804204 3.96237766228496  4.360664797803079 3.18468581763018 3.737407982761436  4.472799627368061 3.211822417188494 3.760394674344905  4.416482339740262 3.25621607831322 3.648176081593908  4.395975046272186 3.317346660558512 3.680493162001477  4.451757818304608 3.270112798301472 3.802165092627679  4.34004127440034 3.242915549069938 3.777509854443453  4.430934069564622 3.328267740994896 3.844233244013258  4.319643193479297 3.301041041609733 3.817998037632897  4.389431892680201 3.44451854535328 3.928673034596429  4.278935371132377 3.417347324284711 3.899376439697016  4.335156080256439 3.500967592927521 3.779239661715219  4.410194852998876 3.386387530012909 3.886447023315545  4.25843244870117 3.475595083472551 3.939998556371395  4.368571222966474 3.502684467084149 3.970821067709194  4.314687440400653 3.562357361004808 3.812120231144726  4.237673338744651 3.533925514581125 3.980402412494517  4.347522054205656 3.560925271473199 4.012741006985153  4.29399156386251 3.623865753502258 3.844762831190273  4.638141470487733 2.834897165405917 4.193135743777472  4.529249399564005 2.765423913672818 4.192122588567491  4.515549386528082 2.9048233505363 4.129153890536486  4.547217598211874 2.742581184869082 4.117064671591086  4.511374732491266 2.788119691822933 4.267012228151684  4.496628371620433 2.937726616031922 4.199021542802436  4.131027433213228 3.153237618081941 3.678910847898725  4.258056398673464 3.214972360850988 3.636998037021692  4.115049732125291 3.212073604477308 3.554516542936602  4.101507300822967 3.272815211097174 3.582265509402002  4.240092207054838 3.275386451766346 3.669783882627473  4.116267719432396 3.211504868073267 3.716331259471635  4.101648881997408 3.26967898634782 3.754212229788799  4.222323311428281 3.335835054149598 3.703097999735503  4.088152381935553 3.333598806318289 3.61058165452368  4.20454085700373 3.396393638126612 3.736584134934477  4.086988321065796 3.327940989779865 3.792294978616952  4.074730219163196 3.394585264576744 3.639097292500328  4.186649978690625 3.457116004371644 3.770085667040165  4.072221118858473 3.3863284187052 3.830398417340094  4.531585308148441 3.124474170698994 3.883629639969794  4.413362760428241 3.046804090415936 3.914239700173737  4.520702717571171 2.985255448206937 3.992044945807234  4.394159331490313 3.095021641329595 3.971448494999215  4.512313048053571 3.176360065682464 3.937372349802799  4.502172205772433 3.028229752827099 4.055470471406371  4.375119805735861 3.142968498612337 4.028728600346482  4.493202392844165 3.228010970557858 3.991221440259769  4.483774726931648 3.07095373451681 4.11887839210237  4.356174954249415 3.190761645513768 4.086039405798763  4.474197724752933 3.279515912205445 4.045108287914163  4.465481387970826 3.113501860988984 4.182221070488007  4.337255113536509 3.238479866430296 4.1433354843427  4.455224561310955 3.330945466167788 4.098979925949322  4.447234095565808 3.1559441676462 4.245495896243188  4.318297771467963 3.286174023433037 4.200564764173758  4.436219011952663 3.382351972575878 4.15278056932489  4.027497064100286 3.100209005880656 3.721962771215909  4.032890174307899 3.000533048985804 3.838888997164243  4.168975469861368 3.058146348925566 3.81637884201347  4.153390107207741 3.110444315997324 3.86567337609235  4.020227975788086 3.050274754228158 3.89062277086443  4.014827293350657 3.156150026253253 3.763508539045954  4.137940552079058 3.162505313508125 3.915266271987772  4.007651881407387 3.099733179731539 3.942624942622705  4.002240333685307 3.211955964223458 3.805486856769265  4.122528460780852 3.214475347993017 3.965000677705706  3.995084198170566 3.149085337211045 3.994744683089059  3.989622251019175 3.267782877651346 3.847650504065066  4.107077337706785 3.266444979925256 4.014752583933042  3.982469640010086 3.198435005493331 4.046878608351288  3.976904577706635 3.323717528100142 3.889842716373275  4.091521279779919 3.318471252934889 4.064417016899098  3.969754122721339 3.247858487527505 4.098940519841538  3.964022453012548 3.379831716871688 3.931946397635902  4.075795619114043 3.370613926661115 4.113910788654077  3.956894725867157 3.297425617603381 4.150850968888593  3.950910612202911 3.43616645421986 3.973843526078763  4.149757290859772 2.92971764355614 3.924708730303263  4.136396957527472 2.97337448530373 3.984340348846845  4.123115838479378 3.016698993475909 4.044043614097447  4.10987845279729 3.059842863026058 4.103761409899626  4.096638363946274 3.102902310101913 4.163448241677368  4.083356646851517 3.145945934475934 4.223054901853674  4.070009809297534 3.189056859321156 4.2825403510143  3.535924877116648 3.03123675180197 3.719287517644017  3.646850925322523 3.091489017902044 3.655351372849554  3.511565372936141 3.11731935080039 3.61954646318861  3.511919268315698 3.169010338098864 3.659517599996538  3.643877998632746 3.144880823815132 3.695217326461187  3.533769525728312 3.080597659247311 3.764388929285642  3.512207699931417 3.220588229329894 3.699805794259968  3.640874112585172 3.198127127916484 3.735459462201717  3.531583053198877 3.129740639372915 3.809793253258705  3.512386003257769 3.272230747675116 3.740255857207659  3.637752737621065 3.251439250229699 3.775864053066859  3.529280622319027 3.178872015771077 3.855322314599262  3.512482821618175 3.324021658746567 3.780769808640298  3.634530901526871 3.304903137138448 3.816325193400862  3.526882759550349 3.228080726809168 3.900888870992658  3.512522998928011 3.376042500747106 3.82127879705723  3.631221339631345 3.35860019852715 3.85675464241009  3.524409157236878 3.277441920735213 3.946422058936489  3.512488499722143 3.428362392170099 3.861706004917651  3.627817394746603 3.412597200444216 3.897074142064315  3.521879194321574 3.327038980507719 3.99184578259263  3.754144857114884 3.135029494117243 3.599536007796451  3.889989605770976 3.109880112657272 3.662332796168183  3.868865152704944 3.190572572169085 3.515389323432101  3.863361691910308 3.248964870653611 3.544797038984661  3.881014782667153 3.166789902734593 3.699020757254331  3.750518489074236 3.19111058574961 3.634886653442609  3.857920664181129 3.307348012437518 3.574692100436657  3.872102885209009 3.223602315447987 3.736191691942546  3.746900513780428 3.247113055781976 3.670691169532199  3.852384177082453 3.365912586690591 3.604798201919966  3.863100542031284 3.280509284403808 3.773555082092113  3.743173509213487 3.30323114997104 3.706681246433388  3.846715178563757 3.424744071395424 3.634942020427237  3.853985842861079 3.337576628675122 3.810967855255857  3.739322780367321 3.359558183805562 3.742732587980016  3.84087737304471 3.483910809927679 3.665009587750817  3.844717793041373 3.394874291577536 3.848314422772281  3.735333399399738 3.416193845362047 3.778749993719059  3.834791285364681 3.543483151154283 3.694864560157897  3.835205737602553 3.452502876349564 3.885452464779746  3.731224988376106 3.473282116868893 3.814628237898985  4.289400467100438 2.877793851377732 3.990898696954017  4.29312691972657 2.989880454636291 3.915467473961032  4.274263931555256 3.035041728080523 3.973890094816803  4.273069527835909 2.915280127088504 4.056263499709871  4.255596693378839 3.079908684634029 4.03237737080304  4.256851145598008 2.952483293672283 4.121579597503879  4.237018639752513 3.124601344872699 4.090884972943233  4.240711439565969 2.98949087153127 4.186819111008707  4.218468141326182 3.169208047491578 4.14937485218769  4.224612723442165 3.026384752690211 4.251985007092097  4.199884058378407 3.213789148818808 4.20779882616842  4.208513111673841 3.06322340392599 4.317068406017055  4.181131600478551 3.258411759127094 4.266080258620024  4.192323248511499 3.100078662914433 4.382034708497527  4.263736863933318 3.133493205048814 3.7599960889268  4.245012854633953 3.189864003792389 3.80298273711155  4.22647096339233 3.2460928781376 3.846374316917023  4.207983075014519 3.30230145561397 3.889930137542734  4.189454018499095 3.358555025026358 3.933514221389826  4.168549123778166 3.518013915018518 3.803456767389906  4.170797945180722 3.4148908123066 3.977013923590286  4.05726452840832 3.444875654271319 3.86838955941223
[...]
<PointData  Vectors="f_24"> 
<DataArray  type="Float64"  Name="f_24"  NumberOfComponents="3" format="ascii">6.0865905064095890e-03 2.0589912518238492e-02 1.7084751262116311e-03  5.8482018741370925e-03 1.6686768069896041e-02 -2.3892001162554265e-03  5.7424330961633237e-03 1.8201280589343043e-02 -8.8686191451854864e-04  5.6623631414838300e-03 1.6379888072353719e-02 -3.9883217489679753e-05  5.8020300773814351e-03 1.4951612320295932e-02 -1.7784361234175706e-03  5.8669156504168041e-03 1.8871514459282073e-02 2.5991767352002496e-03  5.7147373311475548e-03 1.3500594872956085e-02 -1.2154155538252876e-03  5.6466172142263880e-03 1.7395957445456245e-02 3.3706393394137882e-03  5.5417603181369028e-03 1.4851193305412163e-02 7.2157942873471469e-04  5.6248651454171650e-03 1.2121518355373640e-02 -6.0480117194213303e-04  5.4327748831530702e-03 1.5984742060802613e-02 4.1443929810183718e-03  5.4242239620406326e-03 1.3385465608182073e-02 1.5158812351614055e-03  5.5628264921405816e-03 1.0683818128993910e-02 1.1073660288129518e-04  5.3390834483372273e-03 1.1845318462826514e-02 2.4228045368503886e-03  6.2182404103981216e-03 2.4576667141038115e-02 5.2276997451635235e-03  5.9446607120842345e-03 2.5573308050400007e-02 5.6740569812437948e-03  6.4163131623630396e-03 2.8489063005932937e-02 8.5777686182818280e-03  5.6442257280386512e-03 2.3841992797287468e-02 6.9733273241698928e-03  5.8790092191578266e-03 2.2904590925017870e-02 6.3564428652814753e-03  5.9597832819664378e-03 2.6998484554776884e-02 9.8751641608346343e-03  5.5508957916089079e-03 2.1433547580408847e-02 7.3187784494857444e-03  5.3398294363659823e-03 2.2332381686059073e-02 8.0824757022364118e-03  5.5266249435747677e-03 2.5660307517845614e-02 1.0985003534778682e-02  5.2342757847603930e-03 2.0019945820421180e-02 8.2460116677635295e-03  5.0418124894196512e-03 2.0875735274152978e-02 9.1476970946383941e-03  5.1052227153674879e-03 2.4353929512278761e-02 1.2032184519568986e-02  4.9419178814855491e-03 1.8516585021118540e-02 9.2451837596192084e-03  4.7743449681003011e-03 1.9314694509040064e-02 1.0297822075788826e-02  4.7022371264230827e-03 2.2939129194175307e-02 1.3138187158857718e-02  4.2993217358522368e-03 2.1343897949620216e-02 1.4309542597788695e-02  4.5273981211642680e-03 1.7593495422114705e-02 1.1539369239758091e-02  4.6625210182220421e-03 1.6864696489471316e-02 1.0318856109089643e-02  3.2452021410201526e-03 2.5836185064644072e-02 8.0355576891074140e-03  3.0313985044611923e-03 2.4768208076048983e-02 8.2630720994200796e-03  2.5316263956133836e-03 3.0363250920298707e-02 1.0480194443746409e-02  2.7651765019573470e-03 2.8859927497745168e-02 1.3170420408104322e-02  3.3634486374297576e-03 2.2881925815274297e-02 1.0650028932171169e-02  3.5240644415775015e-03 2.3977849079677229e-02 1.0457609066682000e-02  3.6499633062145038e-03 2.1244602083396711e-02 1.2806666279007478e-02  3.7483434860710605e-03 2.2366909965881952e-02 1.2611509064039399e-02  4.1537305134367788e-03 1.7966345225471827e-02 1.7257243028017771e-02  4.1249567961691809e-03 1.9152566630040974e-02 1.7040215865777041e-02  3.3093167308079728e-03 2.4826478492172718e-02 2.0324710316646784e-02  3.9092320699304125e-03 1.9645894360456509e-02 1.4961291495203298e-02  4.3080893735514348e-03 1.7426617746227311e-02 1.9485815978915043e-02  4.3951847343858055e-03 1.6218837699865277e-02 1.9697996262052046e-02  3.4927020606036908e-03 2.3347764661944912e-02 2.2940826623027835e-02  4.5030735120402260e-03 1.5652548581102346e-02 2.2082175702253116e-02  4.6479689251969908e-03 1.4420436649430655e-02 2.2283448254075446e-02  3.6962440388552563e-03 2.1800757792860212e-02 2.5721749095240807e-02  4.9633819010235997e-03 5.2454563439777264e-03 -4.8356632515186571e-03  5.0759251025562181e-03 5.1183653818995881e-03 -6.2028901212783901e-03  4.9702510701185657e-03 7.7414410972478868e-03 -2.5701893425304537e-03  4.7930141123065789e-03 6.8175886569834697e-03 -6.3298581312618979e-03  5.2903220076234870e-03 3.6244948862985227e-03 -5.8979987242801625e-03  5.2671845253630077e-03 5.9391735602584636e-03 -1.8938089328948741e-03  3.6341857827858815e-03 2.8513585399886725e-02 8.2854590711007314e-03  3.0477433680297082e-03 3.0760341460085178e-02 1.0022768607907852e-02  3.1985516801430790e-03 3.4580474622984830e-02 1.0889078576930899e-02  3.2394706842415427e-03 3.3311298242407396e-02 1.3515283692252649e-02  3.2039287105579350e-03 2.9222439053155878e-02 1.2631677555836605e-02  3.7810049467515336e-03 2.6746406476944318e-02 1.0697460633349901e-02  3.8636896436941371e-03 2.5195041249840202e-02 1.2818112050935733e-02  3.3196803153297096e-03 2.7853088253819863e-02 1.4937151576313265e-02  3.2408207109623109e-03 3.2146577962211105e-02 1.5823466342271955e-02  3.4161142871750850e-03 2.6508002369020244e-02 1.7192731472666586e-02  3.9261080339752039e-03 2.3683085951660434e-02 1.4910092682288307e-02  3.2219654745038787e-03 3.1004300597062679e-02 1.8040173595300038e-02  3.5031951789374297e-03 2.5075777956327476e-02 1.9593612744962845e-02  3.9880485760337382e-03 2.2092622681708023e-02 1.7148413357978124e-02  3.6313238422790379e-03 1.8625320128752183e-02 4.6296043337095364e-03  4.1297995284246235e-03 1.6923156559727124e-02 2.6260959868086207e-03  4.3050730008327466e-03 1.3194002643743487e-02 9.3711096769296282e-05  4.4953647716485653e-03 1.4649281343156476e-02 4.1770018051550586e-03  4.0420451726904880e-03 1.6400328472169805e-02 6.4645588179473223e-03  4.7036392620337904e-03 1.0948068746809519e-02 1.2458239477603512e-03  4.8002502660633812e-03 1.2697411269382033e-02 5.6509874602455983e-03  4.3981350794523944e-03 1.4481417450743727e-02 8.1681971783001597e-03  5.0374089178903481e-03 9.0198882380000331e-03 2.4029484563404002e-03  5.0688927073734916e-03 1.0802994448038120e-02 7.1910735908157246e-03  4.7230657387744256e-03 1.2623640825390034e-02 9.9155011560177891e-03  5.3340262606599411e-03 7.1507477758445551e-03 3.6531713326993722e-03  5.3064235351244918e-03 8.8510058607000428e-03 8.8687100961012764e-03  5.0168899254944979e-03 1.0708946454507168e-02 1.1793073538371264e-02  5.5915057187286956e-03 5.2364370918441573e-03 5.0351155204725528e-03  5.5175038944007297e-03 6.8516674803297348e-03 1.0690755667556213e-02  5.2868874145268951e-03 8.7441641149559341e-03 1.3807871616825460e-02  4.0659172825028211e-03 2.6228078882758538e-02 6.6440944406494827e-03  4.5575311166539782e-03 2.0258829106470800e-02 2.7608323517407532e-03  4.1953063799750083e-03 2.1552219611570507e-02 4.3333471954131947e-03  4.4422068280182249e-03 1.9373003729116049e-02 6.2051510148880525e-03  4.7562311596743108e-03 1.8049190688977399e-02 4.4106771449092322e-03  4.2077821321153189e-03 2.4287372824152137e-02 8.8380774392734576e-03  4.6078554449490508e-03 1.7508885997975326e-02 7.9034262629945375e-03  4.8718251188021727e-03 1.6170343076429696e-02 5.9158390830236999e-03  4.2711223187340587e-03 2.2614282653136773e-02 1.0768891936699169e-02  4.7512007364021395e-03 1.5707527446918723e-02 9.6342665701057116e-03  4.9676716324568099e-03 1.4348076206919398e-02 7.4696429567673410e-03  4.3122492713355779e-03 2.0986470764065457e-02 1.2693038854989618e-02  4.8888521584577044e-03 1.3836272177886003e-02 1.1513768684352752e-02  5.0685618442707567e-03 1.2453422253758452e-02 9.1760437748811801e-03  4.3595646713022159e-03 1.9276966567809271e-02 1.4772185676551001e-02  5.0288664220917659e-03 1.1893377016816510e-02 1.3555561056650465e-02  5.1823989084526017e-03 1.0488526439319964e-02 1.1051683679771961e-02  4.4304552542347372e-03 1.7475167471127696e-02 1.7029104766025868e-02  5.1793420123480349e-03 9.9075462366660788e-03 1.5764063044510768e-02  5.3125365251287179e-03 8.4819443206395097e-03 1.3090864140228567e-02  4.5356308163016189e-03 1.5616275766951595e-02 1.9462133502197856e-02  4.7372911939369397e-03 1.5962913272041614e-02 -1.1293949902475955e-04  4.9870346353533407e-03 1.3687015198727727e-02 1.0643508337722209e-03  5.1671699595360766e-03 1.1750167266772579e-02 2.2056665489465707e-03  5.3247357953377190e-03 9.8817952392477471e-03 3.4359529931614658e-03  5.4732944459501389e-03 7.9528803843160294e-03 4.8144617518427702e-03  5.6120074671557815e-03 5.9847242079110454e-03 6.3455679752862943e-03  5.7454214488386031e-03 3.9872680363108037e-03 8.0405786766395634e-03  5.0596715841373470e-03 2.5874827339959727e-02 5.1550737978439650e-03  4.7360303811451636e-03 2.9048008850644815e-02 7.4040421029148602e-03  5.1046933592520218e-03 3.0404365206951028e-02 8.4570492146920917e-03  4.9163660943296900e-03 2.8769341379894956e-02 1.0342684062036556e-02  4.6646337309994403e-03 2.7300452760631998e-02 9.4176262493684288e-03  4.9810609006512435e-03 2.3946592177997356e-02 6.8722380062082242e-03  4.6857438364468458e-03 2.7319672037524802e-02 1.1959262134419770e-02  4.5269356329771188e-03 2.5776212325018883e-02 1.1145471107499895e-02  4.8418129720786450e-03 2.2289801117723804e-02 8.3416844500744918e-03  4.4435535642123290e-03 2.5899848602160751e-02 1.3502050973882180e-02  4.3731079838247831e-03 2.4289923847679605e-02 1.2819964834020741e-02  4.6900825918318899e-03 2.0692288642979305e-02 9.7763474629784328e-03  4.2310779161170379e-03 2.4352712517711372e-02 1.5161323844352719e-02  4.2464041672505412e-03 2.2691309129972550e-02 1.4629453042313237e-02  4.5732431079077915e-03 1.8994624255154063e-02 1.1339535894975784e-02  4.0496796694241520e-03 2.2636702519870610e-02 1.6956078479099870e-02  4.1555117407543378e-03 2.0951789434204466e-02 1.6587999850682929e-02  4.4995109177875933e-03 1.7164517178850289e-02 1.3046297087879216e-02  3.9080541440647794e-03 2.0768110554638324e-02 1.8886422754988991e-02  4.1115811117224668e-03 1.9086680875743035e-02 1.8710617909688681e-02  4.4670177493424295e-03 1.5230185036718190e-02 1.4899939473244077e-02  4.3781042479605426e-03 3.1860342738234210e-02 9.0261668510807358e-03  4.1787974008098260e-03 2.9064669610526311e-02 7.5942527892952343e-03  3.9087480131560527e-03 3.5911631020005115e-02 1.1113396438456104e-02  3.8470780926449385e-03 3.4655110966519707e-02 1.3513499079100379e-02  4.2165644986650623e-03 2.7339680694906356e-02 9.8890457463122836e-03  4.3198473149471395e-03 3.0287633534810045e-02 1.1256618179912452e-02  3.7400844881544286e-03 3.3499701948379701e-02 1.5609110876784293e-02  4.1902534447231660e-03 2.5847028225226176e-02 1.1875600251564511e-02  4.2042426066205025e-03 2.8888526908334499e-02 1.3179890241128530e-02  3.6030744597376966e-03 3.2351584201106717e-02 1.7598476942351934e-02  4.1382923856668995e-03 2.4399832806761820e-02 1.3813661760240492e-02  4.0632829803625495e-03 2.7520412265954104e-02 1.5028579313860377e-02  3.4675110434161925e-03 3.1100731325335841e-02 1.9696266211920846e-02  4.0976308780773874e-03 2.2863972568132680e-02 1.5892818890454415e-02  3.9378829513909029e-03 2.6047261516313890e-02 1.7003413748300857e-02  3.3558663690042229e-03 2.9704137053224895e-02 2.1959377067615214e-02  4.0857670403070213e-03 2.1213484211276619e-02 1.8143581240541242e-02  3.8446235558737339e-03 2.4427448447933379e-02 1.9141676713496206e-02  3.3039033510552838e-03 2.8167247992857702e-02 2.4414395453195445e-02  4.1292605897868540e-03 1.9470006453966973e-02 2.0586277856085869e-02  3.8051697338792115e-03 2.2675585303212759e-02 2.1458933025641582e-02  4.7733814798934585e-03 1.2732960358783829e-02 -2.1873537908609062e-03  4.4014770717174150e-03 1.6622033717770327e-02 1.3269019010144645e-03  4.7392010300541009e-03 1.4324274477006241e-02 2.6902512432686533e-03  5.0715441377394282e-03 1.0541247973672377e-02 -1.3814023932090149e-03  4.9883981623569185e-03 1.2354390724573731e-02 3.9771771977989692e-03  5.2948361364819722e-03 8.6625989174155486e-03 -5.3330551555777115e-04  5.2038307639266004e-03 1.0458554302624342e-02 5.3349727545160376e-03  5.4901294527217063e-03 6.8451466766452640e-03 4.2546932533824288e-04  5.3977066801238994e-03 8.5100544353124263e-03 6.8352746256783612e-03  5.6599364110810260e-03 4.9837777684072701e-03 1.5265740844451058e-03  5.5669101902118823e-03 6.5126778597872081e-03 8.4860554691574015e-03  5.8017796902348909e-03 3.0932146014538897e-03 2.7776425618572104e-03  5.7186121443600253e-03 4.4834096041457038e-03 1.0287547995468473e-02  5.9135057961388947e-03 1.1730579909117170e-03 4.1794280412894100e-03  3.6443960781594700e-03 2.4584832639479422e-02 6.6836081971820716e-03  3.9167929571978788e-03 2.2584896326357344e-02 8.9359871912333601e-03  4.1073383664144425e-03 2.0872329836721423e-02 1.0944721434229291e-02  4.2689833900583654e-03 1.9214388572406815e-02 1.2949213257606049e-02  4.4196312678666961e-03 1.7481545254665356e-02 1.5095085923731566e-02  3.6106837303389824e-03 2.3549838116604827e-02 2.2168373664168361e-02  4.5707571824268626e-03 1.5672109299423590e-02 1.7410364802220527e-02  4.0686410181094475e-03 2.0408972299597941e-02 1.9565136021765541e-02  3.7478746522513853e-03 2.1952712082018631e-02 2.4915522430594458e-02  4.7336702638487490e-03 1.3818382052238997e-02 1.9880916638927017e-02  4.1866315965956710e-03 1.8661908832588364e-02 2.2158737378976414e-02  4.7612857139765477e-03 9.9603187246712181e-03 -3.9641462695477157e-03  4.6088511239781938e-03 9.8277532933916893e-03 -3.1564951245924692e-03  5.0813183672124198e-03 7.9124861753631787e-03 -3.5104873470291850e-03  5.3306984244718648e-03 6.1442091791784970e-03 -2.9444986057267425e-03  5.5401639543999504e-03 4.4379400737916417e-03 -2.2436152175515376e-03  5.4680405657345187e-03 2.1650179930346371e-03 -5.4448525502748682e-03  5.5192404968751156e-03 4.1995125983283121e-03 -1.0839754879318601e-03  5.7093589192330728e-03 2.6969036334578856e-03 -1.4022220047864593e-03  5.6017146651658554e-03 6.7474414282584676e-04 -4.8535753135688260e-03  5.7280020470975657e-03 2.4221246358843325e-03 -1.3784490622333756e-04  5.8396215457812142e-03 9.4080219849445505e-04 -4.1176958185231327e-04  3.7205934367041207e-03 3.2077551202407434e-02 9.5749693134685593e-03  3.7568462140064604e-03 3.0583382463452734e-02 1.2053808503015318e-02  3.7407588829163471e-03 2.9239933636357417e-02 1.4213698287121091e-02  3.7002079335656797e-03 2.7922745547404156e-02 1.6310405259792028e-02  3.6635577260272800e-03 2.6514855370813554e-02 1.8548955646951752e-02  4.9984547791800740e-03 6.6265995515426860e-03 -1.1093393361394827e-02  4.7521587467743388e-03 4.9131788735802288e-03 -1.2240483588887578e-02  4.8040751464241320e-03 5.1962496114554705e-03 -1.1664611916682395e-02  4.8354551515369139e-03 4.5819930242806750e-03 -1.2181167010561100e-02  4.7413754099709807e-03 4.5537334336882562e-03 -1.2768355841111032e-02  5.0526517541883706e-03 5.6733526261232969e-03 -1.1479820745932443e-02  4.7063717408270568e-03 4.1835692252212347e-03 -1.3051284935615769e-02  5.0858116247608880e-03 4.8019918828477448e-03 -1.1611865379808687e-02  4.8299258135948231e-03 3.9981555565777446e-03 -1.2447238678527088e-02  4.5850281513501890e-03 3.4364839828863254e-03 -1.3084999186749737e-02  5.0987031475110741e-03 3.1018622019712686e-03 -1.1391910537213955e-02  4.7522521286400433e-03 2.8539074880558116e-03 -1.2422993190062933e-02  5.0994978134506208e-03 3.9545622630381503e-03 -1.1576674351425537e-02  4.4871821339578823e-03 3.0489485044360490e-03 -1.2846190910986800e-02  5.0717724962693429e-03 2.2447110335814002e-03 -1.1040991754688452e-02  4.6644860280075206e-03 2.2724949777417252e-03 -1.2153628931341209e-02  4.3506648422819557e-03 2.6516595378099461e-03 -1.2431850711020960e-02  5.0175747152769864e-03 1.3719504766669640e-03 -1.0544283140492716e-02  4.5245277994915914e-03 1.6770457022559277e-03 -1.1719946738389770e-02  4.4353872260756875e-03 2.4153400943263868e-02 4.8932517591260896e-03  4.5527516194848730e-03 2.2094881117513576e-02 6.8453768723739060e-03  4.5942907960280091e-03 2.0343865840051965e-02 8.5665849007358838e-03  4.6147782180103111e-03 1.8642353973719182e-02 1.0292109117269826e-02  4.6489940265478811e-03 1.6858671678378710e-02 1.2169860076294996e-02  4.7106087013933035e-03 1.4986775605267172e-02 1.4222761875626358e-02  4.8060969410865873e-03 1.3054892118080268e-02 1.6446155817117017e-02  5.4134866577269999e-03 2.8599300705111047e-02 7.2749898898609973e-03  5.1907363714005480e-03 2.6890832983252403e-02 8.9802284338929075e-03  4.9357083162581182e-03 2.5392114751525131e-02 1.0431034820261446e-02  4.6710468987665984e-03 2.3945791388457559e-02 1.1811879894004802e-02  4.4366994451175250e-03 2.2383891578607422e-02 1.3295105187124052e-02  4.2345367426024445e-03 2.0649060908801812e-02 1.4898240450788806e-02  4.0535177435353847e-03 1.8768455292894014e-02 1.6616741009642919e-02  4.9911032919610068e-03 1.1943503195413532e-02 -3.7099303501808545e-03  5.2174996344991264e-03 9.8351440376383738e-03 -3.1358486142669347e-03  5.3899775604189099e-03 8.0288827706890518e-03 -2.4741202815536803e-03  5.5400636855157523e-03 6.2738146423622640e-03 -1.6910081407899066e-03  5.6716098581303404e-03 4.4752756278189894e-03 -7.6283270514541424e-04  5.7842892790676108e-03 2.6609685982661338e-03 3.1749991921226290e-04  5.8735545809923588e-03 8.1755966315028743e-04 1.5511135442186632e-03  2.7375445999425390e-03 2.3807752486249015e-02 8.3831734797582130e-03  2.2782026519052164e-03 2.8732330303024477e-02 1.0448000804879055e-02  3.1613596433362344e-03 2.1845954971164830e-02 1.0709791660088137e-02  2.6004681968151708e-03 2.7130784778984895e-02 1.3087099140236183e-02  2.8778272227623532e-03 2.5725789987476273e-02 1.5439873708152845e-02  3.5228531279654788e-03 2.0131601610423773e-02 1.2814419466068861e-02  3.1381000239135695e-03 2.4356074084151212e-02 1.7745642984522501e-02  3.8610889469857666e-03 1.8465499227665758e-02 1.4915586432704358e-02  3.3871998515989173e-03 2.2908260936174416e-02 2.0175279149484578e-02  4.1829618114267806e-03 1.6732756605009124e-02 1.7142471814283293e-02  4.4896172192119442e-03 1.4932685582196605e-02 1.9505341350984390e-02  3.6461082850414591e-03 2.1373192377121208e-02 2.2758770166259597e-02  3.9187471298670253e-03 1.9778936513128571e-02 2.5487299933740982e-02  4.8048929983007934e-03 1.3091409555400868e-02 2.2001720040133680e-02  4.5495071249024013e-03 1.3058662076012461e-02 -7.3502097070744549e-04  4.9015767846407356e-03 1.0811959437107598e-02 2.3970912702427508e-04  5.1849071529602988e-03 8.8839749824387738e-03 1.2462559034253275e-03  5.4318614530814210e-03 7.0066093286699615e-03 2.3512633308701916e-03  5.6436086235567935e-03 5.0834379604031907e-03 3.5901232028312589e-03  5.8190235417195334e-03 3.1280966987447976e-03 4.9745307551622058e-03  5.9655416726831986e-03 1.1410439872466354e-03 6.4976071368417522e-03  5.7220566560365945e-03 4.8176357870039800e-03 1.2650818252887558e-02  5.6512043207519631e-03 2.6741719801590461e-02 6.1534642682516049e-03  5.8085306706654512e-03 3.1742280395511656e-02 9.9280748380040050e-03  6.0112991894149086e-03 2.8971350835517797e-02 8.2400250621266317e-03  5.6391595048284364e-03 2.7387567670061713e-02 9.7088618913150990e-03  5.4446719845130925e-03 3.0265353786274710e-02 1.1582439128010682e-02  5.4052031184057513e-03 2.4970659289582808e-02 7.6463312709029920e-03  5.2701984720908215e-03 2.5975211253044722e-02 1.0958109776610509e-02  5.0737500427211236e-03 2.8937550159488384e-02 1.2995894994083297e-02  5.1351337201606716e-03 2.3430246819733283e-02 8.9186117122803457e-03  4.9051981513132566e-03 2.4604119125393717e-02 1.2136643292132966e-02  4.6994395303923166e-03 2.7634004204826951e-02 1.4323734117294153e-02  4.8630684420682265e-03 2.1947336220013706e-02 1.0134964447979138e-02  4.5653030257702433e-03 2.3120976267328966e-02 1.3386254081223464e-02  4.3462739684551662e-03 2.6203272779063137e-02 1.5728354507299949e-02  4.6263603531987683e-03 2.0354218018814031e-02 1.1448000887119654e-02  4.2430770696946490e-03 2.1441830355403025e-02 1.4732083816358644e-02  4.0112470105705600e-03 2.4558518429660326e-02 1.7239533644651923e-02  4.4161972595117898e-03 1.8595017060795398e-02 1.2868599261153165e-02  3.9071867676201740e-03 1.9624754314329380e-02 1.6143247544856017e-02  3.6622347591674428e-03 2.2750255880816531e-02 1.8825588669306583e-02  4.2213382496150620e-03 1.6701695803377631e-02 1.4394910148026963e-02  5.4837654883730606e-03 2.2312671263627328e-02 2.4957255554186788e-03  5.3205156390736842e-03 2.4650737443642864e-02 4.3549110993562675e-03  5.1992068377271130e-03 2.27618