<?xml version="1.0"?>
<VTKFile type="UnstructuredGrid"  version="0.1"  >
<UnstructuredGrid>
<Piece  NumberOfPoints="702" NumberOfCells="2901">
<Points>
<DataArray  type="Float64"  NumberOfComponents="3"  format="ascii">9.934620869223124 3.893722256974707 3.20251320624355  9.866795192279152 3.921606578204871 3.113111358860062  9.826582413044678 3.86458465614687 3.249921202810234  9.822477909236369 3.91807358628391 3.271212235507683  9.860356257996092 3.973502932433574 3.132112009068786  9.92861826726979 3.946112066927183 3.224184323330544  9.818308047458123 3.971630877699502 3.292627886642588  9.853887762680918 4.025496044157539 3.151221112458557  9.922588942366817 3.998595693256586 3.245949656945938  9.81410229740287 4.02530509878747 3.314121361652903  9.847397976414888 4.077626474464172 3.170401935992226  9.916536521435074 4.051206812301688 3.267784093565078  9.809894438500972 4.079114304890538 3.3356409917651  9.84088936705289 4.129918753222813 3.189617716990079  9.910473769699379 4.103966600286645 3.289658899093128  9.805723444980469 4.133075608001336 3.357139265101383  9.834372912078761 4.182405509270577 3.208828018052984  9.904421796193928 4.15690422491158 3.311543053633461  9.801661441440991 4.187206364227761 3.378551975459983  9.827879006177616 4.23512901959733 3.227986887845084  9.898403936491572 4.210069561502609 3.333407740142931  9.974003808340562 3.745374381560763 3.484492712057105  9.870588387408359 3.772979871047733 3.430968638913205  9.899624348631358 3.687139509022197 3.560467769255372  9.900811071706725 3.735566552362967 3.600890466830168  9.869885001282148 3.824515618254137 3.463138968119012  9.97111120171621 3.79538168545173 3.520683398288771  9.968163673639406 3.845443604410274 3.556980099506475  9.869060700082711 3.876085582577085 3.495427939773633  9.901858586801948 3.784031748188293 3.641450137532036  9.965199186244559 3.895612952798092 3.593353992496278  9.868194229018371 3.927725299647491 3.527778089028659  9.902863257747947 3.832556365799246 3.682075511323692  9.962261633105808 3.945898314508669 3.629790096547046  9.867346305277 3.979452082024074 3.560163398730677  9.903898277522309 3.881166733582289 3.722756957264811  9.866572959134942 4.03126223374729 3.592545194557926  9.959378186058785 3.996332344890383 3.666288951647141  9.905039185548706 3.929902823193613 3.763494101993638  9.956513789992952 4.046903888409117 3.702848324585357  9.865947179062083 4.083239706439532 3.624946527510053  9.906360294811888 3.978793930098474 3.804314641527654  9.733437488808706 3.8859869902793 3.175477467232727  9.728467981459573 3.939157589068572 3.193841997950252  9.723445801632922 3.992429272785077 3.212367301305956  9.71840565148932 4.045819057188343 3.230965429207924  9.713359098090345 4.099359828811988 3.249581687477798  9.708325560667133 4.153078706484415 3.268160037083971  9.703345252139803 4.207000211139617 3.28663389615714  9.9834258898888 3.802470667077648 3.399939356932026  9.924849832001332 3.852351726832807 3.29873097493634  9.920847478743063 3.904862876036571 3.324489011224913  9.979351486450579 3.854241406162376 3.430777134960951  9.975241776634896 3.906100472069475 3.461715519217153  9.916775852425857 3.957481934883604 3.350373238881342  9.971113630218436 3.958067617405949 3.492731511247707  9.912678321498257 4.010208537383609 3.376327407583125  9.908590213271218 4.063063228105995 3.402318593916569  9.966993472375904 4.01017528451956 3.523808874884629  9.904551125480946 4.116087928922213 3.428320242429811  9.962903224445196 4.062447886839966 3.554930912612334  9.958847023064378 4.114891403561039 3.586076110819972  9.900608852439333 4.169316132047742 3.454311455223913  9.801698519400146 3.723177313385455 3.512497987427956  9.804820875557956 3.774301555747096 3.547995085874682  9.807749641573855 3.825440252256554 3.583598894733436  9.810618790455617 3.876622132672624 3.619263525264796  9.813507801617968 3.927872281850421 3.654966068741753  9.816493766579187 3.97921364958951 3.690688822389225  9.819755898539359 4.030667676719423 3.726391243057643  9.791135137901858 3.821135807546443 3.35161947175236  9.78983802244125 3.874925088357338 3.377254257075525  9.788412959272701 3.928769974263938 3.403006207594738  9.786946659089658 3.982708043184458 3.428830225738158  9.785491629325977 4.036762289231025 3.454680470187933  9.784104820020056 4.090948198975846 3.480520429282672  9.782897502988261 4.145269126892957 3.506296446892021  9.702066418918973 3.841612499042899 3.291075545135962  9.698710200071282 3.896068389725145 3.312082306430403  9.695289455555711 3.950570906584211 3.333247316604064  9.691845807416911 4.005163339465087 3.354484322292863  9.688405811907712 4.059875938210041 3.375735357634978  9.685001890295512 4.114720220883017 3.396944830243796  9.681679380716313 4.169690599006884 3.41804236177889  10.2047835754789 3.775868320470384 3.464708749664373  10.15339137625701 3.841341290371723 3.354163319390294  10.07658753109927 3.778647455811792 3.44906249837036  10.07341690279063 3.828806514081845 3.484304757967782  10.14748164873451 3.892536655028773 3.384532618882806  10.20027486461715 3.825206683164939 3.501748322038609  10.07017870303289 3.879090162731932 3.519631318404288  10.14157711302944 3.943858556180431 3.414925232033028  10.19572834804588 3.874643866478254 3.538830353141775  10.06690705018354 3.929494247735219 3.555046058483366  10.13563730132345 3.995311258930681 3.44541009322223  10.19113984439725 3.924207856287034 3.576009254570862  10.06363336632193 3.980032628030749 3.590545974141446  10.12967967314284 4.046897122724831 3.475976275501359  10.18652912425562 3.973902020983553 3.613289368537042  10.06038984899428 4.030723794349075 3.626124093406329  10.12371905318419 4.098633427528468 3.506617275617338  10.18192848837382 4.023750703586043 3.650684605581823  10.05723879694536 4.081570653619974 3.66176501287806  10.11778658800144 4.150552413908271 3.537313924026989  10.17746172996888 4.07380122536844 3.688204846047036  10.01791439363639 3.690320005336913 3.553627441655518  10.01728602296158 3.737429709996158 3.595355316007809  10.01654348867515 3.784583734812024 3.63717818766744  10.015759370434 3.831830507533812 3.679098045658234  10.01499122696375 3.879179843927608 3.721101519238486  10.01429479145712 3.926647922889578 3.763185616340326  10.01374665215537 3.974242059620082 3.805351709479079  9.635399277602605 3.891566495111733 3.124193633517371  9.639615042696548 3.921523609916068 3.028030849582918  9.52525455025064 3.905419763016042 3.040791212567217  9.519787060402273 3.9570393949172 3.056312060698855  9.633672271294703 3.972903086466204 3.044059764591513  9.629898961743478 3.944292116262423 3.140488009830419  9.514294704842714 4.008781671245808 3.071976132217856  9.62769182864962 4.02440132965561 3.060224980011903  9.624365187482445 3.997106500898211 3.156938128851338  9.508792299051795 4.06067569246922 3.087718730850074  9.621694383270738 4.076047929439071 3.076464785832132  9.618816936297399 4.050046876498444 3.173463742769501  9.503274851673536 4.112735081105379 3.10348828713646  9.615680734580378 4.127865282552015 3.092734768994594  9.613259484819599 4.103140973671922 3.190006184122014  9.497742027098703 4.164977199877122 3.119228363433365  9.609652055552056 4.179882431371838 3.108984680749431  9.60769651064993 4.156410199403014 3.206504326225436  9.492202084339329 4.217414871557278 3.134856582007615  9.603607394545014 4.232151787870844 3.125145645267679  9.602138819348905 4.20988035904811 3.222877319648769  10.04922330263788 3.844375503708439 3.329794083911073  10.04479402796235 3.89623600302246 3.357985032276577  10.04032377516822 3.948214057902939 3.386247300831202  10.03582041442455 4.000315129598436 3.41459497831666  10.0313077634926 4.052550670026036 3.443008109256012  10.02681083015961 4.104934967705671 3.471469733917061  10.02239585843515 4.157475607021081 3.499939805848067  9.62128281064996 3.856902306518875 3.232165701381238  9.616483623700503 3.911012650499787 3.250239460239931  9.61165613241918 3.965187958688762 3.268483348325451  9.606821504621371 4.019472839694059 3.286799501504174  9.601986890003111 4.073886058155825 3.305122824735788  9.59715917658928 4.128436886113874 3.323390906036832  9.592336637328593 4.183117028689104 3.341531874596998  9.534793493679818 3.866015007894271 3.177030939027895  9.529556378392828 3.919453259781393 3.193640860882907  9.524310671767399 3.972972708051132 3.210424925570844  9.519063444019771 4.026618616012009 3.227286178613487  9.513810837949363 4.080401936303568 3.244157054460222  9.508548895291071 4.13433146609087 3.26097032572305  9.503273614622769 4.188398460384336 3.277653854056867  9.745790486095169 3.776336406982757 3.439570164691488  9.69032925204003 3.706958115919493 3.55064419534943  9.693400182857646 3.758477337208178 3.587155663125382  9.746944105969984 3.829231025931453 3.470462613146737  9.696294340496282 3.809939423832988 3.62378322566614  9.747926528637448 3.882134176516844 3.501466717649004  9.699155695425196 3.861423297981836 3.660457250857135  9.748875283549491 3.935101237571054 3.532535483534597  9.702062899145947 3.912956166817364 3.697150962287548  9.749856587220783 3.988160516132673 3.563633056785406  9.705092417287849 3.964553227380381 3.73383351122704  9.750950572373512 4.041330125742432 3.594727636487563  9.70830045843303 4.016214742180553 3.770480721872763  9.752252308372945 4.094589566814614 3.625782751557029  9.736521885443734 3.920852175846715 3.066360408730541  9.730299904937462 3.972621125223114 3.08301222217945  9.724043516964988 4.024539652517692 3.099809586109168  9.717763779164851 4.076611763352798 3.116687434044553  9.711464624090633 4.128850468666917 3.133595359544022  9.705154209411944 4.181275339279714 3.150478045712295  9.698849243263378 4.233895685838152 3.167262625534581  9.992578853674152 3.590696771773047 4.060935720749393  10.0851766176985 3.648230873466035 4.021814253432039  10.08555124471475 3.542543867395047 4.087355728448874  10.0826626275872 3.612716192152709 3.965696593024918
[...]
<PointData  Vectors="f_24"> 
<DataArray  type="Float64"  Name="f_24"  NumberOfComponents="3" format="ascii">-4.6818458638381216e-02 1.6320927999947113e-01 5.9230792459633091e-03  -4.8318117126088286e-02 1.7836994496497666e-01 1.3448269478894510e-02  -4.3759416628480062e-02 1.5916025445274917e-01 4.4457002626535460e-03  -4.1467744706968908e-02 1.5529635807565903e-01 1.3037244578897140e-02  -4.5975432853141714e-02 1.7624426450545269e-01 2.0976907784401200e-02  -4.4415707572034703e-02 1.5983826723434666e-01 1.3979725594019776e-02  -3.9328199867572529e-02 1.5141846980918139e-01 2.0923562233143650e-02  -4.3732159850135864e-02 1.7378886697103998e-01 2.7798453211170426e-02  -4.2108779441251021e-02 1.5640324137662862e-01 2.1353369656553021e-02  -3.7232522329625803e-02 1.4736774799629801e-01 2.8450829553689706e-02  -4.1509523188674992e-02 1.7091741400527150e-01 3.4218982632022200e-02  -3.9833462908180677e-02 1.5273014365879756e-01 2.8348527643770292e-02  -3.5117241535812645e-02 1.4298803011161301e-01 3.5917499585820870e-02  -3.9237581007827087e-02 1.6753432123307824e-01 4.0503079859282115e-02  -3.7529354104729302e-02 1.4868801486150479e-01 3.5248082062646624e-02  -3.2937537814658142e-02 1.3815086595891463e-01 4.3602819740961758e-02  -3.6857166518867918e-02 1.6353236864496970e-01 4.6916365223404533e-02  -3.5154036420579189e-02 1.4414716746790091e-01 4.2322934458984177e-02  -3.0665013235005721e-02 1.3272813957637802e-01 5.1792267282254383e-02  -3.4334498913662581e-02 1.5882383298536903e-01 5.3738439423701691e-02  -3.2673369638344184e-02 1.3896741570009194e-01 4.9841541953778573e-02  -3.8706056498904545e-02 1.1283960271495809e-01 -1.9385035279164065e-02  -3.9027479046668506e-02 1.2550785587136681e-01 -1.2368246564218368e-02  -3.5591676796319242e-02 9.9424041580334299e-02 -2.5751428803916381e-02  -3.3715496032264487e-02 9.1021878773503248e-02 -1.9793052681809496e-02  -3.6897570565764398e-02 1.1852313215251878e-01 -4.5833520658441233e-03  -3.6593138656675343e-02 1.0527959182282318e-01 -1.2414858159753081e-02  -3.4538589273797000e-02 9.8310771124419424e-02 -5.6865157619512179e-03  -3.4840631262671791e-02 1.1201941032544291e-01 2.8016559177269358e-03  -3.1880255543717290e-02 8.3333463545698552e-02 -1.3802075491879777e-02  -3.2516220929737043e-02 9.1601251396660047e-02 1.0437524784653479e-03  -3.2824906155806077e-02 1.0569404372748155e-01 1.0059170277716821e-02  -3.0053231025373318e-02 7.5995398532685179e-02 -7.6757205725548668e-03  -3.0494468465181449e-02 8.4923361138980594e-02 7.9681929577829196e-03  -3.0810522314353685e-02 9.9353588382222760e-02 1.7410448827775697e-02  -2.8202436097491169e-02 6.8790711195702126e-02 -1.2721992658217079e-03  -2.8765005479532674e-02 9.2847881801533291e-02 2.5054589122638228e-02  -2.8446058467195792e-02 7.8119692058340601e-02 1.5268207332151085e-02  -2.6298552717453960e-02 6.1548882727370205e-02 5.5511228984955743e-03  -2.6358782298827235e-02 7.1065098347287498e-02 2.3074007238265349e-02  -2.6669991478488003e-02 8.6026939082590570e-02 3.3189861408549091e-02  -2.4316920069869442e-02 5.4118872992968574e-02 1.2933212935170944e-02  -4.4242470007128283e-02 1.7396179282229329e-01 1.1422785266771563e-02  -4.2116158924948098e-02 1.7125836057928881e-01 1.9833556908938055e-02  -4.0103436749357915e-02 1.6828213274496959e-01 2.7476121208106552e-02  -3.8134768436439780e-02 1.6494561467922883e-01 3.4714840916897742e-02  -3.6131416528581747e-02 1.6113365752549635e-01 4.1859951936936708e-02  -3.4034918465736266e-02 1.5673884815188047e-01 4.9211947086089045e-02  -3.1797732109368343e-02 1.5170445520240186e-01 5.7092200882793993e-02  -4.1389941990470989e-02 1.2851436442061498e-01 -1.0977240655336366e-02  -4.3734239117971620e-02 1.4796292463982352e-01 -9.3604471407254970e-04  -4.1357760372755417e-02 1.4304597389344265e-01 7.3050849015087417e-03  -3.9118986706769734e-02 1.2219556840420515e-01 -3.1627852243894762e-03  -3.6934921375542558e-02 1.1624796010345778e-01 4.2038727531297287e-03  -3.9092918713242851e-02 1.3826864235720596e-01 1.4950845664770965e-02  -3.4780140067329789e-02 1.1042215043579416e-01 1.1419645611198244e-02  -3.6874287079098546e-02 1.3341876118468537e-01 2.2310732109662459e-02  -3.4645702793558796e-02 1.2833832379820861e-01 2.9665381002753861e-02  -3.2620578639643523e-02 1.0452959426399761e-01 1.8740611342571604e-02  -3.2365069439324524e-02 1.2287752927057334e-01 3.7273024282740416e-02  -3.0439741046879579e-02 9.8391156940490818e-02 2.6373497070678271e-02  -2.8234974519929047e-02 9.1892062187924076e-02 3.4528161019507772e-02  -3.0009385604594915e-02 1.1697395216940316e-01 4.5372226235143469e-02  -3.5703529031890543e-02 1.1120039075160480e-01 -1.8319651535685988e-02  -3.3808237774123846e-02 1.0336299810952043e-01 -1.1149162743602283e-02  -3.1982162522891551e-02 9.6113658180396494e-02 -4.2053604541877655e-03  -3.0171396776614397e-02 8.9175079046422343e-02 2.7442768130371020e-03  -2.8333485158862321e-02 8.2319493578313307e-02 9.8788683019498669e-03  -2.6438132048783845e-02 7.5378948821886033e-02 1.7367183510520724e-02  -2.4452214114551785e-02 6.8226298465300025e-02 2.5371990600947050e-02  -4.0048611497648594e-02 1.4233193015509554e-01 -2.2741406848090029e-03  -3.7913802287961415e-02 1.3686853730078039e-01 6.3786129622625193e-03  -3.5881720731380226e-02 1.3163752577201596e-01 1.4455928950713020e-02  -3.3890916214587015e-02 1.2640019756731952e-01 2.2287252512920214e-02  -3.1883384664748153e-02 1.2097440407962656e-01 3.0153741480217114e-02  -2.9820277395137408e-02 1.1522788793203437e-01 3.8306727276804418e-02  -2.7668085229146867e-02 1.0907646127304726e-01 4.6975768449091487e-02  -4.0397632225830302e-02 1.5575815212826541e-01 3.8456433213626341e-03  -3.8330639490777384e-02 1.5154200341642490e-01 1.2965895758439429e-02  -3.6410886178672268e-02 1.4734104850860363e-01 2.1341943851101886e-02  -3.4540556861127551e-02 1.4298613579500360e-01 2.9380109309257278e-02  -3.2647422780229571e-02 1.3832560664644714e-01 3.7395521321004585e-02  -3.0681104905053741e-02 1.3324101241211486e-01 4.5674399257731417e-02  -2.8611442785110151e-02 1.2765191095772069e-01 5.4488073991625391e-02  -4.1987529594769445e-02 1.1201027188322420e-01 -2.1698033042306483e-02  -4.4956496700028208e-02 1.3249441526442798e-01 -1.0443133635146309e-02  -4.0968781069831657e-02 1.1735261807890081e-01 -1.7368211145073791e-02  -3.8770363066490572e-02 1.1023440815740995e-01 -1.0401929166424346e-02  -4.2584598506882031e-02 1.2682689488713988e-01 -2.9052250607503349e-03  -3.9788780938686374e-02 1.0487108701300489e-01 -1.5142096017243483e-02  -3.6618488134786187e-02 1.0364366849590345e-01 -3.6955170849516058e-03  -4.0272084850020130e-02 1.2147107731346275e-01 4.1130504756935514e-03  -3.7631822546907098e-02 9.8277964751556549e-02 -8.8449520020374411e-03  -3.4491822551802283e-02 9.7257953630495469e-02 2.9620915123576585e-03  -3.7980011529032506e-02 1.1619355058733433e-01 1.0918294780433041e-02  -3.5507588789970734e-02 9.1921058969389971e-02 -2.5917271595183181e-03  -3.2371892617244019e-02 9.0858596199588304e-02 9.7727221237733485e-03  -3.5682522142427120e-02 1.1079627668703713e-01 1.7747378951757733e-02  -3.3400518052791234e-02 8.5582496317850879e-02 3.8163663851790743e-03  -3.0244329404537664e-02 8.4277706988574091e-02 1.6933444086543809e-02  -3.3364817926990240e-02 1.0510413425017491e-01 2.4825191970812708e-02  -3.1301492707753294e-02 7.9084059898308218e-02 1.0570795995304824e-02  -2.8099726497501001e-02 7.7401244906107447e-02 2.4637153990503757e-02  -3.1025616260556058e-02 9.8949305530522058e-02 3.2392396416374661e-02  -2.9202913339799585e-02 7.2267639286830096e-02 1.7880951598962976e-02  -3.7228885969616043e-02 9.8432765170786432e-02 -2.8126444708907135e-02  -3.5254882174068261e-02 9.0100262936511924e-02 -2.2544000243177830e-02  -3.3330561885317134e-02 8.2415600333520050e-02 -1.6935098236948363e-02  -3.1434311722116137e-02 7.5098315631954002e-02 -1.1185117913951919e-02  -2.9539353356382237e-02 6.7928603842916713e-02 -5.1519027275637600e-03  -2.7624211809401684e-02 6.0730984469743329e-02 1.3019022009371263e-03  -2.5664976398051677e-02 5.3358470827470403e-02 8.3155426417412248e-03  -4.3727741929739272e-02 1.8466065779900095e-01 1.5754960939341072e-02  -4.6219610439375731e-02 1.9714308264387689e-01 2.1593069152847422e-02  -4.3245639050834665e-02 1.9917516356162981e-01 2.1920719611315857e-02  -4.1693753467722500e-02 1.9820401642644153e-01 2.9179722640121183e-02  -4.4335400320573329e-02 1.9622439576522036e-01 2.8541957683801883e-02  -4.1839865613269953e-02 1.8277848773448266e-01 2.3894753871729738e-02  -4.0219193442435131e-02 1.9662132976610822e-01 3.5713175767307190e-02  -4.2549152541305625e-02 1.9472067779055338e-01 3.4806661686386256e-02  -4.0060479576759012e-02 1.8049103993356805e-01 3.1272542233494467e-02  -3.8753147323494511e-02 1.9440667249050231e-01 4.1796279863957918e-02  -4.0781375416009659e-02 1.9260313591645728e-01 4.0641948458899610e-02  -3.8309683185564922e-02 1.7772466972802647e-01 3.8209233053558340e-02  -3.7231700327498139e-02 1.9148999830258526e-01 4.7680027805928248e-02  -3.8958837319573822e-02 1.8980803080737446e-01 4.6289490745723964e-02  -3.6515118194683303e-02 1.7439028708789792e-01 4.5002494808355706e-02  -3.5587171411829426e-02 1.8776713616078219e-01 5.3621797179904777e-02  -3.7008505922517664e-02 1.8624050314079652e-01 5.1995198602923093e-02  -3.4609753535492643e-02 1.7038348135071077e-01 5.1951335349920739e-02  -3.3738782455390956e-02 1.8311321838402592e-01 5.9918258909066199e-02  -3.4848017032085218e-02 1.8177814132160888e-01 5.8005290590852084e-02  -3.2531469964251374e-02 1.6559087550396126e-01 5.9386650389254662e-02  -4.4484117097336275e-02 1.3923311403072069e-01 -6.4500824038571493e-03  -4.2106514325104927e-02 1.3388902022836230e-01 1.4562249839362479e-03  -3.9804746437835319e-02 1.2877009224106778e-01 8.7965611856858483e-03  -3.7533707565347428e-02 1.2367341068923532e-01 1.5873032935053499e-02  -3.5252269344524204e-02 1.1841507834293878e-01 2.2948675607037856e-02  -3.2936939830724446e-02 1.1284112025817861e-01 3.0264663468768147e-02  -3.0587459377928099e-02 1.0679940107217935e-01 3.8060903665785469e-02  -4.0533685988638428e-02 1.6817048407150145e-01 9.1012834765372298e-03  -3.8647774770645439e-02 1.6499007883521169e-01 1.8180714007943549e-02  -3.6896527148012233e-02 1.6162695044042058e-01 2.6489652981845607e-02  -3.5181626726824608e-02 1.5796387302938841e-01 3.4389235567120036e-02  -3.3434688160558085e-02 1.5387672358576865e-01 4.2214439780244466e-02  -3.1596463618482500e-02 1.4925730353366989e-01 5.0278228101224530e-02  -2.9621881125603204e-02 1.4402474717291081e-01 5.8906790914658669e-02  -4.0172349034104382e-02 1.7955128969139061e-01 1.3479030027873864e-02  -3.8548988214296948e-02 1.7710333385378238e-01 2.2254415096066515e-02  -3.7021174174091807e-02 1.7433063936112478e-01 3.0277078187154114e-02  -3.5514556882738899e-02 1.7112944967755592e-01 3.7855409357539678e-02  -3.3965561244505137e-02 1.6739847172288894e-01 4.5313825331695631e-02  -3.2312805448852851e-02 1.6303459725659109e-01 5.2967750198518779e-02  -3.0497691173740332e-02 1.5793648597516904e-01 6.1155070952340136e-02  -3.6817623197808270e-02 1.2682288769396366e-01 -8.6793072665542152e-03  -3.3145925275499290e-02 1.0603792126952705e-01 -1.8437253089037535e-02  -3.1384101411623198e-02 9.7894995773636598e-02 -1.1230597774229880e-02  -3.4813850796845347e-02 1.1989463836913027e-01 -4.9141506642876520e-04  -2.9693744052347957e-02 9.0369026161626245e-02 -4.1509471464236860e-03  -3.2900392932974559e-02 1.1338359730515481e-01 7.2965410173486331e-03  -2.8005996288160421e-02 8.3171967469339109e-02 2.9546935177121240e-03  -3.1023436303647810e-02 1.0702116152486783e-01 1.4955327635319140e-02  -2.6279815682801234e-02 7.6089700344555769e-02 1.0263989814490566e-02  -2.9129290460550333e-02 1.0060987045328831e-01 2.2727651124562799e-02  -2.4481223670151247e-02 6.8962887424426342e-02 1.7933930674014335e-02  -2.7177196525536112e-02 9.4011596491285598e-02 3.0820289717516321e-02  -2.2590226205310825e-02 6.1666837320587788e-02 2.6098828537675527e-02  -2.5139848632201502e-02 8.7144650101864687e-02 3.9388233983589621e-02  -4.7272470530662983e-02 1.8911126162826347e-01 1.8151636647229498e-02  -4.5164677786419402e-02 1.8775523411189468e-01 2.5449404389230802e-02  -4.3156763585129182e-02 1.8591518279387059e-01 3.2055072037067076e-02  -4.1175194459959069e-02 1.8354502221546845e-01 3.8234692781221553e-02  -3.9142639910053567e-02 1.8057016615699681e-01 4.4244952708215317e-02  -3.6991831385671095e-02 1.7689135808986789e-01 5.0347518212430824e-02  -3.4660858794354113e-02 1.7238045045117345e-01 5.6827694270214724e-02  -2.4086088314158181e-02 1.8027603854374231e-02 -4.7240866898400270e-02  -2.5382945570779605e-02 2.2465403491817679e-02 -4.2344176765607304e-02  -2.4754727876240012e-02 1.5360087363882068e-02 -5.4641536734785785e-02  -2.6804164849716743e-02 2.9044280843888659e-02 -4.5962084963941420e-02  -2.5535054221971828e-02 2.4407704390637882e-02 -5.0277652553911444e-02  -2.3432456589833051e-02 9.4203988512940283e-03 -5.1201060955117741e-02  -2.2510007284275005e-02 1.1693882007883762e-02 -4.3488110653004369e-02  -2.3912725013325798e-02 1.5866869901900275e-02 -3.8019780383075838e-02  -3.4243130504705045e-02 1.2423452792082418e-01 -9.1071590231924047e-03  -3.2427410961988493e-02 1.1739525780393038e-01 -3.4535864964146501e-04  -3.0712103901223406e-02 1.1097994391110177e-01 7.9596207362518778e-03  -2.9035248904535939e-02 1.0474319437566440e-01 1.6116589256505939e-02  -2.7338056641380885e-02 9.8478014988834392e-02 2.4381353517214484e-02  -2.5581626255230548e-02 9.2044908268187411e-02 3.2963391698124254e-02  -2.3737675516142559e-02 8.5351981081997902e-02 4.2028429303265023e-02  -4.8518194902422394e-02 1.4300086995575251e-01 -4.7514898975478358e-03  -4.7817149242072629e-02 1.4896090785500682e-01 -1.3900703668419257e-03  -4.5313113696081452e-02 1.4462549414229528e-01 6.1723779932766716e-03  -4.5997843490171393e-02 1.3842012591972536e-01 2.5241283860392896e-03  -4.2864987613031445e-02 1.4029842040079862e-01 1.3138888968228351e-02  -4.3541639894129881e-02 1.3395791869197349e-01 9.2265303827685774e-03  -4.0433330067997104e-02 1.3587821107654052e-01 1.9784538465002558e-02  -4.1090767121330918e-02 1.2944424876108884e-01 1.5628136725062396e-02  -3.7973890443218070e-02 1.3119976493739194e-01 2.6370507026529814e-02  -3.8611943908768452e-02 1.2471672464305410e-01 2.1963456734480333e-02  -3.5454461551859433e-02 1.2611820809666316e-01 3.3131782294529913e-02  -3.6084213546943938e-02 1.1961874660035127e-01 2.8452095841871864e-02  -3.2850050273625878e-02 1.2049420662379336e-01 4.0267388322132149e-02  -3.3508403567813198e-02 1.1396890253660896e-01 3.5302471207019168e-02  -5.3148958690058277e-02 1.7381571952102629e-01 1.2238407803381668e-02  -5.0281846261779978e-02 1.7317470693547685e-01 1.1116340486408222e-02  -5.0028432337722618e-02 1.6228679206398280e-01 5.6473663776308381e-03  -4.7491293162388967e-02 1.5923228341565107e-01 1.2990715984252934e-02  -4.7770276105445604e-02 1.7083066645020933e-01 1.8341216934965956e-02  -5.0562600894795202e-02 1.7200718308996354e-01 1.8707298957583524e-02  -4.5017338714350229e-02 1.5606461030459093e-01 1.9711005165967334e-02  -4.5354112481717349e-02 1.6822981377696214e-01 2.4883602742839708e-02  -4.8027261519053344e-02 1.6990244242137073e-01 2.4539231933746207e-02  -4.2545302176098601e-02 1.5265603298784694e-01 2.6053939017938160e-02  -4.2943627162478758e-02 1.6526899281279242e-01 3.1033522463227523e-02  -4.5467990894304609e-02 1.6741812494859018e-01 2.9972270963046561e-02  -4.0020756944584943e-02 1.4887630332646704e-01 3.2260945564465744e-02  -4.0472838072407369e-02 1.6184428369991352e-01 3.7038791634314248e-02  -4.2818125971763196e-02 1.6446901516742210e-01 3.5209800317324451e-02  -3.7402271225717681e-02 1.4458707617598657e-01 3.8569890455787480e-02  -3.7890719738034352e-02 1.5783648220501062e-01 4.3138955427661760e-02  -4.0010920018364177e-02 1.6094381584061163e-01 4.0445351809420389e-02  -3.4655917085109934e-02 1.3961950326213712e-01 4.5258374881817831e-02  -3.5161442082689287e-02 1.5311697808362948e-01 4.9570485317934704e-02  -3.6963436534947783e-02 1.5665988376373061e-01 4.5850469750919914e-02  -5.0830434420760760e-02 1.9548497877966461e-01 2.1998025546864568e-02  -4.8588174257767944e-02 1.9490845199008042e-01 2.8089738985811123e-02  -4.6442830973034969e-02 1.9376188464108987e-01 3.3574847051377948e-02  -4.4300076237474909e-02 1.9201674214539666e-01 3.8655881389594623e-02  -4.2083838774964306e-02 1.8961763789715613e-01 4.3530963362184788e-02  -3.9719409507417515e-02 1.8647099482573049e-01 4.8404863027465973e-02  -3.7144338637333622e-02 1.8244203582956206e-01 5.3499176902513983e-02  -4.6353567246398115e-02 1.4463869632512805e-01 1.3811462137932469e-02  -4.3685990437560933e-02 1.2595637717871291e-01 5.1148509431974878e-03  -4.8937679904528769e-02 1.4818594752002834e-01 7.6033601621443170e-03  -4.1242654111193447e-02 1.2128480647709720e-01 1.1309951877513448e-02  -4.3768013167321061e-02 1.4092386931711315e-01 1.9662959325084706e-02  -3.8775490313765065e-02 1.1643488716585168e-01 1.7450301727973887e-02  -4.1121824735730006e-02 1.3691646572615432e-01 2.5371605129448402e-02  -3.6262013602670090e-02 1.1124251525567838e-01 2.3743377388355847e-02  -3.8367400766712266e-02 1.3248687459012248e-01 3.1127648912263755e-02  -3.3692785082107136e-02 1.0554000452130201e-01 3.0418521133635933e-02  -3.5458116109375416e-02 1.2745845859955565e-01 3.7097008928605839e-02  -2.8995294604060876e-02 8.5902151024422835e-02 -1.6601353264889651e-02  -2.9260209836282889e-02 7.6792296136651617e-02 -2.4515133740548430e-02  -2.7511951186153818e-02 7.8113132356900872e-02 -9.8775178601723489e-03  -2.7814695372544811e-02 6.8854934005005114e-02 -1.8774443807298199e-02  -2.6013118731588729e-02 7.0766973018097840e-02 -3.0439223094582716e-03  -2.6307459426826094e-02 6.1404162033015110e-02 -1.2794756342658895e-02  -2.4457200556319076e-02 6.3617216617719130e-02 4.0471017972731563e-03  -2.4720275239686184e-02 5.4183894160305092e-02 -6.4705085172685620e-03  -2.8188757263355263e-02 9.6710326396276733e-02 2.4194493263819247e-03  -2.6704477719381350e-02 9.0097295149433126e-02 1.0499406191084885e-02  -2.5185816897630428e-02 8.3557209899574700e-02 1.8738353585022564e-02  -2.3598506490413923e-02 7.6931040098357134e-02 2.7323875801742593e-02  -2.1925217863252893e-02 7.0102137517132374e-02 3.6427980668422441e-02  -3.9048531042662080e-02 1.9042489930270962e-01 1.7501272948535197e-02  -3.7785694785021834e-02 1.8868950139695212e-01 2.5865816162650671e-02  -3.6582880337705861e-02 1.8646943014302728e-01 3.3444439915254344e-02  -3.5380569896730316e-02 1.8370811770820458e-01 4.0561958964300815e-02  -3.4122388004925494e-02 1.8031663237069190e-01 4.7519314080280407e-02  -3.2748583351918457e-02 1.7618518679807474e-01 5.4621749821117838e-02  -3.1197663055142190e-02 1.7120923167129445e-01 6.2207111618118503e-02  -4.7209802098583456e-02 1.5588914633172324e-01 2.4409436027359810e-03  -4.4749529223081973e-02 1.5201421989109384e-01 1.0302022006755510e-02  -4.2370188489834461e-02 1.4812980929755259e-01 1.7530117836232005e-02  -4.0010316264798597e-02 1.4408690870847804e-01 2.4413686174603464e-02  -3.7620428975232656e-02 1.3972990193135570e-01 3.1220107779708309e-02  -3.5164613288673902e-02 1.3491463939256546e-01 3.8203391696388894e-02  -3.2628789608903648e-02 1.2949832595674285e-01 4.5641297393326771e-02  -3.1005305867474870e-02 1.2550525858314410e-01 1.4967751675710492e-02  -3.2589401788781502e-02 1.3115835011610807e-01 6.1426681335562958e-03  -2.9467939962639869e-02 1.1990639939014709e-01 2.3529885537449672e-02  -2.7911799880889151e-02 1.1418166063587004e-01 3.2139437202803281e-02  -2.6293488546079130e-02 1.0821059700447609e-01 4.1047617371101477e-02  -2.4582059595495028e-02 1.0190786781783714e-01 5.0445889082427961e-02  -3.5461832050979650e-02 8.1710672120501551e-02 -3.8682725724208313e-02  -3.4149256531258228e-02 8.2367113794304253e-02 -3.7512112001354236e-02  -3.2455002433816008e-02 7.3621262354437375e-02 -3.3348853459221776e-02  -3.3723205776045879e-02 