<?xml version="1.0"?>
<VTKFile type="UnstructuredGrid"  version="0.1"  >
<UnstructuredGrid>
<Piece  NumberOfPoints="924" NumberOfCells="3857">
<Points>
<DataArray  type="Float64"  NumberOfComponents="3"  format="ascii">4.866740759856238 2.970598572727202 0.7452098626654561  4.843521516621431 2.781842784593771 0.7532801393072164  4.956062980280707 2.864062794301271 0.7507973375668849  4.859928352991076 2.966519487149783 0.8183280400299996  4.873568306354763 2.974639002367988 0.6722999655919009  4.851306776570583 2.771900293154121 0.6837477350422345  4.962797925284274 2.858514698176455 0.6798111205590183  4.880382228919934 2.978634506368365 0.5996339798982626  4.859086882358516 2.761970267253339 0.6143829702742524  4.969527458429766 2.852958361178944 0.6090659181115927  4.976219049453461 2.847393387007213 0.5384750965050916  4.887156881809866 2.982580393679036 0.5271957003041294  4.866828159728683 2.752062490643786 0.5452154866531981  4.98285040471854 2.841799469860263 0.4680650084130542  4.893878821355813 2.986481289898671 0.4549328513053388  4.874502658587133 2.742135600302739 0.4761878719129477  4.882053048121235 2.732132608100691 0.4072860272503801  4.900534241582029 2.990314871835532 0.3827595389055295  4.989456808370991 2.836150255856923 0.397882056176699  3.179214107900854 3.03617855153557 0.8528137542545382  3.278440755230003 3.169005856729401 0.8615816796601879  3.307547427420377 3.045302268486585 0.8440821367485494  3.300543182469791 3.050541679021938 0.7649890185403561  3.274495043251769 3.183290791309249 0.7815071365073698  3.179087127441906 3.039508770332678 0.7737493498578153  3.293651420504612 3.055648528355261 0.6860146343733233  3.270709358430306 3.197427649178184 0.7014940657473254  3.179068295387259 3.042681275405387 0.694761164634993  3.286826154306355 3.060629903296842 0.6071314051693989  3.266989047819271 3.211445226513176 0.6215611611213063  3.179119934725088 3.045740701091636 0.615849849792793  3.280036412508429 3.065563869736264 0.5283139387549678  3.263255724843749 3.225376329506217 0.541695067250479  3.179210633050573 3.048753534937278 0.5369925316448753  3.273209398172618 3.07049467647006 0.4495526378181295  4.709524096346447 3.030528688036755 0.8065758533703065  4.733283786945953 2.888674728201619 0.8035550651292183  4.742644950593084 2.88699552847934 0.7308039699302495  4.71765521189012 3.040384835648037 0.7320178373682973  4.725806969042818 3.050195291183732 0.6577506160322433  4.752050743280193 2.885342586023683 0.6583489837492126  4.733953186811149 3.059921594594488 0.5837128138774452  4.761445270030214 2.883679904383109 0.5861482486135013  4.742061800793913 3.069570159566869 0.5098493644625902  4.770803359181032 2.881992620221226 0.5140878462430618  4.750101149920225 3.079159201121689 0.436128967847333  4.780098261258271 2.880271056324534 0.4421743021095001  4.758022200295426 3.088661099344434 0.3625718031084363  4.789213945589674 2.878461392703021 0.3704265041673108  4.826193148315443 3.114464495331196 0.8320526159675583  4.832762776549809 3.130571591078948 0.75822187859904  4.839320707889831 3.146585836301525 0.6847057941302398  4.845870892362726 3.162479751045523 0.6114269808382855  4.85241052951528 3.178244847439229 0.5383156908470513  4.858889485120624 3.193914423191619 0.465352312603208  4.86531251603007 3.209527417697009 0.392553808873009  3.511517512117915 3.322787742548778 0.8999018652337446  3.588560958859979 3.42594012214533 0.9650718213152492  3.646918929858691 3.33001940675391 0.9004691850861948  3.647040596742558 3.368426197089497 0.8258154306616122  3.590181783458994 3.475062424138547 0.8964795986506564  3.510398687848614 3.359176286199274 0.8243143809239407  3.509448877178209 3.395402847067939 0.7487838395477394  3.591953688158991 3.523993605002844 0.8279674512333594  3.647322881677399 3.406628153438631 0.7512835989696642  3.647647647309975 3.44468633057993 0.6768185146595115  3.593762929102924 3.572790224754173 0.7595279994241251  3.508556777366187 3.431495288797144 0.6733501999861553  3.595542509637744 3.621489012764939 0.6911396453792104  3.507631233729533 3.467491076198367 0.5979684371340185  3.647942731551888 3.482620944566297 0.6024364831313659  3.597230214744755 3.670117706393692 0.6227957372601054  3.506602754394577 3.503424110372953 0.5226341338548032  3.648138196172595 3.520472902351038 0.5281130505875464  3.598768046097824 3.71869386395531 0.5544811658464326  3.505399101686442 3.539334628729083 0.4473313983107071  3.64817914804955 3.55828150023294 0.4538532727949677  3.722150852668974 3.025328029388652 0.8162656323410604  3.825497730722695 3.170559946372454 0.830524936866567  3.855976599379781 3.042696080718812 0.8087432398391544  3.845184779579091 3.052093179773321 0.7299172408399719  3.819694539218697 3.193127185184028 0.7517648164465378  3.717385575816528 3.03136733852616 0.7367612734449445  3.834474024867039 3.061436868657389 0.6513024694563077  3.814001527133627 3.21558721435092 0.6731698539744165  3.712692393589652 3.037321700532373 0.6574393264470378  3.823803577156641 3.070685881123105 0.5728731881528679  3.808367856621188 3.237908244736189 0.5947318971638968  3.708039097034201 3.043178682832513 0.5782840791996033  3.813154866962269 3.079859545839802 0.494566055722708  3.802733957204932 3.260104526630825 0.516403241612171  3.703425520406717 3.048977531395446 0.4992388214497565  3.80251017659085 3.089005134860646 0.4163419765803373  3.797060590219882 3.282241537300454 0.4381609908706087  3.698801969886401 3.054751946766937 0.4202857295767784  3.791810095424464 3.098125269887166 0.3382018200612978  3.791277474873271 3.304350378947188 0.3599972154496439  3.694048339761023 3.060522073309135 0.3414431730927923  3.613978903694048 2.952514415113171 0.8195264997886784  3.580121626854475 3.109349398107173 0.8299207321424331  3.576430238206139 3.121687512580356 0.7496587120343093  3.608735911520156 2.950784156008273 0.7411754984154317  3.572844608242656 3.133906647667594 0.6695459627596004  3.603556461224597 2.948964491425909 0.6629820687923857  3.569311355322124 3.145991750525289 0.5895679050565785  3.598430185743037 2.947072952789833 0.5849426390389307  3.565781366058651 3.157988010062097 0.5096839848255219  3.593355946758626 2.945154902100816 0.5070015828052367  3.56221233223808 3.169974956585922 0.42987521418371  3.588253779036063 2.943225550054813 0.4291584439513304  3.558491611000645 3.181967588205337 0.3501269559309986  3.583031582718157 2.941315641147 0.3514128589479311  3.293692565451235 2.927590962353801 0.8407610859497247  3.394720682955727 2.851849901291966 0.845489989719323  3.270176649715034 2.795052701267756 0.8661642120184279  3.266628202651244 2.780628283820695 0.7930836143832095  3.389219650933562 2.840140625727656 0.7704321027653407  3.28890557653737 2.922728585236655 0.7634755105724147  3.263178035791628 2.766137958132169 0.7201199448634495  3.383787030343434 2.828349520669732 0.6955020927347897  3.284189957437077 2.917743274285037 0.6863135649017182  3.259810764544264 2.751604375995139 0.6472648908544701  3.378443856868513 2.81651810152222 0.620690455555829  3.279570601316932 2.912693875381575 0.6092447459975742  3.256472110445849 2.737044490207458 0.5744973046699285  3.373132317252573 2.804660699198003 0.5459766548915991  3.274988213606887 2.907607260378443 0.5322508341587235  3.253091844800758 2.722485899009148 0.5018069728421301  3.367785810226914 2.792809385673467 0.4713548646789337  3.270360086352559 2.902524416843733 0.4553354209072567  3.249608569750634 2.707970883277991 0.429191071272443  3.36236361476128 2.781007660342954 0.3968116202714431  3.265626875234735 2.897494909683828 0.3785044980129631  4.990490766195546 2.682871193344882 0.6547325902157985  4.882134474237772 2.628941335253899 0.6570308895243501  4.995344748953766 2.54914430217962 0.6949000363627381  4.873512912690616 2.645956892851059 0.7223341868046192  4.983603274218536 2.697724872074985 0.7210392824178136  5.000992060982445 2.531046335002831 0.6318555482999171  4.997347526382589 2.668053728692989 0.5885869146064212  4.890737953491624 2.611971058564245 0.5918678277437036  5.006585983754952 2.512949334474249 0.5689647070769878  5.004149054933904 2.653227252238886 0.5225909158953012  4.89927574486325 2.594994365859309 0.5268414453114002  5.012077689665998 2.494802691615322 0.5062615239846566  5.010854372874558 2.638336716735564 0.4567626000939495  4.907642590989667 2.577956593971791 0.4619889606167025  5.127699853251326 2.723304147664729 0.4475897876254027  5.142608563328923 2.563759604912179 0.4969229170095164  4.377814902920252 3.473952050817685 1.006789751675619  4.520671254367672 3.497051572133731 1.046808632105603  4.462785480987413 3.421883770589118 0.9567985997446762  4.46570604034946 3.475251255287521 0.8968390389811499  4.522862380525055 3.559358767186026 0.9977970308484098  4.379426058380475 3.534209617661762 0.9532246097670545  4.468621829626833 3.528263803837432 0.8369623089987895  4.525045551624128 3.621293511311847 0.9487171205504817  4.381053097060618 3.594138060406081 0.8996527263474765  4.471533304277458 3.581021700859688 0.777174683504491  4.527220422294955 3.682988558526347 0.8996503002146006  4.382683484342874 3.653845689331687 0.84612249642743  4.474422417677233 3.633612415498395 0.7174514836386342  4.529393858979014 3.744549664911509 0.8506146747443049  4.384305872024428 3.713411408262448 0.7926354316246005  4.477289655085895 3.68608981595069 0.6577974253880969  4.531574233368245 3.806029400991768 0.8016394988952265  4.385916393750235 3.772884310506581 0.7392073086913797  4.480138562014515 3.738496151639822 0.5982077896515059  4.533762810044854 3.867459385874229 0.752767685220836  4.387514775982454 3.832280234733123 0.6858573515403308  4.835772757098651 2.791863139997921 0.8231085654265681  4.895895075422051 3.553539868555798 1.150352368266845  5.04285834210417 3.550177864758832 1.151956699846334  4.978356588303702 3.487077793693347 1.058306363757126  4.982602819693198 3.54380438564549 1.007100110934736  5.044651575387922 3.612019785876852 1
[...]
<PointData  Vectors="f_24"> 
<DataArray  type="Float64"  Name="f_24"  NumberOfComponents="3" format="ascii">2.1460149094483912e-02 -2.2466171387557791e-02 4.4356591428087025e-02  2.3296741938357131e-02 -2.6040469029031871e-02 2.9809133313565189e-02  2.0869287028724089e-02 -2.3956957852986033e-02 3.8281634220679449e-02  2.0396826338050109e-02 -2.4910907803554500e-02 4.3852647914857233e-02  2.2549213872109102e-02 -2.0543023877579770e-02 4.4423870162492551e-02  2.4510853669525112e-02 -2.3571498693559931e-02 2.9512340889211681e-02  2.2102105836232167e-02 -2.1757655599852047e-02 3.7998612951269009e-02  2.3662890917044193e-02 -1.8098998352485667e-02 4.4335026499433071e-02  2.5772016660448361e-02 -2.0587153700096367e-02 2.9079881472223471e-02  2.3317607883304923e-02 -1.8965753593409213e-02 3.7584125282202521e-02  2.4546716928755121e-02 -1.5485884945483384e-02 3.6957422436696669e-02  2.4815621087300326e-02 -1.5124871512753149e-02 4.4040634063616385e-02  2.7054659260890592e-02 -1.6814758557849641e-02 2.8440236804572992e-02  2.5870175487622066e-02 -1.1618297392950287e-02 3.5910070622608065e-02  2.6088009399576978e-02 -1.1842579871667333e-02 4.3301129091186004e-02  2.8434116838465331e-02 -1.2573324658142124e-02 2.7422793225643321e-02  2.9930685413431544e-02 -7.9940279366331902e-03 2.6073880931266540e-02  2.7512068631838905e-02 -8.2317384918777561e-03 4.2183032022329960e-02  2.7231006619079363e-02 -7.4354011013191973e-03 3.4655377151509202e-02  3.9299701182122490e-02 -3.4447582267653015e-02 1.7098816708184146e-02  3.7640693252211255e-02 -3.1851103195752004e-02 3.0351484570636061e-02  3.8170288841385257e-02 -3.3298274859774775e-02 2.1613056813897788e-02  3.9748766233332865e-02 -2.9905370787178399e-02 2.2355157786620949e-02  3.9064728181191784e-02 -2.9361766407496857e-02 3.1232851005268028e-02  4.0630196751880072e-02 -3.0654271292379607e-02 1.8114598322948389e-02  4.1205649859096291e-02 -2.7018834450909919e-02 2.2600783035305549e-02  4.0338057714477751e-02 -2.7080763876100006e-02 3.1549955602343548e-02  4.2002914354469748e-02 -2.7632983861867161e-02 1.8633247414632615e-02  4.2676661533844529e-02 -2.3516915363799688e-02 2.2640294756101097e-02  4.1672513603051714e-02 -2.4261203692469119e-02 3.1638157412890298e-02  4.3443166916491936e-02 -2.4033296135356375e-02 1.8906122354013594e-02  4.4112949579744536e-02 -1.9451826884573351e-02 2.2391230721046023e-02  4.2984502687541455e-02 -2.1091159451658799e-02 3.1419271192691937e-02  4.4904030965904070e-02 -1.9811167926165746e-02 1.8888151817416321e-02  4.5559666867755338e-02 -1.5025706651242894e-02 2.1583450594172895e-02  2.2331864572921672e-02 -2.3955800623293274e-02 4.5634110774240344e-02  2.3219527230884652e-02 -2.6761967153512499e-02 3.6057050994235819e-02  2.4242606053574513e-02 -2.3717698684148407e-02 3.6453649099550713e-02  2.3344651296833632e-02 -2.1855635163958258e-02 4.6232533155151752e-02  2.4365119796417419e-02 -2.0019111094906297e-02 4.6362053498477926e-02  2.5325705746090773e-02 -2.1374597574123654e-02 3.6515143862291613e-02  2.5426175731853705e-02 -1.7735631592406088e-02 4.6311164553518282e-02  2.6492256321665686e-02 -1.8504912254056097e-02 3.6379862582267754e-02  2.6549763426187922e-02 -1.5039807143994742e-02 4.6048707359720026e-02  2.7721148672522282e-02 -1.5025168072704816e-02 3.6032861686928021e-02  2.7870344149587275e-02 -1.2058923260003452e-02 4.5347830786836130e-02  2.9072667249875318e-02 -1.1171388685787046e-02 3.5279859798381094e-02  2.9433633603628270e-02 -8.8018818352641887e-03 4.4369956663545131e-02  3.0673471420031673e-02 -6.9950096656066071e-03 3.4204914785548171e-02  1.9703075551458577e-02 -2.2360745887232310e-02 5.2468389373306286e-02  2.0610028518664884e-02 -2.1071901332168352e-02 5.2891766728158388e-02  2.1561969331866059e-02 -1.9807275879521576e-02 5.2863851508957678e-02  2.2548383994298787e-02 -1.8107166043134115e-02 5.2671037542980158e-02  2.3587676105142775e-02 -1.6081802158256366e-02 5.2248389203460095e-02  2.4787682499612166e-02 -1.3772395114244959e-02 5.1379938159656628e-02  2.6171821156693684e-02 -1.1202634975046128e-02 5.0206738549235172e-02  3.4668221164468320e-02 -2.8395439447046891e-02 4.2808437460800479e-02  3.2271396515818063e-02 -2.4877644638365507e-02 4.5141945610923759e-02  3.3403601412897242e-02 -2.7223627643803254e-02 4.5169590226441104e-02  3.3884588988662798e-02 -2.6703896413973326e-02 4.5458510389281365e-02  3.2590175932928039e-02 -2.5445166913506935e-02 4.5395920155866798e-02  3.5245003483245031e-02 -2.7736675771123365e-02 4.3377349750127726e-02  3.5995788149857530e-02 -2.6813837191727995e-02 4.3392035243556074e-02  3.2966246243220781e-02 -2.5566357023095981e-02 4.5099355869244712e-02  3.4436197581833847e-02 -2.5998259417417249e-02 4.5335367234661181e-02  3.5108481710131589e-02 -2.5022002583609652e-02 4.4906111109244196e-02  3.3508922022683879e-02 -2.5473369998953974e-02 4.4349558859791832e-02  3.6824430347828889e-02 -2.5607713679371837e-02 4.3083848527308025e-02  3.4095482216557581e-02 -2.5191358112905144e-02 4.3190715102617974e-02  3.7679331909175995e-02 -2.4185373423731098e-02 4.2420987235977481e-02  3.5810153282104608e-02 -2.3808257182936936e-02 4.4138971338601542e-02  3.4693141710989049e-02 -2.4626099026077739e-02 4.1439630775630593e-02  3.8542410479867041e-02 -2.2484023825737314e-02 4.1198412270698065e-02  3.6509570767485372e-02 -2.2287058817301707e-02 4.2831299063778826e-02  3.5238711824059556e-02 -2.3857560849066383e-02 3.9200239266525973e-02  3.9329438308880652e-02 -2.0591272484145329e-02 3.9562542171807012e-02  3.7236049698343515e-02 -2.0647151117255940e-02 4.1226151387696239e-02  3.5669243090043143e-02 -3.0610987926145798e-02 2.9189380974511358e-02  3.3611810397333866e-02 -2.7797934331242939e-02 4.1687239547945787e-02  3.4089106338121247e-02 -2.9170137157490738e-02 3.2544699576030019e-02  3.5282514266898171e-02 -2.6171745299207700e-02 3.3369491954797638e-02  3.4444834547244937e-02 -2.6004154013359527e-02 4.2121545882939648e-02  3.6637606983983523e-02 -2.7394282602871717e-02 2.9913013667298163e-02  3.6476152792025374e-02 -2.3726903112568067e-02 3.3570411071027768e-02  3.5274581801962718e-02 -2.4247973487378987e-02 4.2037383980594749e-02  3.7805265496039096e-02 -2.4695520255148217e-02 3.0054672382737607e-02  3.7712854280599825e-02 -2.0788536703685676e-02 3.3469145196363889e-02  3.6181728712855465e-02 -2.2065406413857840e-02 4.1797614709196823e-02  3.9060618413912881e-02 -2.1433562608889577e-02 2.9941976392771456e-02  3.8852599176990917e-02 -1.7393714119662573e-02 3.3085548456956167e-02  3.7091812038237117e-02 -1.9571449910254037e-02 4.1318340983962490e-02  4.0225942091790236e-02 -1.7664162092111180e-02 2.9569357872910894e-02  3.9906278793216544e-02 -1.3664786650564540e-02 3.2238056159106188e-02  3.7943952182320169e-02 -1.6790093832345174e-02 4.0391600371452889e-02  4.1352505724906362e-02 -1.3563607959582684e-02 2.8680211701189697e-02  4.0745477670352415e-02 -9.6223177703868897e-03 3.0951588450762603e-02  3.8683592338123102e-02 -1.3717496908977309e-02 3.9094519486368592e-02  4.2469310890706026e-02 -9.1123542259546747e-03 2.7281989461878545e-02  3.6686375934723528e-02 -3.2636006656827213e-02 2.1173379968826806e-02  3.6389297854352270e-02 -3.0299906256828990e-02 3.3575749242026748e-02  3.7393064767996455e-02 -2.7837413738425718e-02 3.4206695470442472e-02  3.7940951643549693e-02 -2.9000138117435039e-02 2.1476378599615927e-02  3.8474241042923588e-02 -2.5419953486299517e-02 3.4231451902476638e-02  3.9270713019797322e-02 -2.5912560640792382e-02 2.1302539299150981e-02  3.9628305350473077e-02 -2.2447780421175782e-02 3.4034617661533179e-02  4.0703466763535479e-02 -2.2157443605888096e-02 2.0931618434382612e-02  4.0751296292675300e-02 -1.9071407567202468e-02 3.3555508116648806e-02  4.2062438887287314e-02 -1.7749660381865862e-02 2.0312132491834972e-02  4.1892715852136608e-02 -1.5393151548169165e-02 3.2564597896447868e-02  4.3381165550645764e-02 -1.2928862786276432e-02 1.9195430929013907e-02  4.3061119635482266e-02 -1.1459313192433955e-02 3.1190818399122910e-02  4.4740190862919083e-02 -7.7784074344146442e-03 1.7605713451103469e-02  3.8502720865515344e-02 -3.5525683605430916e-02 1.1243167464785785e-02  3.7654326180310178e-02 -3.7248177384881766e-02 5.5090329366805696e-03  3.8372217940663436e-02 -4.0781866707318197e-02 -4.4679325021809808e-03  4.0149167210117555e-02 -3.5693956733716149e-02 -4.7546694039594418e-03  3.9439074084575504e-02 -3.2825207051499675e-02 5.3592699859349403e-03  4.0225366434056435e-02 -3.1473649629626753e-02 1.1252085828779325e-02  4.1804110151002868e-02 -3.2112167946657506e-02 -5.1823898509761584e-03  4.1083811799314522e-02 -2.9429883926652019e-02 4.8565288752407529e-03  4.1823230319630540e-02 -2.8150934007320810e-02 1.0990098354778176e-02  4.3498538411930597e-02 -2.7973152895196501e-02 -5.8001669506479057e-03  4.2757147761496903e-02 -2.5324776060364703e-02 4.1537244927351081e-03  4.3418342764107887e-02 -2.4085722761573575e-02 1.0631811974599972e-02  4.5187387491858633e-02 -2.2679530631042642e-02 -6.7015595436148616e-03  4.4402351032132546e-02 -2.0199830296069997e-02 3.1822476527094564e-03  4.5000895450227285e-02 -1.9189816758738942e-02 1.0041443987982492e-02  4.6886159947954552e-02 -1.6599837684570469e-02 -8.0725416482783485e-03  4.5989142308426004e-02 -1.4492200526290931e-02 1.7230607511544808e-03  4.6571172875181061e-02 -1.3824439462219331e-02 8.9430036017436997e-03  4.8645660469691342e-02 -1.0092635156671324e-02 -9.9432430108371446e-03  4.7610434706206163e-02 -8.4040184843285279e-03 -1.9007876527717504e-04  4.8172511778214348e-02 -8.0625414569866771e-03 7.3688631891385831e-03  2.4053209085730800e-02 -2.3192873717137342e-02 2.4657359490329323e-02  2.6129525163714466e-02 -2.4710814608679518e-02 1.8329018057382671e-02  2.4810968306091353e-02 -2.7738991060282644e-02 1.3389040414486509e-02  2.4847438502413485e-02 -2.7616358490790183e-02 1.8865995061104333e-02  2.2783811697163633e-02 -2.6008349555716410e-02 2.5166826726099534e-02  2.6080967768093960e-02 -2.4052396435344986e-02 1.2584761556367324e-02  2.5300065568597402e-02 -1.9502313287507077e-02 2.3888009988148152e-02  2.7413171511411566e-02 -2.0896715808302931e-02 1.7533604452581533e-02  2.7386267415509424e-02 -1.9625391488785848e-02 1.1447769321553777e-02  2.6610948729273085e-02 -1.5210109042627937e-02 2.2731361806227694e-02  2.8764804807846447e-02 -1.6432395685832681e-02 1.6381813599321272e-02  2.8768151519302041e-02 -1.4766007088577955e-02 1.0060405803757669e-02  2.8024495775224798e-02 -1.0545700890959384e-02 2.1243688571744881e-02  3.0241330657240370e-02 -1.1573349406115102e-02 1.4901994137442580e-02  2.5299759256906921e-02 -9.3930391429014534e-03 2.9222823551796423e-02  2.6009923052053852e-02 -1.2953671310536027e-02 1.7650668675607929e-02  2.3100759385858847e-02 -1.3662646214903030e-02 5.3374271805368440e-02  2.0481243330744497e-02 -9.9868651684167382e-03 5.4336011025904934e-02  2.2741027965436506e-02 -1.6338829131909455e-02 5.4900327161161992e-02  2.2590258712644827e-02 -1.7397920207991451e-02 5.3901448989190692e-02  2.0246651343053895e-02 -1.1901715269964473e-02 5.2450273640493289e-02  2.2723876047315680e-02 -1.5222667443090719e-02 5.1942189634948871e-02  2.2663067781670581e-02 -1.8140742314599948e-02 5.2583394996380248e-02  2.0026335595914064e-02 -1.3261610511061219e-02 5.0430789094656488e-02  2.2560271330468860e-02 -1.6320923593227916e-02 5.0230252918286707e-02  2.2906638272054906e-02 -1.8716987323558573e-02 5.0986321590256990e-02  2.0012792614160058e-02 -1.4491155615426878e-02 4.7987763234582585e-02  2.2599573763347151e-02 -1.7278760220046110e-02 4.8148846174526472e-02  2.3264802318361411e-02 -1.9089162555677341e-02 4.9142697241283000e-02  2.0147003840094390e-02 -1.5545497000803760e-02 4.5225902904448466e-02  2.2756393470067780e-02 -1.8036166749111182e-02 4.5779017288431874e-02  2.3735030489394685e-02 -1.9151051181877297e-02 4.6951636953572837e-02  2.0374180398480955e-02 -1.6278370651145267e-02 4.2083010998730623e-02  2.2979432034640188e-02 -1.8462512108189458e-02 4.3023650369067697e-02  2.4305235241782640e-02 -1.9034021878326344e-02 4.4556457451621970e-02  2.0669425903545754e-02 -1.6807183737518428e-02 3.8619057091497162e-02  2.3241615464513046e-02 -1.8702347307775282e-02 4.0044662247870851e-02  2.2147218927391656e-02 -2.9366338031830818e-02 2.9960762100870588e-02  1.2945178745814112e-02 -8.9091591727231967e-04 5.6278102409932439e-02  1.0599485596149406e-02 -1.0329333134927261e-03 5.7846987043224538e-02  1.2566631898018118e-02 -9.5560072412591065e-03 5.9816236796273403e-02  1.3066347940676772e-02 -1.1111756030983513e-02 5.8011395789519582e-02  1.0874416265592790e-02 -3.2982727899407509e-03 5.5196401221076663e-02  1.3133033701933616e-02 -3.2244364066028701e-03 5.3503742378459361e-02  1.3236927626904333e-02 -4.9519466196431636e-03 5.0819315280467486e-02  1.1226321926934660e-02 -5.0087115932269111e-03 5.2608302700043130e-02  1.3503538518929051e-02 -1.2342623854630743e-02 5.5955794396019672e-02  1.2366262233764729e-02 -9.8452608499262819e-03 4.1825059431163811e-02  1.4028738821543709e-02 -9.6592628355188365e-03 3.9867749141159176e-02  1.4995238138540996e-02 -1.5654522854017444e-02 4.7522902013672083e-02  1.4402828142534791e-02 -1.4762407285571341e-02 5.0749647621613658e-02  1.4518431455134735e-02 -1.0789210791637688e-02 3.5293453295012843e-02  1.2902437873753995e-02 -1.1047183823935915e-02 3.7231136778443780e-02  1.5785148012843083e-02 -1.6506383333157359e-02 4.4014287456130383e-02  2.6963132736738792e-02 -3.0752185113874533e-02 4.7732811786379168e-03  2.5677757466558451e-02 -3.3499667939775907e-02 5.3235463436589695e-03  2.8276464225771347e-02 -2.7078003541852910e-02 3.9909373893690309e-03  2.9615229888318835e-02 -2.2571174695161098e-02 2.9140892769525862e-03  3.1016314542932445e-02 -1.7617966943535446e-02 1.6216642613466655e-03  2.2014542404758714e-02 -1.8517555010990533e-02 5.4862207782121489e-02  2.1966724526871970e-02 -2.0944542132903220e-02 5.4568981149817883e-02  2.4384810963010536e-02 -2.1526736385649895e-02 5.2064070770371361e-02  2.5007817401127428e-02 -2.0891766888857244e-02 5.2302220892303651e-02  2.2639664214044893e-02 -2.0530086714259266e-02 5.4631436698037078e-02  2.2484985765398851e-02 -1.9063973351601860e-02 5.4832975516509522e-02  2.2829188175397478e-02 -1.9355403562082641e-02 5.4287503396147962e-02  2.3302305486408929e-02 -1.9945361531323140e-02 5.4325086986675750e-02  2.5652897111512543e-02 -2.0180884361514415e-02 5.2104833471201172e-02  2.3323842821281252e-02 -1.9383980712875636e-02 5.3427492052268058e-02  2.4031236930828554e-02 -1.9089724538480929e-02 5.3840640018827296e-02  2.6363388781526720e-02 -1.9166764063983526e-02 5.1688456523720928e-02  2.3943294587558769e-02 -1.9186431013362919e-02 5.2288864170466139e-02  2.4874151652736091e-02 -1.8020117092321389e-02 5.3127799178218742e-02  2.7187426346901526e-02 -1.7919696681227105e-02 5.1049547036590766e-02  2.5922523038344206e-02 -1.6685233582980585e-02 5.2030218522080035e-02  2.4716014703587738e-02 -1.8687514448581424e-02 5.0753657546572031e-02  2.8174205640011690e-02 -1.6394162911499126e-02 5.0060547375705991e-02  2.5673458608516202e-02 -1.7981244779198172e-02 4.8947918681566359e-02  2.7236084985846325e-02 -1.5171045727237258e-02 5.0861848411807374e-02  2.9287591519067308e-02 -1.4668902833130456e-02 4.8942336983042886e-02  3.5701281831753362e-02 -3.3084494446620129e-02 1.8046286856199523e-02  3.6360951234485406e-02 -3.7243119277316057e-02 5.4536380454054479e-03  3.7834599581361504e-02 -3.2674859337753527e-02 5.2066620280334886e-03  3.7007058026287981e-02 -2.9035621516444347e-02 1.8286795958794129e-02  3.8432263953912811e-02 -2.5812555268272176e-02 1.8144315772576757e-02  3.9409363828157927e-02 -2.9253249242160762e-02 4.6971335243382968e-03  3.9936233409597233e-02 -2.2043227052784459e-02 1.7787464290132959e-02  4.1093936332626771e-02 -2.5229443797808511e-02 3.9659966591105607e-03  4.1346103221164637e-02 -1.7571309948112557e-02 1.7191187266954400e-02  4.2722637492619217e-02 -2.0213660697033103e-02 2.9747706192850836e-03  4.2638891000540434e-02 -1.2624614011103711e-02 1.6131604168443576e-02  4.4231667643604186e-02 -1.4574893315667355e-02 1.5181400578672872e-03  4.3869566991423414e-02 -7.3368707970536450e-03 1.4579348551084378e-02  4.5759395835319475e-02 -8.5524083493868676e-03 -4.2191212151533022e-04  3.1545069149606905e-02 -2.5595472567233470e-02 4.4572273846524277e-02  2.9550846253566288e-02 -2.3779828605974641e-02 4.9849282254116459e-02  3.0775574473797303e-02 -2.4394424613254532e-02 4.4688622176090598e-02  3.1316981922661198e-02 -2.3306361335989356e-02 4.5690233681338052e-02  2.9944227406001875e-02 -2.3580551834981152e-02 4.9735837423843292e-02  3.2277708908932806e-02 -2.4589011461082590e-02 4.5519067218239381e-02  3.3002375262072094e-02 -2.3542568378507597e-02 4.5717963875498258e-02  3.0360652704453969e-02 -2.3216410986143372e-02 4.9144086031705704e-02  3.2006366096796419e-02 -2.2237908757737884e-02 4.5929883354433154e-02  3.0889500046697934e-02 -2.2632722475077062e-02 4.8298329075190854e-02  3.3790557872921678e-02 -2.2110995195537764e-02 4.5556322823871266e-02  3.2792700166631682e-02 -2.0746498698296142e-02 4.5817271823849731e-02  3.4560346028629500e-02 -2.0390514400384172e-02 4.5065279416464647e-02  3.1412146376951514e-02 -2.1830728190197900e-02 4.7237733877100445e-02  3.3581000191654331e-02 -1.8956942943841249e-02 4.5407796995267438e-02  3.5247710202133339e-02 -1.8336317685565175e-02 4.4112104741857575e-02  3.1865390865349889e-02 -2.0723488210594561e-02 4.5770563515163662e-02  3.4289131569446685e-02 -1.6830964185472783e-02 4.4560361550199511e-02  3.5773074660974923e-02 -1.5984674641934534e-02 4.2782649719027337e-02  3.2185505635317253e-02 -1.9442008877743212e-02 4.4133779924353737e-02  3.4771762462930775e-02 -1.4363124203543513e-02 4.3340968986156948e-02  3.4975598357449351e-02 -2.8939327006684928e-02 4.0664159649385460e-02  3.3179327226351925e-02 -2.6326236365265012e-02 4.3149120463198486e-02  3.3841990408255057e-02 -2.6594200606227206e-02 4.3666842131886971e-02  3.6033085454926693e-02 -2.8299936386254408e-02 4.1363760530870514e-02  3.4524603615283374e-02 -2.6483301733618830e-02 4.3620387807255467e-02  3.6908808383665968e-02 -2.7468721585957052e-02 4.1513374813012843e-02  3.5223945610441676e-02 -2.6173125394521463e-02 4.3087820632019491e-02  3.7828152529578385e-02 -2.6453318319788324e-02 4.1309482031802881e-02  3.5965682191459007e-02 -2.5691539932889466e-02 4.2120910329076791e-02  3.8776252128178895e-02 -2.5281372526895829e-02 4.0737463147116570e-02  3.6732772049516541e-02 -2.4948125352079527e-02 4.0525535274612418e-02  3.9771441163848752e-02 -2.3884070607681610e-02 3.9567986281697047e-02  3.7449224743239529e-02 -2.3992976120641725e-02 3.8378970901255360e-02  4.0807841450846580e-02 -2.2300755580340104e-02 3.7818170336250130e-02  2.4644460124144195e-02 -2.5216891004189421e-02 3.9519142826324280e-02  2.5638740061777889e-02 -2.2508256730795088e-02 4.0228033471311750e-02  2.6717929823207198e-02 -2.0276598663681922e-02 4.0435741403711589e-02  2.7837509247803954e-02 -1.7581284741042886e-02 4.0417896168984516e-02  2.9016325787630623e-02 -1.4414586366529834e-02 4.0185915364849382e-02  3.0381589213230614e-02 -1.0944521702529512e-02 3.9558797368822021e-02  3.2000497678726772e-02 -7.1834682548181936e-03 3.8643007307747092e-02  2.5239329894372886e-02 -1.7937084254621552e-02 4.4044145599304807e-02  2.7473017522355554e-02 -2.0740869810219387e-02 4.4606679128242448e-02  2.7846729144616063e-02 -2.1576654784102773e-02 4.7159597259814209e-02  2.7597602365121272e-02 -2.0970214315889756e-02 4.8536458841895377e-02  2.7677936605823187e-02 -2.1444094582167603e-02 4.2417836857751794e-02  2.5313623760995121e-02 -1.8904516284759993e-02 4.1427510056437411e-02  2.8118931976693528e-02 -2.1943909954715946e-02 4.5441731534053183e-02  2.7869549226590781e-02 -2.1800773213602815e-02 3.9733959244618103e-02  2.5375542567559771e-02 -1.9535798666909920e-02 3.8345988655558057e-02  2.8359984262070825e-02 -2.1940146521005510e-02 4.3253418969646740e-02  2.8008872609092940e-02 -2.1994431706198331e-02 3.6678352211357609e-02  2.5