<?xml version="1.0"?>
<VTKFile type="UnstructuredGrid"  version="0.1"  >
<UnstructuredGrid>
<Piece  NumberOfPoints="696" NumberOfCells="2984">
<Points>
<DataArray  type="Float64"  NumberOfComponents="3"  format="ascii">2.858125694931744 0.7787426506851316 2.442961464369869  2.963063278310071 0.8169307491979478 2.550187827992524  2.827681957369455 0.8270366569795302 2.59530616257266  2.830939887914755 0.7633922310222097 2.620693068615734  2.967184406412554 0.7536532527812317 2.575043250206532  2.859381255298157 0.7105910858601894 2.46050292131041  2.860537065208665 0.642423536701038 2.47804200681329  2.97126272236869 0.6903666931986338 2.599909018250171  2.834157004271294 0.6997521312473609 2.646100088534189  2.861648255750915 0.5742494329518331 2.495591008799811  2.975313216414336 0.6270905724647515 2.62478029047094  2.83734611015741 0.636120335146735 2.671516582280536  2.840507104322675 0.5725023230352762 2.696956865799094  2.979330978031451 0.5638301820353243 2.649673029415124  2.862740431176698 0.5060776496117693 2.513172600847997  2.843644791486451 0.508898415517304 2.722435607124674  2.98331546865848 0.5005840192812452 2.674608906695161  3.183855021982071 0.9266916966011867 2.728975185596856  3.328980118271651 0.9521439490552337 2.762453947971372  3.239595916759268 1.002106012142572 2.869780049231171  3.242634703182631 0.9484002630190136 2.898292522677149  3.332655598933088 0.8967213002316559 2.78851043660581  3.189386137089473 0.8706620167084802 2.757012037780792  3.336298194938632 0.8413373348870876 2.81455400698196  3.194936373316584 0.8146721391562888 2.785039328749702  3.24564902943293 0.8947284430644704 2.926789281089172  3.339910520426894 0.7859891466894402 2.840585789008104  3.200478556964971 0.7587125935941077 2.813056172949324  3.248639770488599 0.841084093036562 2.95527783227224  3.343493472723937 0.7306761786724061 2.866610772541831  3.205991414791407 0.7027836448635859 2.841069620471582  3.251601300209731 0.787467057677252 2.983757847202368  3.347039831482192 0.6754069919168225 2.892629007199851  3.211446475162366 0.6468850656667584 2.869092265828673  3.254523002651907 0.7338816496550165 3.012227239516346  3.350535924438287 0.6201925860512225 2.918629191040643  3.21676944213806 0.5910254165233325 2.897124200530571  3.257389477376745 0.6803333898725057 3.040686775433139  3.107656943876549 1.047208052728156 2.963983748776449  3.245124434881262 1.076455492413799 3.005605028218131  3.112827387255726 1.110195358181116 3.07642915338258  3.114789591951417 1.05802057711248 3.10671423296037  3.247510140404717 1.024173560437458 3.034581711357327  3.11044995665593 0.9941347482730086 2.993869305517189  3.116741623945122 1.005870016728639 3.13699799320543  3.249870246320647 0.9719144654305467 3.063548501623789  3.113232870433986 0.9410834753000441 3.023750263422675  3.118677539236442 0.9537451500313532 3.167275811608131  3.252207626418506 0.9196793074367959 3.09250719334383  3.115995800234012 0.8880590243216396 3.053622931827576  3.120591502519848 0.9016425744719223 3.19754341266704  3.254523035092764 0.867466197179638 3.12145586944269  3.118731330681721 0.835059896707818 3.083487631378221  3.122476374307003 0.8495566650382377 3.227794342457984  3.25681578255324 0.8152750625951104 3.150391539117927  3.121428741313743 0.7820841059728256 3.113344276422415  3.124326101511409 0.7974774250651793 3.25802353414539  3.259076986023708 0.7631062938184803 3.179308910852404  3.124072895171965 0.7291285643152072 3.143193469611817  3.347662747127591 1.03347587099767 2.917401776827345  3.350263509551571 0.9809066375841948 2.945557665789177  3.352824897252879 0.9283543336480686 2.973694635986988  3.355357053277846 0.8758255227492013 3.001820954037063  3.357867031304811 0.8233188259820621 3.029937738503435  3.360358859624789 0.7708360498448086 3.058043801705015  3.362829495366894 0.7183853534825824 3.086142320256238  3.079374547333857 1.305150762950908 3.3836074696325  3.166683317933998 1.250584899177077 3.303157463246629  3.27095379649371 1.307204146229053 3.381590830738246  3.271776118196879 1.257432026097814 3.415378505336167  3.167965991129223 1.200431501765426 3.336385668091492  3.07949998809487 1.255797816186561 3.419128819389517  3.272611237819702 1.207701887131701 3.449192361557729  3.169275011797229 1.150308440727694 3.369627477608824  3.07965377666468 1.206480811641118 3.45467267465227  3.273449591416256 1.158002420391875 3.483007264248368  3.170587896994554 1.100212111778966 3.402867284117978  3.079816755956439 1.157192485171554 3.490218009005503  3.274285601144584 1.108317659291213 3.516800281875048  3.171893722957972 1.050129932694758 3.436086867051727  3.079977559506848 1.107917697564278 3.525741771294266  3.275111500296054 1.058629907829338 3.550546977495067  3.173179677288092 1.000047815765956 3.469267440162593  3.080124295637362 1.058638807680919 3.56122092817491  3.275912151641426 1.008922359257246 3.584218524400409  3.174422448541586 0.9499496577499864 3.502395561961504  3.080239253269288 1.009333690770046 3.596635920609171  2.723115178096885 0.9803927681072895 2.895117156167746  2.863514903613703 1.002446434609517 2.913766188948822  2.746451127153282 1.049929972284488 3.002604641026582  2.749587471850379 0.9967491881320438 3.036922721906016  2.867666800244322 0.948559109771599 2.946809888936306  2.727101770937189 0.925613225712965 2.929755674102609  2.752766395047187 0.9435896219656885 3.071240719007382  2.87184013248922 0.8946930488090021 2.979842579570769  2.731118870800243 0.8708407155065867 2.96438270084754  2.755946557151325 0.8904486294135141 3.105554060764085  2.876008784564569 0.8408482087728077 3.012865906043638  2.735134660449309 0.8160799525892792 2.999005309172716  2.759098239064765 0.8373267083277642 3.139867885509328  2.880147155846434 0.7870259673119198 3.045887721449827  2.739117896457469 0.7613354705847015 3.03363541773695  2.762185523798999 0.7842246367824547 3.174191348958709  2.884224983766686 0.7332312079112457 3.07892045396826  2.743034348716238 0.7066103533984569 3.068292233680432  2.765146882954334 0.7311342535008521 3.208538725204338  2.888191613949323 0.6794691418106154 3.11198407898328  2.746843686028298 0.651908409704435 3.103009675669302  3.182109175340238 1.355797241391513 3.453929439554784  3.182107750436118 1.306646117408925 3.490133934946587  3.182128882117814 1.257545954782339 3.526369385346597  3.182160079997571 1.208481734600451 3.562606562271366  3.18219271064286 1.159434315308878 3.598817446904296  3.182217043909862 1.110382165754597 3.634972513432899  3.182217864580826 1.061300051156048 3.671042499844319  3.309510379629804 0.8863836409368193 2.616154815527406  3.31579258608076 0.8280953931305725 2.639930694748617  3.322102618770432 0.7698559053450988 2.663701515376427  3.328411795279227 0.7116554172552569 2.687465679565256  3.334688177644538 0.6534862464869524 2.711227281879887  3.340883402761118 0.5953598670357796 2.734980830220038  3.346915821363121 0.5372907205274948 2.758713401790215  3.096356868997941 0.976689958390987 2.840965746300022  3.100613376175173 0.9222437385216127 2.871060575868273  3.104869132035989 0.8678389876880479 2.901138588183117  3.109107063827086 0.8134639479200562 2.931205030822295  3.113313945892696 0.7591206895908128 2.961263465035691  3.117469679604785 0.7048177954144019 2.991320192795811  3.121536745339806 0.6505579434954553 3.02138408283312  2.721266038116585 0.7256191710066779 2.518515516703259  2.721367144965272 0.6574005954952653 2.537254664391979  2.721419712691867 0.5891821686320845 2.556009369789983  2.721459539671717 0.5209675098933229 2.574797103383625  2.872640169517073 1.216911183461523 3.253351167909653  3.001581362380984 1.254291098760677 3.313019411802361  2.863304591131623 1.306267655617999 3.379428503428537  2.861447841211686 1.256989490944725 3.415966572781735  3.001352148538057 1.204093664926773 3.347299358635101  2.871911659669177 1.166204545710487 3.287603458439603  2.871176034950775 1.115525556181248 3.321870152659589  3.001128391907156 1.153927366377079 3.381598723539069  2.85959967544522 1.207752106794345 3.452534729661386  3.000903213370585 1.103785984023986 3.415899089235448  2.870434117622159 1.064871347496549 3.356139508662796  2.857755378213655 1.158541554491886 3.489111137738156  2.869679336899937 1.014230066004291 3.390400608506521  3.000669758104492 1.05366040820164 3.450180356280429  2.85590614621582 1.109339495396477 3.525672264792143  2.868908793709021 0.9635914363952651 3.424637213231925  3.00042197707139 1.0035322139609 3.484425885171725  2.854043605238329 1.06012841495105 3.562191159060812  2.868128419243529 0.9129392902024993 3.458831817637995  3.000158489748403 0.9533825718533484 3.518622590839017  2.852167015477542 1.010885014425284 3.598645151853124  3.001412725514655 1.166275064619976 3.174260946872748  2.985598736318719 1.087946913813319 3.046042527471699  2.987473773058346 1.035250985693702 3.077168345020187  3.002292606628164 1.11476694897047 3.206252565109342  2.989334848212833 0.9825869921684898 3.108289640566487  3.003166757840309 1.063283910461533 3.238250048084628  2.991177890998046 0.9299479737488672 3.139406359857039  3.004030921437974 1.011823785725633 3.270247472185257  2.992994413118049 0.8773328580863894 3.170516300033023  3.004876973233251 0.9603797285506863 3.302234836379471  2.994777274107237 0.8247381582078821 3.201617697643921  3.00569764597065 0.9089430835851633 3.334199932917025  2.996527730148041 0.7721638401118343 3.232703108696408  3.00649044017869 0.8574981935507969 3.36613293648969  3.058456354319322 1.391066972528965 3.498840210403895  3.057504678310207 1.342561551966861 3.53687358910459  3.056584452654651 1.294113479102503 3.574941654256299  3.055680500522652 1.245702716577547 3.613014436197603  3.054779542461722 1.197307518840582 3.651060163751654  3.053867872276629 1.148901790229141 3.689045715387242  3.052927786972387 1.100456863229032 3.726942431846546  2.625963093452346 1.032548785896838 2.987521747492577  2.628628705966782 0.9788849499224272 3.023419893604838 
[...]
<PointData  Vectors="f_24"> 
<DataArray  type="Float64"  Name="f_24"  NumberOfComponents="3" format="ascii">2.4494506614479373e-02 -3.4301607130714784e-02 -9.0249571946063329e-03  2.2668727959009510e-02 -3.8913413242184988e-02 -4.1842363966091605e-03  2.3351745313319627e-02 -3.5732341511842486e-02 -5.7027706285394291e-03  2.1365088223841953e-02 -3.5207185819505382e-02 -5.7666804890290583e-03  2.0886756713531258e-02 -3.8466113014739650e-02 -4.3599069778098871e-03  2.2883090341831468e-02 -3.3664423844671651e-02 -8.8049439525191078e-03  2.1324223224981689e-02 -3.3106895181226413e-02 -7.9901835307708557e-03  1.9180126200548157e-02 -3.7932022909089126e-02 -3.7711994809920342e-03  1.9630272516756111e-02 -3.4594886281064156e-02 -5.1509958663107872e-03  1.9684523147813066e-02 -3.2756528589798460e-02 -7.4793615525760694e-03  1.7400073796031139e-02 -3.7610767815781113e-02 -3.5006115467306545e-03  1.7774436985260409e-02 -3.4186174896217676e-02 -4.8300669350804315e-03  1.5777948829265930e-02 -3.4115332226362489e-02 -5.1406847693839727e-03  1.5549240303842764e-02 -3.7641487926492315e-02 -3.9300267501980561e-03  1.8016009230845977e-02 -3.2665757234080731e-02 -7.4501954038282640e-03  1.3659525025005949e-02 -3.4271123973725816e-02 -5.7974623328492497e-03  1.3620731704041912e-02 -3.7899601455953280e-02 -4.7066875269381825e-03  2.0969906547081665e-02 -5.0574172540196485e-02 6.4308816407337554e-03  1.9660011869479226e-02 -5.5474775458694142e-02 9.4887349963801385e-03  2.0261537569908356e-02 -5.5604539622150832e-02 1.1378590249739117e-02  1.8329546980206973e-02 -5.5515686383238512e-02 1.0533675384801513e-02  1.7997794984854956e-02 -5.5464128750709336e-02 8.4041704649029190e-03  1.9076007733688550e-02 -5.0533223855570429e-02 5.3824448002821532e-03  1.6415450344120147e-02 -5.5016023194677674e-02 8.3908174290657066e-03  1.7355659957101442e-02 -5.0041376185483044e-02 5.4711114106957837e-03  1.6638300071107233e-02 -5.4946867652913213e-02 1.0566387748542789e-02  1.4832163280674396e-02 -5.4566777896207549e-02 8.4373433701659117e-03  1.5643326623795435e-02 -4.9608154185393764e-02 5.6116495267434698e-03  1.4994063561132420e-02 -5.4342365297355338e-02 1.0727668133467115e-02  1.3163153008070850e-02 -5.4419819622147737e-02 7.7972449836197178e-03  1.3827783488932582e-02 -4.9525682851283774e-02 5.0568175540067605e-03  1.3210780447458404e-02 -5.3995045644923197e-02 1.0384855251475138e-02  1.1362510815018743e-02 -5.4497435506971947e-02 6.3520332564773897e-03  1.1857121198619671e-02 -4.9673420334665479e-02 3.7524314202476419e-03  1.1167593534815197e-02 -5.3767143850375440e-02 9.2662409380983284e-03  9.5228172509935708e-03 -5.4605303157728075e-02 4.5591872857367096e-03  9.8178233755312188e-03 -4.9943022247504888e-02 2.0811025251046113e-03  9.0657161287383894e-03 -5.3487241219678405e-02 7.7909131377546705e-03  2.1057149901095112e-02 -5.2512446814993868e-02 1.1120620788531285e-02  2.0042239654269982e-02 -5.7292242827421340e-02 1.3976715220910058e-02  2.0708706697565003e-02 -5.2538644133339592e-02 1.2429401153195482e-02  1.8501915244739767e-02 -5.1908869794799119e-02 1.2521380581760468e-02  1.7994472206179488e-02 -5.6950368583813651e-02 1.3702262725863839e-02  1.8853179781161050e-02 -5.2181780979231013e-02 1.0667463567413672e-02  1.6712709432411512e-02 -5.1077161394042031e-02 1.2807281318355332e-02  1.6274116412149129e-02 -5.6255845903703229e-02 1.3865651871573828e-02  1.7046760463594463e-02 -5.1471223101918637e-02 1.0819186689266836e-02  1.5036532593775331e-02 -5.0222717498227314e-02 1.3165906207134101e-02  1.4659000181116974e-02 -5.5505978541615146e-02 1.4145086671474346e-02  1.5345976543821404e-02 -5.0727270290204109e-02 1.1083701268614682e-02  1.3153465307408423e-02 -4.9416400726347044e-02 1.3423927850361278e-02  1.2888285101654531e-02 -5.4870643517592077e-02 1.4195711767468937e-02  1.3456498451327218e-02 -5.0157879767398078e-02 1.1038086631233178e-02  1.0896342815594847e-02 -4.8510584287858885e-02 1.3209612705622955e-02  1.0788336281208460e-02 -5.4205329129478577e-02 1.3639490010840879e-02  1.1189514196125851e-02 -4.9658326911357020e-02 1.0300080609910578e-02  8.5496336465752006e-03 -4.7326673047489311e-02 1.2792164281935886e-02  8.6171144474219384e-03 -5.3298362642845619e-02 1.2806848532930180e-02  8.8211804438011535e-03 -4.8994251913815158e-02 9.2542848080160202e-03  1.9386453557372306e-02 -5.9673758555868046e-02 1.4056857644615407e-02  1.7552144272047973e-02 -5.9587426200192438e-02 1.3294391184573099e-02  1.5938913030287598e-02 -5.9032816204644713e-02 1.3322217526269926e-02  1.4388742124010775e-02 -5.8414106781200008e-02 1.3507195843307536e-02  1.2712920109215582e-02 -5.7989301731672598e-02 1.3278976348837557e-02  1.0792788114323782e-02 -5.7629555168667461e-02 1.2300277432494185e-02  8.8300182914131994e-03 -5.7129430082620281e-02 1.0966659707810191e-02  2.0277381054364569e-02 -4.1647928904086855e-02 9.0257743139581167e-03  1.9861647714376224e-02 -4.8477246281549660e-02 1.1844852349905314e-02  1.9357430188814331e-02 -4.7938877152360421e-02 1.1205751106213722e-02  1.7616762544456880e-02 -4.6029753451252389e-02 1.2853542350399143e-02  1.7925529541078771e-02 -4.6965967722821619e-02 1.3078041880774124e-02  1.8463720984817609e-02 -3.9792891798697015e-02 1.0377000355917470e-02  1.6077091573114488e-02 -4.4698137089716976e-02 1.3703835586925174e-02  1.6291579944730017e-02 -4.5792489932048354e-02 1.3738547742688728e-02  1.6869373459139358e-02 -3.8489013637373067e-02 1.1045689949905279e-02  1.4509373258667142e-02 -4.3461467201218025e-02 1.4484841815273670e-02  1.4676388022281123e-02 -4.4663851248438219e-02 1.4367779922420125e-02  1.5246832441179374e-02 -3.7236569256127394e-02 1.1710100020607725e-02  1.2776700065959545e-02 -4.1883676894421823e-02 1.5715854276113848e-02  1.2872322456089852e-02 -4.3292188037505702e-02 1.5327023053621989e-02  1.3456276429241014e-02 -3.5652196063069276e-02 1.2806804862923418e-02  1.0923963575081313e-02 -3.9665107221321196e-02 1.7350039777160767e-02  1.0859688021377505e-02 -4.1423375964843058e-02 1.6473020516948621e-02  1.1538594594685668e-02 -3.3493303260814372e-02 1.4241216053673247e-02  9.0353676623165340e-03 -3.7108473990191765e-02 1.9034573671595872e-02  8.7903938504966563e-03 -3.9249256862871645e-02 1.7580005374861467e-02  9.5892039546325129e-03 -3.1048418569345610e-02 1.5682866704258919e-02  2.3231425630772944e-02 -3.7100874810695780e-02 9.9846189925946786e-04  2.2541508999054518e-02 -4.3020342925219460e-02 5.0110612248335205e-03  2.3076382758320847e-02 -3.8703463577454265e-02 4.0883701830658958e-03  2.0442371807214796e-02 -3.8154058792897134e-02 3.7979583694944365e-03  2.0049448050166445e-02 -4.2652819171927654e-02 4.5312176852939758e-03  2.0635056332872530e-02 -3.6622352618735275e-02 5.8535629414845157e-04  1.8459629529043505e-02 -3.7296795205236558e-02 4.0893750265875431e-03  1.8124523528058389e-02 -4.1887770963248611e-02 4.8064621576387476e-03  1.8672827936166796e-02 -3.5808438841533695e-02 9.5753298722255173e-04  1.6585411999701830e-02 -3.6484213729090796e-02 4.4319114485082706e-03  1.6284447022526970e-02 -4.1168822085879901e-02 5.1256400184041878e-03  1.6762417337259649e-02 -3.5106609120701557e-02 1.3061518941496341e-03  1.4417238711182057e-02 -3.5912003633401871e-02 4.4359732160241692e-03  1.4176767266258645e-02 -4.0752373226742841e-02 4.9725351811239849e-03  1.4550307183976253e-02 -3.4760447284726652e-02 1.1145173347756041e-03  1.1808946466728651e-02 -3.5446587793263318e-02 3.8825477690133995e-03  1.1662948786867890e-02 -4.0488599029194022e-02 4.1833869012573542e-03  1.1919914133423280e-02 -3.4599971235013703e-02 3.9229201694260994e-04  8.9904587514683856e-03 -3.4955643052284109e-02 3.0341493745660139e-03  8.9588016497970067e-03 -4.0263907088860573e-02 3.0368510547165431e-03  9.0925106123835413e-03 -3.4548663474712131e-02 -6.5588291786221331e-04  1.9875680394426810e-02 -4.0642157401070578e-02 8.1814123305551101e-03  1.8224809178225169e-02 -3.8500835429408513e-02 9.8038613102090291e-03  1.6694926042053072e-02 -3.7105446404888540e-02 1.0602115297553333e-02  1.5107136771789278e-02 -3.5760816832076978e-02 1.1407319892669247e-02  1.3377235659162766e-02 -3.3967605636538778e-02 1.2768095888209558e-02  1.1613062456873985e-02 -3.1509096662410779e-02 1.4611274406141019e-02  9.8212477389244320e-03 -2.8758912065471286e-02 1.6550696492346976e-02  2.0189364511035073e-02 -5.0193056917970533e-02 4.2936596651716218e-03  1.8650084582588315e-02 -5.0105957034881347e-02 3.2804207234412002e-03  1.7101845110753994e-02 -4.9750912163442719e-02 3.4161512363873468e-03  1.5525373645013109e-02 -4.9495254571778322e-02 3.4720206423790854e-03  1.3935318588615287e-02 -4.9570112686020747e-02 2.7234323811015349e-03  1.2315790278038797e-02 -4.9891650880416534e-02 1.3333106904826815e-03  1.0698351820713889e-02 -5.0388790284281837e-02 -3.7334067038875829e-04  2.1266524918597901e-02 -5.0509200320646597e-02 8.1280439372134541e-03  1.9159963933528496e-02 -5.0341696829824610e-02 7.3356601543208902e-03  1.7367112792466104e-02 -4.9723030566529706e-02 7.4761410158147952e-03  1.5618664411959839e-02 -4.9126024769264656e-02 7.6813653077888403e-03  1.3688557402731749e-02 -4.8844141145381811e-02 7.3249920734547152e-03  1.1474976733014971e-02 -4.8731146576097284e-02 6.2303585059518742e-03  9.1327858428628221e-03 -4.8639080558096813e-02 4.7491966147811850e-03  2.3432914687789755e-02 -3.0602430815741977e-02 -1.0205517452025872e-02  2.1783419798808538e-02 -2.9950289397056573e-02 -9.3639648508360256e-03  2.0028046977238995e-02 -2.9515480118490065e-02 -8.8194237644830271e-03  1.8172816894480227e-02 -2.9345006298420580e-02 -8.7251819517006265e-03  2.1736223146683775e-02 -4.0052317160076935e-02 8.0470883062983903e-03  2.0719485876502016e-02 -4.2397937293075984e-02 9.4250356603054388e-03  2.1546771857786258e-02 -3.4636578093061789e-02 6.0818769774721743e-03  1.9623130436943706e-02 -3.2903398183388270e-02 7.1289200965446312e-03  1.8713567172211103e-02 -4.0886101329366480e-02 1.0459521014782504e-02  1.9516193998603257e-02 -3.8770043836394749e-02 8.7144310840106647e-03  1.7711252246124978e-02 -3.7660038331431181e-02 9.1136270781028619e-03  1.7030553089203235e-02 -3.9707203188361906e-02 1.1001360640375298e-02  1.7994619434502753e-02 -3.1645950940226049e-02 7.6248353830606257e-03  1.5361330542454752e-02 -3.8553497324376962e-02 1.1563530227879372e-02  1.5966076883473346e-02 -3.6567184431710871e-02 9.5642511942830126e-03  1.6328857573431884e-02 -3.0417606024841629e-02 8.1655187553306818e-03  1.4005419974113973e-02 -3.5345697935229584e-02 1.0201286787380318e-02  1.3477128388817369e-02 -3.7163136573237041e-02 1.2449454908282269e-02  1.4482939068781476e-02 -2.8903497041184743e-02 9.0770483235723832e-03  1.1747843825548080e-02 -3.3840538303546906e-02 1.0707128249093969e-02  1.1390831837429215e-02 -3.5337595213424201e-02 1.3426429612022152e-02  1.2487091885048776e-02 -2.6906778073406884e-02 1.0176009939063604e-02  9.4251249775990868e-03 -3.2054282916320065e-02 1.1125363590908427e-02  9.2568622717833591e-03 -3.3233674726660403e-02 1.4379799155357404e-02  1.0451785834133353e-02 -2.4627523588806443e-02 1.1256564039530483e-02  2.1155420041022652e-02 -4.6951284059216218e-02 1.0700676420874841e-02  2.1618968573684130e-02 -4.8121814431290814e-02 9.9018746338445547e-03  1.9255693193853604e-02 -4.7527982467952021e-02 9.7918314370645711e-03  1.8901169503714045e-02 -4.5970644008831017e-02 1.1181672170196395e-02  1.7380479894496523e-02 -4.6676078940965884e-02 1.0038272777692286e-02  1.7081381064832792e-02 -4.4986154620552180e-02 1.1566245696678032e-02  1.5626175495694294e-02 -4.5816909166239587e-02 1.0368105424328714e-02  1.5362750431587644e-02 -4.4008699442218829e-02 1.1995060826680150e-02  1.3639442221077415e-02 -4.5078563036725673e-02 1.0523360575598870e-02  1.3433536306420168e-02 -4.2972066025534918e-02 1.2509485402470740e-02  1.1245578234619781e-02 -4.4312154323551622e-02 1.0100011054590704e-02  1.1145989369681751e-02 -4.1719063644792824e-02 1.2757382084566326e-02  8.7271018826824993e-03 -4.3336845785504431e-02 9.4380496276813414e-03  8.7757947827113783e-03 -4.0169414577304316e-02 1.2876033125053431e-02  2.0578736521835023e-02 -3.3911164642054022e-02 5.3011143814622229e-03  1.9003304309500386e-02 -3.1680302942609408e-02 6.8005300810071792e-03  1.7514085287596036e-02 -3.0259257887411732e-02 7.5012395684828006e-03  1.5940031968891089e-02 -2.8870651769131249e-02 8.2566328427781371e-03  1.4258027149985773e-02 -2.7006682815937134e-02 9.5957044868399347e-03  1.2566011996884173e-02 -2.4500598022096830e-02 1.1412141469551926e-02  1.0862851597417480e-02 -2.1725689395204667e-02 1.3351339759377447e-02  2.3678792596128016e-02 -3.3539594239058369e-02 6.6463718441800012e-04  2.1001784883863686e-02 -3.2930383942099919e-02 3.7585184871155450e-04  1.8988411655918781e-02 -3.2050955713581096e-02 7.0865043371237885e-04  1.7060897396550333e-02 -3.1254917185418840e-02 1.0503962957350938e-03  1.4809131915940061e-02 -3.0760772477749443e-02 9.7740438212676000e-04  1.2120148827794745e-02 -3.0389890960027421e-02 4.1372961773008794e-04  9.2113736155998646e-03 -3.0099849030496249e-02 -4.3692340272096164e-04  2.0382295736832100e-02 -4.9026899157755328e-02 1.1935095311459564e-02  1.8286047729549882e-02 -4.7843570932494459e-02 1.2787703419892283e-02  1.6563045524356647e-02 -4.6795728690789171e-02 1.3297546280892848e-02  1.4911521616967391e-02 -4.5767468639113691e-02 1.3814859598473787e-02  1.3051510866450252e-02 -4.4600083826231998e-02 1.4524311549992116e-02  1.0896166315933055e-02 -4.3096321247386132e-02 1.5161797070801536e-02  8.6804987628892726e-03 -4.1272236682577935e-02 1.5733196094249849e-02  2.3467579520686351e-02 -3.7305843224062010e-02 -6.8773564795463300e-03  2.2001654315659060e-02 -4.1442656746164763e-02 -2.8052983616839093e-03  2.0331636158727389e-02 -4.1117234078090689e-02 -3.0095077731326788e-03  2.1903541842938825e-02 -3.6729125334436466e-02 -6.8156344109903512e-03  1.8657952493959660e-02 -4.0751672618755071e-02 -2.4575200846427979e-03  2.0369070276350040e-02 -3.6219813736341644e-02 -6.0863113673237891e-03  1.6941534064279021e-02 -4.0586959778313558e-02 -2.2553742834560265e-03  1.8764174340358750e-02 -3.5946416252242389e-02 -5.6748488449914133e-03  1.5226524513553774e-02 -4.0771395069110289e-02 -2.7870766447036233e-03  1.7172781162521859e-02 -3.5967054864284753e-02 -5.8156164401974124e-03  1.3505757652054648e-02 -4.1190679494429040e-02 -3.6825313939603623e-03  1.5569729441537141e-02 -3.6224618848200003e-02 -6.2411081188595658e-03  1.1768740070754439e-02 -4.1791894928112548e-02 -4.7902685329514003e-03  1.3947835107348379e-02 -3.6672128061305917e-02 -6.8041233694961676e-03  1.1620639369940872e-02 -3.8353731387569159e-02 -5.6874629807543266e-03  2.5132395714064493e-02 -2.4519425137321568e-02 -1.0567887359122436e-02  2.4573892198029058e-02 -2.9423576354444522e-02 -8.2844817868726467e-03  2.3710733472896511e-02 -3.1756810715742642e-02 -4.3564303875597158e-03  2.1257405005213670e-02 -3.1193452516042278e-02 -4.5066666607946589e-03  2.2249654297974292e-02 -2.8742328914592604e-02 -8.2644553615459030e-03  2.2771537331236928e-02 -2.3765775011149196e-02 -1.0319095326440953e-02  1.9317553686508143e-02 -3.0406751772732943e-02 -3.9575939529030851e-03  2.0348599469708181e-02 -2.7977224074278613e-02 -7.6117207073208848e-03  2.0840795521427438e-02 -2.3027873723181432e-02 -9.5995411241633875e-03  1.7327590152011012e-02 -2.9803900285298751e-02 -3.6024884807781586e-03  1.8363050058953737e-02 -2.7441256662003432e-02 -7.2161866350302761e-03  1.8783935597099906e-02 -2.2500244692320186e-02 -9.1808802858720125e-03  1.5018942083817724e-02 -2.9593494502774560e-02 -3.8773618549923852e-03  1.6124513543551319e-02 -2.7242789357382932e-02 -7.3768757441924730e-03  1.6427058895818438e-02 -2.2297901570516747e-02 -9.2921552218198228e-03  1.2388604642199151e-02 -2.9583556870435457e-02 -4.5295155221408631e-03  1.3686170370796533e-02 -2.7268629630969592e-02 -7.8434797284890022e-03  1.3841717677017978e-02 -2.2289738781011217e-02 -9.6505075401452558e-03  9.5746110207934349e-03 -2.9765624493660450e-02 -5.4063193642617585e-03  1.1092578990226108e-02 -2.7471323185558425e-02 -8.4384197228808740e-03  1.1083057217727375e-02 -2.2459442436060767e-02 -1.0129314528521491e-02  2.2317405450705905e-02 -3.3812688143716449e-02 5.5142558095730371e-03  2.0180546434458296e-02 -3.2353295850715502e-02 6.2676880535390703e-03  1.8424398249390746e-02 -3.1187559867897618e-02 6.6703533492792517e-03  1.6690194156380737e-02 -3.0040921393069336e-02 7.1310059296760186e-03  1.4744951414109786e-02 -2.8705136086659762e-02 7.8383212246999727e-03  1.2588273454503007e-02 -2.7006079792450181e-02 8.5537662682567007e-03  1.0357989659935975e-02 -2.5045388010482880e-02 9.1901456849673834e-03  2.1819494791379873e-02 -4.7912115747271215e-02 8.0364543844546488e-03  1.9501386479840142e-02 -4.7561987189156961e-02 7.5072023424311183e-03  1.7639506627083808e-02 -4.6813288862107512e-02 7.7037208050503934e-03  1.5864512049054390e-02 -4.6070007155223469e-02 7.9816027960461864e-03  1.3864006100089678e-02 -4.5581963292594958e-02 7.8361383030266171e-03  1.1464543398891913e-02 -4.5218801394323875e-02 7.0020115150060949e-03  8.9212261461290316e-03 -4.4803730424357258e-02 5.8064597482582348e-03  1.5628904002711313e-02 -4.5796317970731713e-02 1.4139744946762730e-02  1.6306468584963162e-02 -3.8567599157603216e-02 1.1137476881439195e-02  1.6360854983403245e-02 -3.5000912679101430e-02 9.0409699237943703e-03  1.7109947986094772e-02 -4.7229885162958632e-02 1.3162057151134372e-02  1.4739522726466498e-02 -3.7151228766955265e-02 1.2039091920718647e-02  1.4098812482365089e-02 -4.4450838717297055e-02 1.5045322340950800e-02  1.4812651613357826e-02 -3.3496554754076223e-02 1.0099928821171448e-02  1.3055810030141030e-02 -3.5232304935617242e-02 1.3550456886961005e-02  1.2429987577770602e-02 -4.2693720604561614e-02 1.6473799000877400e-02  2.0884388424638120e-02 -3.5934200133489046e-02 6.5785714505929389e-03  1.9125295996426928e-02 -3.3988709192966156e-02 7.8743698195887085e-03  1.7560659597478444e-02 -3.2656342803158073e-02 8.4831928255320911e-03  1.5941603603895120e-02 -3.1374828091305269e-02 9.1157101484775713e-03  1.4166981785340076e-02 -2.9733013453268130e-02 1.0208640392968212e-02  1.2302540781932537e-02 -2.7508999571063855e-02 1.1647148090563634e-02  1.0404725565912929e-02 -2.5011068476827405e-02 1.3115072614411367e-02  2.3663029774344816e-02 -3.3793492602351281e-02 2.7494849089740024e-03  2.0991400961121915e-02 -3.3039673141983882e-02 2.5885289747717699e-03  1.8986734930703058e-02 -3.2085020216057157e-02 2.8476545467294896e-03  1.7101840483711467e-02 -3.1169365161799526e-02 3.1907589402194012e-03  1.4920997090832758e-02 -3.0437998275359254e-02 3.3066155706082010e-03  1.2305877538206954e-02 -2.9755991735288312e-02 2.9648769919667761e-03  9.4945775129045198e-03 -2.9022878038778826e-02 2.3534120699978253e-03  2.2239970267403483e-02 -4.2331700518646390e-02 7.9049381502027238e-03  1.9790641969831664e-02 -4.1505713571496711e-02 8.0289324296697953e-03  1.7867204273259822e-02 -4.0553108411986609e-02 8.3210251428423275e-03  1.6063450003002154e-02 -3.9605334413079278e-02 8.6958453445845890e-03  1.4007840157779556e-02 -3.8703778760509462e-02 9.0028691980684940e-03  1.1558778336545329e-02 -3.7718271679571862e-02 8.8744288710275315e-03  8.9689100205008858e-03 -3.6517067910326537e-02 8.5492818706617256e-03  2.4303487673761746e-02 -2.6424839776618317e-02 1.5563007947590501e-03  2.3476406491580015e-02 -3.3147724344243949e-02 3.8467878969715690e-03  2.3169691027366358e-02 -3.0831727721180934e-02 3.8898764582419379e-03  2.0883706737140982e-02 -2.9547239190874486e-02 4.3830221910363910e-03  2.0920513111478117e-02 -3.2197209321013075e-02 3.9502929553848721e-03  2.1901095908358845e-02 -2.5253136968544667e-02 1.7958597104460517e-03  1.9057446111249304e-02 -2.8444351342385640e-02 4.6979699641044323e-03  1.8970688756550644e-02 -3.1180653747927955e-02 4.2134570541781787e-03  2.0035103436542582e-02 -2.4186183039763581e-02 2.0175577545879504e-03  1.7271197968962499e-02 -2.7346557246996719e-02 5.1041622842449546e-03  1.7124238866513836e-02 