<?xml version="1.0"?>
<VTKFile type="UnstructuredGrid"  version="0.1"  >
<UnstructuredGrid>
<Piece  NumberOfPoints="920" NumberOfCells="3923">
<Points>
<DataArray  type="Float64"  NumberOfComponents="3"  format="ascii">8.319643491173018 3.697186942580402 3.569799973543017  8.209755681804555 3.732754879551128 3.541608330734075  8.270531038319993 3.655607916605709 3.658887967374937  8.279966809966416 3.714032049478897 3.693263443202586  8.222105633827887 3.792418340455118 3.569103869429402  8.329425764164545 3.756137916606239 3.598389825516353  8.339177517575854 3.815096839711512 3.627265553317838  8.234380501651586 3.852145944569824 3.5968936791587  8.289359823353108 3.772407970281509 3.727930689872625  8.348944255094917 3.874170679501815 3.656298094777132  8.246670865252579 3.91199429267202 3.624826750457384  8.298751760038778 3.830823718163463 3.762719933414696  8.358768510170126 3.933412156074551 3.685376802541644  8.259078077095994 3.97200664084288 3.65279839758519  8.308199476171934 3.889355059938033 3.797554125869482  8.27173611683817 4.032219416636341 3.680717791354044  8.368694472652463 3.992920538793599 3.714434472500275  8.317750179764142 3.948104935278569 3.832372513710823  8.378862496575172 4.05275447471956 3.743389800844183  8.284705454966016 4.092837631944665 3.708578380777751  8.327469583138106 4.007184536229238 3.867117620846085  8.146856179120785 3.696657975811645 3.625773379941781  8.160639385365798 3.754930876751613 3.660324381249795  8.174296233844931 3.813180635239865 3.695121015437744  8.187931665162644 3.871474416916759 3.730064762263255  8.201638939810138 3.929849626774744 3.76505178952973  8.21553181455471 3.988333113030436 3.800013952474672  8.229765723839185 4.046979108667266 3.834898251947536  8.896527013464288 3.825852286775401 3.101628448577795  8.938308606269832 3.869509059736925 2.963256761118864  8.801977227266025 3.840976379840709 3.023592456374373  8.798755602450578 3.892653072206757 3.038368010073994  8.93408000014438 3.92021297714988 2.978987093091362  8.892515603372233 3.878431044328029 3.115853191099767  8.795622144649553 3.944544934728655 3.053242507970128  8.929925716709658 3.97111500184896 2.994779615506154  8.888590787016541 3.931217799346595 3.130214861599225  8.792541187855146 3.996672940811393 3.068180280852149  8.925810203751551 4.022218088025737 3.010629539438528  8.884729225248314 3.984218122616571 3.144651517136657  8.789471949704728 4.049060976350285 3.083166144770087  8.792762202218224 3.696396151763398 3.54146591703225  8.649744830251441 3.672964733707389 3.583513280730143  8.772640778136937 3.649472854130215 3.640855401501173  8.768990284976448 3.708087580819491 3.670532989788787  8.64860134322425 3.731883573329672 3.610532770724431  8.789870981311777 3.755710788400667 3.563911384505068  8.765571630786777 3.766629567148566 3.700487936337559  8.647636642476499 3.790828349223517 3.637857941620996  8.787171507784793 3.8150590159227 3.586636354598007  8.762273762901915 3.825185344661968 3.730576406756405  8.646770006396023 3.849861090051864 3.665334656727977  8.784572750769483 3.874499469085732 3.609501065423363  8.759004420881773 3.883812837929738 3.760690491040727  8.645934523379527 3.909033462922631 3.692846838781268  8.781995826586932 3.934074158555823 3.632392358239761  8.75567081591549 3.942537541486445 3.790745651090375  8.6450503800005 3.968396397900934 3.720303721661851  8.779361369686253 3.993824165368165 3.655209844140292  8.752145149065868 4.001352442682048 3.82066697091783  8.644018039044875 4.028006387372064 3.747621345754881  8.776556969528061 4.053774785769324 3.677840915060511  8.192452217606577 3.619956645927086 3.738570748849374  8.202833154207765 3.676026534712004 3.780728377804022  8.2131280938814 3.731965290572147 3.823087415838177  8.223404291215315 3.787899927998474 3.865529845486331  8.233734027858612 3.843899377123442 3.908008341188749  8.244190900812288 3.900034813009527 3.950495465243272  8.254813307308691 3.956398424076886 3.992953939653114  8.704216122225265 3.7139097771242 3.47690925955811  8.702904048026133 3.772792182075671 3.496871773958057  8.701752446665697 3.831796050183871 3.51714259596698  8.700691789023731 3.890957588251408 3.537560992726517  8.699660935229529 3.950308680867158 3.558008931715351  8.698591949943504 4.009886358890847 3.57837856155736  8.697421595166396 4.069721622432352 3.598557352382036  8.502551233860208 3.377192284337621 3.93141123628188  8.387546725086748 3.402371317050431 3.915305791917504  8.387320935264309 3.315195497764793 3.968954116750488  8.389051860322356 3.441496969740765 3.976111243444464  8.250236339754766 3.842448553084338 3.098512530096466  8.201854686704827 3.865531508799678 3.010230893182188  8.156792330062045 3.852510585632493 3.141619658163875  8.170038410439728 3.90976613473241 3.15200621492904  8.211085970337809 3.921022791536321 3.019991851769271  8.258965938832581 3.898370741094769 3.110017756952692  8.183148041244173 3.967278400747528 3.162643882038809  8.220211746683251 3.976767914619356 3.029942466370115  8.267607386536083 3.954556370766664 3.121742910132826  8.196331787259741 4.025097028581134 3.173354731592234  8.229388138603584 4.03280911240632 3.039972704457743  8.276325695511034 4.011030161651362 3.133528481548479  8.209676956327613 4.083213922305274 3.184054200681956  8.238713994576999 4.089164436180187 3.049999900466438  8.285203937457544 4.067822149602925 3.145303063118238  8.223306777504424 4.141639186773681 3.194668780525185  8.248289380775345 4.145865983545948 3.0599759540262  8.294343260168596 4.124967891518275 3.156999318845513  8.237443383260455 4.200349874887842 3.205076254559073  8.258262983508299 4.202987418994402 3.069818734707637  8.303866701237535 4.182608057225996 3.168574193183616  8.074454912253051 3.669681685058384 3.696799090824312  8.090162004287937 3.726703573630894 3.736932750052444  8.105678957843793 3.783661350281219 3.777259207558901  8.121134749618372 3.840614196370445 3.817691409274783  8.136634098866072 3.897604347296144 3.858154173037596  8.152325059141107 3.954653477305579 3.898575302310462  8.168404468128054 4.011872412753982 3.938950710960126  7.651827086105054 3.795207969643366 4.109908700464954  7.75216503322589 3.717873412645493 4.12528528721116  7.637898828103211 3.635884466910948 4.206120218788363  7.733834233940748 3.674616759729985 4.059919532550715  7.634821283754537 3.749000256460604 4.044160828373501  7.65183215422291 3.674516720745163 4.277377795915704  7.66877906673024 3.841315314925549 4.175552540233934  7.770461978232357 3.761048234921056 4.190566079412835  7.665769795886464 3.713013583158848 4.348549042032994  7.685746252556046 3.887275788283878 4.241105613850403  7.788804900690673 3.804098600603735 4.255750718928998  7.679766789647603 3.751316369826086 4.419649971059738  7.702788468015281 3.933057343684257 4.306570085439663  7.807239112727936 3.846956217341532 4.320810019059087  8.076357174882535 3.887786713823428 3.048361430753219  8.090186724526438 3.944884969503273 3.056655475797461  8.103876002510457 4.002334496219481 3.065198703935767  8.117617199347418 4.06005459451498 3.073808239872693  8.131532306653339 4.118065896138431 3.082391088707706  8.14575624751002 4.176389131965327 3.090872361238358  8.969652156462031 3.859843879510161 3.82909398321589  9.002896027755726 3.784931060216428 3.963373292686684  8.876228489123363 3.775079633406802 3.972980741689329  8.970675018714399 3.80252304475256 3.795091095115665  8.878342107889752 3.722353061187358 3.928547889447814  9.00290687029646 3.838477731036436 4.006313998742745  8.968600608306199 3.917172031237474 3.863032797915008  8.874058236506931 3.827794779789523 4.017363782190896  9.002877628025686 3.891997510826955 4.049165336580164  8.967493775225321 3.9745230544923 3.896843728713279  8.871779663555662 3.880505302745985 4.061663143415424  8.10403195602003 3.776990064027274 3.498666722735199  8.123255032006261 3.836728585210654 3.523498150265912  8.142288002854412 3.896601144382763 3.548628045647048  8.161289558707137 3.956617083363754 3.573903112355919  8.180391133382049 4.016795022547936 3.599203274077616  8.199742947429327 4.077149386103357 3.624421071642238  8.219678349712442 4.137617519492793 3.649454829742817  8.749620169674962 3.592703971356865 3.746447403912979  8.661546608722553 3.506052150765874 3.836096524568473  8.777190293866568 3.520134365766359 3.829626219515633  8.773876517989935 3.569963140768279 3.878619560307067  8.659175024794557 3.555886283520222 3.885588457877893  8.74618871513027 3.64865941378235 3.785659115167547  8.770798893263558 3.619558276406967 3.927642958148678  8.657006962555334 3.605500166783687 3.935162457732002  8.743000524584456 3.70443923981576 3.825061918707674  8.767825915614178 3.669032490113517 3.976685966673178  8.654945452238595 3.655011931162289 3.984771845789074  8.739919992065932 3.760179758263726 3.864545485305452  8.764871900474235 3.718457037519063 4.025721326679813  8.652904886854861 3.704494947053324 4.034385535929749  8.736857317624251 3.815944600321941 3.904041998755798  8.761852472731698 3.767864476306769 4.074723479191482  8.650806526709282 3.753996926855618 4.083968757022683  8.733718885577716 3.871770846492523 3.943490482967005  8.758671860365153 3.817261873326129 4.123658312458775  8.648582997725457 3.803559519501411 4.133494010080956  8.730393743904298 3.927649656703224 3.982815250318104  8.53019489143896 3.544777770122507 3.786934377573947  8.45130029979795 3.468101623805715 3.870789007823441  8.556549103120243 3.469175336410377 3.87467059510766  8.555705449404874 3.51531031569313 3.929127871671026  8.451712039131248 3.514221484263443 3.925488596083561  8.53006787613568 3.598010383058714 3.831900803844984  8.555034039351581 3.561237495495872 3.983645951396331  8.452258787061332 3.560147294022182 3.980258975390189  8.530099215829534 3.65105336643501 3.877046923643936  8.55444057765758 3.60708030017819 4.038198522723799  8.452865578921456 3.605994472083506 4.035065156335177  8.530215317308762 3.704031606408246 3.922277867
[...]
<PointData  Vectors="f_24"> 
<DataArray  type="Float64"  Name="f_24"  NumberOfComponents="3" format="ascii">-7.7910658994811213e-03 4.0556180617716479e-02 -5.1798620259458951e-03  -7.1261427376725795e-03 4.2319628106618247e-02 -3.0150423206798784e-03  -7.9080634627919245e-03 3.2163188029042035e-02 -8.1673688116777974e-03  -8.1094470976826004e-03 2.9335534504348622e-02 -4.4237837531745866e-03  -7.5467293859503778e-03 4.0036706375597537e-02 1.1538485925781119e-03  -8.1484621972814503e-03 3.8086397972676406e-02 -9.9739738942754069e-04  -8.4564815442210815e-03 3.6040651841708522e-02 2.6981896238645778e-03  -7.9497031423292654e-03 3.8156375982632995e-02 4.8618702956055417e-03  -8.3403045405358624e-03 2.7065929666711949e-02 -1.0768806728167657e-03  -8.8159415898887358e-03 3.4032986357661318e-02 6.4938703975847469e-03  -8.3903528734552858e-03 3.6318728865811417e-02 8.6311971174074659e-03  -8.6134431130041322e-03 2.4868683241381227e-02 2.4223426506341252e-03  -9.1643653733531338e-03 3.1914135605106850e-02 1.0642737286028466e-02  -8.7981573451362122e-03 3.4375114151768173e-02 1.2728170945422806e-02  -8.8158669616035870e-03 2.2579840642648747e-02 6.2538467590706921e-03  -9.1028730762684786e-03 3.2393453339059783e-02 1.7159036858567112e-02  -9.4468915601613000e-03 2.9766465420742728e-02 1.5164281280874678e-02  -8.9283589264998169e-03 2.0273023536904657e-02 1.0433907264856905e-02  -9.7081750557281993e-03 2.7617385105621194e-02 2.0030349419838212e-02  -9.3868654064023331e-03 3.0365055976259412e-02 2.1928692759728328e-02  -8.9740236694986798e-03 1.7974831580591780e-02 1.4954242644759905e-02  -7.2199221161219013e-03 3.4670168961228376e-02 -5.5849583308652450e-03  -7.5238827477224299e-03 3.1877347828655520e-02 -1.8362475174289797e-03  -7.8402344940754192e-03 2.9608344668715914e-02 1.4820269120729920e-03  -8.1965393518111055e-03 2.7458827036429261e-02 4.8784694400639903e-03  -8.4830716575848321e-03 2.5244485479574141e-02 8.5562140236790617e-03  -8.6153649235913825e-03 2.2949166409057687e-02 1.2557642908172736e-02  -8.6454947183681272e-03 2.0657887721467309e-02 1.6861749058353040e-02  -1.3164531708158742e-02 9.0879782559969591e-02 6.9433422826498713e-03  -1.4735857088057167e-02 1.0073645680998562e-01 1.1265411518612427e-02  -1.1752178820036251e-02 9.5791404539014136e-02 8.7485493483788375e-03  -1.2408611062945806e-02 9.5329594420138719e-02 1.2514342922515544e-02  -1.5136988697873652e-02 1.0053244765804918e-01 1.4599176133785639e-02  -1.3594766883329964e-02 9.0111605980041032e-02 1.1245177189362235e-02  -1.2923513859459479e-02 9.4701153520006340e-02 1.5844649806829321e-02  -1.5447832792822191e-02 1.0005999617136507e-01 1.7550129230670279e-02  -1.3875665608318906e-02 8.9287940501802651e-02 1.4984871262760584e-02  -1.3295860918711362e-02 9.3975912072285825e-02 1.8752123439498492e-02  -1.5658679039406959e-02 9.9410816949605019e-02 2.0117188294453546e-02  -1.4054942903865976e-02 8.8417995246952305e-02 1.8286748400126410e-02  -1.3634173660818826e-02 9.2994102675776139e-02 2.1607846735968644e-02  -1.0613625739938551e-02 4.7177694236539065e-02 -4.7667002394805574e-03  -9.6121552802656014e-03 4.1778891146995817e-02 -6.5062551496519374e-03  -1.0210636274426746e-02 3.7007924699411193e-02 -8.4821651969005721e-03  -1.0274064860839300e-02 3.4160589080368495e-02 -4.1329042186389183e-03  -9.7912238608063671e-03 3.9183716712378816e-02 -2.0400579466760028e-03  -1.0736005355610975e-02 4.4892281511052200e-02 4.9847529569485715e-05  -1.0298512434127547e-02 3.1821059871042126e-02 -2.3940803664158219e-04  -9.9056398447594524e-03 3.7026251902170730e-02 1.9328390751474224e-03  -1.0798856765382695e-02 4.3014164327538802e-02 4.2835098029543450e-03  -1.0362955760142368e-02 2.9518642207488743e-02 3.7881794013488851e-03  -1.0072259945708192e-02 3.4887806417380179e-02 6.0108655533506489e-03  -1.0899413193016752e-02 4.1144225520629352e-02 8.5718653693505811e-03  -1.0462686804025515e-02 2.7107391799339273e-02 8.1646063040774451e-03  -1.0279553265252381e-02 3.2622915453034342e-02 1.0458916132633970e-02  -1.1047843280410084e-02 3.9118931835762608e-02 1.3254485404714892e-02  -1.0597918357057331e-02 2.4676105149944418e-02 1.2863801713555108e-02  -1.0523401568288834e-02 3.0322122917365028e-02 1.5284585283839651e-02  -1.1247912221941526e-02 3.7004880807149747e-02 1.8328655140928674e-02  -1.0816846130037399e-02 2.2257672246470371e-02 1.7864643925209180e-02  -1.0848533301463811e-02 2.8014638253818780e-02 2.0458517028717264e-02  -1.1513006853352702e-02 3.4845313445134696e-02 2.3742926473483819e-02  -7.8060201592921371e-03 2.4697532533379835e-02 -1.0594491002963511e-02  -7.8710220670214354e-03 2.1720823181475495e-02 -7.4788436140221575e-03  -8.0144364458780044e-03 1.9327082534935584e-02 -4.5801685690590220e-03  -8.1710678493293609e-03 1.6972696402973244e-02 -1.4993999353643205e-03  -8.2043814564041334e-03 1.4500991417673937e-02 1.8953272182132988e-03  -8.1167133424132100e-03 1.1993003197649574e-02 5.6170229816353513e-03  -7.9174259303820653e-03 9.4771697450735798e-03 9.6466897284916055e-03  -9.9807553065669394e-03 5.3153483469765221e-02 -3.1803218199965995e-03  -1.0257502632863321e-02 5.1093102413039659e-02 1.7312809646621978e-03  -1.0422346105773658e-02 4.9390744193635233e-02 5.9780713106165114e-03  -1.0617676433521553e-02 4.7706522691245090e-02 1.0215325295076438e-02  -1.0869572851879263e-02 4.5852778539449267e-02 1.4848771702137862e-02  -1.1188384866077995e-02 4.3885961270924229e-02 1.9922742173668902e-02  -1.1565549764994489e-02 4.1851555175543245e-02 2.5372642020698225e-02  -8.1250274614747767e-03 8.9319358672524784e-03 -2.4536635356783156e-02  -7.9922622757173864e-03 9.8222571069077891e-03 -2.3129151252945238e-02  -7.6066300721402561e-03 5.3918225619158525e-03 -2.7198715815163366e-02  -7.8508612740286979e-03 6.7245360457509019e-03 -2.1943324105941547e-02  -4.0671587230463211e-03 8.0300268640730602e-02 5.6034199231612802e-03  -3.2722534055970136e-03 8.4962130604599145e-02 7.3083053405084974e-03  -3.6850083789729143e-03 7.5143719333251383e-02 5.3146740578075852e-03  -4.7693297892863942e-03 7.4815972988839102e-02 9.4644373256744345e-03  -4.4762455101369850e-03 8.5037156790566171e-02 1.0842403747757077e-02  -5.2018251311075460e-03 7.9923656901508724e-02 9.6198150142347821e-03  -5.7072621315427396e-03 7.4460843310588665e-02 1.3116996165285560e-02  -5.5735053856003393e-03 8.4945534305005135e-02 1.4025493198195764e-02  -6.1542052906271155e-03 7.9501015296602612e-02 1.3156773145914017e-02  -6.6004463263887063e-03 7.4062983895982426e-02 1.6505810813049814e-02  -6.5717877962340630e-03 8.4731993436030550e-02 1.6909326614582117e-02  -7.0185241003094890e-03 7.9008886287306374e-02 1.6405980789848295e-02  -7.5472215461513089e-03 7.3514570579013505e-02 2.0046307993851587e-02  -7.5937413399630874e-03 8.4331272761705142e-02 1.9822500963975039e-02  -7.9042363856417271e-03 7.8330080979909206e-02 1.9743637860041019e-02  -8.5799615256910589e-03 7.2784764228378360e-02 2.3944181413934375e-02  -8.7479003666394248e-03 8.3644739483636793e-02 2.3053979090729714e-02  -8.9395214887810874e-03 7.7403881516914005e-02 2.3485446728170649e-02  -9.7158130036737855e-03 7.1893887772758000e-02 2.8209496103975253e-02  -1.0066009878636760e-02 8.2699346140225102e-02 2.6626508913843647e-02  -1.0107684839203566e-02 7.6280264112267127e-02 2.7612566605150112e-02  -7.1545395381236972e-03 2.8418587530571950e-02 -7.2994604811764015e-03  -7.3184484645251987e-03 2.5424160864049160e-02 -4.0080807814795918e-03  -7.5662594621535781e-03 2.3037253891024439e-02 -1.0433542759156911e-03  -7.8350670317803763e-03 2.0794875702729705e-02 2.0244589555623070e-03  -7.9822086330495288e-03 1.8468692623850390e-02 5.3598018220437794e-03  -7.9437864300831926e-03 1.6040627362748291e-02 9.0071354776305543e-03  -7.7354677267829301e-03 1.3612639196646936e-02 1.2913278205678216e-02  -3.8210888745348216e-03 5.3286981849228737e-03 -5.4820239789070088e-04  -4.2544881980667477e-03 3.7347895877257631e-03 -5.0276568442021450e-03  -2.8989216062758139e-03 3.8464568131158340e-04 -7.7807724405053623e-03  -4.5528945607209749e-03 6.2948739592218993e-03 -6.6108900251916876e-03  -4.1285949616289182e-03 7.9682326273455839e-03 -2.2842624303879826e-03  -2.2173272089352218e-03 -2.2395568869083529e-03 -6.3407824627085213e-03  -3.3307313263417691e-03 2.5780685262405951e-03 1.3806739178024027e-03  -3.7540142294476965e-03 1.0527424514839327e-03 -3.2357224325437798e-03  -1.3272415431314698e-03 -4.9793224496312181e-03 -4.6923903605019593e-03  -2.6383418289791824e-03 -3.0144607288010053e-04 3.4942193373248250e-03  -3.0087636978626663e-03 -1.7647257749727513e-03 -1.2345710635539263e-03  -2.5849206702011475e-04 -7.7892903231494377e-03 -2.9158303472855808e-03  -1.8108831360462070e-03 -3.2384200197601563e-03 5.6748244399055523e-03  -2.0807074233087832e-03 -4.6493469087659422e-03 8.6220101704693347e-04  -2.6346652793448663e-03 7.9519554328475003e-02 7.3756849833436899e-03  -3.8246704111852088e-03 7.9656117174554744e-02 1.1040123086196786e-02  -4.9377118924020811e-03 7.9631733964252688e-02 1.4334650850791440e-02  -5.9822373483719186e-03 7.9501027167319618e-02 1.7355461663641519e-02  -7.0710246881031452e-03 7.9212610534852457e-02 2.0465220906577299e-02  -8.2673656663314818e-03 7.8732435667031878e-02 2.3897762652546919e-02  -1.0685174823889020e-02 2.2014595292091217e-02 5.4639353331751937e-03  -9.9949514078364488e-03 1.1800178681342255e-02 -1.4497061836247901e-03  -9.7500098748885961e-03 1.0761214233933693e-02 -1.9454388734535949e-03  -1.0790186913159645e-02 2.4631051579317369e-02 1.2599186036418583e-03  -9.8302745371591539e-03 1.3620242032443568e-02 -5.4771413240901328e-03  -9.8380573233407091e-03 9.0139617896966440e-03 2.3975745881360680e-03  -1.0601951489610314e-02 1.9413445731329981e-02 9.9273784445065398e-03  -9.7183195765017816e-03 7.9409447910343701e-03 1.8190527287274573e-03  -9.7191160592082042e-03 6.2202188719150493e-03 6.4228412127105457e-03  -1.0560913333902565e-02 1.6832695793260563e-02 1.4647710175036495e-02  -9.7647718013687251e-03 5.1145124618990822e-03 5.7858028640465336e-03  -6.3597053703999974e-03 4.5285753020004982e-02 -4.3041586071404427e-04  -6.8918503035673290e-03 4.3316262006053673e-02 3.7546162541280286e-03  -7.4159493676901516e-03 4.1711354564073808e-02 7.4614985485871050e-03  -7.9783466688831753e-03 4.0157745053364072e-02 1.1201821146793880e-02  -8.4993950181996951e-03 3.8510422528717864e-02 1.5237208549871636e-02  -8.8915867602373574e-03 3.6792161126131401e-02 1.9611208580809000e-02  -9.1774580894096042e-03 3.5071668493760963e-02 2.4223433642926919e-02  -9.7868965399403526e-03 2.6293790174927535e-02 -1.2752398582050508e-02  -9.0835057524950250e-03 1.7781191116126891e-02 -1.8146134549669311e-02  -9.4646140089047811e-03 1.9108480410258984e-02 -1.7365899557202181e-02  -9.4377278288215322e-03 1.5648479827379137e-02 -1.4771610431561662e-02  -9.0639088549464199e-03 1.4413276760867941e-02 -1.5657699408190364e-02  -9.7807714017787099e-03 2.3202091318233420e-02 -9.2095279000185548e-03  -9.3608111546454962e-03 1.2676218293682501e-02 -1.2188883220649916e-02  -9.0180895323504172e-03 1.1555860652677313e-02 -1.3170113507970592e-02  -9.7630978403647640e-03 2.0576550910814919e-02 -5.8332624291210482e-03  -9.2879691622183604e-03 9.7574761194148176e-03 -9.3593026018688966e-03  -8.9779666755792839e-03 8.7285072832260484e-03 -1.0419947977753429e-02  -9.7802164316114753e-03 1.7931818602335961e-02 -2.2403381554485903e-03  -9.2283274252523105e-03 6.8508530755714541e-03 -6.2871239081111960e-03  -8.9284531698973820e-03 5.8912307061921697e-03 -7.4109003230069951e-03  -9.8062608081688155e-03 1.5217305447016655e-02 1.6443312067723418e-03  -9.2310940521015128e-03 4.0074446058008563e-03 -2.9559385883296319e-03  -8.9416341908984901e-03 3.1162859012407252e-03 -4.1226134652748636e-03  -9.8913664293544690e-03 1.2540788999466333e-02 5.7956226755118230e-03  -9.3458352997755744e-03 1.2007162835299668e-03 6.2618939653341513e-04  -9.0623889726120250e-03 4.0280936414347775e-04 -5.4571433357313221e-04  -1.0077662500988903e-02 9.8410847236886298e-03 1.0199136285459039e-02  -8.8075367371531696e-03 2.1484122030483686e-02 -1.5661784164737194e-02  -8.3728568277267063e-03 1.3554761925035063e-02 -2.0344869531198694e-02  -8.6228669057810143e-03 1.3697831687341133e-02 -2.0452923994636846e-02  -8.5868059606889861e-03 1.0581688272642630e-02 -1.8432704717391581e-02  -8.3293322775230012e-03 1.0406594489783901e-02 -1.8352457127528601e-02  -8.8829005696619608e-03 1.8132996930972690e-02 -1.2732609453618725e-02  -8.5287508114927999e-03 7.8300604390584040e-03 -1.6251975197129623e-02  -8.2582435662300162e-03 7.7325531140236617e-03 -1.6284123578510602e-02  -8.9106852758093127e-03 1.5374358334123921e-02 -9.9512220808111902e-03  -8.4449067337770897e-03 5.0696553673304032e-03 -1.3849063451352658e-02  -8.1739668300444043e-03 5.0634639183533836e-03 -1.3967877870864282e-02  -8.9463624357001420e-03 1.2672827810951044e-02 -6.9292575304571984e-03  -8.3414499681710632e-03 2.2821315068383150e-03 -1.1200823157073998e-02  -8.0333522849036741e-03 2.3250843220861826e-03 -1.1379012158263120e-02  -8.9490546518870770e-03 9.9227773154460519e-03 -3.6118073775547391e-03  -8.2923804176447680e-03 -4.4468266823902635e-04 -8.2482586965570079e-03  -7.9066915210162340e-03 -3.7386342871725836e-04 -8.4750429273670342e-03  -8.9657433618097332e-03 7.2158419369944757e-03 2.6693003505599162e-05  -8.3332724699570881e-03 -3.1477403483629002e-03 -5.0375399948370640e-03  -7.8387127284415513e-03 -3.0337878807430258e-03 -5.2741117929050122e-03  -9.0562805908290817e-03 4.5764891472277252e-03 4.0153678459843353e-03  -1.1153251306163478e-02 3.2780452137905806e-02 -1.0489136789159059e-02  -1.0483043189698936e-02 3.1593049343011007e-02 -1.0535602747270010e-02  -1.0097378354405663e-02 2.2570741921975501e-02 -1.4986245857694414e-02  -1.0447471451706408e-02 2.8608295527906596e-02 -6.4981752426882125e-03  -1.1032931092712495e-02 2.9703340555450066e-02 -6.3876193294712495e-03  -1.0036483734903992e-02 1.9288606427418042e-02 -1.1851897261253829e-02  -1.0406087947851386e-02 2.6096778270565987e-02 -2.7868581902163862e-03  -1.0902985011977040e-02 2.7142853951699478e-02 -2.6384746777109646e-03  -9.9262066772894016e-03 1.6456613012346945e-02 -8.7747195582456965e-03  -1.0386696632256390e-02 2.3612841477920303e-02 1.1063172744152051e-03  -1.0392574269445131e-02 2.1030254344119485e-02 5.3220894553614546e-03  -1.0432377431258279e-02 1.8466662286699860e-02 9.8061248437341601e-03  -1.0536496387414570e-02 1.5904851150458907e-02 1.4549259411147772e-02  -6.7042844945410848e-03 3.6667580579200464e-02 -2.4842533819675419e-03  -7.0886822878170686e-03 3.3993213321419094e-02 1.1021483818379032e-03  -7.5079068271840894e-03 3.1748989448450282e-02 4.3222731567264215e-03  -7.9537635809849138e-03 2.9592811204732686e-02 7.6056812108874329e-03  -8.3155357818375259e-03 2.7377970865774530e-02 1.1132728643383853e-02  -8.4755873109722719e-03 2.5038729128617820e-02 1.5018157485239126e-02  -8.5111797285716741e-03 2.2705888934869148e-02 1.9084602927351164e-02  -8.2736663681624630e-03 6.5353303904557056e-02 1.9767578713154651e-04  -7.1413087042182487e-03 6.6853407756113065e-02 1.1148779281765792e-03  -8.1251037058580871e-03 5.6658187841038592e-02 -1.9440462963501931e-03  -8.6435735176583883e-03 5.4804961096929700e-02 2.8820569380714387e-03  -7.8494865747718631e-03 6.5522413641512053e-02 5.8412237763149546e-03  -8.8714702305500853e-03 6.3827586233010838e-02 5.0524642123562303e-03  -9.0133955956757592e-03 5.3295760753932178e-02 7.0259299895898903e-03  -8.3793242305704660e-03 6.4387104270061488e-02 9.9101359458700130e-03  -9.2874476470364859e-03 6.2546553965817389e-02 9.2096805516365607e-03  -9.3930683039728548e-03 5.1820380529612534e-02 1.1111243030118369e-02  -8.8937251908454574e-03 6.3254850221446307e-02 1.3817022029396114e-02  -9.6930300152345428e-03 6.1276055227840909e-02 1.3217500780108162e-02  -9.8231131893390059e-03 5.0194337033105905e-02 1.5562101212382185e-02  -9.4728187829805962e-03 6.1945680845011702e-02 1.8057958043840906e-02  -1.0168062785332291e-02 5.9812862020893573e-02 1.7579054272096814e-02  -1.0314551697413531e-02 4.8449598749405728e-02 2.0458728303829967e-02  -1.0143546849092529e-02 6.0465601723564771e-02 2.2755696266541059e-02  -1.0735266627673315e-02 5.8165108854060732e-02 2.2421573767527080e-02  -1.0876019896735116e-02 4.6642604669090613e-02 2.5760351458546583e-02  -1.0908318853901625e-02 5.8853429309251387e-02 2.7886889886507366e-02  -1.1394329035128034e-02 5.6377323750592206e-02 2.7692154916305507e-02  -9.2776665419469322e-03 2.5013786884426192e-02 -1.3527398947076111e-02  -9.3168719867476012e-03 2.1943841087886114e-02 -1.0091582544247506e-02  -9.3500536824342364e-03 1.9317477861354425e-02 -6.8481086480282902e-03  -9.4070241145519998e-03 1.6691066003735214e-02 -3.4064430851456383e-03  -9.4540584056454040e-03 1.3997556092273296e-02 3.3732717069171489e-04  -9.5417878132262827e-03 1.1352342345048188e-02 4.3817730230452500e-03  -9.7513773746084123e-03 8.7127654291156466e-03 8.7395655030918472e-03  -4.1024119037039366e-03 5.5346805216648642e-02 7.4065372807363911e-03  -4.4948998342868168e-03 4.8362982708979388e-02 8.8758604247348976e-03  -4.7969320693928659e-03 4.7125034511061197e-02 6.2068768364250265e-03  -5.6166090895740052e-03 4.5900709419836941e-02 1.0356365719940277e-02  -5.4163208063673441e-03 4.7522543409393131e-02 1.2920827578541764e-02  -5.0287458261570744e-03 5.4828258767743943e-02 1.1610791954608141e-02  -6.4261945570428117e-03 4.4957090303893846e-02 1.3978163470140127e-02  -6.3108061355521888e-03 4.6868525647402667e-02 1.6470388874817391e-02  -5.9384019670031089e-03 5.4420598898008821e-02 1.5292135059220873e-02  -7.2380997563941544e-03 4.4082646857100435e-02 1.7541675467458790e-02  -7.2024578592637277e-03 4.6261651575511258e-02 1.9946228505157763e-02  -6.8552015876979172e-03 5.4027680910361219e-02 1.8867083476424309e-02  -7.9841647051650932e-03 4.3155537180203006e-02 2.1317703201366962e-02  -8.0437847133579526e-03 4.5604205743114579e-02 2.3636777588147209e-02  -7.7589298465284571e-03 5.3564626408438488e-02 2.2679978368040955e-02  -8.5970192112668712e-03 4.2141326084012803e-02 2.5349381993644841e-02  -8.7843901799618089e-03 4.4877989121490804e-02 2.7563364075762327e-02  -8.6092121067690396e-03 5.3061401725768502e-02 2.6738806564937129e-02  -9.1543891810358727e-03 4.1115348379408286e-02 2.9518700338173658e-02  -9.4911189446177553e-03 4.4138050403911763e-02 3.1614416853761873e-02  -9.4145426512483362e-03 5.2509045791602579e-02 3.0994623852013271e-02  -8.5073878755710895e-03 1.9778340771027414e-02 -1.5909111647519507e-02  -8.5070476114663535e-03 1.6491928944071279e-02 -1.3270821177828544e-02  -8.5164440152246668e-03 1.3756351880153912e-02 -1.0736854270515218e-02  -8.5421554454628151e-03 1.1082375694394133e-02 -7.9556174788384827e-03  -8.5059434489619824e-03 8.3545205321272856e-03 -4.8674298541997833e-03  -8.4315244927336344e-03 5.6410779663374237e-03 -1.4366827567117882e-03  -8.3648592406505747e-03 2.9845827292158959e-03 2.3451592549643989e-03  -3.7133068594107435e-03 5.6077531845894306e-02 9.3204095236085558e-03  -4.7368174711570040e-03 5.5885999814692236e-02 1.3395426454350995e-02  -5.7313396514535216e-03 5.5747974922221367e-02 1.6946801210339049e-02  -6.7281653674137430e-03 5.5612725586723213e-02 2.0353946217624940e-02  -7.7209750069672988e-03 5.5415629552331702e-02 2.3965084647757359e-02  -8.6973316012308888e-03 5.5179693348527535e-02 2.7812408688980512e-02  -9.6447551855314735e-03 5.4910919474464789e-02 3.1844192242287059e-02  -6.6323449573558709e-03 3.0316195454905721e-02 -4.0447147559608508e-03  -6.8971004022708796e-03 2.7428993557530330e-02 -8.4427763429819160e-04  -7.2446304470345536e-03 2.5068721613033081e-02 2.0419932277856915e-03  -7.5933970026388665e-03 2.2842329183312773e-02 5.0060959101332425e-03  -7.8221284488120251e-03 2.0550361061924202e-02 8.2046145148484875e-03  -7.8128822643317303e-03 1.8102035630041327e-02 1.1736966223830121e-02  -7.6094299856521094e-03 1.5674533036495315e-02 1.5423797571191104e-02  -7.1062022373069907e-03 5.7553820755552654e-