<?xml version="1.0"?>
<VTKFile type="UnstructuredGrid"  version="0.1"  >
<UnstructuredGrid>
<Piece  NumberOfPoints="762" NumberOfCells="3167">
<Points>
<DataArray  type="Float64"  NumberOfComponents="3"  format="ascii">6.360531695452489 2.499120775935425 0.7439381442985865  6.400522894290213 2.359359180276407 0.8017885737765915  6.481255531719566 2.490670348983702 0.744173409848792  6.399619596756936 2.383485867918646 0.8606745211530094  6.478035530807999 2.46893035912201 0.6824014872223551  6.36099905139127 2.479270887269859 0.6819171778555838  6.40142226546774 2.335242239939641 0.7430371386893613  6.474856186895607 2.447245105634996 0.6207368108758543  6.36148877482514 2.459472317015539 0.6200112085194742  6.402343445626413 2.311186027112399 0.6844058879090754  6.471802292262835 2.425687268546791 0.5591729732269181  6.362019995723365 2.43979319454933 0.5582167024192097  6.403306942696468 2.287273582770457 0.6259012696616246  7.265710871593158 2.028699415619498 1.080181509938484  7.154424053786584 1.999189660192914 1.110369026446491  7.213083577356434 2.122717654509046 1.037700169150654  7.20568980518121 2.09428788128828 0.982450704679547  7.145078804927564 1.969265247746307 1.056159032522505  7.258445685648654 1.999477898204909 1.02524995442615  7.197849574945541 2.065811251643989 0.9271597984935326  7.135273231378719 1.939266055804421 1.00201461622661  7.250741687486885 1.970161193834136 0.9702710283874519  7.189854721212983 2.037292279517957 0.8718326488782486  7.125285695845184 1.909234491569219 0.9478940005479379  7.242894407913056 1.940788414232399 0.9152512492570293  7.181901042577612 2.008735290479561 0.8164735353574606  7.115331940092511 1.879192452601333 0.8937673243331995  7.235098522055955 1.911375276650617 0.8601873978621158  7.174160169677406 1.980129585318944 0.761071722176457  7.105605237714195 1.849151872687635 0.8395956628160226  7.227515099590922 1.881923223737283 0.8050548603000819  7.166762810656818 1.951477574780643 0.7055745849501761  7.096276421034206 1.819121825831367 0.7853038000912642  7.220244302529994 1.852447154391085 0.7497658441568098  6.273579766305709 2.220813996179976 0.7229945590061684  6.150043638266501 2.163873023447157 0.7428466558937497  6.290926708532647 2.097177087190195 0.7855902842316641  6.285453689935772 2.122406253939421 0.8405044943287887  6.269791323152843 2.244839905925988 0.7799405805403736  6.155091816643425 2.14089568429631 0.6867048673229967  6.277297849195925 2.196893378536595 0.6661732889564836  6.29626922383966 2.072063355520585 0.7308178373024523  7.476147369548733 1.788146305151656 1.041144941496576  7.521028494840163 1.668602094109703 1.121631693086387  7.60334205708584 1.776167188127122 1.061658841556841  7.476356730643728 1.82007763823753 1.097283870065856  7.60857249621359 1.744534873525738 1.005734562115162  7.475881832168769 1.756154599957035 0.9849373327166981  7.520415214065998 1.63095667681793 1.068336397332083  7.613798681672336 1.712899549786171 0.9496682641267675  7.475659927350972 1.724149334745592 0.9286181299206919  7.519831619537139 1.59328964959122 1.014942182085192  7.619070439087767 1.681278148094266 0.8934442334316332  7.475562102002895 1.692157535251241 0.8721456145327247  7.519352835508276 1.555628267869692 0.9614332535802456  7.624393526737684 1.649646041874887 0.8370570859679677  7.475593939674503 1.660162987283842 0.8154942206927209  7.519019858611442 1.517976982750804 0.907796377327169  7.089441677798713 2.122472448405671 1.0541931070135  7.079927241301728 2.093628749048746 0.9994904540616891  7.069979485553876 2.064745143206644 0.9448366847206101  7.05985542192626 2.035842398334516 0.8902174139361678  7.049756104866303 2.006932139284251 0.8356093477503618  7.039871222782495 1.978018442566312 0.7809792509947526  7.030385448622543 1.949086444058847 0.7262541459806851  6.653787102138409 2.268214122172215 1.052910247678555  6.535199123475923 2.255358360287075 1.063749974482521  6.615268797490034 2.356869371577974 1.004816735871048  6.611173232324918 2.328238126707262 0.9475269281505778  6.535473087912125 2.22609729526658 1.008497272202875  6.648327886054024 2.238092881632524 0.9977925051076791  6.642739724319901 2.207946545722412 0.9428326639222093  6.535712325152235 2.196832417491472 0.9534565777391718  6.606985648147139 2.299589293176698 0.8904409740877771  6.535914604021046 2.167565306609437 0.8985800036166166  6.637037606676 2.177799174842127 0.8880551224513689  6.602712888252097 2.270926076269126 0.8335122406666706  6.536096120622737 2.138317312812605 0.8438505749910475  6.631291076009069 2.147676321634088 0.8334107142998524  6.598414897948927 2.242295209170507 0.7767162412898004  6.62561295510889 2.11762560995497 0.7788719505268012  6.536323389988442 2.109156693105401 0.7892686823945626  6.594195690335488 2.213749151426105 0.7200405955495137  6.620164802275245 2.087742050130195 0.7244336801511295  6.536673089111281 2.080200891444382 0.7348410345704824  6.590168566293244 2.185372002074732 0.6634722241290331  6.389825687165458 2.181434657118738 1.094394590348907  6.52806963598552 2.123123467033186 1.132478630526978  6.407618225909756 2.072045232762626 0.8772986600120092  6.536099779936093 2.007704077877214 0.916887144399714  6.538133217606242 1.978964845085666 0.8633953168634505  6.41208578142062 2.044800586627737 0.823417403230526  6.540260392045887 1.950429308057869 0.8100663155847416  6.416491017329003 2.017724578835097 0.7696878661153139  6.256823385963905 2.381484925438705 0.7877832852224288  6.259376361839394 2.359793614246077 0.728308475736719  6.261921345311612 2.338153855091361 0.6689542054452613  6.264430567158199 2.316616052417512 0.6097288145662821  6.615305711976103 2.187711379408978 1.100273600596073  6.612064866412995 2.158014506797857 1.045419964891898  6.605311879437469 2.098610258595677 0.9363806144064513  6.601847810798736 2.068929827361722 0.8820972954452362  6.598444801065434 2.039329029601144 0.8279405845659645  6.59529298925543 2.009937082712553 0.7739512243371577  6.168250863336647 2.036024825871891 0.8024779349543337  6.174648596434714 2.011850737764068 0.7480277276222913  6.397791301758152 2.431636428292702 0.9789209146794465  6.490759900755354 2.555750592865586 0.9303545729697634  6.554264878946384 2.457868413536515 0.9655665708678672  6.55084076154283 2.432827111303603 0.905613098845178  6.487636620935438 2.534112714445409 0.8681240179432225  6.39870687718155 2.407588164406428 0.9197221857719793  6.547352598325141 2.407733565406192 0.8458504492481647  6.484463043078188 2.512412484120004 0.806070271723348  6.543809685499962 2.382610785780661 0.7862573758478187  6.540242926646568 2.357506153553064 0.7267930138915876  6.536728995938248 2.33246373079602 0.6674360082278575  6.533370639096367 2.307555352178101 0.6081569258130614  6.499564533464329 2.357780356760104 1.011244415795027  6.498587755609291 2.330831368856075 0.9537060017432124  6.497569525847704 2.303859017185487 0.8963838531163524  6.49651236643615 2.276869327624922 0.8392363270122463  6.495435526019608 2.24989761226238 0.7822304311044278  6.494401012861077 2.222999236623772 0.7253441736904038  6.493516177415024 2.196258437776285 0.668558068028833  6.517007732751797 2.581027286976506 0.5647005135359388  6.647548545658033 2.541913919352038 0.5636041603714165  6.602885375183329 2.672022029787672 0.5289326686670539  6.655547102446524 2.561630781632251 0.6266656690757775  6.595434354486813 2.658277238750633 0.4630907560731121  6.509722270179454 2.563151384545314 0.5004920096388877  6.639705482918118 2.522269814940608 0.5005926218612416  7.58390983009172 1.876772642627375 1.010346865643891  7.588982140591015 1.849545990394727 0.9528642383563317  7.594062164675286 1.822307317789062 0.8952403945726124  7.599193754906136 1.795055700045055 0.8374595926993131  7.604376650963666 1.767790218675168 0.7795105445516183  6.603133730057826 2.509860671627562 0.7975939033595908  6.671686464039203 2.601156112702838 0.753019071116581  6.539446010582439 2.635067589550057 0.7578246822629253  6.609377240862742 2.533593549303446 0.8588411526368651  6.531959426115453 2.617037465911102 0.6933455784647731  6.59682587542255 2.486082304112418 0.7364924786644418  6.663625065049789 2.581385711818147 0.6897995488679878  6.524457490035138 2.59900851114667 0.6289768231981853  6.590496019855393 2.462317118844605 0.6755011494752775  6.584227936666515 2.438605927517605 0.6146075427798392  6.578120939472432 2.415012383938151 0.5537961051902547  6.254697579332265 2.341232644697274 1.009085741982886  6.386813425369092 2.2972041657646 1.037037857116919  6.389719825912903 2.270843706947138 0.9805836770101259  6.258406824417345 2.317142626789217 0.9515635964964085  6.392658132686689 2.244473800103059 0.9243541047436987  6.26217927466493 2.293029997094462 0.8942014237223316  6.395607705980039 2.218101514866873 0.868300638911964  6.265982814147139 2.26892396979407 0.8370123478256252  6.398556677154528 2.191751370303148 0.8123955438594289  6.401512319040099 2.165474485260654 0.7566169177343861  6.404459732054483 2.139345474913469 0.7009500602830392  6.394219152152285 2.154079785182964 1.039830626815867  6.398660004562691 2.126717501841038 0.9854804234823967  6.403137678156908 2.099370378362727 0.9313202569025708  6.764753093687023 2.600743113638776 0.5979672304258877  6.891496548977434 2.685334294296342 0.5700187313492127  6.818308492743935 2.768588013731388 0.5611119015762331  6.898471806858149 2.695531086770235 0.6359910345180551  6.773417179520487 2.617878365125356 0.6620046040034722  6.812213645389387 2.758832934818031 0.4943012282362152  6.756180174414529 2.583627708599039 0.533986519721897  6.8845973795433 2.675128636515132 0.504072099753031  6.806240387081573 2.749085431905486 0.4275273550929181  6.747787687547111 2.566546683112609 0.4700594270225791  6.877853503582922 2.664912018855042 0.4381701596232013  7.476359307639264 1.85181585383079 1.153312459322791  7.458763178634019 1.955412422415264 1.105927801190667  7.573683407230686 1.930914131683129 1.124837920521305  7.4593589075
[...]
<PointData  Vectors="f_24"> 
<DataArray  type="Float64"  Name="f_24"  NumberOfComponents="3" format="ascii">-2.1234892515207570e-03 -3.0698622875360355e-02 3.3900245310679061e-02  -2.1972357303154753e-03 -3.8744224621499075e-02 2.2387144683441339e-02  -3.6106720237554378e-03 -3.1017308796453209e-02 3.3713144603064384e-02  -2.5429691077525122e-03 -4.3196355315063016e-02 2.3267853995789251e-02  -3.4390553581666525e-03 -2.6359119666466820e-02 3.2857632000697454e-02  -1.8264680837596517e-03 -2.5974944498159735e-02 3.3187818757620190e-02  -1.8696338935449580e-03 -3.4282494044820533e-02 2.1434687962735819e-02  -3.2971125758248080e-03 -2.1529196846077844e-02 3.1750593666743439e-02  -1.5505087269879899e-03 -2.1072548787986145e-02 3.2220713881767053e-02  -1.5571554032188448e-03 -2.9632705790607027e-02 2.0349075191925414e-02  -3.2014499351077754e-03 -1.6359948133655634e-02 3.0330305014475867e-02  -1.2770777035605661e-03 -1.5813286971080052e-02 3.0934125313883853e-02  -1.2616827230273017e-03 -2.4629332683116935e-02 1.9066269807433214e-02  -8.9848739194226222e-03 -6.3871437164866152e-02 5.7247172951882931e-04  -8.2971727984938182e-03 -6.5350722727878272e-02 8.5522711109654176e-04  -8.7233377001475661e-03 -6.1304965989331585e-02 4.5492785546849077e-03  -9.3782665328634128e-03 -5.8488037334361115e-02 3.7632308100405188e-03  -8.6811633258088577e-03 -6.3283373284292177e-02 3.4472570098430591e-04  -9.6316596914504220e-03 -6.1656963617846519e-02 9.0864850839937191e-05  -1.0006728185620080e-02 -5.5613459159427815e-02 3.1516527618117456e-03  -9.0813135231064667e-03 -6.1028377209756617e-02 -7.3455736853495098e-05  -1.0273155802701108e-02 -5.9275493740084499e-02 -2.8898402612418110e-04  -1.0601143292825084e-02 -5.2694656461456109e-02 2.6614003060772980e-03  -9.4641070316941588e-03 -5.8677847041109128e-02 -4.0808676040963841e-04  -1.0892792681455859e-02 -5.6801174246654783e-02 -5.8692457050108209e-04  -1.1156103978511103e-02 -4.9726756017998058e-02 2.2672104260107843e-03  -9.8067660770183480e-03 -5.6288146469069496e-02 -6.5079243209287187e-04  -1.1476205557732096e-02 -5.4286859536878632e-02 -7.9721926806074477e-04  -1.1662807225160471e-02 -4.6693217558093789e-02 1.9736386661716276e-03  -1.0082849804264906e-02 -5.3906502657661198e-02 -7.6911450053493923e-04  -1.2007114485818505e-02 -5.1773259305567781e-02 -8.8971162820326551e-04  -1.2104993104282251e-02 -4.3564268916507297e-02 1.8135788807430307e-03  -1.0257610977032141e-02 -5.1581490347990436e-02 -6.9832384458565883e-04  -1.2465283413720810e-02 -4.9285790663240972e-02 -8.0125496028232485e-04  9.7842782092179910e-04 -3.5260833164443776e-02 1.2583309577713704e-02  3.3529008779005043e-03 -3.8901156832207254e-02 7.3575652551375421e-03  1.3118164235308388e-03 -4.3524595862441853e-02 4.8520741200036317e-03  7.7759111074873191e-04 -4.7365955658857706e-02 5.5100172049953574e-03  4.4976768148752343e-04 -3.9670182825208393e-02 1.3458827100413184e-02  4.0754400112384976e-03 -3.4381906103371905e-02 6.7408204966452941e-03  1.5171788157138542e-03 -3.0482036637417588e-02 1.1613657768299127e-02  1.8312648769727067e-03 -3.9392924300757248e-02 4.2263500372171506e-03  -1.2219255392645794e-02 -6.4789638038907180e-02 -4.7025293691565825e-03  -1.2389783496010305e-02 -6.8525337677753595e-02 -4.3513406015456384e-03  -1.3137950174219960e-02 -6.6368419124825245e-02 -6.5010083457420140e-03  -1.1236323268318357e-02 -6.6433447057681755e-02 -4.7632495908285430e-03  -1.4385527058292462e-02 -6.4843986082996130e-02 -6.4916527273609342e-03  -1.3212823451325720e-02 -6.3043775531506294e-02 -4.6963274889922010e-03  -1.3353196260169181e-02 -6.7116599177493241e-02 -4.3234448751808879e-03  -1.5628100811933669e-02 -6.3361100792753533e-02 -6.4833735531530040e-03  -1.4197995951443105e-02 -6.1336658065556347e-02 -4.6617698017592316e-03  -1.4308577360746704e-02 -6.5798098241668809e-02 -4.3688151779979782e-03  -1.6857982272137459e-02 -6.2054008473660861e-02 -6.4103320242582936e-03  -1.5157910476604758e-02 -5.9794748874972214e-02 -4.5450035827013357e-03  -1.5243511190326561e-02 -6.4651681144768186e-02 -4.4224613757382651e-03  -1.8065844557490874e-02 -6.1033988441581151e-02 -6.2360005983018293e-03  -1.6076857018047355e-02 -5.8554628675060630e-02 -4.3913863295470743e-03  -1.6151271120726441e-02 -6.3746080705923677e-02 -4.4302212919597461e-03  -7.9493391467479607e-03 -6.2053859794448114e-02 5.6830748446252809e-03  -8.3617519081996550e-03 -5.9212509283650717e-02 4.7748993191522038e-03  -8.7516533000481633e-03 -5.6329279084346096e-02 4.0573537577979135e-03  -9.1071776803084790e-03 -5.3407645392596702e-02 3.4693366647948420e-03  -9.4179666304082029e-03 -5.0431240016940194e-02 2.9837594760137882e-03  -9.6703164036662081e-03 -4.7375817302150243e-02 2.6001524156013594e-03  -9.8501900641119883e-03 -4.4222998664589903e-02 2.3239444018882918e-03  -4.9157870900868143e-03 -6.0699705320285811e-02 1.4513179087671050e-02  -4.0398164754544700e-03 -6.1544684133822615e-02 1.3264008016175000e-02  -4.7987733438385836e-03 -5.6204035525312696e-02 2.0458195735022684e-02  -4.6781164755274164e-03 -5.1699771792415992e-02 1.9047764548147220e-02  -3.7596169434449757e-03 -5.7717002809209064e-02 1.1747193949038018e-02  -4.7966493757862017e-03 -5.6851326919582036e-02 1.2929989804831498e-02  -4.6502195099227201e-03 -5.3216615200369459e-02 1.1595568210555679e-02  -3.4795944932253004e-03 -5.4092674788710181e-02 1.0464590382317373e-02  -4.5386193225115945e-03 -4.7530690492747017e-02 1.7789986580237768e-02  -3.2109801839611974e-03 -5.0553789790802793e-02 9.3383154481126978e-03  -4.4842864450208852e-03 -4.9671428394977457e-02 1.0410380546327234e-02  -4.3886526398650956e-03 -4.3496825026366967e-02 1.6614709409866826e-02  -2.9540227390609992e-03 -4.6972911837139877e-02 8.2953910285649725e-03  -4.3038230964078444e-03 -4.6093738766535039e-02 9.3015239936509939e-03  -4.2387620023109050e-03 -3.9425932411540313e-02 1.5447069315975837e-02  -4.1147917704320554e-03 -4.2341397912669033e-02 8.2211016296324883e-03  -2.6959746569263812e-03 -4.3206867546255155e-02 7.2977109446465821e-03  -4.0976306367286582e-03 -3.5148094937936969e-02 1.4227587363530197e-02  -3.9104329641118634e-03 -3.8212628450862270e-02 7.1369999341220174e-03  -2.4498594869851909e-03 -3.9067213338641486e-02 6.3067042678244629e-03  -3.9854180648876648e-03 -3.0493629393831854e-02 1.2849674153108604e-02  -2.7330333847675114e-03 -6.4247218870451345e-02 7.8195060795082285e-03  -3.7258275858382938e-03 -6.6523711545041719e-02 5.7444111010658012e-03  -8.2642555017122573e-04 -5.0972157957639111e-02 3.8258570158527468e-03  -2.4026386287496109e-03 -5.4934458128631465e-02 1.8549660196813338e-03  -2.1076440824327543e-03 -5.1844190784451696e-02 1.2591796634364488e-03  -4.2514858911202574e-04 -4.7480773049753483e-02 3.1394288705244655e-03  -1.8042033301000633e-03 -4.8540599162522020e-02 7.9893063314958386e-04  -3.5285864525221402e-05 -4.3711329313855761e-02 2.5311132407363820e-03  -3.8848456682902358e-04 -3.7236195086938491e-02 2.3144346784022416e-02  1.1626809903389245e-04 -3.2633129370064233e-02 2.2360228775830195e-02  6.1585024437743456e-04 -2.7833771093435978e-02 2.1430658302387377e-02  1.1338758790756655e-03 -2.2681302073952116e-02 2.0308846703676903e-02  -4.5038133207836294e-03 -6.4269742997819290e-02 9.5457548851271591e-03  -4.2842158673406135e-03 -6.0974403252608694e-02 8.0780533663545092e-03  -3.8215323319324580e-03 -5.4558763337022836e-02 5.8278951275662358e-03  -3.5822445218931303e-03 -5.1309524774969140e-02 4.9071988405114770e-03  -3.3343013523387042e-03 -4.7911296429682698e-02 4.0759270381379433e-03  -3.0732391929449146e-03 -4.4248143197479217e-02 3.3524707521879402e-03  3.7088941829340827e-03 -4.6961514896442853e-02 4.0704292653843949e-04  4.4018609679301705e-03 -4.3184015403133935e-02 1.2493586350505423e-04  -3.2709699132550765e-03 -5.2880905328781765e-02 2.5102287429606896e-02  -4.2255436295777068e-03 -4.6053831032021916e-02 3.5244481506718071e-02  -4.5419850078093210e-03 -5.1356884818514741e-02 2.7824475378458186e-02  -4.3773305325158713e-03 -4.6251046314220882e-02 2.6828762449245303e-02  -4.0231868769542425e-03 -4.0618653369429693e-02 3.4858807136357993e-02  -2.9014013216820313e-03 -4.7834332738713591e-02 2.4142767715515271e-02  -4.2100766163254942e-03 -4.1563589178021644e-02 2.5894804066900808e-02  -3.8065295104505563e-03 -3.5694672321924130e-02 3.4364199239304248e-02  -4.0454695116912262e-03 -3.7076762326468074e-02 2.4942306953697577e-02  -3.8939723868942630e-03 -3.2592113642688561e-02 2.3895975328068406e-02  -3.7623001924978754e-03 -2.7926024773902471e-02 2.2690831305371174e-02  -3.6585913368667954e-03 -2.2911235706841723e-02 2.1270962734890528e-02  -3.9430475984378165e-03 -5.6599696761816073e-02 2.0130877524390606e-02  -3.6637013269479701e-03 -5.2028337962811380e-02 1.8795337247764419e-02  -3.3825483479235996e-03 -4.7774237807611218e-02 1.7634825455736778e-02  -3.1100236063891142e-03 -4.3664026092443450e-02 1.6553772847726626e-02  -2.8490341163113797e-03 -3.9524473938929210e-02 1.5477849993947791e-02  -2.6070227683544877e-03 -3.5189088586243582e-02 1.4341755076209285e-02  -2.4008516680329192e-03 -3.0486530552778744e-02 1.3068105073945293e-02  -4.5229828828047321e-03 -1.4920173617634530e-02 4.2901602194180037e-02  -6.4492104326773700e-03 -1.5978036714623663e-02 3.9860442412835401e-02  -6.2089049441857386e-03 -1.1460108226022192e-02 5.0082340014952813e-02  -6.2738585969925311e-03 -2.0671625805279058e-02 4.0912632935593093e-02  -6.4388733553650736e-03 -6.6862995878512674e-03 4.8945065053550542e-02  -4.6163673610589819e-03 -9.8723813620320358e-03 4.1544094778411735e-02  -6.6945950053115379e-03 -1.0971067984202609e-02 3.8454706705694633e-02  -1.2906524257940593e-02 -6.3501705214497370e-02 -6.3216486810637436e-03  -1.4208047822832746e-02 -6.1589983839025392e-02 -6.3855230390894163e-03  -1.5514090083928678e-02 -5.9664144487555734e-02 -6.3911445346816137e-03  -1.6827026489372263e-02 -5.7854668345639917e-02 -6.2729009232906138e-03  -1.8143624103098832e-02 -5.6322623058988802e-02 -5.9538872689228793e-03  -5.0725053602957244e-03 -3.5356302511201934e-02 3.4422681735010778e-02  -6.0642743300267175e-03 -2.9716919453048166e-02 4.2096239340093218e-02  -4.6826294108099457e-03 -2.8793937150753228e-02 4.4804066220768123e-02  -5.1397977868818450e-03 -4.0167920396236054e-02 3.5064444908199321e-02  -4.5872031124843627e-03 -2.4217193478639230e-02 4.4513777769659174e-02  -5.0176920460701675e-03 -3.0797498783237957e-02 3.3621495388215697e-02  -6.1514255148853707e-03 -2.5189934602595391e-02 4.1650002766023639e-02  -4.5281779928474141e-03 -1.9654174416104127e-02 4.3884407644072393e-02  -4.9859931779610922e-03 -2.6256923005524097e-02 3.2617207481633659e-02  -4.9891444587292352e-03 -2.1539519174111902e-02 3.1365968437005662e-02  -5.0385888596944607e-03 -1.6470810451673541e-02 2.9817310782954728e-02  -1.8972492558261885e-03 -5.7000798263730321e-02 1.7142895470509314e-02  -2.9484701176475318e-03 -5.9368039337244494e-02 1.5148694330330007e-02  -2.4744632695041387e-03 -5.5134740003194828e-02 1.3840514245046221e-02  -1.2571995834737791e-03 -5.2376884899991739e-02 1.6059985993627429e-02  -2.0315732338617477e-03 -5.1142142491814993e-02 1.2736792411932995e-02  -6.5735535801685692e-04 -4.8065975052090003e-02 1.5143643710068625e-02  -1.6189250270781030e-03 -4.7250347542641749e-02 1.1750899261630889e-02  -9.1617724731031915e-05 -4.3885889247603234e-02 1.4292627961404528e-02  -1.2276285910631877e-03 -4.3318690349525207e-02 1.0813961353117954e-02  -8.5579211877872651e-04 -3.9198017272689463e-02 9.8722786881627785e-03  -4.9324420154276695e-04 -3.4724088312404325e-02 8.8698616467793104e-03  -2.1843897977778170e-03 -6.0862210682778285e-02 6.5273731469787846e-03  -1.6942434402996049e-03 -5.7573231584872646e-02 5.4776773633257378e-03  -1.2475197619694180e-03 -5.4303879235521157e-02 4.5950502930536003e-03  -8.0034326487229464e-03 -1.8390776305352529e-02 4.3903550657285823e-02  -1.0081907586205805e-02 -1.5763540274648571e-02 4.9690836069004395e-02  -9.2818789268708322e-03 -1.3429490366818283e-02 5.6203294173511296e-02  -9.5825168150319873e-03 -2.0023927585103019e-02 4.9701649894972624e-02  -7.7099812536844765e-03 -2.2831997150080854e-02 4.4447416584694921e-02  -9.7520238929355609e-03 -9.3691766515792800e-03 5.5716635772416583e-02  -8.3491865575093752e-03 -1.3785604198144997e-02 4.3020816491386830e-02  -1.0641765011290423e-02 -1.1393357847696652e-02 4.9303368406701471e-02  -1.0277708017942975e-02 -5.0472926013777819e-03 5.4829069594531120e-02  -8.7697317274941441e-03 -8.8980580033668228e-03 4.1785068208723991e-02  -1.1249371355742251e-02 -6.7996248155520762e-03 4.8544861452053646e-02  -1.0267815101844026e-02 -6.7815025074591584e-02 -4.9784226553314642e-03  -9.9346034997101849e-03 -6.5416276673949725e-02 -3.8726554440783358e-03  -1.0280747440853475e-02 -6.6636111316803998e-02 -6.2555821832299156e-03  -1.0977390700733338e-02 -6.3730960525872501e-02 -3.9599714767152988e-03  -1.1603717006987585e-02 -6.5253160585428890e-02 -6.2633864722354965e-03  -1.2028655253950554e-02 -6.1708268373978005e-02 -4.0726607795081790e-03  -1.3076532140304079e-02 -5.9536792561030852e-02 -4.1694603213869386e-03  -1.4116893179007450e-02 -5.7342028728981385e-02 -4.1974315167049919e-03  -1.5141392271767768e-02 -5.5245560956697165e-02 -4.0905993019221066e-03  -1.6136353137405274e-02 -5.3408595929032361e-02 -3.7566598618096270e-03  -1.4635125112175196e-03 -4.6597722277968753e-02 2.4489775430234846e-02  -1.0079822264021709e-02 -5.1808430284268792e-02 1.5641035400028324e-02  -1.0586044211965307e-02 -4.6079090992637517e-02 2.4244054690961848e-02  -1.0747293659867001e-02 -4.9709802433723957e-02 1.7863665354008285e-02  -1.2197223360431518e-02 -4.5100964668596713e-02 1.7086343870393553e-02  -1.1792735580999109e-02 -4.1177258996420149e-02 2.3801210241160043e-02  -1.1269964490700252e-02 -4.7487843780686372e-02 1.4710220237382715e-02  -1.3565015922301195e-02 -4.0822279870969813e-02 1.6411305098044195e-02  -1.2940344442684345e-02 -3.6654466153905996e-02 2.3353865420476565e-02  -1.2397336058787761e-02 -4.3469487307538184e-02 1.3937288735280369e-02  -1.4893503066502740e-02 -3.6679164412436863e-02 1.5764103100193778e-02  -1.4056623200419661e-02 -3.2305857703263718e-02 2.2845574410568132e-02  -1.3486276919268401e-02 -3.9568289922380491e-02 1.3231843695993622e-02  -1.6217152550045261e-02 -3.2507031664037109e-02 1.5083350971009948e-02  -1.5166065724950835e-02 -2.7956526796258253e-02 2.2230359503035611e-02  -1.4562946319422695e-02 -3.5634033491171078e-02 1.2534543403722951e-02  -1.7564165800734974e-02 -2.8170387974649810e-02 1.4312652695489925e-02  -1.6288414995114631e-02 -2.3465379111630207e-02 2.1466439865491731e-02  -1.5650678178495605e-02 -3.1526687409868276e-02 1.1790034292962430e-02  -1.8954800886310855e-02 -2.3571187798080252e-02 1.3399203817428958e-02  -1.7439187347351465e-02 -1.8714073269788113e-02 2.0511816445118711e-02  -1.6773864005706750e-02 -2.7120318405248874e-02 1.0876871364143293e-02  -3.1103133055258980e-03 -2.1115089585531637e-02 4.2353560514301412e-02  -2.9882632865927891e-03 -1.6335783926526928e-02 4.1429354626707576e-02  -7.5259465891864491e-03 -1.5094845398093571e-02 5.2557239002846624e-02  -7.8309817187603749e-03 -1.0755382366231667e-02 5.1943158848252673e-02  -8.1802503319112485e-03 -6.1556300591486682e-03 5.0934801186161220e-02  -1.7028618625067064e-03 -6.2112493234568938e-02 9.1640520822001328e-03  -1.0028579087293867e-03 -5.8303440456353148e-02 7.9713760487826867e-03  -3.6768930391280837e-04 -5.4642997350217951e-02 7.0252660950311345e-03  2.2158094553518482e-04 -5.1037258301594064e-02 6.2185051028991320e-03  -9.5502341152479703e-03 -5.0269825801311452e-02 1.9545911527766451e-02  -1.0494171569082550e-02 -4.5748138224751364e-02 1.8630336550050242e-02  -1.1378782451747381e-02 -4.1592630487530521e-02 1.7852655267878201e-02  -1.2230543353748019e-02 -3.7586143270442358e-02 1.7109353550077588e-02  -1.3070166108814223e-02 -3.3557912086813052e-02 1.6338076989349415e-02  -1.3918967183466722e-02 -2.9355188563684194e-02 1.5487811843241616e-02  -1.4798518579755936e-02 -2.4824920909617857e-02 1.4504298452226297e-02  1.3458058751919071e-03 -5.4403551025747288e-02 -4.0138645382370295e-04  1.8881089610568620e-03 -5.1261066357274086e-02 -7.8550110849330741e-04  2.4073480664942568e-03 -4.7904870255836694e-02 -1.0541540652958966e-03  2.7752473229896713e-03 -3.0947320257724450e-02 1.6157683722916129e-02  3.4878351068081230e-03 -2.5867019128660376e-02 1.5235004979190874e-02  -8.5923011584438120e-03 -2.9261283403668483e-02 4.0010085957032288e-02  -7.4528518189542134e-03 -2.7273621595399412e-02 4.4667731120318209e-02  -9.1322376289758676e-03 -2.4320092627784697e-02 4.9322858867625274e-02  -8.9947695932944341e-03 -2.4838343844635017e-02 3.9606556831490447e-02  -9.4319629519322122e-03 -2.0409225025911450e-02 3.8941892267532405e-02  -9.9272446011539617e-03 -1.5810276517419456e-02 3.7990005857787064e-02  -1.0510935169609711e-02 -1.0923322171550110e-02 3.6716319971343683e-02  -6.2113980067894986e-03 -4.9975501572400056e-02 2.8091648796787671e-02  -5.3247789142429041e-03 -5.0500805904680826e-02 2.8508667139151192e-02  -6.1058012264760134e-03 -4.4947440488245331e-02 3.5538736936782500e-02  -6.2241736945344746e-03 -3.9682649504545024e-02 3.4863206639937541e-02  -5.3061429054313105e-03 -4.5442830536971811e-02 2.7509019234359233e-02  -6.3502604166746973e-03 -4.5018185398509825e-02 2.7128876737354445e-02  -6.3197600428438307e-03 -3.4980815421030952e-02 3.4200087551810372e-02  -5.2670736261638705e-03 -4.0801427298445714e-02 2.6579755055942685e-02  -6.4652049491021905e-03 -4.0474538766534222e-02 2.6245137025376650e-02  -6.4236126010473521e-03 -3.0542315098947549e-02 3.3383955646475713e-02  -5.2252114208655416e-03 -3.6371354188744154e-02 2.5625960586234987e-02  -6.5719190132374674e-03 -3.6136228224046704e-02 2.5337542675089614e-02  -6.5497783964056436e-03 -2.6124638274770674e-02 3.2373644026491614e-02  -5.1928355173769727e-03 -3.1947661214508365e-02 2.4572226391561085e-02  -6.6834872919101116e-03 -3.1807309806437589e-02 2.4334991239505929e-02  -6.7158757162520104e-03 -2.1532315213612513e-02 3.1130520734392098e-02  -5.1802240453240334e-03 -2.7346819465860209e-02 2.3355695829177875e-02  -6.8126130725581630e-03 -2.7309638662502762e-02 2.3178935348713701e-02  -6.9346544379970424e-03 -1.6577497375553918e-02 2.9588581911320286e-02  -5.1916200283460669e-03 -2.2397877811564267e-02 2.1928872169855514e-02  -6.9733426723567827e-03 -2.2477696069335064e-02 2.1827831356509612e-02  -8.6272325928410196e-03 -5.8253671163459163e-02 9.4077306868632811e-03  -9.3091344265094061e-03 -5.4803741298069898e-02 8.4362757548369915e-03  -9.9447710557439423e-03 -5.1427681053870127e-02 7.6725470940010778e-03  -1.0542613933551886e-02 -4.8074745620540586e-02 7.0313179170809082e-03  -1.1105396863993705e-02 -4.4679358284519265e-02 6.4621402638027859e-03  -1.1633281595466956e-02 -4.1164558447685469e-02 5.9478447176831567e-03  -1.2123137213889440e-02 -3.7424980206523281e-02 5.4978039623225800e-03  8.3632955698346664e-04 -1.5374433359646049e-02 3.1002672745913097e-02  -1.0299434789572289e-02 -5.9024408420243576e-02 3.0275324047171369e-03  -1.0325757707030710e-02 -5.6700219672336759e-02 7.0603398255349101e-03  -1.0994054977770206e-02 -5.4118609354133533e-02 1.0993648170634165e-02  -1.2031548451130464e-02 -5.2985128501063898e-02 5.9191052433058920e-03  -1.2210310238364748e-02 -5.5603022597819560e-02 1.7966417832477322e-03  -1.2915665095757034e-02 -4.9840780491398493e-02 9.8397587252041958e-03  -1.3653968766513314e-02 -4.9418938501423149e-02 5.0313275313846328e-03  -1.4036025298291064e-02 -5.2271004728947114e-02 8.3745093763453664e-04  -1.4739767852057472e-02 -4.5837081074925630e-02 8.9022945710750881e-03  -1.5241211560383421e-02 -4.5913159475394878e-02 4.2880928983861262e-03  -1.5836047845626304e-02 -4.8960985923113945e-02 5.6537558840957435e-05  -1.6518801935436166e-02 -4.1941424419836025e-02 8.0715591524235623e-03  -1.6837886081363246e-02 -4.2364555406598697e-02 3.6279658831781486e-03  -1.7662553654013691e-02 -4.5593728988656622e-02 -6.0578503453128068e