<?xml version="1.0"?>
<VTKFile type="UnstructuredGrid"  version="0.1"  >
<UnstructuredGrid>
<Piece  NumberOfPoints="714" NumberOfCells="2942">
<Points>
<DataArray  type="Float64"  NumberOfComponents="3"  format="ascii">4.831136494763791 1.891321263282532 4.02409832430761  4.956296533320759 1.807208560709913 3.93321244455076  4.976695644055694 1.905080337784034 4.030774555801235  4.979962450638258 1.856854442211778 4.090669182711963  4.960587427937094 1.752508535189705 3.983168645038238  4.832259636170821 1.8444177038843 4.084574171904148  4.983163962773374 1.80873616175799 4.150542499110324  4.964832578722372 1.697901701296356 4.033137763494349  4.833302281387864 1.797630892979079 4.145034796380754  4.98635141877436 1.760681548904528 4.21037274508027  4.969067115333534 1.643356217317888 4.083080711799456  4.834325764283654 1.750920072983061 4.205447846991601  4.989555464478743 1.712642314159139 4.270131005011024  4.973314800884469 1.5888353359326 4.132962855279136  4.83537278644879 1.704229596021124 4.265783110915522  4.977597406385909 1.53430591542656 4.182760541123017  4.83648009968689 1.65751132822525 4.326022499706714  4.992807822224806 1.664597379849434 4.329782901788564  4.981920087553079 1.479738342949227 4.232444850838651  4.837676109968289 1.610745243775453 4.386155058150572  4.996126535036341 1.616515242538312 4.389335454811041  4.472031415522371 2.229592389262311 4.134139705490029  4.592552872261765 2.251467948422923 4.154452293763769  4.504323413519156 2.378999728811303 4.151805587796273  4.491561165859061 2.37575090259823 4.230086851888209  4.58136396198117 2.240630588324844 4.232532540055006  4.462907111324701 2.217885092834946 4.21098279056141  4.570129331737527 2.229840555235601 4.31036955826705  4.453736647667039 2.206221300975463 4.287611796642048  4.478783799817905 2.372535215581117 4.308088496042574  4.558887475237678 2.219069852172146 4.38800230225309  4.444572395463724 2.194581830198422 4.364030593284595  4.466028870157741 2.369298603756227 4.3858542433484  4.54767823422125 2.208280837007998 4.465470154087084  4.435431295905595 2.182912919790498 4.440275718167854  4.453319457374683 2.365991284512325 4.4634349321528  4.536528681335791 2.197466049361784 4.542814069267644  4.426347610043571 2.171210911193314 4.516379702227801  4.44066919017611 2.362623760666266 4.54086306796066  4.417421789161565 2.159423183049503 4.59236201960205  4.525554406328889 2.186574289428071 4.620017217956002  4.42816539862448 2.359201595991546 4.618188234963354  4.647122213012714 1.781784227920057 3.931000684098614  4.792717524673092 1.791577731519552 3.93428819870781  4.673589667587787 1.887419889754674 4.022633587923739  4.6725313241435 1.843400391190737 4.084752976614333  4.796312067345836 1.73804634311288 3.985374495963003  4.649840968344114 1.729424126331409 3.982373598755002  4.652504240867977 1.677191265277316 4.033776368063616  4.799858647011806 1.684635462198693 4.036465459858852  4.671373045305248 1.799548597349555 4.146839994495474  4.655170173494651 1.625038264130869 4.085157039583494  4.80340263677106 1.631301795012253 4.087521828311845  4.670194758964044 1.755773350593725 4.208877528058636  4.806969333078184 1.577988685196371 4.138516010107108  4.657865185216171 1.572914282246382 4.136465372690602  4.669047159683084 1.712026601290566 4.270825970054948  4.810581506038329 1.524669579275666 4.189407840785521  4.660616230188422 1.52077363601799 4.187669365243877  4.667978733042442 1.668254356489355 4.332660838216143  4.814246683914056 1.471306044320721 4.240178912007699  4.66345378259075 1.468586080316675 4.238740364383411  4.667028483598727 1.624406000534985 4.394362380144915  4.762495177131938 1.540729762953843 3.968427435535079  4.766736518890696 1.48523969693404 4.012602201144335  4.771012055932987 1.429747519031258 4.056688413307742  4.775346896318733 1.374225838424669 4.100657647386655  3.782367906746166 2.231593764874835 4.069131813723079  3.895266940937816 2.151914819545175 4.063756544432291  3.935824938542371 2.304224274723468 4.082743359271871  3.93003373554023 2.300858567932666 4.156539133223884  3.889892028801698 2.138360327547061 4.135277273721413  3.77849965112358 2.22339265774104 4.141377228972964  3.924246078237009 2.297500707438103 4.230040768906014  3.884511844436847 2.124872906167615 4.206544384170043  3.7746506919218 2.215205415255255 4.213364375800927  3.918480174971403 2.294113018763058 4.30327097696728  3.879150098483036 2.11139966493729 4.277579343995393  3.770820013167478 2.207004980784517 4.285105417955224  3.912743729211594 2.290663738620943 4.376288769371676  3.873796415460377 2.097913219833875 4.3484153680642  3.767004218197209 2.198757419271964 4.356636509304375  3.907033444020164 2.287144994041904 4.449132702708466  3.86848748211448 2.08438260288085 4.419064395308509  3.76320162760039 2.190451752747649 4.427965283828066  3.90138617461592 2.283579418477796 4.521810879062366  3.863252262906161 2.070789140792892 4.489516384982144  3.759426705287468 2.18211310739325 4.49908380028339  5.142830502232703 1.800386075735664 4.232707081353668  5.029371421617117 1.898812991486333 4.304736906082391  5.149894789575243 1.927834493896013 4.320272325689315  5.028054679845932 1.938526496151268 4.23690593125313  5.151822014526702 1.886903386969388 4.387908342699697  5.147388032616893 1.753026140811909 4.293650657061693  5.0306961848021 1.859117439798552 4.372495533883344  5.153794486462569 1.845948513384813 4.455462123112544  5.151981020684348 1.705653545319957 4.354504580537774  5.032070247494065 1.81939754282127 4.440168612464546  5.155848862154298 1.80494842938429 4.522924488049789  5.156615279373993 1.658242498739165 4.415255027960596  5.033524372338732 1.779626937528012 4.507739335412085  4.865826086270494 1.994895096159162 4.09217053567317  4.864824232172394 1.95693092591496 4.160769184703412  4.863743159983382 1.919084845284983 4.229297339205186  4.862617518855656 1.881312008177365 4.297758173505613  4.861506526983998 1.843556850268574 4.366137755284971  4.860458287124135 1.805772034883316 4.434421269093234  4.859516856572914 1.767920356237057 4.50260526615756  4.169128217149863 1.956880205237853 4.034911409443569  4.292497885272632 1.855832082239117 3.990956394775582  4.32428316291172 1.979767647556557 4.050765001404393  4.319978714315283 1.950238787986494 4.119385689273576  4.289723481527664 1.81733598891255 4.053100108483117  4.163958208783303 1.92820433470798 4.102476373492004  4.315628192161049 1.920875026943601 4.187861133443931  4.286852813307664 1.779034731829799 4.115194962862861  4.158735792377455 1.899689291168338 4.169916133312621  4.311235909690396 1.891624667141423 4.256205522743755  4.28396009789227 1.740840837779906 4.177206741467865  4.153468747770435 1.871275974067538 4.237216922476862  4.306859071179928 1.862402124299328 4.324430009886039  4.281114713084708 1.702686427576519 4.239111373666599  4.148233988460317 1.842894540002609 4.304385077767604  4.302561437845132 1.833136157649527 4.392532623019085  4.278357750556799 1.664498973791511 4.300877929671785  4.143078093787317 1.814470430737816 4.371408984506218  4.298389182128847 1.803760717607085 4.460505273628242  4.275717621452121 1.626222693373377 4.362486668167928  4.138036840360273 1.785937383415376 4.438286048476353  4.397356881676428 1.801516952611679 3.949624255304113  4.430934773829666 1.899191844410384 4.018343418018009  4.428690916434893 1.861658781088948 4.082767934201378  4.396512645279448 1.756488258613667 4.0064644710918  4.426370044599891 1.824313109291655 4.147122748928011  4.39558381322499 1.71163284736498 4.063313509423554  4.424014213728645 1.787082220758855 4.211399225900771  4.394646741181841 1.666883455351402 4.120120667014443  4.421692437064679 1.749880160481255 4.27557861248699  4.393749397697628 1.622149379953903 4.176866650400028  4.419448843369227 1.712640459158375 4.339638812939354  4.392932077915654 1.577386767631039 4.233497465950893  4.417318541316046 1.67530552608107 4.403551356497442  4.392224729672257 1.532538128262264 4.289992740820433  4.382605657130289 2.362759794003106 4.133792740104284  4.37357069739112 2.36135375264481 4.211433281866  4.364496366019576 2.359955286585901 4.288753589774581  4.35542853868627 2.35851842253751 4.365846214288291  4.346403275573701 2.357007118190956 4.442744230583753  4.337440272323731 2.355438078992889 4.5194839337298  4.328601319479356 2.35381246966387 4.596054242788345  3.466913274047521 2.061035152512007 4.025050231178771  3.587955837397986 2.072527452801268 4.026581488731416  3.51313558347118 2.202866416964794 4.064625577419087  3.587073771529476 2.052777495327924 4.094619707856144  3.468578759273993 2.039060706586336 4.092094295270199  3.51454406219793 2.191486913777478 4.135530664212311  3.51601906423479 2.180118652622471 4.206221181108596  3.586241163345423 2.033157897718356 4.16237887652808  3.470332445640449 2.017209726346341 4.158908814548567  3.51752912261677 2.168734427987383 4.276676811585731  3.585438939651192 2.013584629589831 4.229944455348756  3.472128407179421 1.995411378970552 4.225514048453488  3.519035061683078 2.157308555410741 4.346937436287018  3.584636101098035 1.994011141054556 4.297330200010099  3.473919797801828 1.973611059853551 4.291942720758582  3.52049687952987 2.145827959587839 4.41701709376548  3.583827631502911 1.974416817011103 4.364528955836125  3.475684823914647 1.951783207489213 4.358212536421505  3.52186446342163 2.134331217301211 4.486943773130088  3.582992116995074 1.954799566132699 4.43150313608522  3.477340639369605 1.929938848211603 4.424296923102158  4.478985841995695 2.017021697214155 4.083537523858443  4.372988181205458 2.110334643961235 4.102702980869269  4.367349597124502 2.091269731271182 4.176780428113612  4.473200431404043 1.987759881048066 4.154238210693781  4.467370009368413 1.958646528142249 4.224792390534084  4.36167475235757 2.07234500862534 4.250616215732745  4.461497130601176 1.929615028881226 4.29522296410141  4.356009582962526 2.053467077062964 4.32426811953897  4.455631039651545 1.9006017
[...]
<PointData  Vectors="f_24"> 
<DataArray  type="Float64"  Name="f_24"  NumberOfComponents="3" format="ascii">2.1975303011926212e-02 -3.9604890662865350e-02 -1.3112328152899269e-02  2.0527923964912306e-02 -5.8485059471957167e-02 7.0884066212300787e-04  2.0626037390496000e-02 -4.3569351479308301e-02 -1.1182940229086179e-02  1.9451041529958225e-02 -4.1442523132003993e-02 -9.4371590180326505e-03  1.8969451584180556e-02 -5.5360032360786959e-02 3.1935240776831898e-03  2.0787383494610078e-02 -3.7348455121066063e-02 -1.1413593645932668e-02  1.8167976293944104e-02 -3.9811210904370703e-02 -7.7470814518486178e-03  1.7525726177218346e-02 -5.3823478839201362e-02 4.8491035231241469e-03  1.9539971982313629e-02 -3.5757023284549876e-02 -9.8187277051570675e-03  1.6515544289878632e-02 -3.6838593746626853e-02 -5.2276553674005626e-03  1.5752698953475690e-02 -5.1228814795216966e-02 7.4524296147911642e-03  1.7917726512573270e-02 -3.2838940607127519e-02 -7.3892608872547253e-03  1.4641096351661314e-02 -3.2681502895002539e-02 -1.6622008949769541e-03  1.3657790760430841e-02 -4.6869580782283489e-02 1.1695537307082532e-02  1.6062739324652926e-02 -2.8795044673845936e-02 -3.9770323662588758e-03  1.1390946956624057e-02 -4.1873585910700735e-02 1.7062500453852304e-02  1.4045196836459694e-02 -2.4535789142943423e-02 2.1480784092029308e-04  1.2644859245017018e-02 -2.8330138274966124e-02 2.6844701818236933e-03  8.9298780082269682e-03 -3.6814652443860209e-02 2.3154229780738843e-02  1.1786506212375271e-02 -2.0273262322554077e-02 5.0116109356417747e-03  1.0486990457562148e-02 -2.3915515086505860e-02 7.6151944959748563e-03  3.3016287211036846e-02 -1.1306163936989092e-02 -3.2203162831966739e-02  3.1314188400870663e-02 -1.3532171649132814e-02 -3.1356483279157299e-02  3.4770703303307338e-02 -7.6106652570585489e-03 -3.0382366430958142e-02  3.4703435132706108e-02 -8.5875983986677187e-03 -3.0950756279082624e-02  3.1061729659358883e-02 -1.3322748275071603e-02 -3.1772057670670199e-02  3.2538830274663907e-02 -1.1066247071835783e-02 -3.2524402511631023e-02  3.0705438452670361e-02 -1.3240459924981202e-02 -3.1729448717586012e-02  3.2083301519407255e-02 -1.1037344852108538e-02 -3.2499048620778202e-02  3.4472592246639941e-02 -9.5017367307823723e-03 -3.1058670177058701e-02  3.0162516570552550e-02 -1.2953601405604739e-02 -3.1307739366056783e-02  3.1482412287047470e-02 -1.0742460805098593e-02 -3.2101924947187728e-02  3.4118105961476644e-02 -1.0463370686626453e-02 -3.0778678985838592e-02  2.9419393911953341e-02 -1.2620984008222598e-02 -3.0463338651725187e-02  3.0698085856264209e-02 -1.0344593987716009e-02 -3.1279803316421821e-02  3.3584463240244278e-02 -1.1498970097269474e-02 -3.0071124269885636e-02  2.8406342240550882e-02 -1.2396251698585431e-02 -2.8966522918705953e-02  2.9646330580196330e-02 -1.0014563202710271e-02 -2.9805194781560403e-02  3.2772867397075515e-02 -1.2642768551089711e-02 -2.8699660909447484e-02  2.8281322504929141e-02 -9.7776321982199176e-03 -2.7817696203267395e-02  2.7082901148944689e-02 -1.2277663412555300e-02 -2.7082640040618750e-02  3.1587275390286003e-02 -1.3942375384476324e-02 -2.6865374471544062e-02  2.3254806616750053e-02 -4.7095528264152878e-02 -4.8747256654327374e-03  2.1699229030358622e-02 -5.2199932264742524e-02 -2.2522919280168162e-03  2.4151743921423784e-02 -3.4170352551528317e-02 -1.5998012791215627e-02  2.2809225403576491e-02 -3.2090833787940025e-02 -1.4549531793056394e-02  2.0128022948192895e-02 -4.9583543135534078e-02 1.6557995894057612e-04  2.1635602220620508e-02 -4.4586770691203780e-02 -2.4923156259535691e-03  2.0161803649521075e-02 -4.3278923626130200e-02 -6.6445140008215505e-04  1.8686301418415020e-02 -4.8113410840715867e-02 1.9737690771043882e-03  2.1544020921621505e-02 -3.0448326407140458e-02 -1.3068750324046674e-02  1.8333514400094838e-02 -4.0779942786361670e-02 2.0223854603455718e-03  1.6856848222475091e-02 -4.5493361002510453e-02 4.6790386756325247e-03  1.9986744833795068e-02 -2.7570534653024600e-02 -1.0820898202094848e-02  1.4749115062095934e-02 -4.1153592363434771e-02 8.9167832663325647e-03  1.6265642389640615e-02 -3.6627174378704642e-02 6.1217294128354744e-03  1.8212125768519782e-02 -2.3685266072509835e-02 -7.7219235301495374e-03  1.2456008617125850e-02 -3.6322766644198368e-02 1.4172916017685441e-02  1.3992996773083060e-02 -3.1975840789258067e-02 1.1222113081977941e-02  1.6218072407085015e-02 -1.9612327159346198e-02 -3.8506207350194155e-03  9.9252591968699514e-03 -3.1414795301544562e-02 2.0117442911471984e-02  1.1485980505270523e-02 -2.7251716419922595e-02 1.7012901560972172e-02  1.3983282931994407e-02 -1.5533607925316602e-02 5.6734162921174257e-04  1.6872634088700020e-02 -5.9926708949840139e-02 1.5185751175750396e-02  1.4655576687735504e-02 -5.5769247741388701e-02 1.9524938341321529e-02  1.2217263937352851e-02 -5.0632002676675038e-02 2.5278451603957381e-02  9.5513339631810336e-03 -4.5355356979905746e-02 3.1725801812470457e-02  4.4746553944024658e-02 3.9119436639465134e-03 -3.5733500724726877e-02  4.2097340417451973e-02 -7.9122222387086201e-04 -3.4615335685434338e-02  4.3324188223567400e-02 3.1469358028141342e-03 -3.4749071426489170e-02  4.2800107449640495e-02 2.3619718893527603e-03 -3.5363681740531901e-02  4.1229322217366929e-02 -5.7841630932876833e-04 -3.4920220047535956e-02  4.4264064452388140e-02 3.5744221586568770e-03 -3.6024375705223939e-02  4.2336871276085951e-02 1.6139398246453720e-03 -3.5461692534402470e-02  4.0456643787926981e-02 -5.4438106473540164e-04 -3.4875882252909322e-02  4.3694855410229820e-02 3.1505825881150309e-03 -3.5961518918213239e-02  4.2003964216074545e-02 7.9381815984227490e-04 -3.5195693062456061e-02  3.9855705138789693e-02 -1.5159874758328973e-04 -3.4473628669914304e-02  4.3289973107465018e-02 2.8522294381137297e-03 -3.5608143351563662e-02  4.1660858577986876e-02 -6.6437265824154709e-05 -3.4484728024452932e-02  3.9266565079419703e-02 4.8295606071574134e-04 -3.3631246703820804e-02  4.2957597706495314e-02 2.6415654927972351e-03 -3.4839488653810070e-02  4.1142511796229846e-02 -9.6982291472660009e-04 -3.3018634473067736e-02  3.8548975269597004e-02 1.1412530186303519e-03 -3.2049058529236771e-02  4.2573252939198003e-02 2.4246461183481741e-03 -3.3305222039996529e-02  4.0374304313047220e-02 -1.8501909386309328e-03 -3.0862162153429518e-02  3.7677622041791495e-02 1.8453106963874995e-03 -2.9831502384229720e-02  4.2110968010033958e-02 2.2646848221966041e-03 -3.1154050001613923e-02  1.5666201478942481e-02 -3.8746644487483106e-02 -5.7148330918163556e-03  1.8114818817005596e-02 -2.9182976494667768e-02 -1.5670573246520533e-02  1.7314105286038217e-02 -3.0822319988269960e-02 -1.5874401456067912e-02  1.9527667347261395e-02 -3.1967311539537469e-02 -1.7361940563822141e-02  1.5828418015326605e-02 -2.7424564104268700e-02 -1.3346461500323311e-02  1.3871360852496515e-02 -3.4607878198481962e-02 -2.3274982410152467e-03  1.6594462646948277e-02 -2.5729081646141749e-02 -1.3206509539427754e-02  1.4302722658581447e-02 -2.3990407750576002e-02 -1.0106489015601664e-02  1.2020575437948837e-02 -3.0251854695130042e-02 1.8605230705341196e-03  1.4976079403072197e-02 -2.2236279014777666e-02 -1.0028593176660865e-02  1.2683487420441715e-02 -2.0637328393365857e-02 -6.2737650156296900e-03  1.0057852402064851e-02 -2.5858993424172361e-02 6.6492575706981792e-03  1.3218766771377097e-02 -1.8832155993519211e-02 -6.2286486581021533e-03  2.2932530593590652e-02 -3.1831753224064743e-02 -2.0689177802109764e-02  2.2085609343900390e-02 -2.9833627787838279e-02 -1.9919356859038524e-02  2.1034023608687755e-02 -2.8178256604725803e-02 -1.8899086819565182e-02  1.9683426603718131e-02 -2.5447628023648770e-02 -1.7179080999629542e-02  1.8160325300165637e-02 -2.2082061102360797e-02 -1.4762936418861604e-02  1.6465394163760371e-02 -1.8690661575418700e-02 -1.1661734298490371e-02  1.4593517553061462e-02 -1.5368742824861240e-02 -8.0233622898527798e-03  3.3844665898775078e-02 -1.4590360686386503e-02 -2.7916696344164636e-02  3.0136335045877382e-02 -2.4656382069834937e-02 -1.9649341631077809e-02  3.1721501765977191e-02 -1.8026944453343123e-02 -2.6604815099181098e-02  3.0359561151109875e-02 -1.6120629877863026e-02 -2.6400580717473206e-02  2.8619357176704212e-02 -2.2823648404327580e-02 -1.8323300321746172e-02  3.2796267246488438e-02 -1.3073758267525276e-02 -2.7268321971631638e-02  2.9318374599345005e-02 -1.4859571589811901e-02 -2.5894123292743241e-02  2.7261794790921067e-02 -2.1422290478876858e-02 -1.7049051541975439e-02  3.1706710075905802e-02 -1.1971873242139337e-02 -2.6469802566502269e-02  2.8145186400673504e-02 -1.2766290901724084e-02 -2.4758044159288350e-02  2.5739010917467199e-02 -1.8806908286337340e-02 -1.5160943819304827e-02  3.0540127704735444e-02 -9.9377163681030629e-03 -2.5182011727096720e-02  2.6836624277979768e-02 -1.0103853503687379e-02 -2.3016028387404790e-02  2.4111394361529950e-02 -1.5239521979169146e-02 -1.2523827896770213e-02  2.9293616574232812e-02 -7.2917916456870287e-03 -2.3348616714475145e-02  2.5334707890716224e-02 -7.3973159603123633e-03 -2.0586207278936067e-02  2.2365807325859747e-02 -1.1469515926150553e-02 -9.1317356355186657e-03  2.7892923678010533e-02 -4.5585437710827167e-03 -2.0836222780698327e-02  2.3635433826105560e-02 -4.7223431229117558e-03 -1.7548917464142524e-02  2.0428078311887463e-02 -7.6319019068146598e-03 -5.1728806769280131e-03  2.6326286488934703e-02 -1.8009435132399128e-03 -1.7786270262599373e-02  2.7466512945121938e-02 -3.4882991921452888e-02 -1.2061209588520638e-02  2.8093452108775157e-02 -2.6205221716234912e-02 -2.0544272122241587e-02  2.6919733403591863e-02 -2.3912323115715218e-02 -1.9516770168007624e-02  2.5832968214320254e-02 -3.2166302739696846e-02 -1.0410124020605120e-02  2.5685930712278152e-02 -2.2364616855370792e-02 -1.8500411431114954e-02  2.4351272555942577e-02 -3.0628099106575869e-02 -9.1180779894996823e-03  2.4256868088101919e-02 -1.9737831541230405e-02 -1.6840625670647553e-02  2.2651856258718260e-02 -2.7972291582827526e-02 -7.0176126903171493e-03  2.2671683091463543e-02 -1.6259210726160506e-02 -1.4425685694867173e-02  2.0810013635936396e-02 -2.4041572580670103e-02 -3.8345998673517813e-03  2.0895508342615700e-02 -1.2655135502304274e-02 -1.1275817133094428e-02  1.8811172071214941e-02 -1.9724120524680970e-02 2.3364468653678941e-04  1.8899137235807460e-02 -9.0539357456202313e-03 -7.4879963697508795e-03  1.6609420067801823e-02 -1.5375434327552999e-02 4.9570627439088208e-03  3.6900591817742703e-02 -5.0371869944632330e-03 -3.1389919797794388e-02  3.6417558759262447e-02 -6.0143747506399715e-03 -3.1966635381970802e-02  3.6058307392650389e-02 -7.0274290356008226e-03 -3.2036611532591207e-02  3.5634863632877822e-02 -8.0948532149399607e-03 -3.1728323477832505e-02  3.5082408656269666e-02 -9.2292170028958082e-03 -3.0993753570756965e-02  3.4267256267192077e-02 -1.0449480245650004e-02 -2.9588232680303111e-02  3.3168702448779903e-02 -1.1762731354012070e-02 -2.7586499324771540e-02  4.7960195510011579e-02 3.0348664015472475e-03 -3.0279149676687499e-02  4.6513065211255991e-02 1.0799046443708915e-03 -3.0915304715241457e-02  4.9206766378953139e-02 8.0292502476095665e-03 -3.5909487866250561e-02  4.5549690783193902e-02 2.0308384770349065e-03 -3.1557822573854616e-02  4.7164138559779939e-02 3.8143451575861219e-03 -3.0684050977299121e-02  4.8580428841325893e-02 7.6388848739835490e-03 -3.5707627851074515e-02  4.7797961026946202e-02 7.1772716645990753e-03 -3.5226885394097081e-02  4.4406981526019053e-02 2.3471393651174947e-03 -3.1772431985721786e-02  4.6082517950994641e-02 4.0176997932920549e-03 -3.0786589596833107e-02  4.7327700110089334e-02 6.9200575716878666e-03 -3.4610031845731110e-02  4.3588977241355985e-02 3.1300044811788576e-03 -3.1481296415055995e-02  4.5231317787281927e-02 4.7554856695138596e-03 -3.0394329961453029e-02  4.7090822715603713e-02 6.7895090615697510e-03 -3.3667515459356444e-02  4.2996122156090021e-02 4.3272781236989317e-03 -3.0679597790238131e-02  4.4634060158946033e-02 5.9401814352015711e-03 -2.9496846606347139e-02  4.7047918924156794e-02 6.6564213925600739e-03 -3.2081934035084123e-02  4.2545307155373066e-02 5.5904546830218092e-03 -2.9127002318953137e-02  4.4266426924319466e-02 7.2019682705193782e-03 -2.7895333098289191e-02  4.7241264901235716e-02 6.5563356899255038e-03 -2.9966715663548128e-02  4.2189600704800802e-02 6.8765128628399926e-03 -2.6794641997747146e-02  4.4144629772077199e-02 8.5048567699924863e-03 -2.5630423385191340e-02  2.9514370777300836e-02 -1.9173839883201028e-02 -2.8334106660139056e-02  3.2820579764853544e-02 -1.2792970802003218e-02 -3.1899606248046157e-02  3.1973456165518430e-02 -1.1897364841649981e-02 -3.1868736222882617e-02  2.8457306672499957e-02 -1.7787357882196573e-02 -2.7475162535133695e-02  2.7473608148626268e-02 -1.6576434955138691e-02 -2.6531012520384017e-02  3.1193680619156023e-02 -1.1253185789970109e-02 -3.1511750165510659e-02  2.6333279177325520e-02 -1.4521123782887415e-02 -2.5210174445283399e-02  3.0328086256234888e-02 -1.0089643607050261e-02 -3.0759003256099884e-02  2.5018568041476626e-02 -1.1989404638442135e-02 -2.3384638527508658e-02  2.9302871178485294e-02 -8.6626945502548333e-03 -2.9558680425505964e-02  2.3442695672960610e-02 -9.4531792733933417e-03 -2.0915466526210270e-02  2.8041058549732142e-02 -7.2478204892649492e-03 -2.7705757543788925e-02  2.1582134736228206e-02 -6.9206460996502229e-03 -1.8028208164311547e-02  2.6593571841293132e-02 -5.8910390905337687e-03 -2.5345302988652667e-02  3.0513573520456909e-02 -1.6083942953027962e-02 -2.9612536237216675e-02  2.9941942906451555e-02 -1.4781923067246128e-02 -3.0210698817864028e-02  2.9387935583732889e-02 -1.3943253882201256e-02 -3.0277330669891595e-02  2.8602248875427432e-02 -1.2615273945586723e-02 -2.9754646331439455e-02  2.7619692201611722e-02 -1.1053077549371560e-02 -2.8695808165436355e-02  2.6382583615298990e-02 -9.5273993227796960e-03 -2.6969939301172509e-02  2.4852051863547529e-02 -8.0804641329993432e-03 -2.4699645004072970e-02  4.5290737227000714e-02 7.6389578402575545e-03 -3.2926684823395544e-02  4.2465773718775905e-02 3.1118439041503115e-03 -3.3115415377295641e-02  4.2115571834986841e-02 1.8549924263116713e-03 -3.3745618557934592e-02  4.5063822784674759e-02 5.8483963912329944e-03 -3.2692448652651113e-02  4.4697359404965956e-02 4.2148021774141261e-03 -3.2162804370378377e-02  4.1744759868679759e-02 6.6465580314884268e-04 -3.3897921987218034e-02  4.4524926095352975e-02 2.1057463126913189e-03 -3.1400457258251219e-02  4.1489828497781718e-02 -7.2310517545650440e-04 -3.3582028805053947e-02  4.4389876681114791e-02 -2.9028484720891210e-04 -3.0234231594308554e-02  4.1167805152480690e-02 -2.2364955358574732e-03 -3.2777262178134293e-02  4.4096683319177259e-02 -2.7662811505307816e-03 -2.8361437112202247e-02  4.0610809305845715e-02 -3.8059767554865795e-03 -3.1221392623361141e-02  4.3588057103394542e-02 -5.2798142860648305e-03 -2.5904849114712480e-02  3.9696826363121794e-02 -5.3871340722081822e-03 -2.9055791920925975e-02  3.2660427746676254e-02 -2.3035322017374127e-02 -1.9240333695763133e-02  3.1056392969506953e-02 -2.0829286174883378e-02 -1.8124513963818339e-02  2.9662879063457236e-02 -1.9496240386224096e-02 -1.7043077875019692e-02  2.8154355150852732e-02 -1.7126976473234322e-02 -1.5278616301587241e-02  2.6585729491718852e-02 -1.3707852205074589e-02 -1.2684704619322775e-02  2.4902991865109258e-02 -9.9952787061640801e-03 -9.3111585443411068e-03  2.3061706200744440e-02 -6.2479104137246498e-03 -5.2937893579767083e-03  3.5689311517174339e-02 -7.7540330835607889e-03 -3.3232497540073416e-02  3.4972553174659859e-02 -7.7867796394953228e-03 -3.3661260515523282e-02  3.4349384008382639e-02 -7.9523784075190736e-03 -3.3598894519921811e-02  3.3751052965994649e-02 -7.9218129537905035e-03 -3.3182070679033580e-02  3.3004802812285218e-02 -7.8108507380322701e-03 -3.2346651995973842e-02  3.2014685661774581e-02 -7.7401737066144817e-03 -3.0833424060689636e-02  3.0792925167080588e-02 -7.7252271445544017e-03 -2.8805807599150475e-02  2.4226824308790643e-02 -2.7873735938579745e-02 -2.5310647284964662e-02  2.1800823407005499e-02 -3.6318217274129504e-02 -1.8831299916442768e-02  2.3112375653829790e-02 -2.9903176775075976e-02 -2.5995908008341381e-02  2.2077802952803226e-02 -2.8457369073970753e-02 -2.5240651022058434e-02  2.0724453480809951e-02 -3.3762526165201950e-02 -1.8213905968935191e-02  2.3333863278924380e-02 -2.6139882929244802e-02 -2.5054093845027933e-02  2.0997908883387748e-02 -2.7064551915437836e-02 -2.4281010616214353e-02  2.2378050978385508e-02 -2.4696874573880111e-02 -2.4420719893901554e-02  1.9825473147622147e-02 -2.4879221978771768e-02 -2.2841752883170505e-02  2.1243967610031663e-02 -2.2504763685340667e-02 -2.3173411974419009e-02  1.8607495315676917e-02 -2.2343965571144691e-02 -2.0883845125908840e-02  1.9991095354538267e-02 -1.9952530589346075e-02 -2.1362116288027120e-02  1.7320139041371231e-02 -1.9856196509009827e-02 -1.8306262483051679e-02  1.8602537540722323e-02 -1.7452309638522550e-02 -1.8917671204059749e-02  1.5938280456991132e-02 -1.7425314695486201e-02 -1.5292460646341344e-02  1.7070736975775463e-02 -1.5051200552413052e-02 -1.6000556127529111e-02  2.5347277565216091e-02 -2.4788187637932484e-02 -2.7958985240857319e-02  2.4768330945394317e-02 -2.3499418193197365e-02 -2.8372199204462635e-02  2.3916052222611818e-02 -2.2514787306716744e-02 -2.8215496507667977e-02  2.3016359980013026e-02 -2.1080347851415535e-02 -2.7430635118765926e-02  2.2057039319532904e-02 -1.9498806413030683e-02 -2.6123053806457845e-02  3.9277579799228600e-02 -7.0699017960734216e-03 -3.0661455965200712e-02  3.5644280998790148e-02 -1.4479395287508287e-02 -2.5767077054673775e-02  3.7039711844380860e-02 -9.7896144116122619e-03 -2.9964153976784945e-02  3.6064096337197614e-02 -8.3595107523483283e-03 -3.0103360424097430e-02  3.4453022302039955e-02 -1.3108118754678690e-02 -2.4734452857035211e-02  3.8357113714394736e-02 -5.8892228821791114e-03 -3.0648773769608853e-02  3.7303895041771756e-02 -5.1838634460402017e-03 -3.0427975881179160e-02  3.3126484665322038e-02 -1.1971260750703497e-02 -2.3704932808713955e-02  3.5155071167321313e-02 -7.4010762561531954e-03 -2.9959311978331231e-02  3.1853273063189559e-02 -9.7950958566951699e-03 -2.2230511174620507e-02  3.6402532335084607e-02 -3.7732467729409270e-03 -2.9757414621110149e-02  3.4257573304231348e-02 -5.8157880486540310e-03 -2.9297905393570366e-02  3.5510488798162737e-02 -1.8540614434690416e-03 -2.8566427000760928e-02  3.0566630482006286e-02 -6.8415941173984047e-03 -2.0144418154880162e-02  3.3312095660525835e-02 -3.7631276733258597e-03 -2.8079948369819294e-02  3.4506444099189806e-02 1.8539206237717869e-04 -2.6653066155108325e-02  2.9176538046000792e-02 -3.7243002713072651e-03 -1.7365614974698639e-02  3.2195257328706033e-02 -1.6242347177291285e-03 -2.6134941948832219e-02  3.3408259832260000e-02 2.2704682287537554e-03 -2.4082038888402761e-02  2.7649052771883603e-02 -4.9170200043284853e-04 -1.4166497130789135e-02  3.0860826779483885e-02 5.3013792404410607e-04 -2.3575721475448806e-02  3.4448062355036634e-02 -1.1654050284520604e-02 -3.1617982895871755e-02  3.3329426922831577e-02 -1.0599923546830883e-02 -3.1299109188356246e-02  3.2395329288111126e-02 -9.8233112893111370e-03 -3.0780926495042299e-02  3.1416290518939648e-02 -8.3607660770770257e-03 -2.9838989246542512e-02  3.0313674885659270e-02 -6.5281470292884031e-03 -2.8417398990256425e-02  2.8997958592496872e-02 -4.6818741290028934e-03 -2.6324850611974631e-02  2.7526669473261305e-02 -2.8450836917582171e-03 -2.3756461940486008e-02  3.9172859659563818e-02 -4.9389001273804885e-03 -3.3081923838698506e-02  3.8410602831053145e-02 -4.4026689152655398e-03 -3.4284609621010570e-02  4.0825488274645390e-02 -8.8138690084560000e-04 -3.5256654241049137e-02  4.0198827998651383e-02 -1.1308251770527585e-03 -3.5472256176574284e-02  3.7760549449889547e-02 -4.2517442477298740e-03 -3.4781833250118209e-02  3.8363955398070887e-02 -4.1812875406718603e-03 -3.3570024547958197e-02  3.9620083548855184e-02 -1.4603267961041729e-03 -3.5445364182475868e-02  3.7130069275057673e-02 -4.2926051860004344e-03 -3.4779821511497444e-02  3.7619411911976021e-02 