<?xml version="1.0"?>
<VTKFile type="UnstructuredGrid"  version="0.1"  >
<UnstructuredGrid>
<Piece  NumberOfPoints="734" NumberOfCells="3079">
<Points>
<DataArray  type="Float64"  NumberOfComponents="3"  format="ascii">6.459577792625137 1.352155949482453 2.900788914255584  6.361210316713238 1.384655763802969 2.984114067413468  6.36697995706405 1.312636968810692 2.860978311603914  6.37679725240938 1.260399001652022 2.889875911290594  6.369920431328125 1.333906897440869 3.014325003085697  6.46944780553941 1.300172910644662 2.93009987976981  6.386741444523509 1.208154381977455 2.918721938214331  6.378715232082034 1.283145568083951 3.044495315603618  6.479425929070207 1.248191724544279 2.959351843095224  6.396741268743714 1.155910002064756 2.94754124245251  6.387554114191564 1.232379141552277 3.074641504694096  6.489454088384795 1.196215481148303 2.988573776607004  6.406746144192767 1.103670520176358 2.976354196504694  6.396402853624259 1.18161199857406 3.104777585410097  6.49949151210294 1.1442476707045 3.017785268414666  6.416706557182025 1.051442889900132 3.005184326198589  6.405227677041173 1.130848152026196 3.134922412052431  6.509497742357547 1.092297866279601 3.047006523669568  6.426556945557763 0.9992371396151714 3.03406409162169  6.413989183034466 1.080096511673598 3.165111378252042  6.519411052905534 1.040381732206743 3.076269296723384  5.956264720926042 1.472949405977624 3.935845236467785  5.88485078876374 1.544481546744635 4.078055817762854  6.036321074466398 1.538701974678178 4.027264416277768  5.949496815846076 1.530397554681618 3.897874038445355  6.028584578108152 1.595761822616687 3.985857443502706  6.044071669248696 1.481615009436955 4.068598104826235  5.963062898158789 1.415474354128609 3.973734765353975  5.891666615830775 1.487240270126887 4.121530930786935  6.321362527528118 1.561302213547224 3.303806253407728  6.449853108288336 1.581762958838957 3.3043838166643  6.374156570794263 1.613929746845121 3.386785482137611  6.382249021711664 1.559622873464085 3.415904999684106  6.458212421751402 1.528332902431789 3.333146680843542  6.329376184613571 1.508316519702199 3.332694504947002  6.390376280517171 1.505313957518104 3.445013926608245  6.466620847828684 1.474902024005605 3.361890688894516  6.337432342311951 1.455327886848613 3.361573978836609  6.398525349334524 1.45100335730397 3.474106786580562  6.475059287850861 1.421470824890193 3.390616314088268  6.345513797003895 1.402336524149643 3.390440045482062  6.406684628145925 1.396687574876348 3.503177077298248  6.48351061091283 1.368037154457677 3.419321992161381  6.353605565565657 1.349339355031755 3.41928752859132  6.414843141653083 1.342359023055849 3.532216070459258  6.491958072732421 1.314594250642228 3.448004489731125  6.361692887051135 1.296328138178847 3.448110033032607  6.422988749955247 1.288003390881992 3.561208984928423  6.500379763706051 1.261128822790245 3.476655166662879  6.369756070508913 1.243285896466731 3.476895877337953  6.701215934827885 1.506326944381693 3.09048242728125  6.621241254051949 1.536320208894643 3.170347868008209  6.602493066954372 1.459003276443078 3.038362961872296  6.611627705544473 1.407338873868859 3.068189647978773  6.630010937794522 1.483636263139645 3.199177300612288  6.7103360118106 1.453827981312601 3.119695430846401  6.620830415758601 1.355668733152867 3.097966725104373  6.638836764279573 1.430948544126064 3.227969002955318  6.719519857008538 1.40132512648945 3.148860505514656  6.630073922015664 1.304001458642186 3.127711317491729  6.647697591127049 1.378263794187946 3.256730979464025  6.728741111833766 1.348825706088097 3.177990183482887  6.639331593589816 1.252341215190803 3.157440173606721  6.656574377646432 1.325584787393846 3.285473827757358  6.363119855548221 1.523276782065372 3.222251293253062  6.371401333564713 1.470979686199462 3.25083116444414  6.379738289079952 1.418681683371962 3.279398280221402  6.388106329506138 1.366381934039319 3.307949950507545  6.396485882059767 1.314078610872663 3.33648594804651  6.404857193591674 1.261765842897956 3.365006201702085  6.413196146139818 1.209426484173562 3.393505280570055  6.17210466851094 1.547849066662069 3.318692275248747  6.259615385426875 1.609545896202661 3.408871475161344  6.267314070868967 1.55526261719289 3.438272505097238  6.179585845018213 1.495003363447398 3.347753525745847  6.187094503209609 1.442153423708277 3.376818863062596  6.275035988976533 1.500975973776648 3.467671958963731  6.194619616629196 1.389297444866679 3.405875833349251  6.282774372849139 1.446684648618763 3.49706010861231  6.202151571968299 1.336431054772579 3.43491515307444  6.290520794324482 1.392384372410205 3.526426317730551  6.209680316527566 1.28354411012943 3.463927129233169  6.298267588742632 1.338066374182174 3.555757724471385  6.217192722951055 1.230617126604444 3.492895114674816  6.30600883511296 1.283716698433052 3.585034303995973  6.755979634133197 1.720516645470522 3.472960851723151  6.665308605699218 1.673728433410707 3.412903214577237  6.774640884423053 1.643437565701409 3.325026362984295  6.674223758415772 1.618392130984562 3.442652575324438  6.764982585255471 1.664476040624427 3.50412782346661  6.783237683439181 1.58851841230229 3.354206937947657  6.683183266128516 1.563057761623374 3.472365512081603  6.774017176661497 1.608432742029222 3.535253743442545  6.791875312796977 1.533598810987243 3.383342243258619  6.692169786331167 1.507724576420681 3.502048076407704  6.783072786523706 1.552390512893722 3.566345828666686  6.800539659777367 1.478684862846354 3.412441623388902  6.701168486022461 1.452392452621891 3.531704680712071  6.792136486827943 1.496350121491264 3.597409654397752  6.809217470306116 1.423777819257498 3.441515301256769  6.710165718262607 1.397059473983185 3.561337052245103  6.215093762790944 1.402160808657236 3.053973640517095  6.317154988904082 1.440214978279999 3.08951931108112  6.243110732546473 1.486390039579789 3.189456126856945  6.251089727427882 1.435019376507324 3.218723060594584  6.325681732139365 1.389599191014129 3.119481717727015  6.223284105728119 1.351813741850272 3.084053940305547  6.259120436368073 1.3836426192128 3.247983972131542  6.334285270006911 1.338972950755333 3.149422167819588  6.231547819250595 1.301457613495483 3.114119459657616  6.267180472432862 1.332259710667477 3.277233395169682  6.342928551442156 1.288341646294224 3.179345011897859  6.239848338099917 1.251091662198113 3.14417133470054  6.275249339743457 1.280869693103648 3.306469317375325  6.351582690872796 1.237706688177539 3.209256058531629  6.248156270859763 1.2007180592945 3.174215200805738  6.283305762747389 1.22946665969968 3.335692029652995  6.360217642257907 1.187066554700812 3.239164919124111  6.256441009192516 1.150335150476222 3.204262854372572  6.291322721346304 1.178036286001069 3.364898072853428  6.368789223425897 1.136412947353095 3.269089966207176  6.264660300181083 1.099933435324963 3.234331084195167  6.246696068696068 1.335532964249343 2.935114877912545  6.255278442365648 1.284880779597994 2.965482880927227  6.263952907414935 1.234211135684648 2.995816848728356  6.272672148367122 1.18353079694459 3.026132884532855  6.281397950157879 1.132844796811144 3.056444515166843  6.290092334395446 1.082157933196691 3.0867714717579  6.298707145272796 1.031480414454328 3.117145590286563  6.44909319504476 1.531410282554043 3.212282909124827  6.457433298362147 1.47889693703663 3.240897090449736  6.465826566608652 1.426382867224774 3.269489819984573  6.474252484433899 1.373869395568374 3.298062525780508  6.482691544069414 1.321355703924101 3.32661829270987  6.491124204308864 1.268838556900267 3.355159600454006  6.499531852209993 1.216306123987526 3.383684972207047  6.048061329061011 1.753526424669786 3.714016225825756  6.105928912024901 1.823114331185758 3.800407844263256  5.997656242676632 1.823932438374408 3.81991614114697  6.112752058556755 1.766377722970102 3.841570603501824  6.055126256088657 1.696645493668303 3.751326408263537  6.005414436611709 1.766878528104446 3.861406524194102  6.013147918614445 1.709839928361012 3.902907213378675  6.119528774654186 1.709646897383211 3.882736365401819  6.062161716734385 1.639773781939122 3.788639940659084  6.020865175797112 1.652804469127748 3.94439807551985  6.126287935566375 1.652913482148348 3.923889788860631  6.069185435336496 1.5829032989408 3.82593942041193  6.133049069580767 1.596170048884591 3.965011954104689  6.076211938026614 1.52602585024463 3.863205326178504  6.139829974601218 1.539409774766126 4.006085243974685  6.083255059377777 1.469135115486201 3.900415735887752  6.146656454041683 1.482634296072807 4.047088853017373  6.090322767573616 1.412229506395721 3.937551040330928  6.228342536235769 2.171244106902373 4.147402785959907  6.301208919250128 2.25779974508619 4.198463223556109  6.191065991678955 2.315850509123879 4.22369735165187  6.188824671976296 2.283837697878706 4.299091102025976  6.303855104162398 2.21680818085367 4.268586464680295  6.232993975330031 2.127940411572662 4.214332842715202  6.23755508138111 2.084669063872317 4.281270590537416  6.306396086366243 2.175861883366913 4.338721603244143  6.186451421354532 2.251875008037295 4.374470439341573  6.308903013866527 2.134919525893834 4.408837426436418  6.242088175371863 2.041405225666955 4.348187779857594  6.184026183836025 2.2199186227757 4.449823722132669  6.246635467948951 1.998126546253588 4.415070008517396  6.502954108293921 1.492498880836823 3.124976425009508  6.511517782677865 1.440788215676878 3.15427074313404  6.520137043691937 1.389073030482936 3.183532207929407  6.528793250811447 1.337356283288224 3.212769300277931  6.537464142034955 1.285640747928209 3.241991171193713  6.64857748400157 1.2006919942942 3.187172109013833  6.665449757064536 1.272911952072019 3.314209032868822  6.546128935295528 1.233925713016898 3.27120887611279  6.657782175906089 1.149059785840874 3.216935875255573  6.674303689852258 1.220242736194854 3.342948901218341  6.554766286483844 1.182208449204568 3.300439571377571  6.114140310191507 1.595222423045626 3.420215762385
[...]
<PointData  Vectors="f_24"> 
<DataArray  type="Float64"  Name="f_24"  NumberOfComponents="3" format="ascii">1.0827765076947040e-02 -1.0837233985535506e-01 3.5113909015070548e-02  1.1384094871658795e-02 -1.1078819087781652e-01 3.6601755748061078e-02  1.0479827098429439e-02 -1.0595789318107295e-01 3.3878984233495585e-02  1.0160696376942771e-02 -1.0658810409030355e-01 3.1715460277759976e-02  1.1128904405163779e-02 -1.1131514475541743e-01 3.5306348166646080e-02  1.0591111123974652e-02 -1.0901050798012757e-01 3.3222976392125618e-02  9.8359612631337828e-03 -1.0663151386344524e-01 3.0606936235815743e-02  1.0833967129241602e-02 -1.1119582105690394e-01 3.4657321024460445e-02  1.0338387543582588e-02 -1.0902304785128261e-01 3.2242153635900772e-02  9.5207774612427916e-03 -1.0638876666827088e-01 2.9933086818665213e-02  1.0530905729608016e-02 -1.1069192698150979e-01 3.4395664302745037e-02  1.0086293065868850e-02 -1.0869316850718118e-01 3.1694482374884494e-02  9.1692344164874852e-03 -1.0633976145869405e-01 2.8625128513118537e-02  1.0177314414368329e-02 -1.1023345549976178e-01 3.3794716205486283e-02  9.8009616878867653e-03 -1.0848909661183176e-01 3.0627024218231984e-02  8.7490005048211899e-03 -1.0634285822354149e-01 2.6421130247317379e-02  9.7557062199491139e-03 -1.0962433310622076e-01 3.2390567526019640e-02  9.4381069108800553e-03 -1.0828195421752261e-01 2.8676578189467436e-02  8.2965824562098878e-03 -1.0635260339175770e-01 2.3715502293728395e-02  9.2830992296526037e-03 -1.0882950037620830e-01 3.0400955453100158e-02  9.0324630290052679e-03 -1.0803030600092406e-01 2.6192542962944619e-02  4.3080812827382079e-03 -5.6140658266922994e-02 2.7796399683493938e-02  3.2957379572440748e-03 -4.2126797647999835e-02 2.0392037990423544e-02  3.9019383728157680e-03 -4.8108105780204823e-02 2.3075326913372284e-02  5.2534028978021901e-03 -5.9958315531012038e-02 2.3618735535205788e-02  4.7452977579344338e-03 -5.1957787708346803e-02 1.8943427037089084e-02  2.9569423646589490e-03 -4.4080737549105908e-02 2.7644765445937414e-02  3.2638554665202846e-03 -5.2088252955360778e-02 3.2404582375229314e-02  2.2149894990984593e-03 -3.8192331134444285e-02 2.4980940281559800e-02  1.1656459012217920e-02 -1.0988427030002880e-01 3.1759397181808695e-02  1.1533777663485496e-02 -1.1013555081625236e-01 3.1441795158860961e-02  1.1181720396759028e-02 -1.0592786128245436e-01 2.8594068968809984e-02  1.0859035865050392e-02 -1.0393389042197582e-01 3.1614738427582813e-02  1.1362781741756331e-02 -1.0872702243363039e-01 3.3797194476199131e-02  1.1324854801575810e-02 -1.0853637863245605e-01 3.4039801734517025e-02  1.0547359167750256e-02 -1.0219835568686780e-01 3.3712616886686621e-02  1.1152420541230997e-02 -1.0729082207356523e-01 3.5481698431974254e-02  1.0973552994233686e-02 -1.0713699961118808e-01 3.5663367975725085e-02  1.0226894013066817e-02 -1.0059111552073667e-01 3.5281284198609771e-02  1.0915961464430444e-02 -1.0587306213951583e-01 3.6715162037850038e-02  1.0614615884983646e-02 -1.0574510627239070e-01 3.6854067675226608e-02  9.8601263746775133e-03 -9.8632250641564737e-02 3.7134063029455523e-02  1.0631646723781026e-02 -1.0418576372776701e-01 3.8090506535518862e-02  1.0194503083401231e-02 -1.0409474671099231e-01 3.8175185481841005e-02  9.4257510079980879e-03 -9.5716812450082983e-02 3.9534175028922765e-02  1.0273350800028481e-02 -1.0165537362912726e-01 3.9739116978429259e-02  9.7251282803814763e-03 -1.0159309795771880e-01 3.9767866677944089e-02  8.9330958321761755e-03 -9.2174238739743203e-02 4.2072474274254423e-02  9.8756734928712852e-03 -9.8452291696581984e-02 4.1397794465571548e-02  9.1686853086224707e-03 -9.8431058755090062e-02 4.1341866163159983e-02  1.1372175738229755e-02 -1.1396944996297570e-01 3.5647498231346005e-02  1.1560980410139206e-02 -1.1366341273606191e-01 3.4667806630156790e-02  1.1423854281714082e-02 -1.1325887932223917e-01 3.6488054805056118e-02  1.1457975475148988e-02 -1.1350000692528721e-01 3.6003721969812406e-02  1.1656473359366979e-02 -1.1315526067068614e-01 3.5712447876048187e-02  1.1522710387684433e-02 -1.1389304921990916e-01 3.5856716285161461e-02  1.1391287182090626e-02 -1.1316647877606122e-01 3.5780009566425665e-02  1.1657423215512591e-02 -1.1226549011656772e-01 3.6508479360644677e-02  1.1581753159349025e-02 -1.1332053795673683e-01 3.6075416944383196e-02  1.1284136885540268e-02 -1.1246601368258910e-01 3.5806515091025372e-02  1.1580269158013174e-02 -1.1117760178246809e-01 3.7157127003190647e-02  1.1565385593415394e-02 -1.1244170389520752e-01 3.6368979095610654e-02  1.1143867015683481e-02 -1.1170682432472569e-01 3.5632826178519733e-02  1.1440688579770389e-02 -1.0994270174223637e-01 3.7758127096785651e-02  1.1855508992552697e-02 -1.1244014340029786e-01 3.4229762044846124e-02  1.1620007124396283e-02 -1.1172226026517723e-01 3.5670688282332906e-02  1.1333046321820936e-02 -1.1069045505745105e-01 3.6738726254169039e-02  1.1005315898737879e-02 -1.0951981386895601e-01 3.7566429774298901e-02  1.0669033905836374e-02 -1.0818240686491801e-01 3.8400045739962030e-02  1.0227506740295492e-02 -1.0614271117337361e-01 3.9136486594863136e-02  9.7243657964770983e-03 -1.0345368213143984e-01 3.9734194173491937e-02  1.1670364755513021e-02 -1.0858359407432241e-01 3.1259069703331942e-02  1.1130661418687291e-02 -1.0427408943707871e-01 2.7813296712621449e-02  1.0654060587494726e-02 -1.0214883066036545e-01 3.0955949637502457e-02  1.1144178664138076e-02 -1.0715407097098305e-01 3.3628203485349027e-02  1.0628351292569733e-02 -1.0571850603595020e-01 3.5304742058983887e-02  1.0212685994985092e-02 -1.0036210669441489e-01 3.3131615197013957e-02  1.0119814931536068e-02 -1.0430628052024413e-01 3.6539551600763678e-02  9.7827954976376520e-03 -9.8716763833730528e-02 3.4771133269929914e-02  9.6080938028336657e-03 -1.0264472004656174e-01 3.7921797084612179e-02  9.3163534200719923e-03 -9.6698544394260899e-02 3.6725677883135521e-02  8.9848347740080405e-03 -1.0010907700053855e-01 3.9597771259064669e-02  8.7600553572347098e-03 -9.3726552891731624e-02 3.9285991122917245e-02  8.2705025400562730e-03 -9.6928247525680203e-02 4.1279632375769870e-02  8.1427321178682947e-03 -9.0137490439768986e-02 4.2014921632159571e-02  9.8949910272149062e-03 -9.8864242060111421e-02 2.3218291250981710e-02  1.0546717375593347e-02 -1.0381076790943104e-01 2.6315392106157361e-02  1.0784445232166382e-02 -1.0832925222882665e-01 2.8995962883225996e-02  1.0615473765397796e-02 -1.0149510839492884e-01 2.9604217755374342e-02  1.0041678735702258e-02 -9.6134485447651755e-02 2.6762312610639390e-02  1.1049898554953653e-02 -1.0656370522736980e-01 3.1723450500281233e-02  1.0610816481162612e-02 -9.9560557719908974e-02 3.1887046156422794e-02  1.0101845796496697e-02 -9.3970964739107182e-02 2.9229419393247892e-02  1.1192651105178128e-02 -1.0491062294105739e-01 3.3639510711708537e-02  1.0558515391897429e-02 -9.7798588516614465e-02 3.3644584361557997e-02  1.0114629123751729e-02 -9.2006072591233556e-02 3.1224110067997784e-02  1.1247916495036937e-02 -1.0334283586769519e-01 3.5061673299664642e-02  1.0472090066028185e-02 -9.5657908670200520e-02 3.5740285525640042e-02  1.0120032747684271e-02 -8.9577008547719147e-02 3.3691457843789588e-02  1.1241612933520955e-02 -1.0147509515756771e-01 3.6707899232621397e-02  1.0354415372607187e-02 -9.2562534725591075e-02 3.8447152006743333e-02  1.1633203401522739e-02 -1.1156431685085320e-01 3.6775841757535642e-02  1.1803265961340584e-02 -1.1278421174273062e-01 3.6696132158275115e-02  1.1929179412640142e-02 -1.1237894196769849e-01 3.5117725323962734e-02  1.1564689886765889e-02 -1.1191084835496680e-01 3.6126788388701432e-02  1.1539810841603125e-02 -1.1289537852947967e-01 3.6572909075714838e-02  1.1271513063009360e-02 -1.1185032223786087e-01 3.6160692189239403e-02  1.1161938029947461e-02 -1.1106590183968797e-01 3.6892165444250016e-02  1.1225344560812067e-02 -1.1245805951709480e-01 3.6579689112517681e-02  1.0870072106636904e-02 -1.1154364951822170e-01 3.5888500782026364e-02  1.0743505052751009e-02 -1.1000943613358807e-01 3.7514822637488433e-02  1.0885429808146916e-02 -1.1166837527605263e-01 3.6759693055116185e-02  1.0455743069662090e-02 -1.1086629090144669e-01 3.5888842427307041e-02  1.0297509105384335e-02 -1.0879154940486525e-01 3.8106636866662456e-02  1.0505637108526788e-02 -1.1080843818721500e-01 3.6776690185016565e-02  1.0039227480576883e-02 -1.1016306171535531e-01 3.5660576207623418e-02  9.7684381092895400e-03 -1.0696459117719812e-01 3.8497743006750351e-02  1.0051520558545102e-02 -1.0956763862537716e-01 3.6238675187372928e-02  9.5098369533579124e-03 -1.0919891707708203e-01 3.4740382595211783e-02  9.1430147905472228e-03 -1.0455077831442458e-01 3.8624219242789568e-02  9.5059122151939582e-03 -1.0791465915097147e-01 3.5237444192765227e-02  8.9202165601675876e-03 -1.0790394753201692e-01 3.3303212876951080e-02  1.0959324368903062e-02 -1.0824146878625826e-01 3.5554528037729946e-02  1.0603697607669630e-02 -1.0886125319682663e-01 3.3812270232146176e-02  1.0231204018201715e-02 -1.0884305588240607e-01 3.2937068119142425e-02  9.8544777955370966e-03 -1.0846276111518768e-01 3.2520945264689384e-02  9.4589468510581486e-03 -1.0819533002119050e-01 3.1639129549999527e-02  8.9901565423924409e-03 -1.0792810807989350e-01 2.9851179676136933e-02  8.4678118961768779e-03 -1.0758275466841478e-01 2.7491711255022463e-02  1.1791700417115379e-02 -1.1286557486974345e-01 3.4312011348003470e-02  1.1658497803786357e-02 -1.1217263665747260e-01 3.5701376014375896e-02  1.1472211247273495e-02 -1.1117030503807100e-01 3.6729335867575597e-02  1.1243511674978963e-02 -1.1002138773012439e-01 3.7515370225935735e-02  1.0943048672811829e-02 -1.0866988147809492e-01 3.8327255927699248e-02  1.0597823920434655e-02 -1.0665372101423670e-01 3.9019464967773726e-02  1.0194816331193521e-02 -1.0398842659497166e-01 3.9553020294707683e-02  8.3853053509978983e-03 -7.6072296218250374e-02 1.3320485352581492e-02  7.3109550091578906e-03 -6.7313722756940267e-02 8.1210441702433932e-03  7.4062127246460469e-03 -6.4313584627083073e-02 6.6582096982380672e-03  6.6424334165196188e-03 -6.3524724905179131e-02 1.1695922893527959e-02  7.6268672529743618e-03 -7.2589934690339905e-02 1.7084260056099580e-02  6.6428400702117233e-03 -6.0573976534976738e-02 1.0245123934627353e-02  6.0949754616628918e-03 -5.7929707414268790e-02 1.2815370268921183e-02  6.1877521212204203e-03 -6.0816402813610164e-02 1.4244891087599288e-02  7.0566068685411643e-03 -7.0088700053227412e-02 1.9705843880654925e-02  5.4799089804802850e-03 -5.5261390997436301e-02 1.5493302312772425e-02  5.6655526897298348e-03 -5.8088739376977366e-02 1.6874790285911458e-02  6.4512407959458349e-03 -6.7610675467046646e-02 2.2249235036841345e-02  5.0239496089946279e-03 -5.4731385612555812e-02 2.0254806468296117e-02  5.7420887844346676e-03 -6.4451072054961339e-02 2.5603460148471816e-02  4.2771368399182642e-03 -5.0794912241026627e-02 2.4365893809523108e-02  4.9173387027383166e-03 -6.0584923186420572e-02 2.9733797236662678e-02  3.4402182074059155e-03 -4.6665811252997527e-02 2.8882906184524437e-02  4.0061772409798026e-03 -5.6473609034448369e-02 3.4260756828808303e-02  3.5232279996173146e-03 -3.0400009756970554e-02 -1.7198806081269332e-02  3.2042440055327745e-03 -2.6222364030091993e-02 -2.1137204713889503e-02  4.0299730518006524e-03 -2.2506134803646258e-02 -2.4060956660773090e-02  4.0713818135628905e-03 -2.0332052337365937e-02 -2.3672034794096092e-02  3.2597539294387037e-03 -2.3608178616193801e-02 -2.0234956052930297e-02  3.5592731509960702e-03 -2.7355693910533829e-02 -1.5891274218982916e-02  3.6010868420838270e-03 -2.4892994492861240e-02 -1.4510793984548874e-02  3.3627440508864140e-03 -2.1428677687990613e-02 -1.9050004679425546e-02  4.2633089885077040e-03 -1.8536626997578968e-02 -2.2930722605237076e-02  3.3616255207764858e-03 -1.9044447971508303e-02 -1.7479788853624931e-02  3.4827724031523191e-03 -2.2168903802543698e-02 -1.2747317901945795e-02  4.3247178095229431e-03 -1.6599734611030231e-02 -2.1834846615710116e-02  3.2519373067522398e-03 -1.9220241344176884e-02 -1.0599740785161762e-02  1.1748101791830964e-02 -1.1378635023843002e-01 3.5997624753800105e-02  1.1698527229340415e-02 -1.1363142554479580e-01 3.6437429711107867e-02  1.1565556011928055e-02 -1.1299569830873085e-01 3.6799577448802613e-02  1.1366806650059166e-02 -1.1207727256962202e-01 3.7177009623801938e-02  1.1146242353029521e-02 -1.1105500157090868e-01 3.7481932955665417e-02  1.0906224243148757e-02 -1.1063520275861546e-01 3.4802483293174036e-02  1.1258157921957458e-02 -1.0806944382211475e-01 3.8159944915632377e-02  1.0839217758673237e-02 -1.0950846715434648e-01 3.7373478079326741e-02  1.0651396675010041e-02 -1.0918450497677992e-01 3.3450986115987950e-02  1.1036030224542345e-02 -1.0559695646845289e-01 3.8300865051642013e-02  1.0485535339170017e-02 -1.0739952010365307e-01 3.6870789343186279e-02  1.1126307222658354e-02 -1.0278896900683047e-01 2.7307585520997719e-02  1.0473929668279012e-02 -1.0061263332318743e-01 3.0487661775999580e-02  9.8856082477099625e-03 -9.8797807742142363e-02 3.2672778617123248e-02  9.3335749889976085e-03 -9.7139109520670675e-02 3.4339797074268368e-02  8.7305763374574720e-03 -9.5114348608649077e-02 3.6337149744763916e-02  8.0363027221943464e-03 -9.2111255635207223e-02 3.8944472364539504e-02  7.2330368609287848e-03 -8.8502841246385591e-02 4.1738813237383918e-02  1.1727038990855448e-02 -1.1302681988203438e-01 3.6788954881598092e-02  1.1560739176158963e-02 -1.1320906259161297e-01 3.6499614995950003e-02  1.1327367672558576e-02 -1.1282756076895592e-01 3.6402249107675790e-02  1.1049765631539362e-02 -1.1209320164432927e-01 3.6504145527068564e-02  1.0747900533496380e-02 -1.1128017908855846e-01 3.6425523551246307e-02  1.0364095886471303e-02 -1.1010460693930263e-01 3.5773813843621757e-02  9.9226953672653748e-03 -1.0854787717329990e-01 3.4594416721029940e-02  1.1824890194507496e-02 -1.1185131081989418e-01 3.5988056021671419e-02  1.1368305971001908e-02 -1.1171506499855259e-01 3.6326563427630132e-02  1.0877441702292328e-02 -1.1109282330694285e-01 3.6632535407242296e-02  1.0393627633761841e-02 -1.1018039751133071e-01 3.6993929130107843e-02  9.8759886279479459e-03 -1.0919534433038684e-01 3.7241033676130374e-02  9.2864979205570103e-03 -1.0769530602744386e-01 3.7098901969543706e-02  8.5981842124125355e-03 -1.0573252650200382e-01 3.6536697191703965e-02  1.1368529104631575e-02 -1.1183548286941597e-01 3.6623933671601556e-02  1.1259778966060912e-02 -1.1230347493173147e-01 3.5520980122439698e-02  1.1080695306809777e-02 -1.1213305132232931e-01 3.4971920720207571e-02  1.0866671126512059e-02 -1.1158291559232646e-01 3.4780831049390087e-02  1.0632530699886605e-02 -1.1104449187855378e-01 3.4275411092062294e-02  1.0319854650822894e-02 -1.1030216897841259e-01 3.2999618331534655e-02  9.9605168468065008e-03 -1.0931888493093248e-01 3.1145696738445604e-02  9.3662501436985873e-03 -8.6590483880376004e-02 1.8331687767261018e-02  9.0332791746757235e-03 -8.6062420341184762e-02 1.8046180599058013e-02  7.9399470830497504e-03 -7.5614262618014516e-02 1.2702009272868528e-02  7.3539779752516549e-03 -7.2031468483692018e-02 1.6434500128334389e-02  8.4857470322843628e-03 -8.2850140280759127e-02 2.1930941135356815e-02  8.6480827118180538e-03 -8.3401577347341160e-02 2.2269112996609899e-02  6.9339640902523420e-03 -6.9474150609607294e-02 1.9047790799538101e-02  8.0815629997415348e-03 -8.0546995102460106e-02 2.4574662253587357e-02  8.1099365243061713e-03 -8.1113529580723820e-02 2.4915129522510324e-02  6.4726614700387364e-03 -6.6938654741685838e-02 2.1615224794167394e-02  7.6605026369140367e-03 -7.8362721174594502e-02 2.6968862144979049e-02  7.5686886696722114e-03 -7.8985964277509160e-02 2.7261341460021765e-02  5.9206968669009803e-03 -6.3725109485859105e-02 2.4990040762814626e-02  7.1687357159335493e-03 -7.5532488047932292e-02 3.0120758973606252e-02  6.9375370592642026e-03 -7.6263656009794720e-02 3.0303062849126955e-02  5.2450571441570795e-03 -5.9815002105386393e-02 2.9115966444926818e-02  6.5717402708592859e-03 -7.1861619337314664e-02 3.4061174854698312e-02  6.2163672217807574e-03 -7.2646501720118759e-02 3.4183801180157729e-02  4.5008076705571132e-03 -5.5654580332875347e-02 3.3633913169832982e-02  5.9143278951990291e-03 -6.7834861915888348e-02 3.8352251283408759e-02  5.4068700313207457e-03 -6.8641929463008608e-02 3.8427096901599359e-02  6.0911796104143280e-03 -6.3120706844881622e-02 2.0165595796521302e-02  5.1516975391930593e-03 -3.8729822396025577e-02 -9.7313098115388384e-03  4.1161164109775215e-03 -3.7994611278431727e-02 -1.0948983021238033e-02  4.3617842826739551e-03 -3.1269153044590943e-02 -1.5731990027757613e-02  4.3569812734216796e-03 -2.8319366396493916e-02 -1.4211292606211514e-02  3.9211725254304748e-03 -3.4520974994224525e-02 -9.0148373686137293e-03  4.8123542473487409e-03 -3.5246047443619706e-02 -7.5897660956351937e-03  4.2242917329017226e-03 -2.5886674183515781e-02 -1.2612334007802727e-02  3.8272785688090697e-03 -3.1825117154231142e-02 -7.2064197521740491e-03  4.5338264607217016e-03 -3.2631588967158412e-02 -5.6780277880654631e-03  3.9462504765883297e-03 -2.3149320814938541e-02 -1.0670726307681622e-02  3.5851780201630636e-03 -2.8882377140490686e-02 -4.9687880874123413e-03  4.0933326473011067e-03 -2.9757285638607498e-02 -3.3652828172126008e-03  3.5564208851549791e-03 -2.0125245622019016e-02 -8.3412525815119449e-03  3.2160651979141453e-03 -2.5588223506567628e-02 -2.2320426145285132e-03  3.5198931428515072e-03 -2.6478908870311870e-02 -5.3767462523405369e-04  3.0774930828736348e-03 -1.7042750962542225e-02 -5.6195110248334476e-03  2.7683638509112089e-03 -2.2173049505381362e-02 9.3297600457873796e-04  2.8783022723562141e-03 -2.3038846232737702e-02 2.7374870008244484e-03  2.4958682677075328e-03 -1.3919506258997620e-02 -2.5466835231594031e-03  2.2177614743800959e-03 -1.8721009373383661e-02 4.5082653025121681e-03  2.1573821335696547e-03 -1.9567140923591828e-02 6.4311754291680170e-03  4.9787484082842127e-03 -4.5551086544205303e-02 -5.1349652448706212e-03  4.6440953217069814e-03 -4.2015537797864842e-02 -2.5227806726462157e-03  4.4281678571631055e-03 -3.9327236233267691e-02 -3.3498838116669997e-04  4.0538291703462763e-03 -3.6370580611361489e-02 2.2327757734528120e-03  3.5509765639651619e-03 -3.2943391511421671e-02 5.3939254131073590e-03  2.9421560289262104e-03 -2.9276456872433763e-02 9.0468580829648725e-03  2.2399629468314031e-03 -2.5531427169332967e-02 1.3124762742420047e-02  4.2608387978071332e-03 -2.5728727658427031e-02 -2.0641355996935524e-02  4.2981554455630523e-03 -2.3209316703221225e-02 -1.9793745138171847e-02  4.3560588970626589e-03 -2.0996723118180891e-02 -1.8762795384380644e-02  4.2354159968220817e-03 -1.8577179703915096e-02 -1.7425198932788592e-02  4.0236018808556453e-03 -1.6010440599246813e-02 -1.5754110238109069e-02  1.1867579212166527e-02 -1.1056679041572193e-01 3.4001528154424393e-02  1.1288881904619354e-02 -1.0986332719213596e-01 3.5348245829092712e-02  1.0698953305272055e-02 -1.0885979457106586e-01 3.6344202307035348e-02  1.0126772694346253e-02 -1.0771484120634119e-01 3.7119318549278454e-02  9.5339926629804221e-03 -1.0640010647991208e-01 3.7896473082918394e-02  8.8667568510201970e-03 -1.0439130983610735e-01 3.8617349777394012e-02  8.0628622853073390e-03 -1.0177587807030408e-01 3.9130939785473946e-02  1.1248002116636586e-02 -1.0964839995057335e-01 3.6323155592373188e-02  1.0816711054270853e-02 -1.1011058639678711e-01 3.5149964602885574e-02  1.0369742966198586e-02 -1.0993591722739209e-01 3.4583754591812003e-02  9.9097093275361588e-03 -1.0938639670546786e-01 3.4393700625546877e-02  9.4396218450840258e-03 -1.0887354898128079e-01 3.3879646922904141e-02  8.9149309838088171e-03 -1.0823249531880311e-01 3.2544358004042220e-02  5.4350985769652440e-03 -2.8491271555604315e-02 -1.3139394861158478e-02  5.0713420391326498e-03 -2.6005731123811226e-02 -1.1643956430079509e-02  4.5832509514936517e-03 -2.3225298206454411e-02 -9.8309021289758759e-03  4.0151433916342473e-03 -2.0146534883017410e-02 -7.6152147455144535e-03  3.3991447897389307e-03 -1.6991097591640320e-02 -4.9916004859976992e-03  2.7170693673107464e-03 -1.37775094269625