<?xml version="1.0"?>
<VTKFile type="UnstructuredGrid"  version="0.1"  >
<UnstructuredGrid>
<Piece  NumberOfPoints="683" NumberOfCells="2837">
<Points>
<DataArray  type="Float64"  NumberOfComponents="3"  format="ascii">2.464427290307366 0.8845452242668055 2.759574170687529  2.496057106027939 0.8262040975745502 2.609958187827789  2.601195931624277 0.863141283852741 2.696746740632916  2.602840506098508 0.8001076333739294 2.724954297400782  2.493622531639394 0.7584985289477879 2.631522307502063  2.464738984654654 0.821783537675475 2.789312995232091  2.604464520434309 0.7370592959129829 2.753151934670678  2.491065887017456 0.6907858146842567 2.653065774828435  2.465020264416419 0.7590122382040148 2.819037219101902  2.606057993320606 0.6740078690058939 2.781360364396897  2.488464877550912 0.6230805735027891 2.674615521817998  2.465280515275175 0.6962453577784562 2.848766937499983  2.607629246218214 0.6109630557330019 2.809597861364439  2.485862443258697 0.5553888751178118 2.696195737618513  2.465522991590057 0.6334908841587803 2.878525040531466  2.609188179432114 0.5479293832075551 2.837881060789793  2.48330037883466 0.4877131253373376 2.717822794836547  2.465749405631831 0.5707565157056538 2.908328937540154  2.610740164400102 0.484913595150725 2.866228618280916  2.480838242611549 0.4200406837713216 2.739492532440343  2.465968205041612 0.5080433739339828 2.938191709144446  2.98331546865848 0.5005840192812452 2.674608906695161  2.86384239111935 0.4379107262353293 2.530808274720405  2.843644791486451 0.508898415517304 2.722435607124674  2.862740431176698 0.5060776496117693 2.513172600847997  2.846782662563964 0.445299087345326 2.747950111248774  2.98731215662053 0.437337820780101 2.699594522703499  2.86500305820783 0.3697418230613608 2.548504498762467  2.345956861158401 0.8495064619315805 2.650415434162905  2.354592763310556 0.8120489881632926 2.50859234572882  2.347599326058753 0.7411137446534746 2.522001958754096  2.341325491245848 0.7815777838749075 2.671215010197756  2.340473763226276 0.6701897359656723 2.535341307579788  2.336579830838619 0.7136444698881814 2.691980823935202  2.33329694089687 0.5992791067605077 2.548672152054594  2.33179736352448 0.6457107111208675 2.712748269549874  2.326127478844668 0.5283829836149809 2.562029448891714  2.327018352647986 0.5777830397781091 2.733544463798951  2.319014282640048 0.4575025271591837 2.575438312799059  2.322276475944568 0.5098669032320857 2.754383763973315  2.311999300089314 0.3866401489002713 2.588920848044914  2.317618911290827 0.4419644686780312 2.775264390596576  2.475642093500838 0.79327994951004 2.462716157210723  2.469694283821314 0.7219570476175342 2.474799843703841  2.463597069311143 0.6506397878137957 2.486845188736283  2.457444350799035 0.5793318800685987 2.498889269321873  2.45129789495412 0.5080351057564612 2.510960981745371  2.44520997303432 0.4367475484559734 2.523080205690379  2.439238782910142 0.365460020389566 2.535257078198982  2.586151116480378 0.7755881126516027 2.410417225261663  2.713987823013236 0.761102864562379 2.360782238382954  2.721075917796233 0.793818833612209 2.499783920739367  2.721266038116585 0.7256191710066779 2.518515516703259  2.71100455864695 0.6894766234030743 2.371454695653461  2.581589180597089 0.7039423404991865 2.421636659783864  2.707870040953207 0.61782906194317 2.382096896330188  2.576867492297058 0.6323030540208193 2.43282607552998  2.721367144965272 0.6574005954952653 2.537254664391979  2.572085316947951 0.5606739196389526 2.444017542431037  2.704673109908128 0.5461811889351305 2.392746466114025  2.721419712691867 0.5891821686320845 2.556009369789983  2.567308453670112 0.4890555276688969 2.455240850815187  2.701475212454823 0.4745390778714179 2.403431483117927  2.721459539671717 0.5209675098933229 2.574797103383625  2.562593485005265 0.4174450433564472 2.466516811363729  2.698328789678302 0.4028986928448552 2.414168291759077  2.721516389183413 0.4527585653878521 2.593629275993102  2.557996025636094 0.3458321372376592 2.477849864279027  2.69527088674225 0.3312532996552502 2.424971303970516  2.72161551543105 0.3845489362911479 2.61250523449219  2.601708850763464 0.8031766961393924 2.536238051544419  2.600762955081325 0.7344492961421432 2.554796543426169  2.599715110931092 0.6657026542168365 2.573357470483705  2.598622215887551 0.596963068687584 2.591930232561167  2.597523410687827 0.5282331619769953 2.61053361567117  2.596454687999091 0.4595111434978708 2.629178641780872  2.595457048481234 0.3907787736076145 2.647854777549441  2.858125694931744 0.7787426506851316 2.442961464369869  2.827681957369455 0.8270366569795302 2.59530616257266  1.516748129128759 1.111531396133201 2.986713686716622  1.65021948423543 1.053056546824254 2.944545165757263  1.662973070130487 1.14757113414584 3.081629205531259  1.65435839789803 1.093132811403241 3.122898075569503  1.638244017304601 0.9928302350018514 2.97968927883675  1.502333633397684 1.05249577850762 3.021445371123732  1.626472076539651 0.9323222279123783 3.014780014175114  1.488191213100017 0.99311148149533 3.056128678614226  1.646035053730907 1.038463161081098 3.164279356485928  1.474109248828635 0.9335150355269326 3.090918735960112  1.614737803818473 0.8716330051680996 3.049934647232845  1.637808040467981 0.9836659571352075 3.205762389705594  1.459965007975611 0.8737922748439684 3.125873615131454  1.602963109503658 0.8108857185462512 3.085196854114925  1.62955611482859 0.9287723024664158 3.247379927721296  1.445677574310834 0.8140168976815445 3.161017463835732  1.591082940571337 0.7501091579477785 3.120615704717455  1.621181193346621 0.873839730335281 3.289128049705395  1.431117702663647 0.7542209556897475 3.196303852823607  1.579007660223102 0.6893345063017109 3.156221858874864  1.61251617211723 0.8188535037580857 3.33095861629159  2.228160935494784 0.8336634680224011 2.549429940426592  2.220170432967476 0.7627504692545652 2.562653676324019  2.212086210740784 0.691848410951762 2.575796191135072  2.203968398127114 0.6209626826129531 2.58892003613418  2.195861307413755 0.550093802812476 2.602069707668027  2.187795933471303 0.479245680295386 2.615278491191842  2.179793184402889 0.4084223864831533 2.628559148682405  1.989898531436347 0.9629293463705946 2.863172223604285  2.113708028983831 0.9722957565479801 2.895759828595725  2.044616237463881 1.0286337363397 2.977033829425402  2.040023623192667 0.9715267398912757 3.015151122115497  2.11015762685698 0.9125137129489724 2.93102767052893  1.983370072286171 0.9002580648755099 2.895441854332022  2.035511103022766 0.9143646447420324 3.05323707250013  2.106660319200143 0.8526732924829596 2.966242962676278  1.976907818376258 0.8375292883267931 2.927639606745605  2.031038122393332 0.8571661930763154 3.09134448058575  2.103179935356745 0.7928054104850975 3.001466987603398  1.970482034327579 0.7747642554756304 2.959840047530236  2.026558243230132 0.7999485905864191 3.129500707122036  2.09968858766839 0.7329288473942939 3.036729164327925  1.964052400826162 0.7119806192360856 2.992082208002242  2.02202654376988 0.7427312201971438 3.167722198524796  2.096154283269605 0.6730648610315076 3.072052481525267  1.95758097975984 0.6491998452206256 3.024387549596131  2.017398564889194 0.6855375483458961 3.206018004234709  2.092532545106862 0.6132373630095577 3.107470137272584  1.951044460175726 0.5864511481807461 3.056771009805773  1.514210999790892 1.037364388431739 2.847380302184158  1.495359642081493 0.9749951952533851 2.876240288398205  1.476622054677772 0.912234696688124 2.904861708889612  1.457864105420991 0.8492818828793789 2.933521012137318  1.439056392366691 0.786222839751338 2.962310075926135  1.420144493966311 0.7231356115891758 2.991299241804172  1.401084967718234 0.6601071548548272 3.020563703102035  2.113265982133922 0.9209246007094946 2.805000904147926  2.107816483865955 0.8821664887827727 2.689857655885675  2.206682566986163 0.8937034900231283 2.762962798941119  2.20220198097418 0.8282944686863455 2.789995067283022  2.099186009797905 0.8138732286357877 2.710270962516935  2.107278464880198 0.8567487195493038 2.834443834830314  2.197667793040927 0.7628629855784146 2.81696744184028  2.090456460617871 0.7455689710986828 2.730602601777566  2.101254184254854 0.7925505463285802 2.863812722223502  2.193116920809426 0.6974284767612493 2.843938599047873  2.081708372776021 0.6772560361336237 2.750920136105889  2.095226575255123 0.728343817047536 2.893177863353143  2.188565742284717 0.6320005678629534 2.870943243102163  2.072967652059724 0.6089439690436622 2.771265716206159  2.089196241744194 0.6641396581605375 2.922579108767926  2.18402718823038 0.5665934775357135 2.898002043836727  2.064239424211832 0.5406434724475648 2.791667684136271  2.083159822732966 0.5999551023298377 2.952042016463636  2.179514242386523 0.5012222645388953 2.925123066782085  2.055543811804914 0.4723666185382417 2.812137012225506  2.077122899343194 0.5358124469124581 2.981579385930452  1.922943378363104 1.044483419425982 2.985834584302641  1.918241708994722 0.986802942572192 3.024173614447552  1.913733248703409 0.9290328934527093 3.062497635813171  1.909297404786542 0.871196014751631 3.100845563860651  1.904854305155289 0.8133247186242836 3.139248398015388  1.900333322880612 0.7554498554921512 3.177726026662808  1.895648642338428 0.6975981844283655 3.21627607437039  1.755646081663905 0.9587160493141154 2.797408756054502  1.861767098077735 0.9910081814072063 2.889430580841764  1.751697228430315 1.01443882057954 2.900832060568987  1.742071967196925 0.952580781508908 2.934218915314679  1.854673293574002 0.928581353522286 2.922446844265931  1.744859756435065 0.8913641219712023 2.821623424404122  1.732688940853797 0.8904763948034083 2.967542839357904  1.847754731472732 0.866033718929292 2.955391509816  1.734252259105655 0.8238904118756769 2.845722047640455  1.723371574712183 0.8282381169706092 3.000891485979318  1.840899617722327 0.8034052452047229 2.988340843475021  1.723703291858754 0.7563342917838058 2.869802813283379  1.714036472096873 0.7659415825740354 3.034312347573151  1.8340
[...]
<PointData  Vectors="f_24"> 
<DataArray  type="Float64"  Name="f_24"  NumberOfComponents="3" format="ascii">1.9249592341024663e-02 -2.1915457177918249e-02 -1.0079990401697391e-02  2.0177231570271521e-02 -2.2417221110459160e-02 -1.2409021045791665e-02  1.8848018671036172e-02 -2.6164804133211227e-02 -8.0326600742386609e-03  1.6776854753793313e-02 -2.5571892602461725e-02 -8.0799348602463277e-03  1.8361274463036741e-02 -2.1688321347580773e-02 -1.2067823526693699e-02  1.7133288746433859e-02 -2.1237175332713683e-02 -9.9304721516939535e-03  1.5052124578766240e-02 -2.4898388296473409e-02 -7.5694814275115837e-03  1.6750867341732631e-02 -2.1039831671293790e-02 -1.1343299311645370e-02  1.5371849420101832e-02 -2.0560361556718778e-02 -9.3471001848272461e-03  1.3284912884278475e-02 -2.4402939541068033e-02 -7.2224493096489399e-03  1.5054779871212494e-02 -2.0555472022257368e-02 -1.0816444539619626e-02  1.3535759441888588e-02 -2.0054826784580874e-02 -8.9684414249721553e-03  1.1339998603205829e-02 -2.4172958513740392e-02 -7.2762091967099570e-03  1.3223273927618429e-02 -2.0275197360579526e-02 -1.0578905060625870e-02  1.1486430956667510e-02 -1.9808843649326974e-02 -8.9706958334156133e-03  9.2392331248358876e-03 -2.4119988310173531e-02 -7.5708572225669478e-03  1.1269566574077241e-02 -2.0152315767856054e-02 -1.0501175186587450e-02  9.2596835604012995e-03 -1.9719240288617795e-02 -9.1709638471742846e-03  7.0067374493820115e-03 -2.4223802711940561e-02 -7.9847799961132483e-03  9.2023487596596294e-03 -2.0168513749153391e-02 -1.0492179633190416e-02  6.8855548260731312e-03 -1.9788756361703654e-02 -9.4793719944788468e-03  9.4688324768159443e-03 -3.3485764540525674e-02 -4.7639009117412924e-03  1.1710382505807906e-02 -2.9278893412367151e-02 -7.2101283512246411e-03  9.3995616438663498e-03 -3.0306452318949399e-02 -5.7313092880864414e-03  1.3192570675699747e-02 -2.9217176853848920e-02 -7.1265231156102827e-03  7.4889847097923869e-03 -3.0532243119699952e-02 -6.3470666025084608e-03  7.7442400424708744e-03 -3.3817442250831539e-02 -5.5225041319408542e-03  1.0194579313447283e-02 -2.9504007090130107e-02 -7.4043586064121512e-03  2.1298603864899106e-02 -1.8343932107842648e-02 -1.4969844994429118e-02  2.2851557439850026e-02 -1.9290253846731987e-02 -1.7307910107441458e-02  2.1252559704006725e-02 -1.8429930011051684e-02 -1.6550780612271370e-02  1.9404808750870955e-02 -1.7460856446578441e-02 -1.4583201379709835e-02  1.9784619183570409e-02 -1.7759947256160868e-02 -1.5529908282030219e-02  1.7794312416987715e-02 -1.6702107261723085e-02 -1.3825443077752667e-02  1.8256518568381813e-02 -1.7256992030599563e-02 -1.4634465612257379e-02  1.6093402083054837e-02 -1.6131036503867650e-02 -1.3225708853074062e-02  1.6635324818413819e-02 -1.6926990782287040e-02 -1.3921494546318563e-02  1.4240542968119455e-02 -1.5762389166374572e-02 -1.2866133284800864e-02  1.4918342335842345e-02 -1.6762432215104806e-02 -1.3306009922863894e-02  1.2252270535179143e-02 -1.5560348308306429e-02 -1.2646367277436930e-02  1.3113652360014634e-02 -1.6742710498499909e-02 -1.2725565875809060e-02  1.0138156698494093e-02 -1.5512611440134034e-02 -1.2460086528024099e-02  2.2079990009732601e-02 -2.2316848434145810e-02 -1.5524087017550181e-02  2.0611376045526250e-02 -2.1539193478170883e-02 -1.4845402040615890e-02  1.9214299829454374e-02 -2.0928972896139295e-02 -1.3845141960554258e-02  1.7750412280306594e-02 -2.0474300138764369e-02 -1.2986059524083830e-02  1.6215420371361835e-02 -2.0193634386497596e-02 -1.2324556611253193e-02  1.4602234590638245e-02 -2.0077345732137840e-02 -1.1776279258682005e-02  1.2912349263078859e-02 -2.0105722119603882e-02 -1.1275435421058076e-02  2.1586196674963188e-02 -2.4790867099359380e-02 -1.4212238064064067e-02  2.0924866698256508e-02 -2.7403604678724360e-02 -1.2688451804110906e-02  1.9399182923967102e-02 -2.8125569245404474e-02 -9.8142901609628696e-03  1.7777141509342079e-02 -2.7489613080655666e-02 -9.6192513144566349e-03  1.9631014061066380e-02 -2.6769203535887513e-02 -1.2050909988362116e-02  2.0199682219632205e-02 -2.4130321911125557e-02 -1.3529210702172523e-02  1.8394663482859723e-02 -2.6319346794636021e-02 -1.1068216191041411e-02  1.8876504272614347e-02 -2.3609685991844966e-02 -1.2530238477933019e-02  1.6329210412022007e-02 -2.6898671734638550e-02 -8.9362071547491144e-03  1.7487145550621402e-02 -2.3232312620861392e-02 -1.1666887926176390e-02  1.7110630065289636e-02 -2.6010638250444949e-02 -1.0231896604041450e-02  1.4812946224985907e-02 -2.6488986799411876e-02 -8.4362833029734269e-03  1.6052024742028395e-02 -2.3021404904357202e-02 -1.1019636632710997e-02  1.5797971297121138e-02 -2.5872046337710498e-02 -9.6368151550761273e-03  1.3220566226481255e-02 -2.6295816501934861e-02 -8.2599060842321898e-03  1.4554335358717542e-02 -2.2975307962234751e-02 -1.0493450344970182e-02  1.4443997393220115e-02 -2.5898852647457071e-02 -9.1641583817707144e-03  1.1557679719334139e-02 -2.6281446604908668e-02 -8.2742991351452914e-03  1.3000476780546791e-02 -2.3071500479738577e-02 -1.0028244582797548e-02  1.3052566346628255e-02 -2.6071142809157965e-02 -8.7661286856780384e-03  9.8286501938943116e-03 -2.6422037094571495e-02 -8.3784034599726793e-03  2.0029019383514708e-02 -2.5217468448173089e-02 -1.1517142543376959e-02  1.8319789779530422e-02 -2.4544369131463208e-02 -1.1182695447316182e-02  1.6802199832739208e-02 -2.3941799258356249e-02 -1.0453032407470803e-02  1.5217023268486592e-02 -2.3510755570033345e-02 -9.8939004090157975e-03  1.3528388445443200e-02 -2.3283793132666319e-02 -9.6197240771575421e-03  1.1757162154448334e-02 -2.3229205053321617e-02 -9.5240979200802954e-03  9.8938129593767448e-03 -2.3309072369506592e-02 -9.4928442260549181e-03  1.8790099087320478e-02 -3.0759230374448367e-02 -8.4633723038664097e-03  1.7890755910258641e-02 -3.1708304553718349e-02 -5.6257536439313456e-03  2.9243852100186377e-02 7.4559163699847259e-03 -2.8236097688856973e-02  2.7691769558155038e-02 3.5479997086834965e-03 -2.5607756744589365e-02  2.6779696212172993e-02 4.1767417335507725e-03 -2.2408545828047206e-02  2.4662781129789799e-02 5.1321335385870219e-03 -2.2690083605529165e-02  2.5601998803148531e-02 4.6533820277655027e-03 -2.5537926758562337e-02  2.7421879278618499e-02 8.6784760457434308e-03 -2.8226279098116265e-02  2.3781206448670118e-02 5.6265022166350313e-03 -2.5092259719007082e-02  2.5814040883657730e-02 9.6990050737702747e-03 -2.7849865424330107e-02  2.2913247734999885e-02 6.0677659186768153e-03 -2.2496870672164430e-02  2.4074477588163216e-02 1.0488347212499537e-02 -2.7527777761432962e-02  2.1876609832096792e-02 6.4014451169765165e-03 -2.4702747751450049e-02  2.1091463541285705e-02 6.7955768296893340e-03 -2.2319217173314219e-02  2.2105663087690894e-02 1.1061388525913473e-02 -2.7350865582847567e-02  1.9771023154550416e-02 6.9584603657868484e-03 -2.4473166233171494e-02  1.9022133380322964e-02 7.2774228140467731e-03 -2.2334596507209363e-02  1.9908926413745483e-02 1.1466451382355865e-02 -2.7220594210288062e-02  1.7478125162195907e-02 7.3605319605922126e-03 -2.4277913117151165e-02  1.6733074880534101e-02 7.5994999854463374e-03 -2.2436589420668375e-02  1.7510879354953744e-02 1.1741020183327110e-02 -2.7100160593832984e-02  1.5029593260799591e-02 7.6217598370024618e-03 -2.4125237360137542e-02  1.4278172074036938e-02 7.7746792772164326e-03 -2.2590025935840939e-02  2.3754675627908849e-02 -1.5923966246988407e-02 -1.9463393040701316e-02  2.2116996256005678e-02 -1.5004017388152067e-02 -1.8621543269553599e-02  2.0651239209809651e-02 -1.4321180647314467e-02 -1.7544021068044712e-02  1.9096386667987311e-02 -1.3806957235480985e-02 -1.6588262529867656e-02  1.7429710745203161e-02 -1.3456284745952278e-02 -1.5786467668395220e-02  1.5662485427484055e-02 -1.3270308292789810e-02 -1.5073852971886846e-02  1.3803974998877554e-02 -1.3221201845178087e-02 -1.4383237827014032e-02  2.3400339988238667e-02 -6.7546544464334871e-03 -1.9245207734253478e-02  2.1816518647612138e-02 -1.0755565475827223e-02 -1.5367322949991300e-02  2.2326238622424718e-02 -8.2781372933900099e-03 -1.5248559815217498e-02  2.0089789533326456e-02 -7.4315476196135767e-03 -1.5352032764896571e-02  1.9621991048385613e-02 -9.8766192741110998e-03 -1.5327295745290763e-02  2.1328970050616635e-02 -5.8335877728692411e-03 -1.8990593739435908e-02  1.8249328923235650e-02 -6.5310513167622991e-03 -1.4983573569833148e-02  1.7796817306617113e-02 -9.0136412285035383e-03 -1.4811665263164639e-02  1.9520917169934433e-02 -4.9976771068279743e-03 -1.8356727477374053e-02  1.6358080355523389e-02 -5.7978905344949518e-03 -1.4674066108153482e-02  1.5894996439478767e-02 -8.3417105737169633e-03 -1.4397417121963815e-02  1.7603912859965969e-02 -4.3329060962370930e-03 -1.7854160914465744e-02  1.4223613179307818e-02 -5.3134023940605030e-03 -1.4632944533729977e-02  1.3764121364726834e-02 -7.9209670162368809e-03 -1.4273005449321471e-02  1.5484332199362658e-02 -3.8759556471743943e-03 -1.7583710613833757e-02  1.1863692382625178e-02 -4.9843305131381608e-03 -1.4748623862719109e-02  1.1421545767847553e-02 -7.6602445872386406e-03 -1.4293970834755558e-02  1.3192014069937795e-02 -3.5823446116650076e-03 -1.7415643792068006e-02  9.3506124582539013e-03 -4.8192711731377879e-03 -1.4965938621482865e-02  8.9469919623320522e-03 -7.5632205225841199e-03 -1.4409928714658354e-02  1.0760197689468029e-02 -3.4539243334965916e-03 -1.7300841726392218e-02  3.0604264410769355e-02 5.7544773721134651e-03 -3.0594153818581129e-02  2.8833429612261829e-02 7.1593637246488090e-03 -3.0270356647156247e-02  2.7207477894078159e-02 8.2622192260290370e-03 -2.9635943032062014e-02  2.5488201101845468e-02 9.1340878030797198e-03 -2.9032998587422400e-02  2.3594102192656886e-02 9.8144869842433143e-03 -2.8530360842678848e-02  2.1483416205686730e-02 1.0341971671023102e-02 -2.8019372727300894e-02  1.9177530663890077e-02 1.0753124045467034e-02 -2.7519027628016956e-02  2.2272014026913190e-02 -1.0643775752626573e-02 -1.7572011761967467e-02  2.3514921268296071e-02 -1.1519293099293091e-02 -1.9725008287877314e-02  2.1541028575258105e-02 -1.3544610559042575e-02 -1.6242636142542673e-02  1.9532839195772728e-02 -1.2763049909219623e-02 -1.5786333951273605e-02  2.1695403149279684e-02 -1.0494826459055109e-02 -1.9181129915352247e-02  2.0257141803245421e-02 -9.7723359470687221e-03 -1.7195360812233818e-02  1.7784285586354191e-02 -1.2056465792359736e-02 -1.5054968777908450e-02  2.0083375603926194e-02 -9.6606314250989433e-03 -1.8319126749456103e-02  1.8484070744012111e-02 -8.9925697732336132e-03 -1.6495101045847369e-02  1.5936460126207017e-02 -1.1497858786099290e-02 -1.4516165660671619e-02  1.8366166406912358e-02 -9.0188856071676364e-03 -1.7587379494483846e-02  1.6607626678018558e-02 -8.3720806184743955e-03 -1.5967462748310804e-02  1.3891662412974437e-02 -1.1140626532382104e-02 -1.4241954537628405e-02  1.6492452397725867e-02 -8.5627232485570789e-03 -1.7027258486289040e-02  1.4533178420936739e-02 -7.9568453516918151e-03 -1.5695839392612279e-02  1.1688365799010291e-02 -1.0945470065321799e-02 -1.4085832036563876e-02  1.4481771008740041e-02 -8.2771300435655337e-03 -1.6556890973641433e-02  1.2289597098600695e-02 -7.6982703760574258e-03 -1.5526863947951202e-02  9.3552310349163687e-03 -1.0889484366854144e-02 -1.3981273342236382e-02  1.2346785463757734e-02 -8.1459614722881046e-03 -1.6096124700959270e-02  9.9122866141848585e-03 -7.5835394261501744e-03 -1.5417517242928508e-02  2.3738641950857849e-02 -4.2967333466173655e-03 -1.8029731761388147e-02  2.1502490471141559e-02 -3.4518161513295569e-03 -1.8096688317855471e-02  1.9635495967210519e-02 -2.5908213186023122e-03 -1.7701764562504520e-02  1.7702462352011495e-02 -1.8990719387452792e-03 -1.7361890508437967e-02  1.5534020125841810e-02 -1.4460286139057073e-03 -1.7258106709366228e-02  1.3161720333496321e-02 -1.1504031036746693e-03 -1.7283674570301780e-02  1.0660546430451360e-02 -1.0118778491483959e-03 -1.7386406156843195e-02  2.7115157659541970e-02 -4.8717880024486907e-04 -2.6096311875449182e-02  2.4958632657644118e-02 -2.8770823977144746e-03 -2.1699495453967835e-02  2.6508584506588124e-02 2.1325124768147564e-04 -2.3955445048835830e-02  2.4414448990357829e-02 1.3171207230384542e-03 -2.3810943944733497e-02  2.2859469718009590e-02 -1.9156942135397281e-03 -2.1461351960844526e-02  2.5230521511309025e-02 4.2617779113380763e-04 -2.5408321410606650e-02  2.2575771092313068e-02 2.2769088114967442e-03 -2.3259964198789552e-02  2.1001320466821641e-02 -1.0527128523368182e-03 -2.0844037068903601e-02  2.3467526764451248e-02 1.1631106797065098e-03 -2.4516357810086643e-02  2.0646682450131897e-02 3.0215339488013967e-03 -2.2767470109162465e-02  1.9052024950374061e-02 -3.7676072614709511e-04 -2.0330664487547497e-02  2.1592878560347764e-02 1.7690778180630621e-03 -2.3739142369660005e-02  1.8525661728756089e-02 3.5496577568936791e-03 -2.2436997510691687e-02  1.6902398039513856e-02 9.0970221489335897e-05 -2.0010981922625900e-02  1.9560662605232537e-02 2.2262619219900123e-03 -2.3070426849535183e-02  1.6237869672049175e-02 3.9147256287580820e-03 -2.2162269986132719e-02  1.4593726876396981e-02 3.9174164259533803e-04 -1.9769457798660770e-02  1.7409760398018247e-02 2.5107593109897340e-03 -2.2441941915332931e-02  1.3832492951526113e-02 4.1215339929957569e-03 -2.1918781940461030e-02  1.2164153664456742e-02 5.3339564191217325e-04 -1.9575365471214745e-02  1.5160773998660769e-02 2.6794298868824742e-03 -2.1827737036803886e-02  2.9623628487946942e-02 -2.3485965321619253e-02 -2.6527826345006243e-02  2.7158173894072137e-02 -2.2434009854687194e-02 -2.2790554749242888e-02  2.7534362809889201e-02 -2.0068537581194361e-02 -2.3994732323749362e-02  2.6425910723381185e-02 -1.9266655670932848e-02 -2.2452430019440583e-02  2.6176617287951939e-02 -2.1842127974182710e-02 -2.1191732739098135e-02  2.8741071373393226e-02 -2.3099530513620452e-02 -2.4461155928047089e-02  2.5302144298254076e-02 -1.8746181079701520e-02 -2.0796203209936113e-02  2.5086562250941354e-02 -2.1482788948705964e-02 -1.9477693995901848e-02  2.7811086813952484e-02 -2.2965277348378218e-02 -2.2430614118104750e-02  2.4155104468879945e-02 -1.8431956565114566e-02 -1.9172119613006171e-02  2.3996880673132888e-02 -2.1285263571709435e-02 -1.7798339234840477e-02  2.6905074323692539e-02 -2.3007597059636033e-02 -2.0393321500361657e-02  2.2981638884963181e-02 -1.8297682581183389e-02 -1.7614802458146991e-02  2.2908023460891287e-02 -2.1248734329984677e-02 -1.6196200105707766e-02  2.6010564893430531e-02 -2.3221563023504133e-02 -1.8372999091241692e-02  2.1753175417821981e-02 -1.8350283143505109e-02 -1.6101340115534355e-02  2.1769519581278880e-02 -2.1398266501169327e-02 -1.4636785773643029e-02  2.5079402180243925e-02 -2.3637704125297962e-02 -1.6374866614144241e-02  2.0460418952281831e-02 -1.8562201033386617e-02 -1.4624657699525196e-02  2.0577184541815036e-02 -2.1698529302480871e-02 -1.3125935872192922e-02  2.4114904249042272e-02 -2.4214391298420443e-02 -1.4422856410168808e-02  1.1180621661274393e-02 -3.2223929253210347e-02 -5.9901773028071380e-03  9.7846274092771492e-03 -3.2564367603899934e-02 -6.3843592424387904e-03  2.4670262158396117e-02 -7.9008902989906732e-03 -2.1698810360530549e-02  2.2769165949197021e-02 -6.8643468242724527e-03 -2.1137827122205959e-02  2.1087707755934937e-02 -6.0199451114344811e-03 -2.0282062925577500e-02  1.9311850504702133e-02 -5.3635839172243597e-03 -1.9532112316944506e-02  1.7374843271981157e-02 -4.8911851521348249e-03 -1.8936223528950382e-02  1.5298580048021737e-02 -4.5906673047832790e-03 -1.8414882214301872e-02  1.3109857239826566e-02 -4.4529043631239629e-03 -1.7901478075690758e-02  2.8698004279863094e-02 2.5518898829117497e-03 -2.8036737232646984e-02  2.6775023658018687e-02 3.6502912047962437e-03 -2.7506190354099631e-02  2.4995602048835299e-02 4.5567807587566841e-03 -2.6720552780024939e-02  2.3127469219555954e-02 5.2800663676030417e-03 -2.6012362208810064e-02  2.1097885494081987e-02 5.8305149087270539e-03 -2.5406330138490307e-02  1.8913859684730909e-02 6.2151415513315468e-03 -2.4814129850588968e-02  1.6624531751961491e-02 6.4643296758457982e-03 -2.4231561437759019e-02  3.0382461100727752e-02 -2.0918903681391907e-02 -2.8261407627959294e-02  2.9441592228595725e-02 -2.0418071784088571e-02 -2.6226927455072730e-02  2.8462075966067282e-02 -2.0185028499391432e-02 -2.4213018116013705e-02  2.7496085033554978e-02 -2.0130673821204967e-02 -2.2194951069990376e-02  2.6533114706300962e-02 -2.0247217062265295e-02 -2.0191250028629811e-02  2.5516984306345931e-02 -2.0558884817574726e-02 -1.8201534801276821e-02  2.4445947788414690e-02 -2.1009564822209548e-02 -1.6247365356483676e-02  2.5250906769402521e-02 -2.3280155872844975e-04 -2.0908497941910055e-02  2.3950582690973728e-02 -3.0896587483154872e-03 -1.7071933727425367e-02  2.4931324779131375e-02 -4.9500842941960937e-04 -1.8289005170735968e-02  2.2676435918813312e-02 3.5324748707898088e-04 -1.8607855824636619e-02  2.1671750942845347e-02 -2.2858809064273890e-03 -1.7288842762913603e-02  2.3066501637432232e-02 6.6123532238782253e-04 -2.0947791136723397e-02  2.0832467531135074e-02 1.2716875373421572e-03 -1.8447393667749036e-02  1.9812898376037839e-02 -1.4049977209643801e-03 -1.7037966289445740e-02  2.1192790914987363e-02 1.5425666110428272e-03 -2.0566770367912324e-02  1.8967664937335846e-02 2.0295278400648291e-03 -1.8276722090327688e-02  1.7916991552901884e-02 -6.7853030089469479e-04 -1.6801370859856189e-02  1.9243782175721973e-02 2.2513921778559210e-03 -2.0257952063254897e-02  1.6864800762115377e-02 2.5414615397911966e-03 -1.8309310633588288e-02  1.5773742888468403e-02 -1.9590457171861776e-04 -1.6792416269294560e-02  1.7066091622887740e-02 2.7254947487644911e-03 -2.0163764527587707e-02  1.4535847560774064e-02 2.9099858097357016e-03 -1.8462087626392763e-02  1.3411121068890820e-02 1.4556732522164997e-04 -1.6918286008937942e-02  1.4701058885365484e-02 3.0473557694482927e-03 -2.0153610897561066e-02  1.2046040913741821e-02 3.1417603492159391e-03 -1.8708753343127136e-02  1.0899133536324410e-02 3.4591856131287700e-04 -1.7146731137327061e-02  1.2195314793354428e-02 3.2233915031508412e-03 -2.0212641237086184e-02  2.5913071170409450e-02 -4.1855691883953801e-03 -2.3915464189043049e-02  2.3984523266984706e-02 -3.1726106839046579e-03 -2.3282112811767591e-02  2.2265126774434537e-02 -2.3929673697343245e-03 -2.2400048807211415e-02  2.0436081690063040e-02 -1.7845416105244996e-03 -2.1613357681718060e-02  1.8443520262445338e-02 -1.3389059395793772e-03 -2.0955004744200121e-02  1.6331800950537961e-02 -1.0712011968975991e-03 -2.0362136722983600e-02  1.4137297814985350e-02 -9.5708723728879291e-04 -1.9781595974502991e-02  3.1541785387265743e-02 -2.5639627012227278e-03 -3.2225642702611731e-02  3.3429412746087198e-02 -6.1675331665232841e-03 -3.4986370233934291e-02  3.0133104471804575e-02 -5.8213193345658925e-03 -2.9986993611365458e-02  2.8686994894580934e-02 -4.8994004843712991e-03 -2.8578971431637287e-02  3.2299461563055909e-02 -5.2869093898381759e-03 -3.3138114671456165e-02  3.0083919688240313e-02 -1.6148332266579908e-03 -3.0786962139283298e-02  2.7288653612795016e-02 -4.2542145470125248e-03 -2.7130402101314038e-02  3.1136540293503753e-02 -4.7271670007661805e-03 -3.1380140165755799e-02  2.8679559226321469e-02 -9.3804039001747937e-04 -2.9342850070972797e-02  2.5834735821112974e-02 -3.7768837245805743e-03 -2.5689652569923799e-02  2.9923351799992625e-02 -4.3847606299090014e-03 -2.9572226486227763e-02  2.7211799517068307e-02 -4.3009213766503391e-04 -2.7898322667386444e-02  2.4290357453402342e-02 -3.4508354102547470e-03 -2.4256020773268924e-02  2.8637139842370020e-02 -4.2173290841307767e-03 -2.7697249259869390e-02  2.5643943743567182e-02 -7.3772655343294684e-05 -2.6439874400757696e-02  2.2666806790546619e-02 -3.3092019641164780e-03 -2.2838793221633950e-02  2.7266334499093450e-02 -4.2429260606591454e-03 -2.5805137097096937e-02  2.3976297634806892e-02 1.0500070928058783e-04 -2.4980166313817914e-02  2.0965470254424808e-02 -3.3072062574042863e-03 -2.1420999688934222e-02  2.5807254054897720e-02 -4.4244902540661020e-03 -2.3910408289701431e-02  2.2224282863169353e-02 1.7265886195718056e-04 -2.3509114233579806e-02  3.2354312622544