<?xml version="1.0"?>
<VTKFile type="UnstructuredGrid"  version="0.1"  >
<UnstructuredGrid>
<Piece  NumberOfPoints="734" NumberOfCells="3036">
<Points>
<DataArray  type="Float64"  NumberOfComponents="3"  format="ascii">6.240671788210547 3.514846693786072 1.065953019613514  6.367206236022347 3.569187191204862 1.097619927284759  6.360750213363687 3.471283438508877 1.02799167223292  6.358121032525562 3.510454229823186 0.9683888406255  6.363794190776734 3.614387366168157 1.042913105910904  6.237596745453668 3.557383268546298 1.007929097675646  6.360380994584374 3.65954135912988 0.9882204258125437  6.234483233203054 3.599814548774606 0.9499059831585698  6.355452076597214 3.549523748218779 0.9087885134398822  6.356989867654926 3.704659061377571 0.933559990155602  6.231393865364121 3.642180539428586 0.8919294892696314  6.352800694381867 3.588536766255745 0.8492122470476197  6.353627077091907 3.749725744332925 0.8788954437362944  6.228360254123748 3.684497735448031 0.8339955750271026  6.35018620025489 3.627507031944072 0.7896527189019833  6.350321586183621 3.794755797221705 0.8242174343194764  6.22539688160957 3.726772687999354 0.7760814383097042  6.347623738540637 3.666445997554543 0.7301033595814008  6.222531446128237 3.769023410742726 0.7181743164872251  6.347069782234482 3.839756586261773 0.7695236619051236  6.345135650757308 3.705364925613309 0.6705699570266711  6.502293187924642 3.753898458969111 1.274708483408688  6.381093808491823 3.776494962585518 1.318289115370202  6.482066244676813 3.822194959673553 1.369664830957401  6.476887051186313 3.878500278746023 1.330683067717335  6.377233932954241 3.832656840827425 1.277690674943097  6.499198457521347 3.807617834898937 1.231079983275  6.496097784158616 3.861393463782324 1.18754896042804  6.373374265841236 3.888839074325475 1.237246031930662  6.47175304608492 3.934867727943792 1.291868914643488  6.492977102387642 3.915141406579928 1.144025704626514  6.369525827340668 3.944980303322396 1.196860899573215  6.466615063703503 3.991198198445595 1.253096144483409  6.489876787156695 3.968842375809202 1.100481678989173  6.36569937289196 4.001045235570738 1.15646208010457  6.461494998480847 4.047460856620572 1.214315877764394  6.486831807787022 4.022489090909626 1.056887340707881  6.361923789088991 4.057024833150214 1.116020651997799  6.456416124015977 4.103644852605933 1.175487275491473  6.358254966665366 4.112921579471696 1.075503479007169  6.483877601796976 4.076075776380956 1.013222105786281  6.451373734064493 4.159732797502929 1.136556718901666  6.28470213864089 3.436334919408087 1.006592759924321  6.281048767174921 3.474407674430724 0.9455414995531282  6.277367805460514 3.512357696869025 0.8844884818671711  6.273703148976494 3.550244308127142 0.8234741277392676  6.270087318732509 3.588090533560675 0.7625060788267992  6.26653295088381 3.62590615644864 0.701557054994005  6.263036001736507 3.663705508048966 0.6406074815799887  7.376440303582541 3.802851683860807 1.269222908809696  7.213932430564562 3.824005962749197 1.312733091601731  7.363152636850844 3.867090196564549 1.361568804020625  7.361460565744081 3.922729320920384 1.323266236745892  7.211412184539999 3.87812834156478 1.272330577219584  7.373663796969425 3.856919955424378 1.227921978144125  7.359641692293136 3.978384083680736 1.284970736061744  7.208783906327801 3.93227676196844 1.231973844040864  7.370789001081679 3.911000921438796 1.186607651118477  7.357733310872884 4.034047849805908 1.246656489493784  7.206083625128379 3.986432290788718 1.19162644885796  7.367842428163601 3.965089309148928 1.145265854345026  7.355781507836154 4.089715220685312 1.208300469503923  7.203349074258224 4.040576542109258 1.151255153418979  7.364854007154437 4.019182739547438 1.103881390599627  7.353829824210585 4.145387923002819 1.169885788485266  7.200623406227039 4.094694243730236 1.110830325906134  7.361850836560713 4.073289256015115 1.062444239096723  7.35193144879026 4.201054572154563 1.13139991967008  7.197940089070341 4.148773906989372 1.070324681678462  7.358863829490603 4.127405297002888 1.020934741341471  6.192334572631471 3.378691481515469 0.9812067078071828  6.188951191420513 3.411466019472396 0.9166143703187037  6.185513067051565 3.444076637980384 0.852022671594056  6.182081660843492 3.476599758554886 0.7874881903624342  6.178698291951672 3.509073049111548 0.7230210618411224  6.17538679376417 3.541523170732306 0.6586210146937371  6.172145129932406 3.573972506998519 0.5942716538551934  6.420664245809262 3.718716147456331 1.237639644387312  6.41700384574444 3.770839927933945 1.191164242968572  6.41334533933553 3.8229815993276 1.14476975695641  6.409691342707357 3.875090274558383 1.098401757224502  6.406064567505481 3.927144121554914 1.052015800871028  6.402499483088348 3.979143691893985 1.005593718639002  6.399003755596137 4.031094141814944 0.9591127263151262  7.304210985964274 3.752458582419564 1.21118868904531  7.301266954788028 3.803798408840486 1.166318939314198  7.298244172240628 3.855160910815647 1.121432401252816  7.295158770529324 3.906525003695168 1.076525481346547  7.292037471576401 3.95788515858434 1.031579736369412  7.288907681160576 4.009248499613721 0.98657543490591  7.285813983058394 4.060635510095892 0.9414810017970964  6.106202631662039 3.519151356822539 0.9780217191623285  6.054007428725465 3.360409199366138 0.8985355264205556  6.108422460768312 3.479287122608071 1.039323690013037  6.103908116023907 3.558875142307036 0.9167263001463148  6.095331610202265 3.717196056034654 0.6720468810881154  6.145037000735218 3.609920521473519 1.144978317035669  6.142224434852493 3.659860353000691 1.092408635330931  6.139373898198911 3.70972176949175 1.03987459455115  6.128640213527975 3.908576147204377 0.8300296572756781  6.509730653940379 3.989551468714543 1.648029937097091  6.437100061163116 3.934800511647613 1.561363388900435  6.369050829662939 3.983547749721107 1.677050935669  6.428602785581957 3.994229954630836 1.530058510732187  6.502152335209696 4.049847238453049 1.619027889830988  6.357198508587206 4.044110464989201 1.65011387139156  6.42022910893325 4.053635367532241 1.499031435807184  6.494647283073411 4.110042093330772 1.590338426864516  6.345588993843263 4.104582535242765 1.623465869941414  6.411904944885149 4.112950208856653 1.468118011666083  6.472340350448581 4.289798290726162 1.504815772654476  6.395314875590135 4.231203501630608 1.406300220613553  6.311182509265048 4.28522092087708 1.543864277309505  6.38698757527945 4.290092321408071 1.375266782133579  6.464891524561206 4.349331230631266 1.476197360372843  6.299616256128354 4.345053881279282 1.517207838059711  6.045023645961355 3.875218996314583 1.601670477191759  6.146757604141928 3.876463687988092 1.539410672902792  6.05072778756143 3.816993651949412 1.453750525342978  6.038928027780043 3.88007193919009 1.424325226346472  6.133836224569852 3.939164667218571 1.513276247525616  6.967523190335042 3.423420253144295 0.9607268255864715  6.821776467698252 3.387011891802922 0.9473127324782122  6.875646844904306 3.48255359712481 1.007356043403727  6.871414301580294 3.520987900642114 0.950285128791759  6.946290639314263 3.569757100571918 0.726583653030024  6.800670533199463 3.522948697432875 0.7054601686909631  6.858658935245761 3.636027059338459 0.7788186126955687  6.854395090831951 3.67434879765251 0.7216093931430267  6.795397448792693 3.556861833016347 0.6449396434478679  6.940951065602437 3.60629423058191 0.6679793521699182  6.850129394474389 3.712693029814483 0.6643801637427109  6.075021395063604 3.689107333813927 1.240700094699317  6.186124387144777 3.687300949832186 1.224684516330752  6.180632725409919 3.741164890803089 1.17777054316089  6.07000964097615 3.745571197383173 1.195657729940398  6.175177239579305 3.794962047626343 1.13092150163544  7.208963881190531 3.720569716407502 1.182988826745827  7.205689642394927 3.770802717426029 1.136787503916698  7.202361104738337 3.821057444144858 1.090564188538516  7.198983879159325 3.871317349863524 1.044322584592298  7.195577008569289 3.921572705353233 0.9980450563334717  7.192161515405636 3.971818763766791 0.9517116247213577  7.188768375155855 4.022053775289411 0.9052991021709977  7.122208094724578 3.663479756028021 1.133557292524962  7.135919217194184 3.774643018304042 1.249162639485023  7.133435360018221 3.826779937139453 1.205742042448633  7.118721975750023 3.711857420085062 1.08529701896285  7.130845295272195 3.878960825608624 1.162338170764342  7.115188082963319 3.76023961124484 1.03701922464625  7.128199163263571 3.931154143197663 1.118930441466131  7.111617209482975 3.808625120927255 0.9887157439505261  7.125523671637408 3.983342266904981 1.075492433057511  7.108023194642942 3.857007125053393 0.9403763408564635  7.122847233495538 4.035514674557091 1.031998670877964  7.104415522937689 3.905376980297017 0.8919929940135303  7.120215844523657 4.087671137444048 0.9884471395425465  7.100812622730171 3.95372236692938 0.8435718701826378  6.334380454324267 3.360841153627052 0.9635129727032001  6.331817102737817 3.391745129710899 0.8987587822553709  6.329202490564928 3.422507278291601 0.8340126923467815  6.326595203202722 3.453191205490937 0.7693057959365276  6.324026290491427 3.483826544846973 0.7046455685023896  6.321515716180556 3.514440288662827 0.6400270904554859  6.319082050202293 3.545045826570405 0.5754395656437516  6.11167524849416 3.754816232545894 1.322194960097149  6.233126547968049 3.764461114281563 1.310689187235564  6.227348124320967 3.821441134916217 1.269302885970747  6.103119298028801 3.813835411297132 1.282628003196615  6.221610770164647 3.878371926410274 1.228034903890954  6.094692867040395 3.872775409182029 1.243133050055295  6.215930525157742 3.935245761047721 1.186818145681591  6.086354657698041 3.93164615870013 1.20368087926027  6.169776337071807 3.848708010322536 1.084123277295398  6.21029732448615 3.992053687742358 1.145591485979079  6.078071068250982 3.990450848326228 1.164230561708818  6.164433148784521 3.90239644228689 1.037334476432412  6.204722903627463 4.048799876421617 1.104330989
[...]
<PointData  Vectors="f_24"> 
<DataArray  type="Float64"  Name="f_24"  NumberOfComponents="3" format="ascii">-4.8876496173024331e-03 1.4868525445994846e-02 7.9199281411556369e-02  -6.2775842948342804e-03 2.0413249783201741e-02 7.8399795841772035e-02  -5.6053246375351870e-03 1.0590382139702419e-02 7.9223374007341543e-02  -5.7661140861623959e-03 6.6197893440279381e-03 8.0250814593174818e-02  -6.4273593535074695e-03 1.5395390155253319e-02 7.8063567185988308e-02  -4.9454085787854693e-03 1.0190133788172228e-02 7.9676491848819989e-02  -6.5416978149746407e-03 1.1146609201374755e-02 7.7133248734610457e-02  -4.9534363781042617e-03 6.2509781511797006e-03 7.9409098152234625e-02  -5.8776038019168085e-03 3.3112475776906078e-03 8.0477809891952981e-02  -6.6342873857926747e-03 7.4207179546141736e-03 7.5623268573748098e-02  -4.9450053265758121e-03 2.8736074716857432e-03 7.8444604500100767e-02  -5.9742894810349704e-03 4.9266584728964165e-04 7.9997379066848562e-02  -6.7411409797895668e-03 4.0885695358655683e-03 7.3554380259229321e-02  -4.9547032059910441e-03 -8.6404245289287506e-05 7.6849952513587158e-02  -6.0901252900635965e-03 -1.9488862561420307e-03 7.8882520990940438e-02  -6.8944577169051851e-03 1.0568358717613351e-03 7.0940734851611231e-02  -5.0082240043807817e-03 -2.7223710364968037e-03 7.4668970344956509e-02  -6.2577527272835113e-03 -4.0884954120643897e-03 7.7189399262435565e-02  -5.1229658394394166e-03 -5.0617169488643794e-03 7.1885124809550088e-02  -7.1635802279848152e-03 -1.7487282798683251e-03 6.7815113575680541e-02  -6.5089365636270607e-03 -5.9579384233031003e-03 7.4937263304298354e-02  -8.8731448466525930e-03 4.5418686310007970e-02 7.2613748503536690e-02  -8.2800190129837976e-03 5.0660245231628140e-02 7.2122678112461647e-02  -9.4922155032476554e-03 5.8036487044979400e-02 6.9533802217357124e-02  -9.6315635309005589e-03 5.2284914595390315e-02 6.5432076533799760e-02  -8.3679722422040203e-03 4.4742239168181271e-02 6.8379801272118804e-02  -9.1129460009809586e-03 3.9593080547805796e-02 6.9530704400550050e-02  -9.2988169832946953e-03 3.4484767823153857e-02 6.6269474482821458e-02  -8.3972068441689751e-03 3.9609338880571124e-02 6.4551551890519171e-02  -9.7477292530427292e-03 4.7131776277815465e-02 6.1297827369587846e-02  -9.4791635643717495e-03 2.9859525739302128e-02 6.2716368354752361e-02  -8.4261447539161812e-03 3.4979702971480786e-02 6.0477811615990362e-02  -9.8640863091272717e-03 4.2426364746981041e-02 5.7001716860638423e-02  -9.6794054017659177e-03 2.5569852316683003e-02 5.8814274886407794e-02  -8.4772276173632425e-03 3.0677600506433714e-02 5.6088517347958118e-02  -9.9954832847938442e-03 3.8018079135332193e-02 5.2445048423478316e-02  -9.9183752883749560e-03 2.1503007316962537e-02 5.4511343822159629e-02  -8.5677422230510617e-03 2.6581587440025096e-02 5.1316335042149976e-02  -1.0161510307814588e-02 3.3792580158729983e-02 4.7553259413129954e-02  -8.7088633043842234e-03 2.2611225011304442e-02 4.6079571238130251e-02  -1.0217217925366810e-02 1.7552782410044213e-02 4.9777047744895907e-02  -1.0403251355976915e-02 2.9647064766644565e-02 4.2260604821496080e-02  -4.7513223903309278e-03 7.0532938701815462e-03 7.9462847433670256e-02  -4.8354313209923233e-03 3.4591990510921319e-03 8.0894154295209145e-02  -4.8727393322489767e-03 5.9257664917630379e-04 8.1418396701334009e-02  -4.8990279657501242e-03 -1.8361958741768903e-03 8.1179351652218623e-02  -4.9450346849467860e-03 -3.9173752678986675e-03 8.0258920807172479e-02  -5.0454243679813682e-03 -5.7083733712092917e-03 7.8719923721752044e-02  -5.2713867122664050e-03 -7.2358005017338434e-03 7.6638782057460303e-02  -1.7065187477945182e-02 5.0793803611226901e-02 6.4723733689370080e-02  -1.5611325979422139e-02 5.6072104791903110e-02 6.4900762247862495e-02  -1.7230311960967755e-02 6.3790920565493903e-02 6.1368273090544809e-02  -1.7771236219409490e-02 5.7660624960023346e-02 5.6703670650519129e-02  -1.6120690511561283e-02 5.0115703103524888e-02 6.0980234545177758e-02  -1.7455008109374046e-02 4.4795437367296638e-02 6.0988840278768892e-02  -1.8344904303454038e-02 5.2033493110689236e-02 5.1897006435130476e-02  -1.6674662896626537e-02 4.4710405723879222e-02 5.6930057127455302e-02  -1.7904486245702029e-02 3.9382338175716854e-02 5.7080937140039381e-02  -1.8942694198644080e-02 4.6817278290913172e-02 4.6946070217604864e-02  -1.7255862611093666e-02 3.9710361339784596e-02 5.2674472144749643e-02  -1.8396655451700591e-02 3.4399760792019875e-02 5.2921143806858924e-02  -1.9550430905707305e-02 4.1889313117310562e-02 4.1784041814841091e-02  -1.7853223408293147e-02 3.5011570358947829e-02 4.8162843727503610e-02  -1.8907880171669465e-02 2.9734001575404543e-02 4.8461779371486921e-02  -2.0155993011279523e-02 3.7149493803748157e-02 3.6344671387973530e-02  -1.8456736675240473e-02 3.0513688027587429e-02 4.3349406634287033e-02  -1.9414222630617265e-02 2.5287010291596780e-02 4.3659895162417695e-02  -2.0755741915454734e-02 3.2514875329403198e-02 3.0588445296195407e-02  -1.9051524589986338e-02 2.6133747197349344e-02 3.8193566548605604e-02  -1.9887223705918118e-02 2.0974308132328753e-02 3.8483235650774217e-02  -3.5682460627284615e-03 2.0147709714130129e-03 7.8953991649639343e-02  -3.6119772176429416e-03 -7.9076026438392290e-04 8.1112903652750173e-02  -3.5687432988483754e-03 -3.0721217073213835e-03 8.2264460667397496e-02  -3.5122112854789550e-03 -4.9110349875702069e-03 8.2570405445337697e-02  -3.4741588596215850e-03 -6.3865474417932290e-03 8.2150369317969055e-02  -3.4935829317453908e-03 -7.5522657552183538e-03 8.1090455016654156e-02  -3.6273752235379676e-03 -8.4472864600374214e-03 7.9446949961771693e-02  -7.9169048234903217e-03 3.9830996361720217e-02 7.4211785151088394e-02  -8.0663693490364338e-03 3.3916262337834902e-02 7.1696261224905800e-02  -8.1776051854909639e-03 2.8774081742837153e-02 6.8835951593250969e-02  -8.2762207160925055e-03 2.4154901582932885e-02 6.5630629397088150e-02  -8.3917984160592537e-03 1.9903209105294719e-02 6.2037177557568796e-02  -8.5495030825869338e-03 1.5906353078907580e-02 5.8014274357464882e-02  -8.7891851435970437e-03 1.2071549416292101e-02 5.3527710019836465e-02  -1.6152837327283318e-02 4.2489934797684370e-02 6.7512152337664860e-02  -1.6506379783622960e-02 3.6626858466532526e-02 6.4686507207330532e-02  -1.6921813589539054e-02 3.1369418131831771e-02 6.1574168492645819e-02  -1.7381294630155232e-02 2.6561295464987457e-02 5.8170127161033106e-02  -1.7862955400975218e-02 2.2091093953879339e-02 5.4432227656899090e-02  -1.8347267449191355e-02 1.7863260411025022e-02 5.0324418522182092e-02  -1.8812115460048070e-02 1.3789956550134840e-02 4.5824470847711039e-02  -3.4958407547968137e-03 5.8921646882568032e-03 8.0596732938020471e-02  -2.1186148188285471e-03 -4.2596334963340239e-03 8.0739169537301647e-02  -3.4877254851345347e-03 1.0194371923013541e-02 7.9490928225481108e-02  -3.3999184526704823e-03 2.3073747423872060e-03 8.0708715238858406e-02  -3.1854754590577160e-03 -7.6094411383568180e-03 7.4192916637019282e-02  -4.7906692181379088e-03 2.5428677415256812e-02 7.8050006130332750e-02  -4.7885934830816344e-03 1.9731054249757712e-02 7.6879463676842674e-02  -4.7003658699652229e-03 1.4880458547659115e-02 7.5115115141369537e-02  -4.4950455616585413e-03 1.6006039848571712e-04 6.2493428803914196e-02  -1.1962976133506937e-02 9.3770943808480584e-02 5.9348612694655259e-02  -1.0941314264406320e-02 8.2873688187505998e-02 6.3082293067764431e-02  -1.1877959172681814e-02 9.6965951981207513e-02 5.9914971064900166e-02  -1.0833348335020426e-02 7.7803102847834191e-02 5.7756425108972928e-02  -1.2001520715125764e-02 8.9138314615814077e-02 5.3931957570538813e-02  -1.1432768146386297e-02 9.2565008700193671e-02 5.4219509520168879e-02  -1.0746230206239799e-02 7.3163883656819639e-02 5.2576119422957049e-02  -1.2041906455574895e-02 8.4846393919019727e-02 4.8714390873914278e-02  -1.1054693157283742e-02 8.8487845536370111e-02 4.8732049005826346e-02  -1.0673827020338896e-02 6.8813675377613029e-02 4.7401276704174197e-02  -1.2200768985018972e-02 7.2864093587545462e-02 3.3039875043439762e-02  -1.0581866399092053e-02 6.0531889425927507e-02 3.6645596265956315e-02  -1.0007074213785537e-02 7.6919693926690874e-02 3.2306555478961073e-02  -1.0585592386198698e-02 5.6396298101813160e-02 3.0881964067450300e-02  -1.2271398563660552e-02 6.8882416416526079e-02 2.7490605956716551e-02  -9.6394666365289886e-03 7.3049659164485206e-02 2.6507827227277566e-02  -9.8596250843860245e-03 8.9095872105896742e-02 6.7454569343245382e-02  -9.4091168119531492e-03 8.0217608074544297e-02 6.7309860886762371e-02  -7.7097947889934711e-03 6.8713696537199984e-02 7.0819259900803608e-02  -7.0441575756722422e-03 6.3216533658488200e-02 6.4639706557088714e-02  -8.7223907698783746e-03 7.5353954506447149e-02 6.0867591607063398e-02  -1.1374246795750498e-02 7.3536045459361007e-03 7.6210707574355510e-02  -9.7061305343412903e-03 4.4024885690659293e-03 7.7122662443656925e-02  -1.0640114579139720e-02 1.2632353571864475e-02 7.6765790015010368e-02  -1.0935597770830162e-02 8.8058356159607300e-03 7.7426490777695145e-02  -1.2776040648613735e-02 -2.4799605538272764e-03 7.7430120054824261e-02  -1.0966135057585246e-02 -3.9002257692504903e-03 7.9421296194866542e-02  -1.1998854592621410e-02 1.7307833208157845e-04 7.6116068298644216e-02  -1.2454974791654427e-02 -2.0396426628537380e-03 7.4623009641033300e-02  -1.1409441798901788e-02 -5.1462767507082100e-03 7.8495932411379463e-02  -1.3262172309844689e-02 -4.1037949340102658e-03 7.6303799566112399e-02  -1.2983142827499355e-02 -4.0156962341081131e-03 7.2609904924843524e-02  -5.2584724350255799e-03 3.8607717657555336e-02 7.6135859709291195e-02  -5.9599576925118353e-03 3.6731118718627172e-02 7.5922098468032939e-02  -5.8139297634247416e-03 3.0651570654612541e-02 7.3376159876732780e-02  -4.9951421963087628e-03 3.2362192132725703e-02 7.3039703233681197e-02  -5.6794939726185090e-03 2.5389512401797928e-02 7.0438255584473378e-02  -1.5066433306473155e-02 3.8319335830236070e-02 6.9521555303344224e-02  -1.5454134555733554e-02 3.2644424788469129e-02 6.7128880145031322e-02  -1.5874552209877404e-02 2.7596998216951874e-02 6.4457419518610656e-02  -1.6329697313566951e-02 2.3003479113540403e-02 6.1456006613444067e-02  -1.6810340635090883e-02 1.8748496114171540e-02 5.8095057388704872e-02  -1.7305820851360766e-02 1.4734985084153196e-02 5.4350482425732545e-02  -1.7806886813639861e-02 1.0876438416797956e-02 5.0205354091973312e-02  -1.3975647676105773e-02 3.1255705444505663e-02 7.2092186889754953e-02  -1.4620783761523514e-02 4.6812027685651000e-02 6.7817732544700624e-02  -1.5098864006369190e-02 4.1024171900597227e-02 6.4702049383377605e-02  -1.4322498668519163e-02 2.5973054974454186e-02 7.0453404272966008e-02  -1.5589410215848115e-02 3.5802625579430418e-02 6.1355911551755495e-02  -1.4717272767166686e-02 2.1315103834378520e-02 6.8476912288519334e-02  -1.6111910360766320e-02 3.1005127676191464e-02 5.7752863552734041e-02  -1.5147775745924621e-02 1.7114761940043622e-02 6.6105500045724644e-02  -1.6656530683163664e-02 2.6520011758619344e-02 5.3844259763709448e-02  -1.5609134973318336e-02 1.3250793451996345e-02 6.3325327715817115e-02  -1.7215972363987732e-02 2.2251416215717402e-02 4.9592129051764050e-02  -1.6097416808096815e-02 9.6292775709431212e-03 6.0130210530522005e-02  -1.7779502488280849e-02 1.8122809159395407e-02 4.4977299059131511e-02  -1.6617461832117854e-02 6.1825369488740130e-03 5.6507270827385846e-02  -4.8183154820376616e-03 9.4995485684444114e-04 7.8700504389449810e-02  -4.9121159269385718e-03 -1.4978556721755275e-03 8.0926289561017176e-02  -4.9661026011378279e-03 -3.4507271322696859e-03 8.2135185748686224e-02  -5.0205031241044870e-03 -4.9961786324871204e-03 8.2541160041056202e-02  -5.1038148085076869e-03 -6.2033579611715777e-03 8.2256440951971488e-02  -5.2411143151090741e-03 -7.1192950029586718e-03 8.1361822906153999e-02  -5.4391526441558190e-03 -7.7887385933132968e-03 7.9943115868786954e-02  -6.4772024582756956e-03 5.0172439897627118e-02 7.3556746895701228e-02  -7.2119995558357717e-03 4.8835158876671218e-02 7.2836334364900085e-02  -7.0184743651082781e-03 4.2742640003184486e-02 6.9036657254184314e-02  -6.0642408780650862e-03 4.3933145839799494e-02 6.9233827367512296e-02  -6.8472428000052408e-03 3.7459603719040613e-02 6.5002967266501011e-02  -5.7195101723753862e-03 3.8603861422663831e-02 6.4782904029472843e-02  -6.6968825480666133e-03 3.2717734204665623e-02 6.0711141329885102e-02  -5.4163912808288294e-03 3.3845266045947946e-02 6.0083478433420420e-02  -5.5454019722708022e-03 2.0738440572053790e-02 6.7081174094713897e-02  -6.5795833840704785e-03 2.8331090476234628e-02 5.6084934104667979e-02  -5.1576218853725542e-03 2.9459860406127688e-02 5.5050793718678978e-02  -5.4386946459749896e-03 1.6509492087428558e-02 6.3280663632244744e-02  -6.5072443938298460e-03 2.4171223918881667e-02 5.1053288876048000e-02  -1.0816315279104110e-02 8.9190762800671841e-02 6.3877239271120406e-02  -1.0625312631287690e-02 8.3740177770344315e-02 6.4110189011978902e-02  -9.5150734399156080e-03 7.4919919462100651e-02 6.7027862561216706e-02  -9.1474654542463806e-03 6.9707305912051959e-02 6.1325366880811583e-02  -1.0275219232103181e-02 7.8763741418391389e-02 5.8478012543239921e-02  -1.0214274192694064e-02 8.4637489282411327e-02 5.7750243197314227e-02  -8.8129670003171574e-03 6.5106732231264203e-02 5.5823072865378340e-02  -9.9727665855112186e-03 7.4201458861102285e-02 5.3043409631031026e-02  -9.6806917503363590e-03 8.0472232529644944e-02 5.1918199069796965e-02  -8.5060742873785192e-03 6.0886332879545105e-02 5.0321559645972784e-02  -9.7018041538221456e-03 6.9939798976754022e-02 4.7646115446359091e-02  -9.1862123448920134e-03 7.6552948937168672e-02 4.6166309922963999e-02  -8.2256138928916544e-03 5.6874669302496690e-02 4.4668494743299571e-02  -9.4510434753934426e-03 6.5851358864519149e-02 4.2152293470119583e-02  -8.7074941042224810e-03 7.2759677247721130e-02 4.0335784716292650e-02  -7.9699994793103416e-03 5.2942075074807776e-02 3.8735839791153581e-02  -9.2150812079261728e-03 6.1828190925903165e-02 3.6447171867442292e-02  -8.2315262357114654e-03 6.8982353856665027e-02 3.4291056082388027e-02  -7.7445434964524117e-03 4.8973731016572902e-02 3.2388932450200830e-02  -8.9880396932372764e-03 5.7754631433052220e-02 3.0446574361305819e-02  -7.7489386367053043e-03 6.5104452963148138e-02 2.7900835102720456e-02  -1.3539414590176256e-02 3.9228182926216361e-02 7.0540943179771873e-02  -1.3957034643002585e-02 3.3672306158557437e-02 6.8175252289288155e-02  -1.4393605835780048e-02 2.8692960791778896e-02 6.5514795568735795e-02  -1.4855996727064428e-02 2.4154434139281086e-02 6.2540163607794505e-02  -1.5345302020683946e-02 1.9943580739241479e-02 5.9214007223768649e-02  -1.5867257111140912e-02 1.5963264451119556e-02 5.5507971674706107e-02  -1.6438579310013076e-02 1.2119836461553263e-02 5.1407817051524168e-02  -6.0036984302389886e-03 2.7289790145020403e-02 7.7381944636565253e-02  -6.0446949484466456e-03 2.1731708612487393e-02 7.6212278119811086e-02  -6.0516356557197377e-03 1.6896889840941450e-02 7.4466554544565272e-02  -6.0545736205829129e-03 1.2634604903762413e-02 7.2205088734881559e-02  -6.0788061869958016e-03 8.7966544254162605e-03 6.9434338433259232e-02  -6.1459528599909514e-03 5.2686357448982436e-03 6.6150433575264608e-02  -6.2645356055775142e-03 1.9620824327352755e-03 6.2338866560062704e-02  -7.0333364483570809e-03 3.8863012789752613e-02 7.4814615580217569e-02  -7.1060273986158929e-03 3.2842887668486719e-02 7.2311212060989200e-02  -7.1194949009412709e-03 2.7619232813237790e-02 6.9420153521134093e-02  -7.1245621907100043e-03 2.2956077282296046e-02 6.6162095174440660e-02  -7.1529542380882501e-03 1.8684289649035873e-02 6.2503586246915099e-02  -7.2291829533437111e-03 1.4681338765309113e-02 5.8402268775957444e-02  -5.3791158864388046e-03 1.2567318438372400e-02 5.9008326186656988e-02  -7.3673804863985063e-03 1.0852379198774600e-02 5.3818101595737654e-02  -5.3879560471265485e-03 8.8220099585283075e-03 5.4229061135195114e-02  -1.0089982966641386e-02 1.8105460888753467e-02 7.6733828450440772e-02  -9.2443843330118590e-03 9.7524099901650438e-03 7.7690616334975593e-02  -8.5740635163814426e-03 1.4894801191893865e-02 7.7877023190315378e-02  -8.8480297263133154e-03 1.0749975877755828e-02 7.8343792344045565e-02  -9.4800349474987947e-03 6.2292722808477367e-03 7.8721387520940489e-02  -1.0385456258154326e-02 1.3688139675268045e-02 7.6823040699886644e-02  -9.1080674504078890e-03 7.1883006265588854e-03 7.8266929710740202e-02  -9.7400863467373058e-03 3.2758208619703402e-03 7.9116678293570025e-02  -1.0697320388053363e-02 9.8182879030636206e-03 7.6336467247836631e-02  -9.3754471758165821e-03 4.0907118620421394e-03 7.7598461496638876e-02  -1.0034940949464385e-02 7.4771307131756199e-04 7.8893269537528427e-02  -1.1023110632947836e-02 6.4130136903848512e-03 7.5334457496921206e-02  -9.6708960173376799e-03 1.3500188403366105e-03 7.6367658191272572e-02  -1.0373080691883217e-02 -1.4429828674022099e-03 7.8092088823315975e-02  -1.1384449719666857e-02 3.3774056954513311e-03 7.3832052461545047e-02  -1.0013785310216485e-02 -1.1090187273199244e-03 7.4603790037548454e-02  -1.0770342613766996e-02 -3.3563063197179915e-03 7.6748496589589307e-02  -1.1803868923355025e-02 6.2861267335607366e-04 7.1836526016445593e-02  -1.0433745797230646e-02 -3.3208989104721032e-03 7.2299716126522889e-02  -1.1237598222683292e-02 -5.0219580891876546e-03 7.4894172620600927e-02  -1.2316953382138923e-02 -1.9194665434320226e-03 6.9361121941133405e-02  -1.0704703593131748e-02 8.4580875094387803e-02 4.3332494842411320e-02  -1.0616997970577498e-02 6.4637078374945672e-02 4.2123506712904227e-02  -1.0359468600781843e-02 8.0750773113903510e-02 3.7892203675960676e-02  -8.1185159388988508e-03 7.1043528559419200e-02 5.4733642459266527e-02  -7.5633111961775617e-03 6.7061658074356351e-02 4.8653753925781675e-02  -7.0342353681880389e-03 6.3249438718905648e-02 4.2437928565794245e-02  -6.5216543390785022e-03 5.9482517168293350e-02 3.5923342488223237e-02  -6.0434258240119713e-03 5.5672039910857597e-02 2.8961343522944615e-02  -1.1197781315029569e-02 9.6399500666716903e-02 6.4535427597703976e-02  -1.0323726322463212e-02 9.2511900773344299e-02 5.7772492003087345e-02  -9.5227517544977502e-03 8.8879368971191253e-02 5.1408504447139888e-02  -8.7619071015334078e-03 8.5420179663854942e-02 4.5192695682883775e-02  -8.0063151597947572e-03 8.2033305092941280e-02 3.8924367245734739e-02  -7.2330282301600853e-03 7.8621265591313841e-02 3.2438442266779492e-02  -6.4299205910621051e-03 7.5068171866564601e-02 2.5569191712578411e-02  -9.4405758891980100e-03 2.3263388951466051e-02 7.6463227475139658e-02  -9.7460337324843660e-03 1.8390697029876450e-02 7.5998662716624490e-02  -1.0044455912020887e-02 1.4084425458352649e-02 7.4998918304615289e-02  -1.0348201186028465e-02 1.0259615843197515e-02 7.3515976017739099e-02  -1.0677512061606555e-02 6.8109232266723571e-03 7.1558190413790509e-02  -1.1056525500275824e-02 3.6490670373007955e-03 6.9121023858613698e-02  -1.1516535073395975e-02 6.9224152630565001e-04 6.6188547811370915e-02  -8.0012049370145853e-03 6.3144326674914625e-02 7.0219659374333082e-02  -7.5301030860706036e-03 5.7420650457434969e-02 6.4870960300402250e-02  -7.1503090713072081e-03 5.2477405904297947e-02 5.9599254802222043e-02  -6.8087617028153927e-03 4.8002725363201992e-02 5.4227142527529207e-02  -6.5029826350753986e-03 4.3801790358767266e-02 4.8613770418296148e-02  -6.2403852122324584e-03 3.9740893964710096e-02 4.2643097226047165e-02  -9.1974292556223289e-03 6.2255056500204749e-02 6.9076095516846125e-02  -9.1971765608995053e-03 5.6473185903698174e-02 6.4597087299886488e-02  -9.1748036553486161e-03 5.1296376562762036e-02 6.0117754589172137e-02  -9.1582105517213352e-03 4.6565436825383465e-02 5.5519783819391502e-02  -9.1659877895008228e-03 4.2126158113549028e-02 5.0701269644732629e-02  -9.2074779441675622e-03 3.7859221125179289e-02 4.5570955986528924e-02  -9.2879059075522373e-03 3.3681168426077851e-02 4.0036522443071473e-02  -7.1375164781036556e-03 3.0952226318961620e-02 7.6489465402448387e-02  -7.3182851975433514e-03 2.5375819524751812e-02