<?xml version="1.0"?>
<VTKFile type="UnstructuredGrid"  version="0.1"  >
<UnstructuredGrid>
<Piece  NumberOfPoints="734" NumberOfCells="3036">
<Points>
<DataArray  type="Float64"  NumberOfComponents="3"  format="ascii">6.240671788210547 3.514846693786072 1.065953019613514  6.367206236022347 3.569187191204862 1.097619927284759  6.360750213363687 3.471283438508877 1.02799167223292  6.358121032525562 3.510454229823186 0.9683888406255  6.363794190776734 3.614387366168157 1.042913105910904  6.237596745453668 3.557383268546298 1.007929097675646  6.360380994584374 3.65954135912988 0.9882204258125437  6.234483233203054 3.599814548774606 0.9499059831585698  6.355452076597214 3.549523748218779 0.9087885134398822  6.356989867654926 3.704659061377571 0.933559990155602  6.231393865364121 3.642180539428586 0.8919294892696314  6.352800694381867 3.588536766255745 0.8492122470476197  6.353627077091907 3.749725744332925 0.8788954437362944  6.228360254123748 3.684497735448031 0.8339955750271026  6.35018620025489 3.627507031944072 0.7896527189019833  6.350321586183621 3.794755797221705 0.8242174343194764  6.22539688160957 3.726772687999354 0.7760814383097042  6.347623738540637 3.666445997554543 0.7301033595814008  6.222531446128237 3.769023410742726 0.7181743164872251  6.347069782234482 3.839756586261773 0.7695236619051236  6.345135650757308 3.705364925613309 0.6705699570266711  6.502293187924642 3.753898458969111 1.274708483408688  6.381093808491823 3.776494962585518 1.318289115370202  6.482066244676813 3.822194959673553 1.369664830957401  6.476887051186313 3.878500278746023 1.330683067717335  6.377233932954241 3.832656840827425 1.277690674943097  6.499198457521347 3.807617834898937 1.231079983275  6.496097784158616 3.861393463782324 1.18754896042804  6.373374265841236 3.888839074325475 1.237246031930662  6.47175304608492 3.934867727943792 1.291868914643488  6.492977102387642 3.915141406579928 1.144025704626514  6.369525827340668 3.944980303322396 1.196860899573215  6.466615063703503 3.991198198445595 1.253096144483409  6.489876787156695 3.968842375809202 1.100481678989173  6.36569937289196 4.001045235570738 1.15646208010457  6.461494998480847 4.047460856620572 1.214315877764394  6.486831807787022 4.022489090909626 1.056887340707881  6.361923789088991 4.057024833150214 1.116020651997799  6.456416124015977 4.103644852605933 1.175487275491473  6.358254966665366 4.112921579471696 1.075503479007169  6.483877601796976 4.076075776380956 1.013222105786281  6.451373734064493 4.159732797502929 1.136556718901666  6.28470213864089 3.436334919408087 1.006592759924321  6.281048767174921 3.474407674430724 0.9455414995531282  6.277367805460514 3.512357696869025 0.8844884818671711  6.273703148976494 3.550244308127142 0.8234741277392676  6.270087318732509 3.588090533560675 0.7625060788267992  6.26653295088381 3.62590615644864 0.701557054994005  6.263036001736507 3.663705508048966 0.6406074815799887  7.376440303582541 3.802851683860807 1.269222908809696  7.213932430564562 3.824005962749197 1.312733091601731  7.363152636850844 3.867090196564549 1.361568804020625  7.361460565744081 3.922729320920384 1.323266236745892  7.211412184539999 3.87812834156478 1.272330577219584  7.373663796969425 3.856919955424378 1.227921978144125  7.359641692293136 3.978384083680736 1.284970736061744  7.208783906327801 3.93227676196844 1.231973844040864  7.370789001081679 3.911000921438796 1.186607651118477  7.357733310872884 4.034047849805908 1.246656489493784  7.206083625128379 3.986432290788718 1.19162644885796  7.367842428163601 3.965089309148928 1.145265854345026  7.355781507836154 4.089715220685312 1.208300469503923  7.203349074258224 4.040576542109258 1.151255153418979  7.364854007154437 4.019182739547438 1.103881390599627  7.353829824210585 4.145387923002819 1.169885788485266  7.200623406227039 4.094694243730236 1.110830325906134  7.361850836560713 4.073289256015115 1.062444239096723  7.35193144879026 4.201054572154563 1.13139991967008  7.197940089070341 4.148773906989372 1.070324681678462  7.358863829490603 4.127405297002888 1.020934741341471  6.192334572631471 3.378691481515469 0.9812067078071828  6.188951191420513 3.411466019472396 0.9166143703187037  6.185513067051565 3.444076637980384 0.852022671594056  6.182081660843492 3.476599758554886 0.7874881903624342  6.178698291951672 3.509073049111548 0.7230210618411224  6.17538679376417 3.541523170732306 0.6586210146937371  6.172145129932406 3.573972506998519 0.5942716538551934  6.420664245809262 3.718716147456331 1.237639644387312  6.41700384574444 3.770839927933945 1.191164242968572  6.41334533933553 3.8229815993276 1.14476975695641  6.409691342707357 3.875090274558383 1.098401757224502  6.406064567505481 3.927144121554914 1.052015800871028  6.402499483088348 3.979143691893985 1.005593718639002  6.399003755596137 4.031094141814944 0.9591127263151262  7.304210985964274 3.752458582419564 1.21118868904531  7.301266954788028 3.803798408840486 1.166318939314198  7.298244172240628 3.855160910815647 1.121432401252816  7.295158770529324 3.906525003695168 1.076525481346547  7.292037471576401 3.95788515858434 1.031579736369412  7.288907681160576 4.009248499613721 0.98657543490591  7.285813983058394 4.060635510095892 0.9414810017970964  6.106202631662039 3.519151356822539 0.9780217191623285  6.054007428725465 3.360409199366138 0.8985355264205556  6.108422460768312 3.479287122608071 1.039323690013037  6.103908116023907 3.558875142307036 0.9167263001463148  6.095331610202265 3.717196056034654 0.6720468810881154  6.145037000735218 3.609920521473519 1.144978317035669  6.142224434852493 3.659860353000691 1.092408635330931  6.139373898198911 3.70972176949175 1.03987459455115  6.128640213527975 3.908576147204377 0.8300296572756781  6.509730653940379 3.989551468714543 1.648029937097091  6.437100061163116 3.934800511647613 1.561363388900435  6.369050829662939 3.983547749721107 1.677050935669  6.428602785581957 3.994229954630836 1.530058510732187  6.502152335209696 4.049847238453049 1.619027889830988  6.357198508587206 4.044110464989201 1.65011387139156  6.42022910893325 4.053635367532241 1.499031435807184  6.494647283073411 4.110042093330772 1.590338426864516  6.345588993843263 4.104582535242765 1.623465869941414  6.411904944885149 4.112950208856653 1.468118011666083  6.472340350448581 4.289798290726162 1.504815772654476  6.395314875590135 4.231203501630608 1.406300220613553  6.311182509265048 4.28522092087708 1.543864277309505  6.38698757527945 4.290092321408071 1.375266782133579  6.464891524561206 4.349331230631266 1.476197360372843  6.299616256128354 4.345053881279282 1.517207838059711  6.045023645961355 3.875218996314583 1.601670477191759  6.146757604141928 3.876463687988092 1.539410672902792  6.05072778756143 3.816993651949412 1.453750525342978  6.038928027780043 3.88007193919009 1.424325226346472  6.133836224569852 3.939164667218571 1.513276247525616  6.967523190335042 3.423420253144295 0.9607268255864715  6.821776467698252 3.387011891802922 0.9473127324782122  6.875646844904306 3.48255359712481 1.007356043403727  6.871414301580294 3.520987900642114 0.950285128791759  6.946290639314263 3.569757100571918 0.726583653030024  6.800670533199463 3.522948697432875 0.7054601686909631  6.858658935245761 3.636027059338459 0.7788186126955687  6.854395090831951 3.67434879765251 0.7216093931430267  6.795397448792693 3.556861833016347 0.6449396434478679  6.940951065602437 3.60629423058191 0.6679793521699182  6.850129394474389 3.712693029814483 0.6643801637427109  6.075021395063604 3.689107333813927 1.240700094699317  6.186124387144777 3.687300949832186 1.224684516330752  6.180632725409919 3.741164890803089 1.17777054316089  6.07000964097615 3.745571197383173 1.195657729940398  6.175177239579305 3.794962047626343 1.13092150163544  7.208963881190531 3.720569716407502 1.182988826745827  7.205689642394927 3.770802717426029 1.136787503916698  7.202361104738337 3.821057444144858 1.090564188538516  7.198983879159325 3.871317349863524 1.044322584592298  7.195577008569289 3.921572705353233 0.9980450563334717  7.192161515405636 3.971818763766791 0.9517116247213577  7.188768375155855 4.022053775289411 0.9052991021709977  7.122208094724578 3.663479756028021 1.133557292524962  7.135919217194184 3.774643018304042 1.249162639485023  7.133435360018221 3.826779937139453 1.205742042448633  7.118721975750023 3.711857420085062 1.08529701896285  7.130845295272195 3.878960825608624 1.162338170764342  7.115188082963319 3.76023961124484 1.03701922464625  7.128199163263571 3.931154143197663 1.118930441466131  7.111617209482975 3.808625120927255 0.9887157439505261  7.125523671637408 3.983342266904981 1.075492433057511  7.108023194642942 3.857007125053393 0.9403763408564635  7.122847233495538 4.035514674557091 1.031998670877964  7.104415522937689 3.905376980297017 0.8919929940135303  7.120215844523657 4.087671137444048 0.9884471395425465  7.100812622730171 3.95372236692938 0.8435718701826378  6.334380454324267 3.360841153627052 0.9635129727032001  6.331817102737817 3.391745129710899 0.8987587822553709  6.329202490564928 3.422507278291601 0.8340126923467815  6.326595203202722 3.453191205490937 0.7693057959365276  6.324026290491427 3.483826544846973 0.7046455685023896  6.321515716180556 3.514440288662827 0.6400270904554859  6.319082050202293 3.545045826570405 0.5754395656437516  6.11167524849416 3.754816232545894 1.322194960097149  6.233126547968049 3.764461114281563 1.310689187235564  6.227348124320967 3.821441134916217 1.269302885970747  6.103119298028801 3.813835411297132 1.282628003196615  6.221610770164647 3.878371926410274 1.228034903890954  6.094692867040395 3.872775409182029 1.243133050055295  6.215930525157742 3.935245761047721 1.186818145681591  6.086354657698041 3.93164615870013 1.20368087926027  6.169776337071807 3.848708010322536 1.084123277295398  6.21029732448615 3.992053687742358 1.145591485979079  6.078071068250982 3.990450848326228 1.164230561708818  6.164433148784521 3.90239644228689 1.037334476432412  6.204722903627463 4.048799876421617 1.104330989
[...]
<PointData  Vectors="f_24"> 
<DataArray  type="Float64"  Name="f_24"  NumberOfComponents="3" format="ascii">-6.1929417308836214e-03 -9.1046991887138752e-03 7.9761756313082618e-02  -9.4500359645822637e-03 -4.5480656722798832e-03 7.7266726049841430e-02  -8.0466611685355294e-03 -1.0868208715989296e-02 7.9821711534109135e-02  -8.1552100421358464e-03 -1.2614384536632692e-02 7.8903548310625862e-02  -9.4962100514899492e-03 -6.6468599010300420e-03 7.5607373612914808e-02  -5.8728122511686248e-03 -1.1149430137402808e-02 7.8666065225602322e-02  -9.6203004518376663e-03 -8.1618035063540702e-03 7.3874417733371292e-02  -5.7250999761553891e-03 -1.2543314652534335e-02 7.7305759657267284e-02  -8.2870422099801753e-03 -1.3888660222977271e-02 7.7653040228545314e-02  -9.9063861584574014e-03 -9.8139660065509234e-03 7.1706514236217309e-02  -5.8348066673094808e-03 -1.3980027052629091e-02 7.5465140915811149e-02  -8.6025914743486399e-03 -1.5093087605811904e-02 7.6037881542686217e-02  -1.0313724162421099e-02 -1.1619493915094101e-02 6.9043246464847136e-02  -6.1108914025738495e-03 -1.5498252990900326e-02 7.3132083760587413e-02  -9.0352284397882555e-03 -1.6271500094543714e-02 7.4016721501466667e-02  -1.0839556297563424e-02 -1.3219373194990296e-02 6.5712601601302684e-02  -6.4970387066694895e-03 -1.6756422307540157e-02 7.0100130900373564e-02  -9.5869177856232855e-03 -1.7166040292067229e-02 7.1361397278806846e-02  -7.0256371997618750e-03 -1.7774518021895256e-02 6.6464358599646681e-02  -1.1620528322388064e-02 -1.4725943755272700e-02 6.1952514868751855e-02  -1.0317184384934237e-02 -1.7869376432784120e-02 6.8226244741229139e-02  -1.5118538544247016e-02 1.5877297989034478e-02 6.6743246395233713e-02  -1.3253783864255617e-02 1.9849298888393496e-02 6.5703211975143117e-02  -1.5761986431134221e-02 2.6940146335144161e-02 6.2089232420194200e-02  -1.5750341345870441e-02 2.4003943828095661e-02 5.8950316232160814e-02  -1.2966025156397261e-02 1.7007407825524550e-02 6.2705748671545700e-02  -1.5260555403465834e-02 1.3205350379925089e-02 6.3965345618080510e-02  -1.5412418088136455e-02 1.1398092025300744e-02 6.1410916926313015e-02  -1.2604822925242202e-02 1.5347853594191632e-02 6.0184237519303858e-02  -1.5602031520126916e-02 2.2164223448756303e-02 5.6289556827562079e-02  -1.5724143067590679e-02 9.3980852469738186e-03 5.8321009655589305e-02  -1.2538461949391552e-02 1.3546224332278329e-02 5.7055787881765983e-02  -1.5667625343387594e-02 2.0237770432915591e-02 5.3083222013432851e-02  -1.6191261380827712e-02 6.9760786072602231e-03 5.4492025934577866e-02  -1.2794215189820391e-02 1.1169362095407242e-02 5.2995631849483735e-02  -1.5982806693952346e-02 1.7813003982827626e-02 4.8974696154144862e-02  -1.6769548915619503e-02 4.5241760328886965e-03 4.9957661751780152e-02  -1.3253363296512832e-02 8.6104184461460696e-03 4.8053021459315455e-02  -1.6480992898148136e-02 1.5173485985125520e-02 4.4018393337604919e-02  -1.3758971963905482e-02 6.1459832839412471e-03 4.2598117014243514e-02  -1.7472911222472895e-02 2.0344266107962272e-03 4.5018254830794559e-02  -1.7121764582265768e-02 1.2520932491877142e-02 3.8641040246356798e-02  -5.7739209246256079e-03 -1.3716166096992086e-02 8.1427715717980340e-02  -5.7398679503802138e-03 -1.5097662155440656e-02 8.0426901308381787e-02  -5.7911325735002586e-03 -1.6124654603431671e-02 7.9238642509588370e-02  -6.0017305179857604e-03 -1.7093823273412374e-02 7.7735053420541392e-02  -6.3303947318109517e-03 -1.7994962438789671e-02 7.5825583815184908e-02  -6.7894517613325293e-03 -1.8590485837230521e-02 7.3232711307676904e-02  -7.5222479679169108e-03 -1.8990190251886016e-02 7.0229298819290256e-02  -3.4140057956726720e-02 2.2651431589274702e-02 5.6404555797879029e-02  -3.0810770058248817e-02 2.7644799135716446e-02 5.5676574520324928e-02  -3.3835694187287657e-02 3.4133575033777272e-02 5.1702573127700477e-02  -3.5336188962018206e-02 3.0878261639166082e-02 4.8289746201126492e-02  -3.2147519991191684e-02 2.4440213837833645e-02 5.2674069480389600e-02  -3.5470903828306026e-02 1.9829518839109717e-02 5.3408218525456817e-02  -3.7238226112786904e-02 2.8794261251740106e-02 4.5844867913934814e-02  -3.3728165248863309e-02 2.2358068960402024e-02 5.0360005776181216e-02  -3.7097068979444758e-02 1.7966484298421657e-02 5.1097470961019416e-02  -3.8950725232280430e-02 2.6568172216538368e-02 4.2907308031615701e-02  -3.5093583985758361e-02 2.0181731710944627e-02 4.7532201961033631e-02  -3.8488683640338216e-02 1.5863279182159941e-02 4.8287801970473776e-02  -4.0013349546310924e-02 2.3592377878036704e-02 3.8724350729547975e-02  -3.5978771125180810e-02 1.7423132561500240e-02 4.3712472958418166e-02  -3.9280180971152302e-02 1.3042896665591188e-02 4.4396779940693194e-02  -4.0494842243937332e-02 2.0123320588682946e-02 3.3213250402664964e-02  -3.6512544517902368e-02 1.4334420388268340e-02 3.8902760241816041e-02  -3.9697219998187053e-02 9.9605538087594609e-03 3.9525228820516435e-02  -4.1032553325093445e-02 1.6874587521888404e-02 2.7430504605174225e-02  -3.7079736867850079e-02 1.1388437010645175e-02 3.3795251743165292e-02  -4.0116934016044277e-02 7.0507343840517673e-03 3.4376492845410368e-02  -2.4863137951942594e-03 -1.7092196601571744e-02 8.2564573777507130e-02  -2.5915245464712966e-03 -1.8255302397132755e-02 8.1943188261241154e-02  -2.5105985855864059e-03 -1.8991139148469113e-02 8.0961793855578154e-02  -2.6030802373000154e-03 -1.9545227633831250e-02 7.9733688410068004e-02  -2.8204279485688024e-03 -1.9938894871317253e-02 7.8149462048597892e-02  -3.1807988516209767e-03 -2.0014156804307102e-02 7.5885942665294817e-02  -3.7865859818676101e-03 -1.9869766783272149e-02 7.3153174021125575e-02  -1.2911646301675317e-02 1.0333574879081616e-02 6.9728274170289109e-02  -1.2802433705845545e-02 7.9706031995668784e-03 6.7106117123927750e-02  -1.2806042797059009e-02 6.2491977029535996e-03 6.4676197789034343e-02  -1.3008426983928834e-02 4.2559959157842499e-03 6.1736512692311118e-02  -1.3394683821505585e-02 1.8408983215728873e-03 5.8085941911693410e-02  -1.3904884658479345e-02 -5.6316625912051523e-04 5.3718742192708460e-02  -1.4593843659848135e-02 -2.9400131545850830e-03 4.8906014873396068e-02  -3.2604204412615669e-02 1.5945074123317537e-02 5.9942393235927538e-02  -3.3822366540545427e-02 1.3248834187319461e-02 5.7435491964904183e-02  -3.5179970055693961e-02 1.1365720474088317e-02 5.5325674873867935e-02  -3.6278215174194800e-02 9.2235473377334596e-03 5.2701005865339337e-02  -3.6928559602235324e-02 6.5225316462756613e-03 4.9207762170387054e-02  -3.7373972734561757e-02 3.7199843806528239e-03 4.4959647571637187e-02  -3.7769798647206448e-02 1.0020047744122270e-03 4.0415267449448233e-02  -2.1155508587109074e-03 -1.5176116283398405e-02 8.1186718389719345e-02  1.4443158152737891e-03 -2.0914968862027084e-02 8.2459414977204298e-02  -2.6429401424012248e-03 -1.3690212886371095e-02 8.2367470971975873e-02  -1.7680793717385083e-03 -1.6144592801529224e-02 7.9763743114295668e-02  -2.5846179481588526e-03 -2.0053848612645322e-02 6.9193659553776349e-02  -5.6937119738847269e-03 -2.9984170937230391e-03 7.7260021239182672e-02  -5.0321570212872912e-03 -5.1122161923416176e-03 7.5224996670213928e-02  -4.4672494014264454e-03 -6.4050546610498801e-03 7.3260482101297611e-02  -5.1402994142247466e-03 -1.3896466694354015e-02 5.8677381646179187e-02  -1.9254680867056399e-02 5.9734114598408279e-02 5.0445230346067980e-02  -1.7081302604116323e-02 4.9624847040187332e-02 5.4140585453621597e-02  -1.7627030528798378e-02 6.3116213371688989e-02 5.0528410444463649e-02  -1.6703232537511634e-02 4.6756570973381421e-02 5.0296283753370176e-02  -1.8972562876170811e-02 5.6946708538014083e-02 4.6551175734496728e-02  -1.6849843389525138e-02 6.0643431210967907e-02 4.6443027950075856e-02  -1.6042742961611241e-02 4.5137659938424703e-02 4.7499945580041107e-02  -1.8465114621515247e-02 5.5318856221683130e-02 4.3714982154981999e-02  -1.5764232600866710e-02 5.9342115881766591e-02 4.3620884807877507e-02  -1.5440529915123628e-02 4.3618147844257382e-02 4.4371728282340699e-02  -1.8383688123053521e-02 4.9628511863574358e-02 3.1377433673447683e-02  -1.5606920029541617e-02 3.8971057485270855e-02 3.4808661019738382e-02  -1.3733141043843287e-02 5.4037598494177740e-02 3.1058192825223246e-02  -1.5914901631022212e-02 3.6290347963064379e-02 2.9081000612722278e-02  -1.8704070901587325e-02 4.7153502148391986e-02 2.5950128109791141e-02  -1.3482657839172423e-02 5.1518682557842255e-02 2.5275848177550381e-02  -1.2035537078741705e-02 5.7746780371414598e-02 5.6314294017670997e-02  -1.2361561887837715e-02 4.7744380833649895e-02 5.7331450434179330e-02  -8.7186318305349699e-03 3.6358645046520290e-02 6.1781881385369115e-02  -7.6116138206148015e-03 3.3975925622174830e-02 5.7199174675919014e-02  -1.1081312699334812e-02 4.5514901325291186e-02 5.2770736820007151e-02  -2.2318075612027536e-02 -9.6034603945165751e-03 7.3726063506355660e-02  -1.7994917890159518e-02 -1.2136687825160015e-02 7.6132550568235410e-02  -2.0441496879328877e-02 -6.1779002233931547e-03 7.3248305099367014e-02  -2.1259663960823204e-02 -8.1886055040056253e-03 7.2544208442104935e-02  -2.5009741561841992e-02 -1.4203296445523405e-02 6.9530511558846750e-02  -2.0687126563063287e-02 -1.5663571526174636e-02 7.1869999168882523e-02  -2.3196083107337503e-02 -1.2441707009318643e-02 6.8435786240324342e-02  -2.3918868429321869e-02 -1.3613247650558866e-02 6.6117518980145715e-02  -2.1429046416336608e-02 -1.6080571317043824e-02 6.9879851235006951e-02  -2.5716940924545781e-02 -1.4949774872812424e-02 6.7462487119552675e-02  -2.4781454815946485e-02 -1.4661362914818052e-02 6.3364765896732428e-02  -5.5807816171481398e-03 7.5883748028876862e-03 7.2343959695884433e-02  -7.8749490925120423e-03 6.6506682214680941e-03 7.2395474737684151e-02  -7.0907791578768194e-03 4.1370889684007456e-03 6.9854180632269489e-02  -4.7585020417939055e-03 5.1725032144157796e-03 6.9514862426900470e-02  -6.3826401145669091e-03 2.6020451884103814e-03 6.7636641292007110e-02  -3.0392229997539780e-02 1.2830993932871739e-02 6.2215506905118650e-02  -3.1530782890539642e-02 1.0150640900357966e-02 5.9929831828175413e-02  -3.2733491883300971e-02 8.2807935261926344e-03 5.7892807913934634e-02  -3.3662392189950284e-02 6.1792482892004674e-03 5.5333189968182185e-02  -3.4287059720387425e-02 3.6306074510298212e-03 5.2036462858162415e-02  -3.4796563625273468e-02 1.0532919519689401e-03 4.8099352494290641e-02  -3.5293587850016600e-02 -1.4853310453409321e-03 4.3843691085789720e-02  -2.8274688069017815e-02 7.6918249439898792e-03 6.5352126052404480e-02  -2.9091709176616045e-02 1.9641586216086363e-02 5.9698493274644035e-02  -3.0293071595253140e-02 1.6821502252731064e-02 5.6983658728299899e-02  -2.9238554288480736e-02 5.0147514158891404e-03 6.3496065286807901e-02  -3.1588824833445883e-02 1.4876958037307791e-02 5.4707280985144463e-02  -3.0148532596558985e-02 3.1362711481559636e-03 6.1693694630802980e-02  -3.2641580401742414e-02 1.2721087805671483e-02 5.1904709351434514e-02  -3.0904039407472023e-02 1.1422080475214642e-03 5.9364333488543190e-02  -3.3353212685427347e-02 1.0061395329178323e-02 4.8281570373945197e-02  -3.1509664578362483e-02 -1.1391722203439585e-03 5.6435522355725132e-02  -3.3933027651170823e-02 7.2763037038977608e-03 4.3941936985553459e-02  -3.2087839082716341e-02 -3.3820432457856587e-03 5.2918763293572167e-02  -3.4532419229307540e-02 4.5523022418326601e-03 3.9342705642868410e-02  -3.2704830736072561e-02 -5.5679522831858490e-03 4.9054491581872771e-02  -5.8687231072606519e-03 -1.6626500252924326e-02 8.1517590792043321e-02  -6.0049413027208889e-03 -1.7639286658736181e-02 8.0858887828072309e-02  -6.1462703416936132e-03 -1.8345098920127433e-02 7.9874576058144631e-02  -6.4233397127032967e-03 -1.8801299606099768e-02 7.8683806515210175e-02  -6.8215221870905028e-03 -1.9054004579889917e-02 7.7189807494521201e-02  -7.3332120291987003e-03 -1.8998022866083899e-02 7.5063281610231319e-02  -7.9614710039213315e-03 -1.8766618391908067e-02 7.2584890568649071e-02  -7.7334418530087207e-03 1.7869041394520769e-02 6.7717113063540307e-02  -1.0216869693064597e-02 1.7096002330438502e-02 6.7271924216110099e-02  -9.3846929507967036e-03 1.4696658717659237e-02 6.4180932149189962e-02  -6.6892065213207483e-03 1.5499980132984179e-02 6.4220776034129123e-02  -8.5728330421747986e-03 1.3305001676007386e-02 6.1564325487643283e-02  -5.5291542562054125e-03 1.4266760716841650e-02 6.1552419067347236e-02  -8.1099680216542430e-03 1.1602583701598041e-02 5.8350448348539294e-02  -4.6690218400190471e-03 1.2706454299148193e-02 5.8258757182541095e-02  -6.0555379046754784e-03 7.7246870804113441e-04 6.4759238997247448e-02  -8.1530077568867949e-03 9.1193370991001325e-03 5.4028888281044969e-02  -4.3943439611456693e-03 1.0244080702820324e-02 5.3706817191938823e-02  -6.1155050098937866e-03 -1.6240914956263711e-03 6.0989547201305790e-02  -8.4439720627893771e-03 6.4469162345493032e-03 4.8718518683386405e-02  -1.5162808785707829e-02 5.6206793249545618e-02 5.3879407373192634e-02  -1.5722232229557861e-02 5.0818348252032103e-02 5.4685407443887543e-02  -1.3677693554288444e-02 4.2127378893828601e-02 5.7920393869379451e-02  -1.2833679997637886e-02 3.9533282648052254e-02 5.3911794495569466e-02  -1.5066247482298172e-02 4.7900591888435998e-02 5.0673155521533821e-02  -1.4188625366401362e-02 5.3792061902002121e-02 4.9504105338094254e-02  -1.1723953937747075e-02 3.8318665825234410e-02 5.1004029544728442e-02  -1.4055728919227227e-02 4.6367529576094739e-02 4.7866559089864674e-02  -1.2871843818827243e-02 5.2668893137239256e-02 4.6529899021333629e-02  -1.0727295735292207e-02 3.7150356278250786e-02 4.7746107124911993e-02  -1.3088193942350090e-02 4.5002587982223390e-02 4.4794789369918507e-02  -1.1529902220977524e-02 5.1662616578082000e-02 4.3390615649003560e-02  -1.0196372614301463e-02 3.5309361384693302e-02 4.3335314476621097e-02  -1.2502011749715922e-02 4.3182199644458782e-02 4.0734691428828837e-02  -1.0532650287918770e-02 5.0129474133900918e-02 3.9182901128575108e-02  -1.0263795655173200e-02 3.2638937858974641e-02 3.7268831541213195e-02  -1.2581886387413508e-02 4.0455410086230895e-02 3.4995708655992420e-02  -1.0248295494977466e-02 4.7548116298111759e-02 3.3016814170125947e-02  -1.0206588830662050e-02 3.0028156687937978e-02 3.0825386096451676e-02  -1.2562647060501281e-02 3.7765185507362700e-02 2.8958378882487968e-02  -9.8280371705660938e-03 4.4954148029036821e-02 2.6538660022533533e-02  -2.7032732701040649e-02 1.3565138762439581e-02 6.3153813985099796e-02  -2.8062047866238844e-02 1.0889858138143855e-02 6.0850667817296998e-02  -2.8986798883345093e-02 8.9187243762483392e-03 5.8707637830322380e-02  -2.9782778467307758e-02 6.7812098147215219e-03 5.6075719641184935e-02  -3.0403766208428024e-02 4.2772973441946183e-03 5.2766594103871939e-02  -3.1036197501296825e-02 1.7803415406423412e-03 4.8863694393812385e-02  -3.1772106369545479e-02 -7.3308343309800271e-04 4.4659574009166023e-02  -8.7000487860646267e-03 -3.0589145507942009e-04 7.5509151051093848e-02  -8.1890378727066861e-03 -2.5743223166905813e-03 7.3530433019011576e-02  -7.9866687362735687e-03 -4.1649546385599092e-03 7.1595968446826058e-02  -8.0635810810129951e-03 -5.9882568528707020e-03 6.9113474408540237e-02  -8.3550292426566534e-03 -8.1158892463241671e-03 6.5990496576448385e-02  -8.7737320104562446e-03 -1.0119243845271702e-02 6.2135430209727525e-02  -9.3024052339518264e-03 -1.2000779533455498e-02 5.7760581951130791e-02  -1.0727747123212948e-02 9.0117145199604884e-03 7.0720388519819558e-02  -1.0392450473432038e-02 6.5354974460152034e-03 6.8228864237503559e-02  -1.0067579289501258e-02 4.8867285625568196e-03 6.5908945084158260e-02  -1.0062300020678747e-02 2.9537361900294152e-03 6.3007963228649960e-02  -1.0357005329165222e-02 5.1900376535330090e-04 5.9303439431715135e-02  -1.0807010859718094e-02 -1.9048015799109129e-03 5.4829414919298540e-02  -6.3888472915369027e-03 -4.0620388150689538e-03 5.6311528319151351e-02  -1.1361763889494978e-02 -4.2665525972303006e-03 4.9863178760633037e-02  -6.7614300395386143e-03 -6.3662305267156655e-03 5.1081889839592914e-02  -1.9222165732287938e-02 -3.4253853766841790e-03 7.3250501002336252e-02  -1.7109120494292179e-02 -9.0494685458541533e-03 7.5666402198538152e-02  -1.5782613362744925e-02 -5.9624348090457236e-03 7.5041370554192383e-02  -1.6161495892425073e-02 -8.0309208477450517e-03 7.4302374448323910e-02  -1.7636620843956858e-02 -1.0693595632672375e-02 7.4990647066461691e-02  -1.9910213241795208e-02 -5.4446741925901713e-03 7.1988591434553648e-02  -1.6523522739427858e-02 -9.5506776372735018e-03 7.3213742708171214e-02  -1.8161972028026958e-02 -1.1936303760535213e-02 7.3963447324943879e-02  -2.0468047137718551e-02 -6.9877484671242327e-03 7.0560076169941144e-02  -1.7017623206203522e-02 -1.1025987586609635e-02 7.1672585570965064e-02  -1.8721800031393176e-02 -1.3094520404162254e-02 7.2598030490575310e-02  -2.1015763525555141e-02 -8.6021414715216852e-03 6.8767543546894100e-02  -1.7596391618272152e-02 -1.2515486620451823e-02 6.9706325945450259e-02  -1.9334894228540948e-02 -1.4218314903818006e-02 7.0877920800344094e-02  -2.1612434622998469e-02 -1.0286740524648048e-02 6.6590982229464898e-02  -1.8267559838180538e-02 -1.3785271242665651e-02 6.7143825237667945e-02  -2.0042818865434190e-02 -1.5093741771115939e-02 6.8596001989603514e-02  -2.2324255374150552e-02 -1.1807555740644366e-02 6.3855845730460145e-02  -1.9094134009351903e-02 -1.4907465826474170e-02 6.4099649884229684e-02  -2.0890649670251133e-02 -1.5823951783015110e-02 6.5933736307899019e-02  -2.3231723206967061e-02 -1.3292486571546972e-02 6.0754667359249753e-02  -1.4627235020112570e-02 5.8145832628010874e-02 4.0614075026344988e-02  -1.5267965331002968e-02 4.1638434496791492e-02 4.0260891068082602e-02  -1.3838254530972779e-02 5.6556900823474400e-02 3.6698226312646347e-02  -9.5800894427425769e-03 4.4607580715282973e-02 4.9619568240786165e-02  -8.1244884569960686e-03 4.3705554490703284e-02 4.6200308587711521e-02  -7.1383675247695677e-03 4.2022347569085260e-02 4.1392250445522222e-02  -6.8061267467843479e-03 3.9397939866396489e-02 3.4626968898007530e-02  -6.3655128384047192e-03 3.6797839465292317e-02 2.7486871473008288e-02  -1.4818603110815648e-02 6.4824139941862202e-02 5.3462206380746939e-02  -1.3525077988211854e-02 6.2536340326247539e-02 4.8451821566421902e-02  -1.1923379816338845e-02 6.1623072782432640e-02 4.5251435333664825e-02  -1.0198461447455641e-02 6.0938309892929206e-02 4.2004660481166287e-02  -8.7108268020369643e-03 5.9784229810590984e-02 3.7634651571827216e-02  -7.9499714105405652e-03 5.7466213078783260e-02 3.0922317426071367e-02  -7.0422585431038059e-03 5.5090395833694517e-02 2.3868896961573058e-02  -1.7827195913032171e-02 -4.4232105399559789e-04 7.2708497184869103e-02  -1.8249176023240464e-02 -2.5931448189835983e-03 7.1139258494617288e-02  -1.8687468674350362e-02 -4.2434217155665763e-03 6.9484971630794895e-02  -1.9191780102355532e-02 -6.0477151412130408e-03 6.7427990260909579e-02  -1.9771655286453280e-02 -7.9824959780126614e-03 6.4941189195612745e-02  -2.0467256179448567e-02 -9.7790086179663869e-03 6.1869316113324468e-02  -2.1328261272983640e-02 -1.1520172835819081e-02 5.8363930927817442e-02  -1.0688394223593415e-02 3.0359431975154123e-02 6.2337888576700591e-02  -9.5509819390384651e-03 2.8104297379477450e-02 5.8484631992868359e-02  -8.2976605013874924e-03 2.7037968173360499e-02 5.5585075748439315e-02  -7.2751128454084492e-03 2.5772787056204848e-02 5.2184065173765698e-02  -6.8561001592067940e-03 2.3569817212792044e-02 4.7380468793317788e-02  -6.9102285319451000e-03 2.0789947229231640e-02 4.1163262981779039e-02  -1.4604403394820544e-02 3.0408939155282724e-02 6.1336577852977643e-02  -1.4247946303301371e-02 2.7394006537063847e-02 5.7976615298469071e-02  -1.3738886145599236e-02 2.5623272927987117e-02 5.5364118937789891e-02  -1.3462135867959094e-02 2.3818229178888664e-02 5.2221806716144632e-02  -1.3581007788703836e-02 2.1442203874365878e-02 4.8077015233482262e-02  -1.3995783658241039e-02 1.8671199610316117e-02 4.2869112208122437e-02  -1.4401860530213337e-02 1.5982815042989221e-02 3.7203659537740200e-02  -1.1406189697667593e-02 4.0636155853786427e-03