<?xml version="1.0"?>
<VTKFile type="UnstructuredGrid"  version="0.1"  >
<UnstructuredGrid>
<Piece  NumberOfPoints="710" NumberOfCells="2979">
<Points>
<DataArray  type="Float64"  NumberOfComponents="3"  format="ascii">6.136166158715032 3.822571241300565 3.274886713764307  6.222709764726726 3.903240936330124 3.233301474856872  6.159754876272062 3.893551683049547 3.147282827938702  6.124341676795716 3.944699879429323 3.168865309765043  6.185014255098896 3.953153403802282 3.258233508213139  6.105755736591256 3.876258330530458 3.300292664108877  6.075609419627858 3.930134289264108 3.32573086346799  6.147660909661735 4.003454231840695 3.283207162570597  6.089237524357851 3.996198876695072 3.190469208989109  6.045545838065894 3.984212870036775 3.351248995851003  6.110405055972965 4.053934815241482 3.308259444701666  6.054216409314396 4.04792004140217 3.212155883768835  6.0154319766718 4.038395630702425 3.376848665546305  6.073073968944207 4.10450700499042 3.333379983959187  6.019111480349337 4.099765041198624 3.233916986313173  5.983742961802297 4.151664299348034 3.255712749459991  6.035459349720901 4.155098954266355 3.358541155388977  5.98509901820474 4.092702798264269 3.402504169489289  5.947713189505186 4.203452815253006 3.277561785392614  5.997129415149553 4.205497362368132 3.38373999971797  5.954215323704203 4.147139456752471 3.428239807947751  6.033015285135861 3.957036522866772 2.485090290710156  6.005692477651858 3.926858314443983 2.623887975571126  6.112815556335619 4.004067308679018 2.582912431269406  6.077059231394999 4.055807499475136 2.587836388054631  5.971395285136457 3.977868932939475 2.631269583228787  5.999000536452023 4.008912784416517 2.488498219165445  5.937427766078018 4.029320697335232 2.638608184443515  5.965309347618031 4.061246353196456 2.491892539814128  6.041601041523227 4.108002364920687 2.592736643536631  5.903408171802544 4.081026352057269 2.645988212187662  5.931637217254336 4.113833288957746 2.495315822428493  6.006205339646885 4.160430608382407 2.597666101272193  5.869205130155776 4.13288713359384 2.653404401193326  5.897812226331258 4.166510854488606 2.498774558822274  5.970693063381772 4.212922607886663 2.60263233786044  5.863664498807376 4.219155985289006 2.50227033297276  5.834576158437923 4.184812660410462 2.660871594161703  5.934925120226441 4.265309579643115 2.607647934454209  5.828981811865893 4.271613139161663 2.505804412856929  5.799329108731897 4.236589667773156 2.66842964571068  5.898669936146946 4.31743923815168 2.612704219009634  5.733735295330242 4.031395138303977 2.023438990853864  5.657719962393249 4.013329018849689 1.879796099278702  5.778527954554974 4.053002277878773 1.87595975212305  5.678458264204282 3.950848401921297 1.881984508684221  5.757863397661137 3.972066691355431 2.023004902997647  5.756574290363064 4.115039113589663 1.871038938640301  5.709496580552551 4.090938281862366 2.023903721333174  5.63687485596162 4.076058113086777 1.877635368296881  5.734416551590543 4.177160160692333 1.866189116335573  5.684969130886293 4.150628773730016 2.024470152911679  5.61574591094383 4.13903302613814 1.875592713633348  5.711913845365187 4.23930759525157 1.861463614401032  5.659920163350006 4.210397463308258 2.025213336134686  5.594146706867406 4.202213845138335 1.873748808674332  5.503816972730406 3.717745363490922 2.446694785063803  5.608876105370785 3.753622772771769 2.329880235840471  5.475060755578077 3.720138047809851 2.324768893597981  5.46316265760479 3.778037997413046 2.328494914240889  5.591216155660037 3.810208239556239 2.335248452937499  5.492629250691381 3.775703699126632 2.450275699188259  5.48151216689492 3.83387227392096 2.453987056365051  5.573726683345972 3.867168672328784 2.340654975647356  5.451324847591845 3.836300534791802 2.332304486002881  5.470332435309651 3.892379048185086 2.457747531513054  5.556184580138972 3.924445182062482 2.346113330518509  5.439428264594548 3.894896545693953 2.336171609523839  5.538491619331985 3.982020471717504 2.351597708200103  5.459021590550446 3.95127805952368 2.461525646150141  5.427415743970467 3.953902475649028 2.340066515079156  5.520542130513414 4.040031866005188 2.357139304854186  5.447568455190455 4.010649953934611 2.465275325420519  5.415254841554984 4.013385387946191 2.344005843177225  5.502149290133665 4.098618274431161 2.362833189573159  5.436041137504592 4.070716606904687 2.46899353617808  5.402841018197978 4.073551769840385 2.34798261690842  5.955816304409664 3.812396134582933 3.027939686655101  5.994743245626038 3.862953996096322 2.905567548624556  5.875984398046093 3.804916230683712 2.909106148925267  5.851100558697389 3.860999373930781 2.919387908605414  5.963665835130034 3.916096941122914 2.916855671831525  5.929275401211817 3.868270289129236 3.041942431692714  5.902890644539897 3.924369386407581 3.056003953511937  5.932802737370827 3.96962159313811 2.928153402521537  5.826318119382653 3.917399927362311 2.929766630691297  5.876541950230967 3.980701159118842 3.070116072324304  5.901953521222571 4.023384263549272 2.939498381853149  5.801534736075917 3.97403873456064 2.940181960933346  5.850093548341252 4.037215538451929 3.084281561915555  5.870968425970766 4.077334156628556 2.950896140820355  5.77662839005212 4.030911833021201 2.950629523213366  5.823444306969642 4.093945757820519 3.098445621084384  5.839680129815836 4.131457168770607 2.962342058503137  5.75150593587099 4.088104616561759 2.961050930445106  5.807797936915681 4.185674342417721 2.973823407464133  5.796237328913136 4.151067134807614 3.112609752199065  5.725873517385177 4.145868147524881 2.971472667456308  5.907275941645332 3.765583004466432 3.152838751031717  5.831658128152075 3.768521863212402 2.999702724986903  5.811494161657934 3.827340031894322 3.009837606737384  5.886592415784807 3.825406042908241 3.167891319348152  5.791351720356103 3.886376667343137 3.020110608501883  5.865951522939557 3.885343721285208 3.183056322732894  5.771201209676156 3.945635122019731 3.030453300198979  5.845290971821086 3.945459205943873 3.198294062007385  5.750961604329127 4.005113546939129 3.040836725208018  5.824570969300063 4.005770065971142 3.213578319648778  5.730611817838883 4.064901308836649 3.051187391622388  5.803748198952219 4.066394827001088 3.228870462929969  5.710191168680228 4.125231177058276 3.061443867287865  5.782831920421403 4.127635757659182 3.244100145007581  5.988848805943825 4.282066803763691 1.900507104645354  5.928173005631683 4.243627742553975 1.793236940378828  6.047290040468973 4.271335649023044 1.710234757099518  5.950527930260407 4.182132721272498 1.804182341986012  6.013511050077674 4.222528469848848 1.911020279065448  6.02731156843045 4.332478156754011 1.693585538122784  5.963837950846921 4.341404400016172 1.890000941346344  5.905498391559152 4.305040313521369 1.782307834392505  6.280491086515354 4.117740947791112 2.663498268874296  6.296397624963699 4.105411086288909 2.831994576040755  6.365077596748239 4.174020413317361 2.740937593059936  6.327128890187447 4.230689257558859 2.746786595650759  6.256338764132637 4.158095285805604 2.842701128357591  6.24274054661562 4.171912704514685 2.668015685283197  6.289715395711887 4.287549697958701 2.752543517139334  6.216682890509758 4.21113877381593 2.853334023670448  6.205451846345365 4.22635626504315 2.672453405062706  6.252561326600092 4.344418015933704 2.758294252855424  6.17721254944169 4.264329591939813 2.863981484426617  6.168401081669483 4.280904509198016 2.676889838263557  6.21546370304655 4.401173984810493 2.764072637404557  6.137747695182673 4.317491287944208 2.874677857363377  6.13138494054353 4.335406689301482 2.681377099110424  5.650758274975062 3.734831860289661 2.753530940741861  5.75955990230649 3.761440407434661 2.865362909851531  5.769475518690051 3.780374744619796 2.735131183817155  5.746681744242399 3.836121371658344 2.740597160443508  5.739492989062611 3.819191804805048 2.871635574480625  5.635020778536047 3.793012726165429 2.757115195607874  5.724006967870227 3.892179214122858 2.746182590507337  5.719438053977131 3.877255683958189 2.878030905725432  5.619286951362961 3.851473518471013 2.760872380685994  5.701283290005815 3.948507366076147 2.751778517475185  5.699360196848231 3.935574495563808 2.88448283864084  5.603474947114993 3.910208851723247 2.76468280395189  5.67842144894999 4.005122696685859 2.757373251251521  5.679192504346584 3.994158667792446 2.890938184003399  5.587580140287698 3.969244384297457 2.7684713328207  5.655314687153137 4.062118530899368 2.762920974057126  5.658895138899919 4.05308429337381 2.89731930337835  5.571582000642414 4.028643942018262 2.77217207568438  5.631713733235466 4.119638167038427 2.768382653529414  5.63839289926868 4.112534519869802 2.90354270142397  5.555464407182222 4.088630011039942 2.775681235393195  5.432086804788863 3.725551223670982 2.083418426908465  5.373383869337287 3.707325480774589 2.234984843767408  5.510190167420771 3.736054196303498 2.198178329437145  5.49546445240573 3.794031755337168 2.202570758182116  5.364752969996205 3.766177578993104 2.238336198441971  5.41990163934229 3.785182598348436 2.087194526977004  5.480833527520605 3.852444552378924 2.206976319959705  5.356163865390113 3.825293185352383 2.241754889218101  5.407785111783633 3.845148725209032 2.090938757008863  5.466158124133659 3.91122904339598 2.211420438340918  5.347530500223264 3.88481953240729 2.245214002171014  5.395641546148254 3.905490113743769 2.094700314066865  5.451363292160784 3.970393782439534 2.215905839310377  5.338806040483099 3.944752136216885 2.248707234585976  5.383396460404095 3.966222331670606 2.098517855264732  5.436360838448304 4.029977204798141 2.220479948354265  5.329969017448806 4.005144584399792 2.252248339895806  5.370973888055492 4.027397562826971 2.102457293030227  5.420969128663419 4.090046159999485 2.225243960424578  5.321045550244237 4.066087066847752 2.255866553297248  5.358204159925323 4.089157358235858 2.106621516431397  6.075145378582302 3.882265396221322 3.040772027601136  6.041574170566144 3.934710854235421 3.05
[...]
<PointData  Vectors="f_24"> 
<DataArray  type="Float64"  Name="f_24"  NumberOfComponents="3" format="ascii">-1.6639137399533366e-02 8.4742978711594058e-02 3.3570557177189549e-02  -1.7088157057716977e-02 8.3509170358969292e-02 3.4589560613786249e-02  -1.9200431363846231e-02 9.0741057380910470e-02 3.5620847087901183e-02  -1.6768242622219150e-02 9.1023607131377263e-02 3.8908908274241392e-02  -1.4775530852961401e-02 8.3419800526501109e-02 3.7929233552132922e-02  -1.4352414180764266e-02 8.4116177636358327e-02 3.7336858490717426e-02  -1.2339925152066850e-02 8.3559131585200022e-02 4.0546071135815612e-02  -1.2729820994533991e-02 8.3280988427736208e-02 4.0905536084623675e-02  -1.4644600840013181e-02 9.1183255763705492e-02 4.1764534460648560e-02  -1.0419883694656285e-02 8.2997533072165577e-02 4.3575436915590800e-02  -1.0801636771803222e-02 8.3092603431967532e-02 4.3814281959909017e-02  -1.2675966438733595e-02 9.1258011781919376e-02 4.4517074888769666e-02  -8.4408197255797998e-03 8.2375180101344370e-02 4.6645748435605171e-02  -8.7208095448558162e-03 8.3014470990096123e-02 4.6700821355559738e-02  -1.0636900069051313e-02 9.1311205328571399e-02 4.7442891292507186e-02  -8.7272970814648888e-03 9.0659473097687612e-02 5.1413536164575474e-02  -6.6837879527827226e-03 8.2492655226380718e-02 5.0293592579533662e-02  -6.3523158543519979e-03 8.1405938998194552e-02 5.0371897024387054e-02  -6.0544543104238263e-03 9.0798257605517158e-02 5.4131044558571824e-02  -4.4044035512097023e-03 8.2011911875068580e-02 5.3755137922279941e-02  -4.1785772196956629e-03 8.0094689841862618e-02 5.4459304255945973e-02  -2.5192133834690992e-02 1.1001900335818486e-01 4.0117108872501341e-02  -2.6027972360129138e-02 1.1320421498126092e-01 4.0338935585898392e-02  -2.4618063900398460e-02 1.0616275814235282e-01 3.8184105329596076e-02  -2.2282459577582358e-02 1.0820771539110383e-01 3.8043866007273767e-02  -2.3907001265174505e-02 1.1539733965018037e-01 4.0490514406190947e-02  -2.3090151765457950e-02 1.1210237781129655e-01 3.9062329766976885e-02  -2.1936906829075929e-02 1.1708210222244100e-01 4.0724249812712214e-02  -2.1218542657075793e-02 1.1364398923063776e-01 3.8250854755894105e-02  -2.0272869805339315e-02 1.0971389206532838e-01 3.8060208502446971e-02  -2.0131363906792245e-02 1.1843661729572184e-01 4.1021903020761613e-02  -1.9532751341975466e-02 1.1482106383705049e-01 3.7604624765223693e-02  -1.8484871181176962e-02 1.1087865991838197e-01 3.8121390591690382e-02  -1.8287683340065433e-02 1.1959615233627502e-01 4.1423091476707093e-02  -1.7580386206461417e-02 1.1595750444698245e-01 3.6865220148774920e-02  -1.6352516012057065e-02 1.1212972809720337e-01 3.7967739104598767e-02  -1.4883077288090872e-02 1.1712286818988481e-01 3.5668862419342737e-02  -1.5568545079892950e-02 1.2066337413168406e-01 4.1467299189085247e-02  -1.3660445452618682e-02 1.1344932535674493e-01 3.7686656540372808e-02  -1.1765390524106261e-02 1.1813901342408835e-01 3.4386427038349723e-02  -1.2361655058848491e-02 1.2181940433907099e-01 4.1407320678029068e-02  -1.0548247620882103e-02 1.1472937299536400e-01 3.7370345331423513e-02  -1.3135267815292983e-02 9.6881326366842463e-02 3.3421883333691532e-02  -9.3967199529356969e-03 8.3939459295208158e-02 3.2542120409795296e-02  -9.8315326213399834e-03 8.0790487680652306e-02 3.1536421842696886e-02  -1.0561799876811875e-02 8.3965311882843688e-02 3.6824667468691452e-02  -1.4378919545459511e-02 9.6525376987420905e-02 3.7076284080641508e-02  -8.2992874160779523e-03 8.0506368932873468e-02 2.6923559972956035e-02  -1.1608630416882383e-02 9.7121669836751939e-02 2.9279556428705014e-02  -8.0523886381297528e-03 8.3747653084716628e-02 2.7384717460766206e-02  -6.8789687960897957e-03 7.9825534987906149e-02 2.1095703661368623e-02  -9.9056893334461635e-03 9.7074758647486020e-02 2.4040787008335458e-02  -6.7044996296250041e-03 8.3267657736970840e-02 2.1141390260026531e-02  -5.3477112013317063e-03 7.8970496526788933e-02 1.4792022847025736e-02  -8.0510559530743014e-03 9.6737136644026361e-02 1.8229740108003229e-02  -5.3617702502242797e-03 8.2605439770894004e-02 1.4267792616044618e-02  -2.1690853138259331e-02 1.3426131636219327e-01 5.1507179214764762e-02  -2.1795863837074221e-02 1.2538006489402162e-01 5.1050321738834205e-02  -1.9220253498350857e-02 1.2958060399479029e-01 5.3271472597729574e-02  -1.8028618704508548e-02 1.3111407734858846e-01 4.9877499082813116e-02  -2.0445549691076956e-02 1.2712023259869701e-01 4.7943662570575953e-02  -2.0221267825207927e-02 1.3596415872020207e-01 4.9445354902949747e-02  -1.8925218486390553e-02 1.3718793341682559e-01 4.7565268839327886e-02  -1.9171327178019948e-02 1.2842912139788873e-01 4.5168041180064511e-02  -1.6959833461493948e-02 1.3220155268357145e-01 4.6847854561335701e-02  -1.7774197539926841e-02 1.3800116648342275e-01 4.5903319379317978e-02  -1.8015116492305003e-02 1.2938274280203291e-01 4.2782969793252267e-02  -1.6026297826406584e-02 1.3292434326579605e-01 4.4235405994338249e-02  -1.6796906779032089e-02 1.3008416424708308e-01 4.0719483541541146e-02  -1.6548682310524570e-02 1.3851975452238555e-01 4.4390164504341564e-02  -1.4987144500927104e-02 1.3339208496756683e-01 4.1965997478397563e-02  -1.5209612302199263e-02 1.3084234757238797e-01 3.8273588707775107e-02  -1.4872901299934059e-02 1.3906699450296159e-01 4.2376050201071727e-02  -1.3468450167963129e-02 1.3395684640012651e-01 3.9257192912254574e-02  -1.2990053257682811e-02 1.3106899541442857e-01 3.4467101256778314e-02  -1.3073621069064179e-02 1.3876644538572033e-01 4.0247869629633407e-02  -1.1897256263294223e-02 1.3368489671433961e-01 3.5218334340197818e-02  -2.2176123658569122e-02 1.0652478191834866e-01 3.7726565699558200e-02  -2.4490912345885307e-02 1.0949606175281806e-01 3.8711109425894695e-02  -2.4237277621456648e-02 1.1566559610796422e-01 3.9863390713812133e-02  -2.1946371788410694e-02 1.1682075911050945e-01 4.2645175656194564e-02  -2.2084995457697765e-02 1.1089201500345021e-01 4.1261411029961559e-02  -1.9788924744446795e-02 1.0711656449749032e-01 4.1159303438669192e-02  -1.7654993109201381e-02 1.0757966922371645e-01 4.3945529294809445e-02  -1.9912168951351124e-02 1.1200843985969118e-01 4.3372023696413922e-02  -1.9810025548030585e-02 1.1768611155275636e-01 4.4915702076548658e-02  -1.5706030905582143e-02 1.0789974165023899e-01 4.6407321496811198e-02  -1.7957143009058405e-02 1.1291637136947814e-01 4.5277237532654682e-02  -1.7883593400200584e-02 1.1836164303132773e-01 4.6868007813246688e-02  -1.3789562565705637e-02 1.0799411182084834e-01 4.8960504956589268e-02  -1.5982568157221193e-02 1.1366593250879012e-01 4.7419684050561545e-02  -1.6163049364183762e-02 1.1879461557124338e-01 4.8973235460986843e-02  -1.1992176522360662e-02 1.0792101390709478e-01 5.2641072481055040e-02  -1.3594907387598247e-02 1.1374538026836752e-01 4.9815531489478586e-02  -1.3826755312691270e-02 1.1863143559723348e-01 5.1505725639965999e-02  -1.0576815537844458e-02 1.1407552845442769e-01 5.2129533636513750e-02  -9.2336558907870330e-03 1.0758784581841842e-01 5.5858970694193939e-02  -1.0848727062038358e-02 1.1850734107900614e-01 5.4323097403202236e-02  -1.8672286307955550e-02 1.0148099311657055e-01 3.6704392548187796e-02  -2.2191789755888369e-02 1.1361198532551404e-01 3.9052710424329180e-02  -1.9886060121475421e-02 1.1422773855959453e-01 4.2620946486715175e-02  -1.6430231663999362e-02 1.0131660342296046e-01 4.0875436706510247e-02  -1.7845374307005047e-02 1.1466051894271623e-01 4.5472110886471254e-02  -1.4510553015717466e-02 1.0118731697917600e-01 4.4199964369812196e-02  -1.5996060462457024e-02 1.1491923059155923e-01 4.7857321467896702e-02  -1.2738134822079304e-02 1.0101325857702712e-01 4.7137618030802568e-02  -1.4350773385290862e-02 1.1491792363079451e-01 5.0263890587272930e-02  -1.0978573380056696e-02 1.0071095972661027e-01 5.0010655866922465e-02  -1.2604539759089969e-02 1.1490577708180991e-01 5.3636828734986895e-02  -9.0099960805915483e-03 1.0003058199981205e-01 5.3433382029389659e-02  -9.9037126789424494e-03 1.1427409341889547e-01 5.7214913923357646e-02  -6.8272214622250331e-03 9.8604312745669984e-02 5.8648754767054084e-02  -7.5796725852411775e-03 7.6856086416860994e-02 2.1313836598219570e-02  -6.2359112379884556e-03 6.8657485265260790e-02 2.0916006239967047e-02  -6.0170199749095838e-03 5.9043432647725574e-02 2.1404598948306649e-02  -7.5116123110313075e-03 6.9758746872777333e-02 2.6164579993111160e-02  -9.1104929130144379e-03 7.7714512366221303e-02 2.5866451426601437e-02  -4.8682725571623300e-03 5.7406818611358240e-02 1.6243722523633739e-02  -5.8235352387676631e-03 7.5858483589318654e-02 1.6544096594977232e-02  -4.8035387657554031e-03 6.7417977863425765e-02 1.5360988762652765e-02  -2.1077152829440813e-02 9.5920069525330109e-02 3.5403489857785610e-02  -2.0186570563879666e-02 9.3037217568751468e-02 3.5848528642635019e-02  -1.8596280634638088e-02 9.0827783200326834e-02 3.4760575786132175e-02  -1.6229435642069492e-02 9.1857140085692512e-02 3.5812714212812562e-02  -1.7645351917400895e-02 9.4460872475579424e-02 3.7363364874888290e-02  -1.8552051514372812e-02 9.7438474366426692e-02 3.5976650948870169e-02  -1.4448986005819568e-02 9.2580944330541870e-02 3.6842477139840540e-02  -1.5629061948372876e-02 9.5461517672057281e-02 3.8874210116937480e-02  -1.6606475022178345e-02 9.8502477394159529e-02 3.6586361077072284e-02  -1.2861804198019704e-02 9.3192494752942723e-02 3.7751433099034441e-02  -1.3872492775525640e-02 9.6269739901392065e-02 4.0346511358984052e-02  -1.4924773399119433e-02 9.9337839354411303e-02 3.7125898951700924e-02  -1.0754397062085131e-02 9.4167020006322100e-02 3.8574183193422151e-02  -1.1747829135771099e-02 9.7357351477575030e-02 4.1594953611664424e-02  -1.2781116821391394e-02 1.0043731540253241e-01 3.7483030657498972e-02  -2.4599330451151296e-02 1.3055088275440102e-01 4.4434670386420030e-02  -2.4283743123039069e-02 1.2271532785753761e-01 4.1474288945835103e-02  -2.5832762631047553e-02 1.2557704007038076e-01 4.3200321114395319e-02  -2.3885913083402498e-02 1.2736317974514494e-01 4.4431944671905629e-02  -2.2191459917885698e-02 1.2404772544543825e-01 4.3988975276349360e-02  -2.2664735652453073e-02 1.3215644099710183e-01 4.5862786698304507e-02  -2.1972135095919904e-02 1.2870247076173266e-01 4.5454994020010811e-02  -2.0186599578425335e-02 1.2498609169588316e-01 4.6127259048393571e-02  -2.0887077959080305e-02 1.3333801113609503e-01 4.7062170503964051e-02  -2.0157560868779976e-02 1.2968100975986560e-01 4.6343212760930327e-02  -1.8379508567844399e-02 1.2564521534496265e-01 4.7878386549569149e-02  -1.9221664992864620e-02 1.3413186211473460e-01 4.8058667085959350e-02  -1.8450251915277778e-02 1.3041080200608421e-01 4.7118096572567478e-02  -1.6622595506163986e-02 1.2609002050805912e-01 4.9425179139223077e-02  -1.7626236634050892e-02 1.3461387503440417e-01 4.8824676903600560e-02  -1.6548748963962100e-02 1.3127508502029853e-01 4.7960322035525492e-02  -1.4508009806504395e-02 1.2663089454757828e-01 5.1077317420446029e-02  -1.5568703308311485e-02 1.3512553142268777e-01 4.8945392076991015e-02  -1.3970082611666284e-02 1.3146989303813864e-01 4.9524887340768146e-02  -1.2179632080319983e-02 1.2611153748536397e-01 5.4286169110699660e-02  -1.3695108166826557e-02 1.3437700051964452e-01 5.1522724874633268e-02  -1.3081755080919279e-02 1.1188133506184117e-01 5.4636371368759186e-02  -1.5089410005140819e-02 1.2625742230668574e-01 5.5151207672819086e-02  -1.7369294412598428e-02 1.2001770296901022e-01 5.3566218221426938e-02  -1.6349733684501443e-02 1.2131481993427537e-01 4.8933996568058281e-02  -1.4214085988193516e-02 1.2750374114602875e-01 5.0651429310277093e-02  -1.2405414922368440e-02 1.1264187253509192e-01 4.8854936634852415e-02  -1.5490035937417853e-02 1.2224105934248798e-01 4.4953686546077606e-02  -1.3548004491786175e-02 1.2835641745270335e-01 4.6762236799087302e-02  -1.1873528052593832e-02 1.1323772603218006e-01 4.4126632033063551e-02  -1.4692534109261191e-02 1.2290874991810885e-01 4.1597983632805778e-02  -1.2989217741668212e-02 1.2894641416258421e-01 4.3475326246664711e-02  -1.1327655467300694e-02 1.1376300205947286e-01 4.0122707936672795e-02  -1.3724107209672114e-02 1.2338836512029704e-01 3.8662222479321134e-02  -1.2260575415303614e-02 1.2933117898172738e-01 4.0672324552448874e-02  -1.0401970768283319e-02 1.1422396075775008e-01 3.6254266153235327e-02  -1.2324103825928981e-02 1.2393160274098121e-01 3.5431336474727626e-02  -1.1188914436267329e-02 1.2915407364996867e-01 3.7685810998054806e-02  -9.1621880075339578e-03 1.1394792861853480e-01 3.1147281242172784e-02  -1.0784098348837435e-02 1.2362289339255031e-01 2.9730063917931922e-02  -9.9429071290971869e-03 1.2845200567476811e-01 3.1792683957449878e-02  -8.0181635926918418e-03 1.1334298976257690e-01 2.4694976942894079e-02  -2.1517107384937881e-02 9.9910461995523128e-02 3.7296100574483210e-02  -1.9099607497129700e-02 1.0070626860877147e-01 4.0365087948199568e-02  -1.6943519106951688e-02 1.0132271226531590e-01 4.2968715496741687e-02  -1.4951674758878389e-02 1.0181213495737633e-01 4.5420423540400948e-02  -1.2866504077872798e-02 1.0218968999308610e-01 4.8288703413555650e-02  -1.0790549233329973e-02 1.0189491099086354e-01 5.2013609912733287e-02  -7.8820670313865041e-03 1.0229396130091552e-01 5.4489084099427050e-02  -1.0506391866226934e-02 8.7733448071590864e-02 2.6832837252312121e-02  -1.2287726133232625e-02 8.7701129341050010e-02 3.0418743364334866e-02  -8.7379043150007472e-03 8.7333164660003723e-02 2.2133896694530485e-02  -6.7240786098756193e-03 8.6722507665161624e-02 1.7119724375988517e-02  -1.4906669506949678e-02 1.0740183623276928e-01 5.2323249110642692e-02  -1.8685599395054427e-02 1.1483302874645382e-01 5.1300187102591800e-02  -1.5981653067073366e-02 1.0167690142046200e-01 5.0069755817804790e-02  -1.4943759083941976e-02 1.0234410340288498e-01 4.4392895562464070e-02  -1.7566935978198524e-02 1.1618633408197208e-01 4.6686200189931241e-02  -1.4084196221636813e-02 1.0817088361513733e-01 4.6631617907525534e-02  -1.4041285481635602e-02 1.0288982081858861e-01 3.9917955322089076e-02  -1.6587978185118656e-02 1.1717874754353402e-01 4.2777703847906162e-02  -1.3366536608743564e-02 1.0879134124144833e-01 4.2054110312211297e-02  -1.3104733853852366e-02 1.0339947611204281e-01 3.6050806748233660e-02  -1.5638868430008095e-02 1.1797296250038947e-01 3.9476431371696388e-02  -1.2622239000096768e-02 1.0935484185084129e-01 3.8139378268650312e-02  -1.2004054518171816e-02 1.0375492987943082e-01 3.1926650760047193e-02  -1.4427461886621981e-02 1.1866764683335111e-01 3.6651059156475499e-02  -1.1629907479026539e-02 1.0985923610941377e-01 3.4528020920099725e-02  -1.0341393688405058e-02 1.0370224725628388e-01 2.6615149558961534e-02  -1.2779280246033461e-02 1.1894011828618403e-01 3.3243415013231095e-02  -9.8910411273509316e-03 1.0974127261565929e-01 3.0222383860487624e-02  -8.5991030219322081e-03 1.0340568569252138e-01 2.0513684091108819e-02  -1.0783030371061821e-02 1.1900457159882799e-01 2.7291987873049216e-02  -8.5325686237005035e-03 1.0934677764148823e-01 2.2828519962466584e-02  -9.8607161449974744e-03 9.6722369343535647e-02 4.6339781624988564e-02  -1.1099522430468666e-02 9.1010364521199941e-02 4.4274330363920700e-02  -1.0362844453974514e-02 9.1215056384472248e-02 3.9431281743353468e-02  -9.3552321585185887e-03 9.7094643985555187e-02 4.1376338926330185e-02  -9.5328480176903943e-03 9.1461431211021821e-02 3.5028525882194059e-02  -8.7545385775258614e-03 9.7503750935493017e-02 3.6937998698271371e-02  -8.4812106495031105e-03 9.1573372428417454e-02 2.9983143620625402e-02  -7.7928678120356403e-03 9.7814678299633973e-02 3.2025515983084368e-02  -7.2244239949256685e-03 9.1334697111761023e-02 2.3745258805513331e-02  -6.7946090726613345e-03 9.7572063646633830e-02 2.5685798512489182e-02  -6.0192205952308278e-03 9.0865725637861910e-02 1.6699165218481627e-02  -5.8342322658509783e-03 9.7116262184425262e-02 1.8485445942404581e-02  -2.0203736913450693e-02 1.0008838096085686e-01 4.2745083923386426e-02  -1.6869221797679065e-02 8.7613564868837618e-02 4.1723420236663346e-02  -1.8265258420638895e-02 9.5968362421677403e-02 4.4168536409651030e-02  -1.6722769406799471e-02 9.6516965521268483e-02 3.9400628604519206e-02  -1.5267817518089522e-02 8.7613459725299075e-02 3.7105981526650969e-02  -1.8476742011925409e-02 1.0104129835023207e-01 3.8721358471318391e-02  -1.5391729513130236e-02 9.6909017449886239e-02 3.5682043306528473e-02  -1.3846979497008575e-02 8.7625325708626162e-02 3.3582730307450313e-02  -1.7017171833894663e-02 1.0167530741701035e-01 3.5523519652830876e-02  -1.3960341362170952e-02 9.7271468491402016e-02 3.2416124748422925e-02  -1.5503487507413332e-02 1.0219806449873782e-01 3.2738174532970100e-02  -1.2230569836623606e-02 9.7562812158257142e-02 2.8713458042834414e-02  -1.3661709405503229e-02 1.0268080721455257e-01 2.9574220904703359e-02  -1.0353866656375747e-02 9.7552716973151585e-02 2.3982208665108782e-02  -1.1536824078411344e-02 1.0291739640896726e-01 2.5526218252788453e-02  -8.2266506170407747e-03 9.7267670016449800e-02 1.8816741426663258e-02  -9.1105080928522864e-03 1.0289938871422179e-01 2.1126792217163303e-02  -2.5759724940578779e-02 1.1871883014680047e-01 4.0926163802462175e-02  -2.6007159601145840e-02 1.1279892473239124e-01 3.9792219913989846e-02  -2.3775903960757672e-02 1.1477188823485795e-01 4.1128789230198727e-02  -2.3606586381427624e-02 1.2038269087465109e-01 4.2799879849168589e-02  -2.1670698575564373e-02 1.1632808764811357e-01 4.2334095379610817e-02  -2.1525613960096213e-02 1.2165418839323119e-01 4.4394017264301658e-02  -1.9765160387882008e-02 1.1758791377818617e-01 4.3468556561276295e-02  -1.9623491501080892e-02 1.2264591770872574e-01 4.5738530453872842e-02  -1.7832450571282462e-02 1.1868158604064684e-01 4.4502527808120425e-02  -1.7909969632240563e-02 1.2338718749956409e-01 4.7017787623336485e-02  -1.5406803337528210e-02 1.1941204955589688e-01 4.5833460104037597e-02  -1.5961740593134464e-02 1.2376168725843370e-01 4.8764099887913297e-02  -1.2286364235463908e-02 1.2027542009007110e-01 4.7065055654907310e-02  -1.2625519994237859e-02 1.2418283187396453e-01 5.0774658833205331e-02  -1.9077502760106075e-02 9.5089873345415937e-02 3.5428694153774129e-02  -1.6708435887833072e-02 9.4983095923754327e-02 3.9252890460120135e-02  -1.4639171926819350e-02 9.4887453750063827e-02 4.2409874566745477e-02  -1.2710039269760323e-02 9.4739345776035946e-02 4.5260531043279824e-02  -1.0768898944210313e-02 9.4434099236594779e-02 4.8206603658635883e-02  -8.9633720817276653e-03 9.4100969605868015e-02 5.2047161487799490e-02  -6.5534076007021892e-03 9.3279666607700734e-02 5.6030619487364423e-02  -2.0799837604796895e-02 9.4415924184996475e-02 3.6738491362697266e-02  -1.7683913996977912e-02 8.4450454621878362e-02 3.5468546099599707e-02  -1.8623663178508974e-02 8.7519254591148135e-02 3.6007426333666090e-02  -1.6117402025895490e-02 8.8353907798875586e-02 3.8523785086238820e-02  -1.5277551434245928e-02 8.4846018501695153e-02 3.8444725106404308e-02  -1.8293545250710946e-02 9.5446200254812291e-02 3.9396182779152071e-02  -1.4048725635398161e-02 8.8878314379515475e-02 4.0927915344366836e-02  -1.3219028789006618e-02 8.5057915053466909e-02 4.1193968258252098e-02  -1.6145160490867217e-02 9.6195016492568383e-02 4.1787089116689456e-02  -1.2173101127930601e-02 8.9278314352436453e-02 4.3313753548020098e-02  -1.1321989811566124e-02 8.5180241938858217e-02 4.3922761329862163e-02  -1.4195144155434342e-02 9.6789193352962322e-02 4.4127190505392065e-02  -1.0086375538091701e-02 8.9918489988541350e-02 4.5540719196968504e-02  -9.2531899433031944e-03 8.5515074546388556e-02 4.6538201093945679e-02  -1.2149616602487336e-02 9.7420025509400474e-02 4.6462825241123253e-02  -7.9205682959513201e-03 9.0455997602123250e-02 4.8031356882168398e-02  -7.1979832502605421e-03 8.5521443379255060e-02 4.9577344250104689e-02  -9.8541475359371355e-03 9.7725177092273560e-02 4.9107708318929619e-02  -5.5263662832604104e-03 9.1139091620314458e-02 5.0479959294810556e-02  -4.8648678578625008e-03 8.5686323529711325e-02 5.2572811621158372e-02  -7.1053081363807490e-03 9.8315652709338758e-02 5.1718608499870568e-02  -1.288514181