<?xml version="1.0"?>
<VTKFile type="UnstructuredGrid"  version="0.1"  >
<UnstructuredGrid>
<Piece  NumberOfPoints="710" NumberOfCells="2979">
<Points>
<DataArray  type="Float64"  NumberOfComponents="3"  format="ascii">6.136166158715032 3.822571241300565 3.274886713764307  6.222709764726726 3.903240936330124 3.233301474856872  6.159754876272062 3.893551683049547 3.147282827938702  6.124341676795716 3.944699879429323 3.168865309765043  6.185014255098896 3.953153403802282 3.258233508213139  6.105755736591256 3.876258330530458 3.300292664108877  6.075609419627858 3.930134289264108 3.32573086346799  6.147660909661735 4.003454231840695 3.283207162570597  6.089237524357851 3.996198876695072 3.190469208989109  6.045545838065894 3.984212870036775 3.351248995851003  6.110405055972965 4.053934815241482 3.308259444701666  6.054216409314396 4.04792004140217 3.212155883768835  6.0154319766718 4.038395630702425 3.376848665546305  6.073073968944207 4.10450700499042 3.333379983959187  6.019111480349337 4.099765041198624 3.233916986313173  5.983742961802297 4.151664299348034 3.255712749459991  6.035459349720901 4.155098954266355 3.358541155388977  5.98509901820474 4.092702798264269 3.402504169489289  5.947713189505186 4.203452815253006 3.277561785392614  5.997129415149553 4.205497362368132 3.38373999971797  5.954215323704203 4.147139456752471 3.428239807947751  6.033015285135861 3.957036522866772 2.485090290710156  6.005692477651858 3.926858314443983 2.623887975571126  6.112815556335619 4.004067308679018 2.582912431269406  6.077059231394999 4.055807499475136 2.587836388054631  5.971395285136457 3.977868932939475 2.631269583228787  5.999000536452023 4.008912784416517 2.488498219165445  5.937427766078018 4.029320697335232 2.638608184443515  5.965309347618031 4.061246353196456 2.491892539814128  6.041601041523227 4.108002364920687 2.592736643536631  5.903408171802544 4.081026352057269 2.645988212187662  5.931637217254336 4.113833288957746 2.495315822428493  6.006205339646885 4.160430608382407 2.597666101272193  5.869205130155776 4.13288713359384 2.653404401193326  5.897812226331258 4.166510854488606 2.498774558822274  5.970693063381772 4.212922607886663 2.60263233786044  5.863664498807376 4.219155985289006 2.50227033297276  5.834576158437923 4.184812660410462 2.660871594161703  5.934925120226441 4.265309579643115 2.607647934454209  5.828981811865893 4.271613139161663 2.505804412856929  5.799329108731897 4.236589667773156 2.66842964571068  5.898669936146946 4.31743923815168 2.612704219009634  5.733735295330242 4.031395138303977 2.023438990853864  5.657719962393249 4.013329018849689 1.879796099278702  5.778527954554974 4.053002277878773 1.87595975212305  5.678458264204282 3.950848401921297 1.881984508684221  5.757863397661137 3.972066691355431 2.023004902997647  5.756574290363064 4.115039113589663 1.871038938640301  5.709496580552551 4.090938281862366 2.023903721333174  5.63687485596162 4.076058113086777 1.877635368296881  5.734416551590543 4.177160160692333 1.866189116335573  5.684969130886293 4.150628773730016 2.024470152911679  5.61574591094383 4.13903302613814 1.875592713633348  5.711913845365187 4.23930759525157 1.861463614401032  5.659920163350006 4.210397463308258 2.025213336134686  5.594146706867406 4.202213845138335 1.873748808674332  5.503816972730406 3.717745363490922 2.446694785063803  5.608876105370785 3.753622772771769 2.329880235840471  5.475060755578077 3.720138047809851 2.324768893597981  5.46316265760479 3.778037997413046 2.328494914240889  5.591216155660037 3.810208239556239 2.335248452937499  5.492629250691381 3.775703699126632 2.450275699188259  5.48151216689492 3.83387227392096 2.453987056365051  5.573726683345972 3.867168672328784 2.340654975647356  5.451324847591845 3.836300534791802 2.332304486002881  5.470332435309651 3.892379048185086 2.457747531513054  5.556184580138972 3.924445182062482 2.346113330518509  5.439428264594548 3.894896545693953 2.336171609523839  5.538491619331985 3.982020471717504 2.351597708200103  5.459021590550446 3.95127805952368 2.461525646150141  5.427415743970467 3.953902475649028 2.340066515079156  5.520542130513414 4.040031866005188 2.357139304854186  5.447568455190455 4.010649953934611 2.465275325420519  5.415254841554984 4.013385387946191 2.344005843177225  5.502149290133665 4.098618274431161 2.362833189573159  5.436041137504592 4.070716606904687 2.46899353617808  5.402841018197978 4.073551769840385 2.34798261690842  5.955816304409664 3.812396134582933 3.027939686655101  5.994743245626038 3.862953996096322 2.905567548624556  5.875984398046093 3.804916230683712 2.909106148925267  5.851100558697389 3.860999373930781 2.919387908605414  5.963665835130034 3.916096941122914 2.916855671831525  5.929275401211817 3.868270289129236 3.041942431692714  5.902890644539897 3.924369386407581 3.056003953511937  5.932802737370827 3.96962159313811 2.928153402521537  5.826318119382653 3.917399927362311 2.929766630691297  5.876541950230967 3.980701159118842 3.070116072324304  5.901953521222571 4.023384263549272 2.939498381853149  5.801534736075917 3.97403873456064 2.940181960933346  5.850093548341252 4.037215538451929 3.084281561915555  5.870968425970766 4.077334156628556 2.950896140820355  5.77662839005212 4.030911833021201 2.950629523213366  5.823444306969642 4.093945757820519 3.098445621084384  5.839680129815836 4.131457168770607 2.962342058503137  5.75150593587099 4.088104616561759 2.961050930445106  5.807797936915681 4.185674342417721 2.973823407464133  5.796237328913136 4.151067134807614 3.112609752199065  5.725873517385177 4.145868147524881 2.971472667456308  5.907275941645332 3.765583004466432 3.152838751031717  5.831658128152075 3.768521863212402 2.999702724986903  5.811494161657934 3.827340031894322 3.009837606737384  5.886592415784807 3.825406042908241 3.167891319348152  5.791351720356103 3.886376667343137 3.020110608501883  5.865951522939557 3.885343721285208 3.183056322732894  5.771201209676156 3.945635122019731 3.030453300198979  5.845290971821086 3.945459205943873 3.198294062007385  5.750961604329127 4.005113546939129 3.040836725208018  5.824570969300063 4.005770065971142 3.213578319648778  5.730611817838883 4.064901308836649 3.051187391622388  5.803748198952219 4.066394827001088 3.228870462929969  5.710191168680228 4.125231177058276 3.061443867287865  5.782831920421403 4.127635757659182 3.244100145007581  5.988848805943825 4.282066803763691 1.900507104645354  5.928173005631683 4.243627742553975 1.793236940378828  6.047290040468973 4.271335649023044 1.710234757099518  5.950527930260407 4.182132721272498 1.804182341986012  6.013511050077674 4.222528469848848 1.911020279065448  6.02731156843045 4.332478156754011 1.693585538122784  5.963837950846921 4.341404400016172 1.890000941346344  5.905498391559152 4.305040313521369 1.782307834392505  6.280491086515354 4.117740947791112 2.663498268874296  6.296397624963699 4.105411086288909 2.831994576040755  6.365077596748239 4.174020413317361 2.740937593059936  6.327128890187447 4.230689257558859 2.746786595650759  6.256338764132637 4.158095285805604 2.842701128357591  6.24274054661562 4.171912704514685 2.668015685283197  6.289715395711887 4.287549697958701 2.752543517139334  6.216682890509758 4.21113877381593 2.853334023670448  6.205451846345365 4.22635626504315 2.672453405062706  6.252561326600092 4.344418015933704 2.758294252855424  6.17721254944169 4.264329591939813 2.863981484426617  6.168401081669483 4.280904509198016 2.676889838263557  6.21546370304655 4.401173984810493 2.764072637404557  6.137747695182673 4.317491287944208 2.874677857363377  6.13138494054353 4.335406689301482 2.681377099110424  5.650758274975062 3.734831860289661 2.753530940741861  5.75955990230649 3.761440407434661 2.865362909851531  5.769475518690051 3.780374744619796 2.735131183817155  5.746681744242399 3.836121371658344 2.740597160443508  5.739492989062611 3.819191804805048 2.871635574480625  5.635020778536047 3.793012726165429 2.757115195607874  5.724006967870227 3.892179214122858 2.746182590507337  5.719438053977131 3.877255683958189 2.878030905725432  5.619286951362961 3.851473518471013 2.760872380685994  5.701283290005815 3.948507366076147 2.751778517475185  5.699360196848231 3.935574495563808 2.88448283864084  5.603474947114993 3.910208851723247 2.76468280395189  5.67842144894999 4.005122696685859 2.757373251251521  5.679192504346584 3.994158667792446 2.890938184003399  5.587580140287698 3.969244384297457 2.7684713328207  5.655314687153137 4.062118530899368 2.762920974057126  5.658895138899919 4.05308429337381 2.89731930337835  5.571582000642414 4.028643942018262 2.77217207568438  5.631713733235466 4.119638167038427 2.768382653529414  5.63839289926868 4.112534519869802 2.90354270142397  5.555464407182222 4.088630011039942 2.775681235393195  5.432086804788863 3.725551223670982 2.083418426908465  5.373383869337287 3.707325480774589 2.234984843767408  5.510190167420771 3.736054196303498 2.198178329437145  5.49546445240573 3.794031755337168 2.202570758182116  5.364752969996205 3.766177578993104 2.238336198441971  5.41990163934229 3.785182598348436 2.087194526977004  5.480833527520605 3.852444552378924 2.206976319959705  5.356163865390113 3.825293185352383 2.241754889218101  5.407785111783633 3.845148725209032 2.090938757008863  5.466158124133659 3.91122904339598 2.211420438340918  5.347530500223264 3.88481953240729 2.245214002171014  5.395641546148254 3.905490113743769 2.094700314066865  5.451363292160784 3.970393782439534 2.215905839310377  5.338806040483099 3.944752136216885 2.248707234585976  5.383396460404095 3.966222331670606 2.098517855264732  5.436360838448304 4.029977204798141 2.220479948354265  5.329969017448806 4.005144584399792 2.252248339895806  5.370973888055492 4.027397562826971 2.102457293030227  5.420969128663419 4.090046159999485 2.225243960424578  5.321045550244237 4.066087066847752 2.255866553297248  5.358204159925323 4.089157358235858 2.106621516431397  6.075145378582302 3.882265396221322 3.040772027601136  6.041574170566144 3.934710854235421 3.05
[...]
<PointData  Vectors="f_24"> 
<DataArray  type="Float64"  Name="f_24"  NumberOfComponents="3" format="ascii">-2.2447912761507486e-02 1.0913621781898744e-01 5.0773466356795610e-02  -2.3882042927210856e-02 1.0707086551076565e-01 5.1351912544983176e-02  -2.6293203734789931e-02 1.1730949305440287e-01 5.2652472434396150e-02  -2.2943732798950772e-02 1.1784499929439021e-01 5.6666931928666578e-02  -2.0766151425732897e-02 1.0720522100053788e-01 5.5368747666260064e-02  -1.9482947184145141e-02 1.0851734326418162e-01 5.5336953532664816e-02  -1.7120259387985837e-02 1.0819974260432300e-01 5.8770561290325395e-02  -1.8322948969463088e-02 1.0737209805570508e-01 5.8653400537449350e-02  -2.0370205489646090e-02 1.1833391114314194e-01 5.9770411459194595e-02  -1.4916358202020015e-02 1.0792473508191888e-01 6.2044432328327265e-02  -1.6062735468497423e-02 1.0752596407967986e-01 6.1951693692529959e-02  -1.8131472573928557e-02 1.1875548786447926e-01 6.2814754955013485e-02  -1.2583106878533069e-02 1.0757471796844265e-01 6.5532383004169956e-02  -1.3411832699353012e-02 1.0794338141886631e-01 6.5375036289581467e-02  -1.5623300255103705e-02 1.1927703279044601e-01 6.6203362384986156e-02  -1.3262940232441945e-02 1.1861749858589696e-01 7.1720083469044515e-02  -1.0835505722026836e-02 1.0756496359258819e-01 7.0217501142491714e-02  -9.9512587195152036e-03 1.0651684381237196e-01 7.0375651280724358e-02  -9.8775420902212432e-03 1.1919024980652111e-01 7.5314271535976501e-02  -7.9992438564122810e-03 1.0724124238400201e-01 7.4869915407401053e-02  -7.2488304903170712e-03 1.0500101503690562e-01 7.5914490754639644e-02  -3.5717029591460191e-02 1.4533635662195588e-01 5.3076485338230832e-02  -3.6336562494203785e-02 1.4975157879721565e-01 5.4754081715674086e-02  -3.5518693186720129e-02 1.3885270772301669e-01 5.1124818146883959e-02  -3.1913728200257736e-02 1.4176571938446159e-01 5.1148753195273435e-02  -3.2994927694991780e-02 1.5281461393427509e-01 5.5118515847840450e-02  -3.2470118340251541e-02 1.4828886803818958e-01 5.1864476083662923e-02  -3.0177424481707685e-02 1.5514237804043876e-01 5.5649588717999965e-02  -2.9867585614008259e-02 1.5043397503584022e-01 5.1308244247328431e-02  -2.9144314655041935e-02 1.4388425403153227e-01 5.1556185538957786e-02  -2.7999797629538560e-02 1.5704927637554944e-01 5.6294907422057699e-02  -2.7836464616103129e-02 1.5212062808801033e-01 5.1068849807950678e-02  -2.7059695062795364e-02 1.4552873272885755e-01 5.2053346291454507e-02  -2.5874457476752859e-02 1.5889109225768949e-01 5.7009542226488581e-02  -2.5553894323671195e-02 1.5392337817262036e-01 5.0566387432569193e-02  -2.4402566340174500e-02 1.4753569852329546e-01 5.2094538333174310e-02  -2.1879933120442886e-02 1.5612645896569283e-01 4.9106323473626444e-02  -2.2329433985784845e-02 1.6075730464020646e-01 5.7313137716775708e-02  -2.0726374382980441e-02 1.4995300718586518e-01 5.1910282474020429e-02  -1.7683705747931249e-02 1.5801647153691964e-01 4.7537615006638216e-02  -1.8080325903710177e-02 1.6278363818740949e-01 5.7456593730424103e-02  -1.6520925278063904e-02 1.5224704098622188e-01 5.1672304764800413e-02  -1.7230076691070243e-02 1.3011375170657563e-01 4.4362496543167214e-02  -1.1258006963750879e-02 1.1285270764401895e-01 4.3426190054815107e-02  -1.2927046516285562e-02 1.0805148364316627e-01 4.1854481494776094e-02  -1.2651331405973151e-02 1.1234110818127543e-01 4.7405768517165152e-02  -1.8700485997738617e-02 1.2925919594315616e-01 4.7636210568241681e-02  -1.0680173850603231e-02 1.0814535378087263e-01 3.6697112665482833e-02  -1.5234746652372781e-02 1.3079297678455060e-01 3.9963226047999387e-02  -9.3662871491225468e-03 1.1295444833878342e-01 3.7424297583437745e-02  -8.7894882660622554e-03 1.0743133684884246e-01 2.8669197081915735e-02  -1.2944449515476476e-02 1.3100629571943623e-01 3.2797924071999870e-02  -7.4959132428489743e-03 1.1253855935876647e-01 2.8812410550046772e-02  -6.7377788511396482e-03 1.0647826375846599e-01 2.0059174007523640e-02  -1.0494341910273236e-02 1.3077975898481689e-01 2.4904101025755215e-02  -5.6930084709522124e-03 1.1178915433555613e-01 1.9411232977995810e-02  -2.4792264979039271e-02 1.8156259526785762e-01 6.8915247988540526e-02  -2.6219831862530296e-02 1.6987288504083412e-01 6.7357191805026043e-02  -2.1021138231722292e-02 1.7553596511651565e-01 7.0325529996089792e-02  -1.9588367453251664e-02 1.7741157525363146e-01 6.5778710242757124e-02  -2.4385237226910474e-02 1.7204952339312837e-01 6.3130607753978413e-02  -2.2964380623381780e-02 1.8375727169575620e-01 6.6263202802869584e-02  -2.1458935769571745e-02 1.8525423518167594e-01 6.4010551175265024e-02  -2.2915590356179901e-02 1.7363168012814917e-01 5.9833261828911438e-02  -1.8534057718404294e-02 1.7868938099170883e-01 6.2160460242272349e-02  -2.0301666087643434e-02 1.8625751496458076e-01 6.2339090700046763e-02  -2.1758283395835600e-02 1.7486121870519347e-01 5.7510035534923690e-02  -1.7775628612887465e-02 1.7964456361075742e-01 5.9575889839867724e-02  -2.0479718685135238e-02 1.7591357513699382e-01 5.5710129603415426e-02  -1.9078035747916978e-02 1.8704494456504750e-01 6.1034012102764039e-02  -1.6781823053083386e-02 1.8044687069549353e-01 5.7555444927870951e-02  -1.8419183917585055e-02 1.7737592165864785e-01 5.3250568992268779e-02  -1.6878295486786141e-02 1.8816133314543049e-01 5.8717864125270136e-02  -1.4700569121346416e-02 1.8166115548867787e-01 5.4673283566909196e-02  -1.5667127373276399e-02 1.7823677059301665e-01 4.8205918563107394e-02  -1.4862228721530958e-02 1.8830024047930266e-01 5.6172482772427826e-02  -1.2957794563506935e-02 1.8182807526525199e-01 4.9392581937507667e-02  -2.8526325361956179e-02 1.4013591196208383e-01 5.5691572217360694e-02  -3.2680166322270277e-02 1.4431430507546916e-01 5.5766919024766833e-02  -3.1005356151482186e-02 1.5345789766389756e-01 5.7644253115303093e-02  -2.7714227223516592e-02 1.5482136805192720e-01 6.1367962331041283e-02  -2.9125025950929431e-02 1.4616094426570184e-01 5.9064223235754457e-02  -2.5214930002270260e-02 1.4087572645171392e-01 6.0053868047937144e-02  -2.2614520975264410e-02 1.4165667173996779e-01 6.2941431744898274e-02  -2.6261679890848166e-02 1.4775277915846122e-01 6.1332803492698339e-02  -2.4997472231174982e-02 1.5600565259365803e-01 6.3747087040538067e-02  -2.0456507453882590e-02 1.4234615602555289e-01 6.5357467951785583e-02  -2.4005889847672501e-02 1.4912812191328165e-01 6.3308145024902743e-02  -2.2796461215007797e-02 1.5704987617072266e-01 6.5598327541348728e-02  -1.8443494087856820e-02 1.4278854066111635e-01 6.8037717677454451e-02  -2.1791496441497325e-02 1.5044577588427149e-01 6.5678277878092495e-02  -2.1101509054502844e-02 1.5786447848507823e-01 6.7756346863475536e-02  -1.6393416604482708e-02 1.4275637809930380e-01 7.2960999954156905e-02  -1.8883051427194399e-02 1.5077501055572520e-01 6.9061871422816820e-02  -1.8323810950039068e-02 1.5786647200487361e-01 7.1058912105698105e-02  -1.5021032678271318e-02 1.5156771832824611e-01 7.2338870214728734e-02  -1.2908386538025993e-02 1.4261484978122269e-01 7.7428515938268147e-02  -1.4507752037219480e-02 1.5800707319672722e-01 7.5119677325646450e-02  -2.2961096096509138e-02 1.3281713369742731e-01 5.5066012909599511e-02  -2.7325334718177004e-02 1.5033316993421392e-01 5.7337311514594501e-02  -2.4227233960344194e-02 1.5096911226702656e-01 6.2030538674036406e-02  -2.0171003057399224e-02 1.3261602425720934e-01 6.0232151275911930e-02  -2.1816458837345523e-02 1.5161085739091634e-01 6.5010095524279984e-02  -1.8057194382761890e-02 1.3274115847198079e-01 6.3632640541916835e-02  -1.9811280681759160e-02 1.5215315089001702e-01 6.7209867004312682e-02  -1.6183954188730674e-02 1.3289738039380003e-01 6.6483377569918109e-02  -1.8266833601221489e-02 1.5238285722236791e-01 6.9610419499670950e-02  -1.4437841116310033e-02 1.3284110286394510e-01 6.9548764022214576e-02  -1.6499914732505047e-02 1.5262597714561010e-01 7.3685632169994394e-02  -1.2203991829398308e-02 1.3205175378311998e-01 7.3892521909774175e-02  -1.2968708452363573e-02 1.5201613730499647e-01 7.8919279909831691e-02  -9.4718325062268845e-03 1.3028483860580317e-01 8.1077424698777018e-02  -1.2054060489028229e-02 1.0222338195157113e-01 2.8879945440685385e-02  -9.3730544081909156e-03 9.1621563877684345e-02 2.8249469679435080e-02  -9.7844077137358900e-03 7.8296661573247883e-02 2.8821560235505642e-02  -1.1082958353458783e-02 9.2827092374922621e-02 3.5417330935039071e-02  -1.4158447667417751e-02 1.0300788825858294e-01 3.5032721314854048e-02  -8.2188325865591716e-03 7.6361261318953710e-02 2.1842532417366840e-02  -9.6592714030943085e-03 1.0120342351458680e-01 2.2465259933877636e-02  -7.4370100978146296e-03 9.0197020800317287e-02 2.0716039924646459e-02  -3.1803124097357548e-02 1.2283997938514489e-01 4.7508970810519205e-02  -3.0201997605741861e-02 1.1873707376595417e-01 4.9047896152686545e-02  -2.8849603426247438e-02 1.1510394732031082e-01 4.6859064498862721e-02  -2.5531020678634917e-02 1.1657327321428966e-01 4.8521262064589878e-02  -2.6537222194693687e-02 1.2077050718305592e-01 5.1223927102574708e-02  -2.8125876980032476e-02 1.2500107292667309e-01 4.8533007560167735e-02  -2.3225246629248582e-02 1.1762049909187894e-01 5.0097089142919118e-02  -2.3904825468187799e-02 1.2220522960925308e-01 5.3320820825099473e-02  -2.5550632565024774e-02 1.2651796173784408e-01 4.9671708960508425e-02  -2.1386136579974548e-02 1.1851381382304980e-01 5.1393914480077074e-02  -2.1893973381323512e-02 1.2336465039810492e-01 5.5271783808624901e-02  -2.3608168372696525e-02 1.2771583649843626e-01 5.0642495687774652e-02  -1.8471320784032338e-02 1.2022494633213449e-01 5.2527768965982359e-02  -1.9145354176100710e-02 1.2518630319379584e-01 5.6879658510000000e-02  -2.0808583615498942e-02 1.2954478891246127e-01 5.1225356020749249e-02  -2.9886620071019904e-02 1.7526799347705205e-01 6.1832492116216699e-02  -3.0120708033818375e-02 1.6378973700827956e-01 5.9196830177800121e-02  -3.2996487148024251e-02 1.6832052333767178e-01 6.0185203436287006e-02  -3.0116932806452151e-02 1.7053481280983931e-01 6.2105699530756030e-02  -2.7088953101064312e-02 1.6521621425104616e-01 6.2883323030767130e-02  -2.7214057772646755e-02 1.7717678938058709e-01 6.4112124202603676e-02  -2.7425328412399856e-02 1.7216154466047617e-01 6.3436113977582392e-02  -2.4527187238987367e-02 1.6634767943501139e-01 6.5286204771258433e-02  -2.4844742922246546e-02 1.7850473433549460e-01 6.5798703945286002e-02  -2.5212545612745552e-02 1.7343094489977273e-01 6.4307033763634849e-02  -2.2480568520451404e-02 1.6725741676003911e-01 6.6891873689044368e-02  -2.2917709063113433e-02 1.7947003364067002e-01 6.6772682128311389e-02  -2.3410066545603275e-02 1.7449045306326777e-01 6.5114738014844159e-02  -2.0684718646653368e-02 1.6799113823062975e-01 6.8407382746458634e-02  -2.1294577828622128e-02 1.8019391279538557e-01 6.7511481030884821e-02  -2.1373585206997642e-02 1.7601078386902197e-01 6.6075819654883378e-02  -1.8273400799165625e-02 1.6909529357305647e-01 7.0225394517844500e-02  -1.8894052781934834e-02 1.8118999681324924e-01 6.7356655859125397e-02  -1.8218352321071316e-02 1.7677430962918203e-01 6.8593284727246517e-02  -1.5546882330676982e-02 1.6875095809583812e-01 7.4962552174024408e-02  -1.6860577779099876e-02 1.8049291998897646e-01 7.1372982684098071e-02  -1.2107722414695548e-02 1.5136394169439379e-01 6.9813203623482339e-02  -1.4041354485037981e-02 1.7085506571396483e-01 7.2031812499332853e-02  -1.8843559172953765e-02 1.6276009838087149e-01 6.9562972999111822e-02  -1.7693265678035683e-02 1.6418121462857255e-01 6.3311022387812943e-02  -1.3228316228026952e-02 1.7223488223997716e-01 6.6006135752866554e-02  -1.1503572784382058e-02 1.5205707907215094e-01 6.2261384007728716e-02  -1.6966954290680236e-02 1.6526216628432272e-01 5.8779318697119262e-02  -1.2846532944760852e-02 1.7324813271959033e-01 6.1543413184522382e-02  -1.1248970296623254e-02 1.5291813468313137e-01 5.7256723420787914e-02  -1.6389761516982772e-02 1.6623825369978615e-01 5.5559469000400485e-02  -1.2646478973682486e-02 1.7417801606528951e-01 5.8379181211394515e-02  -1.1031648486281652e-02 1.5388472346585355e-01 5.3458642724461367e-02  -1.5430684039969179e-02 1.6713992831077801e-01 5.2831992428087886e-02  -1.2063575763701885e-02 1.7504500004164916e-01 5.5737881843154133e-02  -1.0152808437295097e-02 1.5493800604110672e-01 4.9668600586567462e-02  -1.3533272087408467e-02 1.6842181488642563e-01 4.9636865062657964e-02  -1.0634324710211703e-02 1.7526077561278178e-01 5.2754043873825332e-02  -8.3573162678613287e-03 1.5494654976112884e-01 4.3272994971795632e-02  -1.1730224909883074e-02 1.6839469479514407e-01 4.1886567820494762e-02  -9.2513773170645845e-03 1.7471892130055344e-01 4.4778099580117622e-02  -6.9294834470884211e-03 1.5442343287138702e-01 3.4668551794397408e-02  -2.8846196087593947e-02 1.3031596716875912e-01 5.4626396727848574e-02  -2.5464194875849947e-02 1.3149757276261476e-01 5.8394866455702549e-02  -2.2814044370913333e-02 1.3255801039208545e-01 6.1157743896234233e-02  -2.0582822538142868e-02 1.3348417776335711e-01 6.3782784363525899e-02  -1.8082973237968272e-02 1.3438841938953616e-01 6.7070474020190105e-02  -1.5548643620737310e-02 1.3418441837101214e-01 7.2441003804526949e-02  -1.1864679421913726e-02 1.3507276324599707e-01 7.5752452391088632e-02  -1.5317736090476196e-02 1.1705196331490771e-01 3.6473643103524044e-02  -1.7854906838559663e-02 1.1645525825280785e-01 4.0321478457542595e-02  -1.2944784267349390e-02 1.1685213085992775e-01 3.0074612693698908e-02  -1.0223022445175773e-02 1.1633946075553524e-01 2.3307508229633907e-02  -1.6111209375961451e-02 1.4518374857728422e-01 6.6505165800028451e-02  -2.2051986690528110e-02 1.5556198994075557e-01 6.6192507328623459e-02  -1.9008741966870892e-02 1.3701997432728522e-01 6.3161218065477934e-02  -1.7750738540727663e-02 1.3769078133965745e-01 5.5945019654869095e-02  -2.0664534788227714e-02 1.5708065739002372e-01 6.0008910045237465e-02  -1.5252492400261511e-02 1.4594651810367190e-01 5.9161097962773752e-02  -1.6829150556216404e-02 1.3856255337684409e-01 5.1424532229382230e-02  -1.9722370323083886e-02 1.5829197508761852e-01 5.5717520563108733e-02  -1.4678285174972426e-02 1.4687163784002152e-01 5.4442502853858030e-02  -1.5879431488517497e-02 1.3954221674192854e-01 4.7864247131448975e-02  -1.8896147257041834e-02 1.5944165893104445e-01 5.2609630764745480e-02  -1.4119015913242957e-02 1.4787672062791271e-01 5.0774219686589434e-02  -1.4723728522907658e-02 1.4030760880415838e-01 4.3618641062974285e-02  -1.7591561154476021e-02 1.6064747768814255e-01 4.9976960391985945e-02  -1.3138341169861468e-02 1.4898614307128297e-01 4.7203337471861048e-02  -1.2418318692084549e-02 1.4052975053646807e-01 3.6564313269291326e-02  -1.5314003417005803e-02 1.6141940216545020e-01 4.6636580614146710e-02  -1.0556267300757181e-02 1.4917261572699264e-01 4.2843946458534968e-02  -1.0075993337517292e-02 1.4034937518250981e-01 2.8388141209819785e-02  -1.2731415344440659e-02 1.6187276464362152e-01 3.8297125868388245e-02  -8.8779491716221692e-03 1.4881029010693400e-01 3.2135179772983642e-02  -8.4944506019994179e-03 1.3003992723358718e-01 5.8323366471184336e-02  -1.1701181310998501e-02 1.2197945986829788e-01 5.5460655866017831e-02  -1.0985571133892581e-02 1.2266193023237694e-01 5.0726046052470025e-02  -8.1840111748137812e-03 1.3087709670790526e-01 5.3410897559750883e-02  -1.0192838684742906e-02 1.2344496307065124e-01 4.6610514135513433e-02  -7.8116084679217268e-03 1.3185778454869518e-01 4.9241742646555328e-02  -8.9706889435532105e-03 1.2398474305753916e-01 4.1035711349937019e-02  -6.6435246299516564e-03 1.3277266045736280e-01 4.3961854925628666e-02  -7.0943844088306876e-03 1.2396524254333673e-01 3.2550948616525445e-02  -5.2093554702739254e-03 1.3277320255279684e-01 3.5418615368596251e-02  -5.4801205915055717e-03 1.2352083432956124e-01 2.2944733475915836e-02  -4.0039616426191041e-03 1.3234859449014266e-01 2.5695701569278671e-02  -2.7715095061925332e-02 1.3303603993572341e-01 5.3984648925622047e-02  -2.3488866118517391e-02 1.1530428972017842e-01 5.1958816043058298e-02  -2.4544670587018452e-02 1.2777785154649215e-01 5.5390212154183591e-02  -2.2539167866095618e-02 1.2848989341654049e-01 4.9551108326429380e-02  -2.1490097881651994e-02 1.1544416794906491e-01 4.6512278856874874e-02  -2.5366355263493838e-02 1.3433659496711184e-01 4.9071522179398468e-02  -2.1000115805927918e-02 1.2922762525318965e-01 4.5928454417641720e-02  -1.9835203441592012e-02 1.1584933228276628e-01 4.3171386480982940e-02  -2.3669225650653672e-02 1.3534376710024390e-01 4.6007035129307490e-02  -1.9269100188297732e-02 1.3008333716709747e-01 4.3050445114201814e-02  -2.1863837879784229e-02 1.3634848103267611e-01 4.3635445521253736e-02  -1.6936230245686683e-02 1.3087998174304499e-01 3.9130282100614026e-02  -1.9448866061486242e-02 1.3739893865231276e-01 4.0335002342208846e-02  -1.4442294292225275e-02 1.3119553886689569e-01 3.2673702524879972e-02  -1.6593181119048915e-02 1.3812258022405019e-01 3.4825998187245438e-02  -1.1603036149537505e-02 1.3109948972310656e-01 2.5673974839212205e-02  -1.3338491519212389e-02 1.3845583078737425e-01 2.8897312631876310e-02  -3.3728364415432865e-02 1.5811622873214598e-01 5.7910078525737776e-02  -3.5688174914050567e-02 1.4912120273532659e-01 5.5533169655978709e-02  -3.2146726881804970e-02 1.5179660703885392e-01 5.7428390637047660e-02  -3.0442689964737112e-02 1.6016177081472835e-01 6.0630917508008940e-02  -2.9181068589161457e-02 1.5394012966148965e-01 5.8878092081709542e-02  -2.7601585255715922e-02 1.6182293232190315e-01 6.2394314766250014e-02  -2.6868225300258213e-02 1.5574983207108595e-01 6.0242267053264048e-02  -2.5320425258728130e-02 1.6323018997391392e-01 6.3695417099111598e-02  -2.4741408571527439e-02 1.5745015269481186e-01 6.1522891627251379e-02  -2.3605474171934756e-02 1.6438621143832027e-01 6.5032050169663930e-02  -2.1745268524966214e-02 1.5868714970307671e-01 6.3425979844404623e-02  -2.1742604319047489e-02 1.6508618962145227e-01 6.7155774736731233e-02  -1.7645898163627174e-02 1.6028465729730176e-01 6.5238918506621418e-02  -1.7126685221466684e-02 1.6614162739794816e-01 7.0291459596954653e-02  -2.4850541122135878e-02 1.2378505891062316e-01 5.3159209001940162e-02  -2.1733518968080661e-02 1.2371170047265252e-01 5.7891176489279460e-02  -1.9289902095801201e-02 1.2388753759400364e-01 6.1212478917958814e-02  -1.7155791675859847e-02 1.2406195364508721e-01 6.4137520360784628e-02  -1.4987439331861103e-02 1.2405166919792268e-01 6.7360985537503804e-02  -1.2867313595495179e-02 1.2380531621883631e-01 7.2340347015449932e-02  -9.8501328291633501e-03 1.2297422954509778e-01 7.7823463991954431e-02  -2.9171494049733186e-02 1.2196413185204377e-01 5.2775008961866196e-02  -2.5339336994735655e-02 1.0791449541547531e-01 5.1465158559554025e-02  -2.7194730253749584e-02 1.1167264492355547e-01 5.0995511716809841e-02  -2.3661740982648866e-02 1.1293218770875688e-01 5.4226615478810823e-02  -2.2015999259558779e-02 1.0865314209371235e-01 5.5116330272909610e-02  -2.5598107767045429e-02 1.2349631570918966e-01 5.6103850144308076e-02  -2.1103083184660389e-02 1.1377602988761883e-01 5.7148245711018099e-02  -1.9521363722059305e-02 1.0917662682630960e-01 5.8285360546507493e-02  -2.2912082114337495e-02 1.2468103052845694e-01 5.8859244493845490e-02  -1.8946959471190260e-02 1.1450048339220113e-01 6.0036436541134400e-02  -1.7316761527861033e-02 1.0963686992707129e-01 6.1501341563067295e-02  -2.0679477986805642e-02 1.2569089700705741e-01 6.1590921082328956e-02  -1.6220258584164791e-02 1.1582857677013110e-01 6.2792047051257543e-02  -1.4611001640819476e-02 1.1062411483124486e-01 6.4690500362602446e-02  -1.8121430036156440e-02 1.2697564443465945e-01 6.4409626298827488e-02  -1.3345046664315911e-02 1.1707150954838291e-01 6.6253676182354462e-02  -1.1990237920130252e-02 1.1104569699133388e-01 6.8824425118108767e-02  -1.5193967164638751e-02 1.2779289444866926e-01 6.8099920054924032e-02  -1.0232118572053146e-02 1.1844524592748647e-01 6.9625069747808646e-02  -9.0153376024316948e-03 1.1165257284894532e-01 7.2894278262708154e-02  -1.1626498375824480e-02 1.2899552534602152e-01 7.1737204861991005e-02  -1.545036664