<?xml version="1.0"?>
<VTKFile type="UnstructuredGrid"  version="0.1"  >
<UnstructuredGrid>
<Piece  NumberOfPoints="929" NumberOfCells="3945">
<Points>
<DataArray  type="Float64"  NumberOfComponents="3"  format="ascii">8.541292689025434 2.261514646558931 3.791633499664518  8.494240142119635 2.332776855592195 3.853210017357002  8.422264715435894 2.228919683852154 3.762151294873227  8.424978922168988 2.185181863795361 3.808572601952006  8.494558807453956 2.293063299167752 3.905926732708491  8.541909487779085 2.217891202471353 3.839078090932127  8.427590411255382 2.141458570792396 3.854948016850549  8.494764008654863 2.253375165567223 3.958611051593284  8.542389099818116 2.174295652378665 3.886494867657374  8.430153334271393 2.097745578897224 3.901279401239226  8.494924298153089 2.213696567986263 4.011249096731681  8.542812431941012 2.130711359144366 3.93387468353731  8.432705256438721 2.054036721170097 3.947561550545328  8.495083018329472 2.17401677239318 4.063829161477321  8.543232290412091 2.08712942117781 3.98120571318026  8.435286010426196 2.010334317827487 3.993785364955876  8.495282710165135 2.134335236770061 4.1163332153925  8.543703526977069 2.043551311699356 4.028472605442658  8.43795933958585 1.966656927568765 4.039932037412235  8.495589682952794 2.094650097700245 4.168749039395498  8.544310683802728 1.999981233964345 4.075662540748199  8.325713921899109 3.116648791980366 4.020909299379096  8.225244119475827 3.17808607726428 4.016075838819716  8.253072845502198 3.036974004990628 4.031584420921045  8.25619827902624 3.043706214550575 4.104081630754037  8.230688658143388 3.194420665390677 4.087773839821865  8.326852051142385 3.128067602166291 4.092779258750998  8.259423744179804 3.050398411894561 4.176502516507352  8.236209094508386 3.210691675213355 4.159419307635977  8.328107399953225 3.139441119382875 4.164571423480452  8.262690172569789 3.057032196618676 4.248855461561353  8.241751511092808 3.22690323405958 4.231009588573166  8.329415025601334 3.150750795043352 4.236299966065707  8.265966822301966 3.063596901598663 4.32115641213493  8.247290179982828 3.243046039308377 4.302562620594901  8.330731675263349 3.161981281174787 4.307980874065416  8.269225275311822 3.070087597493645 4.39342751660425  8.252812537246916 3.259124090204242 4.374111806303409  8.332013259636645 3.173121108148248 4.37963884658442  8.272412063845307 3.076518455827022 4.465711254244579  8.258312954479562 3.275169100182814 4.445704763617877  8.333177668796177 3.184198368309765 4.451313040269603  8.436517625261766 2.467474438410799 3.931537913400861  8.329794259674795 2.540608311269211 3.965027725457277  8.293811954873597 2.42939105983724 3.912961394696489  8.296734025984955 2.397271764637036 3.972764860677907  8.330805097811332 2.516158834121141 4.029664764426455  8.435381814428158 2.436831495826424 3.992146931819044  8.434159684672832 2.406212582290848 4.052707585744317  8.331785879727136 2.491690572955775 4.094224824847983  8.299617183800619 2.365154297999895 4.032482655312813  8.432904257615586 2.37559546783231 4.113214902323998  8.332746972293414 2.467200924991936 4.158718365129295  8.302483130858766 2.333028081261499 4.092141283939047  8.431647158314828 2.34496170130654 4.173666202031229  8.333706412168457 2.44269121374251 4.223150998007534  8.305341741018699 2.300891115805682 4.151738981649318  8.334670005496422 2.418158748845611 4.287516253940644  8.430420013615102 2.314309055746063 4.234043717027367  8.308199820810788 2.268751786670629 4.211259992054046  8.335655944674301 2.393623391486499 4.351786461747206  8.429282012785794 2.283658813365856 4.294327295920096  8.311054140145668 2.236643438958434 4.27067824825956  8.345068972231889 2.293467564613067 3.825890070105666  8.34691435040561 2.2535375911173 3.878009880743325  8.348670896341568 2.213622374284684 3.930061751148589  8.350386699754898 2.173710014713654 3.982059993481351  8.352089497519319 2.133799489138858 4.033998540935075  8.35380878928566 2.093904361177914 4.085861153251615  8.355607215663296 2.054058635159101 4.137616966747413  8.134762720406565 3.061471713269 4.036785809407766  8.143266184248331 3.06941096103151 4.109940610960142  8.151828367475634 3.077308214108008 4.183013653119232  8.16040323900898 3.085147554425864 4.256019226349704  8.168975136852429 3.092924650144127 4.328973068298931  8.177535045290547 3.100636110718977 4.401895271539147  8.186076616135542 3.108311360403864 4.474824637464458  8.502551233860208 3.377192284337621 3.93141123628188  8.387320935264309 3.315195497764793 3.968954116750488  8.497210317520977 3.282283706248716 3.982984949383659  8.495878371106405 3.308348134281785 4.050961899974285  8.38670705520893 3.34438533080741 4.035812947749338  8.50126032021991 3.414561028988412 3.993209218106649  8.494681886467005 3.334299302845963 4.118821847869685  8.386242166955137 3.373461256009351 4.1026269652521  8.500123297232092 3.451746236636643 4.054942843996887  8.493557518120298 3.360155101977457 4.186627684931157  8.385832145057007 3.402457446380497 4.169409382821133  8.499062718903756 3.488825732958579 4.11664486434421  8.492434718539267 3.385927365243758 4.254407215956594  8.385425132020933 3.431388378263818 4.2361827564402  8.498015572845246 3.525843510302845 4.178337675092961  8.491246570419623 3.411625002341058 4.322176153459916  8.384971331423962 3.460273001729864 4.302979009828108  8.496921733013007 3.562826581986043 4.240026927229327  8.489959111205177 3.437245891121245 4.389950740469684  8.384357921673436 3.489136250864811 4.369839425233327  8.495699253718088 3.599798046579254 4.301696427191415  8.389051860322356 3.441496969740765 3.976111243444464  8.390664577872418 3.480443214344273 4.036887046682157  8.392326090552372 3.519298394658314 4.097649424514841  8.393995522261976 3.558108792703699 4.15841410239374  8.395632419772014 3.596908136605704 4.219196068390936  8.397190473912865 3.635728738281788 4.280022058256688  8.442360390786776 2.555870449162553 3.97089843390397  8.440693600802174 2.532023925736064 4.035616141411911  8.438962886586609 2.508196031055999 4.100260333054247  8.437211176592809 2.484363849889185 4.164848526490283  8.435463199731903 2.460511356405624 4.229380668335985  8.433740037085425 2.4366270059467 4.293846043856929  8.432073803413216 2.4127098052953 4.358231477102085  7.770387370297348 2.916395362209368 4.114239276231005  7.749088863647986 3.021336541737583 4.117600757873099  7.649770391154993 2.977943531958256 4.141633204223855  7.666689511081853 2.982761010383214 4.221091628593651  7.766468710780987 3.028173302305289 4.195239914292971  7.787897679000459 2.915153514719344 4.191146614725576  7.683599666417891 2.987593393888026 4.300486160462469  7.783830454517751 3.03500842701905 4.272803364406879  7.805424134643955 2.913880773143771 4.267991458203156  7.700498345754356 2.992406859884283 4.379815296314055  7.80117885402685 3.041820100918962 4.350294388122862  7.822948994470151 2.912575185976773 4.344771567758952  7.818516490618102 3.048588645537564 4.427728799665644  7.840463121504788 2.911227243375305 4.421498137697552  7.717387226453662 2.9971800709852 4.459081167617963  7.835849492770503 3.055301397159667 4.505116281725866  7.857960942106604 2.90983410634598 4.498180812020925  7.734268758751052 3.001896099622873 4.538300118604146  7.853195533684761 3.061950278419348 4.582473709022223  7.875439136022266 2.908407323107809 4.574840353087378  7.75114628754545 3.00654559868325 4.617478083858899  8.194046781479052 2.490549397163909 3.947302720910075  8.198637404913169 2.461984789257691 4.010399073165611  8.203228282271921 2.433393056906554 4.073396650613124  8.207808820477938 2.404774416562749 4.136320301229363  8.212380665296395 2.376138780924061 4.199184300765986  8.216926492232371 2.347492623076246 4.261985445514825  8.221430242723775 2.318864998131019 4.324700167096331  8.771994589301233 2.640799750408463 4.02262238812449  8.796544489451238 2.76799717932442 4.051959378778297  8.657524951409266 2.701294191828273 4.031695020255849  8.6517012771961 2.686090078709307 4.100460502490679  7.674639839807348 2.847934322893389 4.216366329979082  7.693847011021663 2.841738778170165 4.294344724678292  7.713050484140778 2.835512537883707 4.372261973360028  7.732238957276956 2.829246659662395 4.450125690614372  7.751405378709181 2.82293808095367 4.527948419963705  7.770546970547794 2.816590884400966 4.605746202977956  8.187927092078722 2.93706002117474 4.041743160548916  8.194317334686652 2.937419885407257 4.114499962444809  8.200781536586799 2.937718054540313 4.187190612676019  8.207275166436332 2.93796423388198 4.259814107444702  8.213771210904941 2.938151984513675 4.332381756721816  8.22024556559766 2.938278392410214 4.404908529089716  8.226664667963059 2.938364186775867 4.477421575166833  8.071922905664964 2.96397103709662 4.058872133130482  8.08345836230944 2.966448126308975 4.132650466659044  8.095035541131093 2.968859986889043 4.206358419900908  8.106622988535687 2.971222893682889 4.28000482677041  8.118204110341415 2.973532087512312 4.353599656343932  8.129765782573921 2.975790210508114 4.427160105346021  8.141303801035139 2.97802179535752 4.5007060478119  8.261668859754982 2.231957387522173 3.776900344467394  8.265789847481424 2.189993923376766 3.826309482556372  8.269855590435698 2.148037624076192 3.87565192637763  8.273892171547638 2.10608499236388 3.924937648532695  8.277906395499565 2.064135883027681 3.974168489050736  8.281900684060318 2.022198988293971 4.023339386368478  8.28590160336379 1.980311514223546 4.072427518118542  8.325777185871592 2.162017030177287 3.708983047337932  8.330277757417694 2.116141432904426 3.75220757016947  8.334714586178745 2.0702849721106 3.795372830836184  8.339115931096241 2.024444340302825 3.838485077202154  8.343498016961751 1.978621195324583 3.881542908393977  8.347872526379994 1.932830206950566 3.924536987857165  8.352254916468812 1.887089918903631 3.967454662750674  8.145915062785917 2.384497502109611 3.901226205587233  8.15284625706124 2.350389827410276 3.960382143834996  8.1597
[...]
<PointData  Vectors="f_24"> 
<DataArray  type="Float64"  Name="f_24"  NumberOfComponents="3" format="ascii">-8.4607309677812489e-03 -3.7571732153257195e-02 -2.3019319670161548e-02  -9.1427344241034082e-03 -3.0721358700549900e-02 -2.9105129129137871e-02  -7.1259884173114092e-03 -4.2443795325942973e-02 -1.9995887585338691e-02  -6.2120955224365991e-03 -3.8844218847111679e-02 -1.7631829017955222e-02  -8.2456483270655270e-03 -2.7618444049585616e-02 -2.7387060571800965e-02  -7.5072550989037853e-03 -3.4209986493642236e-02 -2.0849453279864011e-02  -5.2078872035302504e-03 -3.6265175241388142e-02 -1.5790145255064534e-02  -7.3403444913934185e-03 -2.5160511665047788e-02 -2.5790644411328247e-02  -6.4714407953433339e-03 -3.1657997582564372e-02 -1.8986373052240834e-02  -4.3320645123366922e-03 -3.3432489010174669e-02 -1.3623817432190793e-02  -6.5472943313140434e-03 -2.2318884528671149e-02 -2.3832415804641516e-02  -5.5582731917276250e-03 -2.8815537245148178e-02 -1.6764785192957796e-02  -3.5669962672189716e-03 -2.9965158375576884e-02 -1.0820714378049590e-02  -5.8537420077119703e-03 -1.9000171827440317e-02 -2.1377393485112348e-02  -4.7718199543078281e-03 -2.5411252051147849e-02 -1.3937399677112976e-02  -2.8715807208046775e-03 -2.6119048381153195e-02 -7.4313301362217378e-03  -5.2628615845208681e-03 -1.5490952055835457e-02 -1.8448887888672594e-02  -4.0863456172485308e-03 -2.1739046850652286e-02 -1.0595534090057543e-02  -2.2255522781880659e-03 -2.2171244642593669e-02 -3.6224719664633633e-03  -4.7727709780599160e-03 -1.1901974837832559e-02 -1.5133758097636972e-02  -3.4856466035848473e-03 -1.7981788025376404e-02 -6.8722424986815975e-03  -1.6377202905851422e-02 -2.5263147980101484e-03 -4.9949069353638111e-02  -1.6285654397192286e-02 -1.5427770336811021e-03 -4.8078141847488425e-02  -1.5041137671448967e-02 -5.0786319568279859e-03 -5.0024721055008999e-02  -1.4748640197880320e-02 -6.3822457799549460e-03 -5.0655135494783815e-02  -1.6060039891910918e-02 -3.8848374442569666e-03 -4.7793098880467171e-02  -1.6182069970632280e-02 -4.4569036270557692e-03 -5.0061177466882302e-02  -1.4447676505071153e-02 -7.5908218788439657e-03 -5.0838130255426446e-02  -1.5750781821228441e-02 -5.9056638693249430e-03 -4.7223976796490742e-02  -1.5822951121974290e-02 -6.1946071694279053e-03 -4.9845209015069031e-02  -1.3962031785093912e-02 -8.7887734696955860e-03 -5.0668500432057506e-02  -1.5245756240031078e-02 -8.0455631859851356e-03 -4.6421267235947347e-02  -1.5329321664501747e-02 -7.9651873315050113e-03 -4.9330586404956092e-02  -1.3356704591545376e-02 -1.0026370858712089e-02 -5.0124108756170918e-02  -1.4578756466561697e-02 -1.0331023066360983e-02 -4.5279592669695681e-02  -1.4783920197268806e-02 -9.8144589930144813e-03 -4.8448966498451297e-02  -1.2650999151442728e-02 -1.1237594578460117e-02 -4.8951638753169054e-02  -1.3759674204189741e-02 -1.2588799562083454e-02 -4.3527464332208436e-02  -1.4231501571355044e-02 -1.1631992153322900e-02 -4.6966370175026320e-02  -1.1816516252586885e-02 -1.2374588063957977e-02 -4.7065519995104305e-02  -1.2694636889229817e-02 -1.4764119584514719e-02 -4.1206894584500241e-02  -1.3718705096692027e-02 -1.3385921406567998e-02 -4.4836079582722052e-02  -1.0086189502455717e-02 -2.2282470735347504e-02 -3.8052137624063030e-02  -1.0030342041149866e-02 -1.9282644364262955e-02 -4.2137916355314393e-02  -8.4454262955980693e-03 -2.5695742255591410e-02 -3.5398428165510178e-02  -7.9743235097000497e-03 -2.2790008205782870e-02 -3.4534952792150755e-02  -9.6858506588084307e-03 -1.6997035389469006e-02 -4.1794978903208796e-02  -9.5417620984607626e-03 -1.9561000902931912e-02 -3.7317191198857645e-02  -8.8974404875317801e-03 -1.7380223493592483e-02 -3.6488150727164326e-02  -9.2114479818079832e-03 -1.5132611242619394e-02 -4.1293368702788533e-02  -7.4710889778392773e-03 -2.0479797933342526e-02 -3.3656445016194171e-02  -8.2823774703714523e-03 -1.4888710920287483e-02 -3.5297268337857346e-02  -8.7143065550487377e-03 -1.2977239639515574e-02 -4.0484029439868396e-02  -6.9241457617100427e-03 -1.7827846713713683e-02 -3.2425211910026744e-02  -7.7301537964844166e-03 -1.2050076508307717e-02 -3.3690914520946656e-02  -8.2114090984246151e-03 -1.0543975802127412e-02 -3.9304413744187569e-02  -6.3711808929104701e-03 -1.4764931880299677e-02 -3.0755601870784730e-02  -7.7186352182938818e-03 -8.0611762240720610e-03 -3.7641348238197050e-02  -7.2643220834991869e-03 -9.1475478610924584e-03 -3.1625962817552512e-02  -5.8042501139330873e-03 -1.1573807768363189e-02 -2.8581605259482546e-02  -7.2643724201871037e-03 -5.5356506334448639e-03 -3.5505257445010679e-02  -6.9350581593993401e-03 -6.2108712746608693e-03 -2.9107048706236118e-02  -5.2235976567272290e-03 -8.3285807373777356e-03 -2.5912148302779218e-02  -7.2193416065400185e-03 -3.5247143749818646e-02 -2.5828980653062446e-02  -6.5071511980647426e-03 -3.2066129201333587e-02 -2.3960812377051468e-02  -5.7289727662649488e-03 -2.9549254529492613e-02 -2.2352953016023358e-02  -5.0101187357833058e-03 -2.6652312989001857e-02 -2.0431113648139876e-02  -4.3422954246861781e-03 -2.3177282101404042e-02 -1.7962203704815966e-02  -3.7105891862044744e-03 -1.9432685954260825e-02 -1.4973105943808442e-02  -3.1132882159878961e-03 -1.5585654134675187e-02 -1.1568953128590225e-02  -1.4228591324208770e-02 -5.2290207410385604e-03 -4.8256958527614462e-02  -1.4046222066619443e-02 -6.7068558675477544e-03 -4.8957355805581103e-02  -1.3775394905145330e-02 -8.0054349896412080e-03 -4.9250977410945453e-02  -1.3294559160438070e-02 -9.3306814202225238e-03 -4.9140662190702511e-02  -1.2598703482121287e-02 -1.0726401019446229e-02 -4.8640724873163760e-02  -1.1640027676764003e-02 -1.2119346277098006e-02 -4.7512825689737088e-02  -1.0256606940733907e-02 -1.3464211489821180e-02 -4.5650448365384406e-02  -2.0366829133661075e-02 1.0036421599783131e-02 -3.9130539796954723e-02  -1.8941238993594539e-02 4.5058545603356712e-03 -4.4089090794072749e-02  -1.9118650706931084e-02 3.9370034539934580e-03 -4.5564774777632863e-02  -1.9240606691037169e-02 7.6141103114069509e-04 -4.4532725007006051e-02  -1.8834459614896229e-02 1.2562850603835109e-03 -4.2685283556570877e-02  -2.0426977292529028e-02 6.0458618834958351e-03 -3.7556863440651234e-02  -1.9039793021076890e-02 -2.1533268421676556e-03 -4.3198319469650866e-02  -1.8598367403031866e-02 -1.6430489463575475e-03 -4.1063111065826836e-02  -2.0407709817638332e-02 2.5478036193636905e-03 -3.5592365172663919e-02  -1.8731791749056783e-02 -5.1981368834392375e-03 -4.1530420461608271e-02  -1.8240990972776254e-02 -4.7431410801493873e-03 -3.9154413192627829e-02  -2.0241774550162149e-02 -1.0734823134391333e-03 -3.3129673412298367e-02  -1.8446426263768672e-02 -8.3194771786370136e-03 -3.9495322410151981e-02  -1.7802553714519487e-02 -8.0412994271514618e-03 -3.6879512307900000e-02  -2.0012731356162088e-02 -4.8036918355309523e-03 -3.0196377907076598e-02  -1.8291788790754347e-02 -1.1359164433659880e-02 -3.6924729095172179e-02  -1.7409694735881109e-02 -1.1274577825073193e-02 -3.4028810383149546e-02  -1.9892075888821782e-02 -8.4362714732672279e-03 -2.6691809653190936e-02  -1.8350227018604382e-02 -1.4331520571472803e-02 -3.3907832214496114e-02  -1.7198164638735663e-02 -1.4476466928414327e-02 -3.0710028503767514e-02  -1.9984407427706796e-02 -1.1955452296742568e-02 -2.2616212190924408e-02  -1.9883027419857726e-02 7.0068509363478658e-03 -3.5467117786750442e-02  -1.9858068047112664e-02 3.6107718224409925e-03 -3.3409573376466779e-02  -1.9679993337468133e-02 2.5546469359291686e-05 -3.0852798354218652e-02  -1.9366214534213361e-02 -3.7816602860400120e-03 -2.7788166985790761e-02  -1.9038920974306574e-02 -7.5363349202507432e-03 -2.4111961219066943e-02  -1.8758237669281579e-02 -1.1178162463202879e-02 -1.9828716902909608e-02  -1.1052072194801423e-02 -1.7768955021979851e-02 -4.2868185100627287e-02  -1.0655140732635333e-02 -1.5524153640761438e-02 -4.2604810872364625e-02  -1.0116996955283971e-02 -1.3708013489498114e-02 -4.2152752237093014e-02  -9.5785935029633843e-03 -1.1613831769474526e-02 -4.1369278357644777e-02  -9.0949537789167569e-03 -9.2879162359017654e-03 -4.0217833026391078e-02  -8.7031496179780891e-03 -6.9317991685143689e-03 -3.8591201638186849e-02  -8.4571487359914668e-03 -4.5149940764084174e-03 -3.6505343246755952e-02  -1.0381981861933200e-02 -1.1152033122530327e-02 -4.4221672447108271e-02  -1.0792587616162247e-02 -8.8837977963191241e-03 -4.2732371707436732e-02  -9.7894821591443231e-03 -1.0238235654218698e-02 -4.1133034735067839e-02  -8.9413856726836462e-03 -1.1163800548012699e-02 -4.1989925725641974e-02  -1.0080247206666549e-02 -1.0047675094684063e-02 -4.3453913960791873e-02  -9.7229159994793920e-03 -1.1521909051595728e-02 -4.5271657352090891e-02  -8.1319659396486242e-03 -1.1964393870374271e-02 -4.2295124837236089e-02  -9.4424480096985900e-03 -1.1060472243266931e-02 -4.3658437363945660e-02  -9.1508678833644285e-03 -1.1859101171078568e-02 -4.5691113929860340e-02  -7.1023540085223312e-03 -1.2862909820682555e-02 -4.2216647101614699e-02  -8.5359446849219561e-03 -1.2171238615966778e-02 -4.3519145468229159e-02  -8.3288054169345579e-03 -1.2214258114177411e-02 -4.5712760545293281e-02  -7.3140425453905511e-03 -1.3391316517021011e-02 -4.3050226550075975e-02  -7.2101154149540308e-03 -1.2616434722772367e-02 -4.5383340372040962e-02  -5.7827856895129827e-03 -1.3860010673142837e-02 -4.1810910179163330e-02  -5.6745532002903647e-03 -1.4688915407769778e-02 -4.2155076900026234e-02  -5.6927905692848455e-03 -1.3083619425576501e-02 -4.4617591577081818e-02  -4.0872181140536989e-03 -1.4939334427874833e-02 -4.1013120495845594e-02  -3.5201127307461933e-03 -1.6087844751960661e-02 -4.1019800364855530e-02  -3.6838411972419838e-03 -1.3638142654594284e-02 -4.3548296546464048e-02  -1.9709261496799742e-03 -1.6130827618610434e-02 -3.9971248079384458e-02  -8.3581042063385624e-03 -2.2982893052629540e-02 -3.8495744429267516e-02  -8.0258670659865139e-03 -2.0302385385552488e-02 -3.8124132855733989e-02  -7.6561643027632407e-03 -1.8205114488690569e-02 -3.7616350598031194e-02  -7.2016710202429434e-03 -1.5803291431796283e-02 -3.6716799732012834e-02  -6.6627018089768075e-03 -1.3046375220726273e-02 -3.5385404757722956e-02  -6.0219301930399260e-03 -1.0199251441281521e-02 -3.3550666345508476e-02  -5.2659054803389132e-03 -7.3117490318149909e-03 -3.1174238424839098e-02  -1.4023466974918786e-02 -1.1153397225933812e-02 -4.6106066773531296e-02  -1.5340815096758666e-02 -7.3482561818936781e-03 -4.9407995818821548e-02  -1.3948781850136862e-02 -1.0230222282544757e-02 -4.8453381179909022e-02  -1.3643790270131916e-02 -9.0294431474817489e-03 -4.8635448693023532e-02  -8.4556926913262904e-03 -1.2925467639218926e-02 -4.3323081566487391e-02  -7.7424900272162799e-03 -1.2905547463846119e-02 -4.3784205272649708e-02  -6.8054507189996109e-03 -1.2871539613836162e-02 -4.3850224964999407e-02  -5.6035212152464337e-03 -1.2864651718273501e-02 -4.3565046929439709e-02  -4.0438780515547959e-03 -1.2919639903928160e-02 -4.2869071814662638e-02  -2.0481290011814942e-03 -1.3065174462315164e-02 -4.1909667007157494e-02  -1.3454182899287773e-02 -8.1628390041053010e-03 -5.0808202018428700e-02  -1.3231640138168186e-02 -8.6276754145872235e-03 -5.1325350789989316e-02  -1.2957622619795252e-02 -9.1151291617498059e-03 -5.1486925879331930e-02  -1.2484022456929733e-02 -9.5598721821043408e-03 -5.1361378170569232e-02  -1.1854990773668670e-02 -1.0005971369089787e-02 -5.0887587105467064e-02  -1.1057023556452480e-02 -1.0442499465956332e-02 -4.9850304948935005e-02  -1.0037639988464733e-02 -1.0831573096644226e-02 -4.8220641493019002e-02  -1.2876107435091268e-02 -8.3837518652353418e-03 -4.9900894357556271e-02  -1.2679609600778958e-02 -9.0183262743193833e-03 -5.0262694980416238e-02  -1.2359394161469084e-02 -9.6288497782059026e-03 -5.0299626781476058e-02  -1.1814698496728676e-02 -1.0255487589135831e-02 -5.0103570517984544e-02  -1.1043259747624426e-02 -1.0912783612855810e-02 -4.9581338000807974e-02  -9.9649136784885559e-03 -1.1575229774310384e-02 -4.8503193191779571e-02  -8.4480562602488891e-03 -1.2215752427247730e-02 -4.7012745693710702e-02  -5.5297948388614362e-03 -4.2430439558296743e-02 -2.0087899597449506e-02  -4.8221279393738147e-03 -3.8818376119071643e-02 -1.7977986874657997e-02  -4.0925902507683151e-03 -3.6163582948330567e-02 -1.6333948311758422e-02  -3.4042759853779537e-03 -3.3218400070758318e-02 -1.4362991997641870e-02  -2.7385978920138223e-03 -2.9612986065981502e-02 -1.1764978560726240e-02  -2.0717795508588713e-03 -2.5613156278169982e-02 -8.5663427276472161e-03  -1.3976813611602074e-03 -2.1510157288889831e-02 -4.9234065141209801e-03  -5.2252083456163683e-03 -4.9878792916645071e-02 -1.4056851556979709e-02  -4.2349742758281987e-03 -4.6543658655112959e-02 -1.1329630965912895e-02  -3.2719954909252464e-03 -4.4112626169082632e-02 -9.2254528464943038e-03  -2.4184710974451394e-03 -4.1402225376312732e-02 -6.8804078933425066e-03  -1.6502978979309596e-03 -3.7902064971067073e-02 -3.7955617561712153e-03  -9.2721689740539687e-04 -3.3931542951483221e-02 -8.5635289279867695e-05  -2.1367653017072632e-04 -2.9798243461028641e-02 4.0211296961780423e-03  -6.5844748043285767e-03 -2.8890115186651074e-02 -3.2279781969206410e-02  -6.2343548896886241e-03 -2.5877750266449343e-02 -3.1201781233332331e-02  -5.8435204955786888e-03 -2.3502245016379947e-02 -3.0151595032442531e-02  -5.3655794880904410e-03 -2.0711196765944920e-02 -2.8769823438193395e-02  -4.8022470937975591e-03 -1.7437219560690383e-02 -2.6930429188039232e-02  -4.1252307348276290e-03 -1.3969203521108741e-02 -2.4593815087141594e-02  -3.3368690466178295e-03 -1.0420812597678287e-02 -2.1767959824830960e-02  -1.0656913906662535e-02 -6.6940435741638547e-03 -3.8773330791688584e-02  -9.8627860395283460e-03 -8.6141241503152506e-03 -3.9501503256324594e-02  -9.1819855875702010e-03 -1.0208402040167893e-02 -3.9640526216802231e-02  -8.2102484950456692e-03 -1.1939729852684043e-02 -3.9367911655321004e-02  -6.8929083842238096e-03 -1.3835105841069189e-02 -3.8761637656053019e-02  -5.1576427882361097e-03 -1.5820550522604594e-02 -3.7741440608392671e-02  -2.9293497967946107e-03 -1.7938121024612709e-02 -3.6457315016879210e-02  -1.8136910463505032e-02 -9.0749139463067023e-04 -5.0398027654463981e-02  -1.8462338305258293e-02 3.1266232914792892e-04 -4.9269632103559807e-02  -1.6818198042299583e-02 -2.9938886291780596e-03 -5.1012747103272943e-02  -1.6897634131721569e-02 -4.2199813657518266e-03 -5.1613847792272211e-02  -1.8494922029481761e-02 -1.9255543659888962e-03 -4.9382756602804737e-02  -1.8172595707177532e-02 -2.6677711965191228e-03 -5.0533571877698052e-02  -1.6601219177995306e-02 -5.4568346423711830e-03 -5.1659668657429783e-02  -1.8293617021802662e-02 -4.0536972074523047e-03 -4.8979791454584767e-02  -1.7941335072139346e-02 -4.3543715036049868e-03 -5.0241887628259853e-02  -1.6227863342921933e-02 -6.6170289471813451e-03 -5.1292709819378161e-02  -1.7999049264673272e-02 -6.1655276486354618e-03 -4.8165165578975370e-02  -1.7649175877664697e-02 -6.0218233371407033e-03 -4.9592097298871332e-02  -1.5946832070257790e-02 -7.7562010288600713e-03 -5.0554982747050704e-02  -1.7776048046805628e-02 -8.2530210803671601e-03 -4.6980719280993351e-02  -1.7437764951184452e-02 -7.6590169456949965e-03 -4.8601208202805481e-02  -1.5855770762252579e-02 -8.8319103161091511e-03 -4.9330281974983396e-02  -1.7751630977976961e-02 -1.0271905891025614e-02 -4.5324253299682621e-02  -1.7423436452180946e-02 -9.2229682393448788e-03 -4.7166208798779780e-02  -1.6069224986045752e-02 -9.8458473024484166e-03 -4.7694128742425360e-02  -1.8030651113115685e-02 -1.2173701069961903e-02 -4.3311362230190789e-02  -1.7746460932669423e-02 -1.0699347531166175e-02 -4.5491996496033804e-02  -9.6421446683282938e-03 -1.8143508250591679e-02 -4.3840806008852942e-02  -1.0868511224476378e-02 -1.6195873692435317e-02 -4.5192457302969807e-02  -1.0795197552913811e-02 -1.4679245044527328e-02 -4.7231326321971391e-02  -1.0615480369265167e-02 -1.3284327096438946e-02 -4.7543936590111947e-02  -1.0616653010238807e-02 -1.4256592560995119e-02 -4.5665821096498319e-02  -9.3772182159290833e-03 -1.6169505872941779e-02 -4.3739073129973514e-02  -1.0334629127534472e-02 -1.2194442693385757e-02 -4.7562248987491292e-02  -1.0243540645773047e-02 -1.2822543628066797e-02 -4.5745929964941444e-02  -9.0617627212519047e-03 -1.4517757696166011e-02 -4.3449075611738122e-02  -9.9072230585469014e-03 -1.0901762649965155e-02 -4.7273085860014011e-02  -9.7959600966864499e-03 -1.1190450088099789e-02 -4.5386599710163650e-02  -8.6329435035514181e-03 -1.2599853078362321e-02 -4.2875228241002601e-02  -9.3753576922795522e-03 -9.4486888244598340e-03 -4.6622390351365478e-02  -9.3081858072760395e-03 -9.3651630544224831e-03 -4.4617968520062057e-02  -8.1138344119926920e-03 -1.0442274732149686e-02 -4.1937028326374179e-02  -8.7393305843811858e-03 -7.9744074776527292e-03 -4.5439649892418152e-02  -8.8078476290747859e-03 -7.5136650069199864e-03 -4.3325420395039407e-02  -7.4933309496784005e-03 -8.2598685457463978e-03 -4.0478217652925093e-02  -7.9903769203073811e-03 -6.4826636779654239e-03 -4.3694470074788785e-02  -8.3125272315224714e-03 -5.6553118890786975e-03 -4.1455167607409263e-02  -6.7659480660080982e-03 -6.0079572519562557e-03 -3.8514733525836967e-02  -9.3174770980640770e-03 -1.7475287036598213e-02 -4.4237837412100328e-02  -9.1443830603149708e-03 -1.5657200804884908e-02 -4.4569567353461036e-02  -8.9156767070978742e-03 -1.4201198825732687e-02 -4.4604599541863466e-02  -8.5228146332845638e-03 -1.2513335566726057e-02 -4.4249918730559633e-02  -7.9571185042620687e-03 -1.0620928775134948e-02 -4.3501827107119903e-02  -7.1836776961034339e-03 -8.7123792279118952e-03 -4.2241550209210298e-02  -6.1660463133034445e-03 -6.7911812215300663e-03 -4.0436042854292448e-02  -1.7334435221443584e-02 -1.6398284234809977e-03 -5.1072529763266719e-02  -1.8285702577210523e-02 1.4265999331035519e-03 -4.7854472159358834e-02  -1.7153066479807421e-02 -1.6679633233468417e-03 -5.0557302277744992e-02  -1.6962919022707641e-02 -3.7660124384820662e-03 -5.0532025484263270e-02  -1.8452471464213947e-02 -1.2992884770641601e-03 -4.7928196339442543e-02  -1.7395594767407829e-02 -3.5107916178443821e-03 -5.1032769068757436e-02  -1.6627151775812983e-02 -5.6157504869273492e-03 -5.0080567735978528e-02  -1.8274077892372106e-02 -3.7482199667059251e-03 -4.7426079134630435e-02  -1.7106530908834003e-02 -5.2697934954102563e-03 -5.0624746719764829e-02  -1.6194070974978145e-02 -7.5035400043811772e-03 -4.9327573471057359e-02  -1.7955844090578196e-02 -6.2254535916185785e-03 -4.6430961980322899e-02  -1.6740205039099738e-02 -7.0142442772107043e-03 -4.9908351059008454e-02  -1.5760774256407543e-02 -9.4466245702997404e-03 -4.8224150896443649e-02  -1.7684701576396747e-02 -8.7248686118093690e-03 -4.5006714076395442e-02  -1.6446525584612234e-02 -8.7693224497526357e-03 -4.8846544612432048e-02  -1.5433739851329753e-02 -1.1347900706646361e-02 -4.6555621619708130e-02  -1.7575428730890578e-02 -1.1151003567923161e-02 -4.3043781286879676e-02  -1.6343217361705093e-02 -1.0459219458750005e-02 -4.7272331879199984e-02  -1.5399053419984937e-02 -1.3168240712531471e-02 -4.4391052752674826e-02  -1.7751094443450233e-02 -1.3458452161034862e-02 -4.0617156480285473e-02  -1.6529101740422179e-02 -1.2084445051886758e-02 -4.5358923939316384e-02  -9.6264944303329318e-03 -7.5862726500675898e-03 -3.6431409727405002e-02  -8.6274322103981598e-03 -9.4069238470121507e-03 -3.7373519851575707e-02  -7.7788800432536396e-03 -1.0961280247278667e-02 -3.7692078052212870e-02  -6.6842618937956568e-03 -1.2631803688308716e-02 -3.7547277100757864e-02  -5.2846172532883869e-03 -1.4452821268988468e-02 -3.7046287781718326e-02  -3.5276783050556607e-03 -1.6372058727384852e-02 -3.6136944678358922e-02  -1.3430439315846687e-03 -1.8451571749924695e-02 -3.4948832253674927e-02  -7.7792280572465192e-03 -2.1997559210084189e-02 -3.9445117905695361e-02  -7.6150355700355457e-03 -1.9564353148096195e-02 -3.9177667348834433e-02  -7.3669791403700021e-03 -1.7594949893047399e-02 -3.8755184539683712e-02  -6.9574625646605798e-03 -1.5282305855110692e-02 -3.7980532008584464e-02  -6.3983270391831078e-03 -1.2640743032290977e-02 -