<?xml version="1.0"?>
<VTKFile type="UnstructuredGrid"  version="0.1"  >
<UnstructuredGrid>
<Piece  NumberOfPoints="741" NumberOfCells="3068">
<Points>
<DataArray  type="Float64"  NumberOfComponents="3"  format="ascii">11.463981502974 3.316609612104434 0.8195454816880586  11.34686505564315 3.311228099759348 0.810327781299185  11.34773837954865 3.432646528384613 0.796512096972129  11.35384799780356 3.428439110420911 0.7135149389092847  11.35354052891953 3.300191583855344 0.7301022639155678  11.47060339880916 3.304840898242374 0.736836302739368  11.3597479716618 3.42424198588288 0.6308268534389486  11.3599016762085 3.28933948783983 0.6500602584781214  11.47684426570543 3.292912212535971 0.6542439746791174  11.36543240925791 3.42018892147241 0.5483693935852272  11.36594845692681 3.278626691637834 0.5701417567325884  11.48278854502053 3.280932023739475 0.5717283273578303  11.37096055499209 3.416297999148043 0.4661123499054883  11.37175230389365 3.268034292961284 0.4903221972108031  11.48852505569578 3.26900425678671 0.4893260992446887  11.37632245370277 3.412592996237792 0.3840998038673847  11.3773055518566 3.257525123615073 0.410543490887964  11.49391682980897 3.257169976802157 0.4070602598347608  11.38150643573359 3.409070114346916 0.3023982328368185  11.38266633712927 3.247037740857627 0.3308133156076015  11.49919760609758 3.24578251187429 0.3248515312828505  11.22997103046173 3.426531185813658 0.7914856591654493  11.23705191388562 3.423223700251146 0.7111648493710927  11.24396813895229 3.420226707343143 0.6311707505055305  11.25073942792559 3.417455144174169 0.5514136211732237  11.25738073935038 3.414881038773973 0.4718465966311964  11.2639419428922 3.412506950348615 0.3924570268977842  11.270226713697 3.410026018209291 0.3133723453579542  11.22790617751711 3.306292050552692 0.7990438024369783  11.23702168843928 3.297111687456256 0.7212155065463708  11.24582204953619 3.288227193041299 0.6435489657621375  11.25439451752287 3.279579102922614 0.5660226690853944  11.26279387255076 3.271126618520275 0.4885866220336212  11.27104561128592 3.262801957290114 0.4111870423922496  11.27906250017655 3.254331242219455 0.3338960439928111  10.67148675993447 2.402434172120587 1.208751121411892  10.62044236845561 2.323683532925819 1.269239820808821  10.53078476209601 2.407436116817831 1.23567568219138  10.52096067763968 2.377979732046999 1.188931482744341  10.60982289230341 2.294519477690885 1.221316873543751  10.66078910291796 2.372290511319467 1.160504814662716  10.51085815345799 2.348642086659649 1.142210279320395  10.59885168703613 2.265546912793556 1.173352853311585  10.64980829818322 2.342339135474888 1.112205897391002  10.50062894717021 2.319378899947556 1.095504073289149  10.58773785503568 2.236664923542127 1.125362723304882  10.63869673904075 2.312465828580775 1.063878134530448  10.49041614019084 2.29013243552929 1.048820762541213  10.57666521359546 2.207778008290602 1.07737564266738  10.62758324573967 2.282549718550291 1.015545195957139  10.48035966570796 2.260831575400526 1.002177839889396  10.6002594832166 2.455320186831697 1.190782151152545  10.59000858581944 2.425170004659607 1.143356043973823  10.57951402356078 2.395157593705665 1.095929166932069  10.56890760678457 2.365220056496541 1.048499275260181  10.55828923555736 2.335262061521043 1.001079785749988  10.54778188325225 2.305198423788065 0.9536889191842421  10.61661466049561 2.252483857517392 0.9672320060504207  10.53754288822093 2.274911845679502 0.9063805889629898  10.56496865382172 2.92256245574689 0.8922283184538431  10.4067058684388 2.957967669040133 0.8893879569724346  10.52430655103814 3.007188644122811 0.8490791098468164  10.55849271978229 2.890994330854562 0.8363684279898489  10.3996800991813 2.927724709697191 0.8329064556200249  10.51788671014415 2.980211936717541 0.7889992177167564  10.55216656245296 2.859385628168823 0.7804955418204643  10.50360505767235 2.849512572768116 0.9425044546252619  10.49640961741095 2.816773629371062 0.8898017686733544  10.48929364002885 2.783961100238999 0.8371300421342078  10.39280688481705 2.897383600536008 0.776435372277454  10.48217624622544 2.751095235163836 0.7844885425496783  10.54584382645324 2.82772352419246 0.7246439033589372  10.38597579518506 2.867012597336809 0.7199845726733796  10.47500968854649 2.718187589242954 0.7318662750420475  10.53945877898703 2.79602454449733 0.6688206901979644  10.37909386297332 2.836625807466086 0.6635661525693652  10.46775856062894 2.685271539409608 0.6792417518293123  11.56698828338524 3.21105487128414 0.8464446515087651  11.44938615605527 3.193484072832621 0.8402848459464394  11.4556476983767 3.178054982475429 0.7605169077889418  11.57064418071022 3.195206404326329 0.7636592940543275  11.46130096044237 3.162689455424584 0.6806952464873098  11.57386544577776 3.178968733950205 0.6808109237732364  11.46661347715631 3.147298405378685 0.6008310990751033  11.57687214163809 3.162409492253981 0.5978800523091858  11.47170223349148 3.131933451394576 0.520936623905875  11.57978310150711 3.145754305601014 0.5149050454736782  11.47660947660209 3.116806239290023 0.4409931120717997  11.58251953795179 3.129358598952423 0.4319526185704062  11.48112598606486 3.102036893834757 0.3608541985128901  11.58488037384488 3.114108312472211 0.3489100903427229  10.90438435579549 3.48702803564371 0.7585948583168105  10.89322184185652 3.368915817571676 0.7578998001120343  10.79458609732773 3.444603190821187 0.7513542845297971  10.89807730336409 3.367656424245213 0.6829885806109741  10.90888587466884 3.492167513821753 0.6823636788168987  10.79541539731056 3.447390351303541 0.6765143682937617  10.90307063175788 3.366811528073908 0.6082869589685127  10.91359582394132 3.497735935417475 0.6063692496492622  10.79656797670751 3.450569134436331 0.6018625298559958  10.90818509412129 3.366324033545253 0.5337298658702517  10.91844831491902 3.503630862381758 0.5305976281836654  10.79790128018726 3.454068762089186 0.5273301545802149  10.91339087637806 3.366173926819669 0.4592723442874187  10.9234553699372 3.509917973381055 0.4550018460652153  10.79935018124136 3.457867670692103 0.4529086565429024  10.91853703525784 3.366163622594476 0.3849513566279908  10.92844154057484 3.516408449860244 0.379634283696535  10.80065347705735 3.461661943000718 0.3786648262904392  10.92311649594749 3.365585001787665 0.3108667463614353  10.93283500069382 3.522351691059204 0.3045784590234946  10.80136455680391 3.464907623691339 0.3046451561845107  11.22323081437661 2.868411418881021 0.9136505814810811  11.2106794218 2.764462106452654 0.9540312736773855  11.0939893769449 2.793411967804736 0.9348613147653421  11.09553565476017 2.765937266099147 0.8712062995297748  11.21280050997127 2.738214996902065 0.8880984193594258  11.22750933665045 2.843380824349909 0.8457735778342539  11.096916588244 2.738493508681874 0.8075516713720762  11.21467632411854 2.711973711231343 0.8221303867196958  11.23146348651558 2.818373662179135 0.777882484313566  11.09815644947539 2.710989337424174 0.7439045072248988  11.21636306768493 2.685649090334242 0.7561330388010569  11.23516824407709 2.793295044027779 0.7099805291675482  11.09926612671254 2.683348818276732 0.6802857150283208  11.2178977025439 2.659144464856725 0.6901267826979983  11.23868205238942 2.768046040884657 0.6420901271270827  11.10025412542435 2.655522893345925 0.6167376418910194  11.11718332137836 3.410922626598497 0.7792625806030589  11.12626239676259 3.408792603403369 0.7012960842709535  11.13519757875452 3.407029638969911 0.6235653097528484  11.14407429322618 3.4055689107941 0.5460616901624387  11.15290323355558 3.404376356439739 0.468720209862429  11.1617043993644 3.403416174361986 0.3915170566360662  11.17011415706492 3.402125732240079 0.3145504507826988  11.69599999999981 3.202692968530525 0.8490174758228148  11.58232966476136 3.323699612141338 0.8259144849298975  11.5843078906827 3.30993851615105 0.7403482471248429  11.6959999999998 3.184683187579592 0.7633673028860315  11.58607887720883 3.295426325493442 0.6548774569127751  11.6959999999998 3.165275120434357 0.6777882969395063  11.58771177749115 3.280447560477912 0.5695413132752162  11.6959999999998 3.145253532903014 0.5920758631979965  11.58921433020375 3.26544412051232 0.4843576210190553  11.6959999999998 3.125020712078932 0.5062068228437194  11.59048039590023 3.250788481278484 0.3994212039719791  11.69599999999979 3.105222417760368 0.4201619964543842  11.59150476182884 3.237041928403959 0.314670146441036  11.69599999999979 3.08814800077786 0.3339701005291071  10.39865817542132 2.853141754370825 0.9541250458295938  10.288767635883 2.892065562236136 0.9489036976700261  10.28024138899963 2.857846209542998 0.8973696283498961  10.39048502348532 2.819599924640105 0.9026437621862914  10.2717667073324 2.823415408469801 0.8459376583240078  10.38236548694899 2.78592479554288 0.8512387008711664  10.26330773917715 2.788920520331355 0.7945535587318298  10.37425978362771 2.752206608302954 0.7998745025227496  10.25483132003006 2.754432790934284 0.7431841730042898  10.36612423260854 2.718474987740858 0.7485269031240461  11.69599999999955 2.984877574157977 0.9024312083981301  11.5723743864594 2.980275274883606 0.9015967755291309  11.57694715838481 3.095894616725067 0.8690701070126814  11.57998150694754 3.076612766431273 0.7886554052536507  11.57506754736775 2.95787115681501 0.8237362487859217  11.69599999999956 2.96215081991526 0.8212746932312123  11.58223102115513 3.057020460095169 0.7078372483149621  11.57711389372295 2.935251384490709 0.7454959272157961  11.69599999999956 2.939092664733017 0.7397006992947921  11.58417152873516 3.03705708370383 0.6266586635554604  11.57889140153121 2.912425093749165 0.6668383901115966  11.69599999999957 2.915790360545579 0.6576364333279163  11.58601277079402 3.016846279388655 0.5451233228772366  11.58053747153344 2.889356998285524 0.5878375584584361  11.69599999999958 2.89222213315889 0.5750395936891519  11.5877371790921 2.996633313753852 0.4632857567952716  11.58200565295728 2.866019462436481 0.5087145614476533  11.69599999
[...]
<PointData  Vectors="f_24"> 
<DataArray  type="Float64"  Name="f_24"  NumberOfComponents="3" format="ascii">-5.3643251616056854e-02 -4.9149328480089446e-02 -2.1574146232878077e-02  -5.2581009356795633e-02 -4.7794097762057321e-02 -2.0345590978548933e-02  -5.2586436962510037e-02 -4.3006901554139020e-02 -1.3048063663310360e-02  -5.3581604539034107e-02 -3.8428748694316867e-02 -1.1600268142958991e-02  -5.3750060751051626e-02 -4.2745884336830998e-02 -1.9585467502887258e-02  -5.4686451482032675e-02 -4.3869047402015318e-02 -2.0901752709622599e-02  -5.4434770229514644e-02 -3.4243724450516676e-02 -1.0526060096862048e-02  -5.4793667262778741e-02 -3.8156166077625217e-02 -1.9031575880980534e-02  -5.5642445085110820e-02 -3.9112537784453602e-02 -2.0412924348599117e-02  -5.5223893514077957e-02 -3.0220902605034371e-02 -9.7631638139342343e-03  -5.5791184215541807e-02 -3.3747954060615065e-02 -1.8676216116837046e-02  -5.6573423480533562e-02 -3.4587288811689716e-02 -2.0118069649869542e-02  -5.6012947850172440e-02 -2.6179660287539288e-02 -9.2779812910021037e-03  -5.6791550100947601e-02 -2.9319762788543764e-02 -1.8516693019945945e-02  -5.7514990574279654e-02 -3.0055107690573551e-02 -2.0016891231360155e-02  -5.6853101940284305e-02 -2.1968079708330417e-02 -9.0350102258345295e-03  -5.7842616254326414e-02 -2.4704033694351844e-02 -1.8547450368359177e-02  -5.8494358211771499e-02 -2.5303438562088488e-02 -2.0103601596469525e-02  -5.7783260869402997e-02 -1.7467818063569965e-02 -8.9939854058313558e-03  -5.8985957033082508e-02 -1.9758120527103420e-02 -1.8763975599014729e-02  -5.9522277179137571e-02 -2.0131978681170625e-02 -2.0353391085485655e-02  -5.1126522796540168e-02 -4.1608371993949463e-02 -1.1772019724379659e-02  -5.2365638833415246e-02 -3.7312761464602641e-02 -1.0250032113803135e-02  -5.3411927350960522e-02 -3.3327709142867215e-02 -9.1094575127473130e-03  -5.4356793235053942e-02 -2.9475937629457459e-02 -8.2986004901462618e-03  -5.5285266108677962e-02 -2.5607705490935918e-02 -7.7783643435786406e-03  -5.6267745339571754e-02 -2.1602740413685446e-02 -7.5112016264717871e-03  -5.7372654914652016e-02 -1.7369204203908990e-02 -7.4693604659962559e-03  -5.1436599261011989e-02 -4.6196804744753836e-02 -1.8769243525552155e-02  -5.2767602528499630e-02 -4.1424652743747903e-02 -1.7876943408225893e-02  -5.3928510189155468e-02 -3.6992990149436245e-02 -1.7227313195222974e-02  -5.5004068562482265e-02 -3.2708384479602608e-02 -1.6798670195550768e-02  -5.6070557855088923e-02 -2.8410970631879813e-02 -1.6580210372163069e-02  -5.7189954397762616e-02 -2.3962903143180319e-02 -1.6562665684852065e-02  -5.8424424738252205e-02 -1.9258449602537121e-02 -1.6757684598461983e-02  -4.8148765936968568e-02 -8.7227601164371546e-02 -6.4389391503588397e-02  -4.6721062821244122e-02 -8.9848847311847876e-02 -6.5576209075708145e-02  -4.6357575241495322e-02 -9.1047800816865754e-02 -6.5351546660637763e-02  -4.5683856023349678e-02 -9.0196095731726128e-02 -6.6429944643081371e-02  -4.5821669737315107e-02 -8.9563941765565952e-02 -6.6040681537446647e-02  -4.7331735032144641e-02 -8.6369407315317948e-02 -6.5273844817350060e-02  -4.5116694819851616e-02 -8.8988708596794086e-02 -6.7176664562177496e-02  -4.5080848545244946e-02 -8.8833837936347262e-02 -6.6329209799874222e-02  -4.6660099614741921e-02 -8.5151856219730232e-02 -6.5882073994716434e-02  -4.4572415075227974e-02 -8.7505593976875864e-02 -6.7630776514189583e-02  -4.4393390102542507e-02 -8.7813797889925105e-02 -6.6434798279411303e-02  -4.6031447460075620e-02 -8.3676779673836660e-02 -6.6245569298997539e-02  -4.3960745828506294e-02 -8.5812546696624387e-02 -6.7786837650475287e-02  -4.3653722117847772e-02 -8.6637593426138068e-02 -6.6308233239799563e-02  -4.5340616134759398e-02 -8.2021724256436113e-02 -6.6355732906416498e-02  -4.3175884942767216e-02 -8.3956912333946726e-02 -6.7590908014910911e-02  -4.7620845261367367e-02 -8.8179061906590861e-02 -6.3708482641567116e-02  -4.6974885694836203e-02 -8.6903240994521458e-02 -6.4981632266583725e-02  -4.6431751852771895e-02 -8.5335971695863586e-02 -6.5893467453967527e-02  -4.5913362190258246e-02 -8.3526403127050425e-02 -6.6505461534999935e-02  -4.5328493569578347e-02 -8.1503579303759871e-02 -6.6835484719122942e-02  -4.4569616732690533e-02 -7.9273753327339658e-02 -6.6857440922874795e-02  -4.4464433497557923e-02 -8.0246261879024949e-02 -6.6160568414218010e-02  -4.3505578288380711e-02 -7.6830560672973794e-02 -6.6489920610289133e-02  -4.6319959174683401e-02 -6.4248766059991635e-02 -3.3462940112548162e-02  -4.4083651583856950e-02 -6.2771884152993840e-02 -2.8132948834541881e-02  -4.5511888770479840e-02 -5.7924351597864562e-02 -2.5739187278020312e-02  -4.7092108393020533e-02 -5.8842060100713529e-02 -3.5240505032353223e-02  -4.5068269415592811e-02 -5.6898520587120964e-02 -2.9706654751587874e-02  -4.6543779149782367e-02 -5.2059047244790449e-02 -2.6691724895752087e-02  -4.7818421528911956e-02 -5.3924733973382474e-02 -3.6797274342877585e-02  -4.5795876815996145e-02 -7.0316457401529711e-02 -3.8892092026205069e-02  -4.6388317768976686e-02 -6.5274153764946538e-02 -4.1106842013742359e-02  -4.6949663556177586e-02 -6.0594544926735140e-02 -4.2959631927461689e-02  -4.5981640353405732e-02 -5.1567071414663504e-02 -3.1202140180106523e-02  -4.7477666461803222e-02 -5.6037800449702274e-02 -4.4620668795158039e-02  -4.8514358652875511e-02 -4.9192582809086775e-02 -3.8277755005708229e-02  -4.6881903289252153e-02 -4.6432530259641211e-02 -3.2696780505434259e-02  -4.7990354930745549e-02 -5.1372728008336983e-02 -4.6227170889751291e-02  -4.9210884520189152e-02 -4.4403286175043945e-02 -3.9782342966530750e-02  -4.7800241034711859e-02 -4.1247724870707020e-02 -3.4278842760872681e-02  -4.8508771625796955e-02 -4.6396938183691491e-02 -4.7897040659370498e-02  -5.3964272513546616e-02 -5.3875221634469797e-02 -2.9819321558068060e-02  -5.3277606188017614e-02 -5.3219338131381119e-02 -2.9270073444433813e-02  -5.4479381884781394e-02 -4.7934665265576298e-02 -2.9124554998189299e-02  -5.5138682185295447e-02 -4.8284105704489350e-02 -2.9635854416457833e-02  -5.5635693839129856e-02 -4.3077955973961427e-02 -2.8985629006663339e-02  -5.6291944195472537e-02 -4.3287286689145041e-02 -2.9479438710615376e-02  -5.6770544300357433e-02 -3.8426746989290494e-02 -2.8920450305184826e-02  -5.7436815098493819e-02 -3.8569892403924257e-02 -2.9427656211708817e-02  -5.7916385665711029e-02 -3.3762175219708319e-02 -2.8970626874162523e-02  -5.8595899069326329e-02 -3.3846637361417464e-02 -2.9509716179451296e-02  -5.9098057607433169e-02 -2.8884226874670776e-02 -2.9146003667326979e-02  -5.9783623646398762e-02 -2.8863762659497538e-02 -2.9729035105840608e-02  -6.0330925609809537e-02 -2.3614675216026910e-02 -2.9427170831598928e-02  -6.0988617571549025e-02 -2.3371696103621543e-02 -3.0019567838698007e-02  -4.7307519971901441e-02 -3.3681248692014845e-02 -1.8366640084541540e-03  -4.7820391689221510e-02 -3.8637069756350333e-02 -8.0714719798014884e-03  -4.6414972975440213e-02 -3.4193781238685363e-02 -1.4315830779937761e-03  -4.9422440999461942e-02 -3.4504944281763601e-02 -6.2933334064557709e-03  -4.8839932549058211e-02 -3.0484820358721892e-02 3.8656884160340746e-04  -4.7974519300423575e-02 -3.0721764102392152e-02 8.1582948849965285e-04  -5.0786337412950140e-02 -3.0571994920887541e-02 -5.0212318820790627e-03  -5.0133575509089839e-02 -2.7408236691352599e-02 1.9829804160371961e-03  -4.9334844572666355e-02 -2.7401066639996342e-02 2.3693574230744968e-03  -5.2057290818265455e-02 -2.6740734815932407e-02 -4.1740926026667723e-03  -5.1331097447974719e-02 -2.4356220328496717e-02 3.0761587831627120e-03  -5.0630907568936852e-02 -2.4106259280329046e-02 3.4094248985774406e-03  -5.3333556443791015e-02 -2.2911818409587188e-02 -3.6664413391234432e-03  -5.2531646521896409e-02 -2.1258872315231197e-02 3.7745173892901759e-03  -5.1956114719483665e-02 -2.0769198453811654e-02 4.0409257903850958e-03  -5.4687901135785331e-02 -1.9013945921263656e-02 -3.4488818405406284e-03  -5.3810017675389725e-02 -1.8067127239454278e-02 4.1477048227833114e-03  -5.3384647374378050e-02 -1.7342052693519516e-02 4.3311818075978704e-03  -5.6175087114384327e-02 -1.5002431376713019e-02 -3.5057406534163000e-03  -5.5222733613841953e-02 -1.4738401986458455e-02 4.2289532237763452e-03  -5.4972449009727954e-02 -1.3789351241817592e-02 4.3318493055364560e-03  -5.2456571543033952e-02 -6.2649851424984443e-02 -4.5799462056607496e-02  -5.2670646582751925e-02 -6.5788683763542244e-02 -5.1105163813495495e-02  -5.2014286910567677e-02 -6.5717245987814116e-02 -4.8489278807101362e-02  -5.2427998767904438e-02 -6.1897245711362431e-02 -4.9514222943312106e-02  -5.3120075310619692e-02 -6.2346896463271455e-02 -5.1948907576114908e-02  -5.3222116854303420e-02 -5.8568534688941194e-02 -4.6629483542943113e-02  -5.2903749410448370e-02 -5.8238653644770197e-02 -5.0278461180310541e-02  -5.3659362781244238e-02 -5.8976906010078087e-02 -5.2545415750312824e-02  -5.4007802710667623e-02 -5.4697834668424067e-02 -4.7239506085306360e-02  -5.3408653588293289e-02 -5.4625986424863132e-02 -5.0871399779760573e-02  -5.4246005246821064e-02 -5.5626745167734810e-02 -5.2973272963500961e-02  -5.4823541197249567e-02 -5.0907373948479231e-02 -4.7721414623478134e-02  -5.3921567736699455e-02 -5.0957988788938403e-02 -5.1349452280801976e-02  -5.4849618653004091e-02 -5.2236512263066165e-02 -5.3277281617717255e-02  -5.5660176774697478e-02 -4.7085511898823956e-02 -4.8130310163814097e-02  -5.4425717705204109e-02 -4.7129464996698740e-02 -5.1739216406763690e-02  -4.9910730727073180e-02 -4.0283134865969086e-02 -1.0614686477169195e-02  -5.1360455836637460e-02 -3.6159366314246565e-02 -9.0336997862173630e-03  -5.2562748415070498e-02 -3.2298040754779683e-02 -7.8667482467868807e-03  -5.3646665113431698e-02 -2.8546859158314775e-02 -7.0551680079394543e-03  -5.4707043393893547e-02 -2.4778980004576560e-02 -6.5447973450627472e-03  -5.5821150840167241e-02 -2.0897035482279006e-02 -6.2935775096821271e-03  -5.7063794029200046e-02 -1.6832115288639708e-02 -6.2873816058234772e-03  -5.4581328551979294e-02 -5.4326823302868664e-02 -3.2174645832305351e-02  -5.4682995526551210e-02 -5.0230479255433114e-02 -2.2443762932240558e-02  -5.5549155542748349e-02 -4.4597587919935226e-02 -2.1850837379460784e-02  -5.5829388734748610e-02 -4.8549760565581974e-02 -3.2053569573491911e-02  -5.6397282545235232e-02 -3.9690050837910371e-02 -2.1466277677049887e-02  -5.7055179664621945e-02 -4.3643750266649635e-02 -3.2015332724128535e-02  -5.7254259595124410e-02 -3.5109549622474714e-02 -2.1302840490124986e-02  -5.8284423291458852e-02 -3.9040411870147722e-02 -3.2104162719686261e-02  -5.8142357571986880e-02 -3.0513846307310639e-02 -2.1338563000018244e-02  -5.9540630186081654e-02 -3.4369403994478603e-02 -3.2344998012262503e-02  -5.9073406644478882e-02 -2.5625647323984157e-02 -2.1550237531731645e-02  -6.0835154818795693e-02 -2.9313258105634128e-02 -3.2724148701054293e-02  -6.0033512298051366e-02 -2.0176183245386493e-02 -2.1904657522798118e-02  -6.2141208125465246e-02 -2.3545884834897522e-02 -3.3103715170967295e-02  -4.4271302271871121e-02 -7.1457368397347204e-02 -3.7449087692407228e-02  -4.2431696463728900e-02 -7.0149142281910340e-02 -3.2496815353873998e-02  -4.3366717161055258e-02 -6.4464463374661926e-02 -3.4953033451752581e-02  -4.4975247383949646e-02 -6.6255850388422299e-02 -3.9843248690775143e-02  -4.4205444538059760e-02 -5.9357080781226916e-02 -3.7104734172021030e-02  -4.5621930389023166e-02 -6.1450108876569785e-02 -4.1880110374171733e-02  -4.5002542312547425e-02 -5.4436060207627868e-02 -3.9134601320663806e-02  -4.6230838987484445e-02 -5.6770275747740739e-02 -4.3731231811620370e-02  -4.5796497464259220e-02 -4.9414280083355328e-02 -4.1166218365982117e-02  -4.6826908347025770e-02 -5.1965729556472398e-02 -4.5537816644310766e-02  -5.3005309547652868e-02 -6.0356160335141136e-02 -4.6871227988224066e-02  -5.3051989073317214e-02 -6.0223695104277629e-02 -4.4659545089978804e-02  -5.3542536983010557e-02 -5.7121574372467766e-02 -3.7518725300695360e-02  -5.4920084280080432e-02 -5.1831758420278158e-02 -3.7742403854328380e-02  -5.4526789525464969e-02 -5.5492606765452042e-02 -4.5219007059148483e-02  -5.4836457619765279e-02 -5.5442449091535950e-02 -4.7287086865959595e-02  -5.6292229518911718e-02 -4.7009109060097774e-02 -3.7886676493861279e-02  -5.6018848946400017e-02 -5.1107400242648739e-02 -4.5578303259828555e-02  -5.6616576705272370e-02 -5.0986147063417732e-02 -4.7539368215549403e-02  -5.7666645206787187e-02 -4.2395661669301969e-02 -3.8035295613925997e-02  -5.7528666593387019e-02 -4.6855127995257907e-02 -4.5865203161205889e-02  -5.8389118047035518e-02 -4.6682538105693068e-02 -4.7751325671722564e-02  -5.9059144883412393e-02 -3.7734226789254442e-02 -3.8243904328987804e-02  -5.9061340241025925e-02 -4.2552603395412406e-02 -4.6146186339215738e-02  -6.0179213453353329e-02 -4.2301105678940389e-02 -4.7987267809872933e-02  -6.0476847162997040e-02 -3.2786584368919354e-02 -3.8535888648897253e-02  -6.0614044545761026e-02 -3.8018829461723642e-02 -4.6458893858221217e-02  -6.2002657990712966e-02 -3.7613315857667196e-02 -4.8275826288315102e-02  -6.1891519157246791e-02 -2.7316615015125032e-02 -3.8873670440592673e-02  -6.2154997920904488e-02 -3.3077214773909382e-02 -4.6821955690275315e-02  -6.3838054717123657e-02 -3.2429350108185269e-02 -4.8733397071442780e-02  -5.3893139073080645e-02 -4.4943904990777266e-02 -1.4235828202064125e-02  -5.4669038652627823e-02 -3.9997747268160057e-02 -1.2911591482769083e-02  -5.5346288100725512e-02 -3.5578652929772338e-02 -1.1960581893272182e-02  -5.5989656153929056e-02 -3.1404024045301841e-02 -1.1313949620220039e-02  -5.6646600267296066e-02 -2.7227479847113184e-02 -1.0938490435941771e-02  -5.7346730527823672e-02 -2.2844081007543152e-02 -1.0797205021035081e-02  -5.8100132303044623e-02 -1.8071814329100079e-02 -1.0849224402206242e-02  -4.8442113987585952e-02 -4.2525153680780400e-02 -1.3609924998379770e-02  -4.7108085283544730e-02 -4.0463579596681010e-02 -9.4282857786652258e-03  -4.8699518476100052e-02 -3.5879502674318560e-02 -7.8426709645690058e-03  -5.0015109095073604e-02 -3.7849649374573600e-02 -1.2506768613600418e-02  -5.0088966765993684e-02 -3.1581702752412420e-02 -6.8055730304501872e-03  -5.1374002305340255e-02 -3.3466934967396882e-02 -1.1860611686482319e-02  -5.1410913688386101e-02 -2.7411528747630136e-02 -6.1885245328437040e-03  -5.2650785780432405e-02 -2.9201954347983020e-02 -1.1534856318985499e-02  -5.2759510217035947e-02 -2.3245345366415076e-02 -5.9052878149862854e-03  -5.3941852918082338e-02 -2.4919165071864518e-02 -1.1478524546629473e-02  -5.4202406552910733e-02 -1.9000355656638726e-02 -5.9144571991550758e-03  -5.5319670691344441e-02 -2.0528060916851366e-02 -1.1675825976116192e-02  -5.5794844609216063e-02 -1.4620321371855625e-02 -6.2147681073753888e-03  -5.6845184097753521e-02 -1.5973482066864109e-02 -1.2129452600723229e-02  -4.8313829195472786e-02 -4.6950793635487986e-02 -1.8489427146706195e-02  -4.9772745768684533e-02 -4.1772635820414621e-02 -1.7995053506851412e-02  -5.1057132663848169e-02 -3.7040948060768616e-02 -1.7794239057329696e-02  -5.2282890410819183e-02 -3.2485127822445461e-02 -1.7853145475595762e-02  -5.3526439546249811e-02 -2.7931640371307031e-02 -1.8135926376202299e-02  -5.4847920082284611e-02 -2.3266282849866610e-02 -1.8638649495104180e-02  -5.6299878755072419e-02 -1.8413588985581219e-02 -1.9384425900222598e-02  -5.1837490856683745e-02 -6.2388907716563871e-02 -4.3522646889281744e-02  -5.2551264529533244e-02 -5.8074132176826568e-02 -4.4416639585601173e-02  -5.3276640163635487e-02 -5.3989569069853492e-02 -4.5090769573387528e-02  -5.4017517664190828e-02 -5.0013073898903741e-02 -4.5644881435779064e-02  -5.4774934367467207e-02 -4.6006193729525684e-02 -4.6142244445697422e-02  -5.5556910201496369e-02 -4.1834629832857670e-02 -4.6619686434123120e-02  -5.6513118145794787e-02 -4.3111092770229315e-02 -4.8492486205707792e-02  -5.6384928152559549e-02 -3.7355458863524461e-02 -4.7081194816779422e-02  -5.4912519411679080e-02 -4.3042641350592277e-02 -5.2059172245954799e-02  -5.7383974163749130e-02 -3.8830224836848212e-02 -4.8803462887377864e-02  -5.3163232702363908e-02 -5.6590464392859856e-02 -3.6312301726946571e-02  -5.4426818322726063e-02 -5.1569773183623518e-02 -3.6611295086829469e-02  -5.5678370696384726e-02 -4.6909668855700005e-02 -3.6837889771269582e-02  -5.6931761093980987e-02 -4.2409117133085976e-02 -3.7055553867568362e-02  -5.8205459781722861e-02 -3.7869403470365090e-02 -3.7313998991804070e-02  -5.9510839583590963e-02 -3.3105338497851161e-02 -3.7638762960406823e-02  -6.0848279366055268e-02 -2.7936039099957264e-02 -3.8047686003720695e-02  -5.5498556204398287e-02 -5.0703285913228549e-02 -2.4211067834429459e-02  -5.6307568149108797e-02 -4.4947244397974213e-02 -2.3834562773601561e-02  -5.7133276873401487e-02 -4.0204348585706706e-02 -2.3737968606454725e-02  -5.8000285215749105e-02 -3.5776723406931193e-02 -2.3861631328403604e-02  -5.8924542661098318e-02 -3.1264724372605322e-02 -2.4181875849336166e-02  -5.9904652054624329e-02 -2.6360027856656965e-02 -2.4658182616725650e-02  -6.0906669282697841e-02 -2.0723018913520738e-02 -2.5211465103472504e-02  -5.0388937490130140e-02 -4.4788852198344976e-02 -1.7250976251036887e-02  -5.1868360093152086e-02 -4.0110619012823812e-02 -1.6287992794254698e-02  -5.3119533276934826e-02 -3.5759340257542703e-02 -1.5648548345754163e-02  -5.4276703097329640e-02 -3.1545190858467083e-02 -1.5252851583652435e-02  -5.5425626302921673e-02 -2.7319888644508846e-02 -1.5075728549733804e-02  -5.6634188344874582e-02 -2.2967491408502006e-02 -1.5108781925248171e-02  -5.7961057704394081e-02 -1.8409086808686678e-02 -1.5379449275298596e-02  -4.5001451129964953e-02 -9.2731301434382948e-02 -6.4388529584504181e-02  -4.4051950495709612e-02 -9.1805119216537265e-02 -6.0814416021278801e-02  -4.5425678646281067e-02 -9.0274146131285524e-02 -6.1337696461410948e-02  -4.5169607936685362e-02 -8.8211300615255284e-02 -6.3267430524128518e-02  -4.3939825176994511e-02 -8.9567502731035378e-02 -6.2918143827810830e-02  -4.4589087907651634e-02 -9.1358981007550702e-02 -6.5945556527378574e-02  -4.4944045970060152e-02 -8.5975017809575949e-02 -6.4728337017161672e-02  -4.3841156513354435e-02 -8.7179665143959570e-02 -6.4516057589605366e-02  -4.4237731508963894e-02 -8.9713867683264226e-02 -6.7068789178212879e-02  -4.4702255353952870e-02 -8.3542674418990576e-02 -6.5810809570256909e-02  -4.3713724075485919e-02 -8.4596512681501770e-02 -6.5713915435333559e-02  -4.3878091570936827e-02 -8.7819104103266238e-02 -6.7833153715335978e-02  -4.4387395593951440e-02 -8.0861540063594070e-02 -6.6571392731722467e-02  -4.3513462637257805e-02 -8.1748045639464778e-02 -6.6576153028541071e-02  -4.3444349050846001e-02 -8.5683699451814338e-02 -6.8262100876451556e-02  -4.3932495981956400e-02 -7.7843632242210567e-02 -6.7028166521690177e-02  -4.3190680816589638e-02 -7.8527286694340073e-02 -6.7132369963843780e-02  -4.2858037833900554e-02 -8.3290950301394495e-02 -6.8332251220856177e-02  -4.3262238361406150e-02 -7.4350218492240674e-02 -6.7180047610241794e-02  -4.2699301735513083e-02 -7.4782074822543815e-02 -6.7388299839147847e-02  -4.2024177539151594e-02 -8.0587237780491996e-02 -6.7957805920356745e-02  -4.7239562014982937e-02 -4.6159293294154552e-02 -1.6249740161110610e-02  -4.8694404477775136e-02 -4.0881054868365199e-02 -1.5615069565838562e-02  -4.9979353134699922e-02 -3.6031329634046420e-02 -1.5393423449082032e-02  -5.1232034430705599e-02 -3.1353044831380912e-02 -1.5469594820813783e-02  -5.2521431415325899e-02 -2.6678146805297131e-02 -1.5800474437045423e-02  -5.3901495281753045e-02 -2.1896412079258139e-02 -1.6376954241741550e-02  -5.5406736925391165e-02 -1.6934894775194852e-02 -1.7205930979288176e-02  -5.3757112373553489e-02 -5.7516168880820250e-02 -3.9801954778309473e-02  -5.5335149163712807e-02 -5.2091329226231275e-02 -4.0057346116452890e-02  -5.6881065486719930e-02 -4.7335698029578828e-02 -4.0236115922589230e-02  -5.8426590707854879e-02 -4.2811010612247596e-02 -4.0455274464528436e-02  -5.9994726021558413e-02 -3.8201874382074522e-02 -4.0757394341370934e-02  -6.1596962353418813e-02 -3.3206869938990288e-02 