<?xml version="1.0"?>
<VTKFile type="UnstructuredGrid"  version="0.1"  >
<UnstructuredGrid>
<Piece  NumberOfPoints="690" NumberOfCells="2907">
<Points>
<DataArray  type="Float64"  NumberOfComponents="3"  format="ascii">3.309510379629804 0.8863836409368193 2.616154815527406  3.444182813441553 0.9209586002677446 2.667203884134563  3.328980118271651 0.9521439490552337 2.762453947971372  3.332655598933088 0.8967213002316559 2.78851043660581  3.448401826589566 0.8642325253604897 2.690585360521831  3.31579258608076 0.8280953931305725 2.639930694748617  3.336298194938632 0.8413373348870876 2.81455400698196  3.452574480522336 0.80754298103268 2.713933865372631  3.322102618770432 0.7698559053450988 2.663701515376427  3.339910520426894 0.7859891466894402 2.840585789008104  3.456712043473359 0.750882338130715 2.737273256320213  3.328411795279227 0.7116554172552569 2.687465679565256  3.343493472723937 0.7306761786724061 2.866610772541831  3.46082049465365 0.6942531242978898 2.760607165345694  3.334688177644538 0.6534862464869524 2.711227281879887  3.347039831482192 0.6754069919168225 2.892629007199851  3.464900777326104 0.637659013888338 2.783938243179442  3.340883402761118 0.5953598670357796 2.734980830220038  3.350535924438287 0.6201925860512225 2.918629191040643  3.468950506189825 0.581140988175765 2.807258238499981  3.346915821363121 0.5372907205274948 2.758713401790215  3.924235845684834 1.054631281481423 2.896407026829799  4.042648438318679 1.018677187878864 2.80291522239478  4.029734928942861 1.086480894916666 2.944184107613537  4.033581811572337 1.035450523225623 2.970238407666375  4.047032421962647 0.9656749557324483 2.826341469258864  3.927785224865167 1.003016755565553 2.922148426255673  4.051363953183974 0.9126517322100309 2.849739858872248  3.931274572950194 0.9513885441188332 2.947865002805727  4.037379158528795 0.9844007145567089 2.996288118415261  3.934733035938298 0.8997583137470264 2.973563971174869  4.055670271107773 0.8596259161615664 2.873116196267135  4.041152961911114 0.9333442221346975 3.022328649986522  3.938187963156937 0.8481354506971741 2.999251581215874  4.059975242076549 0.8066091746322046 2.896482761900796  4.044926575598378 0.8822876213032286 3.048360405467668  3.941666559112415 0.7965275955183193 3.024937364180309  4.064300864416618 0.7536103722465325 2.919855050203848  4.048724443084279 0.8312334234966833 3.074387343770027  3.945198747483074 0.744940545759847 3.050637823756019  4.068665734873053 0.700631522291109 2.943250376855835  4.052569985463395 0.7801836234384977 3.100417422232893  3.917567988818408 0.9895243592666594 2.76171074308338  3.922087497822786 0.9358718841143401 2.785146459244783  3.92654870632354 0.882200515798256 2.808540423514554  3.93097958570269 0.8285328957924153 2.831906957783342  3.935404964659423 0.7748816737466495 2.855261291474537  3.939847456323109 0.7212572559917418 2.878621369185009  3.944327511688839 0.6676594158387426 2.90201591724711  4.358478989280089 1.037284436718629 2.781353379484818  4.45230853778671 1.012400541590513 2.694290892315442  4.482284864998666 1.061905086215139 2.803104333200595  4.488601521213908 1.009480065210504 2.827862910145921  4.458541324074151 0.9568999751694327 2.713115379807013  4.363993185928181 0.9838375751784043 2.80413536624355  4.494947324322871 0.9570407877874865 2.852621502195785  4.464766785520603 0.9013826952036632 2.731914799427259  4.369487779399154 0.930373341240925 2.826899694305932  4.501308089077008 0.9045966431727638 2.877373319137379  4.470992650372068 0.8458677293861886 2.750704190563797  4.37497844968242 0.8769042331264161 2.849654950570768  4.477227408071798 0.7903615550608907 2.769487046624896  4.380477006225024 0.823438096001991 2.872403257802603  4.507673869629074 0.8521489698351448 2.902119536735071  4.483481045986071 0.7348668028986112 2.788268568055393  4.38599852936984 0.7699798820078559 2.895151403162465  4.514035553789819 0.7996978418786478 2.926865924930304  4.489751262828892 0.6793824297213956 2.807063911788437  4.391553746001064 0.716532185809617 2.917909467565603  4.520400245184372 0.7472433179061417 2.951627041262305  3.724370281775525 1.141282247703243 3.082711101866201  3.704081063170253 1.062356391008062 2.939199219735253  3.822384560095361 1.099806315808445 2.996032815519053  3.825412925076121 1.048949271364176 3.022795826828248  3.706968123709886 1.010837563877719 2.965983619177339  3.727026573158672 1.090783709578263 3.11052177784317  3.828381211514174 0.998084081419947 3.049547488054737  3.709793118079762 0.9593178684287758 2.992743592239803  3.729626638310848 1.040286956174908 3.138328061300475  3.831318955925492 0.9472196760542815 3.076287791341103  3.712585328409843 0.9078059984942044 3.019486152181014  3.732197460056686 0.9897968318171553 3.166126471285223  3.834251381274478 0.8963607685127712 3.103016720772792  3.715368143289176 0.8563072981058725 3.046215939620422  3.734762684313446 0.9393140643211506 3.193912245902549  3.83720413045812 0.8455098597451265 3.129737529124846  3.71816431234493 0.8048280998907978 3.072938506229869  3.737346177189691 0.8888375756289735 3.221682754786094  3.840206750118762 0.7946704576098146 3.156458887749065  3.721000676927003 0.7533737561695364 3.099668376551995  3.739976271795561 0.838365213967119 3.249438154501159  4.762363583659877 0.9703050156166292 2.944825035751215  4.643090298474503 1.011367778834664 3.040521206961898  4.759490979121514 1.057029317258872 3.083514899565206  4.754476736095483 1.02168411383308 2.917544750416081  4.635371061541396 1.061082099096599 3.011842678134058  4.7677762895573 1.007928205051527 3.113117387346341  4.770251871723918 0.9189382919576861 2.972087006599022  4.650812045528995 0.9616553729217374 3.069185366219412  4.776033004907151 0.9588249291676859 3.142692610434723  4.778119940973102 0.8675761143008115 2.999323010154519  4.658507971151066 0.9119348429175518 3.097826530494713  4.784206689896867 0.9097053583962994 3.172231577785116  4.785942263038891 0.8161982332003074 3.026530579640188  4.666147499098888 0.8621891068688934 3.126441779065658  4.137736868299912 1.200750625573459 3.135114800901515  4.287913783264488 1.20209767088271 3.109051265978291  4.22546650749129 1.255571698876552 3.216201860785723  4.231185913849072 1.205509273462248 3.244669836942566  4.29397104361812 1.15242760139899 3.137209231498668  4.14262298236633 1.151025211698596 3.163157979845545  4.236926476199165 1.155453581686469 3.273172792182846  4.300058128805672 1.102760928704073 3.165395518008507  4.147501212775381 1.101297249261398 3.191224171550169  4.242677289254162 1.105401548713315 3.301684310833085  4.30615874486836 1.053095579670245 3.193587017259085  4.152376734440038 1.05156739642834 3.219295143872087  4.248432207687943 1.055345514983224 3.33018255294589  4.312262951595291 1.00342561472212 3.221767050697633  4.157254500756716 1.0018311656913 3.247356224605042  4.254188143677931 1.005269665797042 3.358648687049953  4.318363976477279 0.9537383086834658 3.2499232653009  4.162142442250625 0.9520767676890842 3.275396506146232  4.25994685037735 0.9551482688653163 3.387064154328932  4.32445514703814 0.9040093862604848 3.278050873265845  4.167055994865598 0.9022841306358167 3.303409093266272  3.941588661381654 0.9167360710210328 2.568195725536975  4.088862143217334 0.9245686554824872 2.537024085209219  4.03237790027634 0.9614265938514031 2.662344149622375  4.037857095795284 0.9063884705782752 2.6831250641046  4.095645075070387 0.8667323708316648 2.551645723684627  3.945364566859413 0.8587781537432218 2.584851726457746  4.043300844057111 0.8513283607881382 2.703863968774311  4.102407595123254 0.8088793318332486 2.566197893123395  3.949004186005608 0.800807046584375 2.60144398270229  4.048718874015774 0.7962635071881294 2.724572379763909  4.109146243744094 0.751037496008057 2.580712207655337  3.952588561991934 0.7428586082220593 2.618000964449795  4.054134353105805 0.7412103502937595 2.745272543744009  4.115882812685245 0.6932220244278235 2.595219732844341  3.95617039147293 0.6849491753801771 2.634551393606532  4.059569245256252 0.6861800248328225 2.765989359049703  4.122635344066843 0.6354402170955442 2.609751523989371  3.959806702471461 0.6270918348474671 2.651121223193693  4.065026716377806 0.6311780230300823 2.786747730819902  4.129381122430184 0.5776768683890569 2.624345827503171  3.963570636040821 0.569253310956303 2.667729703449309  3.667890517290364 1.286012700114159 3.336845682327847  3.689021067269632 1.204646334640682 3.199233445796956  3.796542165765982 1.254605961568233 3.276752939016434  3.799163193883683 1.204443445029148 3.306537029310333  3.691288213873551 1.154452889950513 3.228350779436088  3.669595399091188 1.235947406031969 3.368116173000553  3.801738509335531 1.154299190726291 3.33634682568411  3.693504045175662 1.104272400758992 3.2574786242005  3.67125613210416 1.185912971112546 3.399413376107102  3.804295020275744 1.104169195105931 3.366159796651127  3.695696470780669 1.054104847246387 3.286603314233156  4.292653292537628 0.9749842965080374 2.633149409972105  4.298576579153531 0.9186769382165118 2.650629734125331  4.304481087893846 0.8623579389780256 2.66806378445131  4.310379249636408 0.8060485755591003 2.685475755705099  4.316277990826348 0.7497587444657061 2.702880772830391  4.32218490118195 0.6934975182801082 2.720294580127059  4.328111975146074 0.6372648982440494 2.737737538189458  4.278337054901694 1.123570351038738 2.97057831477167  4.404503696424277 1.159546685563061 3.007709487609453  4.411192103257672 1.109822684769237 3.035592446129314  4.284157515164271 1.073660968681541 2.998330772903902  4.417928091595045 1.060103266277704 3.06350041059431  4.289996147226146 1.023738334645553 3.026094680552705  4.424685289128172 1.01038579859974 3.091412174016851  4.295841819051827 0.9738080657261473 3.053858890492261  4.431446385906967 0.9606634405144447 3.119313784775415  4.301690825261067 0.9238704936486156 3.081614882041586  4.438197251192473 0.9109250867601959 3.147197044643827  4.307542552162428 0.8739193899428572 3.10936
[...]
<PointData  Vectors="f_24"> 
<DataArray  type="Float64"  Name="f_24"  NumberOfComponents="3" format="ascii">2.1937459507773580e-02 -6.3938514678317057e-02 5.3637671304699640e-03  2.1431055028058300e-02 -6.9446085085756490e-02 9.5118189588418462e-03  2.2119453044723226e-02 -6.8019364348552810e-02 1.0522415308006308e-02  1.9812580625199000e-02 -6.8211346238609763e-02 8.9479778833397132e-03  1.9325679857458759e-02 -6.9440848693780061e-02 7.4613449808903221e-03  1.9750242508474593e-02 -6.3807001805572042e-02 3.3900285044037200e-03  1.7536971547912648e-02 -6.8114423704024110e-02 7.6250663137770180e-03  1.7228156695232869e-02 -6.9250671631642002e-02 5.8309024614268271e-03  1.7603704473760876e-02 -6.3556299855771659e-02 1.8648836476407589e-03  1.5290692151217521e-02 -6.7839575622595905e-02 6.3985860376101020e-03  1.5151436551947174e-02 -6.8991903560411766e-02 4.3667596255117349e-03  1.5497242124342689e-02 -6.3298607105096480e-02 5.3499032474974169e-04  1.3052616708642542e-02 -6.7485437789483196e-02 5.1034913211332944e-03  1.3089255979604296e-02 -6.8743104225982038e-02 2.8768117604450281e-03  1.3415561386888035e-02 -6.3109428664589698e-02 -8.0296963395047453e-04  1.0800963670130875e-02 -6.7130640597893684e-02 3.5812019763265734e-03  1.1040535980307579e-02 -6.8574692807637047e-02 1.1937075433242144e-03  1.1340176105820433e-02 -6.3062005378051220e-02 -2.3210795487406889e-03  8.5126047073374941e-03 -6.6850688450745113e-02 1.6783557538301128e-03  8.9909470869905302e-03 -6.8532775296748047e-02 -8.5901184371972323e-04  9.2564631202262625e-03 -6.3229901242635278e-02 -4.1728969812620731e-03  1.9811984469866806e-02 -9.1022307800544461e-02 2.2976040080215854e-02  1.9108927747630615e-02 -9.2509189121421448e-02 2.2556490019277495e-02  1.9713974961135340e-02 -9.5505323866161659e-02 2.5223764341891584e-02  1.7574554148723370e-02 -9.5825693215973562e-02 2.4450572916576374e-02  1.7047274621515150e-02 -9.2856253432610419e-02 2.0676725170024158e-02  1.7700716664483477e-02 -9.1360002784194649e-02 2.1833915374987647e-02  1.5010617685470436e-02 -9.2860586820684293e-02 1.9047314085628327e-02  1.5604864267651748e-02 -9.1293445228088146e-02 2.0847681977387306e-02  1.5454116797030709e-02 -9.5676156953075520e-02 2.3751613410477670e-02  1.3523575149248632e-02 -9.0924966024912929e-02 1.9872317851814675e-02  1.2987416744245195e-02 -9.2664158538072125e-02 1.7501553756643806e-02  1.3345240192098843e-02 -9.5204752177809548e-02 2.3032797082548361e-02  1.1441942632402436e-02 -9.0344725851012539e-02 1.8775846649243717e-02  1.0970153435292127e-02 -9.2333158846103922e-02 1.5868212318816945e-02  1.1234433121555249e-02 -9.4482146877277517e-02 2.2168993667003884e-02  9.3580581984925842e-03 -8.9620718640619532e-02 1.7428720620965663e-02  8.9519862782306021e-03 -9.1941535520742954e-02 1.4002138753246983e-02  9.1156001001182312e-03 -9.3572877291962703e-02 2.1055022242056382e-02  7.2654094408658642e-03 -8.8807066354943939e-02 1.5698015391788958e-02  6.9219214784038306e-03 -9.1562948859494786e-02 1.1772968272565852e-02  6.9827926342395886e-03 -9.2519771841679491e-02 1.9586690837442418e-02  1.9269567012445483e-02 -8.7095354767125807e-02 1.9501066822108060e-02  1.7254612236572212e-02 -8.7357464962235162e-02 1.7457122554580748e-02  1.5250769644590573e-02 -8.7363878291118774e-02 1.5731824651976162e-02  1.3257623846360526e-02 -8.7191011817641176e-02 1.4116806511936761e-02  1.1270483775261604e-02 -8.6926996789661620e-02 1.2427498549632009e-02  9.2845235417670785e-03 -8.6649124406981831e-02 1.0502140867563261e-02  7.2887282564254152e-03 -8.6452754540359611e-02 8.2052570133909868e-03  1.8130063590241899e-02 -1.0220101039396681e-01 2.6472496143009391e-02  1.7342012504211805e-02 -1.0172539380354344e-01 2.4718686827654851e-02  1.8043056513805548e-02 -1.0709217353870699e-01 2.9061958316379758e-02  1.6019275583896396e-02 -1.0772312723722151e-01 2.6957029847477144e-02  1.5335528845523397e-02 -1.0183088282817725e-01 2.2013578041365268e-02  1.6091773049674726e-02 -1.0261308712914485e-01 2.4237539020650029e-02  1.4015460956794791e-02 -1.0796329364001880e-01 2.5160962337797906e-02  1.3388291788977314e-02 -1.0180019201471707e-01 1.9651967847149326e-02  1.4067720345850777e-02 -1.0270419066583888e-01 2.2330713658903316e-02  1.2022420618901700e-02 -1.0794053267380979e-01 2.3441328934043156e-02  1.1459117274865736e-02 -1.0166570593257779e-01 1.7405060160339488e-02  1.2050675861471910e-02 -1.0258699489991778e-01 2.0505285933888888e-02  9.5366493808577129e-03 -1.0147909651847016e-01 1.5096343066571932e-02  1.0035421838168362e-02 -1.0234988494572536e-01 1.8589871219928382e-02  1.0019307778264725e-02 -1.0774310692168398e-01 2.1605207583105607e-02  7.6065567953837628e-03 -1.0131217377188995e-01 1.2593141441228209e-02  8.0107773169969896e-03 -1.0206812983407559e-01 1.6436823755466547e-02  7.9969264523836580e-03 -1.0747722967264042e-01 1.9497863173917263e-02  5.6617515896812574e-03 -1.0123688330060178e-01 9.7987347108899198e-03  5.9774505721824165e-03 -1.0179964903209104e-01 1.3929035393827839e-02  5.9500081997063293e-03 -1.0724426861346308e-01 1.6967663929795467e-02  2.0660023930292693e-02 -8.5409131596419705e-02 2.0961774945234476e-02  2.0610373380928873e-02 -8.4291214979897264e-02 2.0277678756128681e-02  2.0354416714945089e-02 -8.8925715035885464e-02 2.2543053742960107e-02  1.8175404444337465e-02 -8.9038165772314604e-02 2.2302001089298626e-02  1.8441271998767609e-02 -8.4501845146509477e-02 1.9597156751353248e-02  1.8429332603930527e-02 -8.5155129465117205e-02 2.1518561119922907e-02  1.6025071999484219e-02 -8.8706677106028836e-02 2.2052783164363449e-02  1.6289249987754099e-02 -8.4292489717744765e-02 1.8982297852249624e-02  1.6234566538059377e-02 -8.4484604650630554e-02 2.1942548159891141e-02  1.3886851055134786e-02 -8.8035170053424427e-02 2.1726022130034304e-02  1.4150066208411503e-02 -8.3771222263332570e-02 1.8335032293312611e-02  1.4057353346097444e-02 -8.3473877658061177e-02 2.2225154518931225e-02  1.1751900637369923e-02 -8.7093199022891324e-02 2.1248104620953726e-02  1.2014590657716151e-02 -8.3014746145396265e-02 1.7550526492197377e-02  1.1883259871042226e-02 -8.2164963170010277e-02 2.2343995064150433e-02  9.6102995246499980e-03 -8.5922153695351541e-02 2.0532909704033153e-02  9.8736394750215447e-03 -8.2075303610974856e-02 1.6515085140275131e-02  9.6976912578610412e-03 -8.0570034232289992e-02 2.2262194473308110e-02  7.4546038278210146e-03 -8.4537391981557075e-02 1.9483134002332481e-02  7.7178973946623189e-03 -8.1004154830625397e-02 1.5107087882592730e-02  7.4820559909154006e-03 -7.8669515306586377e-02 2.1927460891298087e-02  1.2338887503648987e-02 -1.1915120119767200e-01 3.0044673130952486e-02  1.3082169173856375e-02 -1.1713826484597714e-01 3.2415538374045552e-02  1.3599900418972426e-02 -1.2169230997097710e-01 3.5708405227095417e-02  1.4253383481812308e-02 -1.1915138453842632e-01 3.1515233806865078e-02  1.5118325834504931e-02 -1.1741720367403048e-01 3.3110694969413934e-02  1.1578211426187004e-02 -1.2093119687213089e-01 3.5190248744292801e-02  1.0401369395143951e-02 -1.1888637834722723e-01 2.8383199590959900e-02  1.1012552598656866e-02 -1.1652113588569257e-01 3.1523688562511351e-02  9.4888531953700363e-03 -1.1983675314997799e-01 3.4309528941226609e-02  8.4203065684923910e-03 -1.1847965861737854e-01 2.6356207591454486e-02  8.8814120178445435e-03 -1.1565184985328564e-01 3.0276349391276401e-02  7.2861872745663683e-03 -1.1847823261510398e-01 3.2812636648146598e-02  6.3887200754892369e-03 -1.1807991751100469e-01 2.3847675538250249e-02  6.6723136263972874e-03 -1.1464060732142450e-01 2.8481190537977395e-02  2.0158246257035734e-02 -9.9541944506301452e-02 2.6480903442035693e-02  2.0118271425866426e-02 -1.0540656282256754e-01 2.9105913774879637e-02  2.0238924343265442e-02 -1.0076204477598592e-01 2.6027795553299340e-02  1.7902417968260555e-02 -9.9924195039785418e-02 2.7994899719518466e-02  1.7851220407238917e-02 -1.0527089644777846e-01 2.9983398206797678e-02  1.7896088318346010e-02 -9.9161177281857998e-02 2.7596138565028086e-02  1.5620285265815487e-02 -9.8695259300617025e-02 2.9657557809112691e-02  1.5628946168067603e-02 -1.0464460854976146e-01 3.0702666881831944e-02  1.5672773356785474e-02 -9.8345188229563563e-02 2.8514159475304699e-02  1.3353018495632097e-02 -9.7104746072250045e-02 3.1086265466745019e-02  1.3412821170108625e-02 -1.0360968240562632e-01 3.1254885214180461e-02  1.3463102870391650e-02 -9.7155381404429197e-02 2.9255708687941352e-02  1.1067571265416160e-02 -9.5152935683432652e-02 3.2336534531027535e-02  1.1174628092313999e-02 -1.0221005882578961e-01 3.1617956439154847e-02  1.1241926615808032e-02 -9.5622811266631497e-02 2.9823493202681149e-02  8.7295468047894689e-03 -9.2806184734793101e-02 3.3450294487354815e-02  8.8837558309463865e-03 -1.0045724122002969e-01 3.1750938462256288e-02  8.9831167264221839e-03 -9.3742822993021890e-02 3.0200036509849870e-02  6.3060416847314548e-03 -9.0002357854685036e-02 3.4459998439960310e-02  6.5051820599200828e-03 -9.8338207553863730e-02 3.1596947745068341e-02  6.6588892125833436e-03 -9.1457495327488786e-02 3.0345436628380056e-02  1.8380484661826235e-02 -8.0685541246780915e-02 1.2260189652259005e-02  1.7807414715711369e-02 -8.3801457024926071e-02 1.3230379589997045e-02  1.8572401781072830e-02 -8.7118992112330332e-02 1.7801854265603642e-02  1.6608433835232524e-02 -8.7213594947278386e-02 1.5264521912625654e-02  1.5890917282508965e-02 -8.3235715720074474e-02 1.0535126892210945e-02  1.6505816670047784e-02 -8.0161963446818751e-02 9.6652701162721916e-03  1.4663776604170580e-02 -8.7127576217638392e-02 1.3152304384101218e-02  1.4051783780166322e-02 -8.2786653305899779e-02 8.2983232223791965e-03  1.4663527406662066e-02 -7.9715097832525172e-02 7.5268271557626587e-03  1.2744860869928003e-02 -8.6982992823078531e-02 1.1215895830910667e-02  1.2253358561591056e-02 -8.2454998878227576e-02 6.2359005497960324e-03  1.2843750301853932e-02 -7.9352040307193034e-02 5.5575105243791598e-03  1.0837288049584590e-02 -8.6847360518974903e-02 9.2522515638843675e-03  1.0473875312597953e-02 -8.2258908824941246e-02 4.1539607649170264e-03  1.1037260125639371e-02 -7.9102666731395890e-02 3.5588075518366907e-03  8.9296176230849907e-03 -8.6778129116150016e-02 7.0849078951062058e-03  8.6956036656059207e-03 -8.2234097986978380e-02 1.9063435568602207e-03  9.2400142312664465e-03 -7.9012133506177973e-02 1.3781539395716670e-03  7.0087116423538992e-03 -8.6840636365499102e-02 4.5190288655451083e-03  6.9084409492855426e-03 -8.2437552445184650e-02 -6.1831386580186716e-04  7.4557582640080965e-03 -7.9166190395138739e-02 -1.0810193161098925e-03  2.0139728302229834e-02 -7.5220876417063140e-02 1.4634182944202946e-02  2.0544348726306470e-02 -8.1905875778898019e-02 1.8825995470493406e-02  2.0144719911657869e-02 -8.2799744435316958e-02 1.8370471908206416e-02  1.7893444046104986e-02 -8.1369681750872003e-02 2.0630003850210608e-02  1.8298142974305074e-02 -8.0997370749869707e-02 2.0400148823523638e-02  1.7936996964184500e-02 -7.3329809065330903e-02 1.7225997687406895e-02  1.5690812444141611e-02 -7.9669543226185829e-02 2.2539611174864620e-02  1.6091356180104578e-02 -7.9749759960509536e-02 2.1701644921711317e-02  1.5771603897233710e-02 -7.1244834163612880e-02 1.9439000719585112e-02  1.3510827205976792e-02 -7.7696423759405039e-02 2.4210147881874838e-02  1.3906381774290041e-02 -7.8194027076758835e-02 2.2794902266178387e-02  1.7528192245956732e-02 -9.4097434398111773e-02 2.0074209736030212e-02  1.5558245482409146e-02 -9.3945798124105986e-02 1.7346496283349600e-02  1.3624676614821215e-02 -9.3734112951778595e-02 1.4980767437255902e-02  1.1719259351760656e-02 -9.3514195396999858e-02 1.2759749674651408e-02  9.8281187769002840e-03 -9.3320939637514033e-02 1.0504080823385097e-02  7.9392537496481199e-03 -9.3199767974957673e-02 8.0680781975376367e-03  6.0522372401861334e-03 -9.3215232111296079e-02 5.3272349514674267e-03  1.9480148848458816e-02 -1.0464635377079091e-01 2.9258516998089210e-02  1.9663066310879562e-02 -1.0964092279468911e-01 3.1428742228464611e-02  1.7481731323602877e-02 -1.1005140673537230e-01 3.1238613372670306e-02  1.7324351292566896e-02 -1.0506377059082511e-01 2.8701385888757310e-02  1.5338463898324347e-02 -1.0992100359764689e-01 3.1050794355746196e-02  1.5189607592215409e-02 -1.0497899606060984e-01 2.8212434398418394e-02  1.3197766700650339e-02 -1.0937270611874257e-01 3.0774099220470971e-02  1.3059206405672066e-02 -1.0451315243014184e-01 2.7678939553172962e-02  1.1031837309360085e-02 -1.0849017686719098e-01 3.0311888307564473e-02  1.0915487717314300e-02 -1.0375123642875395e-01 2.6989028806289405e-02  8.8129638738718950e-03 -1.0733239468965469e-01 2.9553606431986467e-02  8.7408249566458315e-03 -1.0276219605640720e-01 2.6014109691364508e-02  6.5146034371902665e-03 -1.0594193423269922e-01 2.8373091213764343e-02  6.5167384698584727e-03 -1.0160127347528922e-01 2.4591810646729877e-02  2.0056729095597463e-02 -8.5653062422198736e-02 2.0063479035179042e-02  1.7970271415192585e-02 -8.5978974885533938e-02 1.8614848614468566e-02  1.5895326510966843e-02 -8.5941881623862681e-02 1.7380173338574820e-02  1.3830590013591874e-02 -8.5644412693354641e-02 1.6203880653690290e-02  1.1770488097409925e-02 -8.5179526948952186e-02 1.4929572802592835e-02  9.7101109985730377e-03 -8.4620784092257872e-02 1.3404915606012162e-02  7.6469143878125784e-03 -8.4037025049955472e-02 1.1453743930969141e-02  1.9912297726833481e-02 -1.0195609446477981e-01 2.8036064319883341e-02  1.7712348721039075e-02 -1.0203641864519029e-01 2.8261627164085434e-02  1.5531664133108289e-02 -1.0164192808036744e-01 2.8420608323570087e-02  1.3360813683524599e-02 -1.0085626540652157e-01 2.8471600881873043e-02  1.1179381242453752e-02 -9.9746691039960006e-02 2.8354917972389340e-02  8.9687165800322235e-03 -9.8351299476204385e-02 2.7990271631018956e-02  6.7079978155140966e-03 -9.6687662248361964e-02 2.7255829171385262e-02  2.0119701378225857e-02 -9.4152196802770621e-02 2.3056519283753033e-02  2.0218902358175125e-02 -9.3410489042805800e-02 2.3980182883633242e-02  1.7986519760117510e-02 -9.2940883170832919e-02 2.5080886254011014e-02  1.7811903547835031e-02 -9.3017065412950295e-02 2.5247621341366697e-02  1.5778641725107425e-02 -9.2062650116874520e-02 2.5982203815584328e-02  1.5548315696142871e-02 -9.1555524859382592e-02 2.7110809697097470e-02  1.3588174197581302e-02 -9.0826977710297893e-02 2.6711020139286067e-02  1.3304542977813801e-02 -8.9776210306114795e-02 2.8731195549200738e-02  1.1395573341596891e-02 -8.9261826402144265e-02 2.7274307057483335e-02  1.1052747492324102e-02 -8.7665568419741102e-02 3.0187350236388733e-02  9.1804510374003997e-03 -8.7363832088937665e-02 2.7661937066632541e-02  8.7618087355688431e-03 -8.5178965868926343e-02 3.1548118224838412e-02  6.9147986644260747e-03 -8.5102496972121439e-02 2.7835953059808898e-02  6.3912349257284860e-03 -8.2236588462051674e-02 3.2888634717391702e-02  2.0367391379494556e-02 -8.7546355656273153e-02 2.1282106001789942e-02  2.0130345698968898e-02 -8.8889858663489932e-02 2.0977117623132844e-02  1.7850455402502817e-02 -8.7669768771564516e-02 2.3126564838574098e-02  1.8119168693195152e-02 -8.6818139729753024e-02 2.2713025308893096e-02  1.5620273611605454e-02 -8.6146540906582872e-02 2.4951643773108025e-02  1.5915767766030004e-02 -8.5722740650136145e-02 2.3887559896201695e-02  1.3411194758036970e-02 -8.4330117373076552e-02 2.6535967999082762e-02  1.3733731578786088e-02 -8.4300556225968423e-02 2.4865822502919393e-02  1.1201528336767141e-02 -8.2202130390958500e-02 2.7961662301903448e-02  1.1554177852661118e-02 -8.2564888593981617e-02 2.5680179516451705e-02  8.9692763282362160e-03 -7.9721142651701798e-02 2.9297346193229809e-02  9.3603975243008886e-03 -8.0499776129687228e-02 2.6350891814004181e-02  6.6909555205959580e-03 -7.6812188817275626e-02 3.0615761144426872e-02  7.1337247016918263e-03 -7.8050850912313605e-02 2.6891629548875039e-02  1.5976799327547288e-02 -1.1245537508035962e-01 2.9396441248760737e-02  1.5049084178298271e-02 -1.1052990332770062e-01 2.6630087564013930e-02  1.6165203741418631e-02 -1.1876040851325644e-01 3.2983343978978071e-02  1.4001342283352215e-02 -1.1277542312842084e-01 2.7643842262503188e-02  1.3178243281541891e-02 -1.1079529978964200e-01 2.4270016936605590e-02  1.2034606354005776e-02 -1.1278826400238329e-01 2.5956197729462852e-02  1.1326624402859023e-02 -1.1088188972401895e-01 2.2026400302443721e-02  1.0054496966345238e-02 -1.1260257638705558e-01 2.4137713605692630e-02  9.4755539711873383e-03 -1.1087102925067258e-01 1.9699794605876318e-02  8.0458798359410357e-03 -1.1231903591008069e-01 2.2018351669908835e-02  7.6061504616177847e-03 -1.1083592978486040e-01 1.7128124753065032e-02  6.0055700630434940e-03 -1.1204718685516853e-01 1.9425383883079864e-02  5.6939435673231511e-03 -1.1082267674832696e-01 1.4163436393842188e-02  1.7148504288760573e-02 -1.1725667156755566e-01 3.3745922415284735e-02  1.8931354087438994e-02 -9.7634658959390677e-02 2.5228422875493255e-02  1.8610064894941238e-02 -9.3293669920361505e-02 2.1972014907001652e-02  1.8396830342389394e-02 -9.7125143689197099e-02 2.3914496563347598e-02  1.6376911310476003e-02 -9.7431269319173730e-02 2.1583963549098230e-02  1.6596254143585516e-02 -9.3539802581712822e-02 1.9673841633923696e-02  1.6837335301051901e-02 -9.8018198246433222e-02 2.3529323613354362e-02  1.4774876587204311e-02 -9.8046739534346283e-02 2.2052638449488991e-02  1.4599703465548649e-02 -9.3554114368711569e-02 1.7691300433977885e-02  1.4372135471209073e-02 -9.7449034169721602e-02 1.9566952720912592e-02  1.2619988570934175e-02 -9.3406887043432002e-02 1.5830201762273968e-02  1.2717988362813805e-02 -9.7802991124192384e-02 2.0609543737867483e-02  1.2372942720745366e-02 -9.7301735069438483e-02 1.7674817963350461e-02  1.0664380325603457e-02 -9.7393160411100313e-02 1.9060321352899704e-02  1.0648280805792455e-02 -9.3202219780317272e-02 1.3916921214785136e-02  1.0383571406727703e-02 -9.7069713743456784e-02 1.5723459349148570e-02  8.6085752188042718e-03 -9.6889368698830025e-02 1.7268026866417027e-02  8.6816243157570513e-03 -9.2982265529270858e-02 1.1796354509423949e-02  8.3971349900884441e-03 -9.6812522686961069e-02 1.3564387000686025e-02  6.5601435559908923e-03 -9.6372079920450535e-02 1.5141260475800455e-02  6.7042621736132365e-03 -9.2768204705897014e-02 9.3195015412760023e-03  6.4132199230389885e-03 -9.6511625638436210e-02 1.1055035294697554e-02  2.1105710159696450e-02 -8.0905697297588161e-02 1.9085182370664051e-02  1.8851419136955361e-02 -8.0845302037020755e-02 1.9209650154360505e-02  1.6627781798936498e-02 -8.0361891187197818e-02 1.9264510855703829e-02  1.4422447007905889e-02 -7.9545332200691654e-02 1.9212882408913435e-02  1.2220207539393280e-02 -7.8452848527543334e-02 1.9004209593810668e-02  1.0006143486256201e-02 -7.7111182569136780e-02 1.8574386004496055e-02  7.7661954017152453e-03 -7.5514143946154882e-02 1.7837339580530430e-02  1.6827761994705787e-02 -9.6454815282881287e-02 2.0191291196806807e-02  1.4916687746210484e-02 -9.6043602972412823e-02 1.7308879553235536e-02  1.3067560873486228e-02 -9.5685039615179296e-02 1.4762570843324840e-02  1.1254070173418241e-02 -9.5373478409890022e-02 1.2368833668323889e-02  9.4557350886166347e-03 -9.5131713792289740e-02 9.9602686977795854e-03  7.6547205945156826e-03 -9.4984681619658687e-02 7.4089816860761337e-03  5.8295149203191378e-03 -9.4926433055510795e-02 4.6112032900631336e-03  2.0606077388071724e-02 -1.1565898070903637e-01 3.1543175625414921e-02  2.0137673351310715e-02 -1.1762302380952509e-01 3.4311387186934855e-02  2.0370140980173316e-02 -1.2159615389373543e-01 3.5346138402336906e-02  1.8278436312679943e-02 -1.2174508167689142e-01 3.6515108171833822e-02  1.8021853465286859e-02 -1.1794490104472692e-01 3.4974690277779524e-02  1.8350094505918103e-02 -1.1513312038533680e-01 3.3719140209893909e-02  1.6135810943368925e-02 -1.1413397160049722e-01 3.5540780246149789e-02  1.5916898024794842e-02 -1.1769504565966442e-01 3.5483692848522208e-02  1.6207982673745451e-02 -1.2132154847102838e-01 3.7457333485687132e-02  1.3806199392636517e-02 -1.1696837191530628e-01 3.5834455083149815e-02  1.3917