<?xml version="1.0"?>
<VTKFile type="UnstructuredGrid"  version="0.1"  >
<UnstructuredGrid>
<Piece  NumberOfPoints="687" NumberOfCells="2820">
<Points>
<DataArray  type="Float64"  NumberOfComponents="3"  format="ascii">1.000546770688328 3.84764506477066 3.14137940317772  0.8748852751541625 3.794016520793638 3.238162109761256  0.9940629732317124 3.784717045320605 3.246284225959225  0.9935275290134756 3.845265280214599 3.282176815152891  0.876320200075515 3.856133357914042 3.275945235320532  1.001066053425622 3.909777002114994 3.174173325369001  0.9933031450335076 3.906227303846726 3.317754369807813  0.8779991549732228 3.918664303913189 3.313346128428837  1.001802920371206 3.972207129823464 3.206590561661405  0.9931610811347227 3.967398084976296 3.353286247724051  0.8797210200631433 3.981379120923659 3.350698387099538  1.002605973708553 4.034783170287323 3.238906857135579  0.9929946430506678 4.02863392070136 3.388951083897508  0.8814132398755257 4.044135059773509 3.388197953136205  1.003380920286756 4.097393295571203 3.271328553876294  0.992819492924473 4.08987939320625 3.424837351642176  0.8831310224942347 4.106884004497435 3.42595206905114  1.004161769934489 4.159987145546396 3.303954047132727  0.9926704755257054 4.151140235596413 3.461043857375052  0.8850148915716399 4.169578123363316 3.464083676200163  1.005043606501508 4.222534037094948 3.336914974954651  1.023398768996898 3.654121699100873 3.422744977985929  1.148383590833803 3.656220309584624 3.421790189417302  1.131154831356643 3.731868200524211 3.336968241748836  1.130313495511316 3.785792528889379 3.379797833081154  1.147319023742273 3.70655718721893 3.468342265230972  1.02329771829711 3.705754006678725 3.470460251557108  1.129795664551422 3.840119425107582 3.422457277049342  1.146639394757516 3.757358164908731 3.514788809866382  1.023559690948509 3.757896044255402 3.51801267976606  1.129358520613104 3.894647785410995 3.465178143774638  1.146066771053689 3.808392182887289 3.561348178521856  1.023889907354998 3.810273284224785 3.565690931832187  1.128895501878527 3.949271156239606 3.508088411845903  1.145459005881899 3.859520706987412 3.608129276733182  1.02418898744657 3.862741411172224 3.613612486984588  1.128383927021076 4.003950008780992 3.551246373194926  1.144782876192557 3.910700957650029 3.655177312582197  1.02445294869434 3.915265664813131 3.661842044110549  1.127811262320112 4.0586492731098 3.594727379344541  1.144007625520216 3.961926632825896 3.702561229630511  1.024662453127691 3.967829731887988 3.710480476335864  0.5169804240531835 3.981045227576533 2.823989703197971  0.6317293101931893 3.97639561636416 2.838633549675703  0.6390391577654601 4.015423952711702 2.721527570340672  0.6403327970992482 4.090983590440754 2.744482069846542  0.6316525927335425 4.050615915560253 2.864576312189171  0.5168622062904462 4.058210062821438 2.851188382431348  0.6417232493319486 4.166454365014072 2.7669333187267  0.6317363743053765 4.124838126801583 2.890051353280561  0.5168999812605917 4.135285263463153 2.878076605442026  0.6430744287261222 4.24177418829692 2.789126861126164  0.6318333186581125 4.198966061081487 2.915260974161455  0.5169859385725492 4.212222529276485 2.904750323354515  0.6443541290588327 4.316931586256665 2.811185803408759  0.6318616367555862 4.272989122212859 2.940343101353055  0.5170367782534713 4.289050333028474 2.931253933183436  0.6456466321277138 4.391908310713957 2.83318857530714  0.6318596438539856 4.346885381753811 2.965348037080235  0.5170677965694312 4.365781445472323 2.957558782136614  0.6472189807778174 4.466537601189722 2.855457181690534  0.632143543675826 4.420485256269344 2.990642817947141  0.5174123853531446 4.44224663005568 2.983985948128002  0.8796956609374266 3.855046937204436 3.133895709613272  0.8807501133532624 3.919832686397642 3.166675392915988  0.881999745769538 3.984922905430776 3.199005526185058  0.8832920604619858 4.050145030510524 3.231217278567841  0.884558524286971 4.115380979624371 3.26352797243167  0.8858623478327529 4.180556643482904 3.296048961461096  0.8872907561795516 4.245580379126664 3.32886150363376  1.0192263084471 3.49671685054983 3.641330020905403  1.021242407540926 3.61012223167994 3.568075453323846  1.135093913132721 3.512470249023607 3.629296412048491  1.135254499109617 3.475670335913809 3.571858585525704  1.020932136145579 3.564990980468056 3.513989971839  1.019718439814522 3.533739697998171 3.700881748328216  1.021925644461297 3.655820349552592 3.622151925723952  1.135347973300526 3.549806180539868 3.686820165577874  1.02026848438805 3.57099539475704 3.760775709844465  1.022649582383188 3.701732301193273 3.676471561698517  1.13568790923356 3.587362015973002 3.744620699511781  1.020781107758843 3.608330319733456 3.821053546452388  1.023334028955813 3.747719888166651 3.731114688633057  1.135994387718765 3.624993448223794 3.802746463661201  1.02123164816503 3.645642162411719 3.881733430478903  1.023975290472707 3.793717240039972 3.786127094280154  1.136222967349048 3.662625589937804 3.861240192265254  1.021633792149859 3.68281737152175 3.942819900055611  1.024578065301647 3.839695106528609 3.841527577345654  1.136369917418975 3.700176957308762 3.920172500313788  0.7845878865179211 3.899315310395247 3.037694948044153  0.761934099328835 3.848017418091251 3.148681907380692  0.7621579027539965 3.914724324145221 3.183307114925195  0.7849653206717664 3.967904722850398 3.066856838060225  0.7625910716645407 3.981710503561712 3.217474374874804  0.7855456989787407 4.036709140719799 3.095526947860329  0.7630702694576545 4.048809880467741 3.251512012171176  0.786164528166263 4.105586296264595 3.123988744361071  0.7635363028377448 4.115900213579293 3.285636751081666  0.786741159977371 4.174433046327593 3.152462809870561  0.764030535864346 4.182915129454813 3.319955875034782  0.7872934522607911 4.243172568933733 3.181038402536549  0.7646329831261696 4.249759213720819 3.354598205114122  0.7879665447997871 4.311700203015064 3.209905528238493  0.639527540406575 3.842515040326993 3.155539814143319  0.6390829887382621 3.778814245875853 3.266330998499453  0.7553753733755457 3.787950024496423 3.250381913376034  0.7560871210177602 3.852211536307762 3.289558046116212  0.6391691882421882 3.844719175317014 3.30797068779195  0.638836237994028 3.911563837618691 3.191687854465629  0.7570187114186272 3.916896030471236 3.328310449399688  0.6394405505034921 3.911003229463478 3.349255131128663  0.6383409008973143 3.980858191206141 3.227415797656844  0.757969277956724 3.981745186136328 3.367026874551589  0.6397152699818136 3.977420704605168 3.390522956149219  0.6378974952882334 4.050234314682229 3.26301863411401  0.7589022668567074 4.046615694587508 3.405891442740435  0.6399929393461863 4.043850494410215 3.43193712786458  0.6374729097059486 4.119582100067577 3.298683875716271  0.7598735515266593 4.111439660362862 3.444998585094299  0.6403232731008799 4.110228905605667 3.473591715538315  0.6371070748910642 4.188844684220783 3.334527791318479  0.7609544312183905 4.176139140383948 3.48442821044828  0.640771903718134 4.176497697383006 3.515569106134451  0.6368689798862449 4.257963274222506 3.37068199325138  0.4021367954863154 4.010904540379252 2.734989296387006  0.5285766398036685 4.0183979065251 2.719929866382521  0.5076707355438704 4.048088924754742 2.611145602468408  0.5084660633868363 4.128588317990414 2.633210009595104  0.5290840842993516 4.09702156829957 2.743840725887542  0.4014929351929574 4.092212831425052 2.761988642313021  0.5092965380457124 4.208795811308409 2.654942822068198  0.5297024645126966 4.175447345200174 2.76736858936886  0.4009938215540444 4.17326793738128 2.789001114901226  0.510077484728791 4.288676516049797 2.676471383828164  0.5302939178710702 4.253671463053376 2.790681942025953  0.4005334175265749 4.254112034175217 2.815882191022389  0.5108560293215724 4.368294684165161 2.697844878521286  0.5308313169877135 4.331722708096319 2.813812008994437  0.4000106323643562 4.334827252772344 2.842493755565455  0.5117332106210992 4.447706722204116 2.719144413310319  0.5313921995931074 4.409614648787643 2.836801148428202  0.3995252271964468 4.415459981282096 2.868765376980392  0.5127829483033797 4.526889015333047 2.740471303162817  0.5322340462223962 4.487223891118243 2.859888300147849  0.3994433426873241 4.495999234331283 2.894754249443066  0.5218165587172572 3.735231334533992 3.569919635991402  0.5189477412920109 3.829858350442441 3.464758368746018  0.6377350951345779 3.733433512517513 3.565342772631481  0.5207609140296374 3.767262502208703 3.413945709203651  0.6362857708979517 3.787240832429462 3.621964089259638  0.5213269902749031 3.792675993574977 3.626719741424377  0.5171175651499156 3.892629625633547 3.515620829641046  0.6348142401476276 3.841133023871389 3.678886855572587  0.5208212659010489 3.850217790735037 3.683787998754413  0.5153173097127831 3.9554771646589 3.566660614946302  0.6333501184783275 3.895021649204278 3.736148149464047  0.5203332024139177 3.90783253728669 3.741211176675834  0.5135530213858495 4.018354570115892 3.617952733403771  0.6318758214336234 3.948811206245705 3.793798168893268  0.5199341551976837 3.965499935355114 3.799050966633392  0.5118165505043906 4.081202336302816 3.669586582108043  0.5189783218336737 3.890036802606689 3.052432993312434  0.5130837962006046 3.831532246603218 3.172186080345653  0.5123914627445351 3.903374187529935 3.209676252002375  0.5177006840991146 3.963819019214144 3.085921453005625  0.5118058723981624 3.975374596413521 3.24691130611874  0.5165744380229782 4.037656558136849 3.119140430524161  0.5112497808239463 4.047420324546577 3.284068287619653  0.5155203482584806 4.111458816174745 3.152223280542493  0.5107362442661747 4.119443248001227 3.321269695098296  0.514534396602874 4.18518660504146 3.185274104174116  0.510317283457269 4.191412861664411 3.358598105073842  0.513656335206372 4.258818204034199 3.218375119711237  0.5100495800293933 4.263278865620065 3.396154978366761  0.5129775305173909 4.332300541338723 3.251678795311488  1.015563364000085 3.735736055709288 3
[...]
<PointData  Vectors="f_24"> 
<DataArray  type="Float64"  Name="f_24"  NumberOfComponents="3" format="ascii">6.2628591961994468e-02 8.4244248202669805e-02 2.6596179101612823e-02  6.3049376292422785e-02 7.9546642311051560e-02 2.4290562355821936e-02  6.1269109752623944e-02 7.8947922163548193e-02 2.5363446009943152e-02  6.0965157833374146e-02 7.7361292872652379e-02 2.7165734725390567e-02  6.2686152809427853e-02 7.7940650433532974e-02 2.6104110920085671e-02  6.2353772621465180e-02 8.2931803756655376e-02 2.8384353170808275e-02  6.0674085962723466e-02 7.6389925197846986e-02 2.8263315790883082e-02  6.2320906562159398e-02 7.6918656359135903e-02 2.7212388010270528e-02  6.2102393883679004e-02 8.2092814963921248e-02 2.9385069612730269e-02  6.0371938292244624e-02 7.5583625925158812e-02 2.9196517952271198e-02  6.1945382956126928e-02 7.6033842829346998e-02 2.8185694205527946e-02  6.1835160592583996e-02 8.1379586030682974e-02 3.0157554142729807e-02  6.0073415149303491e-02 7.4508392200605345e-02 3.0523132951922705e-02  6.1576387792629410e-02 7.4874676221417802e-02 2.9584451589744133e-02  6.1552997026843782e-02 8.0420309386415673e-02 3.1322774172524603e-02  5.9848721358716585e-02 7.3035456183501518e-02 3.2368327380054705e-02  6.1309222195429620e-02 7.3325956024097860e-02 3.1484748228174458e-02  6.1357414348713613e-02 7.9025791674246004e-02 3.3082984257922401e-02  5.9637742398980773e-02 7.1405586820362646e-02 3.4430464342076736e-02  6.1062475816249968e-02 7.1601045475042535e-02 3.3559137387970096e-02  6.1149894393523023e-02 7.7476515545781388e-02 3.4997555541882559e-02  5.8118053057437488e-02 6.8667572284567782e-02 2.2887971609642673e-02  5.6363667322662708e-02 6.8469530852557567e-02 2.4191770974412836e-02  5.7931644237002790e-02 7.3331622884270892e-02 2.5619943479117502e-02  5.7614324144374243e-02 7.1609848982720312e-02 2.7147415417419978e-02  5.6008033706253332e-02 6.6607261728818895e-02 2.5501214979126434e-02  5.7719313656038780e-02 6.6784501211074279e-02 2.4207172368468779e-02  5.7303491843937765e-02 7.0415228970825652e-02 2.8185078755745632e-02  5.5687947912161348e-02 6.5250123317167605e-02 2.6487829440127082e-02  5.7320078368102746e-02 6.5415057922374148e-02 2.5208968135211635e-02  5.6983420499205677e-02 6.9289797669483552e-02 2.9164602919489167e-02  5.5356732359819097e-02 6.3989430131868696e-02 2.7464562901772197e-02  5.6912463337501010e-02 6.4136644124508257e-02 2.6211967769736357e-02  5.6667656712140982e-02 6.7860046562616932e-02 3.0540038851392122e-02  5.5017981485968821e-02 6.2478775961999453e-02 2.8750618841761534e-02  5.6505711146995208e-02 6.2601028773428449e-02 2.7525418370210310e-02  5.6370507177568592e-02 6.6142989116374923e-02 3.2341779667813153e-02  5.4679960627574964e-02 6.0757132297926626e-02 3.0355702683846266e-02  5.6136762474944132e-02 6.0845227366524458e-02 2.9171343774682598e-02  5.6107012440174964e-02 6.4380241726464657e-02 3.4311664039522072e-02  5.4363149309046510e-02 5.8994271124606694e-02 3.2133174751029538e-02  5.5809093802243789e-02 5.9033573968896427e-02 3.0976543317523447e-02  7.2045098728714646e-02 9.4563941482150596e-02 2.2849792645699016e-02  7.1078292479211658e-02 9.4230792721455500e-02 2.3947495906465249e-02  7.2270626237634292e-02 9.5190211568124905e-02 2.3951272679441589e-02  7.2158420268814902e-02 9.5004417571485603e-02 2.3874338947741283e-02  7.0952181805573833e-02 9.3713053434210991e-02 2.4641023271239123e-02  7.2112945298464903e-02 9.3967724533619540e-02 2.3416136211376292e-02  7.2280852906100146e-02 9.4698492472899895e-02 2.3518348959125662e-02  7.1016183963893226e-02 9.3233662524660074e-02 2.4832915952425337e-02  7.2405913497894533e-02 9.3434401899637934e-02 2.3537198105036138e-02  7.2457983863235251e-02 9.4386894333435681e-02 2.3011184058457031e-02  7.1130643233762253e-02 9.2819522688693992e-02 2.4779488209570339e-02  7.2723720772890368e-02 9.3013004706521088e-02 2.3441743628127221e-02  7.2521412847228892e-02 9.4083119226498341e-02 2.2485674092138946e-02  7.1134221100283793e-02 9.2372594169231312e-02 2.4832168080605503e-02  7.2873887377416777e-02 9.2611258793007550e-02 2.3421849415491976e-02  7.2467419282927881e-02 9.3483698453997593e-02 2.2113300788237009e-02  7.1073559939650838e-02 9.1568963553454050e-02 2.5177483446823027e-02  7.2923384210090619e-02 9.1839480169532375e-02 2.3662711294752420e-02  7.2342941110065798e-02 9.2630996156821757e-02 2.1649594638872730e-02  7.0952401541498941e-02 9.0494816309904622e-02 2.5512691040614127e-02  7.2944235683077951e-02 9.0762075281954235e-02 2.3851649207613221e-02  6.4488804309125569e-02 8.4711031475928802e-02 2.5462360195271240e-02  6.4170584609901368e-02 8.3445151956719074e-02 2.7245716345172168e-02  6.3884434217767433e-02 8.2641270623924734e-02 2.8242352060431811e-02  6.3588353856327301e-02 8.1952876505885924e-02 2.9022579144511829e-02  6.3283663260945727e-02 8.1010615545022466e-02 3.0233810378306941e-02  6.3074493362066150e-02 7.9661857757820032e-02 3.1981067245073901e-02  6.2843404845434506e-02 7.8110282634734754e-02 3.3880100159829923e-02  5.4801056062078912e-02 5.7217342323990984e-02 1.9785394227580785e-02  5.6150032261472818e-02 6.1264161162524769e-02 2.1807543340332653e-02  5.3422452841565896e-02 5.7562920532241400e-02 2.1279896414114662e-02  5.3839204318773107e-02 5.9529316276614778e-02 2.0629594580112678e-02  5.6606984940360976e-02 6.3122238965773986e-02 2.0774382360454320e-02  5.4327418321100975e-02 5.5471207145334434e-02 2.0436098151649432e-02  5.5710616656016648e-02 5.9775819341351691e-02 2.2745176449128341e-02  5.3023943224893490e-02 5.5839031287606457e-02 2.1944041995593928e-02  5.3840482998957891e-02 5.3779650987906200e-02 2.1144407309051198e-02  5.5253006992653488e-02 5.8297760059337699e-02 2.3705357823003620e-02  5.2615079064084108e-02 5.4176097173092831e-02 2.2671065059734010e-02  5.3333184838816154e-02 5.2046426801708685e-02 2.1961954171929834e-02  5.4787137598831512e-02 5.6625305117119412e-02 2.4879784469493398e-02  5.2182447820582539e-02 5.2452296967051094e-02 2.3524632909605901e-02  5.2843275971572991e-02 5.0224291415825129e-02 2.2908325692247888e-02  5.4345242947642709e-02 5.4835728800782975e-02 2.6252229748350436e-02  5.1750050939066185e-02 5.0614492689304583e-02 2.4522946853771252e-02  5.2397641785419766e-02 4.8473821582065840e-02 2.3918744902792478e-02  5.3957565912828374e-02 5.3058650469084256e-02 2.7747096505407111e-02  5.1338607121966709e-02 4.8853371107150802e-02 2.5595454535085133e-02  6.7060822785778601e-02 8.8915765734286750e-02 2.4983376234644899e-02  6.5864751249782721e-02 8.4189125784883065e-02 2.4018477442519955e-02  6.5527379207016817e-02 8.2805072977159042e-02 2.5831210026224110e-02  6.6779901859173166e-02 8.7889834276963549e-02 2.6626950409934940e-02  6.5220102678225922e-02 8.1922250248646897e-02 2.6862933163402963e-02  6.6573914343318066e-02 8.7213844083172856e-02 2.7463552512009111e-02  6.4915672298799756e-02 8.1174033286351380e-02 2.7703018160223768e-02  6.6375848932884549e-02 8.6666574526648346e-02 2.8026158653815345e-02  6.4615575797407176e-02 8.0172902840632290e-02 2.8991814875796069e-02  6.6155885845362555e-02 8.5938403007886785e-02 2.8941242596831944e-02  6.4369879752982889e-02 7.8767102008243384e-02 3.0759736125228365e-02  6.5973811838401425e-02 8.4802686152109702e-02 3.0329808196559498e-02  6.4116976041845117e-02 7.7142151584045610e-02 3.2702422034486249e-02  6.5747955190696261e-02 8.3401149610480591e-02 3.1866188651497859e-02  6.7269683506411451e-02 8.4127199442423847e-02 2.2439543245839820e-02  6.5695741331211019e-02 7.8502032782671802e-02 2.1155481287093218e-02  6.4491648110848995e-02 7.9106910266194722e-02 2.2789662897636044e-02  6.4087400050898136e-02 7.7451385479361604e-02 2.4613093137332655e-02  6.5308914033270285e-02 7.6731085815990308e-02 2.3013184875081517e-02  6.6930477760421728e-02 8.2625804539800063e-02 2.4314789364074250e-02  6.3703891318500572e-02 7.6400718763129497e-02 2.5759694953659394e-02  6.4904935612409564e-02 7.5603365023989469e-02 2.4211932554298907e-02  6.6653055618735468e-02 8.1656503643571660e-02 2.5406391084539705e-02  6.3312725452023169e-02 7.5488525236654683e-02 2.6788356024700276e-02  6.4484932901825984e-02 7.4609825568034555e-02 2.5314473641084956e-02  6.6385404238895579e-02 8.0854453224248876e-02 2.6306072500595020e-02  6.2932349841243448e-02 7.4292570189758253e-02 2.8265363552923563e-02  6.4066380022039501e-02 7.3311986365143050e-02 2.6875209453330551e-02  6.6092890492797499e-02 7.9817657725399990e-02 2.7639050566926390e-02  6.2627381600127305e-02 7.2716378855659167e-02 3.0180822772788628e-02  6.3678676345751237e-02 7.1668660655705971e-02 2.8814784004241641e-02  6.5830161417103281e-02 7.8375791710703260e-02 2.9410591223045492e-02  6.2348453639601883e-02 7.0964599494042144e-02 3.2290931348722275e-02  6.3358379668145698e-02 6.9831542029642840e-02 3.0974142654245047e-02  6.5585406732839288e-02 7.6697338533181308e-02 3.1382463957241591e-02  7.3266281409126360e-02 9.5617287937125012e-02 2.1931426837282750e-02  7.3036514772357619e-02 9.5209417657974582e-02 2.2966255152338418e-02  7.4227865617593466e-02 9.4682363385492033e-02 2.2499169396232945e-02  7.4376734036455588e-02 9.4571599431792053e-02 2.1498278382777191e-02  7.3135344999063254e-02 9.4915883589871020e-02 2.2792402439115164e-02  7.3746519972306218e-02 9.5104930783655353e-02 2.1813837355569885e-02  7.4834378641707638e-02 9.4326295756645709e-02 2.0499792540230599e-02  7.3497977432430708e-02 9.4551648537603575e-02 2.2372497357404524e-02  7.4533608540564622e-02 9.4633992386177132e-02 2.1456656506697615e-02  7.5341934475271433e-02 9.4093126101584310e-02 1.9494636610210298e-02  7.3901917043475998e-02 9.4234793616843518e-02 2.1824899491797240e-02  7.5307387431126763e-02 9.4310607798526624e-02 2.0999749010528562e-02  7.5626823854058403e-02 9.3943081947216595e-02 1.8358300123893365e-02  7.4104129526301535e-02 9.3968730845031462e-02 2.1243568307372653e-02  7.5691016140231715e-02 9.4099919649706196e-02 2.0524970799994512e-02  7.5716846925557163e-02 9.3548527203972762e-02 1.7168872280624230e-02  7.4177630331441965e-02 9.3395077822387720e-02 2.0772312853680430e-02  7.5888738785095361e-02 9.3528146866213191e-02 2.0171146150473673e-02  7.5801892071077140e-02 9.2890549216512089e-02 1.5822494112377721e-02  7.4215136984006114e-02 9.2554677977767452e-02 2.0202057515156472e-02  7.6071907507481398e-02 9.2618674700919959e-02 1.9676942388163692e-02  6.3024646123669814e-02 6.4286342005042019e-02 1.8670764553509606e-02  6.4713601326852943e-02 6.9837896614348000e-02 2.0901231964886621e-02  6.1622901859041235e-02 6.4120787449351638e-02 2.0111707015972612e-02  6.5305205863057519e-02 7.1278119355565869e-02 1.9703371582542973e-02  6.0921868053280023e-02 6.2603636219494052e-02 2.1158232331997540e-02  6.2216685015892323e-02 6.2815829500515008e-02 1.9820058507559440e-02  6.4071326894627675e-02 6.8525184360113858e-02 2.2065529774699229e-02  6.0203596347489279e-02 6.0881317826381620e-02 2.2455897780752711e-02  6.1345896782062023e-02 6.1114319725929518e-02 2.1215939811978429e-02  6.3357866551460834e-02 6.6954100202655492e-02 2.3569523567967213e-02  5.9510382373428580e-02 5.8925733342347741e-02 2.3983208615655689e-02  6.0503203649608879e-02 5.9168290644545561e-02 2.2816118707573742e-02  6.2666569932196881e-02 6.5038145413908052e-02 2.5397548250753344e-02  5.8928386212351226e-02 5.6916309108729989e-02 2.5627476753547301e-02  5.9785617940518544e-02 5.7100446418473207e-02 2.4555039399857589e-02  6.2059536893595037e-02 6.2979066908751838e-02 2.7378336497926811e-02  6.9711706784293656e-02 8.8789021307416366e-02 2.1813340100987021e-02  6.8427559302979196e-02 8.3663576201094089e-02 2.0652787330397573e-02  6.8132569600426823e-02 8.2017274152123523e-02 2.2655783000008117e-02  6.9558436055300737e-02 8.7471479172433850e-02 2.3556660566357780e-02  6.7917617483227985e-02 8.0997129982098501e-02 2.3836767532527506e-02  6.9534899163868069e-02 8.6577216998224960e-02 2.4495390035970545e-02  6.7694994623980112e-02 8.0177354447411753e-02 2.4830494070855646e-02  6.9527941166275198e-02 8.5888111944029094e-02 2.5182633862394267e-02  6.7388932562211928e-02 7.9119764625512415e-02 2.6258810546847217e-02  6.9402026340589687e-02 8.5071823366705240e-02 2.6200694846922112e-02  6.7074377609400992e-02 7.7653097295537390e-02 2.8090923141866734e-02  6.9250449055873117e-02 8.3812028291795529e-02 2.7653251015677338e-02  6.6820626345214518e-02 7.5891616512884480e-02 3.0163582241577228e-02  6.9115588701363070e-02 8.2248005244153974e-02 2.9261630760543552e-02  5.9696750024940931e-02 7.3827161271439207e-02 2.4524810476907973e-02  5.9362757266731979e-02 7.2278977958935384e-02 2.6136336118677043e-02  5.9030973948809393e-02 7.1253680680555598e-02 2.7241463837142304e-02  5.8687253641309348e-02 7.0283939976133608e-02 2.8278808003063906e-02  5.8362560526528405e-02 6.8958499086468270e-02 2.9771958600883820e-02  5.8088781375507346e-02 6.7374626578511287e-02 3.1640460582423785e-02  5.7850916770859941e-02 6.5661883722423250e-02 3.3732835891922774e-02  7.2279725687479410e-02 9.5705854126426654e-02 2.0959323447581828e-02  7.1494587433865747e-02 9.3173355986852294e-02 2.0182057201141385e-02  7.1409212952891321e-02 9.2620029972989140e-02 2.1258205360125525e-02  7.1667662604179089e-02 9.1485996610740888e-02 2.2577507662761898e-02  7.2244291470815611e-02 9.1739951954094304e-02 2.1606808034690835e-02  7.3258591131578454e-02 9.4689112584711840e-02 2.1571626653309500e-02  7.2146391377907335e-02 9.0675438373610362e-02 2.3192232354480723e-02  7.3191249088578769e-02 9.0791541815800819e-02 2.2170991611231778e-02  7.4479726853571279e-02 9.3932049487593525e-02 2.1644487887879565e-02  7.2602798231523213e-02 9.0112871729052080e-02 2.3564090655192719e-02  7.4043115852266000e-02 9.0171035421772100e-02 2.2520065022410000e-02  7.5586670692533567e-02 9.3458047741631578e-02 2.1573337819095751e-02  7.2729499292225691e-02 8.9542931993556577e-02 2.4163436097415433e-02  7.4231664046734647e-02 8.9627064072136539e-02 2.3189853476711753e-02  7.5989259651251889e-02 9.3143083531601306e-02 2.1671699387356295e-02  7.2741812244437251e-02 8.8483390860390615e-02 2.5119875506490676e-02  7.4053393708735982e-02 8.8427497361171892e-02 2.4198882968943174e-02  7.6024007106868241e-02 9.2252629938520278e-02 2.2013894922920472e-02  7.2748360405428245e-02 8.7052282797274005e-02 2.6180997478862402e-02  7.4056567556978217e-02 8.6702331665681504e-02 2.5354963546040530e-02  7.6192244653742081e-02 9.0883241379170504e-02 2.2292425211925614e-02  6.2773429364871555e-02 7.3427863443832550e-02 2.1471421508574479e-02  6.1099543349163218e-02 7.3275686830955061e-02 2.3021743885986733e-02  6.0663939472455436e-02 7.1553319206950503e-02 2.4604304439573937e-02  6.2301890259658675e-02 7.1623774068630477e-02 2.3109750007732140e-02  6.0250431053455296e-02 7.0403480385759984e-02 2.5720579764066654e-02  6.1834534821827498e-02 7.0436310998400170e-02 2.4278271741767780e-02  5.9822509781587374e-02 6.9317600279703018e-02 2.6792577971146543e-02  6.1350879997266954e-02 6.9331578916770623e-02 2.5419589342136506e-02  5.9408549564843517e-02 6.7908227616026509e-02 2.8289730046420335e-02  6.0874594842765396e-02 6.7908381275272128e-02 2.6987800118594880e-02  5.9075519748830220e-02 6.6214561257636625e-02 3.0154724410577000e-02  6.0470210949463483e-02 6.6196145347416108e-02 2.8893134529081693e-02  5.8776960519614341e-02 6.4425224124389127e-02 3.2214292982080867e-02  6.0127632016583180e-02 6.4354587343020880e-02 3.0994465770791943e-02  5.7670891795741981e-02 6.1047045705832678e-02 2.0229947603330432e-02  5.9293368055683020e-02 6.6429340691670016e-02 2.2520058641633405e-02  5.8820360015297196e-02 6.5015670513064103e-02 2.3542428825208284e-02  5.7141100498711399e-02 5.9500316464596748e-02 2.1169044667063559e-02  5.8331339285266980e-02 6.3709042614424213e-02 2.4582222484490455e-02  5.6584906681957953e-02 5.7958144225464754e-02 2.2123958511879031e-02  5.7845846107479726e-02 6.2162854354167060e-02 2.5938903102245454e-02  5.6013320129013854e-02 5.6245755486101889e-02 2.3269112110216462e-02  5.7415726186914484e-02 6.0376917677746167e-02 2.7580203034997062e-02  5.5494566923959578e-02 5.4408635285968981e-02 2.4599695506098963e-02  5.7064994976254634e-02 5.8552514553028373e-02 2.9403086956741070e-02  5.5038914673637009e-02 5.2585104278131081e-02 2.6038727705880369e-02  7.0961767630848466e-02 8.9215306217884177e-02 1.9274542281900498e-02  7.0418203318690989e-02 8.4259970737816589e-02 1.7833065679410211e-02  6.9607639156711823e-02 8.4224780209763539e-02 1.9333676020582703e-02  6.9431874450010825e-02 8.2492826687013798e-02 2.1349179205014810e-02  7.0385441167825927e-02 8.2201721263677266e-02 1.9917521582464289e-02  7.1349131283766451e-02 8.7485159271632126e-02 2.1132181763780494e-02  6.9378798599544100e-02 8.1403392299567237e-02 2.2520971054073597e-02  7.0485873059344853e-02 8.0933581678532776e-02 2.1001284346481262e-02  7.1897299551503618e-02 8.6405663662608392e-02 2.2005254636725216e-02  6.9282062753970072e-02 8.0554703995842067e-02 2.3513133237093094e-02  7.0512066500901943e-02 7.9967862762908848e-02 2.1921100116990784e-02  7.2358081973825206e-02 8.5635419767591175e-02 2.2687087314517441e-02  6.8939235092440154e-02 7.9495972037257029e-02 2.4933023896863613e-02  7.0017045237341591e-02 7.8844777493186080e-02 2.3290139291512295e-02  7.2198996726107509e-02 8.4790626327238355e-02 2.3811112554635836e-02  6.8543207526364280e-02 7.7946641555667232e-02 2.6761343577142254e-02  6.9270258469183901e-02 7.7079892575704939e-02 2.5093666247676727e-02  7.1775130187368558e-02 8.3284579957159446e-02 2.5328601541639153e-02  6.8196342638339430e-02 7.6055151331892168e-02 2.8810580351497389e-02  6.8722269552070517e-02 7.4889187957094414e-02 2.7158757384517916e-02  7.1531857844057883e-02 8.1319199364897163e-02 2.7065776842906002e-02  6.7337383232542292e-02 7.3112309970624428e-02 1.6128014273170895e-02  6.5927164760720997e-02 7.3333098844810721e-02 1.8065922803532336e-02  6.8494173423172502e-02 7.8899237147929763e-02 1.8241775305837749e-02  6.8047597091559289e-02 7.6976892723292376e-02 2.0167864945147669e-02  6.6686556485786266e-02 7.0928922417208898e-02 1.7865590733542602e-02  6.7676163026883340e-02 7.5731046671767832e-02 2.1410056176876812e-02  6.6028800212339658e-02 6.9407812642447275e-02 1.9078251501240179e-02  6.7243632366862871e-02 7.4645180509969461e-02 2.2555964749201414e-02  6.5278053902531871e-02 6.8033260146488181e-02 2.0251582502788013e-02  6.6629264972453389e-02 7.3277326722761507e-02 2.4127111783047744e-02  6.4361043015894723e-02 6.6406350764543473e-02 2.1747194662913184e-02  6.5991809079306532e-02 7.1479236268495880e-02 2.6088202312474700e-02  6.3433469172665319e-02 6.4403069232693844e-02 2.3559526990052780e-02  6.5436034771596763e-02 6.9403123047805299e-02 2.8236460254447530e-02  6.2600508839316310e-02 6.2174930625271151e-02 2.5531554807251052e-02  6.2905180849326989e-02 6.7816627780925898e-02 1.7868512139656491e-02  6.4133438086758074e-02 7.2518244140918037e-02 1.9670619809975733e-02  6.3611540389692744e-02 7.0668105570081505e-02 2.1259523695638830e-02  6.3079889604417877e-02 6.9348577093318264e-02 2.2425883306297356e-02  6.2513708846456725e-02 6.8079526477678620e-02 2.3582947118047187e-02  6.1941745105743268e-02 6.6506757387670784e-02 2.5132687848567366e-02  6.1401585806968279e-02 6.4663306735720100e-02 2.6970195271794936e-02  6.0939989149061097e-02 6.2695854241275079e-02 2.8979167870775761e-02  6.8587101140077572e-02 8.9008851262354305e-02 2.3501950126165943e-02  6.8548084838975537e-02 9.1887132260544388e-02 2.5028726869353073e-02  6.8306040623082376e-02 9.1134819316363316e-02 2.6334829122169844e-02  6.8350817633242036e-02 8.7905811537748721e-02 2.5157848608822857e-02  6.8199817856698999e-02 8.7148659497668257e-02 2.6016759981875654e-02  6.8175224494589057e-02 9.0561975024311653e-02 2.6928075267554041e-02  6.8071055643991518e-02 8.6541175018224115e-02 2.6617245778449570e-02  6.8070879539246482e-02 9.0085136925420625e-02 2.7234050693995461e-02  6.7903658139570180e-02 8.5775642652961281e-02 2.7564066822431874e-02  6.7911521830546981e-02 8.9492178132026576e-02 2.7799873290642409e-02  6.7741046926