<?xml version="1.0"?>
<VTKFile type="UnstructuredGrid"  version="0.1"  >
<UnstructuredGrid>
<Piece  NumberOfPoints="688" NumberOfCells="2869">
<Points>
<DataArray  type="Float64"  NumberOfComponents="3"  format="ascii">2.265439925769417 3.800516627823904 3.192183206818947  2.334493967918213 3.84081848175631 3.087843399017487  2.231700760016726 3.876668861386411 3.046485760374952  2.240632621919167 3.937711343197886 3.072232754397564  2.149726826202174 3.849884387122568 3.135684564359981  2.110866497666702 3.908468831025487 2.996496724821364  2.115942447903105 3.970466896821391 3.020048585339632  2.156819666606823 3.909988674231476 3.164148621356055  2.24953613555288 3.998611234001787 3.097881406699028  2.163931981021316 3.969955414945845 3.19249724738718  2.121063089350546 4.03230960318229 3.043501261469542  2.258417601704703 4.059385862596503 3.123466319257663  2.17105150419143 4.029827993042979 3.220784537799856  2.126189983154883 4.094021590214163 3.066885016131175  2.267278760040496 4.120046571200481 3.149016937416873  2.178160257848077 4.089601533602452 3.249029173878012  2.131306130730075 4.155624186480527 3.090227677289403  2.276119306532248 4.18059302670892 3.174549402165395  2.185241992308004 4.14926910620496 3.277256188912335  2.136392922412892 4.217109097973237 3.113549507376561  2.284957888654967 4.241015354049075 3.200062129245633  2.192277178831897 4.208808630534875 3.305483037700055  2.141426230049412 4.27845154645339 3.136850820876206  1.987468767806829 3.939361863931348 2.94047746729852  2.03000960766754 3.873621139314178 3.096191694873636  2.033733895944988 3.934703850481522 3.122042966661602  1.990431205481781 4.001859598579787 2.961872504872961  2.037557743138968 3.995658652198269 3.147779008590848  1.993460865503365 4.064245565894355 2.983180305439555  2.041419540991455 4.056503645562186 3.173439592758339  1.996524383756653 4.126526289519311 3.004429610427925  2.045281258258851 4.117253553184647 3.199059101590754  1.999585534795445 4.188704093258796 3.025643884623565  2.049106753230587 4.177910813176296 3.224666617900446  2.002608917236097 4.250774434309328 3.04684583697423  2.052846248166896 4.238463518978497 3.250294273586858  2.005566633045115 4.312719473282402 3.068053120853627  2.275987935344901 3.858449568705449 3.22378332603352  2.286515746025991 3.916291551696514 3.255275274258881  2.297017974733093 3.974031299896366 3.286684286047041  2.307506890642495 4.031672255863248 3.318050001774433  2.317985995805725 4.089206776278784 3.349393490057691  2.328457779762686 4.146623354071941 3.380723362999625  2.222211712296038 3.369615712480459 3.639264590669008  2.340535144198933 3.27100012863874 3.680662824454878  2.328988907401669 3.403561966147255 3.594808296851073  2.23166849731697 3.405433066515625 3.692816510129317  2.351592617012579 3.304239044959843 3.734603492942276  2.341324535387296 3.440972645813948 3.646300952503951  2.362551854968642 3.337436631121783 3.788489442201223  2.24111771135286 3.441203722897182 3.74628599883075  2.203503672866587 3.483259757355144 3.562750166108633  2.302136200768842 3.523979712564128 3.505419528509622  2.213653359478903 3.522937223407882 3.614104753361102  2.315163422297677 3.565349113259889 3.554480748954455  2.223796873837097 3.562570192976638 3.665375131509854  2.353562362623849 3.478368715601196 3.697718481334973  2.328115856182515 3.606691042212128 3.603458240916227  2.233946946162221 3.602160584480689 3.716590225184627  2.341048259624978 3.647986321361515 3.652391456529446  1.919987943948726 3.90262064029318 3.042671593526039  1.922273538220464 3.963769746351899 3.067426324798315  1.924662552385997 4.024829409686822 3.092073379954246  1.927106709342586 4.085802149897925 3.116655317069005  1.929556740068439 4.146695638998404 3.141200834335533  1.93196981427269 4.207508150319939 3.165734408249731  1.934288534222665 4.268221996329353 3.190296816702141  2.22728587849522 3.255958652048142 3.711532082005445  2.235494266186977 3.287199940109062 3.767779566180687  2.24369698083111 3.318379247376027 3.823951650659758  2.174288608528001 3.596681851248795 3.476735485852707  2.184154151274132 3.640341488673492 3.525805171832778  2.194022751846636 3.683976901699147 3.574772488680977  2.203898925040715 3.727571705221505 3.623672839091016  2.213775198961866 3.771121005238905 3.672532128917779  2.244102645346765 3.641709329977679 3.767766091958486  2.065834704490028 3.554819310935251 3.527198664340486  2.071840124502569 3.597152588170707 3.577864005608729  2.077953346974447 3.639457789926283 3.62841425564835  2.084115623939183 3.6817440127228 3.678906775679867  2.090283897071595 3.724002815021098 3.729366492375416  2.22364432319891 3.81461595843589 3.721356140495191  2.254255799145613 3.68120883987126 3.818909880351252  2.096422032367089 3.766222409918365 3.779795904346964  2.233503771434087 3.858046241733065 3.770141389046397  2.264407229434694 3.720642733959496 3.870022011052976  2.102471495760669 3.808364762728694 3.830194099266409  1.824955829824101 3.830181562124401 3.211192792508633  1.956781173048354 3.797516577484055 3.270007886411588  1.938524922536266 3.850848374990288 3.159071637676128  1.94121267423333 3.911205108706687 3.186476404696213  1.959724676086324 3.854235061081602 3.305365864687321  1.825281111501761 3.889048915151329 3.241890618710682  1.944025975159396 3.971472753765307 3.213761163570661  1.962807573300166 3.910908715034192 3.340612410987877  1.825791424800911 3.947899054159854 3.272488797665982  1.946901547724229 4.031672260349946 3.240977679805786  1.96595184489307 3.967533965016658 3.37579533563432  1.826389006429548 4.006727159599778 3.303031730200863  1.949785570879264 4.091802958994069 3.268157936335981  1.969097359866758 4.024105160651991 3.410947494788418  1.826994608574317 4.065521970206164 3.333553837106236  1.952626221765797 4.15185451620498 3.295333696606592  1.972192017537931 4.080608638234631 3.446091509498141  1.827535233222717 4.124262617273016 3.364082484475627  1.955357576583214 4.211807518111059 3.32254233905988  1.975170196237928 4.137018164774666 3.481260559246141  1.827920606698323 4.182914603024715 3.394648498462958  2.109517726928554 2.988059615791209 3.833545905257834  2.212344002334348 3.025042865377539 3.813355605352029  2.116446785625206 3.117600602009811 3.787624887320459  2.120143327127089 3.14178144637486 3.847506179827318  2.216785505048993 3.047475414526391 3.873245896280867  2.111310280271669 3.007337205606425 3.894845766395142  2.123948255501532 3.165877818548972 3.907324652470745  2.221278230201683 3.069789975759624 3.933053865761249  1.730313800970617 3.577257546416681 3.521301768304219  1.848665620799074 3.49864887017674 3.581523842113609  1.846577119813883 3.598324770844763 3.505137661965181  1.847307722325901 3.642508888137616 3.554695334945901  1.84990800623016 3.538492802207772 3.634045445534409  1.730139884279047 3.620433365047416 3.571611224497619  1.730245695843181 3.663752561712205 3.621893546518023  1.851385169847942 3.578407018520207 3.686544906664007  1.848280171283655 3.68676069671199 3.604202333255032  1.852981734534857 3.618368908293454 3.739049399858172  1.730475526077434 3.707162159911393 3.672220768945737  1.849357578088769 3.731050319369474 3.653698712976801  1.730706251315674 3.750598510923122 3.722605546096643  1.85459858561421 3.658352232812232 3.791580071309963  1.850445918617133 3.775350251229441 3.703206101193925  1.730847311403695 3.794028807072609 3.773055300376176  1.856153041790059 3.698333544703031 3.844134472555175  1.851466043448932 3.819635270364288 3.752738698714757  1.730797016692361 3.837410377311098 3.823590288461462  1.857519583441996 3.738257502979336 3.896736572255605  1.852299595778156 3.863857774428047 3.802313935349102  1.248277113236035 3.86178951459642 3.119985445114589  1.35859591835641 3.810241297726341 3.227504378803362  1.368469242644364 3.873252608184924 3.103394201802525  1.366963076099991 3.933807294481928 3.129637269893069  1.35718533955191 3.867902468861187 3.260688532355684  1.247151253749164 3.922576460521371 3.148036806475126  1.356060085178281 3.925793516854323 3.293704609235938  1.246266399418996 3.983567228525668 3.175845004385399  1.365696319096853 3.994538315655345 3.15569731879864  1.355015683693276 3.983820861037792 3.326736500596369  1.24545563131641 4.044680275340624 3.203610184926541  1.364491830306842 4.055360483330857 3.181749242698185  1.353940648027667 4.04191964166705 3.359875648759298  1.244618224968093 4.105845365576585 3.231470682367763  1.363272920142736 4.11623194914598 3.207868609859281  1.352785900815581 4.100070776756887 3.393158914807764  1.24374222925132 4.167043459532734 3.259479970323971  1.361996432109255 4.177138585144013 3.234101380142903  1.351496247508665 4.158271037125498 3.426630612947131  1.24281650786888 4.228281508855781 3.287708938030203  1.360606655112033 4.238090934831253 3.260507574968944  1.848563585490499 3.770402670384241 3.313108009309015  1.849813590426413 3.825038039847341 3.351317376245504  1.851248124974969 3.879685451860403 3.389423816739626  1.852769789706977 3.934329268802125 3.42748217574553  1.854301070470313 3.988954762304386 3.465524879699996  1.855775509831064 4.043545711029312 3.503575848333881  1.857107799600246 4.098071028702005 3.541667816254352  1.73956513105337 3.478435705641137 3.598967376393959  1.73875874764189 3.516709318466829 3.652733930906928  1.738274526962517 3.555139878861668 3.706511735650509  1.737913924214882 3.593652563860342 3.760361363284675  1.737545842482482 3.632192681711678 3.814291978591361  1.737080589665178 3.670732555445833 3.868290255193909  1.73639071881489 3.709216625674038 3.922375091679295  1.774872947746054 3.144685029007047 3.778607681026687  1.888184400271226 3.178524781615165 3.764896590273506  1.759113912271621 3.265615395100228 3.720292231027639  1.757439599294991 3.294090736949471 3.778833312538438  1.887703274120382 3.204302030327772 3.824553953231183  1.77265562546424 3.168350563959694 3.839085195163175  1.756104686641907 3.322688228418791 3.837
[...]
<PointData  Vectors="f_24"> 
<DataArray  type="Float64"  Name="f_24"  NumberOfComponents="3" format="ascii">3.8726617713767231e-02 7.5505316134958575e-02 3.5108832592786458e-02  3.9196735188242078e-02 7.9491614205740080e-02 3.6306868931342912e-02  4.0085050118914743e-02 7.9865999014695405e-02 3.5280387311655309e-02  3.9409744302624582e-02 7.9157489733946582e-02 3.6274536715689649e-02  3.9970296028081657e-02 7.6781094445486850e-02 3.4295738430474572e-02  4.1265999811915657e-02 8.0779759201812809e-02 3.4152516593510832e-02  4.0941468412740288e-02 8.0142361236516260e-02 3.5038993660670516e-02  3.9355519961568289e-02 7.5825259898482919e-02 3.5553889895178117e-02  3.8776132990537011e-02 7.8629819249209601e-02 3.6824815219839713e-02  3.8821279187148200e-02 7.5145819226233188e-02 3.6339179930740574e-02  4.0575205458321474e-02 7.9651115760506083e-02 3.5461807532916355e-02  3.8173892088288273e-02 7.8172335824033851e-02 3.7233799205957957e-02  3.8324175959205786e-02 7.4545352915527566e-02 3.7015309198199967e-02  4.0219795075135338e-02 7.9223211861879889e-02 3.5728942698640173e-02  3.7534960587425545e-02 7.7636410334371159e-02 3.7895132815031797e-02  3.7798303999523275e-02 7.3827363537098289e-02 3.8025349046588344e-02  3.9899546378331756e-02 7.8720024472112959e-02 3.6227044098150522e-02  3.6854134083783914e-02 7.6966281239200698e-02 3.8765582445758597e-02  3.7196998725361384e-02 7.2991506295431177e-02 3.9222025350280444e-02  3.9550214454679600e-02 7.8029112303237738e-02 3.6979648788641156e-02  3.6180486299763323e-02 7.6205163342241117e-02 3.9746442492808780e-02  3.6606530332827764e-02 7.2060104603401690e-02 4.0579402024250082e-02  3.9231679512693483e-02 7.7200331673138708e-02 3.7829122408461702e-02  4.2715082867082921e-02 8.2107502579998604e-02 3.3135573599709582e-02  4.1259288250314198e-02 7.7958007682444569e-02 3.3303351984709233e-02  4.0939580428799902e-02 7.7050794554157420e-02 3.4566191879484780e-02  4.2651663196603622e-02 8.1606611416977226e-02 3.3861164649310750e-02  4.0633716712509559e-02 7.6407289010410134e-02 3.5293759421658744e-02  4.2513795925503084e-02 8.1196203789713137e-02 3.4137005922433496e-02  4.0357063675002205e-02 7.5867323372609569e-02 3.5863988793687691e-02  4.2369920752300970e-02 8.0825305569079020e-02 3.4254205832567781e-02  4.0088287993141923e-02 7.5219647121612734e-02 3.6732438510100149e-02  4.2275693780876505e-02 8.0383790325611090e-02 3.4608348884168617e-02  3.9766511772124404e-02 7.4372937912913287e-02 3.7869758153255627e-02  4.2191166034143260e-02 7.9714811074544881e-02 3.5188139774912711e-02  3.9454457807254893e-02 7.3407712800679620e-02 3.9163079385419144e-02  4.2152760555302114e-02 7.8891930124936935e-02 3.5846634678407985e-02  3.7793611539889298e-02 7.4445520993419251e-02 3.6443830275356776e-02  3.7004172229872880e-02 7.3665327140180648e-02 3.7382559787054903e-02  3.6269754325151254e-02 7.2985315480074017e-02 3.8223656359297052e-02  3.5457262048722661e-02 7.2214731228421994e-02 3.9334484606096787e-02  3.4528310559573214e-02 7.1369788404760687e-02 4.0636683471488959e-02  3.3607918026840045e-02 7.0481255335933732e-02 4.2093862299289228e-02  3.4488834179063788e-02 5.3736344407473220e-02 2.5198846535825981e-02  3.2939182300459703e-02 5.1662885643170682e-02 2.3057607218672883e-02  3.4232662855885304e-02 5.7319733055683643e-02 2.7703220176629784e-02  3.3648753060486487e-02 5.1414803294435825e-02 2.6204025133554545e-02  3.2117069533239770e-02 4.9199629477454127e-02 2.4121604186180944e-02  3.3191148981372050e-02 5.5101964976369669e-02 2.8917100337209348e-02  3.1391611479651145e-02 4.7111641340819910e-02 2.5108681992737702e-02  3.2962418488502579e-02 4.9396618134905229e-02 2.7168284632476350e-02  3.5507301538382816e-02 5.8141307431709602e-02 2.8351542557268045e-02  3.5471694084238913e-02 6.2125255120348444e-02 3.0799415913585371e-02  3.4589187941583589e-02 5.6038794711218476e-02 2.9460289059235034e-02  3.4331390138416844e-02 6.0170186653604657e-02 3.2056608515669181e-02  3.3862025629971954e-02 5.4177814212921359e-02 3.0531045785150136e-02  3.2337260979338124e-02 5.3159068645132430e-02 3.0045448813435446e-02  3.3433040232474877e-02 5.8425208861911306e-02 3.3239288925885652e-02  3.3127171393924820e-02 5.2377838115958260e-02 3.1683962384010909e-02  3.2547603495428234e-02 5.6749173394081177e-02 3.4481168850182972e-02  4.2681347769610405e-02 7.9741372193551791e-02 3.2602965174261637e-02  4.2578358398693270e-02 7.8958577870172075e-02 3.3776735156175637e-02  4.2445767941167487e-02 7.8381035096526400e-02 3.4408496785100481e-02  4.2329622347732958e-02 7.7876418135094799e-02 3.4863147685334155e-02  4.2231575484934086e-02 7.7257046643036481e-02 3.5608688929056227e-02  4.2096082995514900e-02 7.6414662822784599e-02 3.6668677269512825e-02  4.1995271385692687e-02 7.5419900269080908e-02 3.7837668879952047e-02  3.3481247660038696e-02 4.8829724728199068e-02 2.1125039427983685e-02  3.2806400064706677e-02 4.6376442755139059e-02 2.1972800293726977e-02  3.2219158992749665e-02 4.4262869407412218e-02 2.2797322356293458e-02  3.6582179995110105e-02 6.2378494338913133e-02 3.0661972006195068e-02  3.5666497586787360e-02 6.0481700519545142e-02 3.1842803912473322e-02  3.4950004200680521e-02 5.8807682315673737e-02 3.2969231155266648e-02  3.4232071843319105e-02 5.7201376469671897e-02 3.4146123688171763e-02  3.3372177077245165e-02 5.5606781891128998e-02 3.5449787613478882e-02  3.2264764946837096e-02 5.0565925521191088e-02 3.2977610857050851e-02  3.6895965494336651e-02 5.9137677560675506e-02 2.8491415762175100e-02  3.6198978783849617e-02 5.7127760571917825e-02 2.9556995579433264e-02  3.5657366102123590e-02 5.5353999031484150e-02 3.0591538151327580e-02  3.5104691154472005e-02 5.3654946733650365e-02 3.1690202449098426e-02  3.4446678384161010e-02 5.1928086336224838e-02 3.2926182731656407e-02  3.2419322211263556e-02 5.3921310656196299e-02 3.6915627030328642e-02  3.1334836425394683e-02 4.8656591168452765e-02 3.4379689907655706e-02  3.3675168414657258e-02 5.0137180517762711e-02 3.4291450208501731e-02  3.1468566385053354e-02 5.2285842081823436e-02 3.8384084479666798e-02  3.0385719496341376e-02 4.6758982620731131e-02 3.5800854242848602e-02  3.2904402514150700e-02 4.8360345595824770e-02 3.5699031877103993e-02  4.2350196501815408e-02 7.3515037023996310e-02 3.1252664615414087e-02  4.0425470786032779e-02 7.0802826807953592e-02 3.1856076530474363e-02  4.1587937354593679e-02 7.5660569192044558e-02 3.2328020165425554e-02  4.1342609636408879e-02 7.4613736537235201e-02 3.3780585109929845e-02  4.0034951162950777e-02 6.9501166093886263e-02 3.3279418051603525e-02  4.2164220655770870e-02 7.2327760407910335e-02 3.2748086951881007e-02  4.1132068006210928e-02 7.3900746247949886e-02 3.4664930663270671e-02  3.9720408609666850e-02 6.8535174431629570e-02 3.4315674628779824e-02  4.2021842740309734e-02 7.1502336802457350e-02 3.3722050720936980e-02  4.0942254251442732e-02 7.3287961383395869e-02 3.5414522571394047e-02  3.9419646049501537e-02 6.7618584459852277e-02 3.5316366389698095e-02  4.1900785713039408e-02 7.0763683701560415e-02 3.4597500343958559e-02  4.0735313029215570e-02 7.2527654636029504e-02 3.6506430601259604e-02  3.9052489050744994e-02 6.6545579219626047e-02 3.6653245402494997e-02  4.1734040481155518e-02 6.9845150592109578e-02 3.5839990732603216e-02  4.0462567804894392e-02 7.1603939030220137e-02 3.7854295935291361e-02  3.8599690793118500e-02 6.5375235756855540e-02 3.8202763255633584e-02  4.1495330822796002e-02 6.8761069943215736e-02 3.7359995155287803e-02  4.0205288144688218e-02 7.0567570270597249e-02 3.9396286050706136e-02  3.8164540664181165e-02 6.4184181001707030e-02 3.9907591789455098e-02  4.1275429954094681e-02 6.7586091423113684e-02 3.9053818488561223e-02  3.2751148994122931e-02 3.8433474649001841e-02 1.0344849924916785e-02  3.2164956657476269e-02 4.0479381485782139e-02 1.2141492237869055e-02  3.3355587777975718e-02 4.2572780398446072e-02 1.5189779858892787e-02  3.2999912738306998e-02 4.0100092176527678e-02 1.5594225361861223e-02  3.1852875487232361e-02 3.7890516770102328e-02 1.2445093357663660e-02  3.2544472032240111e-02 3.6020243788620745e-02 1.0492439402740621e-02  3.2620739536145631e-02 3.7967284026972692e-02 1.6036889515727605e-02  3.1479540753216767e-02 3.5737009490138860e-02 1.2795862349275105e-02  4.0095474896380830e-02 5.8348545794199985e-02 2.5968467797513752e-02  3.8214425670952692e-02 5.5380181377598897e-02 2.5220357214909905e-02  3.9128542820314131e-02 5.9390316710596122e-02 2.7299483248958301e-02  3.8711418118158009e-02 5.7494011686683985e-02 2.8376412940112474e-02  3.7801850675131289e-02 5.3335767762336735e-02 2.6102636482720935e-02  3.9759780047092456e-02 5.6433736747994595e-02 2.6968376732894553e-02  3.9499327174290909e-02 5.4797022677567461e-02 2.7907955129983977e-02  3.7473593864831477e-02 5.1540410022677563e-02 2.6967686557681246e-02  3.8388930537123910e-02 5.5865036818673927e-02 2.9376777629187525e-02  3.7129526572395620e-02 4.9818717692107488e-02 2.7909482625955630e-02  3.9222852921270722e-02 5.3222688835267096e-02 2.8897045917271737e-02  3.8049641171994698e-02 5.4291842951609166e-02 3.0419272182329000e-02  3.8868113501940950e-02 5.1565065144744446e-02 3.0049259129938232e-02  3.6711496469558853e-02 4.8031994974949775e-02 2.8996903900650500e-02  3.7622535681640222e-02 5.2647548646134662e-02 3.1617530399680176e-02  3.8433913731235725e-02 4.9818892301808332e-02 3.1340239455134644e-02  3.6211877226498636e-02 4.6186908495325342e-02 3.0192692365526828e-02  3.7106771103712154e-02 5.0910866671801780e-02 3.2967258573941997e-02  3.7995300858995697e-02 4.8093980715005528e-02 3.2700800760468877e-02  3.5711496211163901e-02 4.4338510044575612e-02 3.1444487414279673e-02  3.6589553510683097e-02 4.9209282179465727e-02 3.4379204310123777e-02  5.0546356065827525e-02 7.8858195806058393e-02 2.7569851943887082e-02  4.7922252493530333e-02 7.3646021062508629e-02 2.7651204858426200e-02  4.9055688770827277e-02 7.9310467977119770e-02 2.8605841733156528e-02  4.9005479475126540e-02 7.8396643835669716e-02 3.0192025952490896e-02  4.7765303621647270e-02 7.2348635103007500e-02 2.9258107269970697e-02  5.0414277082631409e-02 7.7835457926530335e-02 2.9199310361755295e-02  4.7646401390168229e-02 7.1470534577469033e-02 3.0274128269692155e-02  5.0311419070301545e-02 7.7165183679627644e-02 3.0122649090119191e-02  4.8980716217196560e-02 7.7789858469764717e-02 3.1069238368970086e-02  4.7526637860191547e-02 7.0669722968773246e-02 3.1165552646563784e-02  5.0205730141008195e-02 7.6574570477399392e-02 3.0828826598480637e-02  4.8959441029649053e-02 7.7245471669643115e-02 3.1736763532099158e-02  4.7376838640225634e-02 6.9619189180207763e-02 3.2447079394812776e-02  5.0087285605641602e-02 7.5746911050290175e-02 3.1919725719472186e-02  4.8918531095894703e-02 7.6466207871413047e-02 3.2804744778789009e-02  4.7198363197204406e-02 6.8298044916112841e-02 3.4102570648460152e-02  4.9956179749109188e-02 7.4596589303941321e-02 3.3433092710740055e-02  4.8841040848861442e-02 7.5388175628102835e-02 3.4263496618927865e-02  4.7042519570370610e-02 6.6854280847196329e-02 3.5944084859407664e-02  4.9844423919642535e-02 7.3263367007570704e-02 3.5139427703863108e-02  4.8792399925432120e-02 7.4125715342756499e-02 3.5935651976285732e-02  4.1118440214631111e-02 6.8777272121906152e-02 3.0550126742574239e-02  4.0801892480705225e-02 6.7306231855035009e-02 3.1959584816334458e-02  4.0563385266365722e-02 6.6197055371049640e-02 3.3027298489138851e-02  4.0326466575522225e-02 6.5151618812587478e-02 3.4070478404613885e-02  4.0010913437452028e-02 6.3963440705767163e-02 3.5407029562761975e-02  3.9616170453999899e-02 6.2635846910014156e-02 3.7002895008346810e-02  3.9247712951352771e-02 6.1296250178774776e-02 3.8707908874218371e-02  3.9076287613452838e-02 5.4124870051570045e-02 2.3857727883045427e-02  3.8745083995207354e-02 5.2126394593250643e-02 2.4678764893045921e-02  3.8479031053001586e-02 5.0357302161218691e-02 2.5486067786694676e-02  3.8189346659977974e-02 4.8634762774249454e-02 2.6363875355876552e-02  3.7839038071858060e-02 4.6839430451633468e-02 2.7381545527559184e-02  3.7421245206228561e-02 4.4985010442643497e-02 2.8497864647139312e-02  3.7001070840911865e-02 4.3131120687364424e-02 2.9666247385531943e-02  3.6268760325714376e-02 4.2485262791374129e-02 1.5014531342863747e-02  3.5540814104542906e-02 4.3752158936056107e-02 1.6500134591281787e-02  3.7241149966219224e-02 4.6653716298663730e-02 1.8698532000300132e-02  3.7007077945334699e-02 4.4490666900958348e-02 1.9095414720791931e-02  3.5297880171177763e-02 4.1478725660702112e-02 1.6829407137865036e-02  3.6116479192123054e-02 4.0346859725605790e-02 1.5269184645579048e-02  3.6774594914399550e-02 4.2565330589579148e-02 1.9533265177633805e-02  3.5031749645367392e-02 3.9491375606896542e-02 1.7215827365789076e-02  3.5914748091223449e-02 3.8453646156648723e-02 1.5586241463650584e-02  3.6522752222052000e-02 4.0680689113612681e-02 2.0084897517153474e-02  3.4749765521238693e-02 3.7529318075622084e-02 1.7724073731891037e-02  4.6645061705549218e-02 7.4693079250140570e-02 2.8796289342162811e-02  4.6562249488263867e-02 7.3493634794892640e-02 3.0384676627465655e-02  4.6513793356246350e-02 7.2674943485786847e-02 3.1371594663843795e-02  4.6464838002446558e-02 7.1921573992854593e-02 3.2221409393242924e-02  4.6382863299914028e-02 7.0932050156575888e-02 3.3456987240695277e-02  4.6238383041202154e-02 6.9686288405495608e-02 3.5075120076250736e-02  4.6126835436302464e-02 6.8341908021995093e-02 3.6855400672262950e-02  4.9769894333412251e-02 7.4428255533408899e-02 2.6625905066735595e-02  4.9579920261863239e-02 7.3137143169442170e-02 2.8287115628823276e-02  4.9414561230216023e-02 7.2286486312106726e-02 2.9315786009517335e-02  4.9240051707060702e-02 7.1535669074415026e-02 3.0187472111888911e-02  4.9057344156094120e-02 7.0534564943691203e-02 3.1438157991825678e-02  4.8875387371929618e-02 6.9228879078736066e-02 3.3094967465893320e-02  4.8702552951446786e-02 6.7783922947693157e-02 3.4941911360796982e-02  3.4975158568283378e-02 5.1027034495109785e-02 2.3175300933666064e-02  3.4354012279512784e-02 4.8686984074966494e-02 2.3991887794489665e-02  3.3832054213056247e-02 4.6636990153949578e-02 2.4801889134895817e-02  3.1597022804350457e-02 4.2163028049337872e-02 2.3731251979261202e-02  3.3283105629463884e-02 4.4633072846146815e-02 2.5720695393551960e-02  3.2257833240438717e-02 4.7433582675786512e-02 2.8240414207021856e-02  3.0940790148813770e-02 3.9932384781157453e-02 2.4836775094987888e-02  3.2679044565491540e-02 4.2552829930620248e-02 2.6796362639862830e-02  3.1471838551458430e-02 4.5396287342225061e-02 2.9478753339368616e-02  3.0300778318584222e-02 3.7510576392620308e-02 2.6049573426817678e-02  3.2034461424984902e-02 4.0368049554127851e-02 2.7964908859525611e-02  3.0648192754312197e-02 4.3228195848816459e-02 3.0818376747282064e-02  2.9620441497930972e-02 3.5041588269353857e-02 2.7302534450377156e-02  3.1372080991860007e-02 3.8154930784550532e-02 2.9169569043974386e-02  2.9794060025736438e-02 4.1017672630477016e-02 3.2192875211772012e-02  3.7915088369931994e-02 6.3890067467827799e-02 3.0627274648118773e-02  3.7240303789636248e-02 6.2124087226819169e-02 3.1865327951754292e-02  3.6717347159336340e-02 6.0637418607294227e-02 3.2974575082379040e-02  3.6197463507666679e-02 5.9220589357438042e-02 3.4110897780259844e-02  3.5575368237401199e-02 5.7746037495251229e-02 3.5423001784856349e-02  3.4821974746976486e-02 5.6207101578630181e-02 3.6908189870855368e-02  3.4075491502311761e-02 5.4706157608427036e-02 3.8459380674614817e-02  4.8173338827303833e-02 6.9350192669279345e-02 2.5879937320775908e-02  4.6697558875755142e-02 6.9327130249932201e-02 2.6796386436411787e-02  4.6490608156573264e-02 6.7803038532679383e-02 2.8298101303610414e-02  4.7945755796886827e-02 6.7863474389543807e-02 2.7385734937728789e-02  4.6315084037827005e-02 6.6703859503064955e-02 2.9353246114733788e-02  4.7738813289415226e-02 6.6824000893476121e-02 2.8430474769172393e-02  4.6130094283090957e-02 6.5675568194835249e-02 3.0334707671729327e-02  4.7517239507503146e-02 6.5832205885821782e-02 2.9414505731887596e-02  4.5908265233074758e-02 6.4423397620547537e-02 3.1645121771526653e-02  4.7285876864957964e-02 6.4574413440819808e-02 3.0767558267557903e-02  4.5656395210829218e-02 6.2937577920804941e-02 3.3293685718692831e-02  4.7041285376239493e-02 6.3091497545184089e-02 3.2439807448313061e-02  4.5441747855817775e-02 6.1396114313556592e-02 3.5096689538388598e-02  4.6818571639681478e-02 6.1524269177571492e-02 3.4283955288846375e-02  4.4190893165035355e-02 8.2315478121823271e-02 3.2044067696570949e-02  4.4277524064143869e-02 8.1791042841407174e-02 3.2986923655388876e-02  4.4307756803529254e-02 8.1377289545883760e-02 3.3395170541976951e-02  4.4342567810679974e-02 8.1008483611629670e-02 3.3610430533457400e-02  4.4424245406667638e-02 8.0530336805490599e-02 3.4096699060360218e-02  4.4467443539893840e-02 7.9794117801806383e-02 3.4861959455781175e-02  4.4570272558361691e-02 7.8851772719233382e-02 3.5741954500970258e-02  3.4100842942264481e-02 4.1080985131320927e-02 1.3769793145170335e-02  3.3876550574319195e-02 3.8705397412788986e-02 1.3982921387333326e-02  3.4827614618648708e-02 4.5141837315050323e-02 1.7978777538516608e-02  3.4473782266724227e-02 4.2783957239346991e-02 1.8475276962368472e-02  3.4120297172559953e-02 4.0724711414469691e-02 1.8999911619493645e-02  4.4360309836104415e-02 8.2542778852110366e-02 3.2775394578211103e-02  4.4463221204624814e-02 8.1964890593327719e-02 3.3023971062600001e-02  3.8257258008342378e-02 4.5664038624083317e-02 1.7216941814936104e-02  3.9165535820075301e-02 4.9494488546416027e-02 2.0160583158814308e-02  3.8919210961068304e-02 4.7460976984355169e-02 2.0684176092781257e-02  3.8069016864696263e-02 4.3618936579066236e-02 1.7560329759084232e-02  3.8695876634499818e-02 4.5631929942063554e-02 2.1244514280661351e-02  3.7874984298289664e-02 4.1790447733970060e-02 1.7947262333382921e-02  3.8456249041863726e-02 4.3837157405251556e-02 2.1887017435558570e-02  3.7671136326995099e-02 3.9985547929889675e-02 1.8439478992682050e-02  3.8192406382303909e-02 4.1973233320423853e-02 2.2654155637834402e-02  3.6259922588685690e-02 3.8718471023603783e-02 2.0775921149110581e-02  3.7470357254385328e-02 3.8091172240345583e-02 1.9064681835396880e-02  3.7887036533090307e-02 4.0036856208926760e-02 2.3494988228718029e-02  3.6398987994335059e-02 4.7615993421020554e-02 1.9984643055925649e-02  3.8152649011366072e-02 5.0270422704754028e-02 2.1487787957898272e-02  3.7845615953901901e-02 4.8171818351989651e-02 2.2087056695527019e-02  3.6074512926252175e-02 4.5371118278350435e-02 2.0484715254236001e-02  3.7582188217650137e-02 4.6290673362396222e-02 2.2716549904717914e-02  3.5770633312027712e-02 4.3371003480702219e-02 2.1012428375755180e-02  3.7300047595185862e-02 4.4443658942422831e-02 2.3429222168200214e-02  3.5446081848289381e-02 4.1410702485548644e-02 2.1648511462186378e-02  3.6979448163416341e-02 4.2537991286477547e-02 2.4266344233456309e-02  3.5096648241847994e-02 3.9380732952832634e-02 2.2423447395576893e-02  3.6614665887389854e-02 4.0550649774507598e-02 2.5194096220016511e-02  3.4722406929285875e-02 3.7248006379009782e-02 2.3289797989013879e-02  3.5875028082997501e-02 5.5331610856262987e-02 2.6379143550433481e-02  3.5180530980687422e-02 5.3173811529913878e-02 2.7353808032604648e-02  3.4624694170736880e-02 5.1260898621353003e-02 2.8317145104531302e-02  3.4046761107151900e-02 4.9398844507914000e-02 2.9366537882160898e-02  3.3369150762728117e-02 4.7496282193439043e-02 3.0560946363088488e-02  3.2619457522717547e-02 4.5521584670311629e-02 3.1848845438696809e-02  3.1852891088354464e-02 4.3537251971675420e-02 3.3172144738644958e-02  4.7672502385444862e-02 7.9937599210049629e-02 2.9518184209028495e-02  4.7694009187655755e-02 7.9113247628374142e-02 3.1046642352926573e-02  4.7731627064365213e-02 7.8560042649049172e-02 3.1870817256487972e-02  4.7780434691582170e-02 7.8072052078211121e-02 3.2470465725194561e-02  4.7809766279538424e-02 7.7361319764446240e-02 3.3465642003429621e-02  4.7780123888539257e-02 7.6365273539835271e-02 3.4845490078671423e-02  4.7791022302