<?xml version="1.0"?>
<VTKFile type="UnstructuredGrid"  version="0.1"  >
<UnstructuredGrid>
<Piece  NumberOfPoints="710" NumberOfCells="2976">
<Points>
<DataArray  type="Float64"  NumberOfComponents="3"  format="ascii">10.06717446290109 1.890545214332218 1.690282351435954  9.948202398422481 1.867620679798455 1.722799036336107  10.00538722889914 1.962673727023911 1.620615214239507  10.003024262009 1.925391307740197 1.579552173851677  9.948195248306707 1.824195143121901 1.687177402020206  10.06489261091686 1.847241551212323 1.654027646589613  10.00033758199189 1.88830916902647 1.53851918921759  9.947851929118075 1.780974365428067 1.651511932073753  10.06222368818169 1.804140797772243 1.617735647461695  9.997516710546558 1.851332633477752 1.497564712884845  9.947363149640799 1.737875142223331 1.615881167657034  10.05940971946597 1.761146615215076 1.581481591941018  9.99471810813073 1.814411428756155 1.456714925705684  9.946894540959606 1.694849632079778 1.580338139709241  10.05663687738222 1.718213910080646 1.545313480039884  9.992092003445851 1.777522481565892 1.415990571470915  9.946610505520674 1.651885189027064 1.544926177698084  10.05409146759299 1.675339497082793 1.509278610540845  9.989830473002495 1.74068380349911 1.375403754227483  9.946725962783708 1.608975491254483 1.509694234644065  10.052007687967 1.632504461555235 1.473390500740591  11.01260965547261 1.94416566159979 1.51068751389263  10.90170482671449 1.933209683018327 1.549654364800322  10.95682485274035 1.994978711243567 1.434746708994789  10.94761489208806 1.94553527010398 1.394580100198507  10.8955837904523 1.880229176677757 1.517472198858222  11.00713282191337 1.889155504510666 1.477755671319004  10.93795368180392 1.896137850344169 1.354162894421346  10.88891299830281 1.827176497879313 1.484948770118096  10.84034657723796 1.986563415124752 1.471722972813039  10.832498238791 1.938388717728878 1.433251612807826  10.82414755730447 1.890308004889065 1.394533142103052  10.81580367658271 1.84213648369286 1.355753375045311  9.892723816666035 1.932898649444227 1.647884763887866  9.892076491814048 1.894345276974572 1.607944754076704  9.891161161835305 1.856025031746173 1.568056014446823  9.890124117819418 1.817828765901739 1.528258778931135  9.889117212410227 1.779712035829134 1.488591087862257  9.888300993501666 1.741665695312084 1.449098296500596  9.887817813090246 1.703688401694044 1.409781500373775  9.878066603501678 2.197771740281269 1.463218644764811  9.884423786644048 2.108594713571193 1.516689289086488  9.737473532880706 2.13848794366444 1.502918538732078  9.736504905532547 2.110377317317166 1.458014993811821  9.882059724981969 2.079299408165919 1.471862260147382  9.876032896413777 2.170999245681662 1.417711784540597  9.879489994578348 2.050125170616985 1.427181083324602  9.873825664083007 2.144281663536704 1.372369881353866  9.735360437995505 2.082379067119963 1.413313310173704  9.876804390402475 2.021033521459203 1.382660286687001  9.8715146221727 2.117614837878249 1.327204453532145  9.73411871513043 2.054446014774577 1.368787533500134  9.874123154453081 1.991996541159228 1.338298974033195  9.869198169246944 2.090999417927288 1.282202618524915  9.732868715307587 2.026572947666704 1.324442086237198  9.871580082804188 1.963013112558842 1.29410849215635  9.866990960530012 2.064452511735322 1.237373628336871  9.731713539443232 1.998775346297764 1.280296234905313  9.865020377979491 2.037991882249877 1.192718893306451  9.869347127979736 1.934124301810111 1.250137741140201  9.730792170005106 1.971072439811866 1.236358263739212  9.762453029215402 2.226578974391355 1.450733762831421  9.761210112682994 2.200394951097175 1.405293622012032  9.759841947803523 2.17425964256051 1.360066806899582  10.79238015962468 1.92321589594731 1.582636616397604  10.78846047310043 1.871804269705961 1.550592078168814  10.78413086182468 1.820377966801659 1.518224217956568  10.77974771648568 1.768827872102714 1.485753694989491  10.8822169916172 1.773938472045306 1.452332008322443  10.7755408737905 1.717128717791689 1.453286166647447  10.80771083204977 1.793809004575801 1.316980193030481  10.18237754519869 2.486595088995855 1.250032907889051  10.09704287629291 2.577631902774217 1.201919946209197  10.21233653359902 2.564093264898493 1.191682207899323  10.20446246047044 2.532908800568284 1.146454719274399  10.09055032886323 2.545988948061397 1.1571832898349  10.17440956819757 2.456388869548368 1.205439352709684  10.19641599546087 2.501652255554515 1.101413721568459  10.08391790958759 2.514226700391798 1.112659922076189  10.16622322703168 2.426149966228646 1.16101996046315  10.18828991259779 2.470390651143241 1.056496236505544  10.07721415074226 2.482438316692912 1.068294477716165  10.1579258479796 2.395924536748774 1.116728787396322  10.18017374666992 2.439173438792123 1.011650606843086  10.0705141411949 2.450689153279837 1.024019083278784  10.14962881556384 2.365747163137943 1.072525734227933  10.17215936396657 2.408059138279055 0.9668353151995593  10.06389882845824 2.419060879770752 0.9797708122144704  10.14145611589388 2.335665869727707 1.028379065100537  10.16434643289714 2.377122562963149 0.9219976433021864  10.05744638753962 2.387684454212802 0.9354714105261187  10.13358671827994 2.305733097972678 0.9842477582576911  10.51521725924049 2.060824668317986 1.461020011329014  10.41050090364608 2.046486714906758 1.491726301689819  10.43877450571167 2.139800838697322 1.422566991255561  10.42883807013681 2.109260252238256 1.376129210938462  10.40118841178389 2.010552939280521 1.448096271073413  10.50594015652713 2.026161615668435 1.415589802247046  10.41839996114527 2.078908860916804 1.329687192933364  10.39131211221289 1.97480777911104 1.404426356874539  10.49614045356391 1.991681238587793 1.370043909569807  10.40778619967313 2.048625803558926 1.283257810519272  10.38129129070314 1.939115481816316 1.36077844738835  10.48622209868468 1.957223730179825 1.324476179546008  10.39724724453217 2.0183301467532 1.236862723091535  10.37140277609946 1.903401110342682 1.317181669471123  10.47644902337018 1.922712934650823 1.278932758662538  10.38700466196753 1.987961941107818 1.190509095148424  10.36188666006624 1.867623160791205 1.273644346639319  10.46701214706529 1.888100610523676 1.23342283363076  10.3773012682863 1.957462006725918 1.144166042168173  10.35299300049955 1.831754968883876 1.230124881273579  10.45803423882715 1.853349116664994 1.187908863721123  10.717012954182 1.973050242133213 1.512375957687812  10.71119039607923 1.925419879138524 1.475837087118333  10.70489919054602 1.877881454998776 1.439057569812631  10.69855990363681 1.830281891516403 1.402213892918668  10.69241688764814 1.782565630720631 1.365374821441643  10.68666098112973 1.73470485636305 1.328574171455923  10.77166269284956 1.665261553795237 1.42087732090082  10.80004877370219 1.745297306191455 1.278249718596804  10.68142317679276 1.686672268255752 1.291856472849944  10.76823944778697 1.613236074822542 1.388554308072729  10.79297702707771 1.696590583647043 1.23958457411448  10.86327582487904 2.085291826014031 1.373007913740093  10.85240812050834 2.045878479773002 1.326290225340042  10.84098959463154 2.006699452080071 1.27927022576368  10.82953901156936 1.967459237936108 1.232116775504887  10.08080241859362 2.475229525087121 1.27576911749144  10.07444354259733 2.445357411507348 1.231509051563055  10.06789665449566 2.415436325718041 1.187449042841728  10.0612384132586 2.385516158910125 1.143546646301547  10.05456883986339 2.355638512823905 1.099750607841372  10.04800263717456 2.325863130141573 1.056017909749752  10.0416957600438 2.296294454761618 1.012309076270363  10.30976919235812 2.108007972049885 1.467098138788229  10.30128758544517 2.076532065126067 1.421670008909758  10.29234280761345 2.045247624300977 1.376293213326025  10.28323023790625 2.01403941259752 1.330960872535188  10.27418761595333 1.982842102155678 1.285694409783679  10.26544132063292 1.951611272084165 1.240504928853752  10.25724411379493 1.920299751277261 1.195386001297892  11.09971573257156 1.839933304861156 1.80218170057769  10.97971247892959 1.830568055786588 1.82827203810228  10.9788402333553 1.857369217477752 1.716996085976952  10.98364661859535 1.770877525081777 1.81549806664608  11.10275157378905 1.777951236114997 1.790483789023478  10.98000735179261 1.797387947316837 1.700618537278271  10.98742688090046 1.711058517440385 1.802586407625144  11.10566739629653 1.715833625430773 1.778743519891583  10.98096296806172 1.73722899819078 1.684061479149677  10.99125018438412 1.651090044817306 1.789657732248873  10.98195430872847 1.676903278125826 1.667474878654044  10.68417880777289 1.903435682781784 1.618155850345301  10.68094363458501 1.852495509621075 1.586845535890262  10.67735400975792 1.801588334528826 1.555261330408848  10.67373725055306 1.750618516698883 1.523621834472615  10.67028677433954 1.699553216036712 1.492006790032395  10.66713184612628 1.648380898654706 1.460463377924372  10.66432925551913 1.597110339784218 1.429025888875075  10.30127920531562 2.471629926183964 1.239774571027439  10.35076364097268 2.549104708523015 1.177867729300095  10.29291086137545 2.441667994571083 1.194587502125608  10.34219512193976 2.517972389415739 1.132278227872707  10.2843107662159 2.411725012550711 1.149538401388881  10.33344023830808 2.486829904913697 1.086820939165302  10.27559756467694 2.381813550492054 1.104586274467113  10.3246032972976 2.455702730024959 1.041444386804296  10.26688847808923 2.351940728355737 1.059697599518331  10.31577805414771 2.424611915274283 0.996117233745214  10.25830846359022 2.32211337529143 1.014850021853711  10.30705684668868 2.393574534822898 0.950820301641116  10.24999733385366 2.292332135535876 0.9700314099049056  10.29852004327263 2.362604635761607 0.9055439323291532  9.80484091053815 2.053988105438 1.55985435085097  9.803525678712251 2.023554059475192 1.51551196299033  9.802004068750831 1.993264318538807 1.471320434401566  9.8003701647336 1.963075610449241 1.427279887442423  9.798730810775735 1.932945800379155 1.3833892
[...]
<PointData  Vectors="f_24"> 
<DataArray  type="Float64"  Name="f_24"  NumberOfComponents="3" format="ascii">-4.2388691062750963e-02 -7.1323054068101827e-02 -3.3547565028908197e-02  -3.9917619420961330e-02 -7.1774043038306576e-02 -3.1233706241526046e-02  -4.3431405615170504e-02 -7.3696510909295312e-02 -3.7938109316421532e-02  -4.3289609379179167e-02 -7.4374375347160793e-02 -3.6927249135448897e-02  -3.9889038784658472e-02 -7.2038473459176799e-02 -3.0370820020248761e-02  -4.2218179663354394e-02 -7.1635183484746998e-02 -3.2711682347632637e-02  -4.3231786761973798e-02 -7.4380978767853170e-02 -3.6762827766724147e-02  -3.9805640760192995e-02 -7.2011622210768386e-02 -3.0160482176039581e-02  -4.2055181163801927e-02 -7.1595756233576585e-02 -3.2527962075170780e-02  -4.3133794406059099e-02 -7.4446186889330038e-02 -3.6578089096350429e-02  -3.9697675778236671e-02 -7.2100662415566938e-02 -2.9893650352737312e-02  -4.1870617757840581e-02 -7.1668757350245971e-02 -3.2263071043421104e-02  -4.2992574023527838e-02 -7.5164613191678234e-02 -3.5756482448275971e-02  -3.9646056100196218e-02 -7.2664031770613466e-02 -2.9129779534603745e-02  -4.1723523997806905e-02 -7.2234891722922953e-02 -3.1491138332551419e-02  -4.2857909485303526e-02 -7.6477081120620821e-02 -3.4501655211992742e-02  -3.9638606967810477e-02 -7.3621983666707733e-02 -2.8122895980178496e-02  -4.1631511991660097e-02 -7.3213932627153436e-02 -3.0457675207103858e-02  -4.2707381733382122e-02 -7.8056729597537816e-02 -3.3157420347661559e-02  -3.9654610882805995e-02 -7.4820608178822981e-02 -2.7106441744101921e-02  -4.1549643813072912e-02 -7.4397941499561429e-02 -2.9401141346587611e-02  -5.7955053575670074e-02 -6.0017243285603442e-02 -3.9982948190625034e-02  -5.6036842102021214e-02 -6.1829623923162547e-02 -3.9097554651106509e-02  -5.8680156303229612e-02 -5.9360073548229322e-02 -4.1252133236625133e-02  -5.8298218392054915e-02 -5.9206646000507665e-02 -4.1219619534534006e-02  -5.5532009186062770e-02 -6.1384881419562914e-02 -3.8994295263496688e-02  -5.7535912060591547e-02 -5.9502837346202049e-02 -3.9989121452589184e-02  -5.8023990104230878e-02 -5.8923366094104868e-02 -4.1519661498870132e-02  -5.5121511571538231e-02 -6.0990457395962872e-02 -3.9144473706247004e-02  -5.6731165365426800e-02 -6.1423886461045726e-02 -4.0607439905667064e-02  -5.6308060615050344e-02 -6.1332329973015978e-02 -4.0444048052352827e-02  -5.6016868303285026e-02 -6.1074388223080894e-02 -4.0662378428275081e-02  -5.5651853312482520e-02 -6.0897857574447024e-02 -4.0820761669358385e-02  -4.0889464485068611e-02 -7.3960040113469933e-02 -3.5178483258689101e-02  -4.0905605472403135e-02 -7.4572873994450756e-02 -3.4282914351042526e-02  -4.0883178786661999e-02 -7.4621469097044438e-02 -3.4113933136479119e-02  -4.0834879807865265e-02 -7.4753717362069691e-02 -3.3865093613973128e-02  -4.0776022801620175e-02 -7.5581767777814737e-02 -3.2939649833808704e-02  -4.0734648865273566e-02 -7.6914594763997701e-02 -3.1669394534155050e-02  -4.0689977313245154e-02 -7.8493363288952067e-02 -3.0291544277522810e-02  -4.6432981718791358e-02 -7.9523166190670638e-02 -5.2275194082796766e-02  -4.4714270972175021e-02 -7.8159740755510063e-02 -4.7392992968258683e-02  -4.2298121028291460e-02 -7.9706620423588920e-02 -4.8514593284659707e-02  -4.2442339397318764e-02 -8.0949941879844181e-02 -4.7646139112761665e-02  -4.4711174953779693e-02 -7.9323204786924104e-02 -4.6431588811268104e-02  -4.6434267164759555e-02 -8.0651203602353783e-02 -5.1602274733488836e-02  -4.4839991925118949e-02 -7.9394093814732072e-02 -4.6332048018650387e-02  -4.6607253500878534e-02 -8.0669249976371635e-02 -5.1605878950355198e-02  -4.2672223322689148e-02 -8.1046743078055400e-02 -4.7595752022998622e-02  -4.4984005846448509e-02 -7.9248611637487767e-02 -4.6386245208659055e-02  -4.6844241733633447e-02 -8.0330325661633034e-02 -5.1815709777603206e-02  -4.2934364809839684e-02 -8.0849390174712793e-02 -4.7731159245547695e-02  -4.5004414187538554e-02 -7.9860043122966309e-02 -4.5824459408215487e-02  -4.6965756756367959e-02 -8.0542712550929998e-02 -5.1583984138716177e-02  -4.3114664658594225e-02 -8.1326216037263768e-02 -4.7328222344493985e-02  -4.4856925796267773e-02 -8.1192363654096031e-02 -4.4587148593427953e-02  -4.6844472135171150e-02 -8.1369461548542923e-02 -5.0640755640710092e-02  -4.3123771170028524e-02 -8.2554944164430821e-02 -4.6188331210112864e-02  -4.6684118775388195e-02 -8.2445241375494180e-02 -4.9199949647161532e-02  -4.4692648872882559e-02 -8.2831716827952179e-02 -4.3018564607634195e-02  -4.3157837630305243e-02 -8.4035567540452702e-02 -4.4622824406105467e-02  -4.4345147709822556e-02 -8.0726180994966229e-02 -5.2913285693559652e-02  -4.4513045678235150e-02 -8.1754559550524811e-02 -5.2476886337265265e-02  -4.4785281364878859e-02 -8.1738301688207171e-02 -5.2559995542563041e-02  -5.4115105598714318e-02 -6.3423370467974846e-02 -3.8285625016322967e-02  -5.3653562048270619e-02 -6.3026560390873898e-02 -3.8081017103419462e-02  -5.3267395641364970e-02 -6.2644470927499835e-02 -3.8184034192549565e-02  -5.2886965350329607e-02 -6.2366070618962932e-02 -3.8346847130308226e-02  -5.4694022891474334e-02 -6.0704727315909063e-02 -3.9355106925651806e-02  -5.2505069142752228e-02 -6.2269226715082740e-02 -3.8427280703022620e-02  -5.5169405442105059e-02 -6.1030117688143162e-02 -4.0732347197929460e-02  -5.7795236461403214e-02 -7.4972927604072120e-02 -5.4715698108714128e-02  -5.6635900895130459e-02 -7.3481695410949635e-02 -5.0569683349132838e-02  -5.9057724106242319e-02 -7.2030161878122209e-02 -5.1621310540716961e-02  -5.9160963822093467e-02 -7.0016135166362736e-02 -5.3130200452700449e-02  -5.6885406357267868e-02 -7.1230833194821291e-02 -5.2284823717082721e-02  -5.7724404955212021e-02 -7.3794631267973171e-02 -5.5841109815435906e-02  -5.9334912476311515e-02 -6.8512598612541609e-02 -5.4042108689895396e-02  -5.7168699637906828e-02 -6.9640145555709479e-02 -5.3350615091587554e-02  -5.7794679801459678e-02 -7.2693562452151902e-02 -5.6548078174251067e-02  -5.9541425301262177e-02 -6.7216553996244960e-02 -5.4735178028605558e-02  -5.7439087808796543e-02 -6.8331722245617607e-02 -5.4144131472176886e-02  -5.7962432678902262e-02 -7.1639684529216485e-02 -5.7114572014286970e-02  -5.9584855874940411e-02 -6.5558141339411402e-02 -5.5621039901964112e-02  -5.7603914722499622e-02 -6.6597093625796189e-02 -5.5126787144726914e-02  -5.7961638368471596e-02 -7.0430386957111221e-02 -5.7753920609698341e-02  -5.9446870445108123e-02 -6.3039741783324735e-02 -5.6599680036972029e-02  -5.7618442629121809e-02 -6.3911108589447985e-02 -5.6281220331452324e-02  -5.7683005198850605e-02 -6.8693189778200187e-02 -5.8217285023392774e-02  -5.9238262972622573e-02 -5.9971399677959059e-02 -5.7286511722267022e-02  -5.7603780730712997e-02 -6.0601702556340495e-02 -5.7203884025097296e-02  -5.7272397212266297e-02 -6.6506156680409143e-02 -5.8251813116051959e-02  -5.4208098337439746e-02 -6.7997826819692200e-02 -4.4374966466168876e-02  -5.2138077894612930e-02 -6.9766599622924350e-02 -4.3704699023426004e-02  -5.5442471744565333e-02 -7.0348498777368887e-02 -4.8792027748848596e-02  -5.4929418411227109e-02 -7.1095742233001510e-02 -4.8107869337955959e-02  -5.1737997554071553e-02 -7.0255476842316769e-02 -4.3061663924699629e-02  -5.3800505835877199e-02 -6.8445197217886042e-02 -4.3801687974165268e-02  -5.4788062580902297e-02 -7.0890275142798595e-02 -4.8160210786835522e-02  -5.1549502665217725e-02 -7.0132711768664063e-02 -4.3113475023987984e-02  -5.3655857926067356e-02 -6.8232527498606158e-02 -4.3941528991355616e-02  -5.4682049132495400e-02 -7.0586964997850665e-02 -4.8326066100909448e-02  -5.1298918043510042e-02 -7.0076115994586144e-02 -4.3127916835131300e-02  -5.3472765392346078e-02 -6.8079868798152726e-02 -4.4069232110357411e-02  -5.4370532824801268e-02 -7.0969048417407060e-02 -4.7996117586702469e-02  -5.0902072251711110e-02 -7.0735758748076291e-02 -4.2542159287399343e-02  -5.3101009279473962e-02 -6.8635962387122731e-02 -4.3632467930835209e-02  -5.3794903195362301e-02 -7.1916165508974436e-02 -4.7209779342857895e-02  -5.0421245387547386e-02 -7.1874595899478325e-02 -4.1641046485705900e-02  -5.2586039396282862e-02 -6.9634839828440875e-02 -4.2914590943900391e-02  -5.3078926119042649e-02 -7.3194104132066687e-02 -4.6133513054490038e-02  -4.9855360765627965e-02 -7.3263667253720147e-02 -4.0607159080808704e-02  -5.1966416425843903e-02 -7.0927623773054574e-02 -4.2050766245800501e-02  -5.4520666283017521e-02 -6.3643495500355085e-02 -3.9925333491438439e-02  -5.4077516857700694e-02 -6.3576163425151766e-02 -3.9586981319043618e-02  -5.3770303640691540e-02 -6.3313804396234477e-02 -3.9683675305404328e-02  -5.3408612058059989e-02 -6.3141323613140191e-02 -3.9742223360093018e-02  -5.2970409478343763e-02 -6.3306125929843943e-02 -3.9525428397943006e-02  -5.2521200657370717e-02 -6.3771451303612642e-02 -3.9176977281922300e-02  -5.2162269013454499e-02 -6.2379101600574645e-02 -3.8468301006172247e-02  -5.4714103254278688e-02 -6.1444136736835547e-02 -4.0527963526543101e-02  -5.2063462005667527e-02 -6.4414446547062409e-02 -3.8878927134297185e-02  -5.1845650699061566e-02 -6.2674210241715517e-02 -3.8608461370075814e-02  -5.4315451031051294e-02 -6.2036523004108696e-02 -4.0376329235839115e-02  -5.9908106762493897e-02 -6.1319365142087301e-02 -4.4967552610997288e-02  -5.9494963313857355e-02 -6.1428359861558673e-02 -4.4515712030039158e-02  -5.9379274217144722e-02 -6.0975280579991110e-02 -4.4676848614059204e-02  -5.9216639332008103e-02 -6.0604050316390462e-02 -4.4855978684896644e-02  -5.5409834447019364e-02 -7.6984042741228151e-02 -5.4927826510642666e-02  -5.5418458621648840e-02 -7.5907079076090858e-02 -5.6075792762955594e-02  -5.5551000916614544e-02 -7.4861169898554986e-02 -5.6825327469520112e-02  -5.5757336724946656e-02 -7.3848247148811511e-02 -5.7414324769080427e-02  -5.5887644248759145e-02 -7.2688023621196765e-02 -5.8030314918880846e-02  -5.5716975882493247e-02 -7.1043950223219535e-02 -5.8464575861046301e-02  -5.5475742139251202e-02 -6.8923598908231617e-02 -5.8464440062740861e-02  -5.2398970629144385e-02 -7.2388873598860107e-02 -4.7436439504928152e-02  -5.1986259573387476e-02 -7.3205803698286484e-02 -4.6670501436707014e-02  -5.1846653770894896e-02 -7.3108179467489029e-02 -4.6681042451631322e-02  -5.1715851125577729e-02 -7.2931836684834522e-02 -4.6771020262333526e-02  -5.1406988044926154e-02 -7.3501645519821829e-02 -4.6278832685014377e-02  -5.0919080903357200e-02 -7.4616623494516490e-02 -4.5329562157776983e-02  -5.0315436476395276e-02 -7.6055860454024016e-02 -4.4133133730947675e-02  -5.4741508133198225e-02 -6.7444434124423192e-02 -3.6029417439602501e-02  -5.2661575947980190e-02 -6.8306912523537322e-02 -3.4955826253733002e-02  -5.4284722473876716e-02 -6.4997611021336346e-02 -3.6485957631275968e-02  -5.2343309062166991e-02 -6.7704940540833744e-02 -3.5707468741303566e-02  -5.4354164427219340e-02 -6.6877184057351088e-02 -3.6909633909277262e-02  -5.3882522763809573e-02 -6.4399002187791141e-02 -3.7014452480649655e-02  -5.1822197187420788e-02 -6.7320618808532226e-02 -3.6074258251878030e-02  -5.3774068079054271e-02 -6.6516808260344368e-02 -3.7360598088847563e-02  -5.3334381701304320e-02 -6.4058412607802415e-02 -3.7321205530370619e-02  -5.1357980406965001e-02 -6.6995864966964289e-02 -3.6561824021070735e-02  -5.2837860229376032e-02 -6.3780203330825194e-02 -3.7758664831787414e-02  -5.1982607448579056e-02 -6.4642100823597545e-02 -3.7071404983417239e-02  -5.1538946140398556e-02 -6.4421405955955330e-02 -3.6883580784084678e-02  -5.1164916664244275e-02 -6.4161182332179004e-02 -3.6987967504585682e-02  -5.0802005033812374e-02 -6.3973207579344354e-02 -3.7103732856965541e-02  -5.0473832199370107e-02 -6.3986559700782819e-02 -3.7076646743184373e-02  -5.0165346346170626e-02 -6.4203003244412679e-02 -3.7019663230279450e-02  -4.9854709494952451e-02 -6.4572474193440005e-02 -3.7034208247226440e-02  -6.0141457310730895e-02 -7.2945138905959453e-02 -5.5030328134142291e-02  -6.1761476250430387e-02 -6.9896430044472005e-02 -5.2363985039164840e-02  -5.9896775396058227e-02 -7.1990618515741886e-02 -5.5941177904772647e-02  -6.1649584596831508e-02 -6.8133299383409396e-02 -5.3679012021551314e-02  -5.9863927079624492e-02 -7.0972471275479329e-02 -5.6531417117868833e-02  -6.1716052198268159e-02 -6.6739771891305755e-02 -5.4451330964480134e-02  -5.9979202467214221e-02 -6.9942291344570445e-02 -5.7014465656611793e-02  -6.1860359264712686e-02 -6.5496320579720879e-02 -5.5050356238021084e-02  -5.9980389397569486e-02 -6.8794474899122604e-02 -5.7540120198314872e-02  -6.1894734559168774e-02 -6.3955076828198384e-02 -5.5809991583286624e-02  -5.9519098210496009e-02 -6.7278716658445079e-02 -5.7894219928578475e-02  -6.1567594501825300e-02 -6.1718976573025587e-02 -5.6600589182501451e-02  -5.8946792991908636e-02 -6.5402123615350582e-02 -5.7795428592744703e-02  -6.1157557941540854e-02 -5.8988770364770841e-02 -5.7085892242407454e-02  -4.2035583543015266e-02 -7.7571822520574901e-02 -4.3532922994117887e-02  -4.2098639775604733e-02 -7.8777810477872592e-02 -4.2382725545663393e-02  -4.2239774014800689e-02 -7.8923224082999191e-02 -4.2226948652506098e-02  -4.2389107072930789e-02 -7.8899041321833494e-02 -4.2240906346849627e-02  -4.2449198181677097e-02 -7.9588096409647729e-02 -4.1653996843966028e-02  -4.2408078337366054e-02 -8.1098139510509648e-02 -4.0363805889435236e-02  -4.2358055946654344e-02 -8.2892906290872218e-02 -3.8800152419642790e-02  -5.2107044574742745e-02 -7.4677329821421931e-02 -5.0506089136832397e-02  -5.1277390076589054e-02 -7.6920330504802903e-02 -5.2856723645914198e-02  -5.4504892918871999e-02 -7.5460360727056724e-02 -5.4225321189300853e-02  -5.4061346514711624e-02 -7.6292546243560883e-02 -5.3759102773791839e-02  -5.0977821474869879e-02 -7.7939325491721986e-02 -5.2204837945142309e-02  -5.1739080014706992e-02 -7.5699303513220226e-02 -4.9717042866671217e-02  -5.3949217865243586e-02 -7.6148302807655804e-02 -5.3794667873519351e-02  -5.0961123997677611e-02 -7.7903037690182919e-02 -5.2190387766232714e-02  -5.1669301953355784e-02 -7.5660756827417755e-02 -4.9701559556774529e-02  -5.3968903897990333e-02 -7.5686110630506953e-02 -5.4004965528690614e-02  -5.1016714662372009e-02 -7.7542453850138235e-02 -5.2372037411894549e-02  -5.1650828608064824e-02 -7.5398026304028712e-02 -4.9860807733039532e-02  -5.3808410370016477e-02 -7.5642096162402139e-02 -5.3902727934455774e-02  -5.0912001194656602e-02 -7.7705208281029378e-02 -5.2144881518512425e-02  -5.1449754423671959e-02 -7.5750141416794911e-02 -4.9553362192661585e-02  -5.3300182265328427e-02 -7.6135214617167782e-02 -5.3161799552139663e-02  -5.0542067949857397e-02 -7.8487661763234157e-02 -5.1251728205485826e-02  -5.1015526906278010e-02 -7.6739284616420961e-02 -4.8631501507949045e-02  -5.2627573907529063e-02 -7.6797850556673444e-02 -5.1905703458966224e-02  -5.0046052993928378e-02 -7.9510873631187778e-02 -4.9858754541305068e-02  -5.0448941854950323e-02 -7.8025581000866248e-02 -4.7316131540418929e-02  -5.6892920243911502e-02 -6.3416308284993742e-02 -4.2980899914693775e-02  -5.6529810771835047e-02 -6.3521373993210464e-02 -4.2625516506223447e-02  -5.6389905414875825e-02 -6.3188086203397303e-02 -4.2831765921517675e-02  -5.6177513788783155e-02 -6.2948536968473912e-02 -4.3001843466530909e-02  -5.5776748546952915e-02 -6.3242360384235669e-02 -4.2742611411025103e-02  -5.8813704154149403e-02 -6.0765142794423466e-02 -4.4671854147869498e-02  -5.5297858312232627e-02 -6.3899153926448141e-02 -4.2303052661670761e-02  -3.9559215589794368e-02 -7.7725292258589762e-02 -4.0876960634377013e-02  -3.9651436113875643e-02 -7.8813503699697737e-02 -3.9844013164465251e-02  -3.9814407384729203e-02 -7.8953086599725400e-02 -3.9720696349854624e-02  -3.9984355175006724e-02 -7.8995782506805792e-02 -3.9676760880460307e-02  -4.0069708939516960e-02 -7.9851184350103993e-02 -3.8938706341434343e-02  -4.0132249065325774e-02 -8.1455440590079017e-02 -3.7565056250427359e-02  -4.0225483721094898e-02 -8.3349673415515774e-02 -3.5931066331345962e-02  -4.0116022697688929e-02 -7.5664130864178031e-02 -3.7231816564737896e-02  -4.0203741805519125e-02 -7.6525312137863580e-02 -3.6257657169792241e-02  -4.0297498385357650e-02 -7.6642968980028731e-02 -3.6150313664291771e-02  -4.0354787158339796e-02 -7.6790431849811255e-02 -3.5998862316806698e-02  -4.0354660748817266e-02 -7.7728276252966771e-02 -3.5101473893912563e-02  -4.0357381948435196e-02 -7.9263910857867950e-02 -3.3753388966850817e-02  -4.0386775052733692e-02 -8.1093147303633401e-02 -3.2230204479172429e-02  -4.5800639147264385e-02 -7.6386849030355947e-02 -4.5294597425748748e-02  -4.8016800256957863e-02 -7.8002656593086722e-02 -5.1144327303060309e-02  -4.7879833946324099e-02 -7.9193300700135166e-02 -5.0331275062905516e-02  -4.5706313170056391e-02 -7.7442321390108870e-02 -4.4302041151894005e-02  -4.7954066830977082e-02 -7.9248808503869048e-02 -5.0269943593287049e-02  -4.5746925811976341e-02 -7.7489531504235432e-02 -4.4186110570594191e-02  -4.8076866152121832e-02 -7.8972202503947153e-02 -5.0421820570606263e-02  -4.5770538464602488e-02 -7.7401313942631306e-02 -4.4171699124614348e-02  -4.8072873457578214e-02 -7.9269070829383656e-02 -5.0104580540633374e-02  -4.5683767889260880e-02 -7.8085902218508696e-02 -4.3502442389900170e-02  -4.7839932477979026e-02 -8.0288002278649837e-02 -4.9084181086310227e-02  -4.5475757334610574e-02 -7.9486246446249548e-02 -4.2248488292923395e-02  -4.7544445188144900e-02 -8.1588081224572395e-02 -4.7618471027752872e-02  -4.5231224770427167e-02 -8.1192740708179653e-02 -4.0741463499074357e-02  -5.4201341190505285e-02 -7.2888716982033544e-02 -4.7306896079169693e-02  -5.6866273996542260e-02 -6.8032004904223814e-02 -4.3732844862440050e-02  -5.7347354445388930e-02 -6.4871313136632761e-02 -4.5796774396562732e-02  -5.4676395533092705e-02 -7.0132365288582008e-02 -4.9300655121994587e-02  -5.5119635731739704e-02 -6.8318377700324812e-02 -5.0552417531032193e-02  -5.7742269533891923e-02 -6.2926068595696688e-02 -4.7080929833258227e-02  -5.5504289930054927e-02 -6.6848921912667184e-02 -5.1522375266128267e-02  -5.8049167262634399e-02 -6.1312803132228817e-02 -4.8134773710076587e-02  -5.6619349566120969e-02 -7.6391405631089940e-02 -5.6250134084613775e-02  -5.6414611200252228e-02 -7.5988711646915313e-02 -5.6899428226379799e-02  -5.6389939856612240e-02 -7.5268231341270489e-02 -5.7370680828586020e-02  -5.6492418313585965e-02 -7.4417038774282546e-02 -5.7811941260822383e-02  -5.6489073215287587e-02 -7.3586019985318482e-02 -5.8222474358092642e-02  -5.6119524263215599e-02 -7.2575162652694522e-02 -5.8252321986097949e-02  -5.5597678669909702e-02 -7.1284710937048468e-02 -5.7753868657893739e-02  -5.9081213477529072e-02 -6.8198907105777640e-02 -4.6350987022400515e-02  -5.9409415605608654e-02 -6.5328313912618632e-02 -4.8229579443282981e-02  -5.9704986308118081e-02 -6.3485661001895372e-02 -4.9369952507926661e-02  -5.9947320841977021e-02 -6.1953876006784550e-02 -5.0276935740406446e-02  -6.0091589955321711e-02 -5.9840064781597237e-02 -5.1496256684780667e-02  -6.0212675031270341e-02 -5.6603864220650064e-02 -5.3056715848933018e-02  -6.0315880548918392e-02 -5.2729129392626063e-02 -5.4522847772695525e-02  -6.1137780803274970e-02 -6.9682668587622287e-02 -5.4444537675855789e-02  -6.0289344484623794e-02 -7.2359438448200086e-02 -5.5836184887769522e-02  -6.3431264290693970e-02 -6.8698856594270052e-02 -5.5075835795814168e-02  -5.9758056233264745e-02 -7.2324355791113876e-02 -5.6032902676410430e-02  -6.0470500048562921e-02 -7.0006655127887077e-02 -5.4235165930351145e-02  -6.2841237968279437e-02 -6.8334671480893935e-02 -5.5408971337822785e-02  -5.9594998738764664e-02 -7.1721325299939548e-02 -5.6305143538860722e-02  -6.0284355784643862e-02 -6.9521116776325192e-02 -5.4380203953739770e-02  -6.2667258453548008e-02 -6.7545483488256189e-02 -5.5717157875528396e-02  -5.9653002944518980e-02 -7.0916684639842978e-02 -5.6624569371685328e-02  -6.0305839143809541e-02 -6.8809115424325912e-02 -5.4640639455086619e-02  -6.2744678637111168e-02 -6.6606790370621685e-02 -5.6040265382128071e-02  -5.9551557441838959e-02 -7.0267062335043443e-02 -5.6839471401273683e-02  -6.0145507335828886e-02 -6.842210157