<?xml version="1.0"?>
<VTKFile type="UnstructuredGrid"  version="0.1"  >
<UnstructuredGrid>
<Piece  NumberOfPoints="690" NumberOfCells="2907">
<Points>
<DataArray  type="Float64"  NumberOfComponents="3"  format="ascii">3.309510379629804 0.8863836409368193 2.616154815527406  3.444182813441553 0.9209586002677446 2.667203884134563  3.328980118271651 0.9521439490552337 2.762453947971372  3.332655598933088 0.8967213002316559 2.78851043660581  3.448401826589566 0.8642325253604897 2.690585360521831  3.31579258608076 0.8280953931305725 2.639930694748617  3.336298194938632 0.8413373348870876 2.81455400698196  3.452574480522336 0.80754298103268 2.713933865372631  3.322102618770432 0.7698559053450988 2.663701515376427  3.339910520426894 0.7859891466894402 2.840585789008104  3.456712043473359 0.750882338130715 2.737273256320213  3.328411795279227 0.7116554172552569 2.687465679565256  3.343493472723937 0.7306761786724061 2.866610772541831  3.46082049465365 0.6942531242978898 2.760607165345694  3.334688177644538 0.6534862464869524 2.711227281879887  3.347039831482192 0.6754069919168225 2.892629007199851  3.464900777326104 0.637659013888338 2.783938243179442  3.340883402761118 0.5953598670357796 2.734980830220038  3.350535924438287 0.6201925860512225 2.918629191040643  3.468950506189825 0.581140988175765 2.807258238499981  3.346915821363121 0.5372907205274948 2.758713401790215  3.924235845684834 1.054631281481423 2.896407026829799  4.042648438318679 1.018677187878864 2.80291522239478  4.029734928942861 1.086480894916666 2.944184107613537  4.033581811572337 1.035450523225623 2.970238407666375  4.047032421962647 0.9656749557324483 2.826341469258864  3.927785224865167 1.003016755565553 2.922148426255673  4.051363953183974 0.9126517322100309 2.849739858872248  3.931274572950194 0.9513885441188332 2.947865002805727  4.037379158528795 0.9844007145567089 2.996288118415261  3.934733035938298 0.8997583137470264 2.973563971174869  4.055670271107773 0.8596259161615664 2.873116196267135  4.041152961911114 0.9333442221346975 3.022328649986522  3.938187963156937 0.8481354506971741 2.999251581215874  4.059975242076549 0.8066091746322046 2.896482761900796  4.044926575598378 0.8822876213032286 3.048360405467668  3.941666559112415 0.7965275955183193 3.024937364180309  4.064300864416618 0.7536103722465325 2.919855050203848  4.048724443084279 0.8312334234966833 3.074387343770027  3.945198747483074 0.744940545759847 3.050637823756019  4.068665734873053 0.700631522291109 2.943250376855835  4.052569985463395 0.7801836234384977 3.100417422232893  3.917567988818408 0.9895243592666594 2.76171074308338  3.922087497822786 0.9358718841143401 2.785146459244783  3.92654870632354 0.882200515798256 2.808540423514554  3.93097958570269 0.8285328957924153 2.831906957783342  3.935404964659423 0.7748816737466495 2.855261291474537  3.939847456323109 0.7212572559917418 2.878621369185009  3.944327511688839 0.6676594158387426 2.90201591724711  4.358478989280089 1.037284436718629 2.781353379484818  4.45230853778671 1.012400541590513 2.694290892315442  4.482284864998666 1.061905086215139 2.803104333200595  4.488601521213908 1.009480065210504 2.827862910145921  4.458541324074151 0.9568999751694327 2.713115379807013  4.363993185928181 0.9838375751784043 2.80413536624355  4.494947324322871 0.9570407877874865 2.852621502195785  4.464766785520603 0.9013826952036632 2.731914799427259  4.369487779399154 0.930373341240925 2.826899694305932  4.501308089077008 0.9045966431727638 2.877373319137379  4.470992650372068 0.8458677293861886 2.750704190563797  4.37497844968242 0.8769042331264161 2.849654950570768  4.477227408071798 0.7903615550608907 2.769487046624896  4.380477006225024 0.823438096001991 2.872403257802603  4.507673869629074 0.8521489698351448 2.902119536735071  4.483481045986071 0.7348668028986112 2.788268568055393  4.38599852936984 0.7699798820078559 2.895151403162465  4.514035553789819 0.7996978418786478 2.926865924930304  4.489751262828892 0.6793824297213956 2.807063911788437  4.391553746001064 0.716532185809617 2.917909467565603  4.520400245184372 0.7472433179061417 2.951627041262305  3.724370281775525 1.141282247703243 3.082711101866201  3.704081063170253 1.062356391008062 2.939199219735253  3.822384560095361 1.099806315808445 2.996032815519053  3.825412925076121 1.048949271364176 3.022795826828248  3.706968123709886 1.010837563877719 2.965983619177339  3.727026573158672 1.090783709578263 3.11052177784317  3.828381211514174 0.998084081419947 3.049547488054737  3.709793118079762 0.9593178684287758 2.992743592239803  3.729626638310848 1.040286956174908 3.138328061300475  3.831318955925492 0.9472196760542815 3.076287791341103  3.712585328409843 0.9078059984942044 3.019486152181014  3.732197460056686 0.9897968318171553 3.166126471285223  3.834251381274478 0.8963607685127712 3.103016720772792  3.715368143289176 0.8563072981058725 3.046215939620422  3.734762684313446 0.9393140643211506 3.193912245902549  3.83720413045812 0.8455098597451265 3.129737529124846  3.71816431234493 0.8048280998907978 3.072938506229869  3.737346177189691 0.8888375756289735 3.221682754786094  3.840206750118762 0.7946704576098146 3.156458887749065  3.721000676927003 0.7533737561695364 3.099668376551995  3.739976271795561 0.838365213967119 3.249438154501159  4.762363583659877 0.9703050156166292 2.944825035751215  4.643090298474503 1.011367778834664 3.040521206961898  4.759490979121514 1.057029317258872 3.083514899565206  4.754476736095483 1.02168411383308 2.917544750416081  4.635371061541396 1.061082099096599 3.011842678134058  4.7677762895573 1.007928205051527 3.113117387346341  4.770251871723918 0.9189382919576861 2.972087006599022  4.650812045528995 0.9616553729217374 3.069185366219412  4.776033004907151 0.9588249291676859 3.142692610434723  4.778119940973102 0.8675761143008115 2.999323010154519  4.658507971151066 0.9119348429175518 3.097826530494713  4.784206689896867 0.9097053583962994 3.172231577785116  4.785942263038891 0.8161982332003074 3.026530579640188  4.666147499098888 0.8621891068688934 3.126441779065658  4.137736868299912 1.200750625573459 3.135114800901515  4.287913783264488 1.20209767088271 3.109051265978291  4.22546650749129 1.255571698876552 3.216201860785723  4.231185913849072 1.205509273462248 3.244669836942566  4.29397104361812 1.15242760139899 3.137209231498668  4.14262298236633 1.151025211698596 3.163157979845545  4.236926476199165 1.155453581686469 3.273172792182846  4.300058128805672 1.102760928704073 3.165395518008507  4.147501212775381 1.101297249261398 3.191224171550169  4.242677289254162 1.105401548713315 3.301684310833085  4.30615874486836 1.053095579670245 3.193587017259085  4.152376734440038 1.05156739642834 3.219295143872087  4.248432207687943 1.055345514983224 3.33018255294589  4.312262951595291 1.00342561472212 3.221767050697633  4.157254500756716 1.0018311656913 3.247356224605042  4.254188143677931 1.005269665797042 3.358648687049953  4.318363976477279 0.9537383086834658 3.2499232653009  4.162142442250625 0.9520767676890842 3.275396506146232  4.25994685037735 0.9551482688653163 3.387064154328932  4.32445514703814 0.9040093862604848 3.278050873265845  4.167055994865598 0.9022841306358167 3.303409093266272  3.941588661381654 0.9167360710210328 2.568195725536975  4.088862143217334 0.9245686554824872 2.537024085209219  4.03237790027634 0.9614265938514031 2.662344149622375  4.037857095795284 0.9063884705782752 2.6831250641046  4.095645075070387 0.8667323708316648 2.551645723684627  3.945364566859413 0.8587781537432218 2.584851726457746  4.043300844057111 0.8513283607881382 2.703863968774311  4.102407595123254 0.8088793318332486 2.566197893123395  3.949004186005608 0.800807046584375 2.60144398270229  4.048718874015774 0.7962635071881294 2.724572379763909  4.109146243744094 0.751037496008057 2.580712207655337  3.952588561991934 0.7428586082220593 2.618000964449795  4.054134353105805 0.7412103502937595 2.745272543744009  4.115882812685245 0.6932220244278235 2.595219732844341  3.95617039147293 0.6849491753801771 2.634551393606532  4.059569245256252 0.6861800248328225 2.765989359049703  4.122635344066843 0.6354402170955442 2.609751523989371  3.959806702471461 0.6270918348474671 2.651121223193693  4.065026716377806 0.6311780230300823 2.786747730819902  4.129381122430184 0.5776768683890569 2.624345827503171  3.963570636040821 0.569253310956303 2.667729703449309  3.667890517290364 1.286012700114159 3.336845682327847  3.689021067269632 1.204646334640682 3.199233445796956  3.796542165765982 1.254605961568233 3.276752939016434  3.799163193883683 1.204443445029148 3.306537029310333  3.691288213873551 1.154452889950513 3.228350779436088  3.669595399091188 1.235947406031969 3.368116173000553  3.801738509335531 1.154299190726291 3.33634682568411  3.693504045175662 1.104272400758992 3.2574786242005  3.67125613210416 1.185912971112546 3.399413376107102  3.804295020275744 1.104169195105931 3.366159796651127  3.695696470780669 1.054104847246387 3.286603314233156  4.292653292537628 0.9749842965080374 2.633149409972105  4.298576579153531 0.9186769382165118 2.650629734125331  4.304481087893846 0.8623579389780256 2.66806378445131  4.310379249636408 0.8060485755591003 2.685475755705099  4.316277990826348 0.7497587444657061 2.702880772830391  4.32218490118195 0.6934975182801082 2.720294580127059  4.328111975146074 0.6372648982440494 2.737737538189458  4.278337054901694 1.123570351038738 2.97057831477167  4.404503696424277 1.159546685563061 3.007709487609453  4.411192103257672 1.109822684769237 3.035592446129314  4.284157515164271 1.073660968681541 2.998330772903902  4.417928091595045 1.060103266277704 3.06350041059431  4.289996147226146 1.023738334645553 3.026094680552705  4.424685289128172 1.01038579859974 3.091412174016851  4.295841819051827 0.9738080657261473 3.053858890492261  4.431446385906967 0.9606634405144447 3.119313784775415  4.301690825261067 0.9238704936486156 3.081614882041586  4.438197251192473 0.9109250867601959 3.147197044643827  4.307542552162428 0.8739193899428572 3.10936
[...]
<PointData  Vectors="f_24"> 
<DataArray  type="Float64"  Name="f_24"  NumberOfComponents="3" format="ascii">1.3076978032320252e-02 -4.0228358286238095e-02 2.6294478095897494e-03  1.2202607805715717e-02 -4.4004054153046118e-02 5.3669790154872834e-03  1.2789887938427984e-02 -4.3979737305810701e-02 6.4929881974824686e-03  1.1437635612441393e-02 -4.4042452011264152e-02 5.5534129919719878e-03  1.1071430353653716e-02 -4.4037034573749370e-02 4.2365272180909458e-03  1.1854322660957413e-02 -4.0201092884096790e-02 1.6735656359448460e-03  1.0142865746118319e-02 -4.3772692038694133e-02 5.3274005264017169e-03  9.9390261679464728e-03 -4.3817382335138634e-02 3.9670811974702770e-03  1.0632651011027205e-02 -3.9968016526189358e-02 1.5337082288842041e-03  8.8455009692480283e-03 -4.3451810120670092e-02 5.2064324165114612e-03  8.7768370879809550e-03 -4.3603579938419817e-02 3.7750162096277635e-03  9.3877590801295721e-03 -3.9780590054012653e-02 1.4165889613699347e-03  7.4973443006618196e-03 -4.3296408628113597e-02 4.6813657579927058e-03  7.5941222617289719e-03 -4.3565702941214278e-02 3.1278352184941132e-03  8.1335334908072404e-03 -3.9797097216285771e-02 8.4244983459207513e-04  6.0705654963651521e-03 -4.3243703153523626e-02 3.6604856946887213e-03  6.3769431501784326e-03 -4.3663258776188721e-02 2.0113979975444202e-03  6.8527390075135653e-03 -3.9959652214962178e-02 -1.2614108558048424e-04  4.6082237195109879e-03 -4.3232790084631677e-02 2.3489260806275588e-03  5.1617127198689515e-03 -4.3852667219879356e-02 6.1142093904882557e-04  5.5712353999695383e-03 -4.0267736891672949e-02 -1.3549498945184160e-03  1.0253124470725825e-02 -5.8952500183874684e-02 1.4109802426743307e-02  9.6466566611311255e-03 -5.9008033788589744e-02 1.3045883869900228e-02  1.0275288539739226e-02 -6.2071845312024754e-02 1.5713766526123940e-02  8.9781799255272687e-03 -6.2133598529265505e-02 1.4979503001690587e-02  8.4957551799726676e-03 -5.9090940735042605e-02 1.1808780168350649e-02  9.0292794098330662e-03 -5.9027936961942071e-02 1.3199923987455132e-02  7.4383774699460737e-03 -5.8864843190712265e-02 1.1392989507264362e-02  7.8986743350826592e-03 -5.8744608362155067e-02 1.2976894407434150e-02  7.7724737006118630e-03 -6.1818208421257181e-02 1.4806155539042774e-02  6.7848039808814358e-03 -5.8362408514710098e-02 1.2920952166498809e-02  6.3662042288486383e-03 -5.8606817585571895e-02 1.1110994494535524e-02  6.6104409598016431e-03 -6.1384831121485232e-02 1.4807822020830294e-02  5.6373646785976188e-03 -5.8111116176267547e-02 1.2496278738794818e-02  5.2469551301077468e-03 -5.8529027264255587e-02 1.0354629693698327e-02  5.4134929575609244e-03 -6.1048384195884237e-02 1.4508456897988608e-02  4.4065088744511122e-03 -5.7892898877090281e-02 1.1508676305292070e-02  4.0639245300055958e-03 -5.8551723905188764e-02 8.9962652320346153e-03  4.1231374668876507e-03 -6.0709445302214317e-02 1.3670481679896852e-02  3.1645128033632019e-03 -5.7631475564545134e-02 1.0226748710044626e-02  2.8590773400325167e-03 -5.8619467736984704e-02 7.3678710114612649e-03  2.8128604832518109e-03 -6.0287854392365330e-02 1.2555148661021814e-02  9.6963676827721175e-03 -5.5291280973836114e-02 1.0947834776320151e-02  8.6396435971990062e-03 -5.5325401843222689e-02 9.7476024857195438e-03  7.6617014835914333e-03 -5.5114043725865952e-02 9.4101855271528801e-03  6.6496154778528738e-03 -5.4900644611920277e-02 9.1398192728865315e-03  5.5879785797221309e-03 -5.4891807210730788e-02 8.3339812840776094e-03  4.4687465268490774e-03 -5.4987305732501796e-02 6.9725671094987927e-03  3.3348618773608326e-03 -5.5166713338466261e-02 5.3268139005034458e-03  9.2460294128732991e-03 -6.4924202854356530e-02 1.5326570895038416e-02  8.7293032373883892e-03 -6.3758354140212609e-02 1.3734762785953843e-02  9.3263194703124344e-03 -6.8539328681136602e-02 1.7146712404824110e-02  8.0334384647816996e-03 -6.8858506680499323e-02 1.5675222629264362e-02  7.5635453909783639e-03 -6.3822395689627595e-02 1.2197287409292289e-02  8.0042656025812349e-03 -6.5109875881573714e-02 1.3857523122168708e-02  6.8610778356331488e-03 -6.8820926947568459e-02 1.5074601399021049e-02  6.5108925898551126e-03 -6.3709859392887008e-02 1.1479565396958873e-02  6.8611653469943445e-03 -6.4998764118976954e-02 1.3247532411089011e-02  5.6865334216275399e-03 -6.8702865149563669e-02 1.4623938199710902e-02  5.4163476986160896e-03 -6.3597637602844578e-02 1.0786545406491691e-02  5.7063208482845225e-03 -6.4838469476953889e-02 1.2765477081038343e-02  4.2519885471228357e-03 -6.3662735352871758e-02 9.5369079494277646e-03  4.4899868588866316e-03 -6.4858847243760107e-02 1.1760564435300647e-02  4.4626908540306796e-03 -6.8765307507931861e-02 1.3632553340412693e-02  3.0504575863224193e-03 -6.3835754201016212e-02 7.7410608600527644e-03  3.2207965654223718e-03 -6.4978980577759984e-02 1.0170658656497328e-02  3.1544042556461861e-03 -6.8901517157169551e-02 1.2062372252458490e-02  1.7950238677913095e-03 -6.4103048061056017e-02 5.7417132846121583e-03  1.9114886157126816e-03 -6.5142249565570493e-02 8.3261950304076970e-03  1.8005686224961961e-03 -6.9100355543315076e-02 1.0174117579353339e-02  1.1262377249708320e-02 -5.6226342339652971e-02 1.4074628526618994e-02  1.1068161081353778e-02 -5.5072561796719335e-02 1.3117244603396534e-02  1.0857209635131801e-02 -5.8228549922748153e-02 1.4601845411524650e-02  9.5494959407889154e-03 -5.8164036273438011e-02 1.4256118952122036e-02  9.7978247467746474e-03 -5.5093106680267644e-02 1.2519462336993071e-02  9.8904052844721209e-03 -5.5908277405425227e-02 1.4294385377055883e-02  8.3166487179533212e-03 -5.7765477878586879e-02 1.4273597373175474e-02  8.5932848464510773e-03 -5.4761594858884030e-02 1.2418413347759732e-02  8.6006571671801424e-03 -5.5342908994937268e-02 1.4608666931389607e-02  7.1372991018537266e-03 -5.7239972680070979e-02 1.4427903315177720e-02  7.4258916879569705e-03 -5.4312781655612971e-02 1.2469547992456222e-02  7.3731961282557613e-03 -5.4671552832438720e-02 1.4973481890289592e-02  5.9396697832799971e-03 -5.6761868237318706e-02 1.4370464246330462e-02  6.2308932683650137e-03 -5.3953014221579859e-02 1.2232809775793623e-02  6.1183797673116918e-03 -5.3985577437709611e-02 1.5253893140610257e-02  4.6376775511298386e-03 -5.6200170365633240e-02 1.3848929835769106e-02  4.9433199047157622e-03 -5.3537648839329752e-02 1.1498785743610768e-02  4.7530947760291145e-03 -5.3093097524369200e-02 1.5222040924788115e-02  3.3262666100810079e-03 -5.5482755994521495e-02 1.3066133126985168e-02  3.6466035869902815e-03 -5.3024554503832283e-02 1.0470161954047657e-02  3.3623328235097248e-03 -5.1961605957781258e-02 1.4992585423647049e-02  6.0578719896864346e-03 -7.7295420731950823e-02 1.9148938399694247e-02  6.4871631379578168e-03 -7.6700727890351386e-02 2.0808463408966239e-02  6.9393038880130051e-03 -8.0555480654146000e-02 2.3222528717267321e-02  7.2378289537025006e-03 -7.7446042236329005e-02 1.9536043637583773e-02  7.7699459715732519e-03 -7.6987209804496665e-02 2.0881586982972128e-02  5.6432845393909106e-03 -8.0259756305095770e-02 2.2984155191241258e-02  4.8236783774877612e-03 -7.7321986046352320e-02 1.8200179633683634e-02  5.1636284526181105e-03 -7.6517212345229055e-02 2.0352232644458918e-02  4.1925600565135166e-03 -7.9776124903244539e-02 2.2216468543193906e-02  3.5046001305211543e-03 -7.7384732256349523e-02 1.6606997472055723e-02  3.7137492179085121e-03 -7.6228354986043620e-02 1.9338316478195797e-02  2.6236874157732622e-03 -7.9126256734708231e-02 2.0951045301352497e-02  2.1001872908197909e-03 -7.7467601837224440e-02 1.4622400433073111e-02  2.1620978418072684e-03 -7.5860664549886325e-02 1.7878238925794907e-02  1.0961277923903525e-02 -6.5534304323764808e-02 1.7327773629504606e-02  1.1070668788621944e-02 -6.9500561883912348e-02 1.9026646814635225e-02  1.1113294033147907e-02 -6.6484015131485719e-02 1.7157074175225349e-02  9.4902920674152912e-03 -6.5745241809642724e-02 1.8285804524064236e-02  9.4727500920481159e-03 -6.9272350153423354e-02 1.9298313428689536e-02  9.4348956451034850e-03 -6.5125955106879269e-02 1.7827217218672916e-02  8.0150546268500638e-03 -6.4911850702266335e-02 1.9161829747287015e-02  8.0119939075410374e-03 -6.8754915095472408e-02 1.9662780617404365e-02  8.0281537176328278e-03 -6.4494663721935866e-02 1.8324032876879150e-02  6.6400765666281879e-03 -6.4033320951115358e-02 1.9934612837111201e-02  6.6553113790292157e-03 -6.8103133564036744e-02 2.0078765786937576e-02  6.7133013060411582e-03 -6.3760177589768319e-02 1.8836108210451036e-02  5.2293401093537325e-03 -6.3041151811179225e-02 2.0770103745800121e-02  5.2717304313390501e-03 -6.7421241652191891e-02 2.0419918758991660e-02  5.3881444908946636e-03 -6.2982669178584472e-02 1.9307942415054763e-02  3.6571187223264643e-03 -6.1645487515718973e-02 2.1585111452250297e-02  3.7359198105611862e-03 -6.6474606714709339e-02 2.0467480064193456e-02  3.9135590829737629e-03 -6.1928301091205985e-02 1.9562800058390017e-02  1.9978470014218115e-03 -5.9914576743929200e-02 2.2311130196343707e-02  2.1083367476652580e-03 -6.5263006686367087e-02 2.0284519234208900e-02  2.3741049500787697e-03 -6.0586371314568281e-02 1.9634723821470790e-02  9.1837496187878245e-03 -4.8846001513725500e-02 5.6497670809255692e-03  9.0673940263894942e-03 -5.0486409793307124e-02 6.2762928768232860e-03  9.2821955281912789e-03 -5.4195396919823821e-02 9.3203850804479214e-03  8.2475160968716842e-03 -5.4182383935835111e-02 7.9766454659064585e-03  8.0643534155160502e-03 -5.0277076076287022e-02 5.1482708459471265e-03  8.3568635663493224e-03 -4.8667046967761793e-02 4.6307320120810413e-03  7.3064042770384337e-03 -5.3989718588815350e-02 7.5441451362178785e-03  7.1870896470194153e-03 -5.0102568368687012e-02 4.7337346768482119e-03  7.5594538407256816e-03 -4.8469921069176733e-02 4.3298135609400575e-03  6.3272567438275584e-03 -5.3866823050282647e-02 7.1245651464332356e-03  6.2665430110290399e-03 -5.0038293921649567e-02 4.1722263297046059e-03  6.6822911996102441e-03 -4.8368180306081955e-02 3.8558064824860761e-03  5.2920268532210581e-03 -5.3958067032153834e-02 6.1379110049417616e-03  5.2949315365532828e-03 -5.0163412970677078e-02 3.0562285327192292e-03  5.7573430746136909e-03 -4.8474404661301318e-02 2.7866925200593778e-03  4.2110925775878608e-03 -5.4179705677660547e-02 4.6354381713220342e-03  4.2868336934890660e-03 -5.0439481243604395e-02 1.5678630939441401e-03  4.7889174069587395e-03 -4.8723350253632690e-02 1.3289204996396306e-03  3.1036189572947147e-03 -5.4547303015858598e-02 2.8536338901749567e-03  3.2332166434394633e-03 -5.0897236288639375e-02 -1.2364348155274600e-04  3.8052559555770129e-03 -4.9138126096329955e-02 -3.5185170416017557e-04  1.1178057533128493e-02 -4.8842551578967545e-02 1.0116424970851429e-02  1.1307746049626272e-02 -5.3863832349045820e-02 1.2878047948682666e-02  1.1012476535475112e-02 -5.4188220829067435e-02 1.2418105710325235e-02  9.6075267167780795e-03 -5.3055575901496503e-02 1.3866204484432156e-02  9.9112915608618544e-03 -5.3087758673960782e-02 1.3853141979362773e-02  9.8189414001199852e-03 -4.7417344356741699e-02 1.1799760472457106e-02  8.3257789119563115e-03 -5.1993513013511662e-02 1.4910636205156865e-02  8.6181594789386702e-03 -5.2233275598449633e-02 1.4603666758101614e-02  8.5782446328041412e-03 -4.6186383722846079e-02 1.2980455964819337e-02  7.0848287798886550e-03 -5.0941872409812718e-02 1.5809662821874470e-02  7.3776905831658864e-03 -5.1336154563787435e-02 1.5273528549331060e-02  8.8359976484735717e-03 -5.8078529474759881e-02 1.0714501845800537e-02  7.7274639125098805e-03 -5.8045113590652619e-02 9.2727032629186367e-03  6.7178564646306798e-03 -5.7904996862302063e-02 8.6264139405143238e-03  5.6724956817381387e-03 -5.7810995220394110e-02 7.9650871374950336e-03  4.5799031935725484e-03 -5.7898569492634673e-02 6.7481760788280073e-03  3.4265380261266545e-03 -5.8094833016721713e-02 5.0683012600084070e-03  2.2403625652533095e-03 -5.8417290297649603e-02 3.1687782463643674e-03  1.0396016996211042e-02 -6.8225509495786166e-02 1.8430420555705613e-02  1.0761017367503480e-02 -7.1964227427309152e-02 2.0176532529090845e-02  9.2218739105765900e-03 -7.2130805952396904e-02 1.9675099437881254e-02  8.9538305204207060e-03 -6.8377877333939976e-02 1.7737660825855102e-02  7.8127642175587052e-03 -7.1888785843745168e-02 1.9590036004909418e-02  7.6298199623813321e-03 -6.8136335116218208e-02 1.7571039755064886e-02  6.4902459314638257e-03 -7.1464745563441651e-02 1.9681214137037453e-02  6.3699237509276885e-03 -6.7741307056694566e-02 1.7602951871559205e-02  5.1424344869566013e-03 -7.1089290641899588e-02 1.9533471758983099e-02  5.0807129923170517e-03 -6.7442038547241151e-02 1.7328222087003485e-02  3.6491641517418885e-03 -7.0593457766253129e-02 1.8893327106466243e-02  3.6641507231422762e-03 -6.7061131147478512e-02 1.6567902259445252e-02  2.0708327907567907e-03 -6.9945599893183941e-02 1.7921578517096096e-02  2.1931508844949465e-03 -6.6584622427522736e-02 1.5455213413641958e-02  1.0417244266724017e-02 -5.5246136060365887e-02 1.2156454366139734e-02  9.2674279547779910e-03 -5.5341132853295505e-02 1.1145804350741145e-02  8.1926191106548064e-03 -5.5092145210765518e-02 1.0896267056941317e-02  7.1158836017016433e-03 -5.4773112089594150e-02 1.0793357492675803e-02  6.0019533330641240e-03 -5.4609380194836299e-02 1.0267731866015638e-02  4.8120705137334411e-03 -5.4487759181459303e-02 9.1752309080015432e-03  3.6212249683513372e-03 -5.4366491619194574e-02 7.7615977127702537e-03  1.0715896123574344e-02 -6.6864013036145656e-02 1.8030659031650305e-02  9.2504113527894036e-03 -6.6781519276419579e-02 1.7883573221224195e-02  7.8840612104426819e-03 -6.6372734639508185e-02 1.8005830306276813e-02  6.6033242567460244e-03 -6.5812552603615973e-02 1.8258098321770295e-02  5.3155272536591245e-03 -6.5278533862080046e-02 1.8332594821522007e-02  3.8741793475584227e-03 -6.4588125336715180e-02 1.8025339215686397e-02  2.3864843867015023e-03 -6.3721929882704337e-02 1.7426777568071261e-02  1.0926823792086253e-02 -6.1892343441788886e-02 1.5222897083277122e-02  1.0927445986015201e-02 -6.1437545967176196e-02 1.5803111048042266e-02  9.4939285193921703e-03 -6.0972359536785516e-02 1.6338796801899487e-02  9.3984139442975650e-03 -6.0947977190629062e-02 1.6558763390714378e-02  8.1512803686712380e-03 -6.0304336918200842e-02 1.6859582464904693e-02  8.0016293090501775e-03 -5.9998837721425911e-02 1.7557668487574323e-02  6.8863127534015082e-03 -5.9544368717355266e-02 1.7382677368816345e-02  6.6870612777271236e-03 -5.9038075221969875e-02 1.8422146357938218e-02  5.6062203214102277e-03 -5.8730948965126976e-02 1.7874520840222619e-02  5.3162593403817283e-03 -5.7933802350029130e-02 1.9409498351747420e-02  4.2001317123332603e-03 -5.7647080868541305e-02 1.8166770462925287e-02  3.8130594890434734e-03 -5.6433440525531918e-02 2.0420791678943787e-02  2.7483744882928034e-03 -5.6296195882160734e-02 1.8288389122915135e-02  2.2350987877555284e-03 -5.4593865738744279e-02 2.1419640230249452e-02  1.1089477521555801e-02 -5.7592901041830707e-02 1.4264092508252122e-02  1.0929111045342501e-02 -5.8329869309247988e-02 1.3951458711430297e-02  9.4677999894998126e-03 -5.7328462103173064e-02 1.5298937059990305e-02  9.6733574704509651e-03 -5.6945308998555121e-02 1.5096980320815124e-02  8.1364613798984107e-03 -5.6348854030652186e-02 1.6295739386277871e-02  8.3628459769061400e-03 -5.6169641785069613e-02 1.5774417432625226e-02  6.8651743214117140e-03 -5.5368353581192936e-02 1.7155815203437789e-02  7.1175944105619027e-03 -5.5332490857323287e-02 1.6401455735098453e-02  5.5460040701155091e-03 -5.4247920021604862e-02 1.8134490661825119e-02  5.8410028416324630e-03 -5.4411805182764089e-02 1.7047495215229802e-02  4.0971903959647676e-03 -5.2737249804611239e-02 1.9154167415349952e-02  4.4470211655982788e-03 -5.3188687617661531e-02 1.7570842609503774e-02  2.6109957671528769e-03 -5.0904910620047136e-02 2.0157728338497861e-02  3.0252298058803619e-03 -5.1673215316747012e-02 1.7993355884423978e-02  8.1080268412423474e-03 -7.2397859429694345e-02 1.7379547734190058e-02  7.5549516674891792e-03 -7.0240177368054768e-02 1.5240719139174764e-02  8.4425130005520103e-03 -7.7419407758976808e-02 2.0127020451652829e-02  6.9247050561144540e-03 -7.2393277958746366e-02 1.6756720474451266e-02  6.4950363755090276e-03 -7.0252878059110888e-02 1.4431076869413107e-02  5.7476072481196482e-03 -7.2282362969730785e-02 1.6315771696511154e-02  5.4141875922617934e-03 -7.0227903029808539e-02 1.3728286302571148e-02  4.5095949603426383e-03 -7.2358601234887451e-02 1.5323831605513479e-02  4.2680147416656348e-03 -7.0373616102511818e-02 1.2441856006031985e-02  3.1900382823079648e-03 -7.2493247410008343e-02 1.3692722857627748e-02  3.0650446340006426e-03 -7.0634059356393927e-02 1.0544504749383888e-02  1.8059755883494811e-03 -7.2669497221175897e-02 1.1714001221954521e-02  1.7867583542754877e-03 -7.0962908247446319e-02 8.3706683704006090e-03  9.1259339484550204e-03 -7.7055264616189306e-02 2.1191328485696190e-02  9.6442990150966412e-03 -6.2545258998002951e-02 1.4927960833358898e-02  9.3510483652790976e-03 -5.8855294679957468e-02 1.2305696845810156e-02  9.3048993948107554e-03 -6.1388124929522558e-02 1.3616516681689787e-02  8.1238506684422652e-03 -6.1489375021285445e-02 1.2102196248461448e-02  8.2211371376505141e-03 -5.8909448922909537e-02 1.0881635625524985e-02  8.4095518179254179e-03 -6.2660696567763574e-02 1.3713195706024178e-02  7.2788657813674090e-03 -6.2449577878434283e-02 1.3279883639742389e-02  7.1839412004614436e-03 -5.8722594021194015e-02 1.0335539309390006e-02  7.0368213838613624e-03 -6.1319135585577146e-02 1.1469643587320052e-02  6.1251985448879517e-03 -5.8530627533284064e-02 9.8987824234267364e-03  6.1447288809131908e-03 -6.2161800704815029e-02 1.2993404739668915e-02  5.9359197891408521e-03 -6.1128288375334974e-02 1.0984438422456173e-02  4.9611729918707234e-03 -6.2039402213262825e-02 1.2257866479745350e-02  5.0169368556328047e-03 -5.8518915558395730e-02 8.9749371468164623e-03  4.7868299214119557e-03 -6.1098861850391033e-02 1.0033522831822461e-02  3.7057842528447613e-03 -6.2012131653189390e-02 1.0921774093411959e-02  3.8495567974122240e-03 -5.8641733998417642e-02 7.4535070789833943e-03  3.5704706938764429e-03 -6.1207128164938368e-02 8.4639798089208521e-03  2.4330397652281271e-03 -6.1996034844847253e-02 9.3331410576982261e-03  2.6528274878666485e-03 -5.8829755329972151e-02 5.6782203790266324e-03  2.3276442619457739e-03 -6.1349541102377607e-02 6.6506988540382924e-03  1.1634163503427634e-02 -5.3300926638168690e-02 1.2943187922946292e-02  1.0259379520204561e-02 -5.3117601478816154e-02 1.2899907434210245e-02  8.9630839929212228e-03 -5.2645052745168577e-02 1.3053943936997322e-02  7.7257112018661771e-03 -5.2049862331990812e-02 1.3298462291436343e-02  6.4523267991928633e-03 -5.1466057775316869e-02 1.3395524495890104e-02  5.0567671680031723e-03 -5.0735920149235857e-02 1.3118057966984689e-02  3.6404159414566485e-03 -4.9802769221538541e-02 1.2607084386862028e-02  8.5367678423391904e-03 -5.9272750749497463e-02 1.0781661899566877e-02  7.4693817252706879e-03 -5.9126888918500063e-02 9.2808131381607178e-03  6.5224401039840323e-03 -5.8951019130150134e-02 8.5307111783614210e-03  5.5249988922675859e-03 -5.8837554699861634e-02 7.7534681075863482e-03  4.4640954123237589e-03 -5.8864574571619151e-02 6.4839810719938785e-03  3.3507748907169589e-03 -5.9008145190574970e-02 4.7479737196037325e-03  2.1782909018233910e-03 -5.9262952545675540e-02 2.8353630774790813e-03  1.1826229684031270e-02 -7.7433410468874406e-02 2.1211727959978943e-02  1.1498731205867509e-02 -7.8279783183255569e-02 2.2767544273619864e-02  1.1780197950116188e-02 -8.1538001008832808e-02 2.3791549070415072e-02  1.0181996541811631e-02 -8.1547321935062006e-02 2.4237459350214742e-02  9.8856350074043500e-03 -7.8426987755234087e-02 2.2810442766109433e-02  1.0094757825454626e-02 -7.6904431330871104e-02 2.2470724008043157e-02  8.5229908339955369e-03 -7.6197808367795133e-02 2.3426553023810741e-02  8.3948607287003957e-03 -7.8155587100709037e-02 2.3010804802621770e-02  8.6916872897287063e-03 -8.1173726376360472e-02 2.4660447650462620e-02  7.0162395342500839e-03 -7.7673333396855171e-02 2.3316011161761296e-02  7.059754