<?xml version="1.0"?>
<VTKFile type="UnstructuredGrid"  version="0.1"  >
<UnstructuredGrid>
<Piece  NumberOfPoints="906" NumberOfCells="3833">
<Points>
<DataArray  type="Float64"  NumberOfComponents="3"  format="ascii">9.266978080709009 4.166478734772276 1.461046206063056  9.181768326342784 4.153615163234046 1.421440012136226  9.229812892498522 4.183596148910432 1.545720100192326  9.225001213600809 4.254451996702117 1.5337098141396  9.998269512404418 4.409874667952599 2.528767180600064  9.91395824297026 4.409646340341578 2.453618258555241  9.934634447817656 4.364995237459078 2.592062935217701  9.919798983180184 4.414985668374674 2.609759453949234  9.899298226666046 4.461411898273467 2.469849154319107  9.981390950324288 4.460258395222936 2.545906704881471  9.904649060142438 4.465020966142552 2.627596421891976  9.884329333028059 4.513219283260906 2.486234665370487  9.964117660723936 4.510587543223423 2.563165079338934  8.973520021082338 3.942939582164623 2.761174704851625  8.919437161971761 3.973172598385624 2.664763798342906  8.850000488309339 3.924430951421513 2.77700045749684  8.845558936027526 3.974246134588466 2.794653993755094  8.914166478567155 4.023139872836157 2.683635033795931  8.968496262255448 3.992509072475547 2.779410391332544  8.963549666110868 4.042255946091477 2.79758731486911  8.908980749828478 4.073339856758101 2.70239775104662  8.841212600020709 4.024305650680372 2.812261683004634  8.958618594348721 4.092194028826115 2.815810582417105  8.903804985710346 4.123712351629403 2.721188720606563  8.836894168489238 4.074569616046895 2.829906045595228  8.953672894035131 4.142305310517072 2.83412099183176  8.898603822019675 4.174241179737948 2.74008187731194  8.832556856507283 4.125039009432236 2.847645875211998  8.828154626954319 4.17570064699957 2.865540116899665  8.893343848974583 4.224892920708889 2.759144583969554  8.948665184007591 4.192616678837588 2.852583469980953  8.887972614817221 4.27563985573046 2.778454943097415  8.943545650576706 4.243084699946415 2.871261481109642  8.823619076358034 4.226636111743328 2.883700043952831  8.91969193935979 3.903739148817139 2.853349498971146  8.91514730212038 3.953532003266118 2.870435668089378  8.910680143292728 4.003566914142301 2.887523943345037  8.906236428437648 4.05380924853706 2.904661833501768  8.901776005392803 4.10425729769339 2.921880057969638  8.897260402694561 4.154914808381353 2.939207644853848  8.892628173690408 4.205789038705409 2.956705871656081  9.078913286895306 4.16165421612941 1.489446513310811  9.07010785135207 4.232318779340733 1.470506054456137  9.825013768110258 4.349325922937538 2.543732231741408  9.837192361717957 4.298749474892071 2.526401981220737  9.812710836826236 4.400043003851473 2.561181715470424  9.800143338993369 4.450924067701028 2.578829671517043  9.053182690690637 4.120635273835838 2.301583666107857  8.950787244282248 4.130685335992926 2.242382029309165  8.980347016428576 4.091714841892723 2.375714233287916  8.975051382098368 4.146214383095935 2.394052919473817  8.945141437711648 4.188662905339514 2.257824435179705  9.049001200181372 4.176794122593442 2.318609787903795  8.939502003562557 4.246684332721401 2.273089322690033  9.044768207774073 4.233005068870511 2.335484016661751  8.969764813124435 4.200839531260796 2.412220277747406  9.04051514309017 4.289265172446819 2.352306441445103  8.933859403923124 4.304732436669251 2.288292243490713  8.96446901307967 4.255543930274995 2.430360493302131  9.036267266988869 4.345550985242078 2.369156334703782  8.928218024663467 4.362775307818239 2.303520648206931  8.95916172274411 4.310294816496466 2.448551439281559  9.032055921414846 4.401823008938865 2.386091624735961  8.922588280907171 4.42077107865004 2.318828769636111  8.953852461010056 4.365042626306881 2.466862349922159  9.027922123696797 4.45802939327677 2.403161818627037  8.916983929186062 4.478668329132883 2.334257728100245  8.948561937147277 4.419720070300956 2.48534643236031  9.294722774279311 4.208211191337699 1.749695975338284  9.190407154156381 4.200536118044696 1.825006859217305  9.285240252528464 4.206869009084635 1.851247351835382  9.280831517752192 4.272662041233631 1.852754116549778  9.185551913090061 4.267215324975228 1.825296868020789  9.290086918643807 4.275801904637608 1.747284514415678  9.285331017833512 4.343312399112141 1.744801438361978  9.180598734651177 4.333775504233076 1.825507043884235  9.27630094141462 4.338359058256072 1.85416665211464  9.280522914864758 4.410755380721286 1.742277979654409  9.175605530624175 4.400246767374348 1.825674759587194  9.271725251680358 4.404010216025244 1.855533716286833  9.170632614502116 4.466651929073227 1.825827040761286  9.275739584323119 4.478147498293914 1.739737766046788  9.267173117008047 4.469628847215612 1.856886260939346  9.165735165201403 4.532985118509784 1.825983294352904  9.271055473778855 4.545501093481485 1.737197091105098  9.262711946177758 4.535212246161577 1.858251015396938  9.266534787272223 4.612809041077213 1.734669720400547  9.16096704085907 4.599214993854307 1.826162043676963  9.258395468057536 4.6007430341741 1.859648579157984  9.2104481692815 4.197333567121889 1.679975920714307  9.205290287195359 4.266454280784588 1.674398354426392  9.200033266960022 4.335414225812032 1.668770025871608  9.194736875312525 4.404261915251386 1.663117209527739  9.18946234820427 4.473025476573187 1.657450556585163  9.184266957355049 4.541711843981845 1.651772322346439  9.179215840671857 4.610307509364881 1.646079968807679  9.659417655906273 4.171168869832805 2.27968469104405  9.520644181936355 4.144363148256677 2.318700928808441  9.632321392858941 4.13827429021689 2.374955343907686  9.625935841867722 4.190579217832098 2.391933125406688  9.515882443228129 4.198508539283403 2.334136016707644  9.651706425115792 4.22561859648059 2.293951031472103  9.61948789103797 4.243077685720881 2.408880381016572  9.511016287624972 4.252826930282509 2.349510716771683  9.643973522617371 4.280235791115261 2.308151339223454  9.61299493665445 4.295753565076653 2.425850116184705  9.506097216564289 4.307292029994179 2.364886800226506  9.636219818977638 4.335013954471694 2.322347800796494  9.606484364824892 4.348591075445714 2.442892288704626  9.501176846066349 4.36189370141967 2.380322562715947  9.628456240599043 4.389937915909071 2.336602704813784  9.59998313507201 4.401597142613383 2.460066643491204  9.496312731675852 4.416636074190164 2.395880575924383  9.620693654631079 4.445024451497357 2.350982705050542  9.593537501877188 4.45477796502884 2.477448919443453  9.491582907078898 4.471555659886097 2.411629997661823  9.612938183771709 4.500324460968164 2.365551401160177  9.591897593978487 4.178331694211654 2.20008867992287  9.586058037507293 4.234650123585078 2.21276541079363  9.580139992620342 4.291120004488968 2.225358426768164  9.574181893486543 4.347716685034839 2.237925518915727  9.568217574943775 4.404423143200606 2.250527791673186  9.562286365599332 4.461239010180116 2.263224565064882  9.556478080775488 4.518217537996166 2.276101643280207  8.876142600290281 4.089197535295416 2.347588758868751  8.86907845556552 4.144008504589112 2.366283225463278  8.855124256747047 4.253973424973394 2.403238188377883  8.848127170408159 4.309041778139653 2.4217580462646  8.841081318936194 4.364091943626373 2.440403669549137  8.833976724751812 4.41904833798498 2.459225302540055  9.889722543007592 4.313519494417461 2.683041805869503  9.876446421022882 4.362723427179293 2.701555893935364  9.862867828744408 4.412054954331477 2.720243290804004  8.828488394984484 3.97702182795335 2.949809705238122  8.824858430285433 4.027933460796423 2.966012486417316  8.821222460450592 4.07908275470528 2.982288292506203  8.817530937503598 4.130487904321829 2.998653197739202  8.813725757204644 4.182173485071072 3.0151302116418  9.82988938536654 4.265518696504096 1.883244591082174  9.696650413065058 4.244299953148792 1.851032447883822  9.761108246811318 4.244003941388333 1.966469230186049  9.749930304723641 4.30457816913175 1.972421229553955  9.686520353310428 4.307572296726192 1.85355883090693  9.816644918395466 4.327435900718652 1.886192719448414  9.738844015671141 4.365240197860174 1.978251422107041  9.676441577017375 4.370908350777144 1.855965813188521  8.935689530643861 4.051779869986135 2.46846159703289  8.929370370406893 4.104001315166376 2.488190399427086  8.91687075184668 4.208909855851932 2.52729788074818  8.910595498119452 4.261506365902133 2.546924875514747  8.904276821430173 4.31413181394523 2.566699037297301  8.897888961346347 4.366709731791768 2.586701843752079  9.291741111153348 4.125952838180872 2.333367832747216  9.255734456969449 4.149855558591939 2.242812418410329  9.15631706828624 4.128138333935238 2.301404074919237  9.152842309069399 4.184072186734324 2.317893821596572  9.252906017759257 4.206781261893293 2.258119939839974  9.288722866517414 4.180837540022612 2.3497073089387  9.149271310702213 4.240075864500891 2.334253572002109  9.249941443993478 4.263772905828157 2.273304108251889  9.285580642375971 4.235819070265149 2.365949981937695  9.145661136038722 4.296143016124208 2.35056974371981  9.246922626976433 4.320826436995286 2.288452358996405  9.282384905222782 4.290902264048433 2.382170116214321  9.142062105713414 4.352251913721188 2.366915674162251  9.24391934865986 4.377930160534795 2.303629560588179  9.279200993577488 4.34606876187451 2.398434827231057  9.13852257895673 4.408370043854362 2.383348541711274  9.241001853124162 4.435062580791873 2.318888250487035  9.276096267911942 4.40129339181724 2.414798854079472  9.135091378536139 4.464453988631487 2.399918703911369  9.238249602995277 4.492184988691144 2.334268413886361  9.273150013099947 4.456538729419442 2.431313614294262  9.789515107505199 4.298906972125387 2.648101014882582  9.799806786226959 4.249175310956118 2.630422342287006  9.779112838930967 4.348811333285667 2.66589523634604  9.768520603652348 4.398956934089937 2.683869879727113  9.885660093085846 4.269047533070811 1.974659324518593  9.870953115830503 4.328655258796945 1.981117192190877  
[...]
<PointData  Vectors="f_24"> 
<DataArray  type="Float64"  Name="f_24"  NumberOfComponents="3" format="ascii">-3.4977119706187935e-02 3.4761199170964152e-02 1.9057277595676804e-02  -3.3412209995333786e-02 2.9824840263131775e-02 1.9167370256527143e-02  -3.5189277149935028e-02 4.4760538613030504e-02 1.7970929269369055e-02  -3.4872505365804329e-02 4.3169982850386132e-02 1.1732028600266373e-02  -5.3491855939020949e-02 1.3186329799434893e-01 1.7232214250218973e-02  -5.2073598000300488e-02 1.3091799701806187e-01 1.5405558590845853e-02  -5.3151300254311883e-02 1.3668030071012180e-01 2.0826375071088934e-02  -5.1618341321015879e-02 1.3720018044354748e-01 1.9066489056948306e-02  -5.0738052910383476e-02 1.3172681693196600e-01 1.2208889148905467e-02  -5.1958718768622215e-02 1.3263736846104970e-01 1.4852222777470505e-02  -4.9860516176132234e-02 1.3731028390729225e-01 1.6913893535836819e-02  -4.9231726901373049e-02 1.3222554214270058e-01 8.5850163929131699e-03  -5.0198057134109027e-02 1.3306007826075780e-01 1.2078964565649023e-02  -3.2408380780059004e-02 1.5233744026096849e-01 2.6249228372997747e-02  -3.1863884567726763e-02 1.5266763156443502e-01 2.8401512300828227e-02  -2.8483725615782340e-02 1.5150885184922805e-01 2.4804619043487096e-02  -2.9172639183869892e-02 1.5228608521225692e-01 2.7099029257193839e-02  -3.2361774009730324e-02 1.5407752133651487e-01 2.8995274588910061e-02  -3.2813350764648155e-02 1.5323822665127462e-01 2.8227505461320638e-02  -3.3101759750402825e-02 1.5356986526955876e-01 2.9892581559337592e-02  -3.2760343135805281e-02 1.5484709580621872e-01 2.9459911300909296e-02  -2.9727773939985085e-02 1.5254597517674354e-01 2.9046007098840435e-02  -3.3309051723984816e-02 1.5343501231024340e-01 3.1267742063499443e-02  -3.3029989049071874e-02 1.5506940076573417e-01 2.9816461078870315e-02  -3.0142795330511712e-02 1.5238929497779857e-01 3.0631092687445863e-02  -3.3317288752067700e-02 1.5310638457123582e-01 3.2155966072400198e-02  -3.3141290829686164e-02 1.5506274401052264e-01 2.9725814605841071e-02  -3.0418319593516908e-02 1.5200952001204385e-01 3.1781908881000499e-02  -3.0787711617029732e-02 1.5068103886832193e-01 3.3247198566663735e-02  -3.3324122167903494e-02 1.5436801071198156e-01 2.9444297116140942e-02  -3.3426651436592389e-02 1.5185516760510431e-01 3.3283034792639873e-02  -3.3434398535280546e-02 1.5297757451948807e-01 2.8596812091003024e-02  -3.3447630990034061e-02 1.4981850016519932e-01 3.3970194895373493e-02  -3.1126098225821942e-02 1.4850863000717493e-01 3.4337517838795927e-02  -2.9716920072569035e-02 1.4907062576246072e-01 2.2583812714886315e-02  -3.0239704135940213e-02 1.4939739744254657e-01 2.5875496468668210e-02  -3.0634947584237449e-02 1.4928223783806743e-01 2.8698183164062915e-02  -3.0901536718439038e-02 1.4884273279612445e-01 3.1032089260459743e-02  -3.0998962881235253e-02 1.4820844766508040e-01 3.2875184591463179e-02  -3.1244700200292512e-02 1.4650802247911093e-01 3.5410560718168574e-02  -3.1428127229696033e-02 1.4392462152754906e-01 3.7717229091965100e-02  -3.2614740531719019e-02 3.8179631808026110e-02 1.8218450418706105e-02  -3.2376543855454028e-02 3.6302717163728793e-02 1.2418598068891026e-02  -5.1635786369077563e-02 1.3863345356806758e-01 2.0612432986959590e-02  -5.2697541692761224e-02 1.3784084981049338e-01 2.2250094902042855e-02  -5.0347797829718391e-02 1.3918319273508362e-01 1.8285180445478690e-02  -4.8867175992521494e-02 1.3932178549383467e-01 1.5457179028226077e-02  -3.7300747231912353e-02 1.3203293363944296e-01 2.7700981693848846e-02  -3.5309829863536916e-02 1.2687284410257693e-01 2.5887072811345113e-02  -3.5627776250175942e-02 1.3871090004078360e-01 2.8891911119336835e-02  -3.5793522409910794e-02 1.4071207064227301e-01 2.5149774471171105e-02  -3.5260178830425627e-02 1.2843969350756676e-01 2.0623237254436592e-02  -3.7297544340297820e-02 1.3382094338303460e-01 2.2979117276021196e-02  -3.5212650684108143e-02 1.2956690731371553e-01 1.6399920389028162e-02  -3.7252866595102935e-02 1.3509625587286328e-01 1.9176310883036729e-02  -3.5842138876088357e-02 1.4202026001160123e-01 2.1978224030506404e-02  -3.7193636835088986e-02 1.3598593980466947e-01 1.6011052572208070e-02  -3.5173084344758701e-02 1.3039257756591233e-01 1.2749021156370312e-02  -3.5835342919186795e-02 1.4285193687614336e-01 1.9405498300401725e-02  -3.7187908962457439e-02 1.3676592232009940e-01 1.2292195139864900e-02  -3.5173137982950672e-02 1.3113856782992575e-01 8.3953939832136833e-03  -3.5860521676014015e-02 1.4355924884668333e-01 1.6256803672315828e-02  -3.7113626252032558e-02 1.3754673595239317e-01 7.3763989756037108e-03  -3.5141058476058078e-02 1.3188183638015860e-01 2.9366198940146354e-03  -3.5884677911387046e-02 1.4419002153402552e-01 1.2061591032417985e-02  -3.7050721147907389e-02 1.3811257565231527e-01 2.0303436386829594e-03  -3.5078853870992986e-02 1.3248101659792913e-01 -2.8915139888632292e-03  -3.5857797610706850e-02 1.4456074584169121e-01 7.3598143572653485e-03  -3.7687321809210042e-02 6.9273353304321675e-02 1.8072336244957379e-02  -3.6894144459335511e-02 7.8914332701176357e-02 1.8628257639556379e-02  -3.8472794914630300e-02 8.1642316994510772e-02 1.9084379303283317e-02  -3.8286876005714697e-02 8.1286917106491274e-02 1.2337807420362929e-02  -3.6733608373029872e-02 7.8397689982415877e-02 1.1790028782940158e-02  -3.7483244684214274e-02 6.8474650935927014e-02 1.1381734431036945e-02  -3.7282126593817480e-02 6.7981707407730824e-02 5.7285363152920253e-03  -3.6578821667115312e-02 7.8127396536270738e-02 6.0923471411324006e-03  -3.8135471089045213e-02 8.1119171216127009e-02 6.7363927392959976e-03  -3.7023682732075763e-02 6.7528769915402007e-02 -1.3844773312007167e-05  -3.6386417613917983e-02 7.7896422899102397e-02 4.3501770168206700e-04  -3.7942187226525585e-02 8.0975038568340124e-02 1.2114636715600535e-03  -3.6105538926422175e-02 7.7587443583215898e-02 -5.9265572800879318e-03  -3.6663194607488979e-02 6.7014904885677892e-02 -6.4746229745245602e-03  -3.7624628885420792e-02 8.0757125562945162e-02 -5.0589060178829323e-03  -3.5741829799302891e-02 7.7289537783343326e-02 -1.3022544858590692e-02  -3.6236540149733924e-02 6.6541870889947771e-02 -1.3569026405130927e-02  -3.7205669999364401e-02 8.0551014135526247e-02 -1.2094469392930528e-02  -3.5825094960966537e-02 6.6113265056598258e-02 -2.1001115918354889e-02  -3.5411022922357871e-02 7.7018106113958651e-02 -2.0419445170247026e-02  -3.6829126516047292e-02 8.0358529462507072e-02 -1.9440344473508158e-02  -3.6018939730753881e-02 6.1191557790043614e-02 1.7750844653492477e-02  -3.5777247086996776e-02 6.0045417805676529e-02 1.1063020934083609e-02  -3.5548714430360583e-02 5.9315609051582903e-02 5.3695564299183025e-03  -3.5284771103230972e-02 5.8647912743472148e-02 -4.9169095235785396e-04  -3.4948476467005503e-02 5.7921105543767747e-02 -7.0334287635344514e-03  -3.4569418262163337e-02 5.7250218198938212e-02 -1.4130015153772584e-02  -3.4183700650269058e-02 5.6646465345269813e-02 -2.1569931296982783e-02  -4.9573470824207266e-02 1.2467686862064903e-01 2.7566472788974880e-02  -4.7260340268537294e-02 1.3009846668019062e-01 2.8834025514193191e-02  -5.0217699688414615e-02 1.3277156500986417e-01 2.9164497613851339e-02  -4.9529549579863594e-02 1.3481915886341372e-01 2.5866287598061959e-02  -4.6742078169989432e-02 1.3191515928038369e-01 2.4662116522247778e-02  -4.8918811386028029e-02 1.2639698311424175e-01 2.3138456747421852e-02  -4.8871976098502058e-02 1.3632004103976136e-01 2.2951240703859326e-02  -4.6310673966907377e-02 1.3323162545784928e-01 2.1131732694027450e-02  -4.8365169234434249e-02 1.2766290743061576e-01 1.9395722330569947e-02  -4.8295165588677316e-02 1.3737125856464438e-01 2.0480647072944311e-02  -4.5929817063660630e-02 1.3416266744442482e-01 1.8129589092317922e-02  -4.7839723679133785e-02 1.2859319990514725e-01 1.6149852766451655e-02  -4.7686297912021759e-02 1.3817733148776912e-01 1.7766468267666580e-02  -4.5536996585303968e-02 1.3490360921386052e-01 1.4808750476400531e-02  -4.7230634900061602e-02 1.2935585139584743e-01 1.2527960537335807e-02  -4.6853900443692108e-02 1.3884639586188458e-01 1.4108944681395045e-02  -4.4901907553288663e-02 1.3556958471974268e-01 1.0336826121032375e-02  -4.6422162824118110e-02 1.3004240936466430e-01 7.8383366403538303e-03  -4.6024183608594865e-02 1.3918821127808162e-01 9.9028195701863879e-03  -4.4333827227512779e-02 1.3597837914961236e-01 5.4075379056764128e-03  -4.5605417142396701e-02 1.3049769102439099e-01 2.7063987108322789e-03  -4.7268045421863220e-02 1.1835473545210755e-01 2.6679876372646918e-02  -4.6795351890915556e-02 1.1972511107656533e-01 2.1474534274522939e-02  -4.6423376204753966e-02 1.2079835999158646e-01 1.7134890187622258e-02  -4.6057258060267253e-02 1.2162721092937538e-01 1.3330531151311723e-02  -4.5613954623339767e-02 1.2229668301555199e-01 9.1855307397306230e-03  -4.4937023608123211e-02 1.2291742625395961e-01 3.8606433738836788e-03  -4.4293930579893614e-02 1.2336098074593459e-01 -1.8863224910665530e-03  -3.3413208055927367e-02 1.3686042457326048e-01 2.8231213464687883e-02  -3.3677417400018964e-02 1.3888960510967055e-01 2.4250848793452139e-02  -3.3839345591266931e-02 1.4115160352659614e-01 1.8168627406785858e-02  -3.3936445997225735e-02 1.4193253095702060e-01 1.4796441645127233e-02  -3.4019469194415279e-02 1.4261643484988390e-01 1.0422241371579219e-02  -3.4019768990288982e-02 1.4307336714272362e-01 5.5089439647045980e-03  -5.2616908389304537e-02 1.4011563459075632e-01 2.4794082776874338e-02  -5.1087641093029657e-02 1.4020139549307184e-01 2.4167152524045995e-02  -4.9303111153683091e-02 1.3979121883852685e-01 2.3132156881764718e-02  -2.7755477234437168e-02 1.4420709999774023e-01 2.7087716933244087e-02  -2.8128233200305424e-02 1.4358532798272367e-01 2.9983589840850935e-02  -2.8342548139351040e-02 1.4275967332577541e-01 3.2497274763280369e-02  -2.8812539743343572e-02 1.4080364701464201e-01 3.5979779455564583e-02  -2.9255727859348438e-02 1.3794556747252773e-01 3.9418214456828429e-02  -4.6056692968515896e-02 8.0830026811036945e-02 1.8661696066189559e-02  -4.4012010491260578e-02 7.8726042393174170e-02 1.9175519263865799e-02  -4.6537403502352179e-02 9.1250145015803086e-02 2.0792760035903669e-02  -4.6005611609123649e-02 9.1603081412104437e-02 1.4663428851986791e-02  -4.3594277325218651e-02 7.8547707845820200e-02 1.2839513438093074e-02  -4.5500759419312038e-02 8.0766132348461084e-02 1.2505373300214206e-02  -4.5530045143679650e-02 9.1928066945241152e-02 9.6351822756449764e-03  -4.3184008608293585e-02 7.8526727733764748e-02 7.5937169453433708e-03  -3.4056946528662035e-02 1.4544676941070986e-01 2.9925238143965464e-02  -3.4391022097398430e-02 1.4750360649484962e-01 2.7566432467327807e-02  -3.4707104818857394e-02 1.4958030911779602e-01 2.3768197111066224e-02  -3.4771096599823213e-02 1.5013527810191921e-01 2.1595900475985027e-02  -3.4871659655967516e-02 1.5047103303066264e-01 1.8588744987218193e-02  -3.4898922439464408e-02 1.5045234540293878e-01 1.4961029691485699e-02  -4.2414631359984925e-02 1.3357015244971990e-01 2.8996270416905133e-02  -4.1139952190374043e-02 1.2549859696108664e-01 2.6859043356856210e-02  -3.9415058201570007e-02 1.3154346234363726e-01 2.7979646219533538e-02  -3.9335251680856602e-02 1.3328403723581389e-01 2.3249413868354874e-02  -4.1004239775505165e-02 1.2705694091763609e-01 2.1690747192881686e-02  -4.2188747658623509e-02 1.3538530479992647e-01 2.4724253289052981e-02  -3.9234483257658020e-02 1.3453064838247938e-01 1.9443910071136012e-02  -4.0876506741852392e-02 1.2824661980508062e-01 1.7524216210536195e-02  -4.1991359214776577e-02 1.3665633349239353e-01 2.1177667233361189e-02  -3.9146831972145128e-02 1.3540559598452587e-01 1.6278867385418439e-02  -4.0784553723021810e-02 1.2913743855630913e-01 1.3953807689008956e-02  -4.1804894398697778e-02 1.3752593624604056e-01 1.8240569340462278e-02  -3.9075999472833106e-02 1.3616215246856822e-01 1.2591064206081732e-02  -4.0650239765999914e-02 1.2992106568264683e-01 9.8464143390869212e-03  -4.1635664332625402e-02 1.3823476915367172e-01 1.4892962569591103e-02  -3.8902345282405430e-02 1.3690391471178179e-01 7.6766477699501887e-03  -4.0356340233751446e-02 1.3069053088133026e-01 4.5203843334799907e-03  -4.1325987743910740e-02 1.3890766395586293e-01 1.0326377129745396e-02  -3.8771614132852336e-02 1.3742397730144063e-01 2.3339758781788511e-03  -4.0133906269682072e-02 1.3126647838940844e-01 -1.2098280634672681e-03  -4.1083482978079705e-02 1.3930177339812988e-01 5.3108043426538824e-03  -5.1294130116295349e-02 1.4295476035639226e-01 2.5116672399569658e-02  -5.2327908892132305e-02 1.4247841317533341e-01 2.5697924297146686e-02  -4.9963505596152750e-02 1.4307284196184805e-01 2.4030534589755664e-02  -4.8461528691427530e-02 1.4264233732829942e-01 2.2511343657544442e-02  -4.8256909026710169e-02 9.0149806756592232e-02 1.9683212359632524e-02  -4.7576491276960155e-02 9.0628406080980550e-02 1.3721087826796227e-02  -4.0959672133678703e-02 1.4092095776555658e-01 3.0184112919823130e-02  -4.0826865805187428e-02 1.4294649432346337e-01 2.7050076493157507e-02  -4.0659916668228491e-02 1.4427833171195148e-01 2.4292621819121028e-02  -4.0484943148820798e-02 1.4509465132856558e-01 2.2091382339348316e-02  -4.0348793015167986e-02 1.4572885932963139e-01 1.9503658666182082e-02  -4.0130810273565409e-02 1.4623687449428391e-01 1.5852877119819649e-02  -3.9954357014097400e-02 1.4642801410071840e-01 1.1669025155292192e-02  -4.9388019180502007e-02 1.0061962214469163e-01 2.1622747199255350e-02  -4.8687026002581971e-02 1.0148849245094789e-01 1.5962843765863457e-02  -3.2931916433825627e-02 1.4945512878188671e-01 1.7348896745650221e-02  -3.2745157120094119e-02 1.4913420288565774e-01 2.0514086217527993e-02  -3.3027237052313578e-02 1.4941008826285357e-01 1.3575639983167310e-02  -4.2276380338455648e-02 6.1774979428239604e-02 1.8036476240854415e-02  -4.1701506150090863e-02 6.8416074492731016e-02 1.8775936153776207e-02  -4.1332192237508274e-02 6.7773643801127062e-02 1.2296621588997190e-02  -4.1870410581424530e-02 6.0948364033110540e-02 1.1712017715473410e-02  -4.1424421359760849e-02 6.0486397285601949e-02 6.4459583931440875e-03  -4.0973759237898144e-02 6.7413250689408746e-02 6.8938210209943404e-03  -4.2684563401387779e-02 7.8496109767828684e-02 2.4131563885757133e-03  -4.0898642547378877e-02 6.0082527717126792e-02 1.0805369545932272e-03  -4.0543756221154033e-02 6.7095453613331815e-02 1.4620516263226147e-03  -4.2089430975912459e-02 7.8395363237862919e-02 -3.5114604779136298e-03  -4.0346048558622255e-02 5.9620069090750426e-02 -4.9882558565490370e-03  -4.0022220276112352e-02 6.6714953148232073e-02 -4.6887340543904001e-03  -4.1495129797556235e-02 7.8325442090692102e-02 -1.0169316558566248e-02  -3.9488654622630341e-02 6.6399224347000949e-02 -1.1508198386041600e-02  -3.1776756648029023e-02 2.5039537280874814e-02 2.1349929019850968e-02  -3.1494871354659802e-02 2.2092541214655821e-02 1.6602733352496891e-02  -3.9202188505149248e-02 1.1903888028134525e-01 2.4685791479691629e-02  -3.9089314663713653e-02 1.2022925334930989e-01 1.9000428735435979e-02  -3.8998369613439311e-02 1.2115681939907934e-01 1.4399501317948324e-02  -3.8928930292971675e-02 1.2187344570088993e-01 1.0316612556609950e-02  -3.8838105451432806e-02 1.2252460594127458e-01 5.5565842761651722e-03  -3.8587050606863960e-02 1.2316811205525499e-01 -3.6479671574855870e-04  -3.8399811015411678e-02 1.2369101274697476e-01 -6.5986269488872151e-03  -3.8631411482185928e-02 9.2610498671296879e-02 2.0054934582579613e-02  -3.8465279020573430e-02 9.2710085620653582e-02 1.3430038976956920e-02  -3.8354363108264199e-02 9.2875848111232451e-02 7.9698655790676285e-03  -3.8224783491001224e-02 9.3013090616741734e-02 2.7008467934072286e-03  -3.7969364487906013e-02 9.3077452081051087e-02 -3.3349504204749710e-03  -3.7586514128528953e-02 9.3131683564914747e-02 -1.0245265179930558e-02  -3.7255909300966422e-02 9.3165815120293538e-02 -1.7456524841835169e-02  -3.0811124320397336e-02 3.1586096906184434e-02 2.0232790168633108e-02  -3.0664751386682752e-02 2.8971990918656737e-02 1.4945553041764113e-02  -3.0512580103756209e-02 2.6886585143312068e-02 1.0005178698866423e-02  -3.7280100638998774e-02 1.2215123525028103e-01 2.4981315722514382e-02  -3.7199737213146733e-02 1.2347889669536011e-01 1.9415219877117980e-02  -3.7123979349499119e-02 1.2449557124651557e-01 1.4932614377135034e-02  -3.7060905642165062e-02 1.2526354280768037e-01 1.1012519907564815e-02  -3.7013875836135378e-02 1.2597647570970966e-01 6.3763818415060337e-03  -3.6879510890408314e-02 1.2668463527619547e-01 5.9297439842734138e-04  -3.6766293605561717e-02 1.2726164110742461e-01 -5.5218968326253811e-03  -4.9017191966208254e-02 1.3861510350080328e-01 3.0155902903152263e-02  -4.8367290498412555e-02 1.4066416367775225e-01 2.7584023262399188e-02  -4.7737820821479253e-02 1.4211231527827406e-01 2.5276099944692057e-02  -4.7177208190138910e-02 1.4305133460149999e-01 2.3314410693252879e-02  -4.6641989746467820e-02 1.4368403644978867e-01 2.1210490025936057e-02  -4.5894010102458450e-02 1.4412986453329216e-01 1.8135263842434843e-02  -4.5146897544849456e-02 1.4414094167326069e-01 1.4531035425979047e-02  -3.7009910390205292e-02 9.5273384625467028e-02 2.0006133433298011e-02  -3.6861050616389730e-02 9.5402407779268686e-02 1.3352807560427215e-02  -3.6752344634907112e-02 9.5596674949360000e-02 7.8616983472911718e-03  -3.6639842405229897e-02 9.5757211473998197e-02 2.5975462542184541e-03  -3.6448095825778397e-02 9.5838158956820546e-02 -3.4056038171969725e-03  -3.6147684209874804e-02 9.5904281197431510e-02 -1.0315091899374776e-02  -3.5884332081103691e-02 9.5957383990610656e-02 -1.7494972497272120e-02  -5.5721328382134602e-02 1.3314147846451677e-01 2.7297189920856741e-02  -5.4432304211198809e-02 1.2724187193181546e-01 2.6871512823761975e-02  -5.2762708393116524e-02 1.3087638294399026e-01 2.8368620506178107e-02  -5.1928627453211744e-02 1.3294367058204079e-01 2.5297477589403157e-02  -5.3501098776172755e-02 1.2929228451222263e-01 2.3726908903225423e-02  -5.4717795597765018e-02 1.3523461120291888e-01 2.5450794786257523e-02  -5.1103788347416731e-02 1.3448077017798976e-01 2.2551280211372579e-02  -5.2573025444272781e-02 1.3083410406838522e-01 2.0937355547112055e-02  -5.3694602816008782e-02 1.3676944354950485e-01 2.3759336764063787e-02  -5.0345364821375874e-02 1.3558647420137984e-01 2.0181820445173103e-02  -5.1691995566572030e-02 1.3197009567689683e-01 1.8521989706924088e-02  -4.9539206011333187e-02 1.3643493820394964e-01 1.7639386985928037e-02  -5.0710446546973202e-02 1.3289724240608772e-01 1.5874446410027901e-02  -4.8517304818438835e-02 1.3712487433909068e-01 1.4210694507057068e-02  -4.9548607379498170e-02 1.3367770645716814e-01 1.2388622173066100e-02  -4.7412472275258889e-02 1.3746346866128109e-01 1.0249761216601361e-02  -4.8253106766771081e-02 1.3414006228470798e-01 8.4133901470963123e-03  -3.1695448055899848e-02 4.6727114480467638e-02 1.8021854072338264e-02  -3.4181828026575822e-02 5.1494513973945062e-02 1.7830799859507820e-02  -3.3912984699596554e-02 5.0100657277794704e-02 1.1270485396208589e-02  -3.1487509085449374e-02 4.5078919666204399e-02 1.1754349265327377e-02  -3.3687748650366257e-02 4.9194658733844175e-02 5.6159302851459961e-03  -3.1355927560274020e-02 4.3964507278056696e-02 6.1706157577734906e-03  -3.2173593392262841e-02 3.4892775590146988e-02 7.0438636038545818e-03  -3.3440481228941187e-02 4.8363813035641218e-02 -3.0576505626547318e-04  -3.1196539410571041e-02 4.2869908799259157e-02 2.3314449816929563e-04  -3.1949746705584169e-02 3.3464189264904853e-02 1.2788475163649970e-03  -3.3159367573666339e-02 4.7478576857029664e-02 -6.8581379924477354e-03  -3.1013621612709392e-02 4.1687324733462497e-02 -6.3002067771222633e-03  -3.3446381017332327e-02 6.0081262781278746e-02 1.7666815745886699e-02  -3.3175681893141892e-02 5.8783253962772626e-02 1.0919025872952567e-02  -3.2962910110601207e-02 5.7927910512236405e-02 5.1383029386026617e-03  -3.2754955480423800e-02 5.7141455828473103e-02 -8.1344605004944062e-04  -3.2519678270695219e-02 5.6292140533947758e-02 -7.4100881884048364e-03  -3.2250695351667302e-02 5.5486514372369566e-02 