<?xml version="1.0"?>
<VTKFile type="UnstructuredGrid"  version="0.1"  >
<UnstructuredGrid>
<Piece  NumberOfPoints="924" NumberOfCells="3951">
<Points>
<DataArray  type="Float64"  NumberOfComponents="3"  format="ascii">9.850904131524921 1.726167302335155 1.972525638251317  9.785862974126916 1.704290192205449 2.060348973913038  9.743653944885722 1.741221562775228 1.926235500715024  9.745710942871922 1.689070311403944 1.905148269550998  9.788294721499913 1.649847979094624 2.047600987877935  9.852769098464083 1.672618769854572 1.954379391535095  9.747413444386536 1.637094312977516 1.88392284478203  9.790393154289985 1.595497590353434 2.034708245426453  9.854272599228427 1.619233802518522 1.936086367950948  9.748960623362205 1.585257961770524 1.862666780181131  9.792338479432409 1.541230487075422 2.021754424982781  9.855626611213973 1.565962787418255 1.917752196858533  9.750487319257227 1.533537567432861 1.841448894290203  9.794268317971765 1.487040345715662 2.008809139285025  9.856989129320263 1.512791439262414 1.899453812218128  9.7521381424219 1.481936643957248 1.820341185946113  9.796326880444138 1.432926174175502 1.995938943202618  9.858525337076911 1.459750322903204 1.88127882878612  9.754181940178542 1.430461322892599 1.799423443878255  9.798727547669129 1.378920320959055 1.983236308289197  9.860476322490655 1.40680823913118 1.863274904020841  8.895410063286967 1.533073795375506 2.265189620919304  8.829261961723663 1.519893364385529 2.351681881466638  8.785000649550204 1.508458591726102 2.218545167109312  8.800138778550526 1.452216962157738 2.214968025306426  8.84276415532578 1.464248753174139 2.354287853381695  8.909984542888278 1.477565453090246 2.262031543868289  8.8155917200756 1.396087273595136 2.211255137808454  8.856529518938723 1.408691026331007 2.356782764915007  8.924843985216095 1.422206698563671 2.258761701886309  8.831149601338334 1.340031352806665 2.207501496078323  8.870393481855743 1.353186757890479 2.359228118293865  8.939799469174652 1.366947694228204 2.255442227247299  8.846670433621679 1.284015247224772 2.203756867934394  8.884231833523902 1.297712513586374 2.361671956906095  8.954718633314984 1.311758280090648 2.252127783833031  8.862013279833953 1.227993731037308 2.2000715179152  8.897914283709735 1.24223943976896 2.364160189416463  8.96944191281813 1.256618725266207 2.248876616353454  8.876981943354807 1.171868364188725 2.196514999487009  8.911268026980755 1.186724861634997 2.366749582668999  8.983718650333959 1.201448954758979 2.24573256702803  9.032859261027092 1.652487851683533 1.886084267880581  9.017255972096189 1.617692023750645 1.986971295186179  8.908329320417753 1.620291473448971 1.891734035138775  8.921148339019815 1.567725453908666 1.869438842538521  9.028753353487362 1.564015512433149 1.970094573748742  9.045215752327346 1.60120136991791 1.862382756492755  9.057675126896557 1.550139964589735 1.838613264785015  9.040331634885572 1.510552373372666 1.95310964182216  8.93408116757205 1.51541683638344 1.847062371321303  9.070155636989861 1.499268144743736 1.814845585270473  9.051945848609538 1.457248358021274 1.936075301526091  8.947049461692361 1.463279577545841 1.82467299682304  9.082588305273614 1.448533837584026 1.791138014135962  9.063530966643663 1.404053000410836 1.919050725818988  8.959964377218522 1.411266560454347 1.802330296507852  9.094876228116304 1.397897838185491 1.767564138109118  9.075010867911097 1.35093461086047 1.902098750499668  8.97271801693951 1.359353536991356 1.780100356748482  9.086312599977925 1.297901997065273 1.885339600912399  9.106869646813966 1.347328117143821 1.744178814351769  8.985238674543698 1.307508624112989 1.758050937192706  8.825291630610813 1.472463323599591 2.106290869508111  8.807982098773286 1.491561696512089 2.005429055362284  8.711585913310445 1.438934281303991 2.086198240119265  8.791144904307437 1.545604317955716 2.021772746149184  8.808127409472743 1.527651683989079 2.115788215630238  8.825202590351054 1.437721924929501 1.988988754555877  8.842887932774554 1.417460238915369 2.096675681493565  8.726903355846202 1.382095297451204 2.075733694993439  8.842553920453717 1.3840059835708 1.972515045157183  8.860618015586786 1.362561259663163 2.087023558297969  8.742281535472896 1.325340422873819 2.065251022393002  8.859872052119004 1.330359988674701 1.956061586771367  8.878311127574189 1.307722726974787 2.077382979059333  8.757594619072249 1.268626324949081 2.054787955691678  8.876977027386342 1.276734235151221 1.939677662129262  8.895782313697268 1.252894956259735 2.067796288894749  8.952552180600316 1.674521558992057 1.810109828037727  8.965119359282856 1.625553485336471 1.78132999236262  8.977778795383697 1.576848257142393 1.752519332935649  8.990468153276487 1.528325512211932 1.723726735232266  9.003109629622639 1.479916817520843 1.695004460827157  9.015616716150358 1.431575397143186 1.666411165809669  9.027886802143085 1.383244364305581 1.63796911507823  9.655160610237006 1.709022048422219 1.996653000289306  9.659374952347672 1.655708415607704 1.97949105198973  9.663382023678983 1.602588250176682 1.962240024513025  9.667271371402055 1.549611210093714 1.944950990749685  9.671142944571992 1.496769145444005 1.92769363001828  9.675099032984043 1.444094022060986 1.910552712124481  9.679223797452762 1.391609822749392 1.893596706991846  8.715349401346078 1.431900520465533 2.347482997708925  8.729430591955243 1.375378781185662 2.349334663214615  8.743595745268561 1.318881101916643 2.351160754731516  8.757732769472925 1.262390674130226 2.352995440824552  8.771737565159244 1.205881948831158 2.354870773403977  8.70048526055605 1.474071785583662 1.954427388570169  8.717503145740274 1.419407825529247 1.936607704445598  8.734625136573895 1.364832040946842 1.918768979649217  8.751698221661595 1.310299532776721 1.9009525457966  8.768575316611347 1.255747461624566 1.883185721895296  8.662698331538394 1.417576709224019 2.231401499013713  8.676291979030928 1.359924844263116 2.229399063284017  8.689963856524876 1.302291421729903 2.22736839890816  8.703605343142385 1.244658506842035 2.225350133361306  8.850413022153806 1.677329841143954 1.764828742562877  8.86393988667254 1.628944364317155 1.734656388380148  8.877589831439293 1.580822697384188 1.70443031363279  8.891287483528442 1.53286523396768 1.674220485642651  8.904938346217424 1.484991518253794 1.644071717520668  8.918442781135946 1.437128319315104 1.614020603647439  8.931683389801078 1.389267086620534 1.58414478640801  10.06717446290109 1.890545214332218 1.690282351435954  9.948202398422481 1.867620679798455 1.722799036336107  10.00538722889914 1.962673727023911 1.620615214239507  10.003024262009 1.925391307740197 1.579552173851677  9.948195248306707 1.824195143121901 1.687177402020206  8.781075028593344 1.618105703770391 1.833016581986809  8.752879612485351 1.682959803461145 1.700281860557841  8.766631400483035 1.637067907472023 1.664894461659077  8.796550113533137 1.567539026072166 1.806477044136587  8.780477673391578 1.591458368555262 1.629480699635779  8.812240991359754 1.517236678734093 1.779859679021179  8.794344124129138 1.546023220420082 1.594143985518741  8.82801808533835 1.467092167352405 1.753241025798421  8.808133697630836 1.500683798653075 1.558908501041281  8.843761369244818 1.417031569649665 1.726667554357407  8.821729335452023 1.455407120676134 1.523812670479825  8.859341448118078 1.366996299175797 1.700178489004288  8.83510102955648 1.410168109029869 1.488897618080622  8.874501830866734 1.316910954720446 1.673795611090194  8.746463561823736 1.430031218642717 1.641990778984246  8.702191882899069 1.536520168086893 1.49097681139226  8.762314484779386 1.381608195598208 1.611077385934891  8.717868935368907 1.495193283046663 1.451514134717222  8.777778538516673 1.33313361419197 1.580321138281695  8.733206584498031 1.453899254490863 1.412123255828361  9.644739914381923 1.763135031047443 1.86660778579581  9.648843077351945 1.712709113840767 1.842324533094317  9.65271924480658 1.662516111837941 1.817937604977192  9.656473550630377 1.61248204355024 1.793528236712163  9.660204486782218 1.562566083299952 1.769164772372644  9.664020971084501 1.512758595904494 1.744921224868267  9.668036702492726 1.463085955830614 1.720873302028596  9.892723816666035 1.932898649444227 1.647884763887866  9.892076491814048 1.894345276974572 1.607944754076704  10.00033758199189 1.88830916902647 1.53851918921759  9.891161161835305 1.856025031746173 1.568056014446823  9.947851929118075 1.780974365428067 1.651511932073753  9.997516710546558 1.851332633477752 1.497564712884845  9.890124117819418 1.817828765901739 1.528258778931135  9.947363149640799 1.737875142223331 1.615881167657034  9.99471810813073 1.814411428756155 1.456714925705684  9.889117212410227 1.779712035829134 1.488591087862257  9.946894540959606 1.694849632079778 1.580338139709241  8.730411946958283 1.478446861461142 1.672992431397196  9.878066603501678 2.197771740281269 1.463218644764811  9.884423786644048 2.108594713571193 1.516689289086488  9.737473532880706 2.13848794366444 1.502918538732078  9.736504905532547 2.110377317317166 1.458014993811821  9.882059724981969 2.079299408165919 1.471862260147382  9.549199318891315 1.716908557029893 1.946922126910429  9.55527146534447 1.664704417816453 1.927131169352558  9.561237920538463 1.612690107171009 1.907241637473697  9.567122717301299 1.56084273873619 1.887325139290032  9.572985354556879 1.509135989788155 1.867444320805263  9.578888078434494 1.457569701700702 1.847666223327346  9.584830840140272 1.406132209015742 1.828083595825955  9.432113043466211 1.665999956185867 2.065821185384923  9.351503897609533 1.679911474246883 1.983448394405636  9.458278341789516 1.691464959625278 1.990287624722736  9.465480926567821 1.638119699545256 1.974007493886053  9.358843548748027 1.626932672866679 1.965793336049253  9.439442768907472 1.611995583602189 2.052490928773707  9.472586037096397 1.584980823759147 1.957614259160525  9.366093195937975 1.574126554506637 1.948050373889382  9.44669591401936 1.558160887570049 2.039
[...]
<PointData  Vectors="f_24"> 
<DataArray  type="Float64"  Name="f_24"  NumberOfComponents="3" format="ascii">-5.1942321675495305e-02 -7.9187796424188092e-02 -2.5177127506927865e-02  -4.8099425652849359e-02 -8.1141044630630488e-02 -2.2005382308115461e-02  -5.0732917033273983e-02 -7.9746988896000945e-02 -2.4730537127594085e-02  -5.0604422163598443e-02 -7.9761743383339703e-02 -2.4338570919601420e-02  -4.7861831124496518e-02 -8.0823073822428537e-02 -2.2026719404010998e-02  -5.1709522690655298e-02 -7.9159246336340375e-02 -2.5008634866339939e-02  -5.0352697265149134e-02 -7.9807543582778875e-02 -2.4273890871254467e-02  -4.7539547650178392e-02 -8.0711791592167556e-02 -2.1941035759160447e-02  -5.1363363407825685e-02 -7.9207306037154465e-02 -2.4945235506673637e-02  -5.0107315315826934e-02 -7.9921054554852711e-02 -2.4148569697420949e-02  -4.7244173178722156e-02 -8.0697829780384506e-02 -2.1890264194898198e-02  -5.1065704159072411e-02 -7.9306656999884623e-02 -2.4857945349024135e-02  -4.9950099002415982e-02 -8.0247149613170157e-02 -2.3830928285744461e-02  -4.7035866757919556e-02 -8.0773571375786918e-02 -2.2040710625167610e-02  -5.0895819977083860e-02 -7.9567632056943297e-02 -2.4758520861256756e-02  -4.9864050369928949e-02 -8.0901023924543444e-02 -2.3499217436635991e-02  -4.6891039653104573e-02 -8.1078855827364654e-02 -2.2422511250523511e-02  -5.0807198123726006e-02 -8.0115540539762303e-02 -2.4758683910436435e-02  -4.9820827354407834e-02 -8.1800671856149434e-02 -2.3316882389324774e-02  -4.6774399388925247e-02 -8.1657708137908236e-02 -2.2968040436326484e-02  -5.0764214259260476e-02 -8.0806053350955601e-02 -2.4861040504313779e-02  -2.2828505780478972e-02 -9.1272168304598583e-02 -8.5546926513294563e-04  -1.9275627448101351e-02 -9.5673726033185913e-02 2.2645574349239262e-03  -2.1599910578519566e-02 -9.1016411552761869e-02 1.0291722965703765e-04  -2.1406569017725075e-02 -9.0529210595413606e-02 -1.0768398216205440e-03  -1.8768617385045705e-02 -9.5165969842851403e-02 8.8263082415590587e-04  -2.2591408377755605e-02 -9.0952369118637896e-02 -2.0557647503277390e-03  -2.1275783350077692e-02 -9.0287867805640784e-02 -1.7759186848613460e-03  -1.8430770455866316e-02 -9.4856334304596487e-02 2.7078210443883818e-04  -2.2406028592044075e-02 -9.0766568345158546e-02 -2.6784975407960349e-03  -2.1060508236407594e-02 -9.0073941890238679e-02 -2.5853688585581523e-03  -1.7994832396991962e-02 -9.4594145441438279e-02 -4.2469782892356567e-04  -2.2124314754955705e-02 -9.0555210893576668e-02 -3.3949649465556844e-03  -2.0749560577815063e-02 -8.9872903324220044e-02 -3.9880892806414756e-03  -1.7463450998388769e-02 -9.4398145689578855e-02 -1.8566757725026037e-03  -2.1771593949755759e-02 -9.0367808781968331e-02 -4.7022960987358605e-03  -2.0238922814569592e-02 -8.9747133617987404e-02 -5.7241170809722670e-03  -1.6780620993349576e-02 -9.4320403599335162e-02 -3.8246299321702724e-03  -2.1250785511846011e-02 -9.0285587728403907e-02 -6.4086288637625029e-03  -1.9544033812647726e-02 -8.9713208955278845e-02 -7.5876938265784935e-03  -1.5920073951786084e-02 -9.4351744623895756e-02 -5.8838115127321745e-03  -2.0558587024029646e-02 -9.0288030055022783e-02 -8.2029867219602544e-03  -3.5342718478515570e-02 -8.1796081887609187e-02 -1.1757382485971272e-02  -3.2429151409063869e-02 -8.3979484137371344e-02 -9.2533574685227746e-03  -3.2417457345485609e-02 -8.2333824540859635e-02 -9.0722758539774698e-03  -3.2766392009692405e-02 -8.2185527933983732e-02 -9.2151385188315241e-03  -3.2597440064382213e-02 -8.3482151126742468e-02 -9.4503593949903722e-03  -3.5631053729077641e-02 -8.1850714730312954e-02 -1.1813736713646399e-02  -3.5938299904043874e-02 -8.1862633063884804e-02 -1.2239593972499858e-02  -3.2765224849426046e-02 -8.3167397776783752e-02 -9.7749876757311834e-03  -3.3124951701493557e-02 -8.2046330253115113e-02 -9.6766216233060368e-03  -3.6289857816841936e-02 -8.1933493456744375e-02 -1.2518714644468227e-02  -3.2928231181452126e-02 -8.2992470732482365e-02 -1.0118006696427553e-02  -3.3521895752751781e-02 -8.1996706889168089e-02 -1.0042160723746767e-02  -3.6594380932701627e-02 -8.2229115506198810e-02 -1.2554205615167747e-02  -3.3014411448227664e-02 -8.2945901822671864e-02 -1.0515133483402129e-02  -3.3815258488319427e-02 -8.2137927159152677e-02 -1.0263704814640203e-02  -3.6735584609797214e-02 -8.2819485389278621e-02 -1.2562536910624908e-02  -3.2967613530903536e-02 -8.3124346232026566e-02 -1.1030670513608287e-02  -3.3945921705329618e-02 -8.2545669915559255e-02 -1.0488696595931799e-02  -3.2811777690122564e-02 -8.3523153960863378e-02 -1.1692213317268359e-02  -3.6745073425813679e-02 -8.3586552645018519e-02 -1.2679783500106298e-02  -3.3968426921519183e-02 -8.3133459689965342e-02 -1.0847529858505702e-02  -2.4808153525729109e-02 -8.7012262829090595e-02 -3.3059552817733232e-03  -2.7022919213551121e-02 -8.4765996571959670e-02 -4.6375555203146289e-03  -2.2973489055453090e-02 -8.7028251222733444e-02 -1.6355635459595202e-03  -2.6660488983716982e-02 -8.5246977235878207e-02 -3.8219653565376805e-03  -2.4736539552663538e-02 -8.7484577691446547e-02 -2.2695262402297515e-03  -2.7375409782835515e-02 -8.4429192421919666e-02 -5.3351213951208639e-03  -2.4920631996602695e-02 -8.6762148375184200e-02 -4.0186053307744727e-03  -2.3048658596777256e-02 -8.6843145019946666e-02 -2.3990251930207707e-03  -2.7636003894324662e-02 -8.4156462435519830e-02 -6.0349228577053328e-03  -2.4932665986206252e-02 -8.6532961335257730e-02 -4.7861286817846242e-03  -2.3039983954120206e-02 -8.6646308344056400e-02 -3.2984971631197569e-03  -2.7783624880198251e-02 -8.3972427778580522e-02 -6.8863300588104309e-03  -2.4842402114423654e-02 -8.6330572517194976e-02 -5.9208747023634265e-03  -2.2891269974242425e-02 -8.6455078657965700e-02 -4.5904631305683785e-03  -2.7708850584550634e-02 -8.3929433955049537e-02 -7.9224603852685212e-03  -2.4544969789745165e-02 -8.6238159638174175e-02 -7.3082829303151610e-03  -3.5166759133822209e-02 -8.2504344947888816e-02 -1.2874826104637452e-02  -3.5611893954077531e-02 -8.2438283670723339e-02 -1.2648499588606081e-02  -3.6144946390006011e-02 -8.2226668921257656e-02 -1.3017877751319677e-02  -3.6743144559156504e-02 -8.2215290363115395e-02 -1.3233148234077402e-02  -3.7277868472483315e-02 -8.2622865561450126e-02 -1.3002546872609998e-02  -3.7632191194407458e-02 -8.3421758283880015e-02 -1.2663818159101064e-02  -3.7869593015921084e-02 -8.4445834982267223e-02 -1.2431469324595892e-02  -4.6790586437142193e-02 -8.0706407699907307e-02 -2.1154406086203319e-02  -4.6695198360101879e-02 -8.0570861291008766e-02 -2.1008291020666637e-02  -4.6474216935194095e-02 -8.0556737843972728e-02 -2.0999899490471468e-02  -4.6293117302625517e-02 -8.0614992575645389e-02 -2.0972130327403974e-02  -4.6171965411749963e-02 -8.0815519309449940e-02 -2.0947641683967847e-02  -4.6063245540119604e-02 -8.1284263173685589e-02 -2.1024877730493267e-02  -4.5927758717855774e-02 -8.1949614758737813e-02 -2.1218130640380684e-02  -1.6414286560953659e-02 -9.6697610884830032e-02 2.7124534425735790e-03  -1.6068435527720946e-02 -9.6266232799363374e-02 1.9773957221308311e-03  -1.5643829305963395e-02 -9.5905010253225384e-02 1.1327002074202968e-03  -1.5119887588724262e-02 -9.5620283775250531e-02 -4.4368057994618592e-04  -1.4415733875818524e-02 -9.5449020181796379e-02 -2.5679794290526282e-03  -2.6152219617424928e-02 -8.3964611838384509e-02 -3.4060988084290457e-03  -2.6621627941801878e-02 -8.3636307684291727e-02 -4.1382361651937016e-03  -2.6944257836845679e-02 -8.3387926547624530e-02 -4.8978078462038549e-03  -2.7112321697298932e-02 -8.3228968931144898e-02 -5.7809712609464400e-03  -2.7077416786668692e-02 -8.3217300530963920e-02 -6.8029473162901748e-03  -1.8237860027278899e-02 -9.2982171145529105e-02 1.4127874389326131e-03  -1.8034268622168989e-02 -9.2613278851596023e-02 6.5400346470548634e-04  -1.7738938860628467e-02 -9.2305918286411534e-02 -2.6326972875155216e-04  -1.7305580021845186e-02 -9.2032630620001096e-02 -1.8148768095699204e-03  -3.3813553308977826e-02 -8.2330539001436456e-02 -1.2178453383318822e-02  -3.4488367021491315e-02 -8.2359735588430974e-02 -1.1889367971405976e-02  -3.5184089297681284e-02 -8.2138289896830599e-02 -1.2275130157941103e-02  -3.5939164020503324e-02 -8.2098018132079079e-02 -1.2524462504403762e-02  -3.6610529933512756e-02 -8.2506425914027182e-02 -1.2279978828817583e-02  -3.7069927238686337e-02 -8.3377809727087665e-02 -1.1832088709653481e-02  -3.7401752827108642e-02 -8.4544888541165264e-02 -1.1544221429935962e-02  -6.5074567235101133e-02 -8.0827648405282851e-02 -4.0306770907987795e-02  -6.1538229606765825e-02 -8.1497690989430868e-02 -3.7385921231669172e-02  -6.6428965506475132e-02 -8.4719180704783181e-02 -4.6138308151640398e-02  -6.6153640085253956e-02 -8.5670726339120082e-02 -4.5054549963592032e-02  -6.1379382048028924e-02 -8.1974638026609842e-02 -3.6460962937872737e-02  -3.0983503341603442e-02 -8.2277268551175314e-02 -8.1510125090735169e-03  -3.3028765246351705e-02 -8.1790173401334348e-02 -1.1610504652223465e-02  -3.3938849600370830e-02 -8.2029981143201633e-02 -1.1644031772521303e-02  -3.1613547038678580e-02 -8.2014447994530434e-02 -8.2160743931835624e-03  -3.4874723323369036e-02 -8.1916642407380391e-02 -1.2288044144811995e-02  -3.2305706584414465e-02 -8.1722314263173682e-02 -8.7316762870857084e-03  -3.5869294751514375e-02 -8.2040951046166710e-02 -1.2591123223825886e-02  -3.2993577420862084e-02 -8.1575906204040927e-02 -9.1685103695101581e-03  -3.6687996574329487e-02 -8.2790417973579417e-02 -1.2178993992149941e-02  -3.3544511992691019e-02 -8.1712664909072003e-02 -9.3516703740464269e-03  -3.7295877025161239e-02 -8.4015635173444347e-02 -1.1654885235355414e-02  -3.3868024912024133e-02 -8.2167272801524360e-02 -9.4697008403687756e-03  -3.7843809214483000e-02 -8.5497586002531031e-02 -1.1221961185742708e-02  -3.4008957108160778e-02 -8.2842521991295409e-02 -9.7568307335055802e-03  -3.3842326054523503e-02 -8.1222761910252281e-02 -8.9009679792042811e-03  -3.6208724547276257e-02 -8.2591018623471305e-02 -1.2609653912024699e-02  -3.4311157080416078e-02 -8.1903710555447193e-02 -8.8477420803781334e-03  -3.7033172224317810e-02 -8.3957334886214194e-02 -1.2022887947395349e-02  -3.4654787708668637e-02 -8.2882737455929681e-02 -8.9219306663410620e-03  -3.7782447345179375e-02 -8.5689797361423320e-02 -1.1572975769699300e-02  -5.0095491963334855e-02 -8.0831569304027295e-02 -2.5087525626989224e-02  -5.0073248136961013e-02 -8.0890578228743154e-02 -2.4510265874698525e-02  -4.9943975334148329e-02 -8.0859739685079868e-02 -2.4455717642297797e-02  -4.9798217517083555e-02 -8.0956746978629923e-02 -2.4301540356329154e-02  -4.9718547962412027e-02 -8.1386800657880176e-02 -2.3758812025705438e-02  -4.9677903052106585e-02 -8.2229278460945784e-02 -2.3084172280248460e-02  -4.9621931882493489e-02 -8.3348798676980154e-02 -2.2545528426866263e-02  -6.2818279307363625e-02 -8.5097333656208682e-02 -4.2570196726151172e-02  -6.2744203392856079e-02 -8.5960767427945742e-02 -4.1684274718351677e-02  -6.6038885241501519e-02 -8.5687372824842692e-02 -4.5142134394474009e-02  -6.2634864497923451e-02 -8.6035626384236424e-02 -4.1783595040562421e-02  -6.1160720360942208e-02 -8.2010954549071688e-02 -3.6436420881502500e-02  -6.5858909679563080e-02 -8.5795605000516070e-02 -4.5177335416529074e-02  -6.2476280954526182e-02 -8.6225822317649539e-02 -4.1753727398039210e-02  -6.0886548511800927e-02 -8.2185006752477766e-02 -3.6318626661005937e-02  -6.5533251815103277e-02 -8.6913926256749902e-02 -4.4183369403809722e-02  -6.2222253642038004e-02 -8.7516034772627760e-02 -4.0595536086215529e-02  -6.0647824204392978e-02 -8.3105111747909813e-02 -3.5350981240986581e-02  -3.3126416087883491e-02 -8.0944467208743209e-02 -8.8165851576791666e-03  -7.0667825486181418e-02 -9.4221187801219575e-02 -6.6205184266686992e-02  -6.8176029241048181e-02 -9.1971190414648948e-02 -5.9181648843817304e-02  -6.4881264686691559e-02 -9.4503982008888820e-02 -6.1024250576512500e-02  -6.4952516130923885e-02 -9.6161638805851990e-02 -6.0020193433348384e-02  -6.8118040257791834e-02 -9.3516413449896349e-02 -5.8091942060235879e-02  -4.5785112796449812e-02 -8.0858117024377368e-02 -2.0544015130665273e-02  -4.5715005275888947e-02 -8.0842879767750772e-02 -2.0280692210504336e-02  -4.5573697971580361e-02 -8.0845752882832578e-02 -2.0309609148103411e-02  -4.5478995626876469e-02 -8.0923465987378693e-02 -2.0285066399293693e-02  -4.5436895438646638e-02 -8.1198598788765730e-02 -2.0109447432881265e-02  -4.5378180198842655e-02 -8.1777735635029339e-02 -1.9963852943899987e-02  -4.5246942270103993e-02 -8.2587789131202308e-02 -1.9950376004729192e-02  -3.9955298487006234e-02 -8.2998581313027661e-02 -1.5332109615062782e-02  -4.0291563543002014e-02 -8.2274186550822109e-02 -1.5845441760554489e-02  -4.2372777727702399e-02 -8.1988266924454684e-02 -1.7693238891303840e-02  -4.2393200339528044e-02 -8.1688778713915944e-02 -1.7584050824663498e-02  -4.0232968019863459e-02 -8.2022621129789183e-02 -1.5737818366304130e-02  -3.9831920499043744e-02 -8.2702007567854313e-02 -1.5456330991255251e-02  -4.2304767490538395e-02 -8.1566592914047165e-02 -1.7607002128564548e-02  -4.0173665719643425e-02 -8.1901206458415463e-02 -1.5833573089455519e-02  -3.9698471587389192e-02 -8.2586018266528394e-02 -1.5557051771534202e-02  -4.2213984584634795e-02 -8.1562194262942728e-02 -1.7633910666945703e-02  -4.0130799102189973e-02 -8.1885410627501126e-02 -1.5913897918539706e-02  -3.9561357399306843e-02 -8.2546078973719642e-02 -1.5686126798901502e-02  -4.2148588427397535e-02 -8.1721602007007857e-02 -1.7668334229820549e-02  -4.0089973454828731e-02 -8.2027644203712252e-02 -1.5962120230716269e-02  -3.9425553623362405e-02 -8.2607229415484304e-02 -1.5991320609747388e-02  -4.2032257637003315e-02 -8.2156039511175755e-02 -1.7797115452448480e-02  -4.0003668019844320e-02 -8.2436038252325428e-02 -1.6081453813438926e-02  -3.9243695159449400e-02 -8.2891922035444002e-02 -1.6487351220717664e-02  -4.1854059317775659e-02 -8.2791509137325220e-02 -1.8066158842166460e-02  -3.9853210507255488e-02 -8.3082943526219755e-02 -1.6351535043671171e-02  -3.9004475453009120e-02 -8.3340385337493564e-02 -1.7117788045950700e-02  -2.7992370164291559e-02 -8.9690390605183315e-02 -5.0572435687203819e-03  -2.5856941172002428e-02 -8.9981149401178601e-02 -3.2067939852629523e-03  -2.9993980966592962e-02 -8.7445989873266586e-02 -6.8116706858605608e-03  -2.9830785563423282e-02 -8.6870642147963292e-02 -7.5102166838544775e-03  -2.5625568325389453e-02 -8.9508547587290571e-02 -4.2647371566360715e-03  -2.7738000056469082e-02 -8.9143768720562622e-02 -5.9592050780529352e-03  -2.9683050734150330e-02 -8.6554413553869433e-02 -7.8832915252154811e-03  -2.5442688503969076e-02 -8.9227784767622234e-02 -4.8168031653753173e-03  -2.7526229606211577e-02 -8.8829548597153030e-02 -6.3608655742181065e-03  -2.9484852310128744e-02 -8.6355981937590670e-02 -8.2887431059091177e-03  -2.5205019515165721e-02 -8.8982281314339509e-02 -5.4023160672984471e-03  -2.7233770913631557e-02 -8.8601657029626316e-02 -6.8066339663025626e-03  -2.9222798290377737e-02 -8.6218909001091998e-02 -9.0704520641104198e-03  -2.4903190396700258e-02 -8.8773358336180608e-02 -6.4643979889651053e-03  -2.6859420052170704e-02 -8.8428187053349691e-02 -7.7167216254348751e-03  -2.8881923648354468e-02 -8.6228692698601922e-02 -1.0186123182768226e-02  -2.4487482732629351e-02 -8.8690116863338359e-02 -7.9563092863901320e-03  -2.6446867505466033e-02 -8.8402620405316365e-02 -9.0941294057737335e-03  -2.8443291846838529e-02 -8.6419863800173219e-02 -1.1439343963101751e-02  -2.3895004440234593e-02 -8.8752753247359734e-02 -9.5373697569562446e-03  -2.5915014286228773e-02 -8.8552398578603142e-02 -1.0548110239144566e-02  -3.6926842214617631e-02 -8.3974219110139428e-02 -1.2755050207113351e-02  -3.6877357935735842e-02 -8.3662194546540267e-02 -1.3074237648446427e-02  -3.6775929337911982e-02 -8.3517977464921372e-02 -1.3249182383580782e-02  -3.6635469276222403e-02 -8.3440779521914227e-02 -1.3458294672366184e-02  -3.6471878694021090e-02 -8.3441343655212122e-02 -1.3885358489535041e-02  -3.6257079351762145e-02 -8.3644016039463046e-02 -1.4539953925338300e-02  -3.5987905550121171e-02 -8.4043895351657627e-02 -1.5328184593652724e-02  -2.7621502866897581e-02 -8.8148037798866943e-02 -4.8579475378293857e-03  -2.7535083591641713e-02 -8.7488944814672120e-02 -5.7226023405766123e-03  -2.7470189275256057e-02 -8.7106727031119560e-02 -6.1881620229545494e-03  -2.7328307176488428e-02 -8.6845373214583840e-02 -6.6974704506353811e-03  -2.7111659772782459e-02 -8.6649082673413591e-02 -7.5773249948876383e-03  -2.6780696943351612e-02 -8.6586640365228992e-02 -8.7971320268580878e-03  -2.6293989017134162e-02 -8.6699915180547024e-02 -1.0149694283247959e-02  -2.9502192160626970e-02 -8.5021010272798000e-02 -6.5960746286390899e-03  -2.9692761010362282e-02 -8.4340114752091425e-02 -7.0574323941197045e-03  -2.9988619063906319e-02 -8.3902215240102135e-02 -7.5290527065359058e-03  -3.0236286713245204e-02 -8.3612700681153049e-02 -8.0330729219639900e-03  -3.0379655098564013e-02 -8.3451099475380777e-02 -8.6324647695347478e-03  -3.0358155356334005e-02 -8.3473867396701359e-02 -9.3872300556297854e-03  -3.0144820216740014e-02 -8.3701985698794584e-02 -1.0281601446163330e-02  -6.4420053327925414e-02 -9.1017795209173732e-02 -5.3984491422420892e-02  -6.4413537318335282e-02 -9.2611132298914406e-02 -5.2678420502282157e-02  -6.4541592268720804e-02 -9.2746278337521845e-02 -5.2807136188012124e-02  -6.8263263094968593e-02 -9.3555564965757856e-02 -5.8270200079007878e-02  -6.5176509582285380e-02 -9.6231110144781626e-02 -6.0253187515192076e-02  -6.4683815553752785e-02 -9.2724098608636216e-02 -5.3133805931844955e-02  -6.8431943496450223e-02 -9.3403001770154565e-02 -5.8617940348033408e-02  -6.5448205911756541e-02 -9.6030732312874192e-02 -6.0700688872706146e-02  -6.4637026063848829e-02 -9.3787708561003158e-02 -5.2545188917259594e-02  -6.8363153494473583e-02 -9.4398375938063661e-02 -5.8041246705545432e-02  -6.5565287706206801e-02 -9.6868453945611138e-02 -6.0352287912374535e-02  -6.4365753888428232e-02 -9.6187566793386761e-02 -5.0866310939905381e-02  -6.7978407995646167e-02 -9.6584968218639558e-02 -5.6446416391695738e-02  -6.5354788996100685e-02 -9.8933604222150612e-02 -5.8915462854967300e-02  -6.4112523493105755e-02 -9.8910171189581175e-02 -4.8868989291652849e-02  -6.7603892903713186e-02 -9.9120286621471335e-02 -5.4445296718181033e-02  -6.5214531557482650e-02 -1.0127321623650012e-01 -5.6952886391639958e-02  -6.0887306040487109e-02 -9.1293414936429229e-02 -5.0486828160516646e-02  -6.0887055863278340e-02 -9.2718006644443726e-02 -4.9416537962743187e-02  -6.1011983067231927e-02 -9.2860764529208994e-02 -4.9621078277720193e-02  -6.1139425227780507e-02 -9.2928566369032531e-02 -4.9902517462726066e-02  -6.1076452383833968e-02 -9.4242571960749588e-02 -4.9108193825302730e-02  -6.0914566954492454e-02 -9.6758198808004542e-02 -4.7321396590748070e-02  -6.0834168714631397e-02 -9.9600436476572324e-02 -4.5223420525887237e-02  -4.2836819716775013e-02 -8.2381231118713746e-02 -1.7914896974711884e-02  -4.2801274431435159e-02 -8.2026287553947461e-02 -1.7952716487399760e-02  -4.2663298031818196e-02 -8.1840507887676078e-02 -1.7963452252043953e-02  -4.2507297245774352e-02 -8.1776086812021406e-02 -1.8001738302729473e-02  -4.2377189683397425e-02 -8.1841435284252653e-02 -1.8163207047596563e-02  -4.2228861092113754e-02 -8.2138394455032904e-02 -1.8500303931792510e-02  -4.2031326265796552e-02 -8.2666892646966417e-02 -1.8982724571565704e-02  -6.1667148848564751e-02 -8.7884396148872626e-02 -4.5411381600282547e-02  -6.1694094435746465e-02 -8.9042670161628062e-02 -4.4440889850865396e-02  -6.1736676654370506e-02 -8.9189238676404145e-02 -4.4660240348954022e-02  -6.1720756241194080e-02 -8.9392963578193069e-02 -4.4793480768984810e-02  -6.1531656111315468e-02 -9.0824844207180497e-02 -4.3729170710344809e-02  -6.1315937538079117e-02 -9.3213319180875220e-02 -4.1943119934937032e-02  -6.1165653273511485e-02 -9.5955691267758533e-02 -3.9961609277649954e-02  -4.3937448389063452e-02 -8.2535814884604639e-02 -1.8565339527038746e-02  -4.3727739931231489e-02 -8.2249236816963320e-