<?xml version="1.0"?>
<VTKFile type="UnstructuredGrid"  version="0.1"  >
<UnstructuredGrid>
<Piece  NumberOfPoints="976" NumberOfCells="4173">
<Points>
<DataArray  type="Float64"  NumberOfComponents="3"  format="ascii">10.27356651637048 4.319828743558679 2.358382440224674  10.21359279215627 4.32133676225956 2.265529879762787  10.19863396400362 4.283379111967577 2.393747582619989  10.17965640463456 4.33544421484231 2.40959428517251  10.19339958324865 4.375127959269911 2.279456885206564  10.25346234790946 4.372827333096942 2.373278870223571  10.16102662180116 4.387622928212991 2.425341209123668  10.17362081552194 4.428988149800396 2.293285616341496  10.23376555733843 4.425858756814476 2.388067151688395  10.14258223310031 4.439832418547776 2.441023188711301  10.15409504546793 4.482824691961875 2.307035605870816  10.21431058688513 4.478846362788022 2.402766694116114  10.12415903249523 4.491987974415847 2.456673014682255  10.13464316845184 4.536563084433662 2.320731376813001  10.19493216806104 4.531712953119619 2.417404646583659  10.10558733471603 4.54399922261197 2.472317325697901  10.11508387863723 4.590115813479801 2.334385059974007  10.17546535832004 4.584356688105304 2.431986848531248  10.08667228633378 4.595761974287822 2.488007199088726  10.09519517157963 4.643370066563987 2.347995268948226  10.15572468999148 4.636638942253356 2.446528384572166  10.25220847933876 4.338582036304633 1.513752386824482  10.14336783038785 4.331954493910048 1.621781776658025  10.26027845163239 4.366907562698741 1.629653349419529  10.24225241697515 4.431229062149934 1.616532640680742  10.12586420424736 4.396314604043849 1.609341889855246  10.23549912427386 4.403448301860593 1.495291700279745  10.22473875683696 4.495401663270222 1.603521896470008  10.1087946349225 4.460610207189747 1.596948778628717  10.21922561861116 4.468245919427577 1.476943745927814  10.20753699671294 4.559386217584593 1.590549520738273  10.09199153817808 4.524783279293167 1.584568404729446  10.20322677820336 4.532893703818655 1.458658292381387  10.19048052480231 4.62315116289204 1.577567612528617  10.07529515858642 4.588804190898318 1.572167383108527  10.18734279175933 4.597340709250579 1.440385915394989  10.17338315597876 4.686649592230349 1.564504272108333  10.05853699500224 4.652641933159619 1.559718670842898  10.17139950385488 4.661542135690604 1.422067613438369  10.15590331993107 4.749846415798849 1.551386892948414  10.04152269317798 4.716279503271734 1.547198439681895  10.15513669380878 4.725478467217985 1.403675198670255  10.10991051949587 4.284100320420548 2.266890137897748  10.0912908849652 4.3376395722662 2.280636492539363  10.07303356545648 4.39129259896701 2.294286455527059  10.05495829234815 4.444996229199461 2.307876120673078  10.03691113103212 4.498682833373786 2.32144141077225  10.01871024169592 4.552274814721025 2.335019624975713  10.00014937706115 4.605660742924165 2.348624549402193  10.11690508424155 4.297437889250502 1.502514823399019  10.10091210667655 4.362989191429574 1.485728011799619  10.08532106522823 4.42845203666774 1.469020483591491  10.06994304091309 4.49380901153485 1.452346765615136  10.05464940825493 4.559033743074187 1.435673867722463  10.03930265474628 4.624101760110408 1.418972197005224  10.02374335150811 4.688996292053606 1.402195455666293  10.41339667894499 4.431220870996158 2.093513705097723  10.36495670393908 4.425425127587103 1.993461950860477  10.26073298611181 4.380728429977245 2.064421678572368  10.23979686676259 4.43903503721195 2.071864846042307  10.34705749708592 4.487142590942662 1.996740310769184  10.39582183856257 4.492067251135623 2.099335496691658  10.21947061734104 4.497240855458362 2.079223541283881  10.32969942676158 4.548623245526887 2.000028258580378  10.37874628179161 4.552639915478354 2.105136321733721  10.19947648977254 4.555282657821633 2.086516917548409  10.31267571463381 4.609812322880755 2.003308432064483  10.36199123822777 4.612922889918035 2.110914844111477  10.179605389013 4.61312772583329 2.093753589187566  10.29582226958392 4.670719068513698 2.006556101143644  10.34539036255364 4.672898162653038 2.116647992009308  10.15967922934923 4.670717881360609 2.10093031553219  10.27888892431617 4.731302086407481 2.009658436502262  10.32872020444279 4.73252915011342 2.122240502360932  10.13935733755861 4.727937678169457 2.108022612713676  10.26155116703805 4.791506455427248 2.012623877279582  10.31170353444002 4.791699986438841 2.127696891517671  10.59832488420312 4.539337146076259 1.754188255119081  10.61088288801217 4.524831603896759 1.617943214533159  10.69236862794999 4.547910585559328 1.699672708444127  10.62214627444999 4.455404472774101 1.631321088246295  10.61013734784674 4.470896558416358 1.761780843948682  10.68292649879121 4.617743282699881 1.689366217592252  10.58690743527792 4.607322644413246 1.746766347868286  10.36065330052441 4.40144556513866 2.188396514474979  10.33985681554614 4.458713811157328 2.199645600881365  10.3196682275378 4.515797342233432 2.210789761008439  10.29978491783939 4.572663280066175 2.221866634813583  10.28003044058384 4.629275080213525 2.232903384752183  10.26020063420587 4.685586879506096 2.243824058059623  10.2399825069185 4.741488760569752 2.254633412014173  10.28143002458531 4.402502068016292 1.918303482798483  10.26190489733716 4.464062001682903 1.919436504498096  10.24295155740762 4.52545206894543 1.920562082521193  10.22432140902451 4.586646555702508 1.921660803141379  10.20583961404645 4.647601463751977 1.922724545046586  10.1872967887721 4.708261529917093 1.923688598210334  10.16834376424841 4.768554942544057 1.924554107283664  9.82988938536654 4.265518696504096 1.883244591082174  9.789196938333424 4.257904621376162 1.777621041032954  9.696650413065058 4.244299953148792 1.851032447883822  9.686520353310428 4.307572296726192 1.85355883090693  9.777381723782227 4.322087704745865 1.777301290293323  9.816644918395466 4.327435900718652 1.886192719448414  9.676441577017375 4.370908350777144 1.855965813188521  9.765687771588254 4.386300123759754 1.776874200709169  9.803567786825909 4.389418555965507 1.889029338621665  9.666399620967542 4.434294788835982 1.858310820774559  9.754078205108891 4.450525910666314 1.776383777678796  9.790591768362578 4.451442536522325 1.891802853906838  9.656377710066025 4.49772717266961 1.860643527054621  9.742497211510798 4.514759585807226 1.77587198777068  9.777642744598314 4.513489365569528 1.894560734943593  9.646350929809651 4.561237753178891 1.863016456943554  9.730888931668025 4.579013597001833 1.775372226122023  9.764634663635176 4.575554191705608 1.897349397356845  9.63626987133847 4.624873223613929 1.865496401863033  9.719217286054656 4.64333690163394 1.774927791634264  9.751468043842324 4.637675420494706 1.90022529256114  10.52669422077291 4.446434269485303 1.692522653969826  10.51256269295991 4.513948471982584 1.682483035281518  10.49896306733065 4.580992594627584 1.672617985615199  10.6000153372627 4.593801637076085 1.604752178713387  10.4857139682903 4.647637472302585 1.662866019255115  10.58945171249323 4.662307229226211 1.591661904622325  10.57582033983722 4.674815444515141 1.739487663981489  10.47264426888201 4.713874388350561 1.653064778127639  10.57907927908873 4.730354795633717 1.578556107899102  10.56488730308672 4.741847346397121 1.73219695610588  10.45944169457116 4.779669142672213 1.643180770572696  10.56856937321119 4.797900267651783 1.565393502953429  10.55386343436328 4.808396647508595 1.724802836915744  10.44580896114433 4.844982366291751 1.633125212600145  10.55758554944624 4.864905106916687 1.552100743223195  10.5424234414015 4.874423663117083 1.717220785337598  10.06743620007448 4.298270148193093 2.388489388878352  10.04946196173671 4.349855267406185 2.404197152980035  10.03163539401807 4.401534441334302 2.419870421457751  10.01380575448613 4.453235239779017 2.435548755618924  9.995807322799834 4.504891831060535 2.451269738829164  9.977410100993945 4.556421399745187 2.467061663432547  10.19402553348503 4.297021069651896 1.427674194377788  10.17899653124337 4.361380415732214 1.403047755633393  10.16433945044198 4.425681428488844 1.378544770598367  10.14990555859217 4.489862883451361 1.354097318262167  10.1355661454433 4.553893007108742 1.329660792693061  10.12117187824201 4.617746109642188 1.305189616536775  10.10653738403085 4.68143867225604 1.280647484391596  9.738844015671141 4.365240197860174 1.978251422107041  9.72781124500457 4.425978737408825 1.984022357542194  9.716792511945085 4.486780674009149 1.989789903098682  9.705732229954435 4.547657613558409 1.995610039075652  9.694575936848526 4.608635390988877 2.00153757478441  9.7056999700701 4.243294433754 1.707365230654933  9.695597556172189 4.309254473667909 1.705032384896883  9.685562110802609 4.375212283116864 1.702581605957062  9.675575288907485 4.4411668452484 1.70007599581938  9.665612559904895 4.507128315322534 1.697553675241504  9.655648625798237 4.573115142303231 1.695052044554796  9.645674020118175 4.639159390027605 1.692616421029403  10.08902408794522 4.254683865402099 1.379782561778639  10.07659658454535 4.320004264103579 1.353919749078919  10.06441965986929 4.38528131671295 1.328171896239549  10.05240426039578 4.450485525473864 1.302468726160448  10.04045069770149 4.515584306308117 1.276760568182472  10.02844793140533 4.580561496172215 1.251004807904124  10.01632649283803 4.645421060093886 1.225156370679999  10.19260649877015 4.367619682003435 1.973992083052131  10.17139892684468 4.426901549393002 1.979104148374028  10.15076956814614 4.486145242030273 1.984131965390646  10.13043093839248 4.545294054753322 1.98911434311572  10.11019276551406 4.604289028533597 1.994046609899925  10.08985992226826 4.663055884012625 1.998905049883071  10.06915904274356 4.721483967015391 2.003704426060277  9.856461486110096 4.388366419323197 1.987460673284119  9.870953115830503 4.328655258796945 1.981117192190877  9.842093029860882 4.448132808925477 1.993745698874639  9.827755008708074 4.507927967694975 2.000018929766331  9.813342635699506 4.567739807418133 2.00
[...]
<PointData  Vectors="f_24"> 
<DataArray  type="Float64"  Name="f_24"  NumberOfComponents="3" format="ascii">-1.0526050932958619e-01 1.5026846486172676e-01 2.3677974490387967e-02  -1.0234662863546419e-01 1.4455715767561944e-01 2.2987343543658497e-02  -1.0454972241338822e-01 1.5665499856410559e-01 2.6621084329147005e-02  -1.0297976294519896e-01 1.5903395897605305e-01 2.2826353179807250e-02  -1.0104159745973589e-01 1.4653667093714060e-01 1.7880775893308234e-02  -1.0369853893427318e-01 1.5243922372293933e-01 1.9521874619076809e-02  -1.0175193668659760e-01 1.6068722112011122e-01 2.0053878061911074e-02  -1.0001431100624966e-01 1.4804237850134319e-01 1.4277581944501325e-02  -1.0247674409945370e-01 1.5396407174094290e-01 1.6528582168430037e-02  -1.0063598599822793e-01 1.6188799959669486e-01 1.8018442166609888e-02  -9.8971950053548349e-02 1.4930853001577127e-01 1.1436244057739990e-02  -1.0135020726091784e-01 1.5512217244108722e-01 1.4273402029911670e-02  -9.9221322509814747e-02 1.6313234643472313e-01 1.5462567893527941e-02  -9.7621927748209561e-02 1.5061931832595940e-01 7.9861024606694194e-03  -9.9913491869212570e-02 1.5633985431661557e-01 1.1542496479149685e-02  -9.7428518532395939e-02 1.6461171836980834e-01 1.1361747216957964e-02  -9.6162825491431306e-02 1.5207419621705098e-01 2.7229190363128835e-03  -9.8161113997330490e-02 1.5780165784793862e-01 7.1670061893018572e-03  -9.5393185603942679e-02 1.6577583925207715e-01 6.9239573893897545e-03  -9.4516566093304180e-02 1.5330279834703697e-01 -2.8993347960348196e-03  -9.6208160149757360e-02 1.5901517387001513e-01 2.5023712051203783e-03  -8.8358841145075417e-02 4.6576009532100969e-02 1.2813348446998354e-02  -8.8201425685181523e-02 6.2450505409733688e-02 1.3536621906603609e-02  -9.0188419940756048e-02 6.2521843238081992e-02 1.0977395935822427e-02  -8.9724027555970726e-02 6.0770434322136850e-02 5.1732301068211596e-03  -8.7597310793035399e-02 6.0765512014207067e-02 7.4777744192842241e-03  -8.7987410859345097e-02 4.4616522438547163e-02 7.4420743545778349e-03  -8.9015686454939777e-02 5.9854389899449058e-02 6.3418297250747891e-04  -8.6815320696473394e-02 5.9870815739772924e-02 2.7783721299150994e-03  -8.7356920895320211e-02 4.3500059063194992e-02 3.0127753811789912e-03  -8.8212106258601000e-02 5.8988841318651619e-02 -4.2881143939179434e-03  -8.5956689367165912e-02 5.8996821082567021e-02 -2.3035456792999788e-03  -8.6727285778340407e-02 4.2315802579497283e-02 -1.9430762324295209e-03  -8.7663273519082180e-02 5.7785978835404081e-02 -1.0371565909620652e-02  -8.5308091211878739e-02 5.7788803431739498e-02 -8.5561534826584674e-03  -8.6403572128790171e-02 4.0735460032531576e-02 -7.9921392259402740e-03  -8.7585836416281856e-02 5.6339841915502113e-02 -1.7724445177745518e-02  -8.5166377985659555e-02 5.6341621709436469e-02 -1.6179736281923988e-02  -8.6455616512422576e-02 3.9039455309911951e-02 -1.5018258990770205e-02  -8.7599772895757627e-02 5.5004607273078508e-02 -2.5417454723152759e-02  -8.5059088435672781e-02 5.5080551505049855e-02 -2.4196328096581992e-02  -8.6634602156520676e-02 3.7449715084415927e-02 -2.2447281547689841e-02  -1.0030019352020242e-01 1.4906425111533578e-01 2.6078083810992220e-02  -9.9114202224366704e-02 1.5107900009063246e-01 2.0782411394933243e-02  -9.8192832225238169e-02 1.5260502547200197e-01 1.7007172238128709e-02  -9.7242252537933158e-02 1.5386921854663510e-01 1.4017237489644055e-02  -9.5953148285311055e-02 1.5516704189045233e-01 1.0441302802005800e-02  -9.4617559476373417e-02 1.5656425383737924e-01 4.9382168483308314e-03  -9.3042831215784216e-02 1.5767304412352900e-01 -9.7958643945082790e-04  -8.6076648611848994e-02 4.6004359804660971e-02 1.5831673549227189e-02  -8.5568222313255837e-02 4.3995378932687186e-02 1.0192698701535713e-02  -8.4872950749559153e-02 4.2905713750843323e-02 5.5778506506284483e-03  -8.4150907636993053e-02 4.1804624658199153e-02 4.4281301188253621e-04  -8.3726010521709734e-02 4.0311074341938716e-02 -5.8388649979716585e-03  -8.3677166796321423e-02 3.8756897766628801e-02 -1.3148254587774232e-02  -8.3762124989870318e-02 3.7448285533074076e-02 -2.0904763429237725e-02  -1.0189087110561677e-01 1.1864706392155099e-01 1.1905645552897904e-02  -9.9020499503831433e-02 1.0839265365559193e-01 1.0651104806819219e-02  -9.8676042413635687e-02 1.2024420776056666e-01 1.5197746594666810e-02  -9.7724121419529186e-02 1.2108682884969069e-01 9.1136900194614331e-03  -9.8196421589820254e-02 1.0861828978094523e-01 4.6586113234697597e-03  -1.0089612226646565e-01 1.1919827182013953e-01 6.1957362494071914e-03  -9.6817860543625206e-02 1.2195173532670876e-01 4.8903212100181240e-03  -9.7309093649572631e-02 1.0907342400842139e-01 3.7289351389774853e-04  -9.9980404344505239e-02 1.1975315860191985e-01 2.1573083997261564e-03  -9.5703474364255595e-02 1.2283116379859899e-01 1.0464817144760731e-03  -9.6189729331618415e-02 1.0958588421911684e-01 -3.7422048430147867e-03  -9.8870105622651361e-02 1.2033648825331933e-01 -1.5429838014441504e-03  -9.4360182124653205e-02 1.2370834797340914e-01 -3.7898138011501739e-03  -9.5031020723157777e-02 1.1003520132825781e-01 -8.9804934888966098e-03  -9.7581053246973914e-02 1.2096193518588950e-01 -6.2193690744562664e-03  -9.3432829081615903e-02 1.2446596889467192e-01 -1.0518840002905001e-02  -9.4335088422384847e-02 1.1026695741176959e-01 -1.5845532280357202e-02  -9.6613028045927557e-02 1.2148046741296242e-01 -1.2503511997113968e-02  -9.2378269908829067e-02 1.2513056793839941e-01 -1.7464226943895333e-02  -9.3509515561857423e-02 1.1039440103170660e-01 -2.2885319938963894e-02  -9.5517376863033646e-02 1.2183225418633642e-01 -1.8892009957598408e-02  -9.9129387414844797e-02 7.5934158074617286e-02 -1.8620814993342488e-04  -9.7208486040098949e-02 5.9346685556605744e-02 1.4371959262161419e-04  -1.0026556349217013e-01 6.9214270007458611e-02 -5.1753685885394703e-04  -9.7425729781298834e-02 6.0789608340011653e-02 5.8348319673747189e-03  -9.9516952581446924e-02 7.7060849508977097e-02 5.8769885603710704e-03  -9.9733047740084790e-02 6.8463625858498064e-02 -5.1467309462439404e-03  -9.8528062464867547e-02 7.5442017058752336e-02 -4.7711249417690636e-03  -1.0292047541126365e-01 1.3048117660673308e-01 1.5402915627350668e-02  -1.0172958169018807e-01 1.3188126441300255e-01 1.0197979158092504e-02  -1.0074047628555163e-01 1.3300972944166048e-01 6.5846226468866485e-03  -9.9605027674858237e-02 1.3404616158873872e-01 3.4615461153413231e-03  -9.8149968690758010e-02 1.3521292172772065e-01 -7.2366543856272364e-04  -9.6886236670150533e-02 1.3639370159091097e-01 -6.4500987680697411e-03  -9.5488547105321800e-02 1.3744020603195867e-01 -1.2357774060674918e-02  -9.5902993814370063e-02 1.0089999487878858e-01 1.0975104633130436e-02  -9.5166629344534306e-02 1.0090131770629515e-01 4.8657461317175004e-03  -9.4296591183682610e-02 1.0127583494681082e-01 4.3191679214590639e-04  -9.3188376444547416e-02 1.0168451398006659e-01 -3.9974870759527581e-03  -9.2097793509456224e-02 1.0194787026528640e-01 -9.6370997206577363e-03  -9.1553783662097377e-02 1.0192665875613934e-01 -1.6998011198354809e-02  -9.0906411592055494e-02 1.0188325241932247e-01 -2.4548880014053722e-02  -8.6028774927484161e-02 1.0617924012365476e-01 2.1101550406715752e-02  -8.3571171749911688e-02 9.0707780599944957e-02 2.0364815306350998e-02  -8.2561768933984758e-02 1.0279367020689710e-01 2.1849921972442732e-02  -8.2467914520804778e-02 1.0258313632172396e-01 1.4435862575882967e-02  -8.3333814230307696e-02 8.9999829740639650e-02 1.2953828925269611e-02  -8.5783398109677306e-02 1.0604682549770340e-01 1.3853202486850090e-02  -8.2332651753174196e-02 1.0273412884444888e-01 8.8738442595375413e-03  -8.3042267972108549e-02 8.9807005892861488e-02 7.4532719993833808e-03  -8.5515767982706409e-02 1.0622333103849498e-01 8.5265566771968015e-03  -8.2055349066165906e-02 1.0285514201487096e-01 3.3705919303776027e-03  -8.2567211849211786e-02 8.9673051118918060e-02 1.8853327108122677e-03  -8.5039641991880147e-02 1.0641265707250716e-01 3.3432768735522931e-03  -8.1545657749016287e-02 1.0275099680731783e-01 -3.7147249147750465e-03  -8.1950729726616892e-02 8.9310495857776853e-02 -5.1334474530885417e-03  -8.4357616245186923e-02 1.0640803381536813e-01 -3.2935126819131572e-03  -8.0994584384620580e-02 1.0267729407893302e-01 -1.2464612328317472e-02  -8.1459579475702509e-02 8.8926566244583907e-02 -1.3746022206427028e-02  -8.3785534775869142e-02 1.0636996701955888e-01 -1.1706006881160929e-02  -8.0546683942958483e-02 1.0267853902288060e-01 -2.1693989212967040e-02  -8.1030956902788553e-02 8.8690591994099052e-02 -2.2859475735615253e-02  -8.3268006008716949e-02 1.0641714100164969e-01 -2.0587764021510361e-02  -9.6526583598936691e-02 6.8898471356868177e-02 6.4320517665024859e-03  -9.6150816348451101e-02 6.7599630726034490e-02 5.5643488740311667e-04  -9.5539432770465713e-02 6.7012738306350794e-02 -3.9728713512571694e-03  -9.6691766871357832e-02 5.8616662235609990e-02 -4.3861390152052501e-03  -9.4846830643682767e-02 6.6481005674247362e-02 -8.7911227579860300e-03  -9.6139532145341738e-02 5.7857672980642268e-02 -9.2885075162709111e-03  -9.7829044510174074e-02 7.5050385449097090e-02 -9.4953354662207570e-03  -9.4416130751182548e-02 6.5616737356818694e-02 -1.4817591928752788e-02  -9.5857720795858373e-02 5.6712994168729658e-02 -1.5355139167210778e-02  -9.7324451507912885e-02 7.4395821246528201e-02 -1.5364717185872890e-02  -9.4330756971648444e-02 6.4523561250843756e-02 -2.1904995758306851e-02  -9.5867982511818245e-02 5.5366775972803386e-02 -2.2315892814316427e-02  -9.7124549859171849e-02 7.3493726205385843e-02 -2.2322274489164802e-02  -9.4324201311689351e-02 6.3383073633545353e-02 -2.9252985345159445e-02  -9.5981223737568816e-02 5.3969465316323559e-02 -2.9537483768395895e-02  -9.6977865951844114e-02 7.2516133556659743e-02 -2.9513998152459604e-02  -1.0047532295728891e-01 1.6259426249664158e-01 2.5476970722785843e-02  -9.9378652067930145e-02 1.6438621180231183e-01 2.2404537505795095e-02  -9.8350876640677556e-02 1.6574080670071467e-01 2.0149640296873970e-02  -9.7022669814465182e-02 1.6706980351148015e-01 1.7469365561160053e-02  -9.5502858033182286e-02 1.6852155189824686e-01 1.3056896697973341e-02  -9.3701388015515738e-02 1.6963838823058319e-01 8.2103847962623627e-03  -8.6391463827487899e-02 3.5041001615507383e-02 1.5889487303625608e-02  -8.6053790630449239e-02 3.2840707580440415e-02 1.0929081798604971e-02  -8.5420315030016403e-02 3.1371524000554943e-02 6.6397699261785022e-03  -8.4866869205207890e-02 2.9727115465198684e-02 1.7731789491196002e-03  -8.4628374083569560e-02 2.7712897941138501e-02 -4.0863002972568192e-03  -8.4703077011817493e-02 2.5730356053930429e-02 -1.0741768548315923e-02  -8.4932546612465756e-02 2.3899075389382369e-02 -1.7830801238815260e-02  -8.5514887436553957e-02 1.2055307223146008e-01 1.1417221752468201e-02  -8.5222705935483659e-02 1.2096394522056962e-01 6.4643739962653686e-03  -8.4681035913719449e-02 1.2124001347867740e-01 2.3440704732858819e-04  -8.4050243539172800e-02 1.2154758781042524e-01 -8.0553196506806656e-03  -8.3492252485829477e-02 1.2182998496542770e-01 -1.6779758793869459e-02  -8.0761050378452659e-02 8.0287281940097696e-02 2.0431138405566037e-02  -8.0621220279673195e-02 7.9395023984847726e-02 1.3042026319810714e-02  -8.0360749205586529e-02 7.9127143424107038e-02 7.3914243725325011e-03  -7.9952914829850813e-02 7.8859755286619676e-02 1.4879591310869387e-03  -7.9428108963100055e-02 7.8290060263131900e-02 -5.9474099094324146e-03  -7.8973317634134108e-02 7.7784856832696037e-02 -1.4711895302248187e-02  -7.8621780003686345e-02 7.7466986475825492e-02 -2.3985607379517718e-02  -8.4266309877789616e-02 2.8982567692177878e-02 1.9019061478328145e-02  -8.3881597685872458e-02 2.6713095413412803e-02 1.4189482967828999e-02  -8.3235481241975925e-02 2.5216570456282394e-02 9.8352732161223234e-03  -8.2708763330461607e-02 2.3561022784618153e-02 4.8253577936495902e-03  -8.2498080327823242e-02 2.1569630511998623e-02 -1.1405327462427643e-03  -8.2564859325494483e-02 1.9690944665634275e-02 -7.8383005449253265e-03  -8.2712836827390959e-02 1.7981923028419559e-02 -1.4991332314282263e-02  -9.5389653651865705e-02 1.1075023581898934e-01 1.4534554102464759e-02  -9.4628266242556491e-02 1.1126765608469021e-01 8.2667631516863214e-03  -9.3808830515483638e-02 1.1196949596588009e-01 3.7960534778599228e-03  -9.2744869393424204e-02 1.1270861394275608e-01 -4.7560358330478138e-04  -9.1538390731564126e-02 1.1337459551675175e-01 -5.9485262308989623e-03  -9.0843900121937798e-02 1.1381697515522200e-01 -1.3271900407759146e-02  -9.0046645227856381e-02 1.1423536888882163e-01 -2.0859380753986384e-02  -8.8249322150768403e-02 1.1991573719134269e-01 1.0286632893717510e-02  -8.8591776831824259e-02 1.1936471617903703e-01 1.5415068682079895e-02  -8.7713773930549493e-02 1.2048244700152221e-01 5.5557321919505317e-03  -8.6938430320113128e-02 1.2091799960305884e-01 -3.7251477599417506e-04  -8.6277057295895188e-02 1.2132780800878960e-01 -8.3505999984562589e-03  -8.5607649578194542e-02 1.2173765953537818e-01 -1.6781555840774259e-02  -8.9186081716797622e-02 1.3440689736387626e-01 1.3615002846887013e-02  -8.9460452265644808e-02 1.3360198841168613e-01 1.8575332781056008e-02  -8.8761556680658216e-02 1.3513197511717545e-01 9.2175223646328557e-03  -8.8069191255168822e-02 1.3575886686272381e-01 3.6572111261989060e-03  -8.7304538052145372e-02 1.3643504359219877e-01 -3.9797204067481863e-03  -8.6522635717805343e-02 1.3706596274769364e-01 -1.2079611424929930e-02  -1.0251456597569193e-01 8.2078396953461252e-02 -7.3357722073427375e-04  -1.0124581696283631e-01 9.2107874912597754e-02 6.7152591893134602e-04  -7.7750729594006765e-02 8.6831531143825649e-02 -1.4316802061735768e-02  -7.7328459881733078e-02 8.6587235468104443e-02 -2.3763837555425014e-02  -8.3955024511838908e-02 3.9956864787009501e-02 1.8006887163543320e-02  -8.3391896825884701e-02 3.8226790205356680e-02 1.2559322622946536e-02  -8.2618881650169174e-02 3.7206865010081809e-02 7.7507602135560381e-03  -8.1920920282067392e-02 3.6047064657415667e-02 2.3221305772709146e-03  -8.1543660929747727e-02 3.4480163399639586e-02 -4.2848603468997161e-03  -8.1490179398886378e-02 3.2991228758235049e-02 -1.1743768365099900e-02  -8.1522902169660183e-02 3.1665249921670954e-02 -1.9676372232258373e-02  -9.4336536231375084e-02 5.8065253371355485e-02 7.2463366625512985e-03  -9.1926821491065569e-02 4.4460528355111571e-02 9.0072112620892143e-03  -9.1241275734078031e-02 5.6708395336567248e-02 9.4104164573719975e-03  -9.0983820367033702e-02 5.5057211562160500e-02 3.8682483377632721e-03  -9.1765333420277206e-02 4.2435386617196785e-02 4.0468649668652188e-03  -9.4015558967551136e-02 5.6486684530276242e-02 1.6807096662099352e-03  -9.0376806324711775e-02 5.4176895031237023e-02 -5.8258865134443508e-04  -9.1312975170759370e-02 4.1185259805480171e-02 -1.5433837491761978e-04  -9.3482343385309030e-02 5.5695128516807885e-02 -2.7566002843516300e-03  -8.9712325923359024e-02 5.3261960145854784e-02 -5.4864949324995894e-03  -9.0871002586011940e-02 3.9797009653695210e-02 -4.9356472933456642e-03  -9.2898067390902866e-02 5.4887578482823711e-02 -7.6353021213205734e-03  -8.9354759920304616e-02 5.1950952893384757e-02 -1.1566661434851131e-02  -9.0716896210095044e-02 3.8002463687645205e-02 -1.0765499492581466e-02  -9.2601266764936518e-02 5.3686478929582747e-02 -1.3693632822749695e-02  -8.9386803516715671e-02 5.0436688263207900e-02 -1.8700007198214453e-02  -9.0895960984070934e-02 3.6088199933025512e-02 -1.7417036616474511e-02  -9.2653695224243438e-02 5.2280005763474219e-02 -2.0711050643581440e-02  -8.9532846879050360e-02 4.8986186935609778e-02 -2.6160341424656591e-02  -9.1263456827369915e-02 3.4201778495532895e-02 -2.4384798267130855e-02  -9.2807613119865642e-02 5.0874358313701129e-02 -2.8023296712036211e-02  -8.2055890931142669e-02 2.8019171416981747e-02 2.1318182120621171e-02  -8.1357395927844703e-02 2.5737716238033989e-02 1.6318471433122091e-02  -8.0588083032569896e-02 2.4252156412555754e-02 1.1763689048306589e-02  -7.9984637650346982e-02 2.2597411140787286e-02 6.4711237162554652e-03  -7.9672368379069838e-02 2.0643572081000459e-02 2.1753527272632406e-04  -7.9617166464455977e-02 1.8863190190048056e-02 -6.7471241491970620e-03  -7.9729692960969156e-02 1.7298550451419301e-02 -1.4168724665187281e-02  -9.3731099816030478e-02 8.6366737539135666e-02 1.0193636376150851e-02  -9.0639494071003981e-02 7.4537135813161196e-02 1.1130687580472599e-02  -9.2602405333929633e-02 9.5264340111220022e-02 1.3292850880508928e-02  -9.1906079128498547e-02 9.4981291854496969e-02 6.8124850905568884e-03  -9.0083011329796306e-02 7.3581695525563082e-02 5.1346930131907454e-03  -9.3121270049899507e-02 8.5602543377280377e-02 3.9689862064591821e-03  -9.1108458984599155e-02 9.5140704048726848e-02 2.1389803354569408e-03  -8.9304660487411827e-02 7.3255957965637872e-02 4.6801764901300977e-04  -9.2320612528120155e-02 8.5435729607126587e-02 -6.1145693157715127e-04  -9.0084979002795967e-02 9.5367700409093953e-02 -2.5658832269953515e-03  -8.8361433522508054e-02 7.2921116420822246e-02 -4.5146040835335674e-03  -9.1309865657203934e-02 8.5366760293508509e-02 -5.3158087959531012e-03  -8.9029742382709554e-02 9.5422148437417489e-02 -8.4471440976211579e-03  -8.7637834906901010e-02 7.2239207529356211e-02 -1.0772551423161619e-02  -9.0435083715832282e-02 8.5081192563021435e-02 -1.1193801249645039e-02  -8.8571876932552029e-02 9.5154443779852466e-02 -1.6180974968800863e-02  -8.7445281282923906e-02 7.1269190862056436e-02 -1.8505422753673596e-02  -9.0119522726176210e-02 8.4448651100517982e-02 -1.8699128898992938e-02  -8.8053864934808046e-02 9.4926911196488883e-02 -2.4190574238513476e-02  -8.7247884679170426e-02 7.0366790283382344e-02 -2.6529320386725962e-02  -8.9757658352368805e-02 8.3829346730718415e-02 -2.6446360677771067e-02  -9.4435004899219119e-02 6.9779500248696169e-02 7.8097876277217733e-03  -9.4021241840793149e-02 6.8405911681231904e-02 1.8524806970596716e-03  -9.3354669466352805e-02 6.7774723922684521e-02 -2.6577530047584967e-03  -9.2589695633843158e-02 6.7218227510124712e-02 -7.4648766840245866e-03  -9.2067001972176626e-02 6.6346407443770197e-02 -1.3440033648227899e-02  -9.1964731497848243e-02 6.5216420221214086e-02 -2.0639308495069345e-02  -9.1927725543415453e-02 6.4098953554132476e-02 -2.8118349132892902e-02  -8.9641954877954996e-02 3.9669759607097593e-02 1.1925303028637816e-02  -8.9353059576525354e-02 3.7215470174371032e-02 7.0917783215732107e-03  -8.8864586436862861e-02 3.5647719989861749e-02 2.9811889185995385e-03  -8.8389378412404546e-02 3.4041109285723396e-02 -1.6682647483171075e-03  -8.8206403880290635e-02 3.2079662046414839e-02 -7.3126192776287128e-03  -8.8376846685669946e-02 3.0024155987069843e-02 -1.3781272409132864e-02  -8.8740937849978371e-02 2.8090721934870347e-02 -2.0649743087890669e-02  -1.0175541223669091e-01 9.2782417395562658e-02 6.8171532059282088e-03  -9.7513330324048755e-02 8.1510881775715679e-02 6.8611708874817033e-03  -9.7010438344460367e-02 8.0662161605045427e-02 8.0533794064069461e-04  -9.6300804365690704e-02 8.0397596245998793e-02 -3.7401236741041229e-03  -1.0059491601120826e-01 9.1876778708087803e-02 -3.8374792024311907e-03  -9.5467673768194747e-02 8.0211884511769554e-02 -8.4186201455100119e-03  -9.9790537748278244e-02 9.1785507103738201e-02 -8.2535435848478198e-03  -9.4846249061733320e-02 7.9762549238790795e-02 -1.4309116053373649e-02  -9.9068272848785513e-02 9.1560652092985417e-02 -1.3681334254447078e-02  -9.4586058285046917e-02 7.9066687597159208e-02 -2.1423008208835609e-02  -9.8621115125508516e-02 9.1110008715348537e-02 -2.0366259628718995e-02  -9.4344060514876649e-02 7.8302443407172337e-02 -2.8774993767226406e-02  -9.8215135156171210e-02 9.0549781893869793e-02 -2.7208804968862275e-02  -9.9776363435600354e-02 9.5273933181508744e-02 7.9163859462573448e-03  -9.7558905118868319e-02 9.5922333637139479e-02 9.0916387513645270e-03  -9.6858375233970367e-02 9.5424314175997935e-02 2.8648489566552682e-03  -9.9135900436878449e-02 9.4774161033355189e-02 1.7603787092633899e-03  -9.8368061177624408e-02 9.4701850357149717e-02 -2.7266160455246247e-03  -9.6026986135142