<?xml version="1.0"?>
<VTKFile type="UnstructuredGrid"  version="0.1"  >
<UnstructuredGrid>
<Piece  NumberOfPoints="691" NumberOfCells="2863">
<Points>
<DataArray  type="Float64"  NumberOfComponents="3"  format="ascii">9.266978080709009 4.166478734772276 1.461046206063056  9.181768326342784 4.153615163234046 1.421440012136226  9.229812892498522 4.183596148910432 1.545720100192326  9.225001213600809 4.254451996702117 1.5337098141396  9.17400880206511 4.22344805382868 1.39674741981919  9.263232953275427 4.237649187408688 1.443965941454983  9.166191513624447 4.293112367824737 1.372141042290828  9.259310704723765 4.308623509436723 1.426907863363632  9.220046346096956 4.325110014086564 1.521687216944611  9.158361504909907 4.362663866517195 1.347575475591854  9.255343013428973 4.379477167119222 1.409873776556618  9.215048862955515 4.395650355535002 1.509669553804112  9.25138991077514 4.45025554072018 1.392837444509859  9.150549658893723 4.432124608178785 1.323006380251303  9.210072711207522 4.46610708926888 1.497648021670934  9.247514519552405 4.52096626322079 1.375778919970283  9.142773484578768 4.501502849637824 1.298418775276526  9.205180501720591 4.536489008118264 1.485609917042559  9.243839590198354 4.591600647925072 1.358677650669061  9.135065068563895 4.570767056322967 1.273755527870728  9.200454247405888 4.606764068328688 1.473540843889851  9.078913286895306 4.16165421612941 1.489446513310811  9.07010785135207 4.232318779340733 1.470506054456137  9.061302524302999 4.302757400917685 1.451647329064017  9.052494317521505 4.37307347295324 1.43281795448255  9.043700879581515 4.443286948769023 1.413993711230907  9.034930542952448 4.513396199521337 1.395162265350292  9.026205595900121 4.583375777423039 1.376273204786125  9.294722774279311 4.208211191337699 1.749695975338284  9.2104481692815 4.197333567121889 1.679975920714307  9.190407154156381 4.200536118044696 1.825006859217305  9.205290287195359 4.266454280784588 1.674398354426392  9.290086918643807 4.275801904637608 1.747284514415678  9.185551913090061 4.267215324975228 1.825296868020789  9.200033266960022 4.335414225812032 1.668770025871608  8.683155376348319 4.219099077054966 1.220058798470216  8.827884197498031 4.235425881426727 1.186186468852436  8.758456028126442 4.284192741003763 1.331191999675409  8.839770892509003 4.171169007916782 1.224927231872021  8.745426700641245 4.350715430956195 1.301289389688614  8.6696699985309 4.283333203400014 1.183624049932796  8.816003224131565 4.299599006256977 1.147437643468715  8.732361280168684 4.417132087565784 1.271357068380946  8.65612558779036 4.347471305162714 1.147147122598396  8.804101812288026 4.36366875774703 1.108643810504473  8.719218027825645 4.483413407854802 1.241357975936073  8.642482539226501 4.411480306567133 1.11060100367805  8.792168465629654 4.427596792242667 1.069780233564092  8.738149600309036 4.224469993036029 1.059754964159451  8.726027758900386 4.285462552193581 1.015514329784024  8.713855593860739 4.346325381173418 0.9712051344655859  8.899423312899888 4.089963643106974 1.389037022420234  8.863713397737618 4.042471805275261 1.302634377542037  8.797870702052752 4.083990365694747 1.421130434442841  8.886550248088632 4.156990641374469 1.357552877277795  8.851699482370449 4.106844196563225 1.26371754011219  8.784602704513889 4.150843498321073 1.391042412136392  8.873817110678383 4.223884167561258 1.326220950510992  8.771493836647528 4.217572563826119 1.361092085009697  8.861132847408005 4.290668652625956 1.294956135853485  8.848455533801751 4.357354369214433 1.263698095991884  8.835747913096137 4.423935841610719 1.23242074301525  8.822987966159559 4.490358895093486 1.201070034248767  9.709830332307032 3.823794050567598 0.9666357003417865  9.648245283248556 3.738219022088 0.9239155636741019  9.608621889501141 3.864054239279523 0.998680770138634  9.601288879938801 3.904555484004125 0.9344596655269886  9.639941735129559 3.767121951864278 0.8541595108126332  9.701136737130337 3.862253395761769 0.9018319396412059  9.593936413697417 3.945249395865455 0.8702637222390762  9.631645699387761 3.79621101891022 0.7843447833088278  9.692480433752417 3.900938489328498 0.8370236278065858  9.586558469922828 3.98598088538804 0.8060250242517496  9.623327025215527 3.825320396222184 0.7144454098117563  9.683811352705836 3.939672059923775 0.7721549639800285  9.579183068914251 4.026680416895712 0.7417097559662353  9.614998544718492 3.854383288390539 0.6444440506760259  9.675130852505237 3.978368932574671 0.7072028900948495  9.571824812665158 4.067290767891915 0.6772755531127559  9.606663788232426 3.883354071905691 0.5743098426542146  9.666439327454837 4.016973240235358 0.642139506382797  9.56449635840271 4.107773272330491 0.6126683513218356  9.598282579136688 3.912192064629251 0.5040106042991095  9.657714702716882 4.055445406162093 0.5769343914440616  9.538555251148633 3.783715555751105 0.9618255678226483  9.510815287288803 3.895726327641137 1.029454562679061  9.504306686969974 3.940644754516817 0.9676687629886903  9.532127044442841 3.818292451933417 0.8942039767592611  9.525647576581834 3.853069766844835 0.8265556567622815  9.497746637752497 3.985731987535129 0.9059455079287062  9.519132087081164 3.887877311962308 0.7588468551999074  9.491166847574698 4.030848682172453 0.8442064428207182  9.512619532575632 3.922650601423812 0.6910521802925285  9.484592737314092 4.075925379686264 0.7823980704357012  9.506134174363089 3.957334689941288 0.6231387383706997  9.478047760834281 4.120920302916597 0.7204733530201353  9.499696902194195 3.991894993408811 0.5550499522560182  9.471564862000713 4.165816831685881 0.6583762441264802  8.796574917870386 4.166368268121022 1.850851217974751  8.719919132249931 4.152904660122931 1.794591231864059  8.723321498961889 4.152163229176669 1.926033418069189  8.712639183924978 4.217404211189915 1.928520592516314  8.708258436122239 4.220313949560812 1.791235039112954  8.787769572666772 4.233409780314817 1.850736184414538  8.70214422402012 4.282555332323667 1.93088684786759  8.696795157007658 4.287603165878878 1.787824026852651  8.779053010933282 4.300303070670605 1.850544980404059  8.691722605182589 4.347653466340859 1.933198553771972  8.685412079488035 4.354815336990406 1.784374709211566  8.770387840613509 4.367099574895423 1.850312161419813  8.681301816342778 4.412692175050164 1.935495412548981  8.674033862325771 4.421954645016602 1.780905049851992  8.761737622610747 4.433811464613532 1.850060412248325  8.67083811151992 4.477642822862125 1.937798547521032  8.662606442279671 4.488996241182797 1.777424933046381  8.753076848068313 4.500420788786998 1.849808299064806  8.660260122141178 4.542455173406615 1.940159044133524  8.651067576285492 4.555876916476093 1.773970772144613  8.744385296558569 4.566869566495347 1.849580261006246  9.043590744131656 3.866958877111269 1.064997055030277  8.947167805563049 3.827052890821494 1.052370146324632  8.990888717017571 3.93336324111574 1.132438396224678  8.980800312447553 3.988286332906864 1.078490857238169  8.937891653525924 3.873147037185807 0.99035534581558  9.034554934055157 3.915502220735912 1.004895588240891  8.970724464316069 4.04326518491498 1.024682073814245  8.928623904595911 3.919323813320463 0.9284327611646725  9.025509939130059 3.964131042062676 0.9448913276598406  8.960658398187778 4.098223245013783 0.9709104302362989  8.919361636107967 3.965509834271912 0.8665197241212231  9.016466288604068 4.012762854803007 0.8849006886806656  8.950607037789737 4.153117412332026 0.9171105300030575  8.910108351477772 4.011642532321253 0.8045607386549384  9.007434435086505 4.06133948950404 0.8248666353196797  8.940581236865553 4.207913725778146 0.8632364241261231  8.900865337093773 4.057673055539949 0.742523482621236  8.998421168077163 4.109822460775131 0.7647465840127869  8.930589638262663 4.26257700696941 0.809261245398049  8.891646794787485 4.103555939199389 0.6804002366207983  8.989436354967937 4.158182444411028 0.7045128646443368  8.842901426580767 3.770410619043695 1.025453186740764  8.875701378479276 3.882488613914201 1.10455672308285  8.865349311605193 3.933817665185955 1.047108609963635  8.833721186359398 3.813137503701165 0.9612338366006793  8.824543919319051 3.855954275671911 0.897058169870557  8.855020323126148 3.985223243428516 0.9897832954134075  8.815371036204086 3.898776301289066 0.832871367413286  8.84470948784427 4.036614064244077 0.9324734625458621  8.806211484107331 3.941548010463563 0.7686310776995272  8.834409605466311 4.087942435660947 0.8751226762354919  9.432345574224049 3.8203518335938 0.9875794687387893  9.395391875686801 3.931094839295046 1.072553006421088  9.388826719404895 3.98075349843683 1.014172751681648  9.427859642551672 3.860054507886101 0.9218881955256293  9.382195154955998 4.030529058320423 0.9559018598278701  9.423268131377219 3.899916153100482 0.8562297956124293  9.375547052563702 4.080321091139726 0.8976421031954049  9.418641850907116 3.939813879104487 0.7905339899644945  9.368909047343942 4.130068194020864 0.8393295849871175  9.414020206639231 3.979669847985443 0.7247549579756369  9.362307666092075 4.179727065058089 0.7809231796683793  9.409444087168223 4.019432669489522 0.6588554637771129  9.355804531947705 4.229265444255497 0.7223962698607239  9.404990814299405 4.059064023453939 0.5928020155627048  9.07340639322056 4.110099478367309 1.369379224055645  9.063119245593668 4.176841265235828 1.336136776372936  9.052881608443963 4.243430561284811 1.30309272459673  9.042661448359286 4.309893941094677 1.270113701900796  9.032448422180154 4.376249349470234 1.23713876862954  9.022237577212415 4.442490783819288 1.204135272193944  9.012076903186184 4.508595316845886 1.171044664011972  8.574919134237067 4.398993641437129 1.842880482666132  8.562378775829478 4.464680087483766 1.841302904724187  8.549673812032086 4.530219530513143 1.839779008114433  9.324097170476771 3.859379242360984 1.02061914239648  9.317609537403381 3.904607741469283 0.9581962908820878  9.311049204360735 3.949970918529195 0.8958537180129998  9.30446730417788 3.99536186
[...]
<PointData  Vectors="f_24"> 
<DataArray  type="Float64"  Name="f_24"  NumberOfComponents="3" format="ascii">-1.0651580930622061e-01 4.8754463958970845e-02 2.3313949086828423e-02  -1.0216332518162617e-01 3.9659552915414072e-02 2.4019336611400231e-02  -1.0615957539246212e-01 6.4432846328248541e-02 2.1225453455367478e-02  -1.0611369493098982e-01 6.3230583537950968e-02 1.3482147624576061e-02  -1.0243280276994027e-01 3.8489272971173501e-02 1.7447345682508227e-02  -1.0653863631503781e-01 4.7046473509097679e-02 1.6049875111440345e-02  -1.0253309137304811e-01 3.7567009099678549e-02 1.1060860285739745e-02  -1.0660611984958461e-01 4.6453258509560003e-02 9.8380246798914304e-03  -1.0627564659277651e-01 6.2911879175169577e-02 7.1606390673281776e-03  -1.0258493912901784e-01 3.5839188147890381e-02 3.5099146762500714e-03  -1.0663244716805567e-01 4.5421003512541219e-02 2.4516368111690378e-03  -1.0633626687962962e-01 6.2253413750216591e-02 -2.1522272255274254e-04  -1.0664907829106632e-01 4.3762622830883183e-02 -6.5829285620843912e-03  -1.0259603690193550e-01 3.3511975366792200e-02 -5.3684586594451786e-03  -1.0626201147883020e-01 6.0917514843481908e-02 -9.5568660048709637e-03  -1.0655054885737959e-01 4.2277657243456813e-02 -1.6695202089540128e-02  -1.0259459347101087e-01 3.1389365890529902e-02 -1.5076439678808635e-02  -1.0607373861652712e-01 5.9711811051541171e-02 -2.0164125809225483e-02  -1.0627748531600954e-01 4.0960489020882881e-02 -2.7353904772193040e-02  -1.0251428053551756e-01 2.9249918248350656e-02 -2.5277682077302393e-02  -1.0578722646061559e-01 5.8597031867864101e-02 -3.1295702886916930e-02  -9.8855736721727913e-02 5.2557312393703287e-02 2.2163860475969899e-02  -9.9189504807072851e-02 5.1593297404167987e-02 1.4945946202806945e-02  -9.9433054175596516e-02 5.0968709855591779e-02 8.3362376624111691e-03  -9.9546187320813620e-02 4.9710207356721971e-02 6.1925150154625280e-04  -9.9571154332228212e-02 4.7775574251182500e-02 -8.7294767974529820e-03  -9.9567779103903242e-02 4.5963070014522163e-02 -1.9024589826256606e-02  -9.9560536438905778e-02 4.4143922693552280e-02 -2.9773887363929257e-02  -1.1052477678250056e-01 1.0366205518323839e-01 2.0808737236252671e-02  -1.0667808997724987e-01 9.0477726585036139e-02 2.0468796526191161e-02  -1.0693410063060162e-01 1.1791183792279564e-01 2.1818831797678410e-02  -1.0690027658296500e-01 8.9488425738238425e-02 1.2156159107298689e-02  -1.1087265492010269e-01 1.0303192089175245e-01 1.2561802243063110e-02  -1.0738593739471736e-01 1.1743334074857761e-01 1.3254182077789837e-02  -1.0710559432396816e-01 8.9392027418632614e-02 5.8641536627888286e-03  -8.5745957541427872e-02 1.9291873179851239e-02 1.6761419609170086e-02  -9.0512041090190745e-02 1.4287818688552037e-02 1.5620330307851191e-02  -8.8385159586813047e-02 3.5205309251886703e-02 8.7764339093891475e-03  -9.0007510165908328e-02 1.7252791841185125e-02 2.2075959595364413e-02  -8.8776513957482664e-02 3.2034102421683773e-02 6.2022251348874027e-04  -8.6351309940763815e-02 1.5877624848905425e-02 9.3524029474863126e-03  -9.1057385843717517e-02 1.0932714496917373e-02 8.3107004639538205e-03  -8.9268492842692213e-02 2.8922886031256589e-02 -8.4821164523335938e-03  -8.7098333449363144e-02 1.2581701549166671e-02 1.1125095412693928e-03  -9.1675465998911826e-02 7.7256676056311792e-03 2.2165820312983954e-04  -8.9774657454460685e-02 2.5885512874264358e-02 -1.8162466129586118e-02  -8.7925177568313764e-02 9.2808516730848792e-03 -7.7039764610645897e-03  -9.2235119252152040e-02 4.3843516935798185e-03 -8.2959943201439054e-03  -8.8780293161545704e-02 5.1886660352056966e-04 1.7179752103684203e-02  -8.9630873122960794e-02 -2.7298141060265089e-03 9.9689040363394495e-03  -9.0497928291651319e-02 -6.0530972302422995e-03 2.2279984156513971e-03  -9.0501117291033217e-02 3.7397461821981226e-02 2.8052461816208091e-02  -8.8622039311436113e-02 2.2464122978027749e-02 3.3389762759698752e-02  -8.7352955439963825e-02 4.3566621993346606e-02 2.8069673973011973e-02  -9.1101956948249269e-02 3.4172806384272038e-02 2.1690384126832885e-02  -8.9419028085401531e-02 1.9628625707867758e-02 2.7634787985229590e-02  -8.7690730188044949e-02 4.0169625301918102e-02 2.1515061909184889e-02  -9.1505080446022832e-02 3.1961970184924894e-02 1.5830479330833164e-02  -8.8043266301718937e-02 3.7868320556279797e-02 1.5703799862741605e-02  -9.1818833718614670e-02 2.9332671168391614e-02 8.9060230507417397e-03  -9.2128040238352346e-02 2.6221440001960427e-02 8.2213823619899909e-04  -9.2521375546040660e-02 2.3243516019898530e-02 -8.1365316884847456e-03  -9.2911470252488262e-02 2.0290149784682989e-02 -1.7621991714614801e-02  -1.1592448666419281e-01 -1.8716194713867342e-02 4.0513517374248451e-02  -1.1296035426278674e-01 -2.3795146594656476e-02 4.3506938764946712e-02  -1.1291187961862492e-01 -1.6924944719096963e-02 4.2284841915693518e-02  -1.1317440320742317e-01 -1.8621156178656281e-02 4.0722005787117585e-02  -1.1379444212803190e-01 -2.4247353886722479e-02 4.2245633074764644e-02  -1.1635203119282121e-01 -2.0318302385583114e-02 4.0035700812100637e-02  -1.1378285456230690e-01 -1.9932797857250672e-02 3.8790031007207591e-02  -1.1474154431606028e-01 -2.4474422578914742e-02 4.0794840813232383e-02  -1.1689958642489857e-01 -2.1395470128935060e-02 3.8796769817827578e-02  -1.1461406811596909e-01 -2.1340033010609678e-02 3.6425799576427997e-02  -1.1591313723099485e-01 -2.4530178084343619e-02 3.9227597639689499e-02  -1.1772392379427235e-01 -2.2377638084119106e-02 3.6996396178915800e-02  -1.1553956089498989e-01 -2.2722174842217283e-02 3.3654804882136173e-02  -1.1717471600233369e-01 -2.4498525676125961e-02 3.7350858184061315e-02  -1.1870507148870740e-01 -2.3269455577026605e-02 3.4732629341695388e-02  -1.1653231866437991e-01 -2.3760285527317054e-02 3.0105631350453160e-02  -1.1856487034062999e-01 -2.4208737516436284e-02 3.4730630439355557e-02  -1.1984180273038725e-01 -2.3811130789045003e-02 3.1667039627660029e-02  -1.1752173535130678e-01 -2.4638797316390643e-02 2.5932620130442022e-02  -1.2015025983327222e-01 -2.3732592849863624e-02 3.1678814726414484e-02  -1.2116177862772690e-01 -2.3995214281965247e-02 2.7853253016000400e-02  -1.0986805529224873e-01 -2.0954903947730502e-02 4.3881905908355244e-02  -1.0952259458422071e-01 -1.4384320302209434e-02 4.2554439118290849e-02  -1.0995644253004010e-01 -1.6174561080275224e-02 4.0254553163685862e-02  -1.1050353087952924e-01 -2.2112734430080754e-02 4.2823833745403453e-02  -1.1137003125384731e-01 -2.3032063009267287e-02 4.1401109493576185e-02  -1.1063412616694750e-01 -1.7786409591264263e-02 3.7790785909927162e-02  -1.1249732319247202e-01 -2.3859932963981333e-02 3.9615238939008354e-02  -1.1148076185193639e-01 -1.9615043910727045e-02 3.4886895063898700e-02  -1.1367091585101308e-01 -2.4600334654541155e-02 3.7424828932806645e-02  -1.1238752654701417e-01 -2.1449938320017976e-02 3.1543999137451074e-02  -1.1484852908563961e-01 -2.5044525105111595e-02 3.4452072846883071e-02  -1.1326684555968658e-01 -2.2942915357652752e-02 2.7418675596443572e-02  -1.1599750061799810e-01 -2.5235795705543101e-02 3.0744665350636458e-02  -1.1399663274569836e-01 -2.4320650617775993e-02 2.2780973830317908e-02  -9.1584898687507243e-02 1.2297286195974845e-01 2.1629333640565331e-02  -8.8135194441585810e-02 1.1301401078047639e-01 2.1730127586191323e-02  -8.9092578008143769e-02 1.3769237396204670e-01 2.3878732481134524e-02  -8.8568931594719971e-02 1.3773016207082767e-01 1.5356083372833125e-02  -8.7750411531995573e-02 1.1246270804533130e-01 1.3358508535254556e-02  -9.1346506853262607e-02 1.2276384077013727e-01 1.3193997550827077e-02  -8.8145232409027358e-02 1.3836447429183610e-01 9.4793276975047216e-03  -8.7452500811647654e-02 1.1269373867657967e-01 7.1225093217783452e-03  -9.1166326907866926e-02 1.2322580400766688e-01 7.0388313930467043e-03  -8.7837048568580198e-02 1.3900452201019753e-01 3.5839657911991701e-03  -8.7258397857222766e-02 1.1282180779427706e-01 4.0356708670946846e-04  -9.1079165850065341e-02 1.2364438474361600e-01 6.2281680285524105e-04  -8.7759185768281414e-02 1.3933331996248480e-01 -4.7567487735082114e-03  -8.7267206068042100e-02 1.1242886067202160e-01 -8.7048926926985241e-03  -9.1109486703015621e-02 1.2367323919277962e-01 -8.2682621247941439e-03  -8.7807266157799907e-02 1.3964585201277646e-01 -1.5527963643549143e-02  -8.7445555270945288e-02 1.1188708040111546e-01 -1.9744216010633510e-02  -9.1146069369891072e-02 1.2363599557129279e-01 -1.9244499709966889e-02  -8.7756715761847501e-02 1.3985760317168563e-01 -2.6478311154621546e-02  -8.7538030208910531e-02 1.1126179573449703e-01 -3.1102215364684695e-02  -9.1132971954553443e-02 1.2348917968401404e-01 -3.0475811283157427e-02  -9.4264338726883945e-02 -1.0555501643077307e-02 4.5592517794070545e-02  -9.1766189193175640e-02 -1.2000099187586141e-02 4.7912588073072443e-02  -9.3169882570221296e-02 -2.9666768030299473e-03 4.2482832686422833e-02  -9.3482848454372214e-02 -5.6006451778785197e-03 3.8892290017130855e-02  -9.2370189289632573e-02 -1.4765127971227641e-02 4.6028255647302688e-02  -9.5040425222096159e-02 -1.3248217585699334e-02 4.3176642213739909e-02  -9.4144288198720172e-02 -7.9500565440990788e-03 3.5048364915688586e-02  -9.3107042495865724e-02 -1.7071163387621768e-02 4.3570602874161847e-02  -9.5923499855386785e-02 -1.5505312461670155e-02 4.0362817552828091e-02  -9.4883797904362396e-02 -1.0779179958254946e-02 3.0477976365442742e-02  -9.4092082755766332e-02 -1.9477185304877891e-02 4.0465680438308928e-02  -9.6871494961099383e-02 -1.7975521211600745e-02 3.6897525713505117e-02  -9.5705776368275500e-02 -1.3770505109123173e-02 2.5366937848244137e-02  -9.5205202241751066e-02 -2.1907155033326551e-02 3.6829009193097624e-02  -9.7875576847485407e-02 -2.0487994981422279e-02 3.2895221741527106e-02  -9.6553241386645172e-02 -1.6551181205734705e-02 1.9516858436366909e-02  -9.6437696908994758e-02 -2.4135891431179102e-02 3.2407943889675085e-02  -9.8928147897843294e-02 -2.2775389954452895e-02 2.8119880566785008e-02  -9.7323706335309554e-02 -1.9413885125087918e-02 1.3237310868389012e-02  -9.7703575370680612e-02 -2.6368418175956566e-02 2.7445017612509476e-02  -9.9943420673276245e-02 -2.5085075079210772e-02 2.2945571764008792e-02  -8.8566359724898555e-02 -1.5464775581195845e-02 5.2596739237914927e-02  -8.9064355221218972e-02 -6.1279203624383530e-03 4.6755349325382979e-02  -8.9880293333581052e-02 -8.8395264493789476e-03 4.3346732385408981e-02  -8.9330527589682435e-02 -1.7727313224751243e-02 5.0418145721825791e-02  -9.0271342216753411e-02 -1.9742648455340787e-02 4.8103899244564700e-02  -9.0657124841261136e-02 -1.1379781711353853e-02 3.9886520502983372e-02  -9.1372170443677320e-02 -2.1863841626560600e-02 4.5349389631035519e-02  -9.1557011266875876e-02 -1.4231207545752522e-02 3.5848829139969333e-02  -9.2618209904791540e-02 -2.3988149661295931e-02 4.2137945803293907e-02  -9.2558071922373128e-02 -1.7165805109709695e-02 3.1285790572311421e-02  -1.0615977325763463e-01 -1.8824471440341484e-02 4.5070881939254487e-02  -1.0487134099513835e-01 -9.3287296958780488e-03 4.1457930434286312e-02  -1.0593030015619755e-01 -1.1879932012869986e-02 3.8712494036909469e-02  -1.0710654344295077e-01 -2.0213898733732059e-02 4.3215477005475532e-02  -1.0686631307518851e-01 -1.3997370448579417e-02 3.5757079766733951e-02  -1.0815992614736966e-01 -2.1481294603547398e-02 4.1220424547732067e-02  -1.0771024326639067e-01 -1.6350583745017074e-02 3.2220148920643073e-02  -1.0935264116733054e-01 -2.2809304369168636e-02 3.8846197618069275e-02  -1.0853070232745322e-01 -1.8729177900781189e-02 2.8183344596595796e-02  -1.1052195535626126e-01 -2.4090416720100181e-02 3.6068576831403319e-02  -1.0928849751215514e-01 -2.0761813017860890e-02 2.3394618166476509e-02  -1.1160418773921962e-01 -2.5072624763042919e-02 3.2513706169274029e-02  -1.0984144778785242e-01 -2.2644596962428550e-02 1.8077948914870960e-02  -1.1240743744285109e-01 -2.5933594055970281e-02 2.8428339744011391e-02  -9.7422285745035031e-02 3.2372438687515728e-02 2.7183131354696785e-02  -9.7550492938447336e-02 2.9564042175698184e-02 2.1098467849529567e-02  -9.7751193732686495e-02 2.7466852868212165e-02 1.5381255605155844e-02  -9.7908087179738604e-02 2.4836328171920486e-02 8.5543743934425095e-03  -9.8065251368857839e-02 2.1754535684991833e-02 6.4177115204320677e-04  -9.8282166955365804e-02 1.8835718790153538e-02 -8.1133214911216830e-03  -9.8362095112238451e-02 1.6017142360032988e-02 -1.7437082541672436e-02  -8.3213465247524904e-02 1.2466073726563859e-01 -5.7577947449012701e-03  -8.3489799581885252e-02 1.2429269934908191e-01 -1.6698326182892995e-02  -8.3570749482022089e-02 1.2390610239887866e-01 -2.7932190155993842e-02  -1.0198726254816215e-01 -1.4969939349696598e-02 4.4658769135589887e-02  -1.0337280774343255e-01 -1.7024269286054581e-02 4.2426642871494231e-02  -1.0454232115405160e-01 -1.8836210671220460e-02 3.9921119388844711e-02  -1.0568024847699609e-01 -2.0744542558476239e-02 3.6932586959502071e-02  -1.0672241116398312e-01 -2.2618608291195906e-02 3.3484098659730961e-02  -1.0766924287448248e-01 -2.4187745281100383e-02 2.9274374681266750e-02  -1.0843886389392497e-01 -2.5690405376794848e-02 2.4665896372252773e-02  -9.3862263293300593e-02 4.2361350308097963e-02 2.5354934591744798e-02  -9.4459867043686072e-02 4.0050333437757032e-02 1.8584060641521648e-02  -9.4743620791964897e-02 3.8306191567455107e-02 1.2360538802724298e-02  -9.4951374712167608e-02 3.6013480785243718e-02 5.0471255946611246e-03  -9.5149406980294227e-02 3.3173967891260293e-02 -3.5201412588343186e-03  -9.5388427705067336e-02 3.0449446789157904e-02 -1.2993926206286669e-02  -9.5504208144482600e-02 2.7751044294107820e-02 -2.2993340080544458e-02  -9.6714162557068314e-02 -4.3299715658234690e-03 4.1291959312072815e-02  -9.5949625676377784e-02 4.5824674345297444e-03 3.7474784459370497e-02  -9.6356903465120228e-02 1.8729011126751808e-03 3.3223233229802508e-02  -9.7310545501070059e-02 -7.6707983825174547e-03 3.8582308140784533e-02  -9.6806269609837792e-02 -5.3252114479615542e-04 2.8795498673846093e-02  -9.8078270360864195e-02 -1.0275549219495281e-02 3.5428904303974412e-02  -9.7358504523728601e-02 -3.4717297682913652e-03 2.3544057165564340e-02  -9.8865051221980443e-02 -1.3050051042777991e-02 3.1409470055080130e-02  -9.7975621736332910e-02 -6.6293145182429137e-03 1.7665696122484281e-02  -9.9685651469590533e-02 -1.5894211747773456e-02 2.6780438776221997e-02  -9.8573666167165022e-02 -9.5603010197318327e-03 1.1044492409598872e-02  -1.0049627585279357e-01 -1.8473564610838523e-02 2.1399492455431289e-02  -9.9036354675088159e-02 -1.2541866820292565e-02 3.9633862723346706e-03  -1.0122607979186087e-01 -2.0948564095251233e-02 1.5454937897035108e-02  -9.5164959839948438e-02 6.6081859821143479e-02 2.1394742001029005e-02  -1.0224489815942080e-01 7.4741601378358155e-02 2.0857773143495854e-02  -1.0243011480387713e-01 7.3590897096340979e-02 1.2630191673055560e-02  -9.5545757749797094e-02 6.4900836771906834e-02 1.3589909345609117e-02  -1.0261421431708113e-01 7.3382151478952412e-02 6.1405811647244268e-03  -9.5936025762198882e-02 6.4604727738071979e-02 6.9704659677928332e-03  -1.0273650527190241e-01 7.2988688620435865e-02 -1.1956234758228905e-03  -9.6153335382215113e-02 6.3884912419918713e-02 -7.0716100954830647e-04  -1.0269844773957346e-01 7.1983253184869075e-02 -1.0605099990366209e-02  -9.6263783531929561e-02 6.2458901512298902e-02 -1.0239196419382623e-02  -1.0255387342586243e-01 7.1016129352704474e-02 -2.1424025797046539e-02  -9.6329508575443992e-02 6.1056540347116391e-02 -2.0948204388669098e-02  -1.0241189074841256e-01 7.0121693741097460e-02 -3.2755268950242708e-02  -9.6359048482994161e-02 5.9698187863918964e-02 -3.2141886047625953e-02  -9.9136404413683488e-02 8.7765235834605493e-02 2.0453377113193300e-02  -9.9262551491301657e-02 8.6573766472716293e-02 1.2023869188891940e-02  -9.9431150536444260e-02 8.6315816894268038e-02 5.4767168313183583e-03  -9.9580804578644655e-02 8.5968996642639753e-02 -1.7127112477560173e-03  -9.9607015573716817e-02 8.5080736820621519e-02 -1.1023799657241299e-02  -9.9479757743052066e-02 8.4144556930574349e-02 -2.1998548898601554e-02  -9.9388076535262826e-02 8.3256726638729697e-02 -3.3422713192219622e-02  -1.0177186634302759e-01 -5.3914227235879377e-03 4.0337514699478064e-02  -1.0265676751291103e-01 -8.0167689742647475e-03 3.7123744566705169e-02  -1.0358313105356409e-01 -1.0302855201061127e-02 3.3576198094327978e-02  -1.0434190890552690e-01 -1.2880768922145876e-02 2.9347654466427522e-02  -1.0504744925424647e-01 -1.5536833600142123e-02 2.4584992829940710e-02  -1.0569763286879305e-01 -1.7876600773689993e-02 1.9074292921220985e-02  -1.0626809211167186e-01 -2.0119350857905449e-02 1.3116963071657037e-02  -9.5162252972642830e-02 9.5783475836814694e-02 2.0541865434841537e-02  -9.5371224948926095e-02 9.4808866149109328e-02 1.1984432366311472e-02  -9.5549503678638306e-02 9.4724021333493585e-02 5.4994812292745955e-03  -9.5697050859970642e-02 9.4557227962465143e-02 -1.5830191538121386e-03  -9.5770708294099074e-02 9.3858552653091981e-02 -1.0882113872221350e-02  -9.5776611090412883e-02 9.3076836682730840e-02 -2.1944242792964488e-02  -9.5757041110565433e-02 9.2312386368001709e-02 -3.3405005375562964e-02  -9.1900363886767797e-02 7.7257297331341013e-02 2.1003903878600769e-02  -9.1847339887914714e-02 1.0482679685536109e-01 2.0901634712090670e-02  -9.1783286108924042e-02 1.0382854608568601e-01 1.2392957524937407e-02  -9.2201041915700471e-02 7.6153899033583841e-02 1.3014281161113776e-02  -9.1798329379750951e-02 1.0377048173560467e-01 5.9905551247210901e-03  -9.2403904611492407e-02 7.5909848232528068e-02 6.3721837489380696e-03  -9.1828475901575252e-02 1.0367934124600472e-01 -9.2639953966534502e-04  -9.2588783694076998e-02 7.5371143775607635e-02 -1.1834533168532753e-03  -9.1926456295727502e-02 1.0309530374756308e-01 -1.0104417940039460e-02  -9.2765844434879438e-02 7.4141214828898266e-02 -1.0799448131156224e-02  -9.2004721610427137e-02 1.0237848287607906e-01 -2.1186418396389465e-02  -9.2927926118149554e-02 7.2896434227821605e-02 -2.1683592807829426e-02  -9.2032675747802828e-02 1.0163537340783323e-01 -3.2604963248630832e-02  -9.3044151449493628e-02 7.1642375832520477e-02 -3.3022235407989063e-02  -1.0294779969421967e-01 1.0039091957918167e-01 2.0253938375681044e-02  -1.0319165435278252e-01 9.9723395639290724e-02 1.1835944726622590e-02  -1.0345105985030860e-01 9.9832493115718707e-02 5.4289561299826839e-03  -9.3574241088007798e-02 1.3905060716826967e-01 2.3571145182499000e-02  -9.3374549196503231e-02 1.3898789320140661e-01 1.4982638259318771e-02  -9.3141831489456928e-02 1.3949378127967971e-01 9.0448786220711317e-03  -9.3005049189690867e-02 1.4004939853092080e-01 3.1807280254984287e-03  -9.3011904449920788e-02 1.4038843557042302e-01 -5.0462963814645609e-03  -9.3001772830920093e-02 1.4075327891764644e-01 -1.5756938737034657e-02  -9.2933862713471982e-02 1.4102642591567907e-01 -2.6641798956275730e-02  -9.1219661988126727e-02 1.5922271175560149e-01 7.4839175465954864e-03  -9.1201939094226553e-02 1.6014480518051230e-01 -3.0443852994404424e-04  -9.1203406156572131e-02 1.6123736207263908e-01 -1.0538243245348978e-02  -9.1123891731839990e-02 1.6224177223276282e-01 -2.0918518028262494e-02  -1.0369571016343289e-01 9.9850502611869479e-02 -1.4270942564032555e-03  -1.0369399523276307e-01 9.9383166341796295e-02 -1.0588190240915884e-02  -1.0348426392346169e-01 9.8880056604341571e-02 -2.1655320737787816e-02  -1.0332857264699243e-01 9.8388647336500434e-02 -3.3119786599636769e-02  -9.9812527246501720e-02 1.0859880203319081e-02 3.3736239077740530e-02  -9.9084972761063136e-02 5.7967168262453960e-04 3.8278963725235982e-02  -9.9618754050369379e-02 -2.6843028350921321e-03 3.4861832872046875e-02  -1.0008788137428579e-01 8.1416936580225672e-03 2.8962302439023847e-02  -1.0020573382293858e-01 -5.3141771705720840e-03 3.1118988547889262e-02  -1.0045638318426545e-01 5.8270197667380933e-03 2.4131559566043709e-02  -1.0081111585335267e-01 -8.2188237875656638e-03 2.6526199741678372e-02  -1.0081643117001740e-01 2.9761637016239100e-03 1.8379817032328865e-02  -1.0144094256788869e-01 -1.1233970859939992e