<?xml version="1.0"?>
<VTKFile type="UnstructuredGrid"  version="0.1"  >
<UnstructuredGrid>
<Piece  NumberOfPoints="964" NumberOfCells="4173">
<Points>
<DataArray  type="Float64"  NumberOfComponents="3"  format="ascii">3.710602855333923 3.591900872320883 2.522454649014461  3.847216742783836 3.553277917526136 2.48324731517081  3.733321998334836 3.664907989624336 2.401655892815362  3.757780234843811 3.714604392595506 2.435434922933678  3.861619203402311 3.604383245620997 2.512112985363661  3.733349953375995 3.641187544805316 2.551985208261895  3.875825553650906 3.655708047689112 2.540928616043027  3.755832433565638 3.690787617122364 2.581443113389978  3.782001693718974 3.764817287112639 2.469208403969116  3.889982222225108 3.707387266866827 2.569834720247397  3.778327084317127 3.740781222731395 2.610993531240626  3.806178282513322 3.815400501050201 2.503108823817597  3.800992060617962 3.791014015086966 2.640782503180398  3.904231024422254 3.759398639693288 2.598958338267787  3.830578608775987 3.866159599841324 2.537324964388749  3.824118202888442 3.841412650856274 2.670966925969855  3.918724544591897 3.811644956321495 2.628455263196958  3.855497813797319 3.917019798287274 2.571980038481186  3.848183302881134 3.891708501330407 2.701648887792016  3.934020132049492 3.864057385208968 2.65865558979419  3.88141367283847 3.967630674415863 2.607146202813667  3.863487314698119 3.626602169004602 2.36172063727528  3.756141896580768 3.724591380880959 2.29961612933629  3.779151183127904 3.78088402492423 2.32987965172517  3.879433210037945 3.67812766040199 2.395291470779043  3.895199815003878 3.730210632575336 2.428916462958068  3.801876192162091 3.837804874164732 2.360066362520172  3.910895807029065 3.782669536016532 2.462606737351136  3.824646793474535 3.895031714120636 2.390428861873454  3.926729189436263 3.835392278480882 2.496555477772778  3.847676997348758 3.952421093464702 2.421122846894868  3.942884968137419 3.888325499223396 2.530919389316874  3.871168792496409 4.009848741292398 2.452210862860989  3.959979255962687 3.941247432627515 2.566007731447383  3.895342987972225 4.067123851915004 2.48363508417586  3.601224727394128 3.389638408675481 3.085429542839885  3.739062995774252 3.355942664720604 3.09730684992655  3.662164445399208 3.415764500337035 2.97030109104809  3.675702371104123 3.469804861352185 2.989082010126328  3.747668161315943 3.411684119761094 3.115757307094611  3.614540159335082 3.44412877208797 3.105808977026155  3.756214029255171 3.467673039957763 3.134337762568687  3.627709961477546 3.498903928941576 3.126267672075488  3.689126845647169 3.524249099183135 3.007941108153156  3.764741436171522 3.524062199683054 3.153020847521563  3.640872201387484 3.554011412057675 3.146839494663941  3.702575999834804 3.579004582509176 3.026879566266069  3.773320867766539 3.580837231440453 3.171805549472189  3.654151121383756 3.609458640285735 3.167528496077489  3.71616537985513 3.634114129539591 3.045936021856141  3.782031106214593 3.638088519479566 3.190653051110391  3.667682954403173 3.665312707710025 3.188329931906601  3.730044081412599 3.689676579809799 3.065155006201688  3.681569195507644 3.721648790118832 3.209219683699814  3.791068786481384 3.696135318272165 3.209590330425345  3.74438438210905 3.745814223144567 3.084541074496709  3.957353423486942 3.355367984305282 3.039096881976007  4.099008974386279 3.364699909004372 3.023902176823367  3.954391315130653 3.383500190519339 2.929584193078302  3.956536325320473 3.43989186607791 2.942861382640184  4.09242969494092 3.421866024622656 3.036630862300993  3.957661925257346 3.412480635187523 3.05367288936314  3.95866640291862 3.496569053153858 2.956244365080542  4.085945110721924 3.479300663365356 3.049605054636689  3.957998744497031 3.469867322416694 3.068443787061226  3.960806916463319 3.553558232967221 2.969702169772672  4.079429191878919 3.537082667575275 3.062678401090914  3.95832429742301 3.527625670601758 3.083307669839812  4.072809217923535 3.595248120338915 3.075754154561995  3.958614681027229 3.58579731191557 3.098192779908929  3.96292834933144 3.611048991812392 2.983232663267391  4.066015181082701 3.653943088088786 3.088805201833342  3.958858486811805 3.644562879919835 3.113078132641574  3.965055507295684 3.669179832823329 2.996823525561024  4.058884805501892 3.713419745779079 3.101684351993968  3.959048131404479 3.704168008039758 3.127899840551121  3.967279677339987 3.728299905568979 3.010441676653194  4.442589489577021 3.563222086527959 2.578877281972679  4.550476423421854 3.560104843372415 2.711425404835  4.574711384579811 3.59873854248626 2.576888764330063  4.561100663112023 3.655187892163018 2.589639197006305  4.533956488956824 3.615545147681486 2.724040312162248  4.42835533852787 3.618305193101238 2.594601865943793  4.547633999495182 3.711983227793697 2.602582458820781  4.517565020146847 3.67131181362031 2.736901292567921  4.414223295957695 3.673701651760485 2.610503917634748  4.53415347918946 3.769107885512504 2.61563973764188  4.501146573357272 3.727375961153092 2.749875589680058  4.400086547365356 3.729404438697709 2.626559103979015  4.520549359400844 3.82656726368344 2.628783040357507  4.484579782917698 3.783769695465376 2.762899827069003  4.385833908040053 3.785479091446275 2.642752711944812  4.506713779612773 3.884400241162472 2.641988993984482  4.467720866531772 3.840484309267489 2.775909985259319  4.371350214802348 3.841963046635859 2.659099453103321  4.492507206350242 3.94265472672092 2.655200074910142  4.450432503208765 3.897546246865037 2.788854237413612  4.356396985978995 3.898951224011205 2.675569112773381  3.991192987125459 3.560176377940777 2.445757701768457  4.006969139521496 3.628408001933695 2.319281516115487  3.994829731007357 3.613474991849022 2.474670317400053  4.014318405254678 3.684113706373174 2.349496384701712  4.021503739452367 3.740204502465574 2.379630126830658  3.998346522369232 3.667208398750097 2.503643209149398  4.028692607421542 3.796692798393314 2.409878049689565  4.001844058198793 3.72122054215648 2.532725028676489  4.036046276783788 3.853482040932752 2.440453706299667  4.005460478285976 3.775539853827638 2.562084507454837  4.043705176747811 3.910544669864212 2.471516623162496  4.009350764853443 3.830260303070226 2.591963934457637  4.051874049995759 3.967838105006139 2.503337968848044  4.013484578234857 3.885676172454066 2.622809015342451  3.26489812989024 3.728704404334838 3.484426472604678  3.162690003117009 3.670572877023677 3.601438035223623  3.148323902198049 3.788235497488218 3.459942637152615  3.148078370544508 3.622702154716962 3.563344668780445  3.247494726921102 3.678791712908635 3.450208865306728  4.379849313025487 3.474087870777625 2.838994656499042  4.320890812049289 3.429259918882792 2.962956876071348  4.461613088261601 3.478571105109294 2.94463234010576  4.442191573645671 3.534067783391406 2.956456320779619  4.304760565752924 3.485239704169456 2.975371248724028  4.362670627960741 3.528813610111521 2.851670588406137  4.4229409884285 3.589898918150737 2.968569808944271  4.288758944640238 3.541514485615058 2.988061492746371  4.345631901801294 3.583821697699554 2.864550190588053  4.403672298484198 3.646036704250786 2.98077992076345  4.272712446778441 3.598154811428857 3.000831409293023  4.328570171019424 3.63915250766444 2.877543325966096  4.256499813239864 3.655154281848266 3.013601843397414  4.311333600994351 3.69482687877504 2.890589456987236  4.384219093338342 3.702520260559746 2.993000090901792  4.23993407267776 3.712573172589429 3.026299357770006  4.293759507938192 3.750900176503729 2.903613534955307  4.364422067235862 3.759303486182319 3.005120034523252  4.222844377307589 3.770397168343803 3.038829353538861  4.275632705698332 3.807386063501097 2.916492884641208  4.344082016852624 3.816424015544838 3.017038277467416  3.683418267517948 3.536409471089685 2.650079001130722  3.793260659963653 3.45299238984646 2.745541595578729  3.821856626884927 3.500895784892903 2.612592942871498  3.836387039648487 3.55256400887754 2.635961242690248  3.806512496016447 3.505799357818955 2.764535328968933  3.703869805897922 3.586878012767854 2.675151036474702  3.850778892547047 3.604620200165328 2.659365732643325  3.819610489313734 3.558848751909094 2.783518479198764  3.724107647677049 3.637711947512571 2.700206902775942  3.865136703121389 3.656953334249251 2.682828666929109  3.832716065290832 3.612209866300037 2.802554196050676  3.744369244274623 3.688885032090099 2.725302730045293  3.879597242201852 3.709581017300745 2.70646473859308  3.845928301205495 3.6659109406293 2.82169902496794  3.764841827487002 3.740332939829047 2.750594423541158  3.894351835660022 3.762563965546728 2.730446694466839  3.859441426052417 3.720027976884446 2.841067437173391  3.785800949456469 3.792019212368809 2.776230369254208  3.873609169669098 3.774679294440123 2.860806510558412  3.807585401652242 3.843809216094686 2.802373646795522  3.909998530583028 3.816156244398503 2.755091030233784  4.186649978690625 3.457116004371644 3.770085667040165  4.072221118858473 3.3863284187052 3.830398417340094  4.061157538204465 3.455800953609769 3.66762186539611  4.074730219163196 3.394585264576744 3.639097292500328  4.168549123778166 3.518013915018518 3.803456767389906  4.05726452840832 3.444875654271319 3.868389559412233  4.047341218635783 3.517268426437579 3.696012129392154  4.150139515887385 3.579074021929777 3.836577439727794  4.042049249919673 3.503622732569217 3.906145832501921  4.033179635753341 3.579012556670398 3.724100469403115  3.663183446915573 3.330308591374809 3.211624595554399  3.672198252655714 3.386060851640401 3.23390350080404  3.681100693616062 3.442051984952404 3.25640616755312  3.689959484709008 3.498403683338248 3.279069489490773  3.698844446654009 3.555122546032338 3.301828731039245  3.707832917097712 3.612277000168745 3.32463116933743  3.717078260815609 3.669912883173168 3.347423799767489  4.383599775742183 3.422784588454779 3.082040948295727  4.364682309063045 3.479775329376852 3.094210964999828  4.345979330709743 3.537034905019466 3.106712
[...]
<PointData  Vectors="f_24"> 
<DataArray  type="Float64"  Name="f_24"  NumberOfComponents="3" format="ascii">1.7918888493275824e-02 9.5187462104726964e-02 4.6470295737665882e-02  1.7224244506967967e-02 9.6921801887086365e-02 4.7888599707382455e-02  1.6930080453763031e-02 8.9737254725048746e-02 4.4710044789664664e-02  1.6168812744196355e-02 9.2496430701604820e-02 4.2690407545615296e-02  1.6254340165349209e-02 9.9041224319988658e-02 4.6503877328508816e-02  1.7219970173220536e-02 9.7391745804490587e-02 4.5300486657519137e-02  1.5209169102591505e-02 1.0101191109937850e-01 4.5208380802395358e-02  1.6294776988842710e-02 9.9390806303341045e-02 4.4184582124956753e-02  1.5122619201678225e-02 9.4973377250399851e-02 4.0764005139139602e-02  1.4110252754986886e-02 1.0278504005856262e-01 4.3943754612406953e-02  1.5224992430459588e-02 1.0118153572817111e-01 4.3091700430377307e-02  1.3917966039049502e-02 9.7211663575293900e-02 3.8970901485656288e-02  1.4096461762572383e-02 1.0272407576031146e-01 4.2066358789348855e-02  1.2941848245552695e-02 1.0434131943669779e-01 4.2661956904238102e-02  1.2664929041934858e-02 9.9269003827414548e-02 3.7219449522533775e-02  1.2982994633803013e-02 1.0420135126455832e-01 4.0785257779619360e-02  1.1704512821083977e-02 1.0579314783981861e-01 4.1177915323686268e-02  1.1306320862967092e-02 1.0143989199794354e-01 3.4692625973219614e-02  1.1759110778320271e-02 1.0592994900965927e-01 3.8394052685616763e-02  1.0511822130784828e-02 1.0737580642112275e-01 3.8943258287467399e-02  1.0071535330436842e-02 1.0370521641450162e-01 3.1671947441969592e-02  1.6361579741050670e-02 9.0928902744083287e-02 4.6440723879660889e-02  1.5988858465063552e-02 8.3865904968666749e-02 4.2143172396986638e-02  1.4949697475970934e-02 8.6572930022735431e-02 3.8919920359152170e-02  1.5351597322845186e-02 9.3601950356342736e-02 4.4200372992949731e-02  1.4237027158302279e-02 9.6054985692451758e-02 4.2036127964941883e-02  1.3704004127686225e-02 8.8887545885160332e-02 3.6017567500608708e-02  1.3040969492260175e-02 9.8251040374383994e-02 3.9978702702868386e-02  1.2363425765777527e-02 9.0979966075506166e-02 3.3351076413170214e-02  1.1775734536548472e-02 1.0021643546646392e-01 3.8038602253258627e-02  1.0973795248872464e-02 9.3027075494008141e-02 3.0512460655417687e-02  1.0519937732853448e-02 1.0223943279735613e-01 3.5688005362910669e-02  9.6382371089920264e-03 9.5323936350184865e-02 2.6937091180253645e-02  9.3683808004300546e-03 1.0459716224846108e-01 3.2501309634578097e-02  8.2551961453083186e-03 9.7670825297645286e-02 2.2859786246646703e-02  1.7392170175924024e-02 9.4916643171579274e-02 3.9458675909857417e-02  1.5373017623697680e-02 9.6741739301289598e-02 3.8499274955599509e-02  1.7504626101411756e-02 9.9383120438175709e-02 4.1952668723547026e-02  1.6771096972196087e-02 1.0003795420121331e-01 4.3822263502762790e-02  1.4706816662448555e-02 9.6790484647410538e-02 4.1400251555254612e-02  1.6608452575834320e-02 9.5032996683983517e-02 4.2088348708731141e-02  1.3927713373465102e-02 9.6665681361920996e-02 4.3993210960185526e-02  1.5719104031464631e-02 9.4952691612903359e-02 4.4418341956837921e-02  1.5908090789448038e-02 1.0045100884474724e-01 4.5496773068915260e-02  1.3090100764006886e-02 9.6421889229024782e-02 4.6319481998950265e-02  1.4767209574311182e-02 9.4764200530581488e-02 4.6426399016648023e-02  1.4935681281359322e-02 1.0067610194764925e-01 4.6995039132060490e-02  1.2124663848969116e-02 9.6164822785037282e-02 4.8284578014924029e-02  1.3604105390256619e-02 9.4591899151034026e-02 4.8057445156399863e-02  1.3848493704374628e-02 1.0081121881633846e-01 4.8218052972883653e-02  1.0792596913610926e-02 9.5211193581837786e-02 4.9894421907114572e-02  1.2298592041458278e-02 9.3953972025827157e-02 4.9699308353871451e-02  1.2659608678769273e-02 1.0084545288273579e-01 4.9428752466004706e-02  1.1238294768329335e-02 9.2281110439431824e-02 5.2672973682078315e-02  1.0044288873204079e-02 9.3464161930249839e-02 5.3415631482916906e-02  1.1513178866437303e-02 9.9968009736805585e-02 5.1280580671309729e-02  1.3111791442623998e-02 1.0203376051003613e-01 3.9397417326723763e-02  1.1433302291951134e-02 1.0453193824653513e-01 3.9516054984668050e-02  1.4192025084018036e-02 1.0523214530993745e-01 4.2297561596158946e-02  1.3306005167790048e-02 1.0597909278266586e-01 4.4053935316297026e-02  1.0508904418493750e-02 1.0487771614589499e-01 4.2177617329587871e-02  1.2340975958216883e-02 1.0235673195971111e-01 4.2067465411885746e-02  1.2401248951548559e-02 1.0648636119866783e-01 4.5705087660782510e-02  9.6618909641966854e-03 1.0500897205604239e-01 4.4636503272895450e-02  1.1549970404326591e-02 1.0246061211782514e-01 4.4513243799013884e-02  1.1498277224180085e-02 1.0678624148352076e-01 4.7256242482585871e-02  8.9150955270096751e-03 1.0493413079671497e-01 4.6904948174378271e-02  1.0761298750008688e-02 1.0236441000441684e-01 4.6774232672944269e-02  8.2444772800799974e-03 1.0466120384836099e-01 4.9026652703226668e-02  9.9610928028087600e-03 1.0207964814251384e-01 4.8840584813988730e-02  1.0608665869120879e-02 1.0687388648490226e-01 4.8694116541456611e-02  7.5282543768426229e-03 1.0416507436109748e-01 5.1310242791292884e-02  9.0953376266383560e-03 1.0153349291014699e-01 5.1112270775687717e-02  9.6918950386733985e-03 1.0670020844916457e-01 5.0279562519854382e-02  6.8239125724369075e-03 1.0299854363441520e-01 5.4274278866798455e-02  8.3153676733513961e-03 1.0035967043814811e-01 5.4064373988121098e-02  8.7079673852187654e-03 1.0608886251603038e-01 5.2093592575631127e-02  7.7125199859020849e-03 1.1538405251547597e-01 4.8221483844535055e-02  3.6751243519637989e-03 1.1841548238502561e-01 4.5949181226972918e-02  3.8691533934355933e-03 1.1737369110349849e-01 4.7397404359663359e-02  2.6096035188978399e-03 1.1868553415365123e-01 4.6445974994202083e-02  2.4408214770347543e-03 1.1943910279536749e-01 4.6366658470075928e-02  6.1104203288430735e-03 1.1662475486490491e-01 4.7283315655631451e-02  1.6898213584961533e-03 1.1949904441143612e-01 4.5533224292309195e-02  1.5168021955831534e-03 1.2002899308520927e-01 4.6656070557875372e-02  4.9192878545264284e-03 1.1748783895203856e-01 4.6398701207922791e-02  1.0000178452153029e-03 1.1988709966127251e-01 4.4699968621762169e-02  8.3807000059554608e-04 1.2023549551097006e-01 4.6876178846248430e-02  3.9735678851290377e-03 1.1798947772789373e-01 4.5532873305618400e-02  5.0219102594646257e-04 1.1993483164871066e-01 4.3965023432216199e-02  3.5337043483775092e-04 1.2008886919671015e-01 4.7110409354780426e-02  3.1869863276719197e-03 1.1815166306188318e-01 4.4719039812544777e-02  -6.1270872618905954e-05 1.1942153093489007e-01 4.2617133733748556e-02  -7.8583636943622360e-05 1.1935206477152688e-01 4.7169003430364266e-02  2.4380214167533873e-03 1.1791188833674676e-01 4.3352193732259903e-02  -4.6990962198287820e-04 1.1823765308206960e-01 4.0962377573388851e-02  -2.3800897106021670e-04 1.1788429136105394e-01 4.7094079401360602e-02  1.7275999881663619e-03 1.1707121777404780e-01 4.1596552317929532e-02  1.6157815928593187e-02 9.8990245617311373e-02 4.8444559518889679e-02  1.5280860475046860e-02 9.2131877986276978e-02 4.6965534367657435e-02  1.4743130040441919e-02 1.0107261362759684e-01 4.6723835226013533e-02  1.3870319176319545e-02 9.4633047890926178e-02 4.4097547364731024e-02  1.2579969573858476e-02 9.6786690194147554e-02 4.1413739233750552e-02  1.3500968737475387e-02 1.0287729105293419e-01 4.5071781975051607e-02  1.1358065660224920e-02 9.8668637300962897e-02 3.8899180447170223e-02  1.2342767377341813e-02 1.0444344520454184e-01 4.3456072067364390e-02  1.0190864267098244e-02 1.0027358020596708e-01 3.6572812804657809e-02  1.1197015089319704e-02 1.0577200053709440e-01 4.1847920502888630e-02  9.0002988406221677e-03 1.0184903050803018e-01 3.3613197075673833e-02  1.0046215098450245e-02 1.0706241842152990e-01 3.9914431891336706e-02  7.5909618251298284e-03 1.0400702726835283e-01 2.9564869325982415e-02  8.6266166437719196e-03 1.0854110219839797e-01 3.7146148429664655e-02  1.1711185946358850e-02 6.8494176640316970e-02 4.7261165828198427e-02  1.1965444730369146e-02 5.9187823782639280e-02 4.3694215293894979e-02  1.2245300061766891e-02 6.8251562402667332e-02 4.5092447446984131e-02  1.3572487005232120e-02 6.1418708380339249e-02 4.1523044589267019e-02  1.3505230577212732e-02 7.0422251938230568e-02 4.5113803360164476e-02  7.6129918659068553e-03 1.1476178705602842e-01 4.4227456922436598e-02  7.9880818672087295e-03 1.1024709912714950e-01 4.1401848416112295e-02  4.7375153116510933e-03 1.1249844814753318e-01 4.1813050464065721e-02  3.6797781608130372e-03 1.1289878181812579e-01 4.4253291716860439e-02  6.8077974678044826e-03 1.1060765247994259e-01 4.3801665959675530e-02  6.1985579583533441e-03 1.1539748835540287e-01 4.5617112718024141e-02  2.8920331933999601e-03 1.1300872507880026e-01 4.6395103770463852e-02  5.8851977453333220e-03 1.1071824490606652e-01 4.5966719554435619e-02  5.1249948585402631e-03 1.1576404801327084e-01 4.6854868313286765e-02  2.3461814867897957e-03 1.1285388104935222e-01 4.8312453363583009e-02  5.1667299685424833e-03 1.1062188768564758e-01 4.7926831023014559e-02  4.2932800734333783e-03 1.1585524573927242e-01 4.7955500337009113e-02  4.4796696039038414e-03 1.1030545027271024e-01 4.9521142373887321e-02  3.5111186654538024e-03 1.1564068862052485e-01 4.8794648203387601e-02  1.9406928387661559e-03 1.1236818675690557e-01 5.0204492406572460e-02  4.0357664235883108e-03 1.0938390007958421e-01 5.0997246200999519e-02  2.9238775101824471e-03 1.1498132522578912e-01 4.9757711628430491e-02  1.6473795810949985e-03 1.1121731930349867e-01 5.2279971438884597e-02  3.7746602929390315e-03 1.0778912176260941e-01 5.4062549846339389e-02  2.6362309147730137e-03 1.1362076229044389e-01 5.1016751099737884e-02  1.6560631838578037e-03 1.0954795666237557e-01 5.4666569428726844e-02  1.8504770637963457e-02 9.8910691523717190e-02 4.6484576762496864e-02  1.7348459421355700e-02 1.0309027386460105e-01 4.5955980903424287e-02  1.7454059796766386e-02 1.0116647907863173e-01 4.7516907247233363e-02  1.6590961550700303e-02 1.0282742483307511e-01 4.6944990166484964e-02  1.6593949488701999e-02 1.0436874586294789e-01 4.6278355911661996e-02  1.7811187365204251e-02 1.0064337811385662e-01 4.6107963766506693e-02  1.5618984018848231e-02 1.0433281444201377e-01 4.6447068141697349e-02  1.5705741775044649e-02 1.0550507878432802e-01 4.6608857770319444e-02  1.6937211296871382e-02 1.0215143625658932e-01 4.5762168597307799e-02  1.4566883596945208e-02 1.0565890188714981e-01 4.5952768497261647e-02  1.4734026735209318e-02 1.0646769804115065e-01 4.6915851070407980e-02  1.5936261105497389e-02 1.0346254998119080e-01 4.5399580381306731e-02  1.3467940155473899e-02 1.0678766356268755e-01 4.5401153308558304e-02  1.3716545158916160e-02 1.0722752277791382e-01 4.7165926689432217e-02  1.4878557220578690e-02 1.0454264210534840e-01 4.5029316147118623e-02  1.2327844588880858e-02 1.0775113591460335e-01 4.4659402910815653e-02  1.2689170487476293e-02 1.0778429404707875e-01 4.7335510612523092e-02  1.3779977412879490e-02 1.0551935188626864e-01 4.4414620570128543e-02  1.1561831792794651e-02 1.0791069654317098e-01 4.7075421862614111e-02  1.2518639962446900e-02 1.0635070345893341e-01 4.3046796622822070e-02  1.1165812166139469e-02 1.0863449793428021e-01 4.3354749885032941e-02  1.0662017000496380e-02 4.6101875648493988e-02 3.9287245666233886e-02  1.1743767442771761e-02 4.0122801159928022e-02 3.4381089174925980e-02  1.0294418347774059e-02 5.5692981733677080e-02 4.1242896759167147e-02  1.0354749079793509e-02 5.8183366836840993e-02 3.6723841432594793e-02  1.0823129115192424e-02 4.2988701869109296e-02 4.4411780969504509e-02  1.1849496322235266e-02 3.6726054509686974e-02 3.9145551283378113e-02  1.0270438570837117e-02 5.2905398837302976e-02 4.6275112607296671e-02  1.1056927186704315e-02 3.9745304879954070e-02 4.9912164354926708e-02  1.2040009640058901e-02 3.3213303482115368e-02 4.4308317798372014e-02  1.0340714267583173e-02 4.9938121610087607e-02 5.1743461228064329e-02  1.5375050411681156e-02 9.0089018421120048e-02 3.5801391368027041e-02  1.4682820768499728e-02 8.9368319211439201e-02 3.9298216586678023e-02  1.3946621287819679e-02 8.8567953746263306e-02 4.2326395371925660e-02  1.3145979150661629e-02 8.7771909806505150e-02 4.4947383611012241e-02  1.2234342918450830e-02 8.6820190188336518e-02 4.7474779201823303e-02  1.1379340744216966e-02 8.5074807151773249e-02 5.0523599951787471e-02  1.0423393327575230e-02 8.2790484791423688e-02 5.3935099123463275e-02  5.8693961650848935e-03 1.0509607672394547e-01 3.8528453961117141e-02  5.0305093043933064e-03 1.0508902188672761e-01 4.1999412212624952e-02  4.4455719180492830e-03 1.0489882132211026e-01 4.5073304340935039e-02  4.0401423894050386e-03 1.0450738978715865e-01 4.7870054688721624e-02  3.6961512973730571e-03 1.0379795495297787e-01 5.0624945544795040e-02  3.5026432757565649e-03 1.0248063625125718e-01 5.3766102938120355e-02  3.5117193651210085e-03 1.0072352033497277e-01 5.7319882275024034e-02  1.2489954630879083e-02 7.7092386188194223e-02 4.6301424672935541e-02  1.0979551735171117e-02 7.9274402508268199e-02 2.1687986027951498e-02  1.0488590846689723e-02 6.3466937174406018e-02 1.4906453297173865e-02  9.7602286428252888e-03 6.8625618909919653e-02 1.6590735997880132e-02  1.1948184152078474e-02 6.2584430648424713e-02 1.9052985167502531e-02  1.2545936956930919e-02 7.7814287935561208e-02 2.5276219182742074e-02  8.4244691087539784e-03 6.9893685909191400e-02 1.1706426210110182e-02  9.4974308149079478e-03 8.0768889913747963e-02 1.7425255247430629e-02  9.1650511729374374e-03 6.4369662417359960e-02 1.0098390966870163e-02  6.9878339830112607e-03 7.1164686723360127e-02 6.5416245993235337e-03  7.9067781164965864e-03 8.2246077464576198e-02 1.2900379405510707e-02  7.7446781328459309e-03 6.5266686223784537e-02 5.0314528562356757e-03  1.3330060419068005e-02 9.7050790717376795e-02 3.7072865792221410e-02  1.5284270968568140e-02 1.0207475506810017e-01 4.1352004907051147e-02  1.4554940460471831e-02 1.0266212513623747e-01 4.3425964600872231e-02  1.2694744643510494e-02 9.6938407021595341e-02 4.0359987032350650e-02  1.3732577940043183e-02 1.0301339108562256e-01 4.5315875695916268e-02  1.2003306764922320e-02 9.6649373131151239e-02 4.3318696780896747e-02  1.2844823251112452e-02 1.0315814822934438e-01 4.7059915784831166e-02  1.1302340407771286e-02 9.6200944358886473e-02 4.5984999723957136e-02  1.1919285167856465e-02 1.0313591502628985e-01 4.8610799584182712e-02  1.0449295134203802e-02 9.5620352336870981e-02 4.8357005738186687e-02  1.0984512632642269e-02 1.0288554643483638e-01 5.0262870598754429e-02  9.5145752618666767e-03 9.4781915521684912e-02 5.0975656213292461e-02  1.0007508539020007e-02 1.0205599651931431e-01 5.2461440928290339e-02  8.8912700687364746e-03 9.3013836445042811e-02 5.4602263814251296e-02  2.1730207584105682e-02 9.2760525568228641e-02 4.3086201344265287e-02  2.1513925279634000e-02 9.1658826734240736e-02 4.1781070015266118e-02  2.0488530871676049e-02 9.5444593736551134e-02 4.2857807467260554e-02  1.9611756978865906e-02 9.6424503067359377e-02 4.4165097089457893e-02  2.0355458381787411e-02 9.2470742730082267e-02 4.3302189528580386e-02  2.0671618837440609e-02 9.4176347310404807e-02 4.3740102758788466e-02  1.8569551521821184e-02 9.7192376923953799e-02 4.5291890693910444e-02  1.9119647143895295e-02 9.2991313929203567e-02 4.4558478107577598e-02  1.9493127162796588e-02 9.5238658844393198e-02 4.4233722189783040e-02  1.7437850829722504e-02 9.7766126357775707e-02 4.6237220883069446e-02  1.7873440296485847e-02 9.3331211647444082e-02 4.5592186330869790e-02  1.8284229249817308e-02 9.6030756162322678e-02 4.4614196198335836e-02  1.6276937660747153e-02 9.8122656927111654e-02 4.7167764764828042e-02  1.6443841803910255e-02 9.3588380863173490e-02 4.6435776051410367e-02  1.6901932560627646e-02 9.6708426375456985e-02 4.4773901556446567e-02  1.4734355361210814e-02 9.8002149885567214e-02 4.7870481820533446e-02  1.4780216247936696e-02 9.3326825855410633e-02 4.7280049742618464e-02  1.5229229527673350e-02 9.7016971336015626e-02 4.4707331579934319e-02  1.2839666338952728e-02 9.7719122496779401e-02 4.8285618329310116e-02  1.2693848207548077e-02 9.2748525568534107e-02 4.7929487221362199e-02  1.3127893395384548e-02 9.7124382777741408e-02 4.4258395139507710e-02  1.1243530425942871e-02 9.0663613265059631e-02 3.3426598710621584e-02  9.8717964955765056e-03 9.2544336512772940e-02 3.0413053759875151e-02  8.4295833477107205e-03 9.4511495153611361e-02 2.6582825597579088e-02  7.2021497773657392e-03 9.6970583951504513e-02 2.1852857025965816e-02  -3.4926660313882724e-03 1.1564458553214813e-01 4.7916380326512339e-02  -1.4067804426615195e-03 1.1958976126013773e-01 4.7272897519998927e-02  -3.8220992625822028e-03 1.2085852572404053e-01 4.5843450179151111e-02  -1.0006327562105471e-03 1.1952460878500490e-01 4.6451771462197117e-02  -3.7854116478076840e-03 1.2063712123949563e-01 4.6445575160547425e-02  -3.3281500519126458e-03 1.1520485753617324e-01 4.9689888874281628e-02  -1.6045594478462744e-03 1.1931444891130277e-01 4.8177635640560615e-02  -3.6374990504096467e-03 1.1980516554349294e-01 4.7004326117188085e-02  -2.9474009191156644e-03 1.1420624545508719e-01 5.1932303344858981e-02  -1.6743457794294524e-03 1.1841338148408576e-01 4.9111796603320455e-02  -3.2439733318463462e-03 1.1823558113853991e-01 4.7715469876711263e-02  -2.2971548445003139e-03 1.1260093270088788e-01 5.4370425670548783e-02  -1.4674860052967631e-03 1.1679075952773289e-01 5.0141379027985468e-02  1.9190881889169165e-02 7.2628647579591130e-02 3.2044218494407299e-02  1.7524064384676716e-02 6.6183813164985061e-02 2.7259321243698460e-02  1.7744398528872305e-02 7.5761703823096618e-02 3.2423808774489395e-02  1.6667076107705375e-02 7.4051599249342737e-02 3.5596683489885372e-02  1.6503939843309359e-02 6.3804715811171780e-02 3.0200440612370767e-02  1.7876894082659425e-02 7.0962120456805208e-02 3.4845811445734884e-02  1.5629456931121971e-02 7.2638073776028447e-02 3.8086576633764718e-02  1.5530673052891845e-02 6.1897380323599038e-02 3.2499079108558190e-02  1.6686169350722480e-02 6.9580184416882671e-02 3.7042643189463355e-02  1.4515569431723246e-02 7.1327051649378928e-02 4.0245898472381941e-02  1.4507333366780907e-02 6.0154879759884795e-02 3.4551698415541336e-02  1.5462735830344123e-02 6.8314038052158327e-02 3.8962435121031244e-02  1.3390939253734777e-02 6.9652770001263214e-02 4.2661243957529613e-02  1.3503165766685230e-02 5.8099986548496893e-02 3.6833885317695554e-02  1.4185810173043495e-02 6.6828700635722757e-02 4.1020952203888739e-02  1.2372356321832428e-02 6.7174853439003895e-02 4.5717879661762308e-02  1.2665879398014406e-02 5.5165725964329296e-02 3.9743385365560900e-02  1.2979756908419635e-02 6.4544201503348858e-02 4.3608504669692981e-02  1.1122998794595752e-02 6.4378927653596998e-02 4.8775832958222042e-02  1.1656081859246215e-02 5.1969777318954045e-02 4.2663083426532737e-02  1.1521459025389787e-02 6.1989008798335521e-02 4.6154681016719233e-02  1.9003952444341440e-02 8.9061051254317000e-02 3.9556239523654189e-02  2.0221415518492457e-02 9.0838117989740230e-02 4.1340739730108364e-02  1.9341719971971396e-02 8.3880439922479511e-02 3.6294888020553924e-02  2.1426945052347886e-02 8.8720936738276843e-02 4.2069133904496563e-02  2.0203234312149921e-02 8.6679666792894919e-02 4.1137691073425922e-02  1.7924755193976814e-02 8.5353256454793094e-02 3.4741474126811903e-02  1.7778922443580460e-02 9.0898853758712497e-02 3.8177219335046274e-02  1.8988369659160193e-02 9.2445204816937993e-02 4.0656601414650155e-02  1.6503967310831365e-02 8.6560322431589370e-02 3.3267646135993950e-02  1.6518183262626877e-02 9.2393444718356310e-02 3.6965975371852866e-02  1.7737252016035394e-02 9.3691566513802949e-02 4.0074774065664377e-02  1.4868148906836534e-02 8.7878867957624063e-02 3.1349553739125263e-02  1.5118864552559008e-02 9.3855855218613921e-02 3.5388037119928169e-02  1.6321488069938328e-02 9.4938361658705409e-02 3.9127581049170600e-02  1.3009852871432944e-02 8.9190074440443828e-02 2.9036842597293347e-02  1.3427091365479612e-02 9.5271035239512164e-02 3.3358370667039054e