<?xml version="1.0"?>
<VTKFile type="UnstructuredGrid"  version="0.1"  >
<UnstructuredGrid>
<Piece  NumberOfPoints="970" NumberOfCells="4170">
<Points>
<DataArray  type="Float64"  NumberOfComponents="3"  format="ascii">8.123963870888062 3.031974882518874 0.8525083330028909  8.062703390031361 2.955567925177228 0.8521412388386504  8.032128368178475 3.092276104198452 0.8458160966112692  8.037936290068743 3.093385738973185 0.7766207560153507  8.073565353376337 2.944767355376157 0.7857748748764195  8.133079056443346 3.026177435772532 0.7841489845661386  8.084464375073898 2.93391195261643 0.7194425315704228  8.142239769194484 3.020306137171641 0.7158048174275504  8.043729862777251 3.094459485787887 0.7074106971852143  8.151438911859241 3.014370591868898 0.6474893197501572  8.095401095383085 2.923007395622081 0.6531549802706634  8.049548975826514 3.095473060358844 0.6381904452000667  8.160669442654651 3.008385973708942 0.5792022167337173  8.10635993687753 2.912055245952138 0.5869036493941394  8.055398117026648 3.096429650902681 0.5689699871181255  8.169922566881707 3.002367963514136 0.5109367073323179  8.117330192871481 2.901063805497584 0.5206816208900307  8.061277839457814 3.097331523933728 0.4997522991739667  8.179194589204972 2.99632815773972 0.4426932636569148  8.128298304375338 2.890050980044395 0.4544774168028328  8.0671952496579 3.098179490855676 0.430535374745681  7.914583213520623 3.026891808092581 0.8315482885395671  7.92291789465583 3.025693483221596 0.7633375105642373  7.931239522704056 3.024479396107608 0.695118126586904  7.939578599507342 3.023227154275873 0.626892608583617  7.94794196290166 3.021922209900048 0.5586667077743549  7.956329683852723 3.020556476741135 0.4904441610319007  7.964751531344106 3.019124643098418 0.4222315249107816  8.305618931698151 2.437596726836075 1.136657103369128  8.210760883467648 2.376532609860462 1.123834859305424  8.245503399695226 2.509216825462968 1.078048599523687  8.265887319538253 2.485063386867563 1.027707646523515  8.231995623221341 2.354360038078393 1.074157730992279  8.326123310864117 2.414487322975192 1.087466876181903  8.346943641936415 2.391334013418923 1.038511361230087  8.25357913382863 2.33217968003205 1.024691101751453  8.286561723710847 2.46088001826117 0.9775931213226514  8.367909066074732 2.368195192328478 0.9897336669876637  8.275321918472695 2.310023939304246 0.9753578403807358  8.307374470301577 2.436707757164487 0.9276189890802244  8.388868600134094 2.345105814910148 0.9410618466260517  8.29705729271126 2.287909844346782 0.926084461623786  8.328181595813639 2.412573907803214 0.8777236645934708  8.409640278283465 2.322094666690491 0.8924143335925451  8.31859437079555 2.265834881063811 0.8767928954715665  8.348827014309174 2.38849829605071 0.8278331544687185  8.429927369203199 2.299126908727474 0.8436902597669693  8.339665234843554 2.243714226719836 0.8273842286329044  8.369075514718832 2.364445447135188 0.7778836751048661  7.377267140918786 2.852280727429805 0.7814537232897586  7.265002608982934 2.785665894069089 0.7869065705812438  7.288726453159245 2.937100169943909 0.7778717200081235  7.285289053008006 2.938909176421264 0.7088347614841961  7.262305719001437 2.778745977463883 0.7192803593123773  7.378550382229705 2.847997564613188 0.7131438294914709  7.379695790711088 2.843822755069381 0.6447763857753673  7.259423503885106 2.771917410060267 0.6516106212193177  7.281715055219191 2.94079236995977 0.6397777502905392  7.380798111059268 2.83965236778935 0.5763621519841439  7.256478710294472 2.76509193311217 0.5839057681052606  7.381913838305233 2.835424062047601 0.5079142351285512  7.253551014838111 2.758212292899559 0.5161788026618351  7.27448577799184 2.944493190406823 0.5016035229004825  7.250697644255353 2.751233656584656 0.4484335607754075  7.3830844397933 2.83109017893869 0.4394458455697716  7.270930615095927 2.946234544330261 0.4324878829636776  7.38435138957931 2.826611918415128 0.3709671491856105  7.247966945044912 2.744122201714517 0.3806684913911628  7.267465010286293 2.947862622520165 0.363357315298877  8.134033103556552 2.472916088419065 1.048689527897003  8.155020676193143 2.449742987836728 0.997560486013961  8.176319630293458 2.426567572779487 0.9465924480265687  8.197761537437239 2.403410809631511 0.8957139500780704  8.219200967709458 2.380281987425977 0.8448654613600289  8.240480681730372 2.357166542598667 0.7939900454746847  8.261401364276262 2.333977218367616 0.7430391667422799  8.759381886919138 2.904293554208575 0.9840416912954976  8.692627748846236 2.820396590730952 1.031573622689377  8.626830271431487 2.918088393777086 0.9667385153313008  8.699309886039057 2.787637271863609 0.9775939141057579  8.764122423356286 2.874060402292887 0.9256547402479447  8.633784496826729 2.890017406701415 0.9067898502238135  8.706051100721997 2.754684308870678 0.9238596525458487  8.768877903333449 2.843605018804088 0.8674673675796505  8.640786729268735 2.861741225058967 0.8470271015490106  8.712805681935128 2.721652949850719 0.8703043221446942  8.7736249955712 2.813055140660328 0.8094206370731039  8.647800186216646 2.833369918721152 0.7874034968424999  8.719538001338773 2.688631600639126 0.8168706338097688  8.778348656903416 2.782490965076112 0.7514691640132927  8.65480152991363 2.804984694117684 0.7278785756374202  8.726235116272266 2.655719855692598 0.7634933206888138  8.783086326701907 2.752041555911225 0.6935618388120952  8.661790601830644 2.776680226660018 0.6684083807187022  8.732945403725731 2.623098544191173 0.7100898376556429  8.787900876235529 2.721843916109468 0.6356296302257294  8.668801671868287 2.748590624954375 0.6089370791146601  7.493404039023377 3.059764255259846 0.7844659632827613  7.407295076591783 2.985759333590051 0.7800060692118785  7.402113839017683 3.133233264640328 0.7990771946530392  7.401297106419205 3.146376877272068 0.7301087164013811  7.407936069919103 2.989051658047709 0.7106132056587394  7.496797433906421 3.067970126346344 0.7147864778549281  7.400386806703681 3.159560384659748 0.6611482392492236  7.40846751579692 2.992424368163452 0.6412011386285968  7.500102518487609 3.076218317951778 0.6451017797119731  7.399445417157009 3.172725512314134 0.5921664910748315  7.408966109253067 2.995793705377905 0.5717620642253979  7.503384595843474 3.084450023040481 0.5753966698575561  7.398506524557134 3.185846040032537 0.5231597889846746  7.40947541420623 2.999111433871609 0.5022991001033085  7.506678353205416 3.092631074025654 0.5056678857161138  7.39759732796295 3.198902257793424 0.4541330430069884  7.410029618734142 3.002340982254748 0.432817972791403  7.510011777507163 3.100734155056533 0.4359177613756673  7.396741552816261 3.211868127833151 0.3850962449717797  7.410658653028706 3.005445671856382 0.3633259524253584  7.51342067899511 3.108736946066828 0.3661528845320682  7.791810683480469 2.455633156735022 0.9357794172773297  7.763415218837585 2.360539852025566 0.9689824047414825  7.649167272342809 2.401352040697841 0.9258245031846253  7.660466316685352 2.377906629964961 0.8678557877103177  7.778127483448012 2.336741846726024 0.9133150219925097  7.807067973626362 2.433202385520922 0.8789807367162445  7.671834633537833 2.354560575907408 0.8096823527687232  7.793030876773267 2.313016370776336 0.8574945169393816  7.822493180636093 2.41086324509821 0.8220647573990675  7.683246118444786 2.331205142721842 0.7513865001498393  7.808012057184181 2.289277595584179 0.8015773137155549  7.837987793051381 2.388508517258253 0.7650721589891575  7.694661868934222 2.307742440012249 0.6930060031365229  7.822984194293552 2.265451317344752 0.7455811873498956  7.853473807298528 2.366064903672807 0.7080202393201822  7.706084265318697 2.284103787651047 0.6345578542319497  7.837892216497607 2.241480281635605 0.6894983886875171  7.868909101270495 2.343480239800865 0.6509071630953946  7.717538561033838 2.260237422774019 0.5760531033462037  7.852760802273172 2.217271699696043 0.6333289178796019  7.884302008741065 2.320686796799289 0.5937216827035011  7.307042184146681 3.067866635636987 0.7897187763138147  7.302500196932831 3.078383746484314 0.7208593736958182  7.935706902181098 3.180082045388536 0.8411551582390309  7.940365995766842 3.18870150358683 0.7715841974621293  7.944996898099297 3.197286678852763 0.7019962687402471  7.949635107377173 3.20581898102049 0.632389072165169  7.954296127109854 3.214294808279415 0.562763496223819  7.958993808514982 3.222710352017892 0.4931173128386105  7.963740994598663 3.231058955117251 0.4234432870292986  7.674492196639685 2.513231050694638 0.8883583318028311  7.686558433507233 2.491466649989625 0.8289972262913518  7.69868779233375 2.469828649808956 0.7694455780625494  7.710847259139709 2.448168192508672 0.7097831195140472  7.723011050247581 2.426403679444539 0.6500519189869269  7.73519238985786 2.404475904619869 0.5902816623442636  7.747396635260458 2.382324097726066 0.5304843280059914  7.344745364978538 2.357185287150247 0.9102151716979677  7.327414697425354 2.476697982116833 0.8633510118012977  7.425834539131022 2.413970161930582 0.8877385750360371  7.429788798230185 2.39038604350927 0.8276539346431031  7.339605002580815 2.251128372860458 0.6756610669117742  7.323319275938605 2.388605675687942 0.6174178597720761  7.441212310219721 2.319816874024473 0.6464268681239819  7.445134391512448 2.296043734315957 0.5859047462547158  7.322357533530226 2.366410473104707 0.5557916431332925  7.338425425702164 2.224414555168345 0.6168539037652393  7.449164688627126 2.272062626572567 0.5253493537533732  7.778399453806268 2.551773318984294 0.8971864244453256  7.793007565507498 2.530879180056191 0.8384942082479158  7.807736646891238 2.510064633052083 0.7796605861925299  7.822518419065073 2.489225949171565 0.7207450671103566  7.837305935212329 2.468312272090426 0.6617814640995107  7.85206972186723 2.447272234261938 0.6027842639753866  7.866807248951844 2.426035738732293 0.5437620026606503  8.061693936001522 3.218592673260389 0.7122574080000182  8.004673651999399 3.350206983211641 0.7348215678037595  8.058936678448665 3.211285790647513
[...]
<PointData  Vectors="f_24"> 
<DataArray  type="Float64"  Name="f_24"  NumberOfComponents="3" format="ascii">-4.7240718644173216e-02 -3.1090225009083167e-02 4.8715103308568868e-02  -4.4935071501309917e-02 -3.2915428460396245e-02 4.4204197021475648e-02  -4.5656937044189827e-02 -2.8679330027466619e-02 5.5277615204754910e-02  -4.7510897733586167e-02 -2.7056470283195928e-02 5.5260701662441777e-02  -4.6908959760280360e-02 -3.1114379516229623e-02 4.2991905186149260e-02  -4.9190857059958071e-02 -2.9470577146621300e-02 4.7796119876033820e-02  -4.8824131950519094e-02 -3.0052760021627805e-02 4.1627592799650857e-02  -5.1082793631921003e-02 -2.8415643061233790e-02 4.6810103302131173e-02  -4.9209994316915355e-02 -2.6223710616280944e-02 5.4803099476495663e-02  -5.2913567666381799e-02 -2.6339520298498394e-02 4.5694517494238016e-02  -5.0719303232007504e-02 -2.7991947299237326e-02 4.0160426810252690e-02  -5.0740330430985726e-02 -2.4582503111335450e-02 5.4110762487299180e-02  -5.4603512161853537e-02 -2.2937669415388180e-02 4.4307797687356591e-02  -5.2427711280864354e-02 -2.4417938034264067e-02 3.8450217910536370e-02  -5.2125373505419119e-02 -2.1914915956746241e-02 5.3172624428440098e-02  -5.6258977313244404e-02 -1.8817569294847764e-02 4.2260778543773622e-02  -5.4068481414974209e-02 -2.0011001928906012e-02 3.6166789828398827e-02  -5.3492718979874627e-02 -1.8626298272958603e-02 5.1583234993763681e-02  -5.8045314130581532e-02 -1.4379079320941622e-02 3.9773209570587630e-02  -5.5857235388794189e-02 -1.5259754953349877e-02 3.3570380071754988e-02  -5.4957036283859673e-02 -1.5030846903457866e-02 4.9301842449176674e-02  -4.2757471307630399e-02 -2.9044525236641441e-02 5.4205412103019136e-02  -4.4450517256839184e-02 -2.7425781103120821e-02 5.3766095376343727e-02  -4.6074253687899316e-02 -2.6455871461375700e-02 5.3011760271797173e-02  -4.7628293445137589e-02 -2.4716480732428874e-02 5.2122593552129837e-02  -4.9010532954453914e-02 -2.1913371530457974e-02 5.1049185615444401e-02  -5.0260352668161361e-02 -1.8444161609694320e-02 4.9405080094793101e-02  -5.1383207300650907e-02 -1.4603471228296463e-02 4.7217400352895886e-02  -2.9195558566736328e-02 -7.2506426836876942e-02 -2.2339163001509461e-02  -2.6953711261534827e-02 -7.0580425308698652e-02 -1.9682097580879812e-02  -3.1130373391386891e-02 -6.6106830825305260e-02 -1.3505904815773729e-02  -3.3827207338641939e-02 -6.3212078747771822e-02 -1.5790631106473378e-02  -2.9709511683891267e-02 -6.8490215669638768e-02 -2.1714265696875418e-02  -3.1866092140285462e-02 -7.0080074239506407e-02 -2.4631522586684686e-02  -3.4029734376490116e-02 -6.8973484147374739e-02 -2.6263250280152525e-02  -3.1892398591756015e-02 -6.7431126706573863e-02 -2.3194088282522288e-02  -3.6051733886933481e-02 -6.2107510772801355e-02 -1.7419968175253327e-02  -3.6060654494158746e-02 -6.7938237124201814e-02 -2.7910397528206426e-02  -3.3891921777371992e-02 -6.6383391867178440e-02 -2.4718300718128063e-02  -3.8258175543305253e-02 -6.1003751005258865e-02 -1.9156012739986475e-02  -3.8410688790555078e-02 -6.6341640572515057e-02 -2.9907977122656568e-02  -3.6287134737502127e-02 -6.4929395099187867e-02 -2.6569459762087841e-02  -4.0753868266142856e-02 -5.8982505364440115e-02 -2.1369863329909415e-02  -4.1248203288414241e-02 -6.3487637516762521e-02 -3.2173927401470043e-02  -3.9245993228383083e-02 -6.2571879059118526e-02 -2.8576180913914111e-02  -4.3498956941073211e-02 -5.5381205596823656e-02 -2.3996714980274142e-02  -4.4360874624546444e-02 -6.0014881969225539e-02 -3.4048315258511964e-02  -4.2501327307475863e-02 -5.9734614609966083e-02 -3.0163878863249272e-02  -4.6530300633598337e-02 -5.1073929965115790e-02 -2.6450603543088473e-02  -2.8839118459193593e-02 -2.8322022888330255e-02 5.2187526689927419e-02  -2.5583390988473256e-02 -2.9697015070013925e-02 4.9178238324059702e-02  -2.7095801357357906e-02 -2.5206331450548892e-02 5.9199705237286744e-02  -2.7560294696759299e-02 -2.3605986094693752e-02 5.9060484615530005e-02  -2.6007320066883194e-02 -2.7413464103469717e-02 4.8946764109458155e-02  -2.9565794125688567e-02 -2.6208244316135637e-02 5.2097056954568961e-02  -3.0291682648248441e-02 -2.4792113136179721e-02 5.1593228947469844e-02  -2.6425972420909390e-02 -2.5889806559674541e-02 4.8388012212919621e-02  -2.8084523229669228e-02 -2.2358604476056757e-02 5.8478795347210059e-02  -3.1114868160973856e-02 -2.2720531104737644e-02 5.0827791507385908e-02  -2.6977924265639202e-02 -2.3707480720336481e-02 4.7599969016720187e-02  -3.1989758872883231e-02 -1.9862608540871903e-02 4.9833438729795655e-02  -2.7681514247926687e-02 -2.0685279030747704e-02 4.6586173224626590e-02  -2.9461157665975984e-02 -1.8014250441475803e-02 5.6848819038590535e-02  -2.8500211944663758e-02 -1.7168687537582016e-02 4.5213878401390684e-02  -3.2879511495048162e-02 -1.6535404777417995e-02 4.8461333641050888e-02  -3.0297154411483562e-02 -1.5131792799327802e-02 5.5590055324575192e-02  -3.3758729601535739e-02 -1.2960196989723512e-02 4.6858692577374787e-02  -2.9356952084836470e-02 -1.3386771611936172e-02 4.3648256558861183e-02  -3.1205250060627219e-02 -1.1997950172475425e-02 5.4204343798609028e-02  -2.9571453387970004e-02 -6.3028701821607927e-02 -8.9151726588375200e-03  -3.2275836242276083e-02 -6.0256402195298694e-02 -1.0990265675684190e-02  -3.4502106004655718e-02 -5.9128566699675415e-02 -1.2494649358077561e-02  -3.6670217188376368e-02 -5.7951921195319521e-02 -1.4130138625952172e-02  -3.9208459348259804e-02 -5.5944519172608537e-02 -1.6236810130959414e-02  -4.2009621816450009e-02 -5.2585774482146103e-02 -1.8664655697294918e-02  -4.5070322527276614e-02 -4.8617784996979323e-02 -2.0927959473785836e-02  -5.4745154308503609e-02 -5.0966607869647636e-02 2.9882411347044134e-03  -4.9913828636302719e-02 -5.9119030021539107e-02 -5.9494902830620521e-03  -5.1664708520530039e-02 -4.7141438227610750e-02 1.1170486825221787e-02  -5.1697027404917960e-02 -5.4843930837406581e-02 -8.6258963204426230e-03  -5.6343712471424709e-02 -4.7261041244099536e-02 8.2728851488473036e-04  -5.3885660997567565e-02 -4.3857293023950757e-02 9.1012481392414146e-03  -5.3295858174654147e-02 -5.3055706951321745e-02 -1.0436851319952431e-02  -5.7881486123361796e-02 -4.5308451341728437e-02 -8.7593436081225711e-04  -5.5929541513226363e-02 -4.2204751738663795e-02 7.4409732793400902e-03  -5.5128007864528261e-02 -5.0992978853768856e-02 -1.2381906689193995e-02  -5.9719895039366533e-02 -4.2593149000132412e-02 -2.7412442544523744e-03  -5.8115995708284421e-02 -3.9671356427509796e-02 5.6067644446407394e-03  -5.7202356415607586e-02 -4.6969658041827150e-02 -1.5088016203873985e-02  -6.1807008693939597e-02 -3.7708227315720315e-02 -5.4053899858517076e-03  -6.0334277802156284e-02 -3.5035841744451984e-02 3.0893290009605203e-03  -5.9368301453977763e-02 -4.1190095474960907e-02 -1.8808478294502110e-02  -6.4081254349576802e-02 -3.1725699655452216e-02 -8.9389809647945385e-03  -6.2568953176686204e-02 -2.9203098016887655e-02 -3.0443844138266081e-04  -6.1710124802072677e-02 -3.4775568548123789e-02 -2.3019629547495330e-02  -6.6494273187074793e-02 -2.5194084166674669e-02 -1.3025417191783699e-02  -6.5011983625187189e-02 -2.2862105743327543e-02 -4.3039894948679091e-03  -3.2915139564372406e-02 -2.3710906082732283e-02 6.3716346310633498e-02  -3.0353375128382907e-02 -2.4824110876192691e-02 6.0356637344831328e-02  -3.0776140118379293e-02 -2.1331358441314591e-02 6.7209109175625531e-02  -3.1609141057323674e-02 -2.0577530039166653e-02 6.7287500313452986e-02  -3.1148845364782820e-02 -2.3308052414368723e-02 6.0317335473393546e-02  -3.4001360972503898e-02 -2.2523003249070157e-02 6.3414076452109114e-02  -3.2458741695043362e-02 -1.9987845562670876e-02 6.6808136119507949e-02  -3.1996811989612677e-02 -2.2183828317098826e-02 5.9770683931058374e-02  -3.5047509098806301e-02 -2.1545003513927581e-02 6.2737277328303545e-02  -3.3243761333182312e-02 -1.8943792249699849e-02 6.6100241157369372e-02  -3.2845907531357091e-02 -2.0452889084511847e-02 5.9019493303918667e-02  -3.6015520028152496e-02 -2.0020288211126658e-02 6.1931345995135369e-02  -3.3984756146155488e-02 -1.7451431015690983e-02 6.5197697553645892e-02  -3.3684190705353896e-02 -1.8105754571891692e-02 5.8085781802654578e-02  -3.6888032110353290e-02 -1.7948788803914054e-02 6.0949369513808860e-02  -3.4710210765711277e-02 -1.5662566905648375e-02 6.3902030937266693e-02  -3.4504235767676618e-02 -1.5362083392188140e-02 5.6792470933901697e-02  -3.7641938326494810e-02 -1.5512226467047949e-02 5.9574448900941324e-02  -3.5406673552303244e-02 -1.3647384261959045e-02 6.2415740227317509e-02  -3.5343017204833613e-02 -1.2398234951334608e-02 5.5299073230340424e-02  -3.8304544421051044e-02 -1.2847984032596335e-02 5.8175267318542237e-02  -2.8637671106888286e-02 -5.1489225400520075e-02 9.2280550017286352e-03  -2.6405649387057036e-02 -5.5282736402421803e-02 3.9534209301789278e-03  -2.6730421476885941e-02 -5.0815424584832070e-02 1.1098734662152459e-02  -2.8526354082298092e-02 -4.8059067614674204e-02 1.0366320270535568e-02  -2.8486364466327723e-02 -5.2669866232797222e-02 2.9829596145004404e-03  -3.0790738488503205e-02 -4.8737742788221461e-02 8.1469232501157410e-03  -3.0001967910914255e-02 -4.6546763540058059e-02 9.8124138851349591e-03  -3.0166801215939624e-02 -5.1232350578430626e-02 2.2959674586912871e-03  -3.2612173581625242e-02 -4.7336518051141897e-02 7.2986349782540013e-03  -3.1445218984404978e-02 -4.4804020463366297e-02 8.9885223229514526e-03  -3.1808277275780124e-02 -4.9652900460441178e-02 1.3836837352818425e-03  -3.4442600258519453e-02 -4.5678563930544709e-02 6.1950059637280262e-03  -3.3066046655101322e-02 -4.2230180606176823e-02 7.7180282195832032e-03  -3.3749633558155197e-02 -4.7399864642382543e-02 5.7386017873965331e-05  -3.6509204500531134e-02 -4.3053663476330488e-02 4.6133948058190944e-03  -3.4815956709126995e-02 -3.8931392593560835e-02 6.1581596613623380e-03  -3.5967538622332068e-02 -4.4502370876585075e-02 -1.5008699954455358e-03  -3.8706806825261973e-02 -3.9574555835480106e-02 2.7147529912618265e-03  -3.6634608641744296e-02 -3.5318441447438009e-02 4.5096563451860116e-03  -3.8282862441228936e-02 -4.1224216398953573e-02 -3.0553487890325206e-03  -4.1012458521946391e-02 -3.5685319907675456e-02 7.4917652113091246e-04  -2.8082112798904539e-02 -2.2192451748775412e-02 6.5479110883554986e-02  -2.8646016951268439e-02 -2.1176816696334450e-02 6.5592807877306952e-02  -4.4057391715426920e-02 -2.5355272543229716e-02 6.3652099423469971e-02  -4.5804125092762292e-02 -2.4593204092218400e-02 6.3383752226256793e-02  -4.7260378686714392e-02 -2.4040379161048564e-02 6.2694365856830983e-02  -4.8499593225085985e-02 -2.2829495829535938e-02 6.1919773856895614e-02  -4.9621208676926008e-02 -2.0916361169817273e-02 6.0960254534869383e-02  -5.0706092063364391e-02 -1.8568997043064341e-02 5.9335667757366817e-02  -5.1756847865328505e-02 -1.5912633139237561e-02 5.7151991802898983e-02  -2.9013923685195626e-02 -4.5990317117295093e-02 1.8455094966529525e-02  -3.0914297794944128e-02 -4.3148218107572307e-02 1.7665726943120123e-02  -3.2530128315100035e-02 -4.1706201000803973e-02 1.6946033712255833e-02  -3.4141641645540934e-02 -3.9894879297205275e-02 1.5898879346493370e-02  -3.5865255140258415e-02 -3.7025577068604425e-02 1.4382983814533214e-02  -3.7599343960723758e-02 -3.3296412794967083e-02 1.2502914172418767e-02  -3.9394291385547085e-02 -2.9228344565674642e-02 1.0453464599376098e-02  -2.3223730912963297e-02 -4.9197674198099270e-02 1.5442902767659226e-02  -2.4202430397730856e-02 -4.3331178854933601e-02 2.4248285182692824e-02  -2.4957996688317934e-02 -4.6727249488342094e-02 1.8255981619624665e-02  -2.6007198504577823e-02 -4.3977485507742900e-02 1.7688313751926241e-02  -2.5408511756417399e-02 -4.0412011999702138e-02 1.2244460571800390e-02  -2.6428237611223822e-02 -3.3726692745296903e-02 2.1109385089803031e-02  -2.8543684082831786e-02 -3.7576219282584207e-02 1.5179616900211192e-02  -2.9465702899090493e-02 -3.4071252739490437e-02 1.3643450263014485e-02  -2.7081258654000791e-02 -3.0034184161082427e-02 1.9514958089970440e-02  -2.5922269773346763e-02 -3.7179169755769501e-02 1.0806013040777343e-02  -3.0440234158887521e-02 -3.0292697346997931e-02 1.2007918998690241e-02  -3.0727645379597789e-02 -4.6463636512482157e-02 1.7428674205867242e-02  -3.2881310240357772e-02 -4.3582004880954088e-02 1.6394217012056917e-02  -3.4794962479425262e-02 -4.2194483822417986e-02 1.5485521781830058e-02  -3.6696594345978335e-02 -4.0424523775967558e-02 1.4274032195615944e-02  -3.8693453088007125e-02 -3.7521628529912199e-02 1.2588236763407482e-02  -4.0653397271277522e-02 -3.3622794629305439e-02 1.0510484959188323e-02  -4.2692098427789517e-02 -2.9346138560532250e-02 8.2882234671531260e-03  -5.0159334989673073e-02 -2.4668858393381933e-02 6.1574022956059481e-02  -4.8720250017062261e-02 -2.2857392396518683e-02 6.7081844842487748e-02  -4.8752807259482944e-02 -2.5169439427953258e-02 6.2217264047933755e-02  -5.1436314616738241e-02 -2.3428220293687962e-02 6.0810768257624770e-02  -4.9750250864312527e-02 -2.2417092520683173e-02 6.6260519933652007e-02  -5.2650076032569118e-02 -2.1439649527651188e-02 5.9823279833691047e-02  -5.0742122509904779e-02 -2.1553683219721301e-02 6.5165770768282102e-02  -5.3933242412646847e-02 -1.9027913992472452e-02 5.8151782859825821e-02  -5.1791982277715282e-02 -2.0362386025403748e-02 6.3384507675383797e-02  -5.5376138397329494e-02 -1.6297567410773948e-02 5.5821429177587888e-02  -5.2864052581250952e-02 -1.8874510323714701e-02 6.0946713866639309e-02  -4.1396262694666071e-02 -2.6010036270118678e-02 6.1135476072526923e-02  -4.3005636950151527e-02 -2.4816307463519021e-02 6.1039444210885418e-02  -4.4504257213715662e-02 -2.4114211944588470e-02 6.0565581039376683e-02  -4.5831124759780136e-02 -2.2754645411827864e-02 5.9936970922974460e-02  -4.6974600240765434e-02 -2.0659113701275541e-02 5.9113917937587024e-02  -4.7946591533543408e-02 -1.8041146880063440e-02 5.7694976226424444e-02  -4.8719975146124479e-02 -1.5068435019553583e-02 5.5701006389836973e-02  -4.7958694373880929e-02 -2.0785918472201778e-02 6.5875092348772979e-02  -4.8787639629416131e-02 -1.9527812253875204e-02 6.4101824963625986e-02  -4.9532752196843451e-02 -1.8001249522951228e-02 6.1864598804469921e-02  -2.7985810120997850e-02 -3.1766872154534137e-02 4.4746637959342445e-02  -2.8730862329134965e-02 -2.9367000402324921e-02 4.4441268017877643e-02  -2.9430486792921474e-02 -2.7805130282779859e-02 4.3862135214261411e-02  -3.0239667812872587e-02 -2.5605787602266908e-02 4.3001514169401671e-02  -3.1117773691999116e-02 -2.2476990464718242e-02 4.1857812180558014e-02  -3.2024767490881942e-02 -1.8823289340577344e-02 4.0340326290389202e-02  -3.2936891547066430e-02 -1.4921314229841684e-02 3.8603000631782958e-02  -4.1871834015684374e-02 -7.5062788437622222e-02 -2.5946883140066324e-02  -3.8250944630841228e-02 -7.4239660064288268e-02 -2.3807963133495022e-02  -4.4596831979435363e-02 -6.6210379573390557e-02 -1.4547156552961810e-02  -4.6669333051076699e-02 -6.2149841845136486e-02 -1.7366332440209905e-02  -4.0545378239637352e-02 -7.0414120284651813e-02 -2.6648890486091883e-02  -4.3939181696590980e-02 -7.1090750469276168e-02 -2.8861437013374291e-02  -4.8439540414802952e-02 -6.0461852118743727e-02 -1.9253220375208158e-02  -4.2389419935093889e-02 -6.8773510276081362e-02 -2.8507682400929855e-02  -4.5562882568909953e-02 -6.9370950356665573e-02 -3.0763517274135881e-02  -5.0360105929010669e-02 -5.8744097082595079e-02 -2.1158682372857424e-02  -4.4269713262544821e-02 -6.7412963025761427e-02 -3.0288082880381990e-02  -4.7263481954488797e-02 -6.7926538809443909e-02 -3.2567468782045611e-02  -5.2521580537464321e-02 -5.5267309118117197e-02 -2.3793049040159261e-02  -4.6432604794081261e-02 -6.5019310244103096e-02 -3.2523880429659681e-02  -4.9256069088775715e-02 -6.5212057604214391e-02 -3.4941594720145359e-02  -5.4772377750535360e-02 -4.9863353239646156e-02 -2.7316247133364641e-02  -4.8812503311752825e-02 -6.0638053728454558e-02 -3.5440570209333291e-02  -5.1470994617665577e-02 -6.0540540567443596e-02 -3.8049385065238535e-02  -5.7199445412403176e-02 -4.3608634756419982e-02 -3.1121498641958456e-02  -5.1457284996051365e-02 -5.5322141035010028e-02 -3.8343906825383134e-02  -5.3916185084608576e-02 -5.4884958737272060e-02 -4.1232543108425210e-02  -3.4329551400020850e-02 -5.9191452518213061e-02 -3.4406216775666560e-03  -3.6929779443539777e-02 -5.6006393360086441e-02 -5.5839340121118328e-03  -3.9171019106955265e-02 -5.4874581578480408e-02 -7.2065126719971897e-03  -4.1499582317240213e-02 -5.3598441418476063e-02 -9.0387899032839999e-03  -4.4085940342853659e-02 -5.1123367576896395e-02 -1.1406781697257631e-02  -4.6640686859169646e-02 -4.6762558766942214e-02 -1.4339254083001518e-02  -4.9434388543766736e-02 -4.1712710759600626e-02 -1.7327164996849692e-02  -3.8514464672883081e-02 -8.1385121649188374e-02 -3.4114341594481241e-02  -4.0795241202048721e-02 -7.7888685586739517e-02 -3.6849499280855506e-02  -4.2502602508490445e-02 -7.6178922277308200e-02 -3.8614314846339003e-02  -4.4183673353337768e-02 -7.4876177059769872e-02 -4.0203696977721623e-02  -4.6090207270868995e-02 -7.2805030242331009e-02 -4.2156709475589721e-02  -4.8319960230705367e-02 -6.8911047180379978e-02 -4.4672346910946084e-02  -5.0857814033281365e-02 -6.4086797886662286e-02 -4.6939114131682634e-02  -2.5000171212027359e-02 -5.6202552128078155e-02 3.2129353657856974e-03  -2.6856222427095771e-02 -5.3784684505380494e-02 2.5348411883711272e-03  -2.8320283182618318e-02 -5.2250033201109373e-02 2.0661150102713080e-03  -2.9720742478473540e-02 -5.0619920778740966e-02 1.3924677396635577e-03  -3.1369177536215473e-02 -4.8464765869489654e-02 3.4778920866380475e-04  -3.3281034743635543e-02 -4.5860997808551261e-02 -8.3702987546458156e-04  -3.5293566200517615e-02 -4.2949448192947846e-02 -1.9885987818518999e-03  -4.9924025387484514e-02 -7.2593723793074702e-02 -2.6787363578702830e-02  -5.4385806726721130e-02 -6.3839423506365095e-02 -1.7059031118347188e-02  -5.3983262335542161e-02 -7.0798672783051173e-02 -2.7780133116774897e-02  -5.5560668479179287e-02 -6.6680399401874285e-02 -3.0521858769192303e-02  -5.5962401325494050e-02 -5.9492924076738805e-02 -1.9743013289558676e-02  -5.1649222378135073e-02 -6.8311131854142185e-02 -2.9568761732032336e-02  -5.6753249514667183e-02 -6.5006796326344166e-02 -3.2223154132717813e-02  -5.7163898591140398e-02 -5.7695672595139857e-02 -2.1509768173571486e-02  -5.2984898342343434e-02 -6.6505112037359676e-02 -3.1321928043233631e-02  -5.8037062834126067e-02 -6.3289255672646913e-02 -3.3948113223015670e-02  -5.8538379076138576e-02 -5.5694624180411004e-02 -2.3411347974334789e-02  -5.4438293595729215e-02 -6.4816527420262254e-02 -3.3035864570292887e-02  -5.9578494536468032e-02 -5.9637952341868153e-02 -3.6562715557055814e-02  -6.0262349930544828e-02 -5.1689292027676359e-02 -2.6191193640899942e-02  -5.6170446862773074e-02 -6.1412838626283876e-02 -3.5512651697304318e-02  -6.1517141088598556e-02 -5.3998383733457736e-02 -4.0210226272922728e-02  -6.2285331670725481e-02 -4.5835242129971157e-02 -3.0016322997128881e-02  -5.8189075266881655e-02 -5.5951007701804792e-02 -3.8958348304389247e-02  -6.3563394549920063e-02 -4.7574007219773694e-02 -4.4139022536277550e-02  -6.4457404943744093e-02 -3.9333611479267103e-02 -3.4254917934902339e-02  -6.0363439194625008e-02 -4.9668365879205228e-02 -4.2639947791888219e-02  -4.1251795572499611e-02 -6.4555033689710259e-02 -1.1437780804972854e-02  -4.3559754884992787e-02 -6.0729558989984576e-02 -1.4158670564741516e-02  -4.5600062682134963e-02 -5.9299606735913300e-02 -1.6072555579117569e-02  -4.7724477432337015e-02 -5.7827775546601380e-02 -1.8054195406606910e-02  -5.0067192764253844e-02 -5.4771462790274276e-02 -2.0663025006709052e-02  -5.2389152802266407e-02 -4.9644499530956385e-02 -2.4105699765630536e-02  -5.4918672320821080e-02 -4.3689334500692845e-02 -2.7811961765685941e-02  -3.3079162567245753e-02 -5.5940913340239595e-02 1.4646256144473842e-03  -3.5617461686796199e-02 -5.2974143040577001e-02 -4.7499627207861755e-04  -3.7844447106173205e-02 -5.1809385056150688e-02 -1.9555828308190511e-03  -4.0146570790882942e-02 -5.0411452676743407e-02 -3.63