<?xml version="1.0"?>
<VTKFile type="UnstructuredGrid"  version="0.1"  >
<UnstructuredGrid>
<Piece  NumberOfPoints="929" NumberOfCells="3984">
<Points>
<DataArray  type="Float64"  NumberOfComponents="3"  format="ascii">2.732335376117434 1.66638585452141 1.290071810752866  2.722950465402513 1.820323141355819 1.239402432854118  2.840498700174469 1.747052140861566 1.257027532418624  2.838006570746491 1.727167329260977 1.198873334768759  2.719543608276602 1.800481269578528 1.181166422553479  2.729195632697138 1.64624814321405 1.230829993240138  2.835580694609585 1.707288046412273 1.140678693780197  2.71616071225073 1.780646286974157 1.122890738777097  2.726089635822877 1.626100368369329 1.171540583342557  2.83318058012887 1.687406608899301 1.082457210156879  2.712782907055408 1.76080999128512 1.064592257678306  2.722991246875437 1.605947501501507 1.112217682646655  2.830762850662639 1.667530216772567 1.024211737039129  2.709384556216063 1.740973452585005 1.006273502290385  2.719871850186728 1.585806611846631 1.052859343882602  2.828277939249429 1.647667016352889 0.9659291587650127  2.705938789081356 1.721139543619658 0.9479202003588051  2.716700401368031 1.56569893092354 0.9934447301293239  2.825663071658508 1.627820563046296 0.9075814962504192  2.702416814164366 1.701303766422468 0.8894957279824569  2.713439913092545 1.545643363543238 0.9339231979165886  2.171478137168154 1.309859334646997 1.505424260637562  2.266327400593965 1.416276572378371 1.432023815598247  2.305406424771003 1.304691958039174 1.480703958381454  2.293833213677006 1.272195267170737 1.421047386937245  2.256386709372238 1.387350406335945 1.372224887076698  2.15696502944493 1.275155908974247 1.447731011433955  2.282175595730838 1.239553292974362 1.361440011198881  2.246366343749277 1.358284627696172 1.312459494445362  2.142304003500572 1.240301784247671 1.390157282546023  2.270484304551292 1.206880841079307 1.301829478338095  2.236302120930782 1.329181995054974 1.252694282351362  2.127603588815862 1.205416853463736 1.332618701677491  2.258808674984143 1.17425476931056 1.24217157728487  2.226233869481641 1.30012182086037 1.192893295684815  2.112936064751094 1.170584178000428 1.275050405541261  2.24719007089044 1.141740123203499 1.182422832927253  2.216202292439736 1.271176481351646 1.133019053538971  2.098370405737796 1.135881419076565 1.217393462955147  2.235637388122885 1.109410479614537 1.122548610476684  2.206243149640968 1.242426638974518 1.073013917584397  2.08396381816333 1.101375190776417 1.159577855227305  2.364546205299263 2.068719226109992 1.167084175005611  2.451092077502237 2.182216092197378 1.110734044669502  2.488677200063918 2.032695312667722 1.175186548539333  2.485844062163256 2.008934583906315 1.117808948857671  2.449441214418546 2.154950123677402 1.053289534029942  2.362997380912755 2.043352025486791 1.109986929677849  2.361466665049976 2.01801429527365 1.052872437819488  2.447804067667725 2.127701693210768 0.9958432681704744  2.483008074496295 1.98519793697831 1.06042070814903  2.35993080246027 1.992698878405088 0.9957369509284891  2.44617335071305 2.100464911806218 0.9383924378470571  2.480161652458699 1.961471322232308 1.003024513077387  2.358382171398155 1.967365728763672 0.9385867948010616  2.444524045881999 2.07322326773683 0.8809395090936363  2.477288177126619 1.937745248034914 0.9456245087069159  2.356816375911399 1.941964408472779 0.881426426574328  2.442855690962623 2.045922394464775 0.8234977546541681  2.474386062912941 1.913991921387302 0.8882213142052765  2.355227565946931 1.916457686186253 0.824274762704548  2.441185204937754 2.018520452942468 0.7660837049803439  2.471500021928948 1.890136763405394 0.8308123058552099  2.833823160162062 1.897446599888609 1.20698266505497  2.831007992040145 1.877192144730455 1.149526460129607  2.82824876913051 1.856953244971137 1.092031164120068  2.825514266357088 1.836714536945205 1.034516403069451  2.822764035321357 1.816470131476002 0.9769906491386641  2.819954446840018 1.796213517891558 0.9194463416659968  2.817032387853741 1.775928153957172 0.8618657104663962  2.625838839706284 1.73555469654092 1.273994355985354  2.621794032435346 1.715732915079366 1.214885210231872  2.617748567245513 1.695905056203223 1.155736670965698  2.613691527690761 1.67607184480461 1.096556089487759  2.609608759672883 1.65624649681362 1.03734652319407  2.605487716833109 1.636446541731382 0.9780939407494098  2.601326939903608 1.616689602297162 0.918768547074549  3.060407559513689 1.683775811333512 1.080426360339676  2.962851431645515 1.774280138996774 1.051427497265887  2.940869705617879 1.615661566259725 1.104648998922509  2.942250375965757 1.635931837370934 1.162633551051664  2.961179363357724 1.754407986504537 0.9942720782877388  3.060012897912006 1.663335029257751 1.02349863596226  2.939470691623445 1.595396707840963 1.0466369971189  2.959426701852094 1.73452823455821 0.937095697481701  3.059505397914819 1.642888115956917 0.966556242261807  2.937983288347934 1.575142496253256 0.9885742027782509  2.95750911882058 1.714623260668019 0.8798769438442655  3.058802689914767 1.622449443654072 0.9095518977896991  2.936341160785982 1.554916936056275 0.9304246486889675  2.380656458126288 1.936671835390152 1.219151768206795  2.377695660958337 1.914108721425019 1.161319243119937  2.374744682001644 1.891570797156041 1.103465417280866  2.371774983662018 1.869048589415275 1.045594710164282  2.368770404173579 1.846527822035787 0.9877056416694813  2.365745281212057 1.82395973764327 0.9297922596563676  2.362717081385468 1.80131190828793 0.8718398481372437  2.623452240330737 1.587264587993803 1.322966067156039  2.618956634154294 1.566125973281125 1.262705730673973  2.614447722035387 1.544957150231506 1.202396409207169  2.609926012792548 1.523779556237751 1.142051967292681  2.605380090501109 1.502625029385522 1.081665911346445  2.600800931043038 1.481529238512427 1.021216745397473  2.596193656331598 1.460527233951107 0.9606622189152496  3.041798781232293 1.474494349347579 0.9555483848107443  3.161692524968125 1.54226435562824 0.9415854258363152  3.041609170951467 1.496051599679473 1.01341265292187  1.61909314852576 1.435515961839519 1.555706773152887  1.658817275468362 1.527962793865104 1.469736227497901  1.757723213686891 1.428720073759284 1.530187274580987  1.746550144566283 1.387792208415137 1.479541508619159  1.653837620587346 1.487934359018609 1.419348649526156  1.610309434283778 1.39112834095568 1.508895767031083  1.73540958826739 1.346628006807065 1.429073906846858  1.649094995397051 1.447672878737614 1.369043424639414  1.60166903747482 1.346459834049687 1.462254971353468  1.724337477799191 1.305359373994737 1.378680071166599  1.644475468624703 1.407272805945968 1.318743207522587  1.593142719739779 1.301645929490841 1.415668105951223  1.713310556867832 1.264098431675236 1.328293848853412  1.639874107526476 1.36681177448786 1.268398733504984  1.584668667700083 1.256795656679529 1.369074177336384  1.70230648524157 1.222983805241038 1.277853727116712  1.635190632096216 1.32639305531403 1.217971040804407  1.576181930380668 1.212053742195501 1.322414026825869  1.691382262421497 1.18217506060718 1.227284003844348  1.630358597207758 1.286191560288068 1.167404195580947  2.256563764297882 1.969439712327065 1.211400566057641  2.25491500296849 1.945339055743168 1.153960477216332  2.253293699792547 1.921280852783105 1.09649318753744  2.251670699048877 1.897242636470052 1.038996405177222  2.250040644150641 1.873168039504105 0.9814756052724612  2.24838202734241 1.849027863588309 0.923935761075623  2.246700765203938 1.824794746258084 0.8663832121500123  2.606402779533791 1.999052007076425 1.182892334839154  2.714663345481976 2.068316919879569 1.149199163149893  2.722144626093435 1.948844730736004 1.19420264271706  2.603079886145051 1.976787545368076 1.12527415837647  2.711802489749874 2.045421403285286 1.0916444450193  2.718861785676475 1.927777522754298 1.136562618734658  2.599761233775985 1.954538056286903 1.067637464794835  2.708973327572699 2.022543378125622 1.034074547771511  2.715603676814784 1.906723260290174 1.078888156796295  2.596438892558161 1.932292084117787 1.009988830399614  2.706156600321338 1.999668238775901 0.9765008281605784  2.712352880464966 1.885670033707824 1.02120121183365  2.593093653150435 1.910040696409236 0.9523356899962695  2.703321298780739 1.976782452924662 0.9189314624404255  2.709082514384415 1.864610061922282 0.9635076006117639  2.58970916994183 1.887770550256424 0.8946766604204396  2.523647987307352 1.656262262508522 1.308192601303362  2.518617674030544 1.635498938032518 1.248408172478592  2.513555487071171 1.614714225059268 1.188578133282323  2.508465282632015 1.593921833222377 1.128717416437457  2.503343924127986 1.573147280625865 1.068820955848178  2.498196773841161 1.552420245957247 1.008870274766937  2.49305687754 1.531760303404592 0.9488271911477573  3.041215290365959 1.517655661981659 1.071199791542624  2.14204038315224 1.417556101621828 1.456004956612824  2.129528296951442 1.385474740554079 1.398466761167268  2.116901658418071 1.353242972112036 1.340994148442045  2.104234761321726 1.320961176427026 1.2835424503116  2.091578475754183 1.288715688890131 1.22606871703664  2.078984735664244 1.256583380332997 1.168527978042111  2.066516769537905 1.224654610404891 1.110855783206773  2.611443819060383 1.865667498726733 1.230608230614203  2.607616995595732 1.845277075461303 1.172359437561381  2.603789221090357 1.82489441718825 1.114078692544992  2.599951008828276 1.804511820512277 1.055778185964108  2.596086776238832 1.784128955141231 0.9974621754798501  2.592185878842047 1.763746546988445 0.9391232212953197  2.705765427256114 1.843533875673695 0.9058007629142496  2.588247189229936 1.743363062758458 0.8807375820126175  2.702373650294487 1.822413830754352 0.8480585051543316  2.586285519573413 1.865456064880536 0.836998153228353  2.178644448512966 1.636571798712365 1.347363768307033  2.288853453923155 1.726177109346711 1.302742969058726  2.298315917007149 1.626758915773408 1.338966916617082  2.2924
[...]
<PointData  Vectors="f_24"> 
<DataArray  type="Float64"  Name="f_24"  NumberOfComponents="3" format="ascii">2.4023751758790745e-02 -5.6067262238233044e-02 -7.4242953773979617e-02  2.4436278064054393e-02 -5.8916031463833847e-02 -7.7139017627573830e-02  2.3417303355812075e-02 -5.7317700966559387e-02 -7.4216642073433453e-02  2.4594334793445475e-02 -5.8544666531082333e-02 -7.4331655583047676e-02  2.5451701165486902e-02 -5.9547504382774841e-02 -7.7667986634510217e-02  2.5041880811717172e-02 -5.8018667819967062e-02 -7.3969457920860640e-02  2.5699132975629004e-02 -5.9298197260238973e-02 -7.4132454802353975e-02  2.6434846105654206e-02 -5.9831242082461683e-02 -7.7775922306645678e-02  2.6010614854413684e-02 -5.9357091218040350e-02 -7.3494109469628116e-02  2.6738114028241597e-02 -5.9607590617709198e-02 -7.3759828849142950e-02  2.7390681918472562e-02 -5.9783199295972721e-02 -7.7596901118568332e-02  2.6958499276705322e-02 -6.0174405246847654e-02 -7.2927214924541878e-02  2.7799545066252523e-02 -6.0002965741302185e-02 -7.3079947787578814e-02  2.8373126002173461e-02 -5.9764015557635608e-02 -7.7115953839379220e-02  2.7940711640803858e-02 -6.1152213697541487e-02 -7.2049587425309383e-02  2.8940222658784924e-02 -6.0584918576258376e-02 -7.1765492746580131e-02  2.9419060699326132e-02 -5.9669070642597827e-02 -7.6018513798957105e-02  2.8973227917200493e-02 -6.2450262506609434e-02 -7.0539641293133629e-02  3.0113998198539368e-02 -6.1280992041937571e-02 -6.9857025285442714e-02  3.0514684210214728e-02 -5.9628053942400394e-02 -7.4230021372972743e-02  3.0031959853303460e-02 -6.3991563999312245e-02 -6.8469221125575658e-02  2.5280939418582955e-02 -4.6152533550248356e-02 -5.9993266725010222e-02  2.5359531717767156e-02 -4.9891437133155664e-02 -6.6733788983961873e-02  2.4730245616299561e-02 -4.6843100351241548e-02 -5.9036734748107077e-02  2.5318269818910579e-02 -5.0006702175048851e-02 -5.6998325602261382e-02  2.5877734371648860e-02 -5.3029680466504907e-02 -6.5076129143771144e-02  2.5758683749051405e-02 -4.9130012899394650e-02 -5.7916501437644652e-02  2.5906986694644304e-02 -5.2368002041716023e-02 -5.5455740457011932e-02  2.6452223886665467e-02 -5.5290348338329458e-02 -6.3782637485444479e-02  2.6218474983156066e-02 -5.1348857926745255e-02 -5.6330450863691789e-02  2.6489492479552776e-02 -5.4518543113520376e-02 -5.3966947822794181e-02  2.7032441784674722e-02 -5.7184938998486909e-02 -6.2542965775270215e-02  2.6659359803266537e-02 -5.3367072191894474e-02 -5.4784574592729000e-02  2.7053042663141510e-02 -5.7084305549889865e-02 -5.2122501242663814e-02  2.7573675358638253e-02 -5.9436655126179176e-02 -6.0930620069868463e-02  2.7110450805117751e-02 -5.5789854051022138e-02 -5.2871300616706786e-02  2.7654178031727560e-02 -6.0037340371754885e-02 -4.9925906272412356e-02  2.8143540181927895e-02 -6.2132401806722783e-02 -5.8863673402770884e-02  2.7604468746612432e-02 -5.8583826957151731e-02 -5.0595118839415788e-02  2.8280973234983610e-02 -6.3288255992526243e-02 -4.7538956200010599e-02  2.8742644535549214e-02 -6.5123806298825707e-02 -5.6504834931017808e-02  2.8157117465863159e-02 -6.1686553827470278e-02 -4.8143437486729716e-02  2.9236986742893791e-02 -6.1963367710907213e-02 -7.6923451257301115e-02  2.8691506100835752e-02 -6.0722365687590062e-02 -7.0264816726580928e-02  2.7635222123917353e-02 -6.1743056978859304e-02 -7.7178289919108994e-02  2.8260460720017349e-02 -6.0337684126228738e-02 -7.8640664902076426e-02  2.9333573891794407e-02 -5.7787231081985357e-02 -7.2189290077036616e-02  2.9635433946508329e-02 -6.0270612712300026e-02 -7.8551950010160965e-02  3.0079550304837430e-02 -5.8619733081676693e-02 -7.9625865763699691e-02  2.9986363540460081e-02 -5.5216932005604201e-02 -7.3499936912467381e-02  2.8901710743083293e-02 -5.8918219943977550e-02 -7.9544252840509283e-02  3.0563096518233062e-02 -5.7098310319457390e-02 -8.0230897643188137e-02  3.0652559132372789e-02 -5.3064558799080036e-02 -7.4336763222090235e-02  2.9552587290650016e-02 -5.7592470096334759e-02 -7.9988004221022133e-02  3.1107561357082730e-02 -5.5473889294003820e-02 -8.0532094544289487e-02  3.1406437548997579e-02 -5.0666252774213973e-02 -7.4986397092258128e-02  3.0297143975008638e-02 -5.6190221871090976e-02 -8.0120581937356244e-02  3.1644586827934883e-02 -5.3110262065183642e-02 -8.0401477319804279e-02  3.2082309610101126e-02 -4.7251643167113028e-02 -7.5399705647005835e-02  3.1039441324931263e-02 -5.4069065132418208e-02 -7.9797855991229544e-02  3.2142236214360610e-02 -5.0199393672290961e-02 -7.9660199827451983e-02  3.2817188330868788e-02 -4.3102661040970172e-02 -7.5454379051747664e-02  3.1826477154759870e-02 -5.1504052603077513e-02 -7.8820947528900509e-02  2.3645587904341094e-02 -5.9540775276381672e-02 -7.4783793196326248e-02  2.4845747229427475e-02 -5.9349326402426711e-02 -7.5602766340769498e-02  2.5988852852612088e-02 -5.8947151070681499e-02 -7.5955507855645726e-02  2.7069927972092667e-02 -5.8382178077650990e-02 -7.5966340965070586e-02  2.8157279548534524e-02 -5.7800249607349884e-02 -7.5682127215870171e-02  2.9317919462008117e-02 -5.6931248418099656e-02 -7.4857886470438242e-02  3.0528222256557099e-02 -5.5954082537363239e-02 -7.3369770315453053e-02  2.4955836107006631e-02 -5.7645907455446149e-02 -7.7640202942993147e-02  2.5808299836474900e-02 -5.9103956292154980e-02 -7.7775031725480920e-02  2.6651320975020241e-02 -6.0070374289254574e-02 -7.7592453736372399e-02  2.7509007189415187e-02 -6.0553830632179534e-02 -7.7216040668183605e-02  2.8409781854064151e-02 -6.1132802601968801e-02 -7.6508964918995684e-02  2.9344935901320694e-02 -6.1881707932951738e-02 -7.5170132466377881e-02  3.0311212112651999e-02 -6.2813354522028547e-02 -7.3187031432322761e-02  2.5742186031726531e-02 -5.8301381890632317e-02 -6.8769983988957714e-02  2.6280660650752439e-02 -5.8308117193434726e-02 -7.2684429572512088e-02  2.6188652314387467e-02 -5.9127312121969040e-02 -6.9185136514190435e-02  2.5123546099042059e-02 -5.8490895829359880e-02 -6.9712313152705985e-02  2.7448133562102617e-02 -5.8088417307689030e-02 -7.2246201124122861e-02  2.6922685275919702e-02 -5.8616624114455056e-02 -6.8099852643997733e-02  2.7291675883857863e-02 -5.9910021279045871e-02 -6.8363915394718325e-02  2.8697697286617283e-02 -5.7805911506311536e-02 -7.1243565854953728e-02  2.8204225693633077e-02 -5.9120442297666762e-02 -6.6828692034054601e-02  2.8470647338857544e-02 -6.1023789733975146e-02 -6.6926596954542950e-02  2.9979352713305207e-02 -5.7507087623197575e-02 -6.9635173239694412e-02  2.9494504044103764e-02 -5.9714722235877656e-02 -6.5020680295910988e-02  2.9682035676150173e-02 -6.2314600404805284e-02 -6.4943204561902182e-02  2.8333982561554838e-02 -6.1283300259188711e-02 -8.0723684751614566e-02  2.8720502076357641e-02 -6.0912936315655822e-02 -8.1819279424720989e-02  2.9151690632413230e-02 -6.0356739853941993e-02 -8.2416782461645494e-02  2.9636940127522507e-02 -5.9649903497132707e-02 -8.2620410591548732e-02  3.0229889810066763e-02 -5.8924998699565051e-02 -8.2496839090280966e-02  3.0793570965025371e-02 -5.7747233771735719e-02 -8.1771813637947180e-02  3.1370632647074202e-02 -5.6404182443767235e-02 -8.0302569178904604e-02  2.4463710217423988e-02 -5.4607843490321051e-02 -7.2947432778735652e-02  2.5311981278804990e-02 -5.7160745198716043e-02 -7.2240821617806775e-02  2.6188766235777081e-02 -5.8943449939275763e-02 -7.1525075085460785e-02  2.7076942356618044e-02 -6.0199650294130193e-02 -7.0777665277741958e-02  2.7980724917148266e-02 -6.1713690666668798e-02 -6.9691101752979365e-02  2.8898244062471549e-02 -6.3644259916524892e-02 -6.8004107598062066e-02  2.9848155967620232e-02 -6.5867642052120493e-02 -6.5844812149830262e-02  2.9268646430980316e-02 -6.2836131631019407e-02 -5.9087886712190618e-02  2.8935188795378274e-02 -6.0632763454744193e-02 -5.9869560785809114e-02  2.8049758356486071e-02 -6.1040603133367267e-02 -6.1144373065729694e-02  2.9197830217080376e-02 -4.5392422510581794e-02 -6.8131583321748207e-02  3.0198828728574153e-02 -4.9508035499664781e-02 -7.2868821898227798e-02  2.8155663758495979e-02 -4.6540354755057141e-02 -6.8059094524123176e-02  2.8178410577005531e-02 -4.8870006748353852e-02 -6.6011306540665268e-02  2.9937764429802515e-02 -5.1525303161356693e-02 -7.1370949669315759e-02  2.9082833580256082e-02 -4.7457993560703619e-02 -6.6006437784201538e-02  2.8215169743593171e-02 -5.0537160347084220e-02 -6.4397303471609213e-02  2.9793004639923716e-02 -5.2973692455747616e-02 -7.0111923776172008e-02  2.8982190161231443e-02 -4.8947307576858556e-02 -6.4299729935513042e-02  2.8213836728567240e-02 -5.1881232171124114e-02 -6.2904132974702015e-02  2.9634518565525625e-02 -5.4049330479835525e-02 -6.8962110298010984e-02  2.8845048694487875e-02 -5.0137333338183737e-02 -6.2740115122143628e-02  2.8255077813839267e-02 -5.3447245244313803e-02 -6.1048301310137616e-02  2.9487160250862485e-02 -5.5222740997030166e-02 -6.7514379528620189e-02  2.8722660328273315e-02 -5.1422182758129230e-02 -6.0902149119590125e-02  2.8404249979168648e-02 -5.5334054902926394e-02 -5.8637750339387056e-02  2.9426860681655276e-02 -5.6628792405713502e-02 -6.5452170212792829e-02  2.8761142271524154e-02 -5.3071332420368794e-02 -5.8434796053819633e-02  2.8630249969332507e-02 -5.7385951218980900e-02 -5.5887848368375799e-02  2.9392300706886268e-02 -5.8113959882119176e-02 -6.2965368224468285e-02  2.9978114641223658e-02 -6.1530727784202273e-02 -8.0740507745090201e-02  3.0130320118289616e-02 -6.0896634426668560e-02 -8.1969645959671156e-02  3.0352732972365983e-02 -6.0112620336309389e-02 -8.2712022253086506e-02  3.0661649271316357e-02 -5.9216471293880066e-02 -8.3055879919325240e-02  3.1041922347538709e-02 -5.8252810316598361e-02 -8.3069762614827944e-02  3.1376231726785386e-02 -5.6796849719797413e-02 -8.2534805041716619e-02  3.1654197623074247e-02 -5.5040356912548973e-02 -8.1265470333290429e-02  2.6166853093693387e-02 -6.1294404906734150e-02 -7.6724076625930421e-02  2.5307222255473757e-02 -6.0845813174119731e-02 -7.2395088840502275e-02  2.4811038420286095e-02 -6.0514932416415285e-02 -7.6102688784584857e-02  2.7021503481350555e-02 -6.0168147362581581e-02 -7.8020714686443587e-02  2.6374572282821047e-02 -5.8910142474820390e-02 -7.3855718932779993e-02  2.5856009957039267e-02 -5.9847576961313986e-02 -7.7167481416782688e-02  2.7856054246841996e-02 -5.8986704459650756e-02 -7.8777949118972054e-02  2.7400839009225977e-02 -5.7109073438387802e-02 -7.4751191247634671e-02  2.6862397742371341e-02 -5.9050795511408259e-02 -7.7721109608008015e-02  2.8679526558495306e-02 -5.7856995383757472e-02 -7.9093314886151331e-02  2.8385524835401767e-02 -5.5557761345036594e-02 -7.5185683088347791e-02  2.7843230101002384e-02 -5.8207496154010552e-02 -7.7873045154988663e-02  2.9566267778608931e-02 -5.6657331512887384e-02 -7.9097660207383375e-02  2.9412147303473645e-02 -5.3858759745346478e-02 -7.5374910807528367e-02  2.8840184961669069e-02 -5.7310652213121753e-02 -7.7724951261164119e-02  3.0482156689713359e-02 -5.4808376032530998e-02 -7.8632348385648629e-02  2.5359115420532676e-02 -5.6125367552774454e-02 -7.6818771290292687e-02  2.6028377591549016e-02 -5.8265439463899019e-02 -7.6519337244213531e-02  2.6768035635145196e-02 -5.9761963455850123e-02 -7.6033857762197288e-02  2.7556363015244542e-02 -6.0730551906020232e-02 -7.5455297954472061e-02  2.8367075451301203e-02 -6.1855162981819693e-02 -7.4545455415268025e-02  2.9177730252097016e-02 -6.3288687919240666e-02 -7.2993114132950496e-02  3.0029333664079141e-02 -6.4998488232197685e-02 -7.0868593585971099e-02  2.6840184731570536e-02 -5.9457319559310523e-02 -6.2773219763460730e-02  2.5911054461790282e-02 -4.9177089537701661e-02 -6.7281808349273331e-02  2.6310394944716368e-02 -5.2147098982993627e-02 -6.5477854270527949e-02  2.6752961312146141e-02 -5.4283440524339199e-02 -6.4064795701823982e-02  2.7189427926033127e-02 -5.6059389245825646e-02 -6.2726127507952839e-02  2.7616070203164672e-02 -5.8139949213951124e-02 -6.1036507005546296e-02  2.8056610060890063e-02 -6.0665705028789062e-02 -5.8864570225739585e-02  2.8576574990307916e-02 -6.3440174110629299e-02 -5.6402917533285406e-02  2.5576727350302027e-02 -5.9951877746324468e-02 -7.8919200903651329e-02  2.6408295306599484e-02 -6.0194662592448538e-02 -7.9682476674299230e-02  2.7230806949303632e-02 -6.0149687854959617e-02 -7.9980426735184032e-02  2.8066780226586922e-02 -5.9857113814937822e-02 -7.9939956826859657e-02  2.8947572837288393e-02 -5.9554885595049026e-02 -7.9573413552366634e-02  2.9864854129090835e-02 -5.9042774175974339e-02 -7.8601382451056606e-02  2.9894477504507831e-02 -5.5927529060679507e-02 -7.7060275980140508e-02  3.0846300364610363e-02 -5.8499587837810195e-02 -7.6885375701746916e-02  3.1006460278165785e-02 -5.4338911429398631e-02 -7.5698195763123116e-02  3.1472424505828475e-02 -5.2631803876114922e-02 -7.7469958869889624e-02  2.7691429437790127e-02 -5.5438190609781356e-02 -7.8275682596460852e-02  2.7674519869907856e-02 -5.7673043396913128e-02 -8.0588139058224970e-02  2.6724022893633521e-02 -5.5424081256812578e-02 -7.7504142509598403e-02  2.7021563498048278e-02 -5.7767614948625833e-02 -7.6978997810749863e-02  2.7902360398577821e-02 -5.9291954651531219e-02 -8.0636119943077844e-02  2.7805378602379058e-02 -5.7673787198111157e-02 -7.7768797055714337e-02  2.7509590876296671e-02 -5.9397769241318593e-02 -7.6393155132348220e-02  2.8252267398845336e-02 -6.0347764334466703e-02 -8.0431546808123811e-02  2.8122319092929973e-02 -5.9207907304657650e-02 -7.7226395025495012e-02  2.8073130748133366e-02 -6.0519470932592037e-02 -7.5741273467244088e-02  2.8729491829363841e-02 -6.0954156146181313e-02 -8.0056422451725784e-02  2.8537425355700485e-02 -6.0256406302454504e-02 -7.6621411761485431e-02  2.8635327869111549e-02 -6.1839865519496828e-02 -7.4730422158802032e-02  2.9248803156665684e-02 -6.1669176907528774e-02 -7.9323554770373561e-02  2.8950209873985007e-02 -6.1486738153242598e-02 -7.5643358046969533e-02  2.9169686119502797e-02 -6.3464224188246085e-02 -7.3094056507719912e-02  2.9728348697978690e-02 -6.2491444642478036e-02 -7.7950737470766071e-02  2.9318989375438996e-02 -6.2947408306509037e-02 -7.4058503489316627e-02  2.9722561338203009e-02 -6.5356604271799693e-02 -7.0903556741066964e-02  3.0207006379619185e-02 -6.3528744184167749e-02 -7.5893771981068919e-02  2.9707223794267643e-02 -6.4664125401967032e-02 -7.1890209814055903e-02  2.6699513402068723e-02 -5.2645080802554665e-02 -7.3400748971635107e-02  2.6045834556236859e-02 -5.3044535311224203e-02 -7.3368056290065833e-02  2.6446815536314044e-02 -5.5863058734382222e-02 -7.2333391718494067e-02  2.6966056662178418e-02 -5.5352564960342611e-02 -7.2272773301253063e-02  2.7003485410633958e-02 -5.7886329336433021e-02 -7.1405988261951894e-02  2.7399957838459221e-02 -5.7288777146887543e-02 -7.1273213606302357e-02  2.7594172456158448e-02 -5.9412012830141518e-02 -7.0500786379236333e-02  2.7849281490377610e-02 -5.8763471785705013e-02 -7.0298262075519313e-02  2.8151299170805801e-02 -6.1203801135608110e-02 -6.9233339199141458e-02  2.8274647335865023e-02 -6.0551266612476742e-02 -6.8928583564153337e-02  2.8700464980971441e-02 -6.3411233971405426e-02 -6.7397980477214847e-02  2.8687801300088085e-02 -6.2695084466391660e-02 -6.7018686332061997e-02  2.9274608595304851e-02 -6.5919353837352423e-02 -6.5129818536645775e-02  2.9161356311139138e-02 -6.5139552619215960e-02 -6.4671813222564684e-02  2.6979726808658771e-02 -6.0980638504652546e-02 -7.1299359679559415e-02  2.7865014767234506e-02 -5.8428912806494641e-02 -7.3019813203719780e-02  2.8701893269434977e-02 -5.6149845859713443e-02 -7.4147702835130017e-02  2.9533769286345157e-02 -5.4247543125453629e-02 -7.4799631897482413e-02  3.0428634556328372e-02 -5.2141572147014370e-02 -7.5229284851241654e-02  3.1316110292822913e-02 -4.9030071226137548e-02 -7.5381532786362102e-02  3.2274366149403350e-02 -4.5269617636627152e-02 -7.5068635765794062e-02  2.4935400759736801e-02 -3.6138205998850113e-02 -4.6740369118019542e-02  2.4544493472446770e-02 -3.7979434664105499e-02 -4.6178871627550168e-02  2.4170048286506551e-02 -3.3422629973793264e-02 -3.9204522049501395e-02  2.4446602936355973e-02 -3.5306788237828589e-02 -3.6551782339298809e-02  2.4970696891011335e-02 -4.0392551025033072e-02 -4.3514803266082196e-02  2.5296777903510998e-02 -3.8388544555410388e-02 -4.4031695695666839e-02  2.4596706931930588e-02 -3.6938385154962415e-02 -3.4471771400540842e-02  2.5257712663450241e-02 -4.2311101156188885e-02 -4.1480331015826925e-02  2.5500556658448449e-02 -4.0160494820611320e-02 -4.1980073484627151e-02  2.4763356842343917e-02 -3.8704710452262349e-02 -3.2363005452565395e-02  2.5539501650119839e-02 -4.4250426110407207e-02 -3.9489433643402037e-02  2.5689545527432515e-02 -4.1952936112579699e-02 -3.9977275461959026e-02  2.4974885479962319e-02 -4.0783852955341510e-02 -3.0017584594286346e-02  2.5870305377514110e-02 -4.6535890837168567e-02 -3.7227541241718683e-02  2.5932136012239027e-02 -4.4085580566916811e-02 -3.7686476895521702e-02  2.5216349987457077e-02 -4.3116154055580669e-02 -2.7548758871210274e-02  2.6234651200102099e-02 -4.9135110482670531e-02 -3.4761005524400521e-02  2.6225378423328623e-02 -4.6532308829278932e-02 -3.5186576772943574e-02  2.5454160715774585e-02 -4.5669497843436394e-02 -2.5020856597536098e-02  2.6617959998447946e-02 -5.1987332307054213e-02 -3.2201651930040577e-02  2.6530812298824390e-02 -4.9232771571115552e-02 -3.2588203982903283e-02  2.6969984603353585e-02 -6.0889391122282907e-02 -7.9990036081738353e-02  2.7580610191279265e-02 -6.0690273164865666e-02 -8.0981998124631790e-02  2.8206979958070210e-02 -6.0278489684861367e-02 -8.1490151441751854e-02  2.8873430836464591e-02 -5.9699936097219422e-02 -8.1612344283606475e-02  2.9612644483993079e-02 -5.9102276246591104e-02 -8.1407919540611634e-02  3.0366809654374969e-02 -5.8113938410060698e-02 -8.0607936952777237e-02  3.1175141434663385e-02 -5.6996081561630038e-02 -7.9028314862774562e-02  2.4729527449961562e-02 -5.3156992712491080e-02 -7.1257872546604817e-02  2.5461108238571981e-02 -5.6080269616342125e-02 -7.0225791986742989e-02  2.6259496227361321e-02 -5.8163705957654827e-02 -6.9335027624175122e-02  2.7077781560487707e-02 -5.9738864813065569e-02 -6.8456107397646848e-02  2.7888753768017419e-02 -6.1594796958089164e-02 -6.7235749526176558e-02  2.8693837292965759e-02 -6.3910076918031813e-02 -6.5448860775229933e-02  2.9528409785099737e-02 -6.6554014615507071e-02 -6.3240840902025294e-02  2.8846630161417974e-02 -5.9874313494906975e-02 -8.2060168234098868e-02  2.9013606084090073e-02 -6.0481616646471496e-02 -8.2702845692274429e-02  2.9259747203745780e-02 -6.0739893342720862e-02 -8.2941729627138208e-02  2.9621707085867678e-02 -6.0674200122779874e-02 -8.2897671366797793e-02  3.0065858961759936e-02 -6.0612428967549120e-02 -8.2512304544813328e-02  3.0463205261926481e-02 -6.0391888327139549e-02 -8.1478919814257297e-02  3.0853107933604448e-02 -6.0194406880811027e-02 -7.9662107588129277e-02  2.7086173075132485e-02 -6.0066973283742255e-02 -6.0781984007161088e-02  2.6028788379493680e-02 -5.8440190709225216e-02 -6.2006267464000016e-02  2.8214071390500035e-02 -6.2162105303866171e-02 -5.8997607216899464e-02  2.9352102203681479e-02 -6.4534016297411775e-02 -5.6845780387394684e-02  2.2490391968278185e-02 -4.5478167942874896e-02 -4.7616458990693757e-02  2.2267870616639991e-02 -4.6546514309458852e-02 -4.8931843476739449e-02  2.1676511411467491e-02 -4.2675846612108194e-02 -4.0161501646625457e-02  2.3410285661685539e-02 -4.8621161852176138e-02 -4.5453495713558598e-02  2.3265227064777075e-02 -4.9556912700878510e-02 -4.6904716053256357e-02  2.2545311054857280e-02 -4.5480567550292415e-02 -3.7740241919318074e-02  2.4150094413691158e-02 -5.1790698257021754e-02 -4.5358253441037250e-02  2.4277796000500628e-02 -5.1010046588734148e-02 -4.3803312377422153e-02  2.3361607546436979e-02 -4.7713894448514003e-02 -3.5888575075924904e-02  2.5056749432064755e-02 -5.3874371310068760e-02 -4.3867511872504497e-02  2.5160068771769240e-02 -5.3279095668770371e-02 -4.2215427895144597e-02  2.4207197651247368e-02 -4.9955926997345711e-02 -3.4073349742632493e-02  2.6040301785485453e-02 -5.6406573791360472e-02 -4.2061924535159161e-02  2.6086877957424693e-