<?xml version="1.0"?>
<VTKFile type="UnstructuredGrid"  version="0.1"  >
<UnstructuredGrid>
<Piece  NumberOfPoints="753" NumberOfCells="3082">
<Points>
<DataArray  type="Float64"  NumberOfComponents="3"  format="ascii">7.286632227865836 3.03274519213382 4.207078988381193  7.197695108995941 3.124988431660427 4.19570795435409  7.189396313753913 2.968405171405308 4.231253797694196  7.201590336437536 2.981442075427543 4.313743653418511  7.205649367047972 3.147810567551592 4.276279123075918  7.29920369902222 3.047042685783688 4.28950747971517  7.213713644126577 2.994555029804258 4.396187570130975  7.2135378064232 3.170719639667588 4.356764801740844  7.311715002371998 3.061414572176883 4.371880546419248  7.22581378567056 3.00767487495595 4.478585374698423  7.221401328214035 3.193641948154074 4.437175939979581  7.324203184368486 3.075789600140675 4.45419482082501  7.237911529162203 3.020760755205141 4.56094337226216  7.229259972247261 3.216525072833408 4.517530541239058  7.336685132302291 3.090123716142268 4.536461114178141  7.250019370335728 3.03378550778124 4.643277609795204  7.23712744044324 3.23933029927319 4.597853748380541  7.349165974553108 3.104380727559842 4.618697233410958  7.262159256667534 3.046705237058347 4.725619679809667  7.245015820755404 3.261997466048173 4.678187211027408  7.361647877226726 3.118529915653846 4.700926350412471  6.986995224276893 2.685967135271245 4.267232117622222  6.912851286054399 2.755152488753718 4.285507153711515  6.904120378896825 2.618057703749016 4.269854105591572  6.914076351629071 2.604343062132202 4.351815162846783  6.921683067417454 2.752813201667625 4.369326870768377  6.998977755830263 2.676682047154523 4.349766570128829  6.923972662547928 2.590676315658786 4.433789348809094  6.930455584006917 2.750519732168721 4.453129015503446  7.01089886569997 2.667435872830925 4.432301235893279  6.933861682294395 2.577014331085556 4.515761143780775  6.93921654139672 2.748233728022233 4.536915690296128  7.022806250519762 2.658190698212573 4.514827024925242  6.943765601234688 2.563331436936502 4.597722537678862  6.947993688023963 2.745927347392484 4.620688358083914  7.0347284838749 2.648929723484579 4.5973433307669  6.953698230184381 2.549607034597142 4.679671760004681  6.956805693411241 2.743569900219202 4.704451307124305  7.046676449940429 2.639631375439093 4.679850223550475  6.963680083429856 2.535821076691055 4.761610874701729  6.965672381847678 2.74112848706462 4.788216432732919  7.058665515259534 2.630264262212357 4.762357419391353  7.078276489861842 3.078160539303382 4.221169090290352  7.085992488744699 3.101627323300701 4.301302532877397  7.093638712190425 3.125161308232561 4.381350920583214  7.101261424114768 3.148704278930195 4.461330562551789  7.108886194183784 3.172209421159515 4.541264720896564  7.116552203968102 3.195652125171572 4.621180270859496  7.124272169566726 3.218960983301321 4.701118654349656  7.468208641950674 3.101794402455512 4.163648726314145  7.418466401535928 3.2064661827626 4.146877102028487  7.332546849990818 3.127800476646134 4.180323271572033  7.343898683905485 3.147598765932012 4.261873454982304  7.429038310457831 3.229478124000213 4.227698242945549  7.483142690069104 3.116036515842793 4.245396732683095  7.355187078403889 3.16748857877525 4.343330027158149  7.439547971259073 3.252582860484845 4.308395747204361  7.498011770874387 3.130345379118904 4.327067347781146  7.366449865451481 3.187383825078495 4.424705381147201  7.450023763433965 3.275686734672242 4.388994400947435  7.512854279725512 3.144649194441611 4.408657886150884  7.377701702424453 3.207230468184825 4.506019410479304  7.460480317331337 3.298732770214455 4.469518242072476  7.527685386039012 3.158902478446129 4.490184000028443  7.388948704274 3.226989915608926 4.587295793459119  7.470919450338905 3.321668756521091 4.549993657160817  7.542514858207786 3.173070010221123 4.571661847954044  7.400193231898595 3.246624525000084 4.668567052794643  7.481350823476999 3.344472089185301 4.630429587176312  7.557349955362561 3.187126931796892 4.653099027908879  6.760434199724414 3.031268088496447 4.252147480820289  6.752566307624556 2.89384017037231 4.285953109104801  6.840672518820599 2.96999643711373 4.268936180764642  6.842858350326619 2.988793270306744 4.350837993878026  6.755055005042832 2.908074922962994 4.368849125033425  6.759057920308705 3.055792431357359 4.33196404375954  6.757672061452213 3.080361563824576 4.411678869446511  6.757500991613427 2.922361799717657 4.451661720964077  6.845005634996367 3.007645543663469 4.432634255400757  6.759947177396054 2.936648003392238 4.534422130908533  6.756298975720928 3.10492534818621 4.491309735007145  6.847157232823135 3.026504011242833 4.514371618914414  6.75496074655226 3.129440848975606 4.570898673448966  6.762418818063145 2.950893714830571 4.617142259217467  6.849338806211382 3.045327560597288 4.59607632422356  6.753662644581636 3.15386115082714 4.650470448912627  6.764936465049373 2.965058666200306 4.699849306922621  6.8515596738092 3.064069356946781 4.677763038283826  6.752391439649059 3.178149056744239 4.730051405341423  6.767509942713211 2.979109307720776 4.782559672256353  6.85381906037817 3.082689536884403 4.759455255422494  7.38875642181271 3.015194890476496 4.190304390547722  7.404322704964906 3.026230525519039 4.272742788081057  7.419829344563563 3.037330026771596 4.35511955428223  7.435312140481209 3.048427191751383 4.437437530758329  7.450785632580601 3.059482030528751 4.51970403633393  7.466255021659199 3.070464022907469 4.601931741293953  7.481727321083979 3.081350579979563 4.684128817829277  6.796054387518032 2.652568772098213 4.286784344396852  6.805073254629777 2.642896332755083 4.36963452702301  6.814032587991504 2.63327880464968 4.452483897968827  6.822978306540522 2.623667347138493 4.535323920598536  6.831937122883463 2.614032266547273 4.618150104906979  6.84093007494268 2.604347868235635 4.700964876769324  6.849982883604065 2.594584938144584 4.783774465878424  6.660277424366673 2.992783056630364 4.259273033061682  6.658265184374438 3.017307108888927 4.338953182251768  6.656228938378888 3.041871078537238 4.418508245408129  6.654206815829832 3.066420778476192 4.497980410331361  6.652217479482476 3.090916992796401 4.57740540198028  6.650264562421577 3.115321194677652 4.656811576454463  6.648353716021818 3.139598989721736 4.7362239288643  7.770387370297348 2.916395362209368 4.114239276231005  7.749088863647986 3.021336541737583 4.117600757873099  7.649770391154993 2.977943531958256 4.141633204223855  7.666689511081853 2.982761010383214 4.221091628593651  7.766468710780987 3.028173302305289 4.195239914292971  7.787897679000459 2.915153514719344 4.191146614725576  7.683599666417891 2.987593393888026 4.300486160462469  7.783830454517751 3.03500842701905 4.272803364406879  7.805424134643955 2.913880773143771 4.267991458203156  7.700498345754356 2.992406859884283 4.379815296314055  7.80117885402685 3.041820100918962 4.350294388122862  7.822948994470151 2.912575185976773 4.344771567758952  7.818516490618102 3.048588645537564 4.427728799665644  7.840463121504788 2.911227243375305 4.421498137697552  7.717387226453662 2.9971800709852 4.459081167617963  7.835849492770503 3.055301397159667 4.505116281725866  7.857960942106604 2.90983410634598 4.498180812020925  7.734268758751052 3.001896099622873 4.538300118604146  7.853195533684761 3.061950278419348 4.582473709022223  7.875439136022266 2.908407323107809 4.574840353087378  7.75114628754545 3.00654559868325 4.617478083858899  6.819280287152956 2.521836626091575 4.261578177082985  6.829492261626423 2.499972004267888 4.34130384219929  6.839650763093399 2.478143034858648 4.421045470289369  6.849798819772141 2.456313289192816 4.500782267969891  6.859959700566347 2.434460613144489 4.580505223915586  6.870149559255236 2.412566884810039 4.660211287316168  6.88038116215389 2.390611537252404 4.739904044363982  7.65545345745675 2.85410992411247 4.13833169907562  7.674639839807348 2.847934322893389 4.216366329979082  7.693847011021663 2.841738778170165 4.294344724678292  7.713050484140778 2.835512537883707 4.372261973360028  7.732238957276956 2.829246659662395 4.450125690614372  7.751405378709181 2.82293808095367 4.527948419963705  7.770546970547794 2.816590884400966 4.605746202977956  6.518292061767609 2.886513217272681 4.287868206614553  6.414886666010758 2.828438760019545 4.300094531031327  6.539104172724381 2.79540343491445 4.304468809267575  6.538964977619434 2.803101905622879 4.38848305087555  6.409319769115878 2.84351793871333 4.382889843547717  6.515313272489648 2.908064888837294 4.369009788197206  6.538762983959554 2.810837768638015 4.472393863935589  6.403719367147415 2.858600491307051 4.465588294760209  6.51230599762596 2.929632359949406 4.450039547366128  6.538560517595534 2.818555374407924 4.556242058795321  6.398125972701378 2.873655135825055 4.54821268683351  6.509305468298466 2.951183049036095 4.530997061419291  6.538386427136715 2.826222537213772 4.640050882616968  6.392562890842965 2.888657092464841 4.630791515566786  6.506332517726893 2.972683645447318 4.611910400885458  6.538258872200716 2.833812974580159 4.723837820490933  6.387042760359718 2.903585273024044 4.713344309472524  6.503400258155998 2.994103910451622 4.692798952531911  6.538188229611221 2.841305707985847 4.807616849436891  6.381571550728668 2.918424228035057 4.795889585981294  6.500523082055797 3.015411030409501 4.773675236122117  6.436612316500061 2.700588267027124 4.304756185473353  6.433220977840971 2.702282238453268 4.388879426907413  6.429766719897874 2.704010392323708 4.472912680412295  6.426302157766407 2.705725510481791 4.556885381572786  6.422859474416689 2.707400264882334 4.640815549619278  6.707460071256402 2.552388664415056 4.283774735068264  6.716866814306838 2.533196709887851 4.364767204805332  6.726212252982296 2.514051689557354 4.445763977073996  6.735542430449474 2.494906120791183 4.526750497560464  6.744885601811126 2.475733148241161 4.607721186544528  6.754262333362409 2.456511397014257 4.688674039501657 
[...]
<PointData  Vectors="f_24"> 
<DataArray  type="Float64"  Name="f_24"  NumberOfComponents="3" format="ascii">-2.0268506216926076e-02 -2.0179732265343794e-02 -4.1229758826328268e-02  -1.8826607685685625e-02 -1.5882637400043424e-02 -3.3485904711411794e-02  -1.8672724381518759e-02 -2.2060004592003874e-02 -4.1495122350301061e-02  -1.6753070638928013e-02 -2.3714491163884500e-02 -4.2037127426366297e-02  -1.7090978675629993e-02 -1.8753858878969392e-02 -3.3561730857367134e-02  -1.8509674690986935e-02 -2.2190768103166707e-02 -4.1659471109308677e-02  -1.4843429431044790e-02 -2.5249154260070204e-02 -4.1892518417465469e-02  -1.5317211623651839e-02 -2.1251015522088062e-02 -3.3033831756491279e-02  -1.6747663122841910e-02 -2.3999351105694740e-02 -4.1517369259155876e-02  -1.2869826578244144e-02 -2.7040245707258586e-02 -4.1293525452183441e-02  -1.3329879921515377e-02 -2.4203033488941466e-02 -3.1994304297200266e-02  -1.4800528898878017e-02 -2.6141945992048533e-02 -4.0910026908689626e-02  -1.0821136747149839e-02 -2.9048298825811582e-02 -4.0278221251427791e-02  -1.1186402061814716e-02 -2.7577607856627936e-02 -3.0512485379234490e-02  -1.2669400727695807e-02 -2.8547334286882213e-02 -3.9867299544217742e-02  -8.6318165133019986e-03 -3.1224229490874493e-02 -3.8666072701943499e-02  -8.8888201115368583e-03 -3.1163020526334687e-02 -2.8436684256924378e-02  -1.0307336694350296e-02 -3.1133959090617350e-02 -3.8217532958573573e-02  -6.3002085974258959e-03 -3.3612820585765049e-02 -3.6616628135135339e-02  -6.4482419603604200e-03 -3.5085115593091645e-02 -2.5917528470823355e-02  -7.7764753217575058e-03 -3.4005340270512288e-02 -3.6214614934161872e-02  -1.3135456058987752e-02 -3.0697989916566529e-02 -4.2006326363827763e-02  -1.2594811992403606e-02 -2.8254217573647624e-02 -4.2934125970053770e-02  -1.1134632715025846e-02 -3.2648309662668171e-02 -4.1024679685434107e-02  -9.4120050119619898e-03 -3.1739616486954551e-02 -4.1483660960901454e-02  -1.0651324835922469e-02 -2.8558587085637074e-02 -4.3056862539669213e-02  -1.1497109776726100e-02 -3.0173807342128125e-02 -4.3049041309469155e-02  -7.8284827718496219e-03 -3.0992673868526385e-02 -4.1341988647000172e-02  -8.7552002404740707e-03 -2.8825747940129362e-02 -4.2703270595020992e-02  -9.8058058230066272e-03 -2.9780958088551992e-02 -4.3184299273490143e-02  -6.3796578387523640e-03 -2.9839640676216909e-02 -4.0688151282643588e-02  -7.0398519844470245e-03 -2.9065282347861151e-02 -4.2018917517684315e-02  -8.1984575447680008e-03 -2.9149524239332029e-02 -4.2736391978819857e-02  -5.0112713012444151e-03 -2.8584288769391848e-02 -3.9584706166696633e-02  -5.4323909695908916e-03 -2.9342340521955914e-02 -4.0975936689848363e-02  -6.6441774924567059e-03 -2.8473830960457160e-02 -4.1821068181243017e-02  -3.6664607426794508e-03 -2.7375955043063286e-02 -3.7858109248367092e-02  -3.8682522039411521e-03 -2.9695895348067675e-02 -3.9339771799634819e-02  -5.0824493874365526e-03 -2.7856879573296012e-02 -4.0264249103515441e-02  -2.3862813962193044e-03 -2.6210317049921099e-02 -3.5645631255123600e-02  -2.3810121003581867e-03 -3.0152989923788114e-02 -3.7357890649767952e-02  -3.4969845784958414e-03 -2.7332131106578738e-02 -3.8214999125158779e-02  -1.6827300802610856e-02 -1.7161149453776663e-02 -3.3326621892477357e-02  -1.5045649960205468e-02 -1.9843131508801605e-02 -3.3339884154318697e-02  -1.3093255725870381e-02 -2.2221712772994832e-02 -3.2743843744636007e-02  -1.1080712092025286e-02 -2.5042103670124008e-02 -3.1635509175719688e-02  -9.0277473166872260e-03 -2.8254510730323937e-02 -3.0091233824339314e-02  -6.8930505288389132e-03 -3.1653935929797400e-02 -2.7960566337538774e-02  -4.6311154922914020e-03 -3.5323060977331296e-02 -2.5386658608053031e-02  -2.3136783849953255e-02 -1.8129696468873351e-02 -4.3549688532054875e-02  -2.2198083149340794e-02 -1.3639474430170603e-02 -3.5569410260070836e-02  -2.0846440533429451e-02 -1.6766886392386340e-02 -3.7709024754292476e-02  -1.9411800926283685e-02 -1.9342050718621509e-02 -3.7855075171933185e-02  -2.1044550694584656e-02 -1.6710109998910080e-02 -3.5585888035160079e-02  -2.1851872521648476e-02 -2.0333103188975823e-02 -4.4002001157019209e-02  -1.7827683899124501e-02 -2.1677713911663194e-02 -3.7409048093662654e-02  -1.9813169977644762e-02 -1.9321278440002497e-02 -3.4933249891335942e-02  -2.0645277243945062e-02 -2.2264777018800076e-02 -4.3834259125346588e-02  -1.5937966227713950e-02 -2.4444344589420443e-02 -3.6497064086308220e-02  -1.8065603216712568e-02 -2.2457062740244213e-02 -3.3776725410688303e-02  -1.8938234105667369e-02 -2.4597748158552566e-02 -4.3215703844200697e-02  -1.3759358270098455e-02 -2.7606427169018861e-02 -3.5162232881093901e-02  -1.5851213390995277e-02 -2.6097332167444601e-02 -3.2195443376281323e-02  -1.6803971043121899e-02 -2.7251489886927910e-02 -4.2169237852469892e-02  -1.1289131813260581e-02 -3.0998140267275535e-02 -3.3250833142871764e-02  -1.3219042055724087e-02 -3.0024529273520541e-02 -3.0055277402356886e-02  -1.4181311564234448e-02 -3.0126165448128885e-02 -4.0537272105856170e-02  -8.5774470590840625e-03 -3.4731146817073046e-02 -3.0979553610439758e-02  -1.0239242552235671e-02 -3.4343447555747614e-02 -2.7592441000679778e-02  -1.1077786551800682e-02 -3.3340657675768423e-02 -3.8614922680473583e-02  -1.0471981180761918e-02 -1.6761159242913177e-02 -3.0661395685197743e-02  -9.7597458200837494e-03 -2.2773216019638168e-02 -3.8179443581960237e-02  -1.1875290023669735e-02 -2.0599737159011991e-02 -3.5858697785820036e-02  -1.0008072417419203e-02 -2.2690983146807356e-02 -3.5315479213082139e-02  -8.0596303465034907e-03 -2.4578101848207343e-02 -3.7776298009424281e-02  -8.7735302536740244e-03 -1.9601465247487404e-02 -2.9989037599328666e-02  -6.8215452650447700e-03 -2.2145614592249861e-02 -2.8951403521230018e-02  -6.1423897229588012e-03 -2.6230491764866047e-02 -3.6980527728548915e-02  -8.0493411962335986e-03 -2.4711787128997072e-02 -3.4464118777263741e-02  -4.3621424067321240e-03 -2.8177424672041786e-02 -3.5846456240539698e-02  -4.8586765553352137e-03 -2.5177534156231630e-02 -2.7431788012267668e-02  -6.1041621484253100e-03 -2.7140779055792836e-02 -3.3216877199444786e-02  -3.0254205725421140e-03 -2.8559883973890424e-02 -2.5471434248526173e-02  -2.7209542541522559e-03 -3.0308039472158110e-02 -3.4354071703229877e-02  -4.2907239190814192e-03 -2.9831006238763048e-02 -3.1576365004004570e-02  -1.3399425487843294e-03 -3.2080910999476367e-02 -2.2907660332252291e-02  -1.2002617513561084e-03 -3.2556284035276030e-02 -3.2277910796920835e-02  -2.5633013635296105e-03 -3.2668803390083621e-02 -2.9353183608562237e-02  1.3133704851565987e-04 -3.5848174853281699e-02 -1.9933857591376853e-02  1.8854485685853006e-04 -3.4979707581945324e-02 -2.9811720666091966e-02  -9.8563327902007883e-04 -3.5733889940191887e-02 -2.6803062105365358e-02  -2.1841143963679477e-02 -2.0919375376806246e-02 -4.4277158551751662e-02  -2.0315464482677129e-02 -2.2591314321768977e-02 -4.5271938215858898e-02  -1.8774869167569999e-02 -2.4156122452231282e-02 -4.5420291118657571e-02  -1.6968264330405609e-02 -2.5948943470167057e-02 -4.5012145784901987e-02  -1.4867443917804840e-02 -2.7973701397923201e-02 -4.4144565216040488e-02  -1.2402959645219822e-02 -3.0179091797403176e-02 -4.2670426827136884e-02  -9.6033356031203498e-03 -3.2651764807263811e-02 -4.0824548957103288e-02  -9.4598552776427921e-03 -3.1191044195493185e-02 -4.1158252514710524e-02  -7.8608598861609740e-03 -3.0752782147733304e-02 -4.1461951595135930e-02  -6.2193670890821080e-03 -3.0382907150216014e-02 -4.1288183599798550e-02  -4.8123450876867199e-03 -2.9780510045565832e-02 -4.0634867679918273e-02  -3.5148280269275333e-03 -2.9125955103944046e-02 -3.9565712873643334e-02  -2.2736059547262214e-03 -2.8515793746394406e-02 -3.7872361886541556e-02  -1.0725118469375290e-03 -2.7967168859549779e-02 -3.5670336779839586e-02  -8.2240621318856594e-03 -1.7219406085314179e-02 -3.0940552901021184e-02  -6.8031932345016533e-03 -2.0196746925967849e-02 -3.0636320058124483e-02  -4.8630583845305974e-03 -2.2625461505730159e-02 -2.9699978585993353e-02  -2.9737288395621257e-03 -2.5523500910360510e-02 -2.8193601694331775e-02  -1.2535103799456854e-03 -2.8776681315971719e-02 -2.6219910078980661e-02  2.7480267629842572e-04 -3.2148832483329726e-02 -2.3615556324829118e-02  1.5885858055282676e-03 -3.5691527658834619e-02 -2.0512338721898428e-02  -2.7256858909381020e-02 -2.2618173184724449e-02 -5.8489078934491873e-02  -2.7934195491060389e-02 -1.9639306852469261e-02 -5.6940608570830012e-02  -2.5773398711747744e-02 -2.1481112542717982e-02 -5.4532796987757925e-02  -2.4958026210026296e-02 -2.2637635491229595e-02 -5.5028480012861446e-02  -2.7346667321008492e-02 -2.1026359287274934e-02 -5.7190541989454488e-02  -2.6672237646639355e-02 -2.3173349315593419e-02 -5.9336715873837702e-02  -2.4056461237311151e-02 -2.3536343976816788e-02 -5.4981031449058013e-02  -2.6810868609096254e-02 -2.2103148598139853e-02 -5.6946233769603199e-02  -2.6190821255846698e-02 -2.3551801524151397e-02 -5.9427044675479893e-02  -2.2756953641305266e-02 -2.4548698082502589e-02 -5.4523442047142719e-02  -2.5738195142972296e-02 -2.3337476532520222e-02 -5.6378745262860568e-02  -2.5251952945680237e-02 -2.3812242188962586e-02 -5.9084492331024904e-02  -2.4088972545610984e-02 -2.4743103718808789e-02 -5.5430453156039242e-02  -2.3775606226660639e-02 -2.4103313483366192e-02 -5.8315046759262620e-02  -2.0934650085516204e-02 -2.5702394691241449e-02 -5.3681220947212990e-02  -2.1664340706868311e-02 -2.6280671056273561e-02 -5.3837684671197074e-02  -2.1570348467156188e-02 -2.4480215086651064e-02 -5.6873252529074908e-02  -1.8430483243210893e-02 -2.6992258560128456e-02 -5.2247892691833907e-02  -1.8348179085257304e-02 -2.7995239982775116e-02 -5.1967513633051347e-02  -1.8532299897195941e-02 -2.4977338873134327e-02 -5.5034144133438420e-02  -1.5224218030949499e-02 -2.8483169130009367e-02 -5.0508618140024802e-02  -8.3734342696936866e-03 -3.5894019882973340e-02 -3.8662226591118835e-02  -6.9460600375262447e-03 -3.4410546189790406e-02 -3.8329306231341544e-02  -5.6341384076563483e-03 -3.3114859430307710e-02 -3.7700249103991494e-02  -4.4606370819006069e-03 -3.1153537946027959e-02 -3.6655330477688007e-02  -3.3602258258099826e-03 -2.8971305164842632e-02 -3.5176528480509256e-02  -2.3008903825525485e-03 -2.6803188944950498e-02 -3.3082409898484343e-02  -1.2760627471649127e-03 -2.4617905061601629e-02 -3.0549181849731925e-02  -2.4858150628870583e-02 -2.5017945191490486e-02 -5.5653759023350721e-02  -2.3940225838966905e-02 -2.5190399829665377e-02 -5.6558618995094886e-02  -2.3206358721055396e-02 -2.5232403573267323e-02 -5.6744408560359026e-02  -2.2039796039708862e-02 -2.5025601065713412e-02 -5.6500597321790795e-02  -2.0405143440905538e-02 -2.4800150875771119e-02 -5.5813821416241041e-02  -1.8131117518295877e-02 -2.4645881395511372e-02 -5.4487975797511759e-02  -1.5133935344236907e-02 -2.4614494327459484e-02 -5.2803003250463477e-02  -4.6372637744729241e-03 -2.1593561784558849e-02 -3.6244126361674643e-02  -1.8797882512668219e-03 -2.3699656118569484e-02 -3.8786856950076248e-02  -4.2466311322744230e-03 -2.5118845896330406e-02 -3.9514782965815877e-02  -2.8958272161337026e-03 -2.6398492650933133e-02 -3.9238567093845642e-02  -4.0580835156010532e-04 -2.5030985221485332e-02 -3.7784429086199611e-02  -3.1200801452206267e-03 -2.3464658119073535e-02 -3.5414222471464751e-02  -1.3794445127239888e-03 -2.7634645447625384e-02 -3.8465765364382357e-02  1.3136869518855373e-03 -2.6555453873631684e-02 -3.6351910410550740e-02  -1.3513516340948200e-03 -2.5293008643663194e-02 -3.4155856523820756e-02  6.6366566428948052e-05 -2.9048115200933259e-02 -3.7318490940030882e-02  2.8621202209771989e-03 -2.8516482770264875e-02 -3.4677872161510644e-02  3.2942752324301915e-04 -2.7607367876901892e-02 -3.2493962563935677e-02  1.3537680519547189e-03 -3.0581675499394150e-02 -3.5789729877633049e-02  4.1639378389937923e-03 -3.0685931386174148e-02 -3.2663814061909012e-02  1.7746886672829027e-03 -3.0213637302530773e-02 -3.0435933130667552e-02  2.4407347587030500e-03 -3.2153282820509006e-02 -3.3662263698868232e-02  5.1762781581387038e-03 -3.2918027418909535e-02 -3.0033365820106135e-02  3.0001846482791781e-03 -3.2904519057192834e-02 -2.7759726797651953e-02  3.3481041865073913e-03 -3.3832699860344685e-02 -3.1207311545087570e-02  5.8482621066076662e-03 -3.5264345024420996e-02 -2.7122790820838176e-02  3.9812751926738537e-03 -3.5631847386553804e-02 -2.4746486462787678e-02  -1.3061619238954210e-03 -2.7658626787068315e-02 -3.9224177317986823e-02  -2.6173916334695075e-04 -2.8256259284504235e-02 -3.9791632034377182e-02  1.1207520945977045e-03 -2.8863274080843326e-02 -3.9441809514871272e-02  2.3876242514098900e-03 -2.9558949959421026e-02 -3.8536549479169686e-02  3.4531142523425663e-03 -3.0302267816315263e-02 -3.7177925363469484e-02  -6.5318310276315421e-03 -3.4126197292676776e-02 -4.0118399720786506e-02  -5.3314595044798166e-03 -3.3155589060663050e-02 -3.9550143437823274e-02  -4.0141887324017097e-03 -3.2170808716995763e-02 -3.8803267829559084e-02  -2.9163103969447961e-03 -3.0679786220953194e-02 -3.7691387448223916e-02  -1.9083200453548206e-03 -2.9041894341611651e-02 -3.6194185236184936e-02  -9.5763234173555905e-04 -2.7417974075074795e-02 -3.4111233514853768e-02  -3.0827539236393542e-05 -2.5802454915424881e-02 -3.1680693064577256e-02  -2.7441677501425371e-02 -1.6759677993176791e-02 -5.1143920307481744e-02  -2.6820888146055172e-02 -1.8985599004983870e-02 -5.1671632972260954e-02  -2.6235939332196319e-02 -2.0688687300627093e-02 -5.1431403452438955e-02  -2.5051306759352670e-02 -2.2732097423578367e-02 -5.0730294498962811e-02  -2.3229604136668552e-02 -2.5088353440808845e-02 -4.9637930794672019e-02  -2.0624319432259425e-02 -2.7627160165579652e-02 -4.7931535457391566e-02  -1.7161859889702265e-02 -3.0419244980820725e-02 -4.5915782015222541e-02  -2.5254220037369973e-02 -1.8043665322472504e-02 -4.7350481806856248e-02  -2.4241401281936411e-02 -2.0126798316068097e-02 -4.8365354970617960e-02  -2.3326458324607290e-02 -2.1880177128297824e-02 -4.8497064178891991e-02  -2.1921052302626982e-02 -2.3907605068650143e-02 -4.8045460512651059e-02  -1.9958620653035910e-02 -2.6227569383055711e-02 -4.7136785111250676e-02  -1.7338776586463999e-02 -2.8743265772144058e-02 -4.5611759121625434e-02  -1.3992146707489019e-02 -3.1562499069832120e-02 -4.3742341246836215e-02  -1.5373078266770488e-02 -2.3480178081057401e-02 -2.1745357857572055e-02  -1.3212046065325405e-02 -2.5116186984630855e-02 -2.4673327877196304e-02  -1.0794936174568224e-02 -2.9416948421270430e-02 -2.2398975055552502e-02  -1.2774338335826725e-02 -2.8194149609106121e-02 -1.9215475813691919e-02  -8.1725808287190765e-03 -3.4118299224923695e-02 -1.9714815629286789e-02  -9.8850134721784715e-03 -3.3341567292265395e-02 -1.6386371383509367e-02  -6.6190029463416861e-03 -2.2602434000935298e-02 -3.7864915776050709e-02  -5.1631145710761698e-03 -2.4345487590828618e-02 -3.7044619363932295e-02  -3.4511811832563305e-03 -2.6087387780551120e-02 -3.5887247622380755e-02  -1.7764892814048719e-03 -2.8164966674314177e-02 -3.4443917308355158e-02  -2.8024351945571201e-04 -3.0466634502511192e-02 -3.2654488208297541e-02  1.0522550725022512e-03 -3.2864755239722987e-02 -3.0273349167735743e-02  2.2331903571593047e-03 -3.5374738594408595e-02 -2.7561980676728777e-02  -1.9968497613721877e-02 -1.1011637515950041e-02 -2.8160705876017666e-02  -1.8559913060780926e-02 -1.4652791117782532e-02 -2.8222258135742497e-02  -1.7193584726834910e-02 -1.7619601597169455e-02 -2.7609906410666362e-02  -1.5374230337092652e-02 -2.1108300409224776e-02 -2.6381871813989707e-02  -1.6564404110687953e-02 -1.1733370620477775e-02 -2.5914236498400064e-02  -1.4859249484089055e-02 -1.5151937314855434e-02 -2.5453592281595903e-02  -1.3101294359278934e-02 -1.8089669057961541e-02 -2.4513260149322542e-02  -1.1126709428104705e-02 -2.1557587097732759e-02 -2.3046880306025426e-02  -9.0491737117078738e-03 -2.5520736699297684e-02 -2.1120266887980153e-02  -6.8990598201404390e-03 -2.9737474452973804e-02 -1.8614070883262102e-02  -4.6341747772304584e-03 -3.4289791908077204e-02 -1.5661482368028310e-02  -4.0610945524204691e-03 -1.7643905869302388e-02 -3.0919890402987364e-02  -4.0593360764493228e-03 -1.3389159613691420e-02 -2.6214931607421645e-02  -1.9134481790158957e-03 -1.8133981415561391e-02 -3.1437132705986880e-02  -2.3341854028623519e-03 -2.0363826019582552e-02 -3.0594691771341730e-02  -1.9927564372085433e-03 -1.6250495539059714e-02 -2.4964376836537003e-02  -1.2584521817086364e-04 -2.0673011951096099e-02 -3.1064253129821806e-02  -4.0787820948168805e-04 -2.2610131310111348e-02 -2.9506452223330201e-02  2.1197929061085236e-04 -1.8705494681870390e-02 -2.3253000278752083e-02  2.0151506715341641e-03 -2.2758156261256796e-02 -2.9934867324835981e-02  1.4456688712299671e-03 -2.5469128591880788e-02 -2.7727692113826242e-02  -4.9287935523103666e-03 -4.0108006217117693e-02 -3.3665022651761932e-02  -4.2060937713449395e-03 -3.7718523050904777e-02 -3.3482338019581975e-02  -3.2641456194284690e-03 -3.5930144053422569e-02 -3.2923992221470508e-02  -2.4135247844948361e-03 -3.3363198573193593e-02 -3.1703914957810643e-02  -1.6140495790334199e-03 -3.0434374882664119e-02 -2.9921900776561892e-02  -8.5768231515834302e-04 -2.7496504979624924e-02 -2.7486152979657740e-02  -1.8541300822996786e-04 -2.4548956028708154e-02 -2.4504537130880993e-02  -1.6282213974224757e-02 -2.1543806046139497e-02 -3.8910037463476405e-02  -1.4249771657059592e-02 -2.3352663104956796e-02 -3.8879539942759160e-02  -1.2248820403540504e-02 -2.5119274306647336e-02 -3.8385831513512249e-02  -1.0262858892277137e-02 -2.7214486873078515e-02 -3.7522772901235249e-02  -8.2911976103585330e-03 -2.9558964645552611e-02 -3.6273036975825727e-02  -6.2634385319826997e-03 -3.2057765908076387e-02 -3.4444950233300360e-02  -4.1271482329648442e-03 -3.4781502744650701e-02 -3.2263845137220373e-02  -3.2500290664245111e-02 -1.5603631195941787e-02 -4.1435454175507307e-02  -3.1406461532562858e-02 -1.9204858747888503e-02 -5.1891994937874594e-02  -2.8349041748922169e-02 -1.9772348331004389e-02 -4.6595053667442314e-02  -3.2145319745748240e-02 -1.6749065973280613e-02 -5.3089062534000767e-02  -2.6616839930397464e-02 -2.2974876514002485e-02 -4.5069515333388516e-02  -3.0864651075660107e-02 -1.9463976082608359e-02 -3.8994956673105680e-02  -2.9880391960601889e-02 -2.2117325536783694e-02 -5.0314925831844562e-02  -2.4004579247613397e-02 -2.6396075115898088e-02 -4.2932749561729149e-02  -2.8191994766583912e-02 -2.3632256028742537e-02 -3.5928610382017778e-02  -2.7448775633952566e-02 -2.5199907539087324e-02 -4.8050913546239853e-02  -2.0366568206901855e-02 -3.0088489871212779e-02 -4.0489923792194744e-02  -2.4491910693650327e-02 -2.8054702265406507e-02 -3.2617418194169787e-02  -2.4011172650573755e-02 -2.8459511009945013e-02 -4.5251048073658907e-02  -9.8897839108359371e-03 -2.7317470119893876e-02 -4.1427616780813803e-02  -6.8496093674670138e-03 -2.9949816905625086e-02 -4.1295128843716812e-02  -5.6375281664448277e-03 -2.9965511597475902e-02 -4.1333667139226683e-02  -8.1360892995242344e-03 -2.7981058204601061e-02 -4.1473309159397953e-02  -4.1796748685021716e-03 -2.9956529480607851e-02 -4.0912874254835287e-02  -6.4006631202589434e-03 -2.8582036276323615e-02 -4.1073035265283664e-02  -2.8566522164297629e-03 -2.9794933488251397e-02 -4.0129145206900932e-02  -4.7807598650991814e-03 -2.9224161448214891e-02 -4.0343545018271351e-02  -1.6728831989885424e-03 -2.9618903773544775e-02 -3.8961357587933863e-02  -3.3005348763783613e-03 -2.9930836031762203e-02 -3.9233967844189567e-02  -5.6180278844452562e-04 -2.9499055525694838e-02 -3.7184624804491612e-02  -1.9010478655303988e-03 -3.0727808114599825e-02 -3.7518749063929858e-02  5.1389566503163479e-04 -2.9419317136642413e-02 -3.4994237336442649e-02  -6.0531473345709435e-04 -3.1614108311021849e-02 -3.5388268581440098e-02  -6.8957307579835588e-03 -2.6185316015035681e-02 -4.0154057975036975e-02  -3.7450244390028601e-03 -2.8663494759502143e-02 -4.0329967676157506e-02  -2.7517556829737308e-03 -2.9051689810741785e-02 -4.0527443233478684e-02  -5.6423431314465240e-03 -2.7234689541080118e-02 -4.02020436730