<?xml version="1.0"?>
<VTKFile type="UnstructuredGrid"  version="0.1"  >
<UnstructuredGrid>
<Piece  NumberOfPoints="740" NumberOfCells="3113">
<Points>
<DataArray  type="Float64"  NumberOfComponents="3"  format="ascii">2.267936284113912 2.692751510029201 3.899664879659639  2.392483590961954 2.812792469557434 3.876102857160163  2.255377305545724 2.83680005849232 3.869317030174541  2.255905981938801 2.851375859039901 3.93129594331009  2.392215585112827 2.830030643275609 3.937404138531961  2.26600549928511 2.703111349291361 3.962315509381535  2.264166050703659 2.713335554729331 4.024885387715507  2.392022772261805 2.847114419504249 3.998624674543214  2.256529585697978 2.865811262699155 3.993162842435354  2.262395699223094 2.723456910809164 4.087338103945082  2.391858999451904 2.864084372193456 4.059738126264826  2.257193849144568 2.880143285607032 4.054939277243538  2.26063319240485 2.733524584774575 4.149684534145226  2.391682009453623 2.880996091879036 4.120749346004478  2.257852281979264 2.89442318481787 4.116616162310947  2.258809037329661 2.743600304492686 4.211916135081939  2.391446993563724 2.897902611070204 4.181646946032085  2.258447428697102 2.908706961838534 4.178188731262174  2.256848147844251 2.753755025640359 4.274017880828033  2.391105522767343 2.914868067010951 4.242408441945057  2.258914232707262 2.923064933825837 4.239645565663559  1.415203054076853 3.170783063917907 3.74117860711092  1.363076166749801 3.040003921966899 3.782221477821357  1.512751845252476 3.042685037436229 3.794933698277688  1.50767742818564 3.060774686162001 3.857072487181711  1.358279343912989 3.057983385078952 3.84463096076686  1.409961276691116 3.194616090098876 3.801712967350987  1.503103662668155 3.079080562332861 3.919483741586785  1.354047998907601 3.076271556687965 3.907369475727268  1.405240814078973 3.218777364223847 3.862498234265572  1.498673794471949 3.097438577304317 3.982160362469655  1.349921396240385 3.094613574744929 3.970471205625133  1.400664228012379 3.24304610221955 3.923585006746772  1.494159202917089 3.115771786969856 4.045079088637481  1.345675578735825 3.112927724614543 4.033907195513039  1.396009962639953 3.267314338642799 3.984963950196379  1.489417519931305 3.134069022275256 4.108218499671167  1.341161541410202 3.131196218275753 4.097651858378842  1.391128552874285 3.291557454981959 4.04662966136745  1.484302911265542 3.152319015475922 4.171557923162681  1.336233242588926 3.149409899407583 4.16169184483311  1.385827713059778 3.315783050558288 4.108613360776077  1.39863670117844 2.899021952226087 3.818279640022923  1.393280120491287 2.911079250004823 3.881668938842076  1.388503957076871 2.923353240452959 3.945340937312517  1.38385499478389 2.935641991197696 4.009383564050207  1.379085228869409 2.947866951342625 4.073731266998758  1.374040718441 2.960019650652478 4.138320313917923  1.368601454066927 2.97210165352847 4.203060988966518  1.923170317602093 2.040798577323976 3.813118757470055  2.033409124545161 2.15533466000858 3.86371107597128  1.908288632273521 2.188178162689214 3.853822515664749  1.901344018828786 2.173993577530487 3.915260909630947  2.025441656859699 2.142004559902349 3.92525723086467  1.913941344608646 2.020825852274609 3.872558305182781  1.894614453297052 2.159754270175412 3.976607762331795  2.01764140984004 2.128632569303939 3.986693631046752  1.904906303338092 2.000844995879454 3.931922170630822  1.88802263837514 2.14547060739659 4.037857616036132  2.009952782626923 2.115222733407826 4.048014945134365  1.895998632957326 1.980844971781865 3.991200857195192  1.881475036246427 2.131153219460243 4.099026377389875  2.00230253979932 2.101797030149747 4.109231656991828  1.887138351622623 1.960821259083462 4.050395626557111  1.874840159176183 2.116868583869611 4.16012192094388  1.994594957223696 2.088407688841029 4.170339737670233  1.878206540707698 1.940821012499648 4.109506593088258  1.868002536018382 2.10267278799156 4.221136782721048  1.986745151491055 2.07509990836551 4.231318382650109  1.869108372301542 1.92089526023533 4.168498703300465  2.001791847167675 2.574507023654676 3.900923133705363  1.87797819701377 2.451126193103112 3.893267137323994  2.002686629199285 2.416945232136834 3.897881935867421  1.998582933160409 2.411967350652575 3.961011305146332  1.872591949833834 2.447620598362656 3.956662018852749  1.998525150283442 2.576590911545329 3.964414053945981  1.994661471228218 2.406886739391082 4.024049789775453  1.867445860725473 2.444013330579125 4.020015515168343  1.995442539421868 2.57856124126734 4.027844675295355  1.990863333759195 2.401722131256875 4.086978823299452  1.862427172313377 2.44033313447831 4.083322462969075  1.992474420404741 2.580443058799267 4.09119423264719  1.987101214234347 2.396510575633803 4.149817197608148  1.857432584413866 2.436603060476882 4.146574127152221  1.989538498371859 2.582266405843378 4.154461469401914  1.98324945153019 2.391337689416731 4.212570797451366  1.852334479515418 2.432895829798645 4.209765933430901  1.986513194251583 2.58412433863037 4.217646463996081  1.979194686202108 2.386273502902351 4.275239523204926  1.84699769629842 2.429304481441946 4.27290571694067  1.983287096700176 2.58609030470281 4.280745246358662  2.408659984203477 2.677655358675023 3.90862904474475  2.508818054037632 2.71597403757118 3.907546563095726  2.505261484577001 2.732107778491647 3.969527062133568  2.404258388266141 2.689726383784574 3.971171232688592  2.399958479721136 2.701653417510903 4.03356932766245  2.501794563812443 2.748068721379056 4.031352151608528  2.395709469226519 2.713464989386463 4.09585584119741  2.498363379903041 2.763912093176187 4.093071759712083  2.391458479492603 2.725213891939279 4.158025909485319  2.494923096840391 2.779690157429443 4.154676225165851  2.387154538189278 2.7369512895361 4.220065381241282  2.491432639615234 2.795451306970587 4.216151073553651  2.382739907578177 2.748750329958112 4.28193425257458  2.487845686149226 2.811258399144883 4.277465962128694  2.160497995552888 2.739848361718586 3.890371726333004  2.159530293202248 2.75059030455425 3.953155534838789  2.158689038571849 2.76119306380102 4.015824698124801  2.15791897281698 2.771691708361079 4.078412387697893  2.157156497712888 2.782142249068665 4.140905315785341  2.156321109509136 2.792611418299663 4.203298378082228  2.155332807149086 2.8031661110516 4.265576536028861  2.121051990350848 2.866784019481913 3.863953270938609  2.121391965323009 2.880765671030071 3.926315573148451  2.121869226876456 2.894630318460572 3.988595022201955  2.122410206967475 2.908411240388223 4.05079820597027  2.122954084334204 2.922143108359769 4.112924493627844  2.123426866760211 2.935882175164959 4.174963881865583  2.123758456751706 2.949683668058677 4.236910340651207  1.794090729158694 1.920386850114753 3.814393528359286  1.788866271221866 2.07059911794451 3.874635503392059  1.784994691763092 1.895824224152414 3.872110883279338  1.781610135581099 2.051027931839137 3.934605320279063  1.776030921610555 1.871243265758294 3.929791627762368  1.774481366943122 2.03141321984763 3.994537711634933  1.76710360809445 1.846616509820631 3.987410595711067  1.767382546822385 2.01175114444319 4.054410417978999  1.758083480504961 1.821985354642752 4.044967106785983  1.760181660041033 1.992100466978806 4.114216184822787  1.748847091018487 1.797401382223948 4.102427003712767  1.752734188254392 1.972519965374399 4.173942080602661  1.276147099883125 2.933556417663882 3.865910225466018  1.271043335364555 2.946894577864869 3.929825764734306  1.266029329258227 2.960239779180989 3.994159818899102  1.260857736641519 2.973505366881361 4.058884034734627  1.255381555299465 2.986681089476006 4.123978708030809  1.249437754563858 2.999798974665786 4.189456306653406  1.764536974247634 2.313097776377758 3.863413836262949  1.754973529585015 2.454987613074887 3.879638138888248  1.747422348426954 2.451217537863603 3.942838825033963  1.757203517832206 2.302987013598929 3.925806075503269  1.750166980190313 2.292804289470313 3.98819303051169  1.740184864046888 2.447356815080373 4.006059622724797  1.743265411002057 2.282548187349581 4.050567116809557  1.733071496979075 2.443422984066263 4.069305714971517  1.736379384064801 2.272242137296996 4.112912392445376  1.725952806457154 2.439447443878321 4.132559595151617  1.729392341856811 2.261925953584085 4.175214485258747  1.718708527440928 2.435473016558617 4.19579344850621  1.722143108247927 2.251709595416315 4.237485461858997  1.711215915733858 2.43156718850652 4.25899082503993  1.637697248200173 2.996419306254452 3.816959006130713  1.648846648082471 3.106533052023575 3.783612856401508  1.645860585420884 3.127554462369441 3.844953923472299  1.633491661907947 3.013223232355633 3.879263051876291  1.643297553610275 3.148728074338301 3.906435479479848  1.629725071819713 3.030142034389926 3.941723517801561  1.640877721812079 3.169950160409045 3.968097774403551  1.626103467058892 3.047082500717014 4.004369100430668  1.638405993956442 3.191154945998746 4.029922515973192  1.622422654312186 3.063987471433804 4.06717902115707  1.635771106823644 3.212329896815388 4.091872489866756  1.618561487171053 3.080861973171797 4.130116953732861  1.632872774986625 3.233458873811784 4.153914102713345  1.614400897549345 3.097711233010018 4.193146527057666  1.796402757433546 2.090184838194419 3.814603991640368  2.127595076838654 2.243022629366882 3.885925992976488  2.024007354729254 2.277123647669907 3.881264934926443  2.018127631303236 2.267601903067688 3.943585040487406  2.119342565081388 2.23423889219419 3.94802918801195  2.111227308478852 2.225388705858614 4.009979712138766  2.012428616661415 2.258016483526724 4.005746199964404  2.103222589241474 2.216484314101882 4.071802641868821  2.00685041065239 2.24836671706411 4.067796529546452  2.095256133031788 2.20755884150013 4.133513070613133  2.001315089342187 2.238681647007614 4.129745374772023  2.087252035067207 2.198659536495839 4.19511128109913  1.995711771919157 2.229026926963643 4.19158913671054  2.079143200305692 2.189835890461625 4.256538066886534  1.
[...]
<PointData  Vectors="f_24"> 
<DataArray  type="Float64"  Name="f_24"  NumberOfComponents="3" format="ascii">2.7394300906469896e-02 4.9719989042813648e-02 5.7780696539760134e-03  2.6960317238921963e-02 5.7826671362532500e-02 1.0938266085506323e-02  2.8006043802959034e-02 5.6575088852411866e-02 1.2594849668500396e-02  2.7922473944707923e-02 5.2861362090461293e-02 1.1694538975088334e-02  2.6937136670806855e-02 5.3718629948256318e-02 1.0186118531272395e-02  2.7725399953771823e-02 4.6417175500423041e-02 4.4789980157796169e-03  2.8005908553088085e-02 4.3271093057838043e-02 3.4588514506846257e-03  2.6874938422145597e-02 4.9791793038549637e-02 9.6977891249088906e-03  2.7831788207322579e-02 4.9239264304151105e-02 1.1025431057520938e-02  2.8253154896058306e-02 4.0205934577118782e-02 2.7043055035975701e-03  2.6811117796327812e-02 4.5991527878638729e-02 9.4377789842240416e-03  2.7744786432317547e-02 4.5719100814726653e-02 1.0573761047022430e-02  2.8502528432206530e-02 3.7176485233353061e-02 2.1934211637418045e-03  2.6759867776493342e-02 4.2249880478149412e-02 9.3927945274235557e-03  2.7677083333456292e-02 4.2249447331985913e-02 1.0322933809949832e-02  2.8787314861477148e-02 3.4141350943877088e-02 1.9076269563637306e-03  2.6736149435073627e-02 3.8507838940275284e-02 9.5489707287406793e-03  2.7639108415864293e-02 3.8797582161415781e-02 1.0254017822622544e-02  2.9141709301767932e-02 3.1062484147199698e-02 1.8264988062117419e-03  2.6754663415629695e-02 3.4711478222388639e-02 9.8778282204292668e-03  2.7638552935506815e-02 3.5345124848233267e-02 1.0337283266005887e-02  3.3167646735152809e-02 6.2036200279080578e-02 2.4215674438698639e-02  3.3890850058273039e-02 5.6344836390807604e-02 2.0366442442755182e-02  3.2698613494281263e-02 5.7017229272332937e-02 2.0672010139226045e-02  3.2535923820208923e-02 5.4300004666934971e-02 2.0049538147959907e-02  3.3701496806931783e-02 5.3770335989796803e-02 1.9765117164610317e-02  3.2813204391499651e-02 5.9288711528624437e-02 2.3890106325888706e-02  3.2311733746208847e-02 5.1619745241566387e-02 1.9595395767013357e-02  3.3463890647423458e-02 5.1250585833076623e-02 1.9307156885347898e-02  3.2409016984483875e-02 5.6598696966686970e-02 2.3707297927703326e-02  3.2060389801592246e-02 4.8970680986327529e-02 1.9285177295020498e-02  3.3198644914498622e-02 4.8754892725458646e-02 1.8971524941872042e-02  3.1982735246952075e-02 5.3947893717647966e-02 2.3654605255368475e-02  3.1807802550665440e-02 4.6344267212123751e-02 1.9100347666168478e-02  3.2930436974060590e-02 4.6273576857080272e-02 1.8745267649058660e-02  3.1551787843107512e-02 5.1326246276984434e-02 2.3717471753736952e-02  3.1577002120625856e-02 4.3735031470422389e-02 1.9028032961104141e-02  3.2681704251782760e-02 4.3801825735300969e-02 1.8618097060650002e-02  3.1131056733329509e-02 4.8726143882561100e-02 2.3883088665929565e-02  3.1390379405232649e-02 4.1142350373275433e-02 1.9054439737600022e-02  3.2472320365879090e-02 4.1335828748644603e-02 1.8583604257115759e-02  3.0737422910411379e-02 4.6136033805681730e-02 2.4136128139080077e-02  3.3864748827612361e-02 5.1081527803055977e-02 1.6297808965183201e-02  3.3855786348814115e-02 4.8694974712103878e-02 1.5424485458504389e-02  3.3786543846077308e-02 4.6342764645831695e-02 1.4702450712027573e-02  3.3688605456068166e-02 4.3998322470338060e-02 1.4107132608838693e-02  3.3589301230353981e-02 4.1658881392873853e-02 1.3624615656738732e-02  3.3513948702218736e-02 3.9324978144950840e-02 1.3245122582070211e-02  3.3488331918237822e-02 3.6988263483378622e-02 1.2963980077013290e-02  2.8487119801447310e-02 2.0296542914099235e-02 -9.7060062365032559e-03  2.7665429124938724e-02 2.5007016561824802e-02 -8.8344356787207218e-03  2.8937656137184773e-02 2.6292123112310585e-02 -6.9827200891462099e-03  2.9496490220395123e-02 2.6007255422739173e-02 -8.6966295343638075e-03  2.8361101680876837e-02 2.4859123708191197e-02 -1.0572208171516622e-02  2.8909012499390527e-02 2.0744881409421007e-02 -1.1240603352758281e-02  2.9941406665333951e-02 2.5633026312084143e-02 -1.0149783951684992e-02  2.8904601049679929e-02 2.4657679690136689e-02 -1.2007386482648680e-02  2.9185789667564500e-02 2.1064847305373460e-02 -1.2562860867970906e-02  3.0320591178357455e-02 2.5199480289889324e-02 -1.1364958123072274e-02  2.9362938598330036e-02 2.4403438532765588e-02 -1.3176228186146928e-02  2.9376142809633354e-02 2.1296303344935413e-02 -1.3655977135209175e-02  3.0683538643964423e-02 2.4718098278133174e-02 -1.2359147478008066e-02  2.9795054502542599e-02 2.4095188824280599e-02 -1.4094702150312851e-02  2.9536491023026159e-02 2.1464554653808879e-02 -1.4528955219728549e-02  3.1077984341746887e-02 2.4197285661018524e-02 -1.3145078161228441e-02  3.0260541484102392e-02 2.3729567173393775e-02 -1.4775197172160543e-02  2.9725304368469652e-02 2.1585605864551945e-02 -1.5191069348642143e-02  3.1550632651989603e-02 2.3643090714623758e-02 -1.3736357089306534e-02  3.0818971561873493e-02 2.3304262791296552e-02 -1.5228214236279927e-02  2.9998967854007529e-02 2.1676011181344289e-02 -1.5654343107993657e-02  2.9096341275450389e-02 4.1757774936545082e-02 3.0592616582855608e-03  2.9834634807112126e-02 3.6283117714988856e-02 -2.9190787007397646e-05  2.8639301212077237e-02 3.5420392786637472e-02 -2.0789275387806056e-03  2.9289181935557716e-02 3.3950239574744023e-02 -3.8851848764158755e-03  3.0415849131123048e-02 3.4731948960652646e-02 -1.7094811347875380e-03  2.9604018396946118e-02 3.9534242097675594e-02 1.4618478001748707e-03  2.9853712561209975e-02 3.2460682521423923e-02 -5.3916009331504327e-03  3.0898529922949097e-02 3.3188522523854777e-02 -3.0962759606179306e-03  3.0030131821784229e-02 3.7362003991038353e-02 1.4634720869620278e-04  3.0370154690281415e-02 3.0957395781684820e-02 -6.6362905708812333e-03  3.1335420875726959e-02 3.1633730895514245e-02 -4.2536961806364489e-03  3.0423738474736131e-02 3.5217780402619893e-02 -9.2186419505396646e-04  3.0882198363332836e-02 2.9442861230233743e-02 -7.6467580397708802e-03  3.1772245159936874e-02 3.0062050580570408e-02 -5.2108697156385934e-03  3.0822537414972227e-02 3.3078996412485025e-02 -1.7705108478067878e-03  3.1434619304794825e-02 2.7915423071900591e-02 -8.4382356580518323e-03  3.2249607766625853e-02 2.8466052245653819e-02 -5.9811215508103980e-03  3.1259095895904948e-02 3.0927705505597290e-02 -2.4179606015257956e-03  3.2068080235290980e-02 2.6372373626915847e-02 -9.0249006327802923e-03  3.2800456599227840e-02 2.6839383567840134e-02 -6.5633316910910944e-03  3.1763933188865147e-02 2.8750199446980654e-02 -2.8788505582835328e-03  2.6214711704337715e-02 5.0738445166833700e-02 3.9348792184383885e-03  2.5661769703946891e-02 5.4075736629549107e-02 4.9627362148392485e-03  2.5997647879909668e-02 4.9861095574942900e-02 3.9985494143875587e-03  2.6681916214055287e-02 4.7076035330764147e-02 2.6811147013050454e-03  2.7028869083935651e-02 4.3585114489362822e-02 1.7577021681086775e-03  2.6248652243263268e-02 4.5897962954896267e-02 3.3788607852090506e-03  2.7323224096937892e-02 4.0218835765858815e-02 1.1204982955148126e-03  2.6443789436620947e-02 4.2098816189256143e-02 3.0350179533371307e-03  2.7609315423685450e-02 3.6912189167596907e-02 7.5166205263180251e-04  2.6629164680477463e-02 3.8370405705690724e-02 2.9545400525001573e-03  2.7929889704970554e-02 3.3603408896104546e-02 6.3628834464148434e-04  2.6844850345839222e-02 3.4631107457226022e-02 3.1308960495400259e-03  2.8333207190397270e-02 3.0236247378525486e-02 7.6823679905127301e-04  2.7130214320310164e-02 3.0808355570495941e-02 3.5714157317613153e-03  2.8355862237831448e-02 5.0424213894138190e-02 8.4586793371646384e-03  2.8557070805086359e-02 4.7243184966683352e-02 7.2489966989214534e-03  2.8720609011350550e-02 4.4194342359239892e-02 6.3045239439177610e-03  2.8871090640439225e-02 4.1210176804767698e-02 5.5918194560310294e-03  2.9030446528652967e-02 3.8253252539212919e-02 5.0953404858959488e-03  2.9224163083057426e-02 3.5293938824310832e-02 4.7950103308214325e-03  2.9476002326173003e-02 3.2299741869214915e-02 4.6758442761132505e-03  2.8927924340868265e-02 5.5680125532482590e-02 1.4189872122115024e-02  2.8827041263860143e-02 5.2241833514460004e-02 1.3268383937748126e-02  2.8705619822462915e-02 4.8892715413863766e-02 1.2574807892726176e-02  2.8596471508508397e-02 4.5614982685899308e-02 1.2083129803685167e-02  2.8502332950857877e-02 4.2382859619349636e-02 1.1778937726738225e-02  2.8436940527613818e-02 3.9171461878518596e-02 1.1644551985592251e-02  2.8410118312890181e-02 3.5965842424870012e-02 1.1652954241428926e-02  2.9692665404517770e-02 1.7696668166970714e-02 -1.1790884039497887e-02  3.0196393170888153e-02 2.2874143045108326e-02 -9.7851842056546155e-03  2.9628957249899661e-02 1.8302066233108181e-02 -1.2977758871880620e-02  3.0402292639732348e-02 2.2868240413100760e-02 -1.1139994430737344e-02  2.9486443531404782e-02 1.8811299812476482e-02 -1.3993971672627633e-02  3.0543505082190156e-02 2.2783014867328363e-02 -1.2301233207276005e-02  2.9322701199219901e-02 1.9243461293136158e-02 -1.4834471349902609e-02  3.0668157369548196e-02 2.2647033051719188e-02 -1.3276267523685282e-02  2.9187107228004321e-02 1.9630795237519792e-02 -1.5502174557906496e-02  3.0824091613859461e-02 2.2478213018672710e-02 -1.4065588791186450e-02  2.9123172502608066e-02 2.0006354062744348e-02 -1.6015312476437032e-02  3.1049112559305057e-02 2.2294623651259372e-02 -1.4661691535000293e-02  3.4766212400924194e-02 4.9314082072056634e-02 1.6109081404092424e-02  3.4631866763128356e-02 4.7024030932866945e-02 1.5437601248829693e-02  3.4468673713934646e-02 4.4740334548242285e-02 1.4881596055500537e-02  3.4303739703185121e-02 4.2459946214456479e-02 1.4426396603349802e-02  3.4161555086994311e-02 4.0182174703841743e-02 1.4059293794833890e-02  3.4069601794517651e-02 3.7898420317736374e-02 1.3755480993790141e-02  3.0548247985406778e-02 3.1119727937968016e-02 -2.9013982944797131e-03  3.0886551023380737e-02 3.6221311972794358e-02 1.1161583364955330e-03  3.1422350380766399e-02 3.4716930349407316e-02 -4.6934948897174399e-04  3.1069540031275177e-02 3.0212351945338001e-02 -4.5740057711794631e-03  3.1482277292464791e-02 2.9259793034451118e-02 -6.0185432248898614e-03  3.1839062790556399e-02 3.3217634169582080e-02 -1.8083342154684154e-03  3.1834005412566646e-02 2.8270864222904261e-02 -7.2542632823539930e-03  3.2203610118421953e-02 3.1712231545213874e-02 -2.9483558941271952e-03  3.2176772351357998e-02 2.7250276866914377e-02 -8.2999084844749219e-03  3.2564401668438193e-02 3.0188488851353903e-02 -3.9117164232223209e-03  3.2554085095288267e-02 2.6200579752748664e-02 -9.1730220459422165e-03  3.2961467188746305e-02 2.8635073861111519e-02 -4.7119957112109340e-03  3.3004354505972486e-02 2.5124888804991006e-02 -9.8889682615397340e-03  3.3430163388138971e-02 2.7037991678514662e-02 -5.3415122209610382e-03  3.1904386678286344e-02 5.5916039166384747e-02 1.9290297948774706e-02  3.1670227927555729e-02 6.0668584981765764e-02 2.2945026426762740e-02  3.1333605877707213e-02 5.7680052131739240e-02 2.2493280846749845e-02  3.1778596271659340e-02 5.3083959546751998e-02 1.8597590458664832e-02  3.0966881867746494e-02 5.4758906329341620e-02 2.2217163482388558e-02  3.1602440310309815e-02 5.0328252082760330e-02 1.8077770115878855e-02  3.0583170589872470e-02 5.1888530445330414e-02 2.2088316417739822e-02  3.1403281315428029e-02 4.7610739378193052e-02 1.7713159812956694e-02  3.0199472422011930e-02 4.9050793557762533e-02 2.2091508283271995e-02  3.1204719846387410e-02 4.4917290199039797e-02 1.7487804797306761e-02  2.9829820776847028e-02 4.6234307743922530e-02 2.2217818705970421e-02  3.1028603530463553e-02 4.2239097257671623e-02 1.7388472768149314e-02  2.9490417778867843e-02 4.3442739321989762e-02 2.2462182276591598e-02  3.0894287342807861e-02 3.9560999801357466e-02 1.7403529056446286e-02  2.9889271784076448e-02 2.2702751262265463e-02 -8.1936783642193815e-03  2.6936168278075483e-02 2.8830148193816629e-02 -7.8970857731510483e-03  2.8019583152538819e-02 2.9989296776369342e-02 -6.0120915898004453e-03  2.8738041322288094e-02 2.9179460933525359e-02 -7.7921638503840977e-03  2.7798332787039689e-02 2.8135723445353783e-02 -9.7187853544363819e-03  2.8496804162517046e-02 2.7458300688750371e-02 -1.1256526378343306e-02  2.9340269259097027e-02 2.8355151871964978e-02 -9.3387314733987276e-03  2.9097462345161477e-02 2.6755481819829393e-02 -1.2492356937212196e-02  2.9872353867517448e-02 2.7503666867009526e-02 -1.0610627070640533e-02  2.9659827379778368e-02 2.6016025856443459e-02 -1.3442871945400834e-02  3.0384532472709766e-02 2.6618901738798096e-02 -1.1624691275318171e-02  3.0247138608897953e-02 2.5226592403046547e-02 -1.4126624817132939e-02  3.0931496213236639e-02 2.5697549721100981e-02 -1.2400354624961725e-02  3.0930948355830781e-02 2.4367987891123245e-02 -1.4585401207847523e-02  3.1568529109715221e-02 2.4737388389812043e-02 -1.2980247956834166e-02  3.4973795999192446e-02 4.3028648623484669e-02 9.4768755841851508e-03  3.3950485607961128e-02 4.6552721159705018e-02 1.2502684433003871e-02  3.4981188599104616e-02 4.7523695084050521e-02 1.3624534884069965e-02  3.5004177024881802e-02 4.5404904760701817e-02 1.2588571021294521e-02  3.4069263046894012e-02 4.4387508729319028e-02 1.1365670677036178e-02  3.5088549374835604e-02 4.1140543836865016e-02 8.2861674171006445e-03  3.4966889648492726e-02 4.3267971266765029e-02 1.1725354178634016e-02  3.4127503193416106e-02 4.2209509313662179e-02 1.0386133539565781e-02  3.5141058327219185e-02 3.9232816027841323e-02 7.1919892291553832e-03  3.4902479299767586e-02 4.1120444837371643e-02 1.0969750396573866e-02  3.4154641032360759e-02 4.0026439736638927e-02 9.5306164034713158e-03  3.5162712585950905e-02 3.7312714075099722e-02 6.2071749418097935e-03  3.4839711802599170e-02 3.8970218096471290e-02 1.0303874714639581e-02  3.4182983246491244e-02 3.7847451289290006e-02 8.7840471748201719e-03  3.5183978785656031e-02 3.5384655019109007e-02 5.3255946204140564e-03  3.4805005062090985e-02 3.6826657901944816e-02 9.7192695426724322e-03  3.4240838914600814e-02 3.5680649487362576e-02 8.1367796993810013e-03  3.5234980245856237e-02 3.3454666297889894e-02 4.5310656162790303e-03  3.4822941412380605e-02 3.4698744486028985e-02 9.2217319198060876e-03  3.4353731094672130e-02 3.3547693687633495e-02 7.5841473640059923e-03  3.5346815775343036e-02 3.1531200111829367e-02 3.7750295400484006e-03  2.9212338539876689e-02 4.8483945668647846e-02 8.6768232799262022e-03  2.9458901026127717e-02 4.5619305491557197e-02 7.3945544028825323e-03  2.9651489262346432e-02 4.2841800490150468e-02 6.3539089637819736e-03  2.9829942724202571e-02 4.0116150746683323e-02 5.5385919018278379e-03  3.0019489004529071e-02 3.7415213364117759e-02 4.9286295483964336e-03  3.0241593331899880e-02 3.4717856475735255e-02 4.5046750518836975e-03  3.0516196519076211e-02 3.2000981101361840e-02 4.2465140891813774e-03  2.9332428133557849e-02 3.1054852736805465e-02 -3.9747199401456738e-03  2.9936438847527874e-02 3.0169080044608141e-02 -5.7217771473453086e-03  3.0439929829679007e-02 2.9208801951694750e-02 -7.2390086604694568e-03  3.0886550062894726e-02 2.8213298179294320e-02 -8.5120994943863951e-03  3.1323862115848519e-02 2.7192162748446193e-02 -9.5620278295347107e-03  3.1798035677259966e-02 2.6151506628136582e-02 -1.0407775580749897e-02  3.2348837139830028e-02 2.5101516234073345e-02 -1.1072923939964353e-02  2.7127731941971978e-02 3.2948310063391002e-02 -5.6917937790264975e-03  2.7476877857051048e-02 3.8301654222197806e-02 -1.9153794375883673e-03  2.8217174568782179e-02 3.6420793000568476e-02 -3.6781190150376457e-03  2.7981491059275318e-02 3.1725666489957428e-02 -7.5598029283363037e-03  2.8688441373824085e-02 3.0483367060876662e-02 -9.1028508548477351e-03  2.8847602849239515e-02 3.4551923181146527e-02 -5.1666281856365941e-03  2.9308433611148217e-02 2.9242427503574031e-02 -1.0355724150938732e-02  2.9411233251988848e-02 3.2691708072849220e-02 -6.3733663359981270e-03  2.9902428806452188e-02 2.7988883806104124e-02 -1.1332291528267292e-02  2.9958838811573078e-02 3.0832305214346215e-02 -7.3089649301473882e-03  3.0529323027866723e-02 2.6708459685146461e-02 -1.2048098915934452e-02  3.0543140443377002e-02 2.8960047433533465e-02 -7.9935524108364232e-03  3.1251755356791699e-02 2.5393498398169862e-02 -1.2516558963855152e-02  3.1219568989013988e-02 2.7060990424102250e-02 -8.4583786608051787e-03  2.9631479573091545e-02 5.3189131628395357e-02 1.3655111273161257e-02  2.9615843312295602e-02 5.0061069445700060e-02 1.2641337189634047e-02  2.9585637034347377e-02 4.7002188734255844e-02 1.1862244503267453e-02  2.9547098502552070e-02 4.4000436117744957e-02 1.1285784834037747e-02  2.9520768196467592e-02 4.1031167954062094e-02 1.0889538421104615e-02  2.9521059909371299e-02 3.8077503822036979e-02 1.0658132196145526e-02  2.9556860609165302e-02 3.5132950975318086e-02 1.0586442405178705e-02  3.2222892415106660e-02 6.2082987410643636e-02 2.4279435785970870e-02  3.1844694509092664e-02 5.9191215776175761e-02 2.3945834830814128e-02  3.1422181684359146e-02 5.6374654007624918e-02 2.3804162792257850e-02  3.0980172908787938e-02 5.3602122603523629e-02 2.3796291308850540e-02  3.0536845356012383e-02 5.0858306281689185e-02 2.3907858396513344e-02  3.0106937902174242e-02 4.8132964255568997e-02 2.4130464942680004e-02  2.9701091767908996e-02 4.5422476693642216e-02 2.4473498623235324e-02  2.8130290830365914e-02 4.4034325364706937e-02 3.1406497274862042e-03  2.6928016376051776e-02 4.2603021740993584e-02 -2.2767932972152130e-04  2.7631979300314927e-02 4.0039190041140052e-02 -1.9571689227105447e-03  2.8643204822587594e-02 4.1508153639546540e-02 1.5410590032992597e-03  2.9064773402755012e-02 3.9023045869691665e-02 2.8996628174625427e-04  2.8202080204048283e-02 3.7545542278578967e-02 -3.3180417404132319e-03  2.9453676668961554e-02 3.6574294015316415e-02 -6.9858396400048980e-04  2.8711719372984657e-02 3.5106525310178827e-02 -4.3856583530591277e-03  2.9846193897088390e-02 3.4138645079759909e-02 -1.4512239414253005e-03  2.9209170470928063e-02 3.2694743212418984e-02 -5.1803486153006164e-03  2.9747816557865511e-02 3.0285830513872278e-02 -5.7201850020068652e-03  3.0280798198865751e-02 3.1700395222897741e-02 -1.9858660978913294e-03  3.0383307059208556e-02 2.7856243674261656e-02 -6.0159471430480732e-03  3.0786867786747055e-02 2.9235728474809198e-02 -2.3079918004041931e-03  3.1274185900303057e-02 2.2059344444533942e-02 -1.1318483221465355e-02  3.1201909631304613e-02 2.2006735290586655e-02 -1.2496210941497067e-02  3.1116091619303555e-02 2.1902786219800584e-02 -1.3515078562124474e-02  3.1050344418702403e-02 2.1772863786755633e-02 -1.4377999822021217e-02  3.1036006406700740e-02 2.1641680981476955e-02 -1.5086466325876017e-02  3.1768240177573799e-02 3.5128294955615744e-02 9.8280250984296522e-04  3.2227684508461141e-02 3.3754147973839944e-02 -5.6712004424225304e-04  3.2574856812814350e-02 3.2383602712867325e-02 -1.9318634211570639e-03  3.2866708009471168e-02 3.1004186083697295e-02 -3.1211277448101281e-03  3.3150436955437998e-02 2.9605262409305437e-02 -4.1494605515125221e-03  3.3466388218191208e-02 2.8179329983529237e-02 -5.0299363917193198e-03  3.3856205947458085e-02 2.6721566691734065e-02 -5.7712261227801220e-03  3.1822293120516827e-02 3.0990983120625325e-02 -2.3133001288964867e-03  3.1269705166844984e-02 2.6258011956030711e-02 -5.8292116257155193e-03  3.1572309433853439e-02 2.5917448738218930e-02 -7.4601925272719536e-03  3.2218300040884051e-02 3.0043924559920714e-02 -3.9269145387070999e-03  3.1768912274471650e-02 2.5508318189823333e-02 -8.8665803578923813e-03  3.2504605849143449e-02 2.9103115531291551e-02 -5.3417346151401436e-03  3.1909387454190655e-02 2.5032804034388727e-02 -1.0087143717185628e-02  3.2732420840976405e-02 2.8135290281604025e-02 -6.5784005305903597e-03  3.2039767490104933e-02 2.4506575091413421e-02 -1.1140502941104549e-02  3.2951259787669183e-02 2.7132532405584133e-02 -7.6539466136829031e-03  3.2198347995849877e-02 2.3939509003558145e-02 -1.2038572494354837e-02  3.3202816018119884e-02 2.6090175083240012e-02 -8.5831768662361033e-03  3.2421642156680322e-02 2.3331297884298153e-02 -1.2785136553123692e-02  3.352669318039663