<?xml version="1.0"?>
<VTKFile type="UnstructuredGrid"  version="0.1"  >
<UnstructuredGrid>
<Piece  NumberOfPoints="909" NumberOfCells="3907">
<Points>
<DataArray  type="Float64"  NumberOfComponents="3"  format="ascii">9.17400880206511 4.22344805382868 1.39674741981919  9.263232953275427 4.237649187408688 1.443965941454983  9.225001213600809 4.254451996702117 1.5337098141396  9.266978080709009 4.166478734772276 1.461046206063056  9.181768326342784 4.153615163234046 1.421440012136226  9.166191513624447 4.293112367824737 1.372141042290828  9.259310704723765 4.308623509436723 1.426907863363632  9.220046346096956 4.325110014086564 1.521687216944611  9.158361504909907 4.362663866517195 1.347575475591854  9.255343013428973 4.379477167119222 1.409873776556618  9.215048862955515 4.395650355535002 1.509669553804112  9.25138991077514 4.45025554072018 1.392837444509859  9.150549658893723 4.432124608178785 1.323006380251303  9.210072711207522 4.46610708926888 1.497648021670934  9.247514519552405 4.52096626322079 1.375778919970283  9.142773484578768 4.501502849637824 1.298418775276526  9.205180501720591 4.536489008118264 1.485609917042559  9.243839590198354 4.591600647925072 1.358677650669061  9.135065068563895 4.570767056322967 1.273755527870728  9.200454247405888 4.606764068328688 1.473540843889851  9.07010785135207 4.232318779340733 1.470506054456137  9.061302524302999 4.302757400917685 1.451647329064017  9.052494317521505 4.37307347295324 1.43281795448255  9.043700879581515 4.443286948769023 1.413993711230907  9.034930542952448 4.513396199521337 1.395162265350292  9.026205595900121 4.583375777423039 1.376273204786125  10.03617965698703 3.7065987064617 0.8692861443173574  10.04418622241064 3.598834226573001 0.8339598380096087  9.93207089939734 3.613033129566723 0.8549644709563538  9.922745689267213 3.629628062241274 0.7832060709439241  10.03416666205774 3.614268433032245 0.7623493992833978  10.02725011340499 3.730846877888712 0.7994702623091356  10.01846750119299 3.75534218828326 0.7295762053531251  10.02428381006517 3.629916377154819 0.6906081447652352  9.913496770347898 3.646418800997101 0.7112983073691115  10.00974304586449 3.779923459886191 0.6595999060537445  10.01445321192021 3.645614643475499 0.6187738574504782  9.904275376617283 3.66324784925729 0.639283908347778  10.00100262995815 3.80446390192767 0.5895508466232299  10.00459488754353 3.661254725855371 0.5468605644590778  9.895028105200479 3.68001602730062 0.5671743945447697  9.992179912609018 3.828866673384242 0.5194155651032909  9.994631841089264 3.676744721162463 0.4748573954786582  9.885700840397487 3.696639415200236 0.4949641805165525  9.983224894082875 3.853048622630048 0.4491648369210692  9.984504485695153 3.69202462885571 0.4027359422867317  9.876258274070858 3.71308293416067 0.4226163500545815  9.257879442574032 3.591159013944347 0.9030199296974351  9.146965131682423 3.500911066242058 0.8746005811692209  9.155479653519558 3.632567464468122 0.9154551655364104  9.150135335912022 3.65990472547121 0.8434569430916788  9.145845883275847 3.515332408103231 0.7995290042308756  9.25768892179509 3.611752859882385 0.8295791996146857  9.144707309636424 3.687359636104954 0.7713909736938518  9.257365371026342 3.632442522871406 0.7560355214695431  9.931977610504457 3.763632443341138 0.8989465602554592  9.922833102748845 3.792880943092879 0.8301013101604666  9.913794933025677 3.822372287331357 0.7611952339182206  9.904790567054796 3.851921006923815 0.6922225734026943  9.895764005211769 3.881413824402447 0.6231581243087723  9.886672161557451 3.910763468467415 0.5539779766139492  9.877480323503413 3.9399274210146 0.4846400098768958  9.709830332307032 3.823794050567598 0.9666357003417865  9.648245283248556 3.738219022088 0.9239155636741019  9.608621889501141 3.864054239279523 0.998680770138634  9.601288879938801 3.904555484004125 0.9344596655269886  9.639941735129559 3.767121951864278 0.8541595108126332  9.701136737130337 3.862253395761769 0.9018319396412059  9.593936413697417 3.945249395865455 0.8702637222390762  9.631645699387761 3.79621101891022 0.7843447833088278  9.692480433752417 3.900938489328498 0.8370236278065858  9.586558469922828 3.98598088538804 0.8060250242517496  9.623327025215527 3.825320396222184 0.7144454098117563  9.683811352705836 3.939672059923775 0.7721549639800285  9.579183068914251 4.026680416895712 0.7417097559662353  9.614998544718492 3.854383288390539 0.6444440506760259  9.675130852505237 3.978368932574671 0.7072028900948495  9.571824812665158 4.067290767891915 0.6772755531127559  9.606663788232426 3.883354071905691 0.5743098426542146  9.666439327454837 4.016973240235358 0.642139506382797  9.56449635840271 4.107773272330491 0.6126683513218356  9.598282579136688 3.912192064629251 0.5040106042991095  9.657714702716882 4.055445406162093 0.5769343914440616  9.833844746357018 3.697253874355352 0.8918430573322838  9.825738773122595 3.720033886581909 0.8208290426709774  9.817684300349331 3.743015601060513 0.7496905649905223  9.809640542591158 3.766048556050221 0.6784484761692664  9.801567882788312 3.789017973194629 0.6071099086176962  9.793434155164482 3.811848137717666 0.5356612630159732  9.785272124027697 3.834523712084394 0.4640890185533606  9.538555251148633 3.783715555751105 0.9618255678226483  9.510815287288803 3.895726327641137 1.029454562679061  9.504306686969974 3.940644754516817 0.9676687629886903  9.532127044442841 3.818292451933417 0.8942039767592611  9.525647576581834 3.853069766844835 0.8265556567622815  9.497746637752497 3.985731987535129 0.9059455079287062  9.519132087081164 3.887877311962308 0.7588468551999074  9.491166847574698 4.030848682172453 0.8442064428207182  9.512619532575632 3.922650601423812 0.6910521802925285  9.484592737314092 4.075925379686264 0.7823980704357012  9.506134174363089 3.957334689941288 0.6231387383706997  9.478047760834281 4.120920302916597 0.7204733530201353  9.499696902194195 3.991894993408811 0.5550499522560182  9.471564862000713 4.165816831685881 0.6583762441264802  9.043590744131656 3.866958877111269 1.064997055030277  8.947167805563049 3.827052890821494 1.052370146324632  8.990888717017571 3.93336324111574 1.132438396224678  8.980800312447553 3.988286332906864 1.078490857238169  8.937891653525924 3.873147037185807 0.99035534581558  9.034554934055157 3.915502220735912 1.004895588240891  8.970724464316069 4.04326518491498 1.024682073814245  8.928623904595911 3.919323813320463 0.9284327611646725  9.025509939130059 3.964131042062676 0.9448913276598406  8.960658398187778 4.098223245013783 0.9709104302362989  8.919361636107967 3.965509834271912 0.8665197241212231  9.016466288604068 4.012762854803007 0.8849006886806656  8.950607037789737 4.153117412332026 0.9171105300030575  8.910108351477772 4.011642532321253 0.8045607386549384  9.007434435086505 4.06133948950404 0.8248666353196797  8.940581236865553 4.207913725778146 0.8632364241261231  8.900865337093773 4.057673055539949 0.742523482621236  8.998421168077163 4.109822460775131 0.7647465840127869  8.930589638262663 4.26257700696941 0.809261245398049  8.891646794787485 4.103555939199389 0.6804002366207983  8.989436354967937 4.158182444411028 0.7045128646443368  9.432345574224049 3.8203518335938 0.9875794687387893  9.395391875686801 3.931094839295046 1.072553006421088  9.388826719404895 3.98075349843683 1.014172751681648  9.427859642551672 3.860054507886101 0.9218881955256293  9.382195154955998 4.030529058320423 0.9559018598278701  9.423268131377219 3.899916153100482 0.8562297956124293  9.375547052563702 4.080321091139726 0.8976421031954049  9.418641850907116 3.939813879104487 0.7905339899644945  9.368909047343942 4.130068194020864 0.8393295849871175  9.414020206639231 3.979669847985443 0.7247549579756369  9.362307666092075 4.179727065058089 0.7809231796683793  9.409444087168223 4.019432669489522 0.6588554637771129  9.355804531947705 4.229265444255497 0.7223962698607239  9.404990814299405 4.059064023453939 0.5928020155627048  10.27319509949572 4.122613079642949 1.111839953258711  10.14895482441072 4.137235482332057 1.152588811909144  10.22301874745732 4.190849848598505 1.20517355432824  10.21070626265059 4.251039169060491 1.165777336716447  10.13790993421353 4.194128209688719 1.107220601922404  10.26178791868627 4.176051488040744 1.062596935747896  10.19869156752337 4.311277587908895 1.12654887193031  10.1271011555062 4.251118676323403 1.062015064138907  10.25069452936452 4.22961136325629 1.013518756258516  10.18683894054683 4.371471579002692 1.08740851887204  10.11642715962427 4.308103553572986 1.016878507206384  10.23978513534276 4.283171834186153 0.9645364662487947  10.17503694341653 4.431559005780433 1.048298723728393  10.10578660865067 4.365009805872705 0.9717471756297006  10.22893087454274 4.336653812768518 0.9156018945747868  10.16316176670383 4.491492032444171 1.009163620717143  10.09508170011509 4.421789932753828 0.9265646516149728  10.21799344909037 4.389990625005013 0.8666675022723391  10.15107191607532 4.551251919376988 0.9699428654351268  10.08422414573221 4.478428894172552 0.8812768818708053  9.063119245593668 4.176841265235828 1.336136776372936  9.052881608443963 4.243430561284811 1.30309272459673  9.042661448359286 4.309893941094677 1.270113701900796  9.032448422180154 4.376249349470234 1.23713876862954  9.022237577212415 4.442490783819288 1.204135272193944  9.012076903186184 4.508595316845886 1.171044664011972  10.19692537476338 4.07051445576066 1.071820238622274  10.18778457534807 4.121935254953584 1.019488475277708  10.17887618678661 4.173528302089679 0.9673168664444757  10.17011420136062 4.225152591321235 0.9152182223294458  10.16139088494257 4.276715528022262 0.8631393034709915  10.15259254308949 4.328148233056289 0.8110277585582946  10.1436285655826 4.379422895423621 0.7588124895123801  10.13870670575353 3.638161130113422 0.8327973182197145  10.16532272579726 3.739925296420981 0.8649821025319753  10.15571015977448 3.765886345216759 0.7963227552028024  10.12891886211092 3.658075662407166 0.7624722584357242  10.14634214649317 3.79215203095639 
[...]
<PointData  Vectors="f_24"> 
<DataArray  type="Float64"  Name="f_24"  NumberOfComponents="3" format="ascii">-1.6595992179982904e-02 2.1576936007362928e-02 1.0351931430231172e-02  -1.7399820249799563e-02 2.5085729552321412e-02 9.9638980076632612e-03  -1.7670678191200748e-02 3.2511034803068474e-02 8.9471911964467445e-03  -1.7696001014894585e-02 2.6715968725002117e-02 1.4463031624314726e-02  -1.6887279013847897e-02 2.3447541028371998e-02 1.4476301970323575e-02  -1.6352581758927242e-02 2.0118553882404921e-02 6.4804243182162357e-03  -1.7126684327848776e-02 2.3924553935226082e-02 5.9130926701523555e-03  -1.7411256750898860e-02 3.1562378425765744e-02 4.6456190046460961e-03  -1.6101035489065347e-02 1.8731400924351865e-02 2.4177877515929275e-03  -1.6850024197930007e-02 2.2891260818551279e-02 1.7180181358733256e-03  -1.7142802561495096e-02 3.0725730898966481e-02 2.5442427506254279e-04  -1.6563008706640008e-02 2.1872672024758764e-02 -2.7807281358671271e-03  -1.5846281149640852e-02 1.7355219980244967e-02 -1.9166849095337737e-03  -1.6853946307797546e-02 2.9903829433318638e-02 -4.4438990800282525e-03  -1.6269552242091572e-02 2.0949405594931296e-02 -7.5192634349430009e-03  -1.5589817746819393e-02 1.6078146852335037e-02 -6.4705635895323573e-03  -1.6552963768946709e-02 2.9159657547871722e-02 -9.4119489992480834e-03  -1.5931903680505476e-02 2.0110264797606418e-02 -1.2458217755678297e-02  -1.5313484376308178e-02 1.4835948104405972e-02 -1.1211103404352597e-02  -1.6226410083755829e-02 2.8480748462069307e-02 -1.4586428113750138e-02  -1.6364044292345677e-02 2.7749818281164323e-02 9.4055104404104483e-03  -1.6148831106174918e-02 2.6516361650020821e-02 5.2515755792597492e-03  -1.5934724412926926e-02 2.5364907367728656e-02 9.5100149301003615e-04  -1.5702156484900167e-02 2.4208926566317835e-02 -3.6534311746103010e-03  -1.5475245221815188e-02 2.3128759411150036e-02 -8.4858004148194045e-03  -1.5238849562394883e-02 2.2080829705449639e-02 -1.3505031308826814e-02  -2.0337169089636887e-02 -1.0830843324631549e-02 1.9948624421023388e-02  -2.0580907104333600e-02 -1.2598790860736193e-02 1.8997781040250333e-02  -1.9932235312917539e-02 -1.2124484793137692e-02 2.0141178524571968e-02  -2.0351399376232066e-02 -1.1912881353704477e-02 2.0797113814995521e-02  -2.1019576289287793e-02 -1.2215354801973175e-02 1.9580970566241085e-02  -2.0657881874663737e-02 -1.1106746020587659e-02 2.0510640592359217e-02  -2.0923202702558669e-02 -1.1321622189596930e-02 2.0674168578545093e-02  -2.1414627661034007e-02 -1.1867891508846111e-02 1.9821849056024569e-02  -2.0724226698542247e-02 -1.1709846882112834e-02 2.1055097420214601e-02  -2.1270873599981397e-02 -1.1426837590792592e-02 2.0584007939805988e-02  -2.1876535134581508e-02 -1.1432893741985714e-02 1.9864564491006348e-02  -2.1169449239976684e-02 -1.1411377198152751e-02 2.1069955655584800e-02  -2.1691527107757218e-02 -1.1448984172741900e-02 2.0281354599686059e-02  -2.2416765157003204e-02 -1.0911597223050039e-02 1.9713240391966601e-02  -2.1686635984791286e-02 -1.1032728831618788e-02 2.0877804660621269e-02  -2.2191042663729142e-02 -1.1362396764119207e-02 1.9720359351487089e-02  -2.3046802016055801e-02 -1.0298966801990495e-02 1.9303526408798483e-02  -2.2279946436740066e-02 -1.0570144231813464e-02 2.0415788645075074e-02  -2.2767675817812628e-02 -1.1182892308989436e-02 1.8938162085978275e-02  -2.3767812282657619e-02 -9.6031242303054754e-03 1.8731370321660102e-02  -2.2962394598929955e-02 -1.0016966589066234e-02 1.9723119972268704e-02  -1.6731947109066236e-02 -9.8521138011947850e-03 2.5546957833704448e-02  -1.6607269197174191e-02 -1.0878945927919350e-02 2.6412181845360459e-02  -1.6251908762182726e-02 -8.5726355216999700e-03 2.6721040613388290e-02  -1.6641464937316965e-02 -9.2687515662086845e-03 2.6994679840177321e-02  -1.7187067573966479e-02 -1.0698822976208623e-02 2.6816399700187819e-02  -1.7252893798040323e-02 -1.0175071003257329e-02 2.6101169083923029e-02  -1.7076652013246610e-02 -9.8427941229027940e-03 2.6872007179389954e-02  -1.7746554420100185e-02 -1.0433347016321572e-02 2.6201197474518191e-02  -1.9695447498104909e-02 -9.6489315075904657e-03 2.1447101288256231e-02  -1.9939545013887318e-02 -1.0309121131733876e-02 2.1654014335684708e-02  -2.0151363371487301e-02 -1.0826130684711381e-02 2.1513194259905579e-02  -2.0438588131444658e-02 -1.1246516179636018e-02 2.1157039766299686e-02  -2.0788742613409298e-02 -1.1593436811683710e-02 2.0595279063368759e-02  -2.1207329795279437e-02 -1.1825247120119063e-02 1.9779993670667878e-02  -2.1689643386243018e-02 -1.2011950820196226e-02 1.8803609395903219e-02  -1.8563838387168387e-02 -6.8171234563836032e-03 2.2305068795110305e-02  -1.8313979280891214e-02 -9.0671300053358425e-03 2.3537271964681430e-02  -1.8049465925392357e-02 -5.2655745876816831e-03 2.2603538618369921e-02  -1.8051824861256983e-02 -6.8764967838757431e-03 2.2207841834308122e-02  -1.8542183911275021e-02 -9.8406017830987430e-03 2.3689093766932665e-02  -1.8634136322775292e-02 -8.1615526761351781e-03 2.2305988102905606e-02  -1.8106536879483721e-02 -8.2005526801165463e-03 2.1520815970090999e-02  -1.8780975599408837e-02 -1.0453332411295669e-02 2.3478426399161770e-02  -1.8718669777407763e-02 -9.2404056757863385e-03 2.1924635663395982e-02  -1.8224250224032748e-02 -9.4178816965875441e-03 2.0574797256642373e-02  -1.9083203827686926e-02 -1.0986656687785376e-02 2.3039062255864655e-02  -1.8864145703040625e-02 -1.0205528017071719e-02 2.1233397411281617e-02  -1.8375079512964149e-02 -1.0561535883339310e-02 1.9402029721426517e-02  -1.9422516432186076e-02 -1.1460198424269510e-02 2.2385594020435794e-02  -1.9060456332550924e-02 -1.1104157090299650e-02 2.0299405903644333e-02  -1.8552234111068298e-02 -1.1582437004257796e-02 1.7955570075155559e-02  -1.9802250586966941e-02 -1.1850049189469272e-02 2.1456977475736404e-02  -1.9302338589307921e-02 -1.1886998245860918e-02 1.9080979231325488e-02  -1.8743735447943301e-02 -1.2526969777283615e-02 1.6253272849019274e-02  -2.0241146091580828e-02 -1.2173115634157463e-02 2.0330941772823949e-02  -1.9606780517719028e-02 -1.2526296913547608e-02 1.7560997868225906e-02  -1.9271076018082027e-02 -1.0435003903297064e-02 2.1727863472271826e-02  -1.9616597409485417e-02 -1.0809962323046264e-02 2.2236856061583585e-02  -1.9896128393278409e-02 -1.1119298909895022e-02 2.2334322031913441e-02  -2.0258961025167353e-02 -1.1304078658328899e-02 2.2167669064481782e-02  -2.0676995570550916e-02 -1.1408994510873235e-02 2.1776218951211804e-02  -2.1164209317079262e-02 -1.1415730913027455e-02 2.1116826564429775e-02  -2.1714724400086524e-02 -1.1356643754439098e-02 2.0214923629302470e-02  -1.7758186790480659e-02 -7.1816178387381756e-03 2.3679534321708984e-02  -1.7472169327403995e-02 -3.5617006778075329e-03 2.2568963293114395e-02  -1.7477457813177080e-02 -5.3901845911706464e-03 2.1789724297957613e-02  -1.7895086266935808e-02 -8.4077954326510444e-03 2.3668697542366880e-02  -1.8065003720460902e-02 -9.4201844765602148e-03 2.3316025915451993e-02  -1.7518506185867484e-02 -6.9096983567357240e-03 2.0787220925750281e-02  -1.8299670017869432e-02 -1.0329459831592853e-02 2.2690728043444131e-02  -1.7596429573842845e-02 -8.3314761617270701e-03 1.9535675746444599e-02  -1.8560862995607538e-02 -1.1170918470425759e-02 2.1829553363880684e-02  -1.7697783374988858e-02 -9.6824588968943935e-03 1.8058517370547960e-02  -1.8832601361667155e-02 -1.1912312270404627e-02 2.0683225381878539e-02  -1.7803426731991100e-02 -1.0910744251769189e-02 1.6309482880694653e-02  -1.9116596381763797e-02 -1.2562052248149548e-02 1.9247453059807504e-02  -1.7883953366099270e-02 -1.2074917832667360e-02 1.4337080711348836e-02  -1.5441701205550811e-02 -5.0430236266898250e-04 2.4263679264034582e-02  -1.5143939038437228e-02 -1.0559267925915453e-03 2.5420682066385019e-02  -1.5214371137754838e-02 3.5692811004615485e-03 2.2646505172238256e-02  -1.5079727582562388e-02 1.1852861926804879e-03 2.0888196482135083e-02  -1.5165366881678057e-02 -3.1874739186934058e-03 2.4612748740453282e-02  -1.5435729781553978e-02 -2.6777359858232200e-03 2.3204154360233886e-02  -1.5062289715993301e-02 -7.9097139269986656e-04 1.9002714281461736e-02  -1.5241686926349274e-02 -4.9539722445019405e-03 2.3527898468839410e-02  -1.5501501513931348e-02 -4.4725708604943498e-03 2.1919092504908123e-02  -1.5078342956529423e-02 -2.6848253096681913e-03 1.6850350052446384e-02  -1.5382427885867455e-02 -6.6015682684227757e-03 2.2150183584549801e-02  -1.5602339616406420e-02 -6.1694233930222131e-03 2.0351966013254504e-02  -1.5120559698423318e-02 -4.5157276443714475e-03 1.4470765193081462e-02  -1.5562954132614815e-02 -8.1717898431916021e-03 2.0530070352766265e-02  -1.5729388417300521e-02 -7.7910853893031823e-03 1.8548042918818078e-02  -1.5177811574327184e-02 -6.2414596661387791e-03 1.1838617308643065e-02  -1.5778758465496857e-02 -9.6449632313376655e-03 1.8632902224714920e-02  -1.5874550243683987e-02 -9.3094692877811417e-03 1.6470970911787362e-02  -1.5229285928750891e-02 -7.9436328281826726e-03 9.0141834055707162e-03  -1.6011892317958545e-02 -1.1074599165696534e-02 1.6496984201882212e-02  -1.6017075321527286e-02 -1.0793920676159011e-02 1.4197913696422808e-02  -1.7114465543683496e-02 -5.6587056529794873e-03 2.3963942197085922e-02  -1.6794701757967049e-02 -8.7143511106410403e-04 2.2073632568268435e-02  -1.6805920975210168e-02 -3.0243951722784615e-03 2.0912149720672825e-02  -1.7274089870333215e-02 -7.1606303274403338e-03 2.3576027709219165e-02  -1.6839824843355597e-02 -4.8003842272815230e-03 1.9560270224775033e-02  -1.7443933137234208e-02 -8.4223998609820397e-03 2.2902836422115932e-02  -1.6873849323763859e-02 -6.4580820329504110e-03 1.7942318716965035e-02  -1.7643778336123631e-02 -9.5881857257923801e-03 2.1970209739805738e-02  -1.6914810244689049e-02 -8.0351907699806428e-03 1.6097275646558339e-02  -1.7852809604164223e-02 -1.0687883134549537e-02 2.0806864844258512e-02  -1.6950499121732458e-02 -9.4841813210266319e-03 1.3993965673668590e-02  -1.8053071974959183e-02 -1.1683942568789185e-02 1.9365102553467059e-02  -1.6946326537256067e-02 -1.0852675242418662e-02 1.1664085514560158e-02  -1.8202808782719224e-02 -1.2617343070823444e-02 1.7695336072051902e-02  -2.0834507089417462e-02 8.3281734102878054e-04 1.5503592717782514e-02  -2.0370787773074002e-02 2.9252817972151685e-03 1.5718116552978383e-02  -2.0766735912678982e-02 5.8183150248375471e-03 1.4195083202800753e-02  -2.0479898953713976e-02 3.8642375287914490e-03 1.2023784791368765e-02  -2.0156190893697627e-02 8.7598157164288316e-04 1.3952109487783252e-02  -2.0642493543548638e-02 -1.2167896015610657e-03 1.4164923390707830e-02  -2.0144875965442191e-02 2.3068951651795946e-03 9.8842566871337727e-03  -1.9881813832585124e-02 -7.7397379524336385e-04 1.2135001370510233e-02  -2.0399699351618551e-02 -2.8619789046895731e-03 1.2737267440310444e-02  -1.9848678847245550e-02 8.5993848065040379e-04 7.5744242233014864e-03  -1.9650177967174619e-02 -2.2989706484310962e-03 1.0126978572821996e-02  -2.0211318240396847e-02 -4.3534675394985714e-03 1.1111499126594159e-02  -1.9632904826015461e-02 -5.4999747819345617e-04 5.0439494483247495e-03  -1.9497329869095588e-02 -3.7669373144893822e-03 7.9059708459651278e-03  -2.0107972933441801e-02 -5.7724063700405554e-03 9.2853625513933842e-03  -1.9508369697050217e-02 -1.8581576312277975e-03 2.2949337719605908e-03  -1.9425221250617370e-02 -5.1096388183896864e-03 5.4656544887733789e-03  -2.0101300967801071e-02 -7.0707254369474374e-03 7.2467321439940299e-03  -1.9463251560983844e-02 -3.0802385852331652e-03 -6.2911663934531452e-04  -1.9417804917267110e-02 -6.3572901689284223e-03 2.8409689347401110e-03  -1.5762555065321395e-02 1.7554186619488769e-02 1.2385866684369985e-02  -1.5557068109100729e-02 1.5619910282685450e-02 8.9249055011069445e-03  -1.5356062765606233e-02 1.3815650369706313e-02 5.2782327275073121e-03  -1.5164434674585643e-02 1.2050739095329265e-02 1.3828968357017224e-03  -1.4977912671892938e-02 1.0387325775989803e-02 -2.7352923957431785e-03  -1.4765694512428085e-02 8.7880011330468376e-03 -7.0647435714588890e-03  -2.0515146099367613e-02 -1.2466531596624167e-03 1.6859257739564957e-02  -2.0412509844342768e-02 -3.1758062251561769e-03 1.5766951962199550e-02  -2.0236082398762345e-02 -4.7330334629791517e-03 1.4525549151442177e-02  -2.0110669557617665e-02 -6.1439246094664984e-03 1.3078032115203867e-02  -2.0072003756743811e-02 -7.4845658936602772e-03 1.1424974150589471e-02  -2.0117487714674129e-02 -8.6923830618855415e-03 9.5570222909194431e-03  -2.0237570136757380e-02 -9.7733397570126043e-03 7.4934053600475264e-03  -2.1019388612880312e-02 -1.2191378851072934e-02 1.8396757296103228e-02  -2.0908885051950234e-02 -1.0593090900614935e-02 1.8874677150993998e-02  -2.1219758114268312e-02 -1.0960197271491596e-02 1.9423406213860427e-02  -2.1418776393962616e-02 -1.1978934459343863e-02 1.9038195967467381e-02  -2.1457228964540772e-02 -1.1252707879521887e-02 1.9594088032279321e-02  -2.1760743286055484e-02 -1.1786195088599577e-02 1.9318621131997976e-02  -2.1767901411278490e-02 -1.1429828989015291e-02 1.9507269289062261e-02  -2.2171238585640390e-02 -1.1507353213845065e-02 1.9369072336246938e-02  -2.2158546059566155e-02 -1.1514133877780717e-02 1.9218676152216181e-02  -2.2667874244211336e-02 -1.1152677846276146e-02 1.9226301154801676e-02  -2.2641334266755745e-02 -1.1484696301017935e-02 1.8693482829941099e-02  -2.3251780359647242e-02 -1.0699208845439512e-02 1.8840453188344212e-02  -2.3231907155072753e-02 -1.1348341401028687e-02 1.7944589792833893e-02  -2.3942580540829907e-02 -1.0130202394595061e-02 1.8264367300623086e-02  -2.0513434956405199e-02 -9.3736416710833367e-03 1.9930641769659859e-02  -2.0731114501867997e-02 -1.0108344155145357e-02 2.0078006693280252e-02  -2.0909017284381909e-02 -1.0696498008771687e-02 1.9911675458102775e-02  -2.1151855883720209e-02 -1.1182828899145032e-02 1.9548034206808330e-02  -2.1470211356314422e-02 -1.1591051567960097e-02 1.8994409450122707e-02  -2.1874790486797305e-02 -1.1871707560252442e-02 1.8203690001467984e-02  -2.2360056595116161e-02 -1.2071553930078574e-02 1.7236635403610336e-02  -1.6467979041231755e-02 -3.5597246997100683e-03 2.3731005765551497e-02  -1.6609000819890061e-02 -5.3784775994476343e-03 2.3000159248268801e-02  -1.6748920822008920e-02 -6.9019277953815752e-03 2.1987162955044635e-02  -1.6894566249534695e-02 -8.3290796674582359e-03 2.0702015652648082e-02  -1.7034183507289063e-02 -9.6798497343328366e-03 1.9187028587852581e-02  -1.7162478502313470e-02 -1.0919016909504862e-02 1.7401316996960303e-02  -1.7258678757825222e-02 -1.2102130839955188e-02 1.5420662911548181e-02  -2.0027334950683890e-02 5.7118183972428829e-04 1.7290376559831174e-02  -1.9848859029501998e-02 -1.4566170636049476e-03 1.5839689850322237e-02  -1.9615433437078042e-02 -3.0644308013205519e-03 1.4261267878097918e-02  -1.9431813787327650e-02 -4.5323622747429314e-03 1.2453485669165903e-02  -1.9329983566632333e-02 -5.9385973418865749e-03 1.0417947526185328e-02  -1.9297080535077248e-02 -7.2103048756338587e-03 8.1540090108158814e-03  -1.9330508825950082e-02 -8.3614688061677406e-03 5.7050945675086321e-03  -2.1017840716413782e-02 1.7302583293396578e-02 1.2445811759835853e-02  -2.0365420074746454e-02 1.1625571920602620e-02 1.4026168085520617e-02  -2.0526529608493254e-02 1.7246761881174903e-02 1.3574929108877745e-02  -2.0037541949722969e-02 1.5400106618342077e-02 1.0147968566704565e-02  -1.9992375428012025e-02 9.6274538190163055e-03 1.1141073706939940e-02  -2.0590952183841219e-02 1.5475108992060990e-02 9.1406979092382070e-03  -1.9553770970793090e-02 1.4006332729868643e-02 6.9910962703131725e-03  -1.9569016980804755e-02 8.0890668000261380e-03 8.4055302114626213e-03  -2.0117332991924645e-02 1.4083702218279030e-02 6.0983260498551238e-03  -1.9106979210124594e-02 1.2746097627241238e-02 3.6750722502192209e-03  -1.9182889536802895e-02 6.6657209101633535e-03 5.4902526155384103e-03  -1.9668966224019917e-02 1.2817332619531328e-02 2.9232227849153376e-03  -1.8728957727781166e-02 1.1525385480259817e-02 9.1510787079353864e-05  -1.8879982176042080e-02 5.2826231786326462e-03 2.3286056870298315e-03  -1.9299298844260074e-02 1.1577929592814704e-02 -5.1197842417982588e-04  -1.8426156636637634e-02 1.0403687603899790e-02 -3.7385048941676580e-03  -1.8658723881395285e-02 4.0058245029316649e-03 -1.0642259888111627e-03  -1.9008774941414331e-02 1.0422265500413546e-02 -4.1900353676531518e-03  -1.8184538525784985e-02 9.3840439997778368e-03 -7.7677659216477089e-03  -1.8478304986520470e-02 2.8146596140406232e-03 -4.6311225283753440e-03  -1.8750849211542357e-02 9.3425094978332474e-03 -8.0709972365061375e-03  -1.5273547550194120e-02 2.0767100218097842e-02 7.4484454250066312e-03  -1.5100388575456865e-02 1.9138956489357446e-02 3.4874376967594482e-03  -1.4927904507802441e-02 1.7524405931800671e-02 -7.4005797569387315e-04  -1.4765716708447686e-02 1.5996574852101857e-02 -5.1904273164205574e-03  -1.4579085542932076e-02 1.4512813254321416e-02 -9.8471864715557675e-03  -1.9817744545221935e-02 8.1562726988891228e-03 1.5446869598376347e-02  -1.9449334696404769e-02 6.1674088639103470e-03 1.2870207161215142e-02  -1.9065001475797570e-02 4.5958068555183923e-03 1.0305409712752881e-02  -1.8725792401465338e-02 3.1069693996207998e-03 7.5423230714991166e-03  -1.8464963376487432e-02 1.6593714559270743e-03 4.5455922166147324e-03  -1.8274116923402053e-02 3.3541783905149199e-04 1.3213482851096023e-03  -1.8163599446771064e-02 -9.0676147752314425e-04 -2.0668691915025450e-03  -1.9349611577834026e-02 -3.6076335251077635e-03 2.0067739975114084e-02  -1.9607513748466424e-02 -6.4656013328564183e-03 2.0643281025273217e-02  -1.8993464010315292e-02 -5.2385161207386625e-03 2.1245860653711528e-02  -1.8987829353346548e-02 -6.8279531905729501e-03 2.0803808609317097e-02  -1.9648028885519527e-02 -7.8787936130606043e-03 2.0487564559510594e-02  -1.9270200003132378e-02 -5.3784611305358419e-03 1.9244377626125266e-02  -1.8975188949678898e-02 -8.1418869492020252e-03 2.0073907515805404e-02  -1.9676165216819096e-02 -9.0129919571848051e-03 2.0009316706083892e-02  -1.9177041593057425e-02 -6.8311758542676159e-03 1.8203941549356319e-02  -1.9032909085112668e-02 -9.3372228936466229e-03 1.9096947956348816e-02  -1.9769000131875176e-02 -1.0019110422806673e-02 1.9262123741788349e-02  -1.9150571529177898e-02 -8.1693972480314358e-03 1.6938683514240601e-02  -1.9145998009356537e-02 -1.0453529027493812e-02 1.7897255980372315e-02  -1.9934290438623492e-02 -1.0947372443076154e-02 1.8292006547993355e-02  -1.9186748564704360e-02 -9.4315064287207578e-03 1.5461923431342325e-02  -1.9313373378605669e-02 -1.1435731653732585e-02 1.6437199787109683e-02  -2.0166910298075449e-02 -1.1742421161501244e-02 1.7066285013190140e-02  -1.9288288737251531e-02 -1.0556016754622288e-02 1.3742406346366294e-02  -1.9538499683869056e-02 -1.2319963552797991e-02 1.4757772820642811e-02  -2.0474058705071695e-02 -1.2412122958807821e-02 1.5616676166868914e-02  -1.9454638928143590e-02 -1.1626928244935671e-02 1.1857696815363899e-02  -2.0199989991446895e-02 -3.4469962430013264e-03 1.8360600466315477e-02  -2.0134004418801886e-02 -5.1914857593288550e-03 1.7523999585891983e-02  -2.0039904031193722e-02 -6.6248273851452384e-03 1.6480634627603640e-02  -2.0001579200803688e-02 -7.9367215550443897e-03 1.5254834064700309e-02  -2.0038527408805035e-02 -9.1725585948058477e-03 1.3834181632629762e-02  -2.0155835646228554e-02 -1.0268015738621006e-02 1.2188382291618649e-02  -2.0329233752788233e-02 -1.1283251248668823e-02 1.0367814879631747e-02  -1.9327530743729650e-02 -1.2397881803659451e-02 2.0947568613093194e-02  -1.9781608163612130e-02 -1.2035991414724860e-02 2.1554284059984229e-02  -2.0204301585124897e-02 -1.1713061278311300e-02 2.1779722030694955e-02  -2.0691864799953649e-02 -1.1296533015530068e-02 2.1787052436176329e-02  -2.1242474111832488e-02 -1.0798318409079922e-02 2.1583711695014381e-02  -2.1863034015764938e-02 -1.0222734152858739e-02 2.1096075510860221e-02  -2.2557441918378694e-02 -9.5696685996766312e-03 2.0392379398818421e-02  -1.5724611445205258e-02 2.2653901909128189e-03 2.2406332101592066e-02  -1.5562550354484962e-02 7.0510585948358063e-03 2.0385959730784491e-02