<?xml version="1.0"?>
<VTKFile type="UnstructuredGrid"  version="0.1"  >
<UnstructuredGrid>
<Piece  NumberOfPoints="698" NumberOfCells="2863">
<Points>
<DataArray  type="Float64"  NumberOfComponents="3"  format="ascii">4.962784031710258 1.293045238675167 1.490551399308133  5.105886206246026 1.331693092184997 1.462177062742162  5.055082997187112 1.226162325459813 1.567558455624586  4.966610660549288 1.248503110515437 1.446405362401406  5.108774075814583 1.286803856881697 1.417618717373047  5.060253048729423 1.175310018832864 1.529138153213091  5.065426033657087 1.124467847239486 1.490731843009584  5.111621026850292 1.241921492504202 1.373058788594523  4.970440606088959 1.203962354472619 1.402261890831803  5.114455259866244 1.197037019583796 1.32849412604692  4.974276024554077 1.159419033082869 1.358119209772663  5.070599503634564 1.07363815742558 1.452339529027189  5.117296298941304 1.152148254223819 1.28392678357191  4.978125719527868 1.114872207586361 1.313979038325401  5.075778711794074 1.022818722008378 1.413960806182099  5.12016219722773 1.107254660765508 1.239358268704936  4.982005100079654 1.07031981843913 1.269840337600471  5.0809693432266 0.9720097422042466 1.375596551165643  5.123085246542178 1.062354715158384 1.194787122735284  4.985919124786845 1.025764160161407 1.225700351416196  5.086175052418638 0.9212059760869394 1.337235187417911  5.306936773862561 1.478147184569765 1.342841744257135  5.431646300963628 1.539833854688553 1.310323694592891  5.400766854091552 1.40466668143374 1.407392983621027  5.404577285737751 1.363377709249192 1.360540218522222  5.435343759281626 1.50589843016073 1.259326954007451  5.309762481715098 1.441763228210676 1.29259593157693  5.439047439923111 1.471998454666813 1.208264453448424  5.312569692568461 1.405413320850734 1.242307684035264  5.408339641300547 1.322074892714629 1.313660384580059  5.442755857182456 1.438106238532473 1.15716862799821  5.315368495685066 1.369070552676681 1.191996008419319  5.412092523509864 1.280770377697097 1.266761905432902  5.446460644612246 1.404202857272767 1.106062523066131  5.318166072780261 1.332717195934646 1.141676642876013  5.415841912696975 1.239455189291636 1.219856284407288  5.419598172461962 1.198126030321218 1.172948800066714  5.45015173616558 1.370266575010157 1.054946109700851  5.320963960355313 1.296340362589517 1.091359420388516  5.423404409227358 1.156779988912746 1.12603296664226  5.453838472825557 1.336274895297523 1.003821693869088  5.323765913469516 1.259934416402939 1.041043517707271  5.566766002724495 1.144823603117242 1.816405754110598  5.519953705433203 1.20487383832047 1.678270835802572  5.659319875850104 1.188117128223023 1.730200451804818  5.665949590037132 1.13219157317234 1.701581666106229  5.525185478883181 1.14992015942403 1.647659729030212  5.572453771992858 1.086465730737662 1.793226259957517  5.578130107379636 1.028096289102976 1.770038175130706  5.530371670483865 1.094955454272502 1.617016060807108  5.672579640539618 1.076272009661317 1.672933106757287  5.583806812010304 0.9697264103098755 1.746840156846531  5.535543811375545 1.039984193657171 1.586354801953545  5.679221305316328 1.020371565535936 1.644273010081553  5.589477909980356 0.9113549812895434 1.723645167683951  5.540713880182842 0.985008418236775 1.555694042196977  5.685857562706119 0.9644784403121364 1.61562602517811  5.545901301239079 0.9300227150736777 1.525046305186628  5.59513436583499 0.852978163243497 1.700472729196797  5.692485084527492 0.9085852061034614 1.587015870768711  5.551151034743182 0.8750274773498782 1.494412865701651  5.600794952215168 0.7946030235738967 1.677322880369505  5.69912709241704 0.8526813568669636 1.558431503903338  5.755497550682214 1.269757884438477 1.622533513531514  5.816670473971783 1.205905608718916 1.740783904975435  5.825031166646473 1.150860053679428 1.711412663378449  5.764020125239694 1.218327730389087 1.587885319636424  5.772676340763902 1.166923705773865 1.553178461649709  5.833528602659278 1.095842085152632 1.681995365691325  5.781389435926479 1.115531000680428 1.518455007776412  5.842085584189857 1.040844083440466 1.652561648931696  5.790096385313126 1.064133399166551 1.483734948979564  5.850631090535593 0.9858531971026894 1.623137913773353  5.79874720795094 1.012708850012136 1.449028115058556  5.859098304603876 0.9308458066415936 1.593736672956307  5.807306168591518 0.9612343566170012 1.414339932020516  5.86744862309561 0.8757937975145894 1.564345404684406  5.333642099550859 1.584964682393244 1.203991965554464  5.335190505315893 1.555242016790885 1.150699222439327  5.336728666230154 1.525543900374834 1.097393922246076  5.338269028384456 1.495841299716868 1.044090441684546  5.339825105662951 1.466109908257085 0.9907956399605546  5.341433564098487 1.436316771319978 0.9374989314777495  4.787693440728455 1.436447479447946 1.355640162527779  4.830497983474356 1.572337287926745 1.2736277708947  4.926644668154853 1.494254832607077 1.324823313562851  4.927832935987353 1.461287226502877 1.27328216614505  4.830756441263663 1.543221733039629 1.220913930511865  4.788520141165895 1.402032942557866 1.30524580768972  4.831018360987263 1.514153581166387 1.168184327001157  4.789346081729216 1.367648299097623 1.254849221064963  4.929027081085 1.428359626546463 1.221724580321171  4.83129040867338 1.485106366858153 1.115458943399509  4.790180301342728 1.333278920166104 1.204459147314449  4.930227405559791 1.395446593314772 1.170156797965787  4.831583443766472 1.456060727461989 1.06274691280107  4.791036846968423 1.298913649617526 1.154083414909672  4.931444216305365 1.362529824733585 1.118588148315609  4.831910241787657 1.427000967022855 1.010055848612902  4.791927751916715 1.26454456938041 1.103729924359624  4.932686171432285 1.329594088075648 1.067023231685432  4.832282564658055 1.397908815165248 0.9573869403834606  4.792851752131771 1.230161720837338 1.053402848478583  4.933965118983044 1.296635857738522 1.015470796075812  5.171125022811538 1.429888521515019 1.370256988936925  5.216201173603949 1.5509160562385 1.294404773418304  5.217446650841084 1.51917185163024 1.241755065549029  5.173300166466981 1.391455323499158 1.320688782849318  5.218638448080887 1.48746308857271 1.189064176453246  5.175443536236454 1.353044802683935 1.271099564220215  5.219816381788388 1.455768944026552 1.136351827105771  5.177578704429863 1.314647000104831 1.221504597734663  5.220999216128579 1.424068378702237 1.083631784018967  5.179717507624792 1.276245643303266 1.171912062337273  5.222202940734553 1.392341441413047 1.030908418385676  5.181867454075801 1.237829008976737 1.122327494442936  5.223450971797213 1.360572783673362 0.9781872400583276  5.184029451526749 1.199391600209823 1.072741894483392  4.521699093011561 1.336384517175364 1.426312969540766  4.548296575851487 1.477802084241364 1.332780473565915  4.630663416280589 1.39442559020313 1.386090687854869  4.630926218280991 1.359584570058795 1.336691303031176  4.548058071927147 1.446474811350566 1.282222868570016  4.522799053001047 1.300698242651329 1.37729649728751  4.631154797712894 1.324761375524808 1.28729075373025  4.547819399319086 1.415181185140818 1.231656075651154  4.523892782487411 1.265011480807512 1.328277247651675  4.631383970107303 1.289948006144904 1.237893082119096  4.547584012396515 1.383899656570211 1.1810974388836  4.52499134739938 1.229323155845947 1.279266972524062  4.63163353781747 1.255136644861361 1.188505976107678  4.547367224871515 1.35261977043969 1.130552802256114  4.526110645258393 1.193633445632494 1.230269191029828  4.631920802885868 1.220325459835987 1.139135331425684  4.547179725783539 1.321335118643629 1.080026024357529  4.527256836186196 1.157943682643273 1.181279207644883  4.632269781583143 1.185513672245597 1.089786131280614  4.547017457747481 1.29003667535477 1.029529714056477  5.743490794359405 1.150927521775793 1.846512203317038  5.883639684884012 1.16859939043848 1.834519173997916  5.891548708587728 1.110822310197819 1.81021100977658  5.749840268317966 1.09202857103592 1.825293115801425  5.756177318168287 1.033116023239252 1.80403374464408  5.899540180835147 1.053064684972929 1.785838415056634  5.762522859606936 0.974211378222761 1.782747915145824  5.907573048535892 0.9953433129717496 1.761451551475385  5.768873996278875 0.9153087387469154 1.761464726078013  5.915600317581638 0.937636915901226 1.737080366179789  5.775239304169983 0.8563987582069563 1.740208020821724  5.923589592463903 0.8799259920364467 1.71274725865428  5.781633232924776 0.7974690875339097 1.718998943887031  5.931544600021335 0.8221696009455606 1.688462782208694  5.009799864646597 1.415318532507922 1.37583852135269  5.011602369599272 1.376513607457877 1.326889699122215  5.013376009030097 1.337737620363916 1.27792445345651  5.015146345669648 1.29897360089677 1.2289617193855  5.016931712761727 1.260212055685672 1.180005639015293  5.018753666588062 1.221448833730375 1.131059777440227  5.020642304415982 1.182662913791315 1.082126049888209  5.17475973685284 1.262061136331378 1.541045113618986  5.257574274358129 1.357682085655226 1.443759722424068  5.295187253856896 1.245095836295718 1.575879035019611  5.2994123055227 1.193053730337563 1.53959890397133  5.260639071597836 1.313084590248081 1.39941822435555  5.179363841939786 1.21291398613239 1.500703683511309  5.18395671092665 1.163770438972408 1.460370905629114  5.263633032129657 1.268469248065807 1.35505536676576  5.303589449950363 1.141000967673911 1.503321529325372  5.188540300055253 1.114626381554183 1.420040010927942  5.266601790349345 1.223851066833398 1.310678180074824  5.307751528420413 1.088951923255923 1.467043418691633  5.311906092685938 1.036902900962335 1.43077013899701  5.269572388938928 1.179225090164242 1.266293501108932  5.19312471241465 1.065478478546874 1.379712686731196  5.31605694707517 0.9848541344590718 1.394508069479009  5.272572404296976 1.134587032283516 1.221902062966066  5.197715072291259 1.016327773681124 1.339392838840113  5.320236759379336 0.9328072576880548 1.35825830515219  5.275620697174676 1.08993696692
[...]
<PointData  Vectors="f_24"> 
<DataArray  type="Float64"  Name="f_24"  NumberOfComponents="3" format="ascii">1.2277825441822864e-02 -7.5882854259631718e-02 -2.1468403614469906e-02  1.1286859411028586e-02 -7.6112771357385589e-02 -1.9308299455945244e-02  1.1797422067108591e-02 -7.6758881343834268e-02 -1.3592239099014176e-02  1.3403871358222659e-02 -7.5951304367341418e-02 -1.8996111421801819e-02  1.2406801430577518e-02 -7.6068922969186131e-02 -1.7042998606736068e-02  1.2378455019449536e-02 -7.6004188324544281e-02 -1.1495397876451947e-02  1.3014760385272712e-02 -7.5567111454953678e-02 -9.8180053985707730e-03  1.3511016549655664e-02 -7.6078370525674982e-02 -1.5182585306305344e-02  1.4532975190527517e-02 -7.6054165479491481e-02 -1.6954484780686001e-02  1.4634813126372659e-02 -7.6243144432317653e-02 -1.3582473871603988e-02  1.5670038226167034e-02 -7.6329674279116674e-02 -1.5191956058467088e-02  1.3692718526971440e-02 -7.5401001065393644e-02 -8.4025742779189304e-03  1.5766819119899522e-02 -7.6609096390289649e-02 -1.2130466136918575e-02  1.6818036149552025e-02 -7.6821964401805942e-02 -1.3590470434404905e-02  1.4384799250936744e-02 -7.5501015266499313e-02 -7.1464429096608235e-03  1.6908362342126237e-02 -7.7221544441011966e-02 -1.0746258497418970e-02  1.7976994783207381e-02 -7.7573224858045423e-02 -1.2057678694576855e-02  1.5080054130282938e-02 -7.5875551560612889e-02 -5.9942248710985043e-03  1.8052259940222286e-02 -7.8114177785356911e-02 -9.3633361172964537e-03  1.9140299424717691e-02 -7.8630207066798297e-02 -1.0508612171396876e-02  1.5765258211908165e-02 -7.6544503540399655e-02 -4.9139694480473690e-03  9.7290837807615903e-03 -7.5151632513257391e-02 -2.0959186969044169e-02  8.7081833705321843e-03 -7.4581528626820284e-02 -1.9667588708373634e-02  9.2438473843026482e-03 -7.5973291439148688e-02 -1.4769156350200298e-02  1.0241972348087231e-02 -7.5831544271564966e-02 -1.2954177412152903e-02  1.0111516801101362e-02 -7.4795904473848915e-02 -1.8233240465425012e-02  1.1180399181279953e-02 -7.5442108430603241e-02 -1.9233475188795555e-02  1.1481208891218264e-02 -7.4784055634674163e-02 -1.7053407471545646e-02  1.2603202129098240e-02 -7.5584115974591790e-02 -1.7832117131891020e-02  1.1263440321364598e-02 -7.5703662231013630e-02 -1.1559650476718489e-02  1.2837598785311861e-02 -7.4710863414039583e-02 -1.5989352121011630e-02  1.4006562831264618e-02 -7.5715830756732688e-02 -1.6589733791948013e-02  1.2297891092359422e-02 -7.5661431018486755e-02 -1.0372262873623509e-02  1.4194325774531818e-02 -7.4708542390137411e-02 -1.4945264206136654e-02  1.5412885623479351e-02 -7.5950545780492471e-02 -1.5397376586642227e-02  1.3343889670619662e-02 -7.5771383217670005e-02 -9.2841446656710264e-03  1.4398558241954913e-02 -7.6102297077346476e-02 -8.2098108199711670e-03  1.5560112257123405e-02 -7.4872216264461736e-02 -1.3849925788702181e-02  1.6831222816520480e-02 -7.6382048516494119e-02 -1.4185695595756626e-02  1.5454416591263204e-02 -7.6715823310063228e-02 -7.1154637857296201e-03  1.6940762045350347e-02 -7.5292416513006472e-02 -1.2653676284763592e-02  1.8271935431926366e-02 -7.7107311121636837e-02 -1.2898749860342682e-02  8.1597929080127075e-03 -8.6196712198230649e-02 6.2041291223243018e-03  8.3996965376512342e-03 -8.1793625435286746e-02 3.2212112417554233e-04  7.4017948629860903e-03 -8.4079724812521850e-02 4.1272455261148000e-03  7.1951671422262478e-03 -8.2255804082667777e-02 4.3899926336819443e-03  8.3420505631879773e-03 -8.0160930775625916e-02 9.8917645959820805e-04  7.7965993067761041e-03 -8.4192672007640482e-02 5.9695767069684481e-03  7.4670225470227424e-03 -8.2601145363365810e-02 5.6056398683022859e-03  8.3448301016541739e-03 -7.8905810329140361e-02 1.4589778342530650e-03  7.0073793453330853e-03 -8.0847853391611629e-02 4.4243943595953534e-03  7.1684374306094879e-03 -8.1357623918411254e-02 5.1208517879924196e-03  8.3796994643812982e-03 -7.7969488088737285e-02 1.7449446039293076e-03  6.8636427585409502e-03 -7.9770682142026331e-02 4.3051986750251544e-03  6.8966919789160827e-03 -8.0423098599167450e-02 4.5271275235645985e-03  8.4379259047778505e-03 -7.7323904603738808e-02 1.8916634741279732e-03  6.7502336276817881e-03 -7.8982576725156739e-02 4.0640827373946663e-03  8.5050208835540479e-03 -7.6945808417907588e-02 1.9275935067842604e-03  6.6410574884218478e-03 -7.9763893631722399e-02 3.8292320743466921e-03  6.6575483339600923e-03 -7.8460069050276693e-02 3.7245909094767659e-03  8.5700117176949076e-03 -7.6821729404642228e-02 1.8812792744382675e-03  6.3977719164533030e-03 -7.9358961205639941e-02 3.0392648327049912e-03  6.5758288870114302e-03 -7.8187244042986645e-02 3.3086097771569119e-03  6.6457744128893600e-03 -8.1648611428529611e-02 7.7237431011957763e-04  6.2777254161931950e-03 -8.5440452904591763e-02 5.8223143315569176e-03  5.9881458184053282e-03 -8.3617063780093828e-02 6.0449840217305971e-03  6.5825990296142309e-03 -8.0282955605608858e-02 1.6687218118109463e-03  6.5858032789966603e-03 -7.9184443378817360e-02 2.2707517210795816e-03  5.7454468235155062e-03 -8.2149186098799717e-02 5.9817121324965035e-03  6.6458550543470373e-03 -7.8341739660301182e-02 2.6517385914913635e-03  5.5426986940211717e-03 -8.1006853550148625e-02 5.7413328450104540e-03  6.7457530096837410e-03 -7.7743732063236926e-02 2.8901922804959591e-03  5.3822092462851171e-03 -8.0149988460235466e-02 5.3788177957007563e-03  6.8675031239577959e-03 -7.7390781022708272e-02 3.0341131064792570e-03  5.2560987777853360e-03 -7.9556377502963863e-02 4.9292931288641801e-03  7.0009232236728398e-03 -7.7283785970950494e-02 3.1173763398410301e-03  5.1615852650567246e-03 -7.9215333848005914e-02 4.4180946208568980e-03  1.0991405023370896e-02 -7.4428114544361018e-02 -2.4025522625242778e-02  1.2704453174251352e-02 -7.4427041413047207e-02 -2.3052544331864905e-02  1.4390107765343978e-02 -7.4300494950710463e-02 -2.2109591789379997e-02  1.6072648123282383e-02 -7.4208022166225032e-02 -2.1106565226689928e-02  1.7769428956206833e-02 -7.4284332700953942e-02 -1.9982761984413702e-02  1.9495743997403139e-02 -7.4661103731488931e-02 -1.8724329935629551e-02  1.3201502252975119e-02 -7.6530204995714710e-02 -3.7678897173343197e-02  1.2447660683391388e-02 -7.7045100218606513e-02 -4.2947115669926317e-02  1.1977412735059074e-02 -7.6045599177780088e-02 -3.5326519812048214e-02  1.4080581967327244e-02 -7.7134212627091858e-02 -3.3362338647624452e-02  1.4880616789343408e-02 -7.8229216412240163e-02 -4.1502576587711067e-02  1.5303576443516974e-02 -7.7801191957908369e-02 -3.5395576145135443e-02  1.7180973090225454e-02 -7.9022148487934055e-02 -4.0163594441585043e-02  1.7294252635899395e-02 -7.8803319952553463e-02 -3.3452763978219648e-02  1.6080483490639265e-02 -7.7912928773228432e-02 -3.1688337885971522e-02  1.9421076521264180e-02 -7.9629944153317464e-02 -3.8802402717671811e-02  1.9243290285998870e-02 -7.9741672053739027e-02 -3.1650806460620948e-02  1.8032081717833263e-02 -7.8582283383834009e-02 -3.0135683039278695e-02  2.1651795692905065e-02 -8.0235454348597718e-02 -3.7331149714686908e-02  2.1191294777891400e-02 -8.0758053712442046e-02 -2.9866568024922911e-02  1.9976433550232580e-02 -7.9304030017322780e-02 -2.8586722077111087e-02  2.3922186228714861e-02 -8.1002636387036600e-02 -3.5678523691574655e-02  2.3171459359774143e-02 -8.1977456387664460e-02 -2.8009495685819005e-02  2.1948321806752484e-02 -8.0205650390035813e-02 -2.6954760252975603e-02  2.6274155517657393e-02 -8.2073881084005498e-02 -3.3808539161411910e-02  2.5204835220343447e-02 -8.3518324058200352e-02 -2.6023757749324441e-02  2.3974822352908744e-02 -8.1387697919857255e-02 -2.5150994739751836e-02  1.0785197085800792e-02 -7.5564687994679400e-02 -2.2937434201831492e-02  1.0052562479010430e-02 -7.4783116031756844e-02 -2.6941660233559723e-02  1.1877148035873891e-02 -7.5400388251239778e-02 -2.5519195881593810e-02  1.2297393652425938e-02 -7.5913496081738974e-02 -2.0965112850978102e-02  1.3636055770397733e-02 -7.5683455004897038e-02 -2.4266273868524580e-02  1.3765252745394085e-02 -7.6206990901624833e-02 -1.9351195301895795e-02  1.5364700071410211e-02 -7.5864235070706124e-02 -2.3113651994066745e-02  1.5225012924303619e-02 -7.6526162034789472e-02 -1.7920557046641826e-02  1.7092932613653525e-02 -7.6100792768589665e-02 -2.1949181978005227e-02  1.6690025205296811e-02 -7.6973312911077021e-02 -1.6554321740601993e-02  1.8841523753269689e-02 -7.6521915531509735e-02 -2.0695485345744606e-02  1.8177208863231053e-02 -7.7640336521804021e-02 -1.5178404608642022e-02  2.0628265263277989e-02 -7.7234027219981211e-02 -1.9285520340909610e-02  1.9698271000386826e-02 -7.8624355805720511e-02 -1.3758085383152869e-02  1.5228374625932120e-02 -7.6523745100545770e-02 -4.1762811295343871e-02  1.4547790572372628e-02 -7.8391383533657669e-02 -5.0703764007355767e-02  1.4318930733304447e-02 -7.6809989831197273e-02 -4.1562720845880467e-02  1.6423630720876915e-02 -7.8360210040864409e-02 -3.8927784409492551e-02  1.7021878596165951e-02 -8.0249384635550466e-02 -4.8562481598734691e-02  1.7249431062143682e-02 -7.8150912090491687e-02 -3.8794440547330319e-02  1.8437361125277871e-02 -7.9636040013046930e-02 -3.6689494947501206e-02  1.9363422495039345e-02 -8.1704392167386189e-02 -4.6598576419115294e-02  1.9174175110964795e-02 -7.9527771074103262e-02 -3.6316307253340833e-02  2.0414918002742498e-02 -8.0841999505444281e-02 -3.4642777093798385e-02  2.1640166274163083e-02 -8.2978814283300381e-02 -4.4690919826195996e-02  2.1074346064854057e-02 -8.0888462742712580e-02 -3.4081417850676192e-02  2.2392551450950100e-02 -8.2136368495482212e-02 -3.2636588483406052e-02  2.3908174044696549e-02 -8.4260256147006565e-02 -4.2726745870670761e-02  2.2980360248142588e-02 -8.2373307200628632e-02 -3.1916659117899635e-02  2.4399711172339595e-02 -8.3653494825542921e-02 -3.0558439989337327e-02  2.6211814542971220e-02 -8.5710927236657047e-02 -4.0607293793678403e-02  2.4919299207744244e-02 -8.4108841520206881e-02 -2.9702049605392047e-02  2.6457527007155313e-02 -8.5516320205228133e-02 -2.8319387759927955e-02  2.8585289614545161e-02 -8.7474255587223687e-02 -3.8237956643941251e-02  7.0721714477780589e-03 -8.8707458295299690e-02 9.1378808764176010e-03  6.0425740970511633e-03 -8.9193296068329209e-02 9.6766679719048274e-03  5.5850708878385615e-03 -8.7040769364815210e-02 9.1903435237731448e-03  6.5965969899692200e-03 -8.6628508193446169e-02 8.5450989949467735e-03  6.1738885868391387e-03 -8.4983197240134228e-02 7.8588770954376823e-03  5.1512019046634581e-03 -8.5408880997257589e-02 8.5000369678799922e-03  5.7859163676103817e-03 -8.3697051361435432e-02 7.0690815558293128e-03  4.7737555701327641e-03 -8.4118831622380111e-02 7.6937037094040100e-03  5.4279299196505421e-03 -8.2708890623962680e-02 6.1715204467424458e-03  4.4361479001783031e-03 -8.3118767563499188e-02 6.7889058139673636e-03  5.0902243054975491e-03 -8.1985080533056101e-02 5.1701009468375705e-03  4.1287624244086100e-03 -8.2381163598788637e-02 5.7963603158741111e-03  4.7640794517192463e-03 -8.1504794234353681e-02 4.0632257842619758e-03  3.8424659192528065e-03 -8.1890981926627027e-02 4.7255037035768945e-03  1.1878882334717272e-02 -7.5840900220508933e-02 -2.7751199040805915e-02  1.3560289672518539e-02 -7.6434340171596546e-02 -2.5491664309730776e-02  1.5192184754643298e-02 -7.6975848349166903e-02 -2.3625381822142560e-02  1.6799988814037419e-02 -7.7527798035692236e-02 -2.1947416333501640e-02  1.8405302710301798e-02 -7.8205184748969994e-02 -2.0334562893165310e-02  2.0026706094220338e-02 -7.9107954916869505e-02 -1.8711558827658001e-02  2.1677797904258521e-02 -8.0337571509699696e-02 -1.7065855352150112e-02  1.0814042113410600e-02 -7.7041716502268015e-02 -1.2556127368466589e-02  1.0258084421155984e-02 -7.6255699521076928e-02 -1.6224650715326062e-02  1.0008594320675700e-02 -7.8188740036093413e-02 -8.0354918527322343e-03  1.0417856326966513e-02 -7.7127301511441926e-02 -6.4585592838219078e-03  1.1276387670178668e-02 -7.6049003718327457e-02 -1.4201971423380297e-02  1.1522555464878896e-02 -7.6355370035637429e-02 -1.0584048108733776e-02  1.2210990075838535e-02 -7.5899633461078225e-02 -9.0582897298807728e-03  1.2295710916630504e-02 -7.5938530551590694e-02 -1.2564876324637495e-02  1.0862546826999565e-02 -7.6389732395044388e-02 -5.2075417342726639e-03  1.2925634408253008e-02 -7.5694497481174530e-02 -7.7666322859800980e-03  1.3322621950628815e-02 -7.5963344028879443e-02 -1.1169142306629340e-02  1.1333377489526416e-02 -7.5921226697031968e-02 -4.1851108575856246e-03  1.1824865733886187e-02 -7.5711258921107749e-02 -3.3218921272590044e-03  1.4365358104081110e-02 -7.6174666902043664e-02 -9.9083477702982016e-03  1.3660051095091988e-02 -7.5740525498107586e-02 -6.6260029538166842e-03  1.2323615246311316e-02 -7.5762492558804809e-02 -2.5676135691264619e-03  1.5407088064403874e-02 -7.6615681424057530e-02 -8.7054757528599296e-03  1.4405355663098054e-02 -7.6050190177469473e-02 -5.5738780691516479e-03  1.2822246271310492e-02 -7.6095893638745596e-02 -1.8874135440407184e-03  1.6446154412173598e-02 -7.7323442960912495e-02 -7.5144263473105885e-03  1.5166130934917785e-02 -7.6650212196741396e-02 -4.5611812141448122e-03  1.1251113473789653e-02 -7.5895323550021002e-02 -3.7391113290363348e-02  1.0504160153975248e-02 -7.5057967402838488e-02 -3.2001425564862324e-02  1.0974818909980241e-02 -7.5362116300015006e-02 -3.0259214051910857e-02  1.2935967789937251e-02 -7.6231141915858419e-02 -2.8562003525499542e-02  1.2605473771146564e-02 -7.5706090311126073e-02 -3.0764564654743851e-02  1.3589219917771948e-02 -7.6722594907490213e-02 -3.6206670282712940e-02  1.4805302321198966e-02 -7.6750399395814087e-02 -2.7084782745857190e-02  1.4618079562392614e-02 -7.5998835498533313e-02 -2.9657909036633141e-02  1.5789909057270467e-02 -7.7165506344197429e-02 -3.5092237734671732e-02  1.6635786757060695e-02 -7.7180030772308339e-02 -2.5733245317099331e-02  1.6582225145993158e-02 -7.6146194445059337e-02 -2.8558708683748629e-02  1.7933982714737652e-02 -7.7435265172933379e-02 -3.3948740434137377e-02  1.8462562488322700e-02 -7.7674336441567043e-02 -2.4388322062387342e-02  1.8541479559040067e-02 -7.6312215979575077e-02 -2.7377215715665495e-02  2.0070045458450807e-02 -7.7705814017192079e-02 -3.2690896590958085e-02  2.0313029535035085e-02 -7.8360763971934339e-02 -2.2968090224037330e-02  2.0532059934580436e-02 -7.6643492935667454e-02 -2.6046270693936033e-02  2.2240630764152711e-02 -7.8132049410040913e-02 -3.1255259727693073e-02  2.2208930458980532e-02 -7.9341904758342380e-02 -2.1406255120060332e-02  2.2588186517692219e-02 -7.7285566150975218e-02 -2.4554209294826192e-02  2.4477880036555412e-02 -7.8868951325673869e-02 -2.9615059382954303e-02  7.5929060398934375e-03 -7.6935973805319566e-02 -9.1751682494623735e-03  6.2460915691363566e-03 -7.7444166264869219e-02 -6.9653444865437697e-03  7.0924992931024142e-03 -7.8896967609720273e-02 -4.1176009585393580e-03  7.3140301925953034e-03 -7.7984310713719557e-02 -2.7423722366648699e-03  6.6727126103978867e-03 -7.6994540439041276e-02 -5.5719593489428143e-03  8.1872664657636329e-03 -7.6514315876681768e-02 -7.6010120700564631e-03  7.6327952376709978e-03 -7.7269152263558405e-02 -1.7549290942342837e-03  7.1579234904854162e-03 -7.6487101707665692e-02 -4.5017530589250019e-03  8.8368728549389382e-03 -7.6102201672008360e-02 -6.3927467140638241e-03  7.9967410706733907e-03 -7.6727664864358266e-02 -9.9354721802723321e-04  7.6824838137805459e-03 -7.6043636908721485e-02 -3.6276532768725572e-03  9.5182837780257747e-03 -7.5783329246764258e-02 -5.3915169214862673e-03  8.3866191542190920e-03 -7.6385033407225189e-02 -3.5979916485523613e-04  8.2304928041184843e-03 -7.5736226314666241e-02 -2.8521210309535808e-03  1.0218229546460525e-02 -7.5620381824880664e-02 -4.5025758261414079e-03  8.7901097267783172e-03 -7.6270094051180251e-02 2.0920489582676953e-04  8.7900453831655893e-03 -7.5623923732951556e-02 -2.1007256057597864e-03  1.0926256125613097e-02 -7.5664709031362340e-02 -3.6561034588651442e-03  9.2028541553592792e-03 -7.6418758149879432e-02 7.5578804089480064e-04  9.3509307771592661e-03 -7.5746447583586549e-02 -1.3133595675870681e-03  1.1627548914797201e-02 -7.5949357490064012e-02 -2.8000809401175241e-03  1.3484429628925081e-02 -7.7704261029932664e-02 -4.6444856694963357e-02  1.5939447491767487e-02 -7.9268934557626791e-02 -4.4672085927107794e-02  1.8260450415252580e-02 -8.0428977712667923e-02 -4.3039872604782273e-02  2.0515491705798375e-02 -8.1404101337287565e-02 -4.1436992787292196e-02  2.2762838095438297e-02 -8.2383518789397078e-02 -3.9755229763496283e-02  2.5051181406250601e-02 -8.3525992828918094e-02 -3.7909891440702184e-02  2.7430287143145306e-02 -8.4972402513161197e-02 -3.5830395160927411e-02  7.4389805470631626e-03 -7.4265935375961087e-02 -1.6601122390271134e-02  8.2849949535032108e-03 -7.5629390493741885e-02 -1.4035662413534820e-02  9.2557319558928680e-03 -7.5503534859441557e-02 -1.2411362355412878e-02  8.6154572441978564e-03 -7.4239627246150713e-02 -1.5437551137685235e-02  1.0247776151697875e-02 -7.5333844662194421e-02 -1.1153248175597976e-02  9.7942205178454429e-03 -7.3964083884565615e-02 -1.4466346710409854e-02  1.1256483102182639e-02 -7.5189950758384555e-02 -1.0066628030467761e-02  1.0971808376712411e-02 -7.3611255092371694e-02 -1.3575841999442440e-02  1.2272618719958651e-02 -7.5164130219080513e-02 -9.0468726239875830e-03  1.2148050770887280e-02 -7.3304086700649779e-02 -1.2678912383970065e-02  1.3291712898175975e-02 -7.5334480650291843e-02 -8.0255370125710095e-03  1.3322304591523599e-02 -7.3151537680485074e-02 -1.1707019130117513e-02  1.4308331285027284e-02 -7.5780107764938862e-02 -6.9538802002918065e-03  1.4493720800575696e-02 -7.3250614039832518e-02 -1.0605514581777158e-02  6.7975046436411623e-03 -7.5735806650241294e-02 -1.1374866212551557e-02  7.5657147703146353e-03 -7.5524234544436242e-02 -1.0044783900002938e-02  8.3681833772903860e-03 -7.5202425047103102e-02 -8.9712828748903985e-03  9.1896545903157635e-03 -7.4868665982631491e-02 -8.0334368153539646e-03  1.0018967502708840e-02 -7.4621419915337481e-02 -7.1456545447858028e-03  1.0847346408298738e-02 -7.4545704437860447e-02 -6.2425718579782932e-03  1.1669351454024361e-02 -7.4721798084056143e-02 -5.2804043890479239e-03  7.5388449012183398e-03 -8.1200974744970358e-02 -1.2835035281636562e-04  7.5247253792479997e-03 -7.9787238524548457e-02 7.5867641650943806e-04  7.5868098122761976e-03 -7.8672874941154936e-02 1.3717577207832570e-03  7.6881094611958569e-03 -7.7841078801365718e-02 1.7797889722496645e-03  7.8181546709257081e-03 -7.7274464301300846e-02 2.0429469464095665e-03  7.9673880725112094e-03 -7.6961718570670523e-02 2.2086351258497560e-03  8.1267123303215994e-03 -7.6896142580661367e-02 2.3118830651209211e-03  9.0474424856744999e-03 -8.3355783447958756e-02 2.5380039065017487e-03  8.7785079850119952e-03 -8.1450685203201714e-02 2.8051513327525908e-03  8.5874024649304180e-03 -8.0036826766046953e-02 2.8699939589319321e-03  8.4297584833906859e-03 -7.8961703226378771e-02 2.7938335572101022e-03  8.2960670064425816e-03 -7.8188517857099085e-02 2.5969090678021577e-03  8.1777500475010093e-03 -7.7692399804890844e-02 2.2910720946594633e-03  8.0683910246518789e-03 -7.7449229630677754e-02 1.8888458494651047e-03  8.0468787152381451e-03 -7.9055210573568471e-02 -4.2510329977788336e-03  8.2859327279273774e-03 -7.7957960337999579e-02 -2.9361970685852904e-03  8.6183584373519164e-03 -7.7162398737075838e-02 -1.9795219639451595e-03  8.9879238527846104e-03 -7.6596040907497151e-02 -1.2420747911337758e-03  9.3803626154361497e-03 -7.6261667859446922e-02 -6.3935941475774111e-04  9.7835590900353982e-03 -7.6171153039939779e-02 -1.1831181684910146e-04  1.0187567458541420e-02 -7.6343578845919857e-02 3.5337017533648317e-04  1.5594429584952819e-02 -7.8329921539858724e-02 -5.1475061339710637e-02  1.7990227326259704e-02 -8.0437613159645066e-02 -4.8906618419996481e-02  2.0277294493763268e-02 -8.2145336926691834e-02 -4.6655567070906047e-02  2.2507295813231895e-02 -8.3696980627822604e-02 -4.4529924415979021e-02  2.4736157083960781e-02 -8.5289263501884149e-02 -4.2380612809663674e-02  2.7005327880310664e-02 -8.7088440982490273e-02 -4.0092363504504486e-02  2.20229237634