<?xml version="1.0"?>
<VTKFile type="UnstructuredGrid"  version="0.1"  >
<UnstructuredGrid>
<Piece  NumberOfPoints="702" NumberOfCells="2900">
<Points>
<DataArray  type="Float64"  NumberOfComponents="3"  format="ascii">5.300223625372677 1.650658735119875 3.672006282837094  5.364755732466444 1.584659857804327 3.549595309492608  5.440192825504646 1.644022026444966 3.639495333220757  5.445451760921396 1.586674469295638 3.673544751231765  5.369710649250088 1.528487488675564 3.581663195552252  5.305418388069705 1.592930139815659 3.706917393400191  5.374604817103725 1.472332571264312 3.613728437340523  5.31056380028965 1.535229905110487 3.741827496888904  5.450652839373535 1.529349530505238 3.707598764190328  5.379472881453724 1.416194347546097 3.645777052811621  5.315686614101891 1.477554030924115 3.776719382342949  5.45582932618354 1.472039276066012 3.741638322700835  5.384343157666537 1.360065616245267 3.677792398540987  5.320812937435169 1.41989352712022 3.811572941562112  5.461009037994641 1.414737016924576 3.775642553567359  5.38924401022734 1.303938815258117 3.709752630509211  5.325966714753425 1.362240108111797 3.846364148286765  5.466219441218535 1.357433915626796 3.809588061840524  5.394210173245375 1.247806078971265 3.741632039063349  5.331172917161544 1.304590556312005 3.881063418296856  5.47148865471561 1.300121999459064 3.843445942636694  5.355087835250101 1.485707127186717 3.371309182754758  5.405190149822639 1.420765017535311 3.246170556434023  5.508055343992956 1.475432542368829 3.328056431514578  5.512746510016086 1.422429312912982 3.357652809612957  5.409433040592582 1.368508151225227 3.275300972755077  5.359710067103734 1.431852201806816 3.400773592089601  5.364263871206574 1.378003842111564 3.430233905497482  5.413595493457856 1.316257990627231 3.304427805973766  5.517368291925361 1.369429418293356 3.387254479255842  5.368786773716559 1.324167798135344 3.459678855678164  5.417720790643353 1.264014734309139 3.333541780897936  5.521958220687521 1.316431015083032 3.41684818357909  5.373308908836392 1.270338572511933 3.489097008603978  5.421842589968976 1.21177497669125 3.362633859089506  5.526546827925221 1.263429907509508 3.446420016289366  5.377860574220583 1.216510707990865 3.518472003932076  5.425996273461631 1.159532532119985 3.391691370087039  5.531166247863347 1.210417790657968 3.475953740017865  5.382481312056941 1.16267495335455 3.547782666559625  5.43022976412536 1.107276311108367 3.420697561160245  5.535858199546478 1.157381631006962 3.505425379696942  5.850934205781427 1.830563402008153 3.859895905156828  5.922438930936508 1.760150431412518 3.745641604850208  5.997656242676632 1.823932438374408 3.81991614114697  6.005414436611709 1.766878528104446 3.861406524194102  5.929239550472599 1.702700464418627 3.783705632057777  5.857753670253683 1.773321062114039 3.90355312422402  5.864534899645213 1.716104653363088 3.947225759893162  5.936002923682023 1.645264412840108 3.821781757549447  6.013147918614445 1.709839928361012 3.902907213378675  5.871298066378701 1.658901127913013 3.99088200467255  5.942748548093582 1.587833164196755 3.859845139154141  6.020865175797112 1.652804469127748 3.94439807551985  5.878064454146332 1.601697128397211 4.034498995292652  5.949496815846076 1.530397554681618 3.897874038445355  6.028584578108152 1.595761822616687 3.985857443502706  5.88485078876374 1.544481546744635 4.078055817762854  5.465322806991656 1.537099652105958 3.44676886193156  5.470340267864888 1.482227101614623 3.476990320271536  5.475293766051038 1.427368828831248 3.507214482672278  5.480219291643729 1.37251751746581 3.537427464104772  5.485145663012442 1.31766850115116 3.567613324593659  5.490102047624378 1.262814365573916 3.597751469432748  5.49512322591737 1.207945300830779 3.627813033575908  4.890454931991977 1.727152920525324 3.843600997669601  5.00656964441204 1.660452823540904 3.738040712456943  5.029354911273415 1.733842127572862 3.833789080004188  5.033668994578558 1.6766095418555 3.876658598748755  5.012539360195545 1.603102140474893 3.776353921610155  4.896159088369723 1.670925248938919 3.887694789135004  5.037944000250499 1.619439686983697 3.919533521265038  5.018493467067957 1.545797314361389 3.814666451996764  4.901845198372588 1.614771771320621 3.931799081664803  5.042203196001859 1.562317238516951 3.962386917837504  5.02444196312905 1.488536237284486 3.852957681679507  4.90752698256267 1.558675117061034 3.97588541546644  5.046470797459179 1.505218140613386 4.005190910779469  5.030400316151702 1.431302639602645 3.891202537459493  4.913224414842045 1.502605403757086 4.019921146471169  5.050766985778258 1.448119800340658 4.047917464073166  5.036379955714995 1.374080448640901 3.929372293368328  4.918954706481157 1.446535269077627 4.063875638800713  5.055126347735795 1.391004439608685 4.090540226534126  5.025269783148383 2.018181562813294 4.101066029987957  5.129120303709351 1.942718188171436 4.049563143234959  5.143964545560063 2.050882410103614 4.116981640289866  5.146007035598737 2.009783426014931 4.184803561880142  5.133726722136864 1.895198134822849 4.110641628804251  5.026699774028031 1.978304841195126 4.169017805233506  5.147971246664474 1.968780193454814 4.252566021611023  5.138284961680736 1.847763694259194 4.171695272193745  5.028054679845932 1.938526496151268 4.23690593125313  5.149894789575243 1.927834493896013 4.320272325689315  5.142830502232703 1.800386075735664 4.232707081353668  5.065975321512891 1.591315603734877 3.610966035385178  5.218538557711218 1.588984141150645 3.57896262712685  5.165576810123993 1.650373632199578 3.693491026331897  5.171586952709359 1.592623297145181 3.729243662524123  5.223971044798528 1.532395548572204 3.611568316083769  5.071815311959484 1.53417768170844 3.643963760770661  5.177570573616375 1.534915686073705 3.764990437697946  5.22936194783331 1.475833405742791 3.644163075411825  5.077632299422318 1.477075893475673 3.676949665110664  5.183541542066879 1.477242473530715 3.80071770763728  5.234733425539536 1.419296393294538 3.67673847970865  5.083440477350132 1.420008310338157 3.709915841947556  5.189518748023061 1.41959051552675 3.83640464601539  5.240108453675859 1.362775589559801 3.709279076358015  5.089255088341233 1.362965214483304 3.742843483368874  5.195518828705511 1.361948136387371 3.872026360315653  5.24550887502394 1.306261369266637 3.74176352559665  5.095090500652608 1.305936583103052 3.775708942362806  5.201547684358033 1.304302801290973 3.907555190461821  5.250949975220712 1.249744146526417 3.774168846333314  5.100952673556055 1.248912003818089 3.808490079356717  5.268015678673868 1.719337999081711 3.78433188633656  5.27364330306807 1.661233749899217 3.823860857866886  5.279230575738935 1.603175948623779 3.863399882110533  5.284798935415149 1.545153367027672 3.902917868574511  5.290373396542937 1.487149059819746 3.942390762270037  5.29597697710142 1.429146984584589 3.98179253512235  5.301625142871842 1.371130266867086 4.021096954709732  5.911264619625777 1.63837892031015 3.543684812397462  5.983300653581351 1.692402283677381 3.623182767583568  5.856713772891597 1.699710142233925 3.661736939681577  5.86323775677725 1.642499682213391 3.696480665688939  5.990153154032142 1.635530629585839 3.656497232472032  5.917936560560829 1.582567935935387 3.575416717479589  5.996986698824449 1.578666438393482 3.689825472167661  5.924592585441991 1.526762367368055 3.607165531151922  5.869731278809373 1.585303919038129 3.73123803071706  5.931241271020902 1.470954551097829 3.63890788076477  6.003811788755673 1.521802524562019 3.723143520091701  5.876209761937 1.528111459257463 3.765984779509691  5.937892715026884 1.415137385579548 3.670623239051646  6.010639581035568 1.464929886455801 3.756431825578156  5.882690540555694 1.47091451093403 3.800699025128769  5.944556142959676 1.35930045342412 3.702289350736456  6.017479307629721 1.408040500438918 3.789667688921116  5.889188432165757 1.413703664372038 3.835357619776556  5.951234354612554 1.303427227077732 3.733875675926461  6.024336041576375 1.351121731847044 3.822823730873215  5.895710700766963 1.356468300236001 3.869930809985384  4.951137223736501 1.413213691656635 3.309694857597818  5.114997624689015 1.431802644619917 3.311028917241689  5.046983134958904 1.480922584641407 3.414933475978348  5.052590622471064 1.426374899755295 3.444554328879758  5.12036220610813 1.37862574959121 3.34007061132032  4.957484397934048 1.360541268127761 3.33871596497801  5.12569042062257 1.325472132734232 3.369091602357793  4.963836952975464 1.307904426498998 3.367714389911832  5.05817040856876 1.371872444602006 3.474144574851221  4.970195342003954 1.255294958461564 3.396693994740725  5.131001653450478 1.272349446414479 3.398088757237752  5.063741569598657 1.317394682156173 3.503715928788561  4.97655948506583 1.202708324970382 3.425644357989076  5.136315267237831 1.21924204911407 3.427057480249516  5.069316955572849 1.26294038013057 3.533253364219039  4.982928983086964 1.150137321768928 3.45455104456092  5.141648995262786 1.166150744984868 3.455982306795942  5.074911892024663 1.208504650055699 3.562740058158686  4.989308007906992 1.097585666112875 3.483394612291761  5.147026467249648 1.113073807140942 3.484847475135657  5.080549182919746 1.154087450103452 3.592159012091596  5.415936615576159 1.76747794212196 3.829543721562169  5.510208810922753 1.739902615020119 3.779281059957719  5.560151690682121 1.809206832163931 3.8703627861144  5.565150083686828 1.752242432296306 3.915481350988537  5.515535370496262 1.68246631045352 3.819542114603097  5.421717557571541 1.710114740690478 3.872126754899024  5.427449883813793 1.652794572689832 3.914712921341735  5.520802627213631 1.625064780939137 3.859809422573865  5.570082138122606 1.695318061570845 3.96060323294279  5.43316018505447 1.595501044516257 3.957278575926355  5.526045077589841 1.567679606977529 3.900059660168856  5.574988308985768 1.638416872663678 4.005700277693413  5.438876188938131 1.538218222479157 3.999800137837683  5.531291642647473 1.510300790675166 3.940269603192791 
[...]
<PointData  Vectors="f_24"> 
<DataArray  type="Float64"  Name="f_24"  NumberOfComponents="3" format="ascii">1.2534401505066749e-02 -8.0655806233179167e-02 1.6778740214494166e-02  1.3071805529768108e-02 -9.5670417608786057e-02 2.3906695274446145e-02  1.2306002567381954e-02 -8.7395704169784608e-02 1.9543910038379412e-02  1.0845864381415150e-02 -8.4012562200977081e-02 2.3522863925057681e-02  1.1571399007245227e-02 -9.2561550574583124e-02 2.7772575526667190e-02  1.0922404383727949e-02 -7.7255582429338360e-02 2.0591736433892321e-02  1.0301506760041152e-02 -9.0575737730863276e-02 3.0022119833058584e-02  9.5523306526907187e-03 -7.5195898745130274e-02 2.2896223443143161e-02  9.6325702556932426e-03 -8.1918886744575758e-02 2.5898644821698503e-02  9.0563102868447907e-03 -8.8759522919083747e-02 3.1921143195895937e-02  8.1872239108755664e-03 -7.3153342260496884e-02 2.5167048650445226e-02  8.4126894356816601e-03 -7.9903509958758320e-02 2.8111917274950705e-02  7.6771261697788215e-03 -8.6186968745655443e-02 3.4736839394444760e-02  6.6612052458535362e-03 -7.0169506859828909e-02 2.8577730410406212e-02  7.0454114196689217e-03 -7.6999306602777567e-02 3.1400925758415764e-02  6.0741265736797912e-03 -8.2396927432273045e-02 3.8820274511713437e-02  4.9367357888133465e-03 -6.6170775594697293e-02 3.3181107265334457e-02  5.4538691369758882e-03 -7.2989347612817362e-02 3.5916276147250695e-02  4.3856004198321889e-03 -7.8095507882917595e-02 4.3270190580514213e-02  3.1419853203658930e-03 -6.1831940253609302e-02 3.8279171381095996e-02  3.7909541889816810e-03 -6.8584816649376421e-02 4.0878739624812761e-02  1.4034379304393245e-02 -1.1075591972325848e-01 3.1813026790039001e-02  1.4123236781669263e-02 -1.1773869544797433e-01 3.6481298325442862e-02  1.3783544653634088e-02 -1.1615221784253929e-01 3.4542975160510636e-02  1.2510882996383062e-02 -1.1437050173668803e-01 3.7165497877136008e-02  1.2850859710871493e-02 -1.1667623434194321e-01 3.8269019901121269e-02  1.2590742850226466e-02 -1.0867441068770509e-01 3.4835422908189327e-02  1.1314449945844574e-02 -1.0704131578816936e-01 3.6679895805847768e-02  1.1644819518313929e-02 -1.1547867712274866e-01 3.9416542527942827e-02  1.1389711071348911e-02 -1.1283390205509268e-01 3.8804080016424734e-02  1.0117866714845370e-02 -1.0561870940180863e-01 3.7980366796159674e-02  1.0562697803702161e-02 -1.1427461695453811e-01 4.0246886090463313e-02  1.0356396196040113e-02 -1.1142154532297750e-01 3.9949614190461696e-02  8.8938763072552041e-03 -1.0377940382760650e-01 3.9726880874487704e-02  9.4909085320017093e-03 -1.1286761051234559e-01 4.1225588636055910e-02  9.3515173585903850e-03 -1.0969811478962538e-01 4.1378962035015690e-02  7.4610805640023077e-03 -1.0075975619888394e-01 4.2320857934828614e-02  8.2649092192754337e-03 -1.1058100012316792e-01 4.2412352840329980e-02  8.1134092938331664e-03 -1.0690439099406965e-01 4.3473984555219704e-02  5.9353197310818276e-03 -9.7047040322658151e-02 4.5011135916213967e-02  6.9659635540302812e-03 -1.0760361278263245e-01 4.3455633241840562e-02  6.8031451451391507e-03 -1.0341517802969374e-01 4.5548331512685648e-02  8.6677054622893660e-03 -6.7274556454446341e-02 6.9425235340237644e-03  9.5986566849236878e-03 -8.2696670938514988e-02 1.5239441935246541e-02  8.4707159162474566e-03 -7.4449343305535112e-02 1.0053870382078892e-02  7.6964633609508237e-03 -7.0436088093070476e-02 1.3849184886257752e-02  8.7034044328501252e-03 -7.8941042090709443e-02 1.9207642786231965e-02  7.8443488941660165e-03 -6.3561176927069307e-02 1.0495581295993872e-02  7.1466460915726527e-03 -6.1060612299850138e-02 1.3037585850188748e-02  8.0457682841715110e-03 -7.6459503790192257e-02 2.1790097894258301e-02  7.1635483897828098e-03 -6.7775933425441581e-02 1.6400455653226065e-02  6.3097815724990408e-03 -5.8272927805067161e-02 1.5874862559153401e-02  7.3021878392080311e-03 -7.3944779329508506e-02 2.4402936330440054e-02  6.5260411225687215e-03 -6.5033329307582544e-02 1.9108316010690168e-02  5.3167853992462056e-03 -5.4508034839821459e-02 1.9783889889172655e-02  6.3857159087077229e-03 -7.0468348295199781e-02 2.8143549876691248e-02  5.7262838138145058e-03 -6.1372084942370633e-02 2.2862843579724852e-02  4.1962620626821712e-03 -5.0149927025183720e-02 2.4469493599956496e-02  1.3391375878557935e-02 -1.0732581244883174e-01 2.9416646444605770e-02  1.1990444148524241e-02 -1.0471286906757539e-01 3.2965628192643488e-02  1.0842742604370801e-02 -1.0287326962301521e-01 3.5074897539828585e-02  9.7433778006920570e-03 -1.0126293967678998e-01 3.6664735441419058e-02  8.5758619349958036e-03 -9.9114409115596949e-02 3.8892617736956001e-02  7.1729447751733419e-03 -9.5731779908275444e-02 4.2160316353922950e-02  5.6782476215889071e-03 -9.1709006257513409e-02 4.5669824336134396e-02  1.1761662585153744e-02 -5.0114034449104151e-02 1.6357365386986710e-03  1.2172245549735942e-02 -6.5856412330237549e-02 1.0270697989122097e-02  1.1604853400708532e-02 -5.4922057462731683e-02 3.7457680416206544e-03  1.0078462711266398e-02 -5.1290211095624476e-02 6.8774892399268454e-03  1.0497829236133975e-02 -6.2453615599564520e-02 1.3736651929042455e-02  1.0097788602753980e-02 -4.6661411985337659e-02 4.6406644787961521e-03  8.7200374252755924e-03 -4.9008580579654140e-02 8.9883871095746883e-03  9.0829162901927239e-03 -6.0353491717582378e-02 1.5945269861877963e-02  8.7620609728548179e-03 -4.4440905883707547e-02 6.6856714299282681e-03  7.2361758969740862e-03 -4.6501434253743000e-02 1.1480809467229175e-02  7.5530611993169646e-03 -5.8101818266914580e-02 1.8355105110967301e-02  7.2459728795932748e-03 -4.1930051738964143e-02 9.1727868991185249e-03  5.5531546082762890e-03 -4.3115670791464410e-02 1.5053333943120801e-02  5.8246809278460869e-03 -5.4867187545562107e-02 2.1971795136375406e-02  5.5446872620021851e-03 -3.8577612789221789e-02 1.2691617951630518e-02  3.7486667780672273e-03 -3.9180333252286863e-02 1.9491274536966689e-02  3.9457157313282330e-03 -5.0887619316854697e-02 2.6554892751145667e-02  3.7203943881234467e-03 -3.4750758879060852e-02 1.7014021158356655e-02  1.8318965171767814e-03 -3.5133980331579544e-02 2.4478104402445314e-02  1.2234048625941903e-02 -2.3907886351044676e-02 -1.8097076515840017e-02  1.1163134711276763e-02 -3.1395157770987767e-02 -1.2779517377661621e-02  1.2096190106577118e-02 -2.5097423406464328e-02 -1.8404562162459646e-02  1.1084680597396052e-02 -2.2303406090584406e-02 -1.7757188668573381e-02  1.0133762611815401e-02 -2.8516921109786434e-02 -1.1220626337481708e-02  1.1296334696835482e-02 -2.1170742056857747e-02 -1.7484356043881349e-02  1.0138145610799999e-02 -2.0210744472889824e-02 -1.6858303653112874e-02  9.0176253676881625e-03 -2.6232803894903303e-02 -9.6779517123469355e-03  1.0338083770001673e-02 -1.9046722106570182e-02 -1.6629712972335817e-02  9.0765071563223311e-03 -1.7802859489333155e-02 -1.5415435578190898e-02  7.7759841350058447e-03 -2.3481680175988513e-02 -7.6303227620529062e-03  1.3270246810651075e-02 -8.2372409530723043e-02 1.8123597434049496e-02  1.3312354396545595e-02 -8.9448588928485812e-02 2.1177700641995506e-02  1.2463797343725332e-02 -7.5180208445848565e-02 1.4410018282459894e-02  1.0827889179716249e-02 -7.1739657870554654e-02 1.8129208691020388e-02  1.1642824441488167e-02 -8.6229739779194084e-02 2.5059772599133018e-02  1.1474514726401047e-02 -7.9134446541073974e-02 2.1991926452033853e-02  9.4273032577170332e-03 -6.9673369562258086e-02 2.0407604370492150e-02  1.0222462748282915e-02 -8.4228949428505867e-02 2.7306646106335864e-02  9.9925803907064039e-03 -7.7170309162711753e-02 2.4262038770137221e-02  7.9828340958554671e-03 -6.7598381318950143e-02 2.2720665640511357e-02  8.8282406975586439e-03 -8.2395571381239582e-02 2.9278439645630143e-02  8.4863931238989034e-03 -7.5324534415649763e-02 2.6361425232423987e-02  6.3357454838587216e-03 -6.4568985055424744e-02 2.6221227127619443e-02  7.2984717250587526e-03 -7.9781400140878006e-02 3.2227172713315731e-02  6.8204236462810564e-03 -7.2625729392678362e-02 2.9538859873349154e-02  4.5276407452853572e-03 -6.0596891883871337e-02 3.0847685417225542e-02  5.5387588889193101e-03 -7.5954377555267516e-02 3.6469634680662028e-02  4.9454067040232818e-03 -6.8836002623050202e-02 3.3913667030709950e-02  2.6190743866329252e-03 -5.6324461556509414e-02 3.5993261491739779e-02  3.6998328922233236e-03 -7.1679216940409810e-02 4.1110190592302129e-02  2.9711177877592997e-03 -6.4644719486181001e-02 3.8742619584112348e-02  1.1826921143755713e-02 -6.6335950095420371e-02 9.4847448844770088e-03  1.0249345609981737e-02 -6.2782702917142663e-02 1.2927436387977796e-02  8.8680375336281196e-03 -6.0621629259116301e-02 1.5179044060856985e-02  7.4513415180242071e-03 -5.8286569648990316e-02 1.7709506520991927e-02  5.8577521698734737e-03 -5.4960279262169780e-02 2.1425565754706485e-02  4.1234769162056661e-03 -5.0903330803144027e-02 2.6111717431810774e-02  2.3188267571248918e-03 -4.6646272208284142e-02 3.1347464898776621e-02  1.1838960572705125e-02 -1.0548021847851197e-01 2.6948904750377742e-02  1.0881767792185706e-02 -9.7840177015934518e-02 2.2883539528538683e-02  1.0670438788017097e-02 -9.1950631175995667e-02 2.0297896506227632e-02  9.6816867567679731e-03 -8.8368130528617375e-02 2.4370481298588792e-02  9.9872049100687109e-03 -9.4328537216237213e-02 2.7037287690551134e-02  1.0854662021877510e-02 -1.0223903547776611e-01 3.0952632922620345e-02  9.3348039125235802e-03 -9.2025354956800726e-02 2.9601301373997798e-02  1.0125640553069403e-02 -1.0005674486800081e-01 3.3388437345131666e-02  8.9470748101010949e-03 -8.6049087585922793e-02 2.6937462630526723e-02  9.3897528254550961e-03 -9.8102692984435788e-02 3.5385941365692043e-02  8.6500845091759589e-03 -8.9888866967660644e-02 3.1881324455558316e-02  8.1559629397611622e-03 -8.3817207660116536e-02 2.9333173365189032e-02  8.5375690303482986e-03 -9.5483906805046384e-02 3.8175742944179046e-02  7.8395587841377078e-03 -8.6937666177821338e-02 3.5137532517150502e-02  7.1943858696681962e-03 -8.0701535678135108e-02 3.2786676392994527e-02  7.5152860774811000e-03 -9.1640697164936072e-02 4.2158690239777592e-02  6.8769981921469846e-03 -8.2843717689590646e-02 3.9568387565091796e-02  6.0716814057158817e-03 -7.6518915745961161e-02 3.7376865660577928e-02  6.3819059003593593e-03 -8.7274231175908448e-02 4.6447516837842755e-02  5.8073492784048641e-03 -7.8329436023904048e-02 4.4390212273223671e-02  4.8347007254488563e-03 -7.1973134974770078e-02 4.2389731585610532e-02  1.5619768445211530e-02 -1.0480045600891157e-01 3.0138384898770808e-02  1.5094856217217475e-02 -1.0901213905475626e-01 3.1812219049903591e-02  1.4836879644591306e-02 -1.0060433041172730e-01 2.7244757967372347e-02  1.2954974158005056e-02 -9.8256576996919170e-02 3.0584638164780093e-02  1.3375960540410110e-02 -1.0738544573585826e-01 3.4395775371405868e-02  1.3683322217696260e-02 -1.0323403060295186e-01 3.2700964580114920e-02  1.1818664933211126e-02 -1.0600403319311848e-01 3.5994218949217491e-02  1.1971593172636907e-02 -1.0189784828087740e-01 3.4279923288418411e-02  1.1356833678874297e-02 -9.6600137887977555e-02 3.2562161243702349e-02  1.0401761208782388e-02 -1.0069797840678084e-01 3.5394131367293365e-02  1.0365381142109569e-02 -1.0474813421064766e-01 3.7109268408415358e-02  9.8437093569847551e-03 -9.5159979719221729e-02 3.4041138702676825e-02  8.7991334987575151e-03 -9.9190450016889156e-02 3.6849080833267038e-02  8.9363254637914915e-03 -1.0318246777698442e-01 3.8547417489857121e-02  8.2578342085976846e-03 -9.3221567797818164e-02 3.6133232558423482e-02  6.9686160782910780e-03 -9.6673258262724271e-02 3.8895698360494557e-02  7.2930639509009515e-03 -1.0058072776718473e-01 4.0589274062644842e-02  6.4532240983792054e-03 -9.0123964170658696e-02 3.9201736286870840e-02  5.0102302671861327e-03 -9.3471151671335073e-02 4.0939509603353061e-02  5.5468381610396886e-03 -9.7267274358836447e-02 4.2636819756737582e-02  4.5445300572626961e-03 -8.6376588810338634e-02 4.2496953518141777e-02  1.1392006717461680e-02 -6.3546090490682328e-02 7.1787064344569704e-03  1.1181946599150318e-02 -7.1722447571516509e-02 1.1247043781878324e-02  1.0424555914650505e-02 -6.0859858851496480e-02 4.9899463747248530e-03  9.1706137328012704e-03 -5.7425597284080712e-02 8.1919432530348814e-03  9.7911869295649687e-03 -6.8063203773682079e-02 1.4870617894153062e-02  9.8384525450480927e-03 -5.9937267049887201e-02 1.0490858920197939e-02  8.5132049396515683e-03 -5.7653180775949060e-02 1.2727128913400419e-02  8.6106698124224258e-03 -6.5733422419746099e-02 1.7196408932293964e-02  8.0101636776998934e-03 -5.5083995591871181e-02 1.0526337115429069e-02  7.1831458420980234e-03 -5.5124391907644274e-02 1.5297337487347989e-02  7.3752962823877668e-03 -6.3254491506019167e-02 1.9710820956168031e-02  6.7835079573272932e-03 -5.2362395655847188e-02 1.3231491347317832e-02  5.7016395376062266e-03 -5.1613235345760511e-02 1.8991816781590818e-02  5.9905727721031787e-03 -5.9772930650295604e-02 2.3387215638277465e-02  5.4265699841130333e-03 -4.8664479873330932e-02 1.6993311107439991e-02  4.0990341547739347e-03 -4.7456779261656167e-02 2.3596765529109116e-02  4.4468870935492457e-03 -5.5505847222257057e-02 2.8074058312174688e-02  3.9695746416179099e-03 -4.4427058779364051e-02 2.1547953226710288e-02  2.4382542152823245e-03 -4.3141868623620398e-02 2.8723338670511453e-02  2.8414230222206585e-03 -5.1029661039895750e-02 3.3254956548534616e-02  2.4531094028334799e-03 -4.0040586740607731e-02 2.6614362120212565e-02  9.9703271434274446e-03 -7.9133253264031964e-02 1.3688632162397343e-02  8.9517413530771344e-03 -7.5376253728840895e-02 1.7664006057743063e-02  8.1664021140792960e-03 -7.2986209959594248e-02 2.0252714694861777e-02  7.2739302528375552e-03 -7.0560511056742062e-02 2.2896172024036668e-02  6.2069300609755469e-03 -6.7180754456765787e-02 2.6646775773043384e-02  4.9752378903913843e-03 -6.2907921567523520e-02 3.1448473927777117e-02  5.3357351514435949e-03 -6.6088777543491267e-02 3.2881275103875458e-02  3.6399332468011547e-03 -5.8374528831667237e-02 3.6719814241025564e-02  4.1656435614422461e-03 -6.1443452858325927e-02 3.8076744085000544e-02  2.9753087602124384e-03 -4.5620223868718598e-02 2.9665757767281212e-02  1.4559527705977406e-02 -1.1320502678392191e-01 3.3800270829316331e-02  1.3076948025738248e-02 -1.1172348911892310e-01 3.6185279047953392e-02  1.1701358198162608e-02 -1.1036107483793174e-01 3.7665709593652966e-02  1.0436122104693345e-02 -1.0910212921000999e-01 3.8687513176778855e-02  9.1608520668990459e-03 -1.0755223588787290e-01 3.9992335993172264e-02  7.7131687273490450e-03 -1.0499153780582599e-01 4.1795165236256163e-02  6.1715744839110362e-03 -1.0170330439429995e-01 4.3564433267038301e-02  9.7455747493252927e-03 -6.6552807549780976e-02 7.6113586808092635e-03  9.1983912381277625e-03 -5.6835042124108018e-02 9.1318132277521118e-04  1.0109626734305878e-02 -5.0186444631683390e-02 -2.5798490648192493e-03  8.8404766911332130e-03 -4.6555351899073741e-02 3.0151826666192480e-05  8.1576577653857067e-03 -5.2987294363834904e-02 3.9438641156955868e-03  8.7033459758931869e-03 -6.2901079600990700e-02 1.1031573472969777e-02  7.7562427223540889e-03 -6.0417206037654519e-02 1.3451959056159184e-02  7.2401148903168998e-03 -5.0376821348671358e-02 6.1958149595306268e-03  7.6984414034810275e-03 -4.4054776867870425e-02 2.0848448941165241e-03  6.6924975882953668e-03 -5.7621719724565701e-02 1.6156425481985419e-02  6.2298584952374088e-03 -4.7415625352094232e-02 8.8807901582194822e-03  6.5221114732305074e-03 -4.1113205564258418e-02 4.6369063129311208e-03  5.4644043308859375e-03 -5.3822607099043365e-02 1.9960914532989007e-02  5.1007450443717114e-03 -4.3616322227079563e-02 1.2475415905816387e-02  5.2738154243733683e-03 -3.7410258718130071e-02 8.0216956498576856e-03  4.1248103910534149e-03 -4.9419146348270805e-02 2.4595034718425911e-02  3.8843544330784464e-03 -3.9360334997637199e-02 1.6805887660389870e-02  3.9719031582314771e-03 -3.3330181767763277e-02 1.2080288289346637e-02  2.5944020585629071e-03 -3.4998740232423504e-02 2.1638224579524638e-02  2.7075726170494221e-03 -4.4854625198045658e-02 2.9722388392825660e-02  2.6199319134754392e-03 -2.9165102726519392e-02 1.6661658046238460e-02  1.1350625086862440e-02 -2.9690783528959847e-02 -1.2590950212523901e-02  1.0264704457858560e-02 -2.6993998326902316e-02 -1.0990527408183154e-02  9.1714637047026672e-03 -2.4801427063645139e-02 -9.3469391128008436e-03  1.3409488605490977e-02 -1.2519195976357833e-01 4.1634942882208557e-02  1.3490646987286041e-02 -1.2655356843473617e-01 4.2553590668203793e-02  1.3705706359131022e-02 -1.2623009376006303e-01 4.1124682925689181e-02  1.2979121929640297e-02 -1.2568098873136166e-01 4.1942933791583897e-02  1.2894355805025392e-02 -1.2664159990006260e-01 4.2120923417045292e-02  1.2670665668881122e-02 -1.2505766533896276e-01 4.1614337020901775e-02  1.2262507612272554e-02 -1.2470724588698756e-01 4.2558101349544249e-02  1.2294686572290589e-02 -1.2606072568638296e-01 4.2028626819756852e-02  1.1934993984331637e-02 -1.2434953993086549e-01 4.1756168932580828e-02  1.1588216680808868e-02 -1.2354391600426126e-01 4.3107876478375703e-02  1.1704057207737610e-02 -1.2512893577841683e-01 4.2209499871663503e-02  1.1258436464192421e-02 -1.2335758835254151e-01 4.2054565439048397e-02  1.0935879103226862e-02 -1.2230242509557257e-01 4.3626109463738329e-02  1.1152272504983365e-02 -1.2422311875565155e-01 4.2180700912019468e-02  1.0602174710908529e-02 -1.2234328671890028e-01 4.2231589689984216e-02  1.0174857148147688e-02 -1.2040683965627116e-01 4.3945836846833626e-02  1.0490724491532034e-02 -1.2300831449285810e-01 4.1441768248744300e-02  9.8453379022829177e-03 -1.2088206406727529e-01 4.1875516352452465e-02  9.2906258943380587e-03 -1.1791951150105487e-01 4.3897326775583639e-02  9.7347560578136122e-03 -1.2138956892810454e-01 4.0173266550976625e-02  9.0174334552587457e-03 -1.1895902352919333e-01 4.1023724442532654e-02  1.0864703100004779e-02 -5.2923987057579384e-02 5.1796956534507312e-04  9.4231532713108315e-03 -4.9321301914045976e-02 3.1894294578830064e-03  8.1544731614897979e-03 -4.6822158306846474e-02 5.1877398354774418e-03  6.8380888716830729e-03 -4.3900249633942935e-02 7.6671480951471041e-03  5.4252124990355364e-03 -4.0150871806953481e-02 1.1085743403579667e-02  3.9387748693403071e-03 -3.5984859943695803e-02 1.5225359662105318e-02  2.4002448309808698e-03 -3.1731070336288955e-02 1.9881816703991868e-02  1.1864766967081110e-02 -6.2972459330249780e-02 8.0654864896080054e-03  1.0257006236112578e-02 -5.9401774201146999e-02 1.1445906564203972e-02  8.8762159361510835e-03 -5.7189669751764011e-02 1.3661653953457611e-02  7.4029737327085052e-03 -5.4818401292834419e-02 1.6146377568710599e-02  5.7419858433371837e-03 -5.1483768880785617e-02 1.9787002636739527e-02  3.9376692198572804e-03 -4.7486628865784170e-02 2.4391929493252244e-02  2.0478585398244686e-03 -4.3311864155767897e-02 2.9536304874276616e-02  1.0656042743811954e-02 -4.3442249527424502e-02 -6.5214485318890476e-03  9.3023762396731557e-03 -4.0003011239971034e-02 -4.4642677230801011e-03  8.0873281636602706e-03 -3.7531307180754390e-02 -2.6650604399619062e-03  6.8532062915283281e-03 -3.4597325831978373e-02 -3.1871077630360461e-04  5.5738468175560822e-03 -3.1020026397026904e-02 2.7660271276854884e-03  4.2603604151084142e-03 -2.7184673493712876e-02 6.4538622572787264e-03  2.9155075004208670e-03 -2.3303174002827512e-02 1.0642495188498401e-02  1.4521966502912769e-02 -1.0578330396641115e-01 2.9543204917222541e-02  1.2860232772365135e-02 -1.0355135819610065e-01 3.2756156237903407e-02  1.1393860908348593e-02 -1.0192610540997497e-01 3.4681494582227197e-02  1.0015734927291872e-02 -1.0052162356570656e-01 3.6062975494763075e-02  8.5752789121827690e-03 -9.8648514896913217e-02 3.7977853899361341e-02  6.9387665609960802e-03 -9.5600042808593633e-02 4.0828013869352274e-02  5.1976489780209611e-03 -9.1864600285811615e-02 4.3845395367596525e-02  1.4985165257863338e-02 -1.1388013178880685e-01 3.5177602743974815e-02  1.3440049174854475e-02 -1.1305180472281606e-01 3.6737447580402344e-02  1.1980475418047774e-02 -1.1203345234248707e-01 3.7761957170210275e-02  1.0636108558854326e-02 -1.1096562807975598e-01 3.850749164949615