<?xml version="1.0"?>
<VTKFile type="UnstructuredGrid"  version="0.1"  >
<UnstructuredGrid>
<Piece  NumberOfPoints="741" NumberOfCells="3097">
<Points>
<DataArray  type="Float64"  NumberOfComponents="3"  format="ascii">3.179214107900854 3.03617855153557 0.8528137542545382  3.278440755230003 3.169005856729401 0.8615816796601879  3.307547427420377 3.045302268486585 0.8440821367485494  3.300543182469791 3.050541679021938 0.7649890185403561  3.274495043251769 3.183290791309249 0.7815071365073698  3.179087127441906 3.039508770332678 0.7737493498578153  3.293651420504612 3.055648528355261 0.6860146343733233  3.270709358430306 3.197427649178184 0.7014940657473254  3.179068295387259 3.042681275405387 0.694761164634993  3.286826154306355 3.060629903296842 0.6071314051693989  3.266989047819271 3.211445226513176 0.6215611611213063  3.179119934725088 3.045740701091636 0.615849849792793  3.280036412508429 3.065563869736264 0.5283139387549678  3.263255724843749 3.225376329506217 0.541695067250479  3.179210633050573 3.048753534937278 0.5369925316448753  3.273209398172618 3.07049467647006 0.4495526378181295  3.259455795527118 3.239276840710881 0.4618747065386433  3.179265274461393 3.051756441736649 0.458180046726125  3.266273750766088 3.075467507039201 0.3708576807786728  3.255515279679896 3.253211069252856 0.3820969109535029  2.836457456246591 2.198102385851322 1.089313687146886  2.933066974147376 2.338165343377995 1.027752844124886  2.973111473277982 2.222660469096899 1.077802056503666  2.972784870544727 2.198295994895777 1.01983875408022  2.933484481343144 2.311532721631965 0.9683490439959253  2.835372706457253 2.172952000431572 1.031449236443224  2.9725872222452 2.173963856469749 0.9618821319754185  2.93404360585803 2.284923708610853 0.9089593426763549  2.834379098853268 2.147825860753317 0.9735850551530009  2.972443044596548 2.149637070851713 0.9039463243651543  2.93465979793192 2.258318078335722 0.8496024521346129  2.833420794655984 2.122704334342985 0.9157349101669681  2.972287016830208 2.125300820080722 0.8460423211270423  2.935260902390191 2.231702612399366 0.7902846178467867  2.832445579065267 2.097571543139338 0.8579073770583727  2.97204228109773 2.100934855932785 0.7881782133170603  2.935767690024595 2.205060063479256 0.7310132499191299  2.831394180698538 2.072404908479665 0.8001082484447872  2.971596483834642 2.076496006110401 0.7303676899027021  2.936069352598302 2.178355430811687 0.6718005806286018  2.830195163807304 2.047154916570473 0.7423418086211161  3.087019441450381 2.169663283727971 1.097883590246876  3.054059112763204 2.321715262458607 1.036045596114644  3.187519907526141 2.289427642784629 1.046595506300232  3.185645991976933 2.265129607646258 0.9881490553775447  3.053736913319741 2.296328283932687 0.9770029345215313  3.085707766328044 2.147017349000541 1.04038097338391  3.084514829438119 2.124402722871118 0.9828862879531109  3.053549845220674 2.270982838530896 0.9180019365133346  3.18388093080473 2.240869073922777 0.9297470253317902  3.182164075620565 2.21662174164921 0.8713853098580211  3.0534224662097 2.24564171845863 0.8590355104975785  3.083377163546451 2.101800806206189 0.9254240528469513  3.180441172421088 2.192373447692473 0.8130767961851039  3.053286540503378 2.220293828688467 0.8001159820623344  3.082231269320364 2.079190643909028 0.8679942714521677  3.178646930291358 2.168107773816459 0.7548367694593585  3.053062872415957 2.194924822883837 0.741254369847399  3.081002110608333 2.056556207900003 0.810609273403735  3.176696096698505 2.143802674323737 0.6967010390369202  3.05263292494478 2.169511092013469 0.6824808300697491  3.079585694830139 2.033862768988044 0.7532908468811224  2.922441510566666 1.993031037938122 1.168084460005123  3.039465070876777 1.926748248910554 1.188451943375137  2.968016789682111 1.833903506421042 1.222795298772328  2.966210915395237 1.814018124402225 1.165701739470076  3.038049367238037 1.906679300046185 1.13168292043173  2.92043880460831 1.972346928599854 1.11086116479221  2.918528943198429 1.951685010424158 1.05361909001514  3.0367561378042 1.886630368146145 1.074895881266981  2.964509206915313 1.794148825209307 1.108572000423656  2.916657261331845 1.931025308861308 0.9963740079968451  3.035517150489802 1.866582159648579 1.01810566730666  2.962851431645515 1.774280138996774 1.051427497265887  3.034267310051298 1.846526656562103 0.9613197890285549  2.914771955952282 1.910355596814184 0.9391333393780477  2.961179363357724 1.754407986504537 0.9942720782877388  3.032930877421286 1.826453709970514 0.9045338749358894  2.912813800635992 1.889660340635979 0.8818934443589579  2.959426701852094 1.73452823455821 0.937095697481701  3.03140881034506 1.806342464514167 0.8477371617888037  2.910704264356507 1.868911132043669 0.8246353463620641  2.95750911882058 1.714623260668019 0.8798769438442655  3.613978903694048 2.952514415113171 0.8195264997886784  3.580121626854475 3.109349398107173 0.8299207321424331  3.722150852668974 3.025328029388652 0.8162656323410604  3.576430238206139 3.121687512580356 0.7496587120343093  3.608735911520156 2.950784156008273 0.7411754984154317  3.717385575816528 3.03136733852616 0.7367612734449445  3.572844608242656 3.133906647667594 0.6695459627596004  3.603556461224597 2.948964491425909 0.6629820687923857  3.712692393589652 3.037321700532373 0.6574393264470378  3.569311355322124 3.145991750525289 0.5895679050565785  3.598430185743037 2.947072952789833 0.5849426390389307  3.708039097034201 3.043178682832513 0.5782840791996033  3.565781366058651 3.157988010062097 0.5096839848255219  3.593355946758626 2.945154902100816 0.5070015828052367  3.703425520406717 3.048977531395446 0.4992388214497565  3.56221233223808 3.169974956585922 0.42987521418371  3.588253779036063 2.943225550054813 0.4291584439513304  3.698801969886401 3.054751946766937 0.4202857295767784  3.558491611000645 3.181967588205337 0.3501269559309986  3.583031582718157 2.941315641147 0.3514128589479311  3.694048339761023 3.060522073309135 0.3414431730927923  3.293692565451235 2.927590962353801 0.8407610859497247  3.394720682955727 2.851849901291966 0.845489989719323  3.270176649715034 2.795052701267756 0.8661642120184279  3.266628202651244 2.780628283820695 0.7930836143832095  3.389219650933562 2.840140625727656 0.7704321027653407  3.28890557653737 2.922728585236655 0.7634755105724147  3.263178035791628 2.766137958132169 0.7201199448634495  3.383787030343434 2.828349520669732 0.6955020927347897  3.284189957437077 2.917743274285037 0.6863135649017182  3.259810764544264 2.751604375995139 0.6472648908544701  3.378443856868513 2.81651810152222 0.620690455555829  3.279570601316932 2.912693875381575 0.6092447459975742  3.256472110445849 2.737044490207458 0.5744973046699285  3.373132317252573 2.804660699198003 0.5459766548915991  3.274988213606887 2.907607260378443 0.5322508341587235  3.253091844800758 2.722485899009148 0.5018069728421301  3.367785810226914 2.792809385673467 0.4713548646789337  3.270360086352559 2.902524416843733 0.4553354209072567  3.249608569750634 2.707970883277991 0.429191071272443  3.36236361476128 2.781007660342954 0.3968116202714431  3.265626875234735 2.897494909683828 0.3785044980129631  3.964779967719696 2.387650707858071 0.4624240210288523  3.836165023461747 2.266644797441099 0.5542013784246884  3.984126657207476 2.231585840564439 0.5546556512160238  3.844941035992138 2.293876469393893 0.6144519743960768  3.972296772987649 2.412989219278312 0.5269577269117294  3.330783383374958 2.122041728024408 1.108579997867051  3.300552942699741 2.270622312990229 1.049289299535241  3.427695613498731 2.262237779753202 1.046191208901116  3.423597084532243 2.238048654430592 0.9885679366834934  3.297706522627931 2.246483971508183 0.9912942630397066  3.328511951557188 2.099845146547191 1.052260616178745  3.4195565506985 2.213885317179087 0.9310003874300817  3.29494674844546 2.222382579889587 0.9333523592215506  3.326325244338597 2.077679457691201 0.9959727099334545  3.415533584823503 2.189750547326644 0.8734854404440318  3.292222133403299 2.198304792544338 0.8754604866557719  3.324180232899009 2.055528882610119 0.9397209858293259  3.411504643732318 2.165625793607625 0.8160281856538857  3.289492128810087 2.174232199908779 0.8176255381579589  3.322033398205594 2.03337842514701 0.8835131600950553  3.407442531086926 2.141491753355861 0.7586444289436555  3.28670706694956 2.150148971204795 0.7598670847621286  3.319833028784898 2.011213282712299 0.827364739588503  3.403315843837199 2.117321556237978 0.7013743990859553  3.283806569237787 2.126028173007174 0.7022273997115612  3.317509750094108 1.989008651531841 0.7713115300873361  3.788170464831659 2.194001073860056 0.9020729192770331  3.672016389173439 2.165937242439991 0.9291042672820834  3.80907314049061 2.087974150959856 0.9514840123998786  3.67812992576827 2.19098249996088 0.9852933282247315  3.78107315984964 2.167917517931352 0.8457727782808503  3.665881022281332 2.140919037918856 0.8729547382657046  3.803043091441481 2.063086147573613 0.8966127160973891  3.773964841605658 2.141848200252917 0.7895261320002909  3.659736064683524 2.115914510494426 0.8168603949203412  3.797004845057244 2.038205005765189 0.8417903692135659  3.766872902167437 2.115764019141086 0.7333438220156753  3.653596903831477 2.090902534167427 0.760841110337239  3.790982241315071 2.013310154432674 0.7870230492619444  3.759854031029766 2.089625335406437 0.6772373552695551  3.647497501664601 2.065858304900824 0.7049189908582469  3.785024981407958 1.98838266074744 0.7323170304135477  3.450187668713248 2.13676030613993 1.096237968007939  3.5515785663922 2.263811817015082 1.033982841254719  3.587134280571705 2.155461272661626 1.078820748183404  3.582230109743364 2.131556673043518 1.023144829598809  3.546131670930459 2.238964269384286 0.9767102490562386  3.44637283873471 2.11357765770288 1.040325754253915  3.577342288332191 2.107670426186398 0.9675290347467502  3.540702409422216 2.214141232278735 0.9194937453496426  3.442610828764723 2.090424072178568 0.9844610151736908  3.57245102092961
[...]
<PointData  Vectors="f_24"> 
<DataArray  type="Float64"  Name="f_24"  NumberOfComponents="3" format="ascii">2.4129590813289671e-02 -5.0691591811267075e-02 -1.2556621435213004e-03  2.2399553689645954e-02 -4.1120313127419608e-02 1.4660832757955307e-02  2.2771702603742391e-02 -4.7807110685040635e-02 4.1263148151897064e-03  2.5318700441102647e-02 -4.1489811073342736e-02 8.1028029586293036e-03  2.4494718256940474e-02 -3.6927762153020759e-02 1.9396077922289964e-02  2.6272744091103133e-02 -4.3887116503433493e-02 2.7763437455833972e-03  2.7526995228106647e-02 -3.5490058738649480e-02 1.0841090684428990e-02  2.6358776472457074e-02 -3.2780632832304070e-02 2.2689571030427035e-02  2.8330583632832348e-02 -3.7473147709138850e-02 5.7028703594487785e-03  2.9621191555761046e-02 -2.9556093643541299e-02 1.2610935946658873e-02  2.8156191137100148e-02 -2.8483720717453559e-02 2.4887064133590112e-02  3.0320507484721534e-02 -3.1176405578599808e-02 7.7002284495401108e-03  3.1689224969792776e-02 -2.3503695349432252e-02 1.3605822802336406e-02  2.9959523058482398e-02 -2.3941523912910875e-02 2.6208375292600481e-02  3.2315433390441982e-02 -2.4797516518730030e-02 8.9245644459615987e-03  3.3759129617836961e-02 -1.7191073695970935e-02 1.3924825907169116e-02  3.1796680420336051e-02 -1.9092899768927730e-02 2.6785492944914471e-02  3.4366776881010801e-02 -1.8177382118549055e-02 9.4760753878883868e-03  3.5765295022781619e-02 -1.0524436984006041e-02 1.3576780489425911e-02  3.3623599803278260e-02 -1.3885496079508217e-02 2.6636866398675740e-02  3.1382226807609707e-02 -1.0360653982540413e-01 -1.1641406154149962e-01  2.9554350289390550e-02 -9.7649856685530001e-02 -9.8154636349690114e-02  2.8962811061221443e-02 -1.0183220415541856e-01 -1.1000427609006477e-01  3.0960564100801807e-02 -9.6458700681624598e-02 -1.1291580887397859e-01  3.1575293760400594e-02 -9.0739786769866243e-02 -1.0125613193267584e-01  3.3067793459651627e-02 -9.8659540912030205e-02 -1.1942290274915601e-01  3.2877512186372415e-02 -9.1304653685096826e-02 -1.1496163388159635e-01  3.3503742206869885e-02 -8.4265564767433479e-02 -1.0357343514789850e-01  3.4692742539499784e-02 -9.3884428406906376e-02 -1.2150597097769623e-01  3.4740257803905869e-02 -8.6119338202316015e-02 -1.1628803608902927e-01  3.5377671159139555e-02 -7.7880959077442372e-02 -1.0528409252058057e-01  3.6291413287927433e-02 -8.9033560902746681e-02 -1.2281767719926641e-01  3.6577995365300986e-02 -8.0650131820071191e-02 -1.1700908665289605e-01  3.7227377925028719e-02 -7.1238830458354371e-02 -1.0652592578102053e-01  3.7880802293096254e-02 -8.3869906762136445e-02 -1.2346957834463604e-01  3.8406606229324312e-02 -7.4602300514197237e-02 -1.1720934384818804e-01  3.9068901975912430e-02 -6.3969556861859567e-02 -1.0743243588516749e-01  3.9468961549493690e-02 -7.8096337600421492e-02 -1.2354098564659487e-01  4.0214418042900026e-02 -6.7607653317711028e-02 -1.1696889622527197e-01  4.0895131426617284e-02 -5.5662226948332547e-02 -1.0816081066223038e-01  4.1055310900350042e-02 -7.1346462601729568e-02 -1.2315507159379965e-01  2.7131344243060882e-02 -1.0214419831677375e-01 -1.1145984167120540e-01  2.7475596211398230e-02 -9.7536471783170181e-02 -9.6339772487773132e-02  2.5435779200788548e-02 -9.7396177540341383e-02 -9.5412626470324224e-02  2.7824866340011349e-02 -9.1078660921640117e-02 -9.8259883854002389e-02  2.9701314553717849e-02 -9.0805437651289497e-02 -9.9277070339815129e-02  2.9306329676113452e-02 -9.7458897959955645e-02 -1.1414248640999240e-01  3.1391600344162995e-02 -9.2934125554281197e-02 -1.1598241273414621e-01  3.1826465470882200e-02 -8.4488808944077495e-02 -1.0150562479817750e-01  3.0139142286096193e-02 -8.5114012801749309e-02 -1.0038024076907945e-01  3.2375294861821786e-02 -7.9212888347173799e-02 -1.0188802110153167e-01  3.3892334448736371e-02 -7.8272529614378736e-02 -1.0311494630312121e-01  3.3414266958711920e-02 -8.8297939749700460e-02 -1.1706626482593849e-01  3.4587901571572634e-02 -7.3069264130113373e-02 -1.0291683730943965e-01  3.5925925918088540e-02 -7.1812460918949494e-02 -1.0425877165391519e-01  3.5407609574309204e-02 -8.3387623423669718e-02 -1.1751342006259141e-01  3.6807487880784369e-02 -6.6359576744876664e-02 -1.0355991821842175e-01  3.7952901946887996e-02 -6.4754934646718665e-02 -1.0504613099731940e-01  3.7400095186725803e-02 -7.7959676370107853e-02 -1.1736963842330929e-01  3.9069227950036207e-02 -5.8690545771504454e-02 -1.0389287997325400e-01  3.9974107523228927e-02 -5.6669077890782432e-02 -1.0555648171719975e-01  3.9416734261683704e-02 -7.1747632122817567e-02 -1.1663045311109585e-01  3.0150915980628776e-02 -1.0510272890476653e-01 -1.2893477831392455e-01  2.8482349751404085e-02 -1.0370283032237741e-01 -1.2792759649490809e-01  2.9753457570214772e-02 -1.0300853429786368e-01 -1.3143248600827040e-01  3.1500060780886255e-02 -1.0351510484694232e-01 -1.3255266655829911e-01  3.0418703292656224e-02 -1.0277833061777694e-01 -1.2957592855070282e-01  3.1870004841637371e-02 -1.0320903630161975e-01 -1.3100010004455923e-01  3.3540088246078924e-02 -1.0108404649727119e-01 -1.3214083950521457e-01  3.2285429614919536e-02 -1.0150963641653166e-01 -1.3035380794827509e-01  3.3197774881098409e-02 -1.0356006589021256e-01 -1.3285059724330003e-01  3.5179459817496130e-02 -9.8696887068265557e-02 -1.3246833266524083e-01  3.4100698482117935e-02 -9.9944290553019358e-02 -1.3034662509458642e-01  3.4858674004651972e-02 -1.0324314445951466e-01 -1.3238906532462985e-01  3.5892210999483247e-02 -9.8103233671118215e-02 -1.2958752239158461e-01  3.6806736535626459e-02 -9.6006151077876412e-02 -1.3202533671206551e-01  3.6499212475407217e-02 -1.0267748158089512e-01 -1.3117867301667305e-01  3.7679486747208515e-02 -9.6008869169818906e-02 -1.2805695516352775e-01  3.8442359510120871e-02 -9.2970539703257457e-02 -1.3079139744155199e-01  3.8135586304944485e-02 -1.0197014463731720e-01 -1.2918165144516780e-01  3.9484682233732422e-02 -9.3676163606017271e-02 -1.2568902466757789e-01  4.0112164291137238e-02 -8.9587752466439727e-02 -1.2870996245395175e-01  3.9785985710791519e-02 -1.0123827042930507e-01 -1.2631200504374401e-01  2.0997573250334495e-02 -4.8053586666337737e-02 5.0810000929253909e-03  2.0598937535553054e-02 -3.9190481229301855e-02 1.9268785388141842e-02  1.9829440699438244e-02 -4.1960527613377131e-02 1.5873239500345169e-02  2.2867829793359110e-02 -3.4590895679817907e-02 2.3870063945561692e-02  2.3646057028609280e-02 -4.0801147200213245e-02 8.2244056129141575e-03  2.2319657729832281e-02 -3.6031348147701925e-02 1.9913110155460018e-02  2.5014872429519098e-02 -3.0095979942868445e-02 2.6869094849419135e-02  2.6206577292462382e-02 -3.4101255600362826e-02 1.0260716289090043e-02  2.4761063451244895e-02 -3.0571709921295997e-02 2.2608705339572356e-02  2.7072946436257760e-02 -2.5483109309625170e-02 2.8717087756249825e-02  2.8650629150604442e-02 -2.7579509876583252e-02 1.1401503576177354e-02  2.7061507907817049e-02 -2.5151036541202501e-02 2.4268890931927398e-02  2.9070174481501572e-02 -2.0637656460181272e-02 2.9704701030340432e-02  3.1018684455276602e-02 -2.0968044411203389e-02 1.1820342125623513e-02  2.9266207327986123e-02 -1.9577851556242747e-02 2.5112757033108619e-02  3.1043019680702038e-02 -1.5496899433802315e-02 2.9991328274529914e-02  3.3350242134209833e-02 -1.4097364571016296e-02 1.1607385468539773e-02  3.1410865707167314e-02 -1.3740991564225110e-02 2.5268929815052767e-02  3.3037604703684366e-02 -1.0054519180287800e-02 2.9681849056870043e-02  3.5704175007565446e-02 -6.8517387307973823e-03 1.0799257696277603e-02  3.3557656492560754e-02 -7.5476588115745190e-03 2.4764295206093113e-02  2.3596628886473153e-02 -5.4780022084100932e-02 -8.6976267624959257e-03  2.2843491632564449e-02 -5.8552318569821515e-02 -1.4113499776247429e-02  2.4096415907669932e-02 -6.4780018414295884e-02 -2.5774894239218839e-02  2.6741388172312981e-02 -5.5497144186664481e-02 -2.4902017699038603e-02  2.5667664814224205e-02 -4.9792395789236006e-02 -1.2569375446967519e-02  2.6251280816149351e-02 -4.6757199972858023e-02 -5.9808506511231669e-03  2.9255578527049558e-02 -4.7040179200549259e-02 -2.4483974047671060e-02  2.8248761556911486e-02 -4.1838956906254068e-02 -1.1764391748473813e-02  2.8669116520634978e-02 -3.9297479732384163e-02 -4.2903295941792508e-03  3.1676304611879182e-02 -3.8927479566387833e-02 -2.4503735213296400e-02  3.0747600980823943e-02 -3.4157866334574773e-02 -1.1563800104806371e-02  3.0967680505540645e-02 -3.2031400209135683e-02 -3.3219639374907758e-03  3.4064283351313916e-02 -3.0787107475991983e-02 -2.4948375647222881e-02  3.3199472967491039e-02 -2.6416695282608947e-02 -1.1896124270685291e-02  3.3233822586496785e-02 -2.4694874342328060e-02 -2.9715700081878460e-03  3.6466460082762116e-02 -2.2344798267475055e-02 -2.5818907036794812e-02  3.5644047588779690e-02 -1.8378675913184671e-02 -1.2732916975052917e-02  3.5510355161235886e-02 -1.7084493145416556e-02 -3.1942527596849984e-03  3.8922528660331156e-02 -1.3390615621394281e-02 -2.7161822265916895e-02  3.8104181735668229e-02 -9.8838337559385113e-03 -1.4069698321594935e-02  3.7805945127315485e-02 -9.0469674450731046e-03 -3.9697197383836104e-03  3.6794050211436412e-02 -1.8492820559785940e-02 -3.9312316756704282e-02  3.6920928179723152e-02 -3.2218079147964228e-02 -6.0405891392095179e-02  3.6253857627159013e-02 -3.2516581089909423e-02 -5.7536970641375529e-02  3.4007780638025127e-02 -4.0347655029128231e-02 -5.8187803574481944e-02  3.3990785070228402e-02 -2.6819926695626183e-02 -3.6903292678070888e-02  2.3601999248837689e-02 -1.0016479640865995e-01 -1.0643285891661888e-01  2.3834344961466216e-02 -9.6556334073451308e-02 -9.3169349089264789e-02  2.2234791297884589e-02 -9.5008234293240512e-02 -8.8743341032067435e-02  2.4907229656982346e-02 -8.9081492382249161e-02 -9.1551858329444513e-02  2.6392884134704600e-02 -9.0498869077250868e-02 -9.5981857007776950e-02  2.6121377330140968e-02 -9.6144109798473182e-02 -1.0890801949589812e-01  2.7495108218449457e-02 -8.3453614569800647e-02 -9.3663663917632478e-02  2.8840240606020865e-02 -8.4758119273114690e-02 -9.8060339086044057e-02  2.8536320746746450e-02 -9.2191928656557856e-02 -1.1056211498713735e-01  3.0029798721678991e-02 -7.7860719447241863e-02 -9.5200738422080503e-02  3.1227090686217197e-02 -7.9056972004646744e-02 -9.9549626610575037e-02  3.0888359364297811e-02 -8.8128148660077593e-02 -1.1152333192755684e-01  3.2551012879941624e-02 -7.2027883026382633e-02 -9.6279445273332875e-02  3.3593698417746898e-02 -7.3113412855485740e-02 -1.0055844634619646e-01  3.3217311598035267e-02 -8.3784959530023059e-02 -1.1187059825894677e-01  3.5108276872375159e-02 -6.5657957985122056e-02 -9.6996719052462779e-02  3.5983737661137265e-02 -6.6614646496405847e-02 -1.0117144150523733e-01  3.5560179792137193e-02 -7.8976127879848090e-02 -1.1163900601362378e-01  3.7769816585488253e-02 -5.8412211775219831e-02 -9.7426464002325644e-02  3.8444230432545495e-02 -5.9196438830262842e-02 -1.0148057876826860e-01  3.7955629687812707e-02 -7.3480695968746665e-02 -1.1080542863350833e-01  2.4929664062179072e-02 -7.7285842033255892e-02 -7.8269168577313294e-02  2.5515879056806010e-02 -8.1506938309453048e-02 -8.6870884449955055e-02  2.4657675360718646e-02 -8.3089278878246839e-02 -8.7250008074556518e-02  2.2733627512783381e-02 -8.6554894018180478e-02 -8.4764400301842832e-02  2.7756925395107740e-02 -7.1957915437251746e-02 -7.9995921332445027e-02  2.8270379863761276e-02 -7.6449447567074558e-02 -8.8436221014110111e-02  2.7478882547656607e-02 -7.8867106738259612e-02 -8.8547570720428778e-02  3.0597074905371672e-02 -6.6398913596630402e-02 -8.1346738951283110e-02  3.1033653264041335e-02 -7.1138087541003772e-02 -8.9560150916326131e-02  3.0310809960100125e-02 -7.4367626371330320e-02 -8.9375551803870260e-02  3.3492429513947514e-02 -6.0339315340553347e-02 -8.2434276504247631e-02  3.3855209760630833e-02 -6.5309733688300231e-02 -9.0346511312214550e-02  3.3209169505366599e-02 -6.9383942295890524e-02 -8.9812798004413150e-02  3.6490961693409180e-02 -5.3458920654562481e-02 -8.3373131714768955e-02  3.6801908404290873e-02 -5.8684419087116989e-02 -9.0902441073163712e-02  3.6222843463303719e-02 -6.3697664854087468e-02 -8.9919388433085043e-02  2.2099383989483731e-02 -9.8153685191902970e-02 -1.0014090571984072e-01  2.1020583472433366e-02 -9.2640591671709280e-02 -8.3042587948799693e-02  2.0625927568795620e-02 -9.5519049884245158e-02 -9.2320715255865368e-02  2.3394104356568742e-02 -9.1096357514716897e-02 -9.4977093451440148e-02  2.3793656636267469e-02 -8.6718574690804531e-02 -8.5900112662921052e-02  2.4748705861234711e-02 -9.3970544926833433e-02 -1.0272896162426058e-01  2.6085926836744336e-02 -8.6775235833495903e-02 -9.6896605700116448e-02  2.6500019253218082e-02 -8.1108318533044482e-02 -8.8075054350469709e-02  2.7308454368068263e-02 -8.9867175143980710e-02 -1.0453279790756617e-01  2.8739967723614371e-02 -8.2377964342924395e-02 -9.8197369342058055e-02  2.9158470871523182e-02 -7.5536080880965695e-02 -8.9702070548038859e-02  2.9817480968427929e-02 -8.5673119728425284e-02 -1.0567867602789907e-01  3.1393943286140834e-02 -7.7712631843154509e-02 -9.8978112073670882e-02  3.1815374633278701e-02 -6.9727197133394161e-02 -9.0905230629783257e-02  3.2314700449687143e-02 -8.1208143690379500e-02 -1.0624805790368173e-01  3.4100408426389214e-02 -7.2563842851717963e-02 -9.9310782027064115e-02  3.4520197113367214e-02 -6.3387423709969901e-02 -9.1788702420180460e-02  3.4847398237824109e-02 -7.6266163424763903e-02 -1.0628558964757454e-01  3.6927952803941906e-02 -6.6681282778235859e-02 -9.9219712976886851e-02  3.7340180071065605e-02 -5.6184340897302579e-02 -9.2476272054416164e-02  3.7469964219851867e-02 -7.0582897008141451e-02 -1.0582410617336023e-01  2.7816709150932050e-02 -2.4043337766977230e-02 9.4679458295748690e-03  2.8668624200126090e-02 -2.8927071381471405e-02 -3.3118444670350135e-03  2.8221800857963591e-02 -3.1239656715075895e-02 -1.0544991734615074e-02  2.5917805723164471e-02 -3.6281100298448020e-02 -2.9499599380537929e-03  3.0957679396541312e-02 -2.3748500484136147e-02 -1.1873527689436376e-02  3.0372319948327283e-02 -1.7041393263904744e-02 9.0496131739662162e-03  3.1326894428847243e-02 -2.1529063271212266e-02 -4.1442625245323265e-03  3.3650372194119198e-02 -1.6002065904244585e-02 -1.3567723235609204e-02  3.2856993717588531e-02 -9.8188519078878135e-03 8.1459331203267149e-03  3.3900647579322873e-02 -1.3889668568916295e-02 -5.4232369560725325e-03  3.6302547010834775e-02 -7.8572740668388062e-03 -1.5657988057532563e-02  3.5271499801274801e-02 -2.2716999947466556e-03 6.8489414512138014e-03  3.6373005724735979e-02 -5.8878671535482147e-03 -7.1399204019391843e-03  2.6611560577003777e-02 -1.0014067589898967e-01 -1.2373481602081093e-01  2.4223042123069485e-02 -9.8950758564338617e-02 -1.1763353938740838e-01  2.5430046393660189e-02 -9.7382380613270800e-02 -1.1817750857591715e-01  2.7736533782846979e-02 -9.9365760123696176e-02 -1.1814634873787849e-01  2.6652661747884512e-02 -9.9595423304423711e-02 -1.1840630462066071e-01  2.8805215413823883e-02 -1.0121741808337135e-01 -1.2435128768718534e-01  2.9938187427526065e-02 -1.0078411713221351e-01 -1.1754900596619818e-01  2.8988099423737850e-02 -9.9759821164221801e-02 -1.1850503672155943e-01  3.0888305496895110e-02 -1.0177970057370501e-01 -1.2426859513195231e-01  3.2067959391481632e-02 -1.0181336722364930e-01 -1.1638788404059776e-01  3.1248470060287949e-02 -9.9572024616122232e-02 -1.1796409310678671e-01  3.2903502053472686e-02 -1.0197599035433687e-01 -1.2351517642042757e-01  3.4142107576427126e-02 -1.0262060719638554e-01 -1.1463530791586359e-01  3.3461773427346402e-02 -9.9126592460657553e-02 -1.1678473580879220e-01  3.4871086857253687e-02 -1.0193665978136773e-01 -1.2209044374882050e-01  3.6168699054689037e-02 -1.0336316464593558e-01 -1.1223717176267901e-01  3.5647896691940163e-02 -9.8513209873481958e-02 -1.1492533546758563e-01  3.6800989011344758e-02 -1.0178734743420428e-01 -1.1995233223011628e-01  3.8144724383025186e-02 -1.0419252102441372e-01 -1.0911887256092949e-01  3.7820777088977436e-02 -9.7832555705539559e-02 -1.1230468530222157e-01  3.8690412282576914e-02 -1.0165324751605719e-01 -1.1703954506686379e-01  2.5368221495809085e-02 -8.7196427109759361e-02 -9.5868609465939100e-02  2.4529511736776727e-02 -8.8602318078649669e-02 -9.4950630424074645e-02  2.1817458392919872e-02 -8.7203439367515317e-02 -8.5363229006692659e-02  2.2611840810683962e-02 -9.0905110145617210e-02 -9.4114142582689048e-02  2.7325416734616588e-02 -8.5896391369110939e-02 -9.5683131288046702e-02  2.8095387187010840e-02 -8.3357603484974716e-02 -9.7010204555081359e-02  3.0137555156842442e-02 -8.2896420063064719e-02 -9.5876523185893889e-02  3.0832726137183731e-02 -7.9233891487899985e-02 -9.7625655965530814e-02  3.3011400935819106e-02 -7.9498109799829811e-02 -9.5557451169049304e-02  3.3627056853414820e-02 -7.4649089874203989e-02 -9.7767227027888912e-02  3.6003234836718294e-02 -7.5560488977640672e-02 -9.4735045249118383e-02  3.6546084132070902e-02 -6.9380084802227737e-02 -9.7461024236487975e-02  2.4127555549856551e-02 -4.3002085893455728e-02 1.0834178296755414e-02  2.5725376181894084e-02 -3.8255893343878820e-02 1.5728228790577906e-02  2.7367171215878564e-02 -3.3715388396880611e-02 1.9202975392091683e-02  2.9037214718599092e-02 -2.9102334854532241e-02 2.1610806739262377e-02  2.7570077166352139e-02 -1.0215436047375882e-01 -1.2674996008337458e-01  2.5149472009621716e-02 -1.0105940490401959e-01 -1.2065921834659608e-01  2.7496123640509299e-02 -1.0064610969112332e-01 -1.2198360453278954e-01  2.9635738030217511e-02 -1.0226147823970007e-01 -1.2792810303726121e-01  2.9734103453114551e-02 -9.9857409925955459e-02 -1.2253173952310158e-01  3.1612097799543930e-02 -1.0193433635280558e-01 -1.2828196025368074e-01  3.1901106724167225e-02 -9.8757900740699775e-02 -1.2237102475592503e-01  3.3527107533439793e-02 -1.0126312572493645e-01 -1.2790209345132039e-01  3.4024401414608343e-02 -9.7393695239720565e-02 -1.2152711649257081e-01  3.5404152308466490e-02 -1.0033485253885287e-01 -1.2680201665122087e-01  3.6123733452509230e-02 -9.5803617249095668e-02 -1.1997482325487352e-01  3.7257762533792003e-02 -9.9232573670722093e-02 -1.2494993700854556e-01  3.8210454819773997e-02 -9.4000301565369371e-02 -1.1758223905500044e-01  3.9097696336702070e-02 -9.8065607402251315e-02 -1.2227517741447286e-01  3.2071545887437845e-02 -9.9773088540629273e-02 -1.0504349012650001e-01  3.3797736534169995e-02 -9.3237361879910316e-02 -1.0834190375394596e-01  2.2127612920631014e-02 -3.4042347939794659e-02 2.3559694446800023e-02  2.3493713584215904e-02 -3.2367251609267650e-02 2.8494716280890561e-02  2.0161139174225181e-02 -4.9276238134618226e-02 3.0130088306615731e-03  2.1252739939780493e-02 -5.8066511556250082e-02 -1.2561252110415254e-02  2.4176859685510015e-02 -4.9319847165525191e-02 -1.1407958610828980e-02  2.3082121688410714e-02 -4.1690271080603067e-02 5.6119788083267685e-03  2.5769600605610548e-02 -3.4632513406406579e-02 7.3132880312722966e-03  2.6932363566229200e-02 -4.1308186967382088e-02 -1.0844402520787269e-02  2.8328223813498955e-02 -2.7811863930316531e-02 8.2262087084718719e-03  2.9588069703116185e-02 -3.3618952383461444e-02 -1.0825981140614708e-02  3.0789502033125193e-02 -2.0954423122357079e-02 8.4838029623630629e-03  3.2176943866289304e-02 -2.5910386348242904e-02 -1.1294996325391797e-02  3.3180459541133689e-02 -1.3874777493903685e-02 8.1546389124942942e-03  3.4732102666693687e-02 -1.7938292609067940e-02 -1.2244316436303828e-02  3.5522279621901957e-02 -6.4324121474715551e-03 7.2385804578266886e-03  3.7296767324838914e-02 -9.5240841028464886e-03 -1.3711782301402992e-02  2.8706241427480819e-02 -1.0049913498129781e-01 -1.2783851168476462e-01  3.0320481376506916e-02 -9.9460011511420504e-02 -1.2901795697613022e-01  3.1979420422353522e-02 -1.0212657254707184e-01 -1.2895640095638475e-01  3.0609770715625918e-02 -1.0218790838999010e-01 -1.2823076061296865e-01  3.2451146414664171e-02 -1.0330353079880129e-01 -1.2793090555417694e-01  3.3595368985719361e-02 -1.0415272407260819e-01 -1.2829388628481864e-01  3.4238184607160008e-02 -1.0402828323614809e-01 -1.2695734564382002e-01  3.517