<?xml version="1.0"?>
<VTKFile type="UnstructuredGrid"  version="0.1"  >
<UnstructuredGrid>
<Piece  NumberOfPoints="731" NumberOfCells="3061">
<Points>
<DataArray  type="Float64"  NumberOfComponents="3"  format="ascii">8.319643491173018 3.697186942580402 3.569799973543017  8.209755681804555 3.732754879551128 3.541608330734075  8.270531038319993 3.655607916605709 3.658887967374937  8.279966809966416 3.714032049478897 3.693263443202586  8.222105633827887 3.792418340455118 3.569103869429402  8.329425764164545 3.756137916606239 3.598389825516353  8.339177517575854 3.815096839711512 3.627265553317838  8.234380501651586 3.852145944569824 3.5968936791587  8.289359823353108 3.772407970281509 3.727930689872625  8.348944255094917 3.874170679501815 3.656298094777132  8.246670865252579 3.91199429267202 3.624826750457384  8.298751760038778 3.830823718163463 3.762719933414696  8.358768510170126 3.933412156074551 3.685376802541644  8.259078077095994 3.97200664084288 3.65279839758519  8.308199476171934 3.889355059938033 3.797554125869482  8.27173611683817 4.032219416636341 3.680717791354044  8.368694472652463 3.992920538793599 3.714434472500275  8.317750179764142 3.948104935278569 3.832372513710823  8.378862496575172 4.05275447471956 3.743389800844183  8.284705454966016 4.092837631944665 3.708578380777751  8.327469583138106 4.007184536229238 3.867117620846085  8.146856179120785 3.696657975811645 3.625773379941781  8.160639385365798 3.754930876751613 3.660324381249795  8.174296233844931 3.813180635239865 3.695121015437744  8.187931665162644 3.871474416916759 3.730064762263255  8.201638939810138 3.929849626774744 3.76505178952973  8.21553181455471 3.988333113030436 3.800013952474672  8.229765723839185 4.046979108667266 3.834898251947536  8.502551233860208 3.377192284337621 3.93141123628188  8.387320935264309 3.315195497764793 3.968954116750488  8.497210317520977 3.282283706248716 3.982984949383659  8.495878371106405 3.308348134281785 4.050961899974285  8.38670705520893 3.34438533080741 4.035812947749338  8.50126032021991 3.414561028988412 3.993209218106649  8.494681886467005 3.334299302845963 4.118821847869685  8.386242166955137 3.373461256009351 4.1026269652521  8.500123297232092 3.451746236636643 4.054942843996887  8.493557518120298 3.360155101977457 4.186627684931157  8.385832145057007 3.402457446380497 4.169409382821133  8.499062718903756 3.488825732958579 4.11664486434421  8.492434718539267 3.385927365243758 4.254407215956594  8.385425132020933 3.431388378263818 4.2361827564402  8.498015572845246 3.525843510302845 4.178337675092961  8.491246570419623 3.411625002341058 4.322176153459916  8.384971331423962 3.460273001729864 4.302979009828108  8.496921733013007 3.562826581986043 4.240026927229327  8.489959111205177 3.437245891121245 4.389950740469684  8.384357921673436 3.489136250864811 4.369839425233327  8.495699253718088 3.599798046579254 4.301696427191415  8.792762202218224 3.696396151763398 3.54146591703225  8.649744830251441 3.672964733707389 3.583513280730143  8.772640778136937 3.649472854130215 3.640855401501173  8.768990284976448 3.708087580819491 3.670532989788787  8.64860134322425 3.731883573329672 3.610532770724431  8.789870981311777 3.755710788400667 3.563911384505068  8.765571630786777 3.766629567148566 3.700487936337559  8.647636642476499 3.790828349223517 3.637857941620996  8.787171507784793 3.8150590159227 3.586636354598007  8.762273762901915 3.825185344661968 3.730576406756405  8.646770006396023 3.849861090051864 3.665334656727977  8.784572750769483 3.874499469085732 3.609501065423363  8.759004420881773 3.883812837929738 3.760690491040727  8.645934523379527 3.909033462922631 3.692846838781268  8.781995826586932 3.934074158555823 3.632392358239761  8.75567081591549 3.942537541486445 3.790745651090375  8.6450503800005 3.968396397900934 3.720303721661851  8.779361369686253 3.993824165368165 3.655209844140292  8.752145149065868 4.001352442682048 3.82066697091783  8.644018039044875 4.028006387372064 3.747621345754881  8.776556969528061 4.053774785769324 3.677840915060511  8.192452217606577 3.619956645927086 3.738570748849374  8.202833154207765 3.676026534712004 3.780728377804022  8.2131280938814 3.731965290572147 3.823087415838177  8.223404291215315 3.787899927998474 3.865529845486331  8.233734027858612 3.843899377123442 3.908008341188749  8.244190900812288 3.900034813009527 3.950495465243272  8.254813307308691 3.956398424076886 3.992953939653114  8.704216122225265 3.7139097771242 3.47690925955811  8.702904048026133 3.772792182075671 3.496871773958057  8.701752446665697 3.831796050183871 3.51714259596698  8.700691789023731 3.890957588251408 3.537560992726517  8.699660935229529 3.950308680867158 3.558008931715351  8.698591949943504 4.009886358890847 3.57837856155736  8.697421595166396 4.069721622432352 3.598557352382036  8.387546725086748 3.402371317050431 3.915305791917504  8.389051860322356 3.441496969740765 3.976111243444464  8.390664577872418 3.480443214344273 4.036887046682157  8.392326090552372 3.519298394658314 4.097649424514841  8.393995522261976 3.558108792703699 4.15841410239374  8.395632419772014 3.596908136605704 4.219196068390936  8.397190473912865 3.635728738281788 4.280022058256688  8.994165394544964 3.323734678912614 3.977723939903347  8.872646067390585 3.279122480104538 3.99581341094685  8.990427223869519 3.192860859896217 4.031499680485336  8.871380267280562 3.305795361482294 4.062983184112293  8.074454912253051 3.669681685058384 3.696799090824312  8.090162004287937 3.726703573630894 3.736932750052444  8.105678957843793 3.783661350281219 3.777259207558901  8.121134749618372 3.840614196370445 3.817691409274783  8.136634098866072 3.897604347296144 3.858154173037596  8.152325059141107 3.954653477305579 3.898575302310462  8.168404468128054 4.011872412753982 3.938950710960126  7.617670899451728 3.702731448321519 3.978279596747921  7.715371431676097 3.631306808415239 3.99445417997874  7.609801583245891 3.558408344535963 4.063241010711498  7.696637833463237 3.58797579244999 3.928827920415707  7.623909632085968 3.597165589887594 4.134755998232959  7.634821283754537 3.749000256460604 4.044160828373501  7.733834233940748 3.674616759729985 4.059919532550715  7.637898828103211 3.635884466910948 4.206120218788363  8.969652156462031 3.859843879510161 3.82909398321589  9.002896027755726 3.784931060216428 3.963373292686684  8.876228489123363 3.775079633406802 3.972980741689329  8.970675018714399 3.80252304475256 3.795091095115665  8.878342107889752 3.722353061187358 3.928547889447814  9.00290687029646 3.838477731036436 4.006313998742745  8.968600608306199 3.917172031237474 3.863032797915008  8.874058236506931 3.827794779789523 4.017363782190896  9.002877628025686 3.891997510826955 4.049165336580164  8.967493775225321 3.9745230544923 3.896843728713279  8.871779663555662 3.880505302745985 4.061663143415424  8.10403195602003 3.776990064027274 3.498666722735199  8.123255032006261 3.836728585210654 3.523498150265912  8.142288002854412 3.896601144382763 3.548628045647048  8.161289558707137 3.956617083363754 3.573903112355919  8.180391133382049 4.016795022547936 3.599203274077616  8.199742947429327 4.077149386103357 3.624421071642238  8.219678349712442 4.137617519492793 3.649454829742817  8.749620169674962 3.592703971356865 3.746447403912979  8.661546608722553 3.506052150765874 3.836096524568473  8.777190293866568 3.520134365766359 3.829626219515633  8.773876517989935 3.569963140768279 3.878619560307067  8.659175024794557 3.555886283520222 3.885588457877893  8.74618871513027 3.64865941378235 3.785659115167547  8.770798893263558 3.619558276406967 3.927642958148678  8.657006962555334 3.605500166783687 3.935162457732002  8.743000524584456 3.70443923981576 3.825061918707674  8.767825915614178 3.669032490113517 3.976685966673178  8.654945452238595 3.655011931162289 3.984771845789074  8.739919992065932 3.760179758263726 3.864545485305452  8.764871900474235 3.718457037519063 4.025721326679813  8.652904886854861 3.704494947053324 4.034385535929749  8.736857317624251 3.815944600321941 3.904041998755798  8.761852472731698 3.767864476306769 4.074723479191482  8.650806526709282 3.753996926855618 4.083968757022683  8.733718885577716 3.871770846492523 3.943490482967005  8.758671860365153 3.817261873326129 4.123658312458775  8.648582997725457 3.803559519501411 4.133494010080956  8.730393743904298 3.927649656703224 3.982815250318104  8.53019489143896 3.544777770122507 3.786934377573947  8.45130029979795 3.468101623805715 3.870789007823441  8.556549103120243 3.469175336410377 3.87467059510766  8.555705449404874 3.51531031569313 3.929127871671026  8.451712039131248 3.514221484263443 3.925488596083561  8.53006787613568 3.598010383058714 3.831900803844984  8.555034039351581 3.561237495495872 3.983645951396331  8.452258787061332 3.560147294022182 3.980258975390189  8.530099215829534 3.65105336643501 3.877046923643936  8.55444057765758 3.60708030017819 4.038198522723799  8.452865578921456 3.605994472083506 4.035065156335177  8.530215317308762 3.704031606408246 3.922277867502453  8.553857156048119 3.652898326296979 4.092764742969945  8.453488028682674 3.651825726838084 4.089890896119486  8.530356081180553 3.757024427917852 3.967539352245792  8.553221255391637 3.698743616318585 4.147341139975837  8.454073616038155 3.697691555176262 4.144728008481694  8.530453714060743 3.810083654950593 4.012796755551467  8.552496180563949 3.744656672344959 4.201930341312257  8.454523376202147 3.74363851343294 4.199578614232237  8.530422132149246 3.863283901158794 4.058006958913508  8.974074714784079 3.63017503845702 3.693390042021607  8.856917411896776 3.624787451274536 3.700047382154109  8.885083600362723 3.563630430213043 3.795366095478767  8.854667571682025 3.682676036497702 3.733942991388106  8.850641854603351 3.798046987906325 3.802246568714256  8.848692485093126 3.855735013432526 3.836448582275691  8.846693338654077 3.913475294078713 3.870591015583673  8.844588171627334 3.971265578947227 3.904603664987136  8.050552276723103 3.747518742262691 3.596145409
[...]
<PointData  Vectors="f_24"> 
<DataArray  type="Float64"  Name="f_24"  NumberOfComponents="3" format="ascii">-1.2749990577666199e-02 1.0170072008780470e-01 -5.9024645216791995e-03  -1.1614213949112509e-02 1.0467607809171640e-01 -1.1902233640997384e-03  -1.2983923963891688e-02 8.5225418696761063e-02 -1.0554360535954604e-02  -1.3597900674095307e-02 7.8040950424071331e-02 -3.2451000886715114e-03  -1.2667727817955813e-02 9.8893948862348202e-02 7.1205110050009514e-03  -1.3658695631562559e-02 9.5410595758493061e-02 2.4865824534464581e-03  -1.4444666121109437e-02 8.9648600627015171e-02 1.0568740843782509e-02  -1.3608779131256837e-02 9.3581117391380295e-02 1.5164765338432159e-02  -1.4114743543479405e-02 7.1604781526986391e-02 3.9151900987401886e-03  -1.5156958721545658e-02 8.4193598112776380e-02 1.8619258939478772e-02  -1.4446831578497198e-02 8.8527219855041847e-02 2.3140583714515855e-02  -1.4555826081694102e-02 6.5621105396102913e-02 1.1173499914545575e-02  -1.5814809607265116e-02 7.8891854813622958e-02 2.6869462457291698e-02  -1.5213841325219976e-02 8.3600497240758340e-02 3.1281626468179426e-02  -1.4927100809785073e-02 5.9883690008141449e-02 1.8711699394272405e-02  -1.5918256933851634e-02 7.8711329248739414e-02 3.9786447699655642e-02  -1.6442754695468256e-02 7.3619452697986934e-02 3.5549984953711956e-02  -1.5218306673071542e-02 5.4249940078966150e-02 2.6690058307954193e-02  -1.7041180048196981e-02 6.8305975909606728e-02 4.4831545182119910e-02  -1.6620914285148853e-02 7.3748512940283506e-02 4.8889173082642269e-02  -1.5403681448846490e-02 4.8588878055393164e-02 3.5290743673984180e-02  -1.1770988163033238e-02 8.9661269935188845e-02 -5.1675777372237304e-03  -1.2534328593349488e-02 8.2780316686669242e-02 2.0833189198330845e-03  -1.3226443592006835e-02 7.6506768335452890e-02 9.1553862015893561e-03  -1.3818535740818568e-02 7.0642295984364806e-02 1.6252883921612966e-02  -1.4306252117210009e-02 6.5026017185835200e-02 2.3557938398645464e-02  -1.4680480311769358e-02 5.9525040271774250e-02 3.1214168023934723e-02  -1.4913068038928664e-02 5.4015451717394268e-02 3.9398576225692768e-02  -1.6323328604387146e-02 3.3869422335300471e-02 -3.8030487016196733e-02  -1.5330694521192127e-02 2.4914953414729393e-02 -4.0308070028883924e-02  -1.6236147122128033e-02 2.2098733167269898e-02 -4.3976103631889585e-02  -1.5115239300848465e-02 1.5677091577379502e-02 -4.5392247707912760e-02  -1.4327359673431649e-02 1.8175495196978076e-02 -4.1314619621625380e-02  -1.5471028613623584e-02 2.6094348249597638e-02 -3.7578498562752936e-02  -1.4108893791924823e-02 9.8295138721430139e-03 -4.5574431408068210e-02  -1.3416153744728439e-02 1.2030983909355215e-02 -4.1129737196473892e-02  -1.4690355315301787e-02 1.9091539050494689e-02 -3.6110083430185472e-02  -1.3164251960016533e-02 4.3544135378795782e-03 -4.4836034799184188e-02  -1.2517253006290892e-02 6.2692637592589168e-03 -4.0072485110805481e-02  -1.3942843225952220e-02 1.2600381225215913e-02 -3.3814414087437163e-02  -1.2252779549818004e-02 -8.5018607020126088e-04 -4.3327232087352140e-02  -1.1596306301096992e-02 7.7648044810783748e-04 -3.8266700853452913e-02  -1.3213154131345869e-02 6.4304202059438167e-03 -3.0811285950035464e-02  -1.1372535437391439e-02 -5.8756391058082244e-03 -4.1119737440464280e-02  -1.0641949798170363e-02 -4.5473579108704009e-03 -3.5756703040716563e-02  -1.2499098401414338e-02 4.5838648745325395e-04 -2.7162276046957628e-02  -1.0521224217298057e-02 -1.0813391639243754e-02 -3.8280898707835145e-02  -9.7103003967987604e-03 -9.8072859487074622e-03 -3.2617371065330109e-02  -1.1818164724472963e-02 -5.3884885278270844e-03 -2.2839964669609969e-02  -1.8677372009590978e-02 1.1469445347228475e-01 -7.8595556410333643e-03  -1.6598244596755362e-02 1.0443550152734449e-01 -1.0415849327484090e-02  -1.8349892462392256e-02 9.4722633770111614e-02 -1.4611956807853994e-02  -1.8438806624186451e-02 8.7430036030130276e-02 -5.7312865419709451e-03  -1.7081353938803667e-02 9.7787000646777811e-02 -1.2032609577322284e-03  -1.9039662467785504e-02 1.0887083142607511e-01 2.1158712321072384e-03  -1.8484163203907243e-02 8.0866175630878237e-02 2.8471076029092553e-03  -1.7475275287003048e-02 9.1699061136295570e-02 7.6098573050052713e-03  -1.9319548298427931e-02 1.0348784620928676e-01 1.1561008287195557e-02  -1.8517811923796836e-02 7.4702705727377736e-02 1.1397652694127567e-02  -1.7822743862246228e-02 8.5923266212554736e-02 1.6344826239065757e-02  -1.9559431199666740e-02 9.8303515247644246e-02 2.0851187660068018e-02  -1.8563380258837036e-02 6.8729606043836156e-02 2.0171667163832421e-02  -1.8163829316973124e-02 8.0277953795962198e-02 2.5271208897680170e-02  -1.9797197066897955e-02 9.3141707185222758e-02 3.0287069435588440e-02  -1.8652353333907239e-02 6.2799046182769547e-02 2.9356950072865574e-02  -1.8540896360334794e-02 7.4631890522794592e-02 3.4623063676411076e-02  -2.0072645945062667e-02 8.7877732091910452e-02 4.0133780482355982e-02  -1.8816121595893090e-02 5.6819118078756996e-02 3.9113515037584638e-02  -1.9010251520118121e-02 6.8893363866323956e-02 4.4601231401851890e-02  -2.0423964742211552e-02 8.2450876740730664e-02 5.0626847429071711e-02  -1.2881236680160207e-02 7.0409663436151571e-02 -1.3485251269985826e-02  -1.3184285663763626e-02 6.2471919263712879e-02 -7.7273877762042403e-03  -1.3431276825975827e-02 5.5518993707330627e-02 -1.8562833711496455e-03  -1.3594558972067404e-02 4.9080972775755093e-02 4.2641518190664213e-03  -1.3655749710435450e-02 4.2923136543077119e-02 1.0745816650702648e-02  -1.3572387759332276e-02 3.6884182116047513e-02 1.7701775152190565e-02  -1.3289674056833541e-02 3.0842319632651511e-02 2.5269278462238257e-02  -1.7104533084470557e-02 1.2600129771301072e-01 -4.4444620807161670e-03  -1.7849445235958817e-02 1.2098465156726730e-01 5.6385065713195808e-03  -1.8459049428233676e-02 1.1621172952396988e-01 1.5134825047095766e-02  -1.8999174773053153e-02 1.1152974732258270e-01 2.4411020403950857e-02  -1.9524403763823250e-02 1.0679534743104195e-01 3.3786165856308205e-02  -2.0086834470926001e-02 1.0189582706479118e-01 4.3553114507200064e-02  -2.0732190613435099e-02 9.6754488257690327e-02 5.3986037930106277e-02  -1.5368070302461647e-02 3.6698820090118996e-02 -3.4539033542953061e-02  -1.4629441222590826e-02 2.8728263773422219e-02 -3.3699103656352550e-02  -1.3958768900761753e-02 2.1586758990577257e-02 -3.1990321162839043e-02  -1.3288176969976027e-02 1.4986873900909138e-02 -2.9506719197712184e-02  -1.2593502033173838e-02 8.7104123220790568e-03 -2.6341034181749327e-02  -1.1852696522468904e-02 2.6154316150051311e-03 -2.2529378115713487e-02  -1.1046150927342548e-02 -3.3830888826011803e-03 -1.8044913688897636e-02  -1.9189358504501219e-02 2.7326362821135885e-02 -4.8782830944915874e-02  -1.8420381597511762e-02 2.2646874661063847e-02 -4.9766624844221632e-02  -1.8484588170281507e-02 1.5106209071823277e-02 -5.6328608115520200e-02  -1.7429359459958809e-02 1.6319835090057529e-02 -5.0811534144400372e-02  -1.1649760604992489e-02 7.7032300109641794e-02 -7.3049478587037765e-03  -1.2202106322981795e-02 6.9629522969293506e-02 -1.1576461329412078e-03  -1.2669208124937891e-02 6.2971031972603092e-02 4.9245352563454360e-03  -1.3024680080056970e-02 5.6789422746715092e-02 1.1178588660816297e-02  -1.3246378760803050e-02 5.0891304814052907e-02 1.7712446800555805e-02  -1.3294746370227725e-02 4.5132134048426684e-02 2.4609254157112421e-02  -1.3091786211952757e-02 3.9369573355534052e-02 3.1984879369883881e-02  -7.5442645086172969e-03 3.6862646605464747e-02 8.9166600590724848e-04  -8.2058290475425649e-03 3.3136721443423729e-02 -6.9088560236642265e-03  -6.6767106804546663e-03 2.4890209842771158e-02 -1.0818077943264883e-02  -8.8335774632872684e-03 4.0889327270685873e-02 -8.5030898920897078e-03  -5.5864768183223239e-03 1.8027256753058753e-02 -9.5299765676140433e-03  -6.7806013849377620e-03 2.9629984816319437e-02 3.5730878598387774e-03  -7.5245816462115554e-03 2.6000824783872452e-02 -4.7041470735675363e-03  -4.4101457955190793e-03 1.1556361086002246e-02 -7.6655062086256991e-03  -1.9293959016136349e-02 5.7417361993133700e-02 1.3755314366432306e-02  -1.8191665486235697e-02 3.5345560189966971e-02 -5.7022753846400285e-04  -1.7483472801485780e-02 3.3653785614113411e-02 -9.0813245114852227e-04  -1.9693477148987601e-02 6.3818011130522337e-02 5.3333949898323333e-03  -1.7939222371811999e-02 4.0591996183593715e-02 -7.7980511664171451e-03  -1.7593993241967365e-02 2.8629983576848893e-02 6.9976556289027261e-03  -1.8907655361051243e-02 5.1093721106860827e-02 2.2576123689407174e-02  -1.7069736978468277e-02 2.6871820673221126e-02 6.4332051880570257e-03  -1.7011709922010895e-02 2.1944688055266927e-02 1.5009210364634469e-02  -1.8558257242307898e-02 4.4770185743139332e-02 3.1909416216943702e-02  -1.6720252868721270e-02 2.0133278343204618e-02 1.4238295955608294e-02  -1.0432693734921597e-02 1.0988574608758989e-01 4.1589496553114582e-03  -1.1742658016313058e-02 1.0496975463049649e-01 1.2465776381327896e-02  -1.2878659781945028e-02 1.0039865515636934e-01 2.0446560778333376e-02  -1.3916719375858614e-02 9.6014371537193846e-02 2.8358226419654381e-02  -1.4874059103890204e-02 9.1704882349628286e-02 3.6413522963254730e-02  -1.5752170789822349e-02 8.7405224991143046e-02 4.4797246760097761e-02  -1.6494313722472138e-02 8.3131678845628831e-02 5.3622933853166944e-02  -1.8138093610249997e-02 7.3363527853387303e-02 -2.1459587186101445e-02  -1.7437204732265930e-02 5.4865165567607198e-02 -2.9683042253835008e-02  -1.8408033559474863e-02 5.6970957588335584e-02 -2.9597863989777633e-02  -1.7850440124584286e-02 4.8036004389494125e-02 -2.5091640520795450e-02  -1.6946304767782375e-02 4.6050371538381936e-02 -2.5526999702243754e-02  -1.7898369829245590e-02 6.4912985416864966e-02 -1.4563837894503703e-02  -1.7346415180718902e-02 4.0041096895969082e-02 -2.0129791392231838e-02  -1.6487084644993138e-02 3.8217707280812821e-02 -2.0875705028898021e-02  -1.7681574115647150e-02 5.7469264110395733e-02 -7.5838268968846734e-03  -1.6865685154242211e-02 3.2677587927317078e-02 -1.4703094392657948e-02  -1.6062575952388230e-02 3.1003385537827655e-02 -1.5713375983195534e-02  -1.7472489083342046e-02 5.0548704937883250e-02 -3.5087153420893761e-04  -1.6418129176763066e-02 2.5684503929592123e-02 -8.8059365757824377e-03  -1.5668337807075106e-02 2.4150306725227201e-02 -1.0036623564676555e-02  -1.7289218193342133e-02 4.3915094738872625e-02 7.2535682181356313e-03  -1.6026208905612443e-02 1.8895646090637271e-02 -2.4194293325591927e-03  -1.5319508520968281e-02 1.7497164487395890e-02 -3.8303269900110564e-03  -1.7158048543006899e-02 3.7408467649328814e-02 1.5324733687421745e-02  -1.5722838989277333e-02 1.2211038571939460e-02 4.4961861847743825e-03  -1.5042789374368900e-02 1.0977076017370116e-02 2.9629732706210822e-03  -1.7116168443024229e-02 3.0906760659385746e-02 2.3912911342737184e-02  -1.6135848376390989e-02 6.3646994964209558e-02 -2.4566835708579420e-02  -1.5739466794731982e-02 4.6459649551162170e-02 -3.0515617480083929e-02  -1.6617864921427188e-02 4.6531583174711608e-02 -3.1838625525142605e-02  -1.6023201549746270e-02 3.7813627971237058e-02 -2.9102294770336594e-02  -1.5218868293202556e-02 3.7917949707950878e-02 -2.7918963223074540e-02  -1.5960323890990794e-02 5.4886549318474052e-02 -1.9251123361253671e-02  -1.5494448662850577e-02 3.0161130226894432e-02 -2.5523731400931362e-02  -1.4742992004006555e-02 3.0355093152636473e-02 -2.4552512169525580e-02  -1.5783387563627169e-02 4.7200570191891479e-02 -1.3741157331111526e-02  -1.4985478055864950e-02 2.3094459589769068e-02 -2.1342734057264733e-02  -1.4270530757894006e-02 2.3382330851836993e-02 -2.0570353078111694e-02  -1.5599979201451626e-02 4.0139407060698615e-02 -7.8536470087389783e-03  -1.4493846725036159e-02 1.6370993769623456e-02 -1.6578338522777940e-02  -1.3779905574265089e-02 1.6752616512088345e-02 -1.5994999219572672e-02  -1.5413875269003714e-02 3.3431883650454096e-02 -1.5139669646594732e-03  -1.4026116017074920e-02 9.8402045417005108e-03 -1.1221160624555502e-02  -1.3266595771251074e-02 1.0305925359643215e-02 -1.0816282830671316e-02  -1.5234728327951856e-02 2.6904727750503028e-02 5.3536232128649081e-03  -1.3589418073473882e-02 3.3886459218401437e-03 -5.2896501654682631e-03  -1.2748733255973092e-02 3.9421829592022704e-03 -5.0111951582461085e-03  -1.5089707217011521e-02 2.0469522858894747e-02 1.2877461289334570e-02  -2.0905013044799928e-02 8.5541724359900401e-02 -1.9197256155281082e-02  -1.9388922164244322e-02 8.3483533732312459e-02 -1.8700759128413350e-02  -1.9404877738376104e-02 6.4550035646709719e-02 -2.6241672297987604e-02  -1.9186784832975732e-02 7.5625731998305856e-02 -1.0496745157666562e-02  -1.8740877680632744e-02 6.2060698455067537e-02 5.5857901190157011e-03  -1.8535092293641250e-02 5.5739958667747211e-02 1.3973913153956271e-02  -1.8365652395700174e-02 4.9493657635082629e-02 2.2788613938359455e-02  -1.8246170762499330e-02 4.3234353184419975e-02 3.2120049359537196e-02  -1.0889411234149700e-02 9.3221043620903471e-02 1.1085761848989226e-03  -1.1908813891487955e-02 8.6634490870310998e-02 8.0483801922519201e-03  -1.2759575295240458e-02 8.0490828683373677e-02 1.4894028377155196e-02  -1.3474957658027475e-02 7.4674606806796953e-02 2.1768981762998105e-02  -1.4062410753280175e-02 6.9053108159979934e-02 2.8830697200783080e-02  -1.4510502217750387e-02 6.3529734000558932e-02 3.6207577321388525e-02  -1.4783677127904640e-02 5.8044273226625281e-02 4.3922159067433214e-02  -1.6971243685712813e-02 7.0993587106124412e-02 -2.1801168014756119e-02  -1.6828320133088284e-02 6.2675399886974903e-02 -1.5357232191561545e-02  -1.6703975638221662e-02 5.5251643431265013e-02 -8.7019709894617069e-03  -1.6578613074219199e-02 4.8377827620005011e-02 -1.7968852258447138e-03  -1.6464903787011549e-02 4.1809748875228356e-02 5.4917251454667587e-03  -1.6388521747143669e-02 3.5384742820605670e-02 1.3280812483346199e-02  -1.6417099673563307e-02 2.8974633774347121e-02 2.1675449959095160e-02  -1.5114983279822044e-02 6.0189696185880139e-02 -2.3791966788363188e-02  -1.4983695201363716e-02 5.1564842077597484e-02 -1.9187281551426807e-02  -1.4815538734652425e-02 4.3907040448397668e-02 -1.4276381368713379e-02  -1.4637025011107701e-02 3.6870108074550288e-02 -8.9471121925654984e-03  -1.4424848584733939e-02 3.0186880195643875e-02 -3.1428617791447286e-03  -1.4163484633983963e-02 2.3681805038619771e-02 3.2080312574510003e-03  -1.3834127282857645e-02 1.7255958662222952e-02 1.0216484357544884e-02  -1.0782616493362707e-02 8.0349430413128212e-02 -9.3488414074575639e-04  -1.1566600617530473e-02 7.3307762614864061e-02 5.0168690937698254e-03  -1.2188924581556482e-02 6.6821993819121045e-02 1.0984288908942106e-02  -1.2661026893791049e-02 6.0733080761460514e-02 1.7094194106934191e-02  -1.2979215475353101e-02 5.4883964998891449e-02 2.3447172069820589e-02  -1.3104872352283839e-02 4.9152497375368781e-02 3.0110179788708110e-02  -1.2940142073341052e-02 4.3488464879995609e-02 3.7078578113400623e-02  -1.1136437070296587e-02 6.2276438941687051e-02 -9.5063021181654769e-03  -1.1475310774772087e-02 5.4317757201690561e-02 -5.3975835523903792e-03  -1.1640720550030181e-02 4.7087574201590029e-02 -9.9793513843384396e-04  -1.1668136020727936e-02 4.0349020237831969e-02 3.7097839052738883e-03  -1.1519063268620393e-02 3.3911601311192155e-02 8.7794295743541893e-03  -1.1134182411053437e-02 2.7625375145051298e-02 1.4244875465019721e-02  -1.0384024049046639e-02 2.1390852929672816e-02 2.0079101916153634e-02  -1.3472646910158188e-02 6.2429082362181658e-03 -4.8905293070053493e-02  -1.4092016496505148e-02 4.7546681860131694e-03 -5.2464518935369978e-02  -1.2964842127264370e-02 8.1757365199128132e-04 -5.4167931109102167e-02  -1.4562511898087998e-02 1.1276365677760173e-02 -4.7830587265468918e-02  -1.5206109001378027e-02 9.2476354720512476e-03 -5.1336679015879814e-02  -1.1837627998180417e-02 -2.4828186861960023e-03 -5.4893734902709858e-02  -1.2431325584401106e-02 1.5216872071860605e-03 -4.9012406041147691e-02  -1.3041350624467152e-02 4.8006322840078865e-04 -5.2574636746871517e-02  -1.0384629397045058e-02 -7.2661094062463107e-03 -4.6876079917883250e-02  -1.1122225800007190e-02 -7.6001800737820020e-03 -5.0394015448338339e-02  -9.6525968474177500e-03 -8.7651921265788843e-03 -5.3899204648988785e-02  -1.1404483270604296e-02 -2.9582380237936088e-03 -4.8311742677297258e-02  -8.6699700577948305e-03 -1.1787105554246084e-02 -5.2304375201518878e-02  -9.4374820108808332e-03 -1.1483156989296476e-02 -4.4692307197156153e-02  -1.0283012203430919e-02 -1.1466983777622803e-02 -4.8260154965701289e-02  -1.4132578563264818e-02 7.2354748322007029e-02 -1.7036296694381090e-02  -1.3922846420757086e-02 5.8747666993039876e-02 -2.1024361295322005e-02  -1.3825364188651689e-02 5.0188010398695804e-02 -1.6995151306984854e-02  -1.4371467522902113e-02 6.4279069841021844e-02 -1.0899362234695623e-02  -1.4542818931317909e-02 5.7126936538941235e-02 -4.6837228269511763e-03  -1.3723182304242899e-02 4.2560134014319607e-02 -1.2534241556659798e-02  -1.4669910533320445e-02 5.0520440998433280e-02 1.7753044640412879e-03  -1.3571336716056624e-02 3.5550755243795550e-02 -7.6674183024515443e-03  -1.4738997158174038e-02 4.4215607575437951e-02 8.6087824003337008e-03  -1.3334865426464773e-02 2.8894032301593903e-02 -2.3402023105226653e-03  -1.4733541025781890e-02 3.8043215733549567e-02 1.5941878636617359e-02  -1.2974750883616102e-02 2.2412082338509064e-02 3.5163789808201097e-03  -1.4634056088192075e-02 3.1905584426922470e-02 2.3935897639924784e-02  -1.2422691197590985e-02 1.5986812543133073e-02 1.0004659908315375e-02  -9.5160895774117713e-03 9.7901007734563592e-03 -3.5625041426794568e-02  -1.0394246709239611e-02 1.5576538584596809e-02 -3.4398652486582276e-02  -9.4650341141277617e-03 1.8680107932817217e-02 -2.9512374673676765e-02  -8.6698111743733694e-03 1.2544551718929988e-02 -3.1133368220984867e-02  -9.7338135891552168e-03 1.0051077302227750e-02 -3.6564995842115137e-02  -8.6675108520162004e-03 5.2203049350592933e-03 -3.8355882785897966e-02  -7.7710396200124428e-03 7.0113265877977150e-03 -3.1527492699462839e-02  -8.8835773598468296e-03 5.0121735551987958e-03 -3.7582852575639938e-02  -7.7485795939692065e-03 9.3581884711530460e-04 -3.9956589573529794e-02  -6.7033251753260683e-03 1.7994420197628873e-03 -3.1136984798869265e-02  -7.8957331359063524e-03 2.6306439272901622e-04 -3.7750312267705366e-02  -6.6437226430113823e-03 -3.1095432935712101e-03 -4.0661763810867987e-02  -5.3821437130556838e-03 -3.2347880907029531e-03 -3.0079643861571595e-02  -6.6818766910358455e-03 -4.3204683681213165e-03 -3.7180996771013851e-02  -5.2886856762840518e-03 -7.0047568133766768e-03 -4.0621660689801296e-02  -3.7034778106380083e-03 -8.2012058976288771e-03 -2.8454808090641132e-02  -5.1236975965858467e-03 -8.8204812842070379e-03 -3.5959831086235725e-02  -3.5973014939161521e-03 -1.0834874912527721e-02 -3.9957952924402566e-02  -1.5959793713192798e-03 -1.3200209073066040e-02 -2.6383066643906012e-02  -3.0428169852138374e-03 -1.3305335468426204e-02 -3.4229282858979498e-02  -1.4896152791811614e-03 -1.4683250449398505e-02 -3.8708311942599639e-02  -1.5122610892448558e-02 1.1729708475490583e-01 -5.5089100940332661e-03  -1.3285005716131282e-02 1.1228688562895174e-01 -5.0596234584279563e-03  -1.4811130538602156e-02 9.9906571609989378e-02 -1.0612872784094890e-02  -1.5448747701365713e-02 9.3161129061493014e-02 -1.8543656081397211e-03  -1.4286016678720120e-02 1.0666473198513746e-01 4.0377551054074671e-03  -1.5987132962812321e-02 1.1185087843427721e-01 4.1074281032043797e-03  -1.5987313089971464e-02 8.6961071438653767e-02 6.5137027792635345e-03  -1.5151967384910604e-02 1.0144854559291511e-01 1.2752264955159583e-02  -1.6720692297472438e-02 1.0681879664427602e-01 1.3265375856807251e-02  -1.6466008404973052e-02 8.1137850735104239e-02 1.4846811336717209e-02  -1.5931681544513212e-02 9.6464128561513970e-02 2.1351172338629064e-02  -1.7381908568543016e-02 1.0196126170823758e-01 2.2282763330721999e-02  -1.6919450199256791e-02 7.5499097118877770e-02 2.3391824698759844e-02  -1.6675577468235676e-02 9.1562890165333852e-02 3.0107857673578993e-02  -1.8027640507020541e-02 9.7125833807163511e