<?xml version="1.0"?>
<VTKFile type="UnstructuredGrid"  version="0.1"  >
<UnstructuredGrid>
<Piece  NumberOfPoints="1036" NumberOfCells="4240">
<Points>
<DataArray  type="Float64"  NumberOfComponents="3"  format="ascii">10.89120664377067 4.113844853993423 0.9923997686974888  10.83845635050178 4.008594166425236 0.9226943936388814  10.77217775176884 4.138345705857528 1.018016856440448  10.76454197213542 4.189073856773939 0.9584616360840722  10.83303960429854 4.049856156087908 0.8552060096616328  10.88265015856132 4.162002603761521 0.9285440981659938  10.75728687263333 4.239697259625288 0.8992439783850347  10.82796489394984 4.091110124504421 0.7880594416845789  10.87451462896663 4.210035839606575 0.8650987932544891  10.75031672766627 4.290121856844523 0.8403215102117338  10.82316189180318 4.132228712982715 0.7212736971349542  10.86667326837487 4.257844462271557 0.8020074874004868  10.7435116626241 4.340290995770124 0.7817006090095578  10.81845662736617 4.173158909723794 0.6548114739225905  10.85897885375239 4.305326735838661 0.7392715409271126  10.73667892496839 4.390190692406029 0.723426970722528  10.81376986975677 4.213961249338126 0.5887133585205394  10.85130076874424 4.352547234629028 0.6769220289782582  10.72941745948475 4.439670574299743 0.6654833615019531  10.80878383757522 4.254413224076732 0.5230271564568912  10.84330174393554 4.399315306573809 0.6149813071581555  10.71151990722335 4.043168749830587 0.9568038549299135  10.70485065318515 4.087477987637863 0.8935187551706726  10.69856243607851 4.131789383440235 0.830539691038461  10.69249085665298 4.175983498573603 0.767869501217339  10.68652832565394 4.22007898589764 0.7054765933464763  10.68049746354168 4.264032223140249 0.6433484553912823  10.67404998811983 4.307649294158229 0.5813909103865424  11.47791584296261 4.003118700952301 0.8740228665872284  11.3722953398243 3.978465775270532 0.8699036629768907  11.37904136788859 4.10683860381133 0.9334117247911181  11.37528628875238 4.1526720132861 0.8511586933871362  11.36953123108349 4.011491726594715 0.7837764445868729  11.47260903825902 4.037897842418194 0.7845558416407734  11.46754606756564 4.071995802329653 0.6960328619634885  11.36708257804611 4.044201341101598 0.6984494249086883  11.37174001515175 4.197874731306763 0.7700998364433718  11.4628375154502 4.105473724357366 0.6086859963547535  11.36509354808274 4.076569994247358 0.6140126828547827  11.36854393281642 4.242507034008684 0.6900559006578212  11.45859200985625 4.138690408075821 0.5225211164339574  11.36357280856607 4.10878997325571 0.5305882183890522  11.36574338920296 4.286447716274522 0.6108390209834644  11.36254128186764 4.140948430538304 0.4481108490533293  11.45465764620497 4.171647837808933 0.4374537392430664  11.36343355645199 4.329796211915153 0.5324200805450588  11.36221968321029 4.172896939013537 0.3665379490851193  11.45170814456725 4.204446461136603 0.3533284276933442  11.36174406169745 4.372577176800116 0.4551297104024916  11.1739757583279 4.086802749370673 0.9249134099423838  11.05667738104307 4.058779302425082 0.923279602259885  11.05364143595518 4.173479822643415 1.01310531172084  11.04413388008827 4.226427580768625 0.9478924742150583  11.04822122569639 4.101530002990765 0.8512347724112865  11.16634063633356 4.131224115309663 0.8498921153366548  11.0351199501697 4.279049642606948 0.8832472981298574  11.04026160885514 4.144142461585882 0.7797091384021069  11.1591503828668 4.175378608405638 0.7755265095447773  11.02652093822623 4.331180811166938 0.8190931040913649  11.03258871771954 4.186447410883351 0.7086803100913401  11.15223311926288 4.219102845119864 0.7017749618710556  11.01807722308651 4.382829123241505 0.7553414493087025  11.02498924749939 4.228381641714325 0.6381342031761941  11.14543508448536 4.262375638668021 0.628586884482994  11.00969515330966 4.433998866334234 0.6919968842291558  11.01742817560256 4.269966029996302 0.5680832384103125  11.13873585867922 4.305150927533568 0.5560048097265864  11.00111550818995 4.484745315185254 0.6291329230852437  11.00979786067929 4.311194766490378 0.4985646163938792  11.13208753746154 4.347487935066356 0.4841472698035937  10.74876089847245 3.94915651307609 0.8939474617986947  10.6324966731378 3.930011763891823 0.8942396114288712  10.62747009302633 3.96653613917826 0.827265241402291  10.74399711111163 3.986427799953603 0.8257835018532294  10.73958654535454 4.02373817712426 0.7579743710025364  10.62280603142874 4.00314671426714 0.7606084943824587  10.73536947491991 4.06099700817744 0.6904485074505515  10.61832417773047 4.039764459200968 0.6941721061191282  10.73125500443526 4.098234041736821 0.6232035552460737  10.61395556840671 4.076437459029695 0.6279562427818498  10.72706877938715 4.135377023194204 0.5562471230567434  10.609464986437 4.112987534246306 0.5619235696292592  10.72244583577395 4.172178013834615 0.4895458253199138  10.60460800424038 4.14921553020435 0.4960554435512169  10.59813569376975 4.070543356058357 0.987078191790894  10.59071253183514 4.117362057732481 0.9272355138604951  10.58364472897117 4.164178031200425 0.867658467564883  10.57679874295857 4.210921561203298 0.8083058934916338  10.57007276118012 4.257616776870304 0.7491748403251995  10.56323817007321 4.30412068614754 0.690222523722747  10.55601829386584 4.350300107409869 0.6313874714536349  11.28244408013254 4.072668651570045 0.9121103533006284  11.28005277300833 4.113268819575355 0.8310435269247942  11.27785796018345 4.153501268760531 0.7508962357239995  11.27605948433504 4.19334959358532 0.6715336030618015  11.27460014291914 4.232791918291049 0.5929484200368806  11.27356709571348 4.271832234587762 0.5150849193808094  11.2728129842821 4.310514011722198 0.438078819065827  10.51001186032786 4.149838112807871 0.6830622485399475  10.50326583014895 4.191120197459775 0.6206735663303385  10.49614262560211 4.232078894619485 0.5583342125340891  11.27721906570756 4.184638783808762 0.9820824976447833  11.17033155184356 4.189892376151532 1.008577236115099  11.15775682280691 4.244570968988793 0.9407154114983027  11.27101772882739 4.237592122607333 0.9078420797191689  11.14594921821055 4.298715050024126 0.8737157190667207  11.26521741559537 4.289996097780232 0.8345800516839543  11.13445591108228 4.352223478904199 0.8072566422099561  11.25984941644975 4.341687075594322 0.7620040856351173  11.2547268331773 4.392625665186967 0.6899288894723863  11.12305067812137 4.405049370779831 0.7413464193934655  11.2497472200575 4.442719884813129 0.6183508178239663  11.11160410596701 4.457201666467034 0.6758393515782649  11.24495113212394 4.492335028651569 0.5474140401419217  11.10015790007011 4.508770740955078 0.6110375804977806  10.73254841932159 4.203526442396145 1.097004067805446  10.57713041732082 4.203586235022156 1.123850035479796  10.69279138501317 4.275925435914411 1.183273728647052  10.68174135928759 4.337147131989481 1.138273467676821  10.56630673860981 4.26067138454108 1.075565086433737  10.72239847099598 4.259947159881982 1.044719670895101  10.67118523305495 4.398139192094488 1.09355352040499  10.55591556404261 4.317626947904211 1.027534400545151  10.71271299855997 4.316184566024127 0.9927345834675934  10.66094661499174 4.458807336396791 1.049033980314529  10.54577715345657 4.37438530889809 0.9796934195681296  10.70333943246306 4.37216355463818 0.9410158263852878  10.6508387442194 4.519100817505812 1.004678308283305  10.53574146191599 4.430926633926262 0.9320137825115704  10.69411674695456 4.427830170987884 0.8895421747512195  10.64065103564234 4.579027534297078 0.960520216687633  10.52563065339685 4.487216660249923 0.8844881880848765  10.68486330993299 4.483198306165804 0.8383291788630945  10.6300383533633 4.638532337432886 0.9165672846349172  10.51515298806631 4.543126518358564 0.8370977105867931  10.67519628863051 4.538120363994598 0.7873801961968921  11.463981502974 3.316609612104434 0.8195454816880586  11.34686505564315 3.311228099759348 0.810327781299185  11.34773837954865 3.432646528384613 0.796512096972129  11.35384799780356 3.428439110420911 0.7135149389092847  11.35354052891953 3.300191583855344 0.7301022639155678  11.47060339880916 3.304840898242374 0.736836302739368  11.3597479716618 3.42424198588288 0.6308268534389486  11.3599016762085 3.28933948783983 0.6500602584781214  11.47684426570543 3.292912212535971 0.6542439746791174  11.36543240925791 3.42018892147241 0.5483693935852272  11.36594845692681 3.278626691637834 0.5701417567325884  11.48278854502053 3.280932023739475 0.5717283273578303  11.59346506746749 3.886564994141732 0.8316435435560761  11.47800920044026 3.880605414431695 0.8407426721807149  11.47551110791438 3.902915835739474 0.7489216671901819  11.58872363384573 3.907093789181672 0.7352836825319318  11.47298037034272 3.92455657431624 0.6580329486702673  11.583861645083 3.925943550720591 0.6398699561132021  11.47085858016383 3.945809481909273 0.5680483870937851  11.57930977189483 3.944164178172117 0.5455270139139168  11.46941730443678 3.967192169713055 0.4790681387244151  11.57536487445918 3.962621288943062 0.4521370065010414  11.46816701999639 3.98864354743655 0.3910301606285965  11.57138428746894 3.981286687621159 0.3595305833120773  11.46694538201392 4.01077559125528 0.3037729300506535  11.5670350452902 4.002045550912146 0.2679153251834334  10.65899059736529 4.133889350968746 1.037301634745002  10.65029031442195 4.186590446422795 0.9819185385600229  10.64202749920212 4.23914216138953 0.9269156823399169  10.63402060507073 4.291521541710414 0.8721721304237892  10.62614119656561 4.343722761159435 0.8176631016363625  10.6181948201267 4.395701927513326 0.7633823182640216  10.60986300277803 4.44729280978727 0.7092459879010546  10.97578828881896 4.106923400313238 0.9720431130934467  10.96540465201224 4.155665861767723 0.9064421046365325  10.95552626594967 4.20419585781544 0.8413435245726423  10.94594102488847 4.252415407083216 0.7766524152974085  10.93646624528913 4.300257550438884 0.712343352075466  10.92699154073378 4.347755051918853 0.6484706103053173  10.91728026736489 4.394746814027331 0.5851594360832126  11
[...]
<PointData  Vectors="f_24"> 
<DataArray  type="Float64"  Name="f_24"  NumberOfComponents="3" format="ascii">-8.3728860875314670e-02 -6.3856740580045890e-03 1.8435857572876458e-02  -8.2964087437096656e-02 -1.1006736650552676e-02 1.9701098311731023e-02  -8.1371515081325424e-02 -5.1177103758610638e-03 1.9835455267701335e-02  -8.1785658140966014e-02 -6.9327919150722252e-03 1.8407541760639794e-02  -8.3560603559461127e-02 -1.2149606238916975e-02 1.9424692802421831e-02  -8.3927444140690269e-02 -8.2798535610409257e-03 1.7632653715707262e-02  -8.2000104516509464e-02 -8.4163968691522047e-03 1.6761469759915402e-02  -8.3822648185578552e-02 -1.3062099642334988e-02 1.8698711295226888e-02  -8.3955249336618284e-02 -9.7555664983104817e-03 1.6509100053467517e-02  -8.2188328782375517e-02 -9.9612950836327260e-03 1.4844605527958016e-02  -8.4107199887346315e-02 -1.3828535885772895e-02 1.7743520190266409e-02  -8.3944350561653697e-02 -1.1160828522560749e-02 1.5054609107352462e-02  -8.2477141877101937e-02 -1.1530696913156667e-02 1.2668132719372439e-02  -8.4497903710286107e-02 -1.4496526809643532e-02 1.6599904066786620e-02  -8.4030635356790062e-02 -1.2530446167439768e-02 1.3344977098436461e-02  -8.2962717986662146e-02 -1.2958595705090434e-02 1.0199883523755541e-02  -8.5079256932981184e-02 -1.5000617205011252e-02 1.5201101713459125e-02  -8.4328175948237286e-02 -1.3771191783660540e-02 1.1359991689270802e-02  -8.3660311728717476e-02 -1.4321616679554677e-02 7.5375273635829871e-03  -8.5951689354393762e-02 -1.5329171648493286e-02 1.3613812662310041e-02  -8.4950515392686790e-02 -1.4870005966224517e-02 9.1425588265508055e-03  -8.0927925306280263e-02 -8.9682072354062559e-03 2.1276354446867169e-02  -8.1298029889238094e-02 -1.0559460499225227e-02 2.0663248077683730e-02  -8.1568657016952734e-02 -1.1813982410372396e-02 1.9689075379462722e-02  -8.1945845015027802e-02 -1.2969158265054816e-02 1.8434184170123914e-02  -8.2436344850042267e-02 -1.4041233753195125e-02 1.6913959115136754e-02  -8.3111572578017018e-02 -1.4921152269524274e-02 1.5075347747450342e-02  -8.4011054253772907e-02 -1.5654998092066285e-02 1.3003747879161970e-02  -1.0020511151989241e-01 -1.6619158691530935e-02 1.6685035818930338e-02  -9.6664976703848021e-02 -1.6086849640144941e-02 1.5434483252848949e-02  -9.6368353384507527e-02 -1.2023828708213018e-02 1.7320271721086043e-02  -9.4842425197732436e-02 -1.3171303318210759e-02 1.6391487287860468e-02  -9.5513681248797153e-02 -1.6073334534359354e-02 1.4933287011373883e-02  -9.7658838024865496e-02 -1.6727972808259627e-02 1.6064454209940876e-02  -9.4656402002061144e-02 -1.7108573149450097e-02 1.5545761821641281e-02  -9.3603908043464787e-02 -1.6296138044041102e-02 1.4427992190888073e-02  -9.2593142379245194e-02 -1.4265339404014388e-02 1.5377204678667279e-02  -9.1974777980479802e-02 -1.7290630402043258e-02 1.5230657234473760e-02  -9.1719400595221823e-02 -1.6317884695532442e-02 1.4089110168907123e-02  -9.0337112072126011e-02 -1.5279531111667414e-02 1.4421159297254068e-02  -8.9693103020401607e-02 -1.7176558218713219e-02 1.4971029361225428e-02  -9.0047533366583943e-02 -1.6081921554137065e-02 1.3825590911608945e-02  -8.8311571830863758e-02 -1.6195910364336447e-02 1.3476853468952820e-02  -8.8616420744741492e-02 -1.5632840576251646e-02 1.3493809631962176e-02  -8.7755269059220417e-02 -1.6795277717434689e-02 1.4618980010751060e-02  -8.6544765052872646e-02 -1.6976484656602404e-02 1.2450925723040841e-02  -8.7393974719544534e-02 -1.5013593500409565e-02 1.3187155655893686e-02  -8.5981278115107806e-02 -1.6176514213445872e-02 1.4258667876380873e-02  -8.5008980913553037e-02 -1.7630868348612855e-02 1.1394080875332590e-02  -9.0133932074543149e-02 -1.1576859253629539e-02 1.8224945848104745e-02  -8.7191128150351932e-02 -1.1388095244515974e-02 1.8561427543250790e-02  -8.7053082575118734e-02 -4.8778439267984823e-03 1.6975490357595793e-02  -8.6945295049631471e-02 -6.9187363451884065e-03 1.5690450364353046e-02  -8.7325394460496336e-02 -1.2256107802439924e-02 1.7610856421435499e-02  -8.9820925856622796e-02 -1.2435247792928063e-02 1.6948126352913578e-02  -8.6462728007346890e-02 -8.4864512418775639e-03 1.4187082885274455e-02  -8.7080429509095905e-02 -1.3001383713470628e-02 1.6442373852270379e-02  -8.9024625406358970e-02 -1.3187515029441476e-02 1.5583638846135155e-02  -8.5887185114530251e-02 -1.0046170738196950e-02 1.2368916879109688e-02  -8.6764341601858225e-02 -1.3707276708737242e-02 1.5252761914023253e-02  -8.8143526740125031e-02 -1.3920556721248506e-02 1.4292946407676197e-02  -8.5412501876256361e-02 -1.1628911341333164e-02 1.0339372162578036e-02  -8.6534961080234868e-02 -1.4359289079736409e-02 1.4008399427810167e-02  -8.7370175676879949e-02 -1.4633466346838235e-02 1.3005024123236829e-02  -8.5181466287118757e-02 -1.3132941438230983e-02 8.1102312682112977e-03  -8.6546165734093766e-02 -1.4904372809531389e-02 1.2650519750956360e-02  -8.6844193052069224e-02 -1.5277749811258559e-02 1.1670511981639027e-02  -8.5300646220629439e-02 -1.4570483570624253e-02 5.7696584494356471e-03  -8.6926502253367913e-02 -1.5407257797885958e-02 1.1298562009762921e-02  -8.6656224635569060e-02 -1.5883982244678442e-02 1.0411664607783607e-02  -8.1937345916983040e-02 -1.2691942854539612e-02 2.0836697345258403e-02  -8.0066119614241760e-02 -1.2908355414566320e-02 2.2623002201507578e-02  -8.0680992848508493e-02 -1.3876962000631972e-02 2.2486792268786984e-02  -8.2425494969909127e-02 -1.3541937479921560e-02 2.0639931601948412e-02  -8.2872506320999614e-02 -1.4218505694182175e-02 2.0090365936276253e-02  -8.1160484921336512e-02 -1.4609859671445461e-02 2.1967650660125942e-02  -8.3382112063957722e-02 -1.4717924997776083e-02 1.9353928418228521e-02  -8.1777982087765669e-02 -1.5137162054670262e-02 2.1205631248468367e-02  -8.4006085790489585e-02 -1.5076131113532523e-02 1.8416796436821530e-02  -8.2530686774142367e-02 -1.5511283436619958e-02 2.0208599397580653e-02  -8.4816068630750238e-02 -1.5228277569819272e-02 1.7192310991733392e-02  -8.3460720881728054e-02 -1.5667262025755010e-02 1.8904093270572991e-02  -8.5869567531238727e-02 -1.5204130125524419e-02 1.5810073256837937e-02  -8.4601247296247517e-02 -1.5611167061409201e-02 1.7357452162783362e-02  -7.8830063916921100e-02 -7.3297973865470122e-03 2.2794598930574273e-02  -7.9365387447255908e-02 -9.2480803474868593e-03 2.1682434620067491e-02  -7.9695681084140518e-02 -1.0710092768545445e-02 2.0327885856659005e-02  -8.0077787373214374e-02 -1.2113477653387645e-02 1.8666875833230252e-02  -8.0616281510608595e-02 -1.3450743778198564e-02 1.6720865526177610e-02  -8.1352759810286737e-02 -1.4581703192922986e-02 1.4447793282423099e-02  -8.2276844564480478e-02 -1.5594194703215941e-02 1.1956830665399928e-02  -9.3510806426710155e-02 -1.2615661326839882e-02 1.7288533846557545e-02  -9.2725914803460346e-02 -1.3519977394365883e-02 1.6274202388522729e-02  -9.1304061701181188e-02 -1.4295512991288251e-02 1.5218821284396703e-02  -8.9818892861904004e-02 -1.4966480802903769e-02 1.4285455076544417e-02  -8.8459250115629925e-02 -1.5525291038286539e-02 1.3403955834863191e-02  -8.7319199232322398e-02 -1.5957816595202307e-02 1.2476760370952989e-02  -8.6419834890795064e-02 -1.6314380730008349e-02 1.1583533516973306e-02  -8.0468641443036434e-02 -1.5324229899021697e-02 2.0275255192798408e-02  -8.1361422440129616e-02 -1.5949747832588037e-02 1.8488009882336696e-02  -8.2454841050178529e-02 -1.6408268095565736e-02 1.6493186869127176e-02  -9.2638632255679781e-02 -7.9090504092961499e-03 1.7415563402028402e-02  -8.9836294740004985e-02 -5.3502288101762155e-03 1.6702823712289115e-02  -8.9282842030264792e-02 -7.3500549298797947e-03 1.5275965053364791e-02  -9.1854125806146658e-02 -9.6482564986895558e-03 1.5729851074060889e-02  -8.8286085487830263e-02 -8.9629693457289657e-03 1.3627501444999699e-02  -9.0253025254601882e-02 -1.1052141117386038e-02 1.4030454801884144e-02  -8.7186351327692951e-02 -1.0520912607701225e-02 1.1731708628694241e-02  -8.8570247579568051e-02 -1.2512408678020543e-02 1.2306028986035358e-02  -8.7040072107585201e-02 -1.4000171449466489e-02 1.0529721652610924e-02  -8.6227482086341373e-02 -1.2103630897993723e-02 9.6575780994563286e-03  -8.5755689098636276e-02 -1.5433644966307922e-02 8.6763755261874218e-03  -8.5543298391627248e-02 -1.3630477433914512e-02 7.4315070492453296e-03  -8.4734591219760846e-02 -1.6832427075959923e-02 6.8159073524045244e-03  -8.5248429354169972e-02 -1.5113166872183214e-02 5.1499984083377632e-03  -8.0769419329757355e-02 1.6292466685844983e-03 1.7688267954133627e-02  -7.8764784476638622e-02 2.9778082880939729e-03 1.9132784998743164e-02  -8.0468909301299810e-02 8.2831788696603927e-03 1.5777799412400182e-02  -8.0814337108076090e-02 5.8769589327858961e-03 1.2928206481079946e-02  -7.8946615830415928e-02 4.1977845538844992e-04 1.6944829975973699e-02  -8.1126938608447385e-02 -1.0516668717019512e-03 1.5909175299910407e-02  -8.0848842475903487e-02 4.0026101937538161e-03 1.0103563810159076e-02  -7.8994663306553123e-02 -1.5174986969638956e-03 1.4629571463751134e-02  -8.1223475383389268e-02 -3.0378149695185863e-03 1.3971433164406665e-02  -8.0848131377070573e-02 1.9692938190703528e-03 6.8190358460760436e-03  -7.9101086164570192e-02 -3.4973571881374553e-03 1.1833431867897560e-02  -8.1290622158435924e-02 -5.0058734389820704e-03 1.1549513683392128e-02  -8.0984942572714533e-02 -2.2800394021971202e-04 3.0671586672501800e-03  -7.9371310038467605e-02 -5.5374905564440843e-03 8.6077739737566907e-03  -8.1471152057359705e-02 -7.0140899078486498e-03 8.7229088723283221e-03  -8.1336398115641390e-02 -2.3588877207916001e-03 -1.0848285654580304e-03  -7.9861079600507701e-02 -7.4404065526593611e-03 4.9802733311104632e-03  -8.1854020435600916e-02 -8.9052293827040635e-03 5.5082666471126104e-03  -8.1877840271706956e-02 -4.4595465791136477e-03 -5.5081888296041230e-03  -8.0563629951958468e-02 -9.2298929699548664e-03 1.0749677115665353e-03  -8.2472362835563265e-02 -1.0659214793137743e-02 1.9835736679214852e-03  -1.0073451441540372e-01 -3.2529937804746917e-02 -2.1006003076936487e-02  -9.8268877085266895e-02 -3.2020946153006255e-02 -1.9962125291303780e-02  -9.8738066231223734e-02 -2.8315886061671087e-02 -1.1483096604722702e-02  -9.8432225059341169e-02 -2.5113491621583051e-02 -1.1505230699228892e-02  -9.8267236991087040e-02 -2.8346779424389165e-02 -2.0155668579699804e-02  -1.0032377859446337e-01 -2.8554417283006894e-02 -2.1159152094084668e-02  -9.7780111449071783e-02 -2.2780286295332661e-02 -1.1607467858599748e-02  -9.7901042754085552e-02 -2.5761884478203011e-02 -2.0402725994580165e-02  -9.9594415836522315e-02 -2.5932462620611465e-02 -2.1288980141084362e-02  -9.7289562567466445e-02 -2.0064167829799862e-02 -1.1678119630293689e-02  -9.7688999112807332e-02 -2.2901709415209231e-02 -2.0688405154849258e-02  -9.9047541441673978e-02 -2.3081313228507840e-02 -2.1463065208405109e-02  -1.0435135454305161e-01 -2.0302673511846284e-02 1.4338331284069861e-02  -1.0091463594157699e-01 -1.9332349640936365e-02 1.2341105584281213e-02  -9.8814258816416214e-02 -1.8425235190690569e-02 1.2430181228189950e-02  -1.0061643727794420e-01 -1.9474971115779033e-02 1.4303040422695605e-02  -9.6169613556387548e-02 -1.8085103383424440e-02 1.2397451635314477e-02  -9.6923569259720399e-02 -1.9256446455886755e-02 1.4172834440784713e-02  -9.3814561735729343e-02 -1.7402803322721195e-02 1.2481823184083517e-02  -9.3912950519277366e-02 -1.8504422568613271e-02 1.4155258976603472e-02  -9.1834638781427544e-02 -1.6248161054544408e-02 1.2626656957356873e-02  -9.1473927858536516e-02 -1.7147463746149356e-02 1.4170222582942317e-02  -9.0173248235273354e-02 -1.4729379192219554e-02 1.2681566319385966e-02  -8.9433879844070044e-02 -1.5364949200326883e-02 1.4057592463702738e-02  -8.8663480973367292e-02 -1.2937164225531169e-02 1.2697839174866757e-02  -8.7453527966693326e-02 -1.3193802137510575e-02 1.3926482810181134e-02  -7.9545893771370058e-02 -3.5019225443257392e-03 2.0622071003821373e-02  -8.0015735009404565e-02 -5.7339466906583259e-03 1.9162404478645752e-02  -8.0252804986888512e-02 -7.4372020644386944e-03 1.7492924988539563e-02  -8.0490449580184503e-02 -9.1023351778850674e-03 1.5435537758021478e-02  -8.0869410311680073e-02 -1.0762435559048626e-02 1.3032374257457622e-02  -8.1429074779673580e-02 -1.2269142123606538e-02 1.0267849009082852e-02  -8.2200214590357104e-02 -1.3629346137526919e-02 7.2525106130500935e-03  -8.5360469503216810e-02 -7.6471357702077181e-03 1.7983503228331029e-02  -8.5511350936060604e-02 -9.3456851478132402e-03 1.7232078373760396e-02  -8.5302205776831522e-02 -1.0623972636364713e-02 1.6089985344342406e-02  -8.5095660268805370e-02 -1.1847601119891188e-02 1.4681594771188262e-02  -8.4989587128387875e-02 -1.3051677105307954e-02 1.3058845576080461e-02  -8.5125679522307249e-02 -1.4140670971767038e-02 1.1194504671236699e-02  -8.5645885056033502e-02 -1.5119563475425177e-02 9.2041849872888243e-03  -9.5732340249046907e-02 -2.7812761484395897e-02 -1.0161615860250547e-02  -9.6000005858371235e-02 -2.4702068891504649e-02 -1.0158001184879457e-02  -9.5814585348222139e-02 -2.2462958559895645e-02 -1.0278971550669128e-02  -8.8453174629447504e-02 -1.6564947712394636e-02 1.4173076354898435e-02  -8.5555603133680963e-02 -1.4031051940251095e-02 1.7250566243196562e-02  -8.7887463054347623e-02 -1.4050226400051793e-02 1.6486989340936526e-02  -8.8069864599411338e-02 -1.4432247994074681e-02 1.6406645949468807e-02  -8.5983906116816097e-02 -1.4403509570240594e-02 1.7401207111865893e-02  -8.8792717425860077e-02 -1.6234271514493973e-02 1.4332112043500883e-02  -8.8006012820060806e-02 -1.4747999146098855e-02 1.5951429916438633e-02  -8.6242094770270797e-02 -1.4758447554017269e-02 1.7103924885240752e-02  -8.8861373108757344e-02 -1.5954253885558885e-02 1.4150413021759513e-02  -8.7916458002372147e-02 -1.4840799969042324e-02 1.5420061427720264e-02  -8.6494170430940709e-02 -1.4867882810431731e-02 1.6647137644172597e-02  -8.8953376204591095e-02 -1.5389519999041775e-02 1.3915488616135020e-02  -8.7904145957714480e-02 -1.4737717081969916e-02 1.4831619061416688e-02  -8.6823937479600349e-02 -1.4784756376681380e-02 1.6063765150646440e-02  -8.9143446619989061e-02 -1.4548263374733932e-02 1.3656695925544693e-02  -8.8101991199270188e-02 -1.4463873250162299e-02 1.4094983405537847e-02  -8.7354816939391428e-02 -1.4507971180087759e-02 1.5281438404392568e-02  -8.9526283437642601e-02 -1.3502818960103587e-02 1.3263464470375342e-02  -8.8666184068434267e-02 -1.4059276668275203e-02 1.3298375642463535e-02  -8.8241158762398117e-02 -1.4061979714028510e-02 1.4380935178109783e-02  -9.0257630133007749e-02 -1.2305252473801711e-02 1.2816900137985436e-02  -8.5861503154050611e-02 -1.6381129229048587e-02 1.5446974891546315e-02  -8.6415948303176615e-02 -1.6116317854710450e-02 1.5749808117855351e-02  -8.6813508045959456e-02 -1.5893534554960606e-02 1.5663559954328617e-02  -8.7260348633038637e-02 -1.5385517938191297e-02 1.5469484873841021e-02  -8.7817502875774597e-02 -1.4620524126118006e-02 1.5184483554038442e-02  -8.8562615196509681e-02 -1.3635046149082265e-02 1.4700338260303874e-02  -8.9612103227789855e-02 -1.2454213434829647e-02 1.4105837040214323e-02  -9.5589150388854946e-02 -3.1267593174043803e-02 -1.7911184972495636e-02  -9.5967377827152395e-02 -2.7795287764008629e-02 -1.8233971081861013e-02  -9.5991725054654170e-02 -2.5293334007193673e-02 -1.8572577383941732e-02  -8.4912940745615464e-02 -3.2709082049336199e-03 1.7556775254339203e-02  -8.4863552481688115e-02 -5.2439320589570664e-03 1.5817202077717286e-02  -8.4642523199517219e-02 -6.8339231878066318e-03 1.4002945691989573e-02  -8.4365800356837384e-02 -8.5186863878033044e-03 1.1925944359101714e-02  -8.4195687258267302e-02 -1.0271336146805745e-02 9.6069769654878751e-03  -8.4266137028338961e-02 -1.1942578935853121e-02 7.0407952534012252e-03  -8.4671687727435330e-02 -1.3562781435537909e-02 4.3389242479372203e-03  -7.3650873226345864e-02 -9.4131696173169431e-03 3.8818727079179957e-03  -7.6069989791519008e-02 -1.1897938707001596e-02 7.1151115320433334e-03  -7.4663468775767558e-02 -3.7155740337581804e-03 -1.9580223766435230e-03  -7.5356104602752189e-02 -1.0352167588009407e-02 1.1114522896622568e-02  -7.5275679178189031e-02 -1.4593214242950504e-02 1.1227491787125218e-02  -1.0723458784416942e-01 4.3637836607784844e-03 1.8582130716464307e-02  -1.0360148321995584e-01 5.9877658639801486e-03 1.6555302746418112e-02  -1.0376226225598621e-01 1.8947347345803011e-02 1.4398154899321617e-02  -9.9892785240094276e-02 1.6357394015516023e-02 8.0859354205735558e-03  -9.8881040433464226e-02 3.3885283551798170e-03 1.1758618616335037e-02  -1.0082406231697433e-01 1.9826593308917614e-03 1.3654368149059206e-02  -9.6149220442180217e-02 1.4520439527192898e-02 3.3203453050322548e-03  -9.4428973107120076e-02 1.1213376026074583e-03 7.8063491730293796e-03  -9.5711189402949898e-02 3.5638495849545250e-04 9.4193794730862319e-03  -9.2819343488899447e-02 1.2541192995466313e-02 -1.7464788735927067e-03  -9.0539765218157139e-02 -1.4457272128093029e-03 3.5391000467672367e-03  -9.1350926148946604e-02 -1.6336965842830360e-03 4.6760826942663560e-03  -8.9770736789889463e-02 1.0185738646527023e-02 -7.5998573160311438e-03  -8.7072318686864783e-02 -4.3416980736633547e-03 -1.2906663623307212e-03  -8.7401332156353900e-02 -4.2370550993773856e-03 -7.7118039309249584e-04  -8.6976205009905494e-02 7.5957666507100573e-03 -1.4058544516138052e-02  -8.3908121834277399e-02 -7.3436798121953202e-03 -6.5039021438404654e-03  -8.3808559204451544e-02 -7.0023228872319885e-03 -6.7465198047380126e-03  -8.4276541688233120e-02 5.0082877952508792e-03 -2.1036561543901055e-02  -8.0833793208465510e-02 -1.0372097902959862e-02 -1.1996688345129175e-02  -8.0339159102449584e-02 -9.8225070214078315e-03 -1.2982578578158606e-02  -8.7716372388014718e-02 -2.3191413781707679e-02 1.8149940392655384e-03  -8.5403258755904043e-02 -2.3518789016763630e-02 2.5654424770521289e-03  -8.5044307106629941e-02 -2.0877803692560225e-02 8.5607628472246407e-03  -8.5975571398943185e-02 -1.9242725524751116e-02 9.0173679979350680e-03  -1.0400062346073931e-01 -1.7723210623272367e-02 1.8687182774335794e-02  -9.9670001946983638e-02 -1.7977281077470340e-02 1.8298403231029339e-02  -9.5404243639877276e-02 -1.8644559296935332e-02 1.7942498690193747e-02  -9.1852290000003334e-02 -1.9086089816777611e-02 1.7671002703539263e-02  -8.8897860546265597e-02 -1.9201804904933662e-02 1.7362395463603866e-02  -8.6320837646331736e-02 -1.9020479433913728e-02 1.6915553997535762e-02  -8.3801951530540014e-02 -1.8514410344260285e-02 1.6414226098931787e-02  -1.0138178303306374e-01 -3.5989073175557058e-02 -2.9602594724239019e-02  -9.9243700080869759e-02 -3.6359956379207879e-02 -2.9862754217049335e-02  -9.9292529578688477e-02 -3.2143243807916624e-02 -3.0174186582412128e-02  -1.0097602383763295e-01 -3.1466454326721967e-02 -2.9791318989255383e-02  -7.7237092775068600e-02 5.7504859780051600e-04 2.1969403651380257e-02  -7.7334613010465486e-02 1.2102155812680893e-02 1.8433722504378108e-02  -7.8208685638479741e-02 8.4916167816393145e-03 1.8218957958779428e-02  -7.8095431902016593e-02 5.5947689492081044e-03 1.5615439457570785e-02  -7.7121571656620813e-02 9.2211611200839518e-03 1.5324927150751937e-02  -7.7174274413637126e-02 -1.6973917548556727e-03 1.9828100619999827e-02  -7.7924803071050958e-02 3.4829382410552618e-03 1.3021317942249613e-02  -7.6745058580750661e-02 7.1599435090872656e-03 1.2367814530233638e-02  -7.7077352986411357e-02 -3.5289799894521199e-03 1.7461020851307015e-02  -7.7849919464113043e-02 1.4094536581417592e-03 9.8355527315101780e-03  -7.6551829870439583e-02 5.0481304692166756e-03 8.8407722794011066e-03  -7.7146531288940001e-02 -5.4232983134182133e-03 1.4658000901875022e-02  -7.7994321427946559e-02 -7.3450748115373103e-04 6.1079040917744517e-03  -7.6614075331657761e-02 2.8229700760731584e-03 4.7418137283208707e-03  -7.7436062317702031e-02 -7.3565423406604848e-03 1.1443878582084422e-02  -7.8399898866268636e-02 -2.7472391856468320e-03 1.9052824308098276e-03  -7.6961068545515113e-02 7.3578719559389265e-04 1.3886482607119508e-04  -7.7979996893768375e-02 -9.1081088498933226e-03 7.8214045371394862e-03  -7.9070179625156