<?xml version="1.0"?>
<VTKFile type="UnstructuredGrid"  version="0.1"  >
<UnstructuredGrid>
<Piece  NumberOfPoints="690" NumberOfCells="2907">
<Points>
<DataArray  type="Float64"  NumberOfComponents="3"  format="ascii">3.309510379629804 0.8863836409368193 2.616154815527406  3.444182813441553 0.9209586002677446 2.667203884134563  3.328980118271651 0.9521439490552337 2.762453947971372  3.332655598933088 0.8967213002316559 2.78851043660581  3.448401826589566 0.8642325253604897 2.690585360521831  3.31579258608076 0.8280953931305725 2.639930694748617  3.336298194938632 0.8413373348870876 2.81455400698196  3.452574480522336 0.80754298103268 2.713933865372631  3.322102618770432 0.7698559053450988 2.663701515376427  3.339910520426894 0.7859891466894402 2.840585789008104  3.456712043473359 0.750882338130715 2.737273256320213  3.328411795279227 0.7116554172552569 2.687465679565256  3.343493472723937 0.7306761786724061 2.866610772541831  3.46082049465365 0.6942531242978898 2.760607165345694  3.334688177644538 0.6534862464869524 2.711227281879887  3.347039831482192 0.6754069919168225 2.892629007199851  3.464900777326104 0.637659013888338 2.783938243179442  3.340883402761118 0.5953598670357796 2.734980830220038  3.350535924438287 0.6201925860512225 2.918629191040643  3.468950506189825 0.581140988175765 2.807258238499981  3.346915821363121 0.5372907205274948 2.758713401790215  3.924235845684834 1.054631281481423 2.896407026829799  4.042648438318679 1.018677187878864 2.80291522239478  4.029734928942861 1.086480894916666 2.944184107613537  4.033581811572337 1.035450523225623 2.970238407666375  4.047032421962647 0.9656749557324483 2.826341469258864  3.927785224865167 1.003016755565553 2.922148426255673  4.051363953183974 0.9126517322100309 2.849739858872248  3.931274572950194 0.9513885441188332 2.947865002805727  4.037379158528795 0.9844007145567089 2.996288118415261  3.934733035938298 0.8997583137470264 2.973563971174869  4.055670271107773 0.8596259161615664 2.873116196267135  4.041152961911114 0.9333442221346975 3.022328649986522  3.938187963156937 0.8481354506971741 2.999251581215874  4.059975242076549 0.8066091746322046 2.896482761900796  4.044926575598378 0.8822876213032286 3.048360405467668  3.941666559112415 0.7965275955183193 3.024937364180309  4.064300864416618 0.7536103722465325 2.919855050203848  4.048724443084279 0.8312334234966833 3.074387343770027  3.945198747483074 0.744940545759847 3.050637823756019  4.068665734873053 0.700631522291109 2.943250376855835  4.052569985463395 0.7801836234384977 3.100417422232893  3.917567988818408 0.9895243592666594 2.76171074308338  3.922087497822786 0.9358718841143401 2.785146459244783  3.92654870632354 0.882200515798256 2.808540423514554  3.93097958570269 0.8285328957924153 2.831906957783342  3.935404964659423 0.7748816737466495 2.855261291474537  3.939847456323109 0.7212572559917418 2.878621369185009  3.944327511688839 0.6676594158387426 2.90201591724711  4.358478989280089 1.037284436718629 2.781353379484818  4.45230853778671 1.012400541590513 2.694290892315442  4.482284864998666 1.061905086215139 2.803104333200595  4.488601521213908 1.009480065210504 2.827862910145921  4.458541324074151 0.9568999751694327 2.713115379807013  4.363993185928181 0.9838375751784043 2.80413536624355  4.494947324322871 0.9570407877874865 2.852621502195785  4.464766785520603 0.9013826952036632 2.731914799427259  4.369487779399154 0.930373341240925 2.826899694305932  4.501308089077008 0.9045966431727638 2.877373319137379  4.470992650372068 0.8458677293861886 2.750704190563797  4.37497844968242 0.8769042331264161 2.849654950570768  4.477227408071798 0.7903615550608907 2.769487046624896  4.380477006225024 0.823438096001991 2.872403257802603  4.507673869629074 0.8521489698351448 2.902119536735071  4.483481045986071 0.7348668028986112 2.788268568055393  4.38599852936984 0.7699798820078559 2.895151403162465  4.514035553789819 0.7996978418786478 2.926865924930304  4.489751262828892 0.6793824297213956 2.807063911788437  4.391553746001064 0.716532185809617 2.917909467565603  4.520400245184372 0.7472433179061417 2.951627041262305  3.724370281775525 1.141282247703243 3.082711101866201  3.704081063170253 1.062356391008062 2.939199219735253  3.822384560095361 1.099806315808445 2.996032815519053  3.825412925076121 1.048949271364176 3.022795826828248  3.706968123709886 1.010837563877719 2.965983619177339  3.727026573158672 1.090783709578263 3.11052177784317  3.828381211514174 0.998084081419947 3.049547488054737  3.709793118079762 0.9593178684287758 2.992743592239803  3.729626638310848 1.040286956174908 3.138328061300475  3.831318955925492 0.9472196760542815 3.076287791341103  3.712585328409843 0.9078059984942044 3.019486152181014  3.732197460056686 0.9897968318171553 3.166126471285223  3.834251381274478 0.8963607685127712 3.103016720772792  3.715368143289176 0.8563072981058725 3.046215939620422  3.734762684313446 0.9393140643211506 3.193912245902549  3.83720413045812 0.8455098597451265 3.129737529124846  3.71816431234493 0.8048280998907978 3.072938506229869  3.737346177189691 0.8888375756289735 3.221682754786094  3.840206750118762 0.7946704576098146 3.156458887749065  3.721000676927003 0.7533737561695364 3.099668376551995  3.739976271795561 0.838365213967119 3.249438154501159  4.762363583659877 0.9703050156166292 2.944825035751215  4.643090298474503 1.011367778834664 3.040521206961898  4.759490979121514 1.057029317258872 3.083514899565206  4.754476736095483 1.02168411383308 2.917544750416081  4.635371061541396 1.061082099096599 3.011842678134058  4.7677762895573 1.007928205051527 3.113117387346341  4.770251871723918 0.9189382919576861 2.972087006599022  4.650812045528995 0.9616553729217374 3.069185366219412  4.776033004907151 0.9588249291676859 3.142692610434723  4.778119940973102 0.8675761143008115 2.999323010154519  4.658507971151066 0.9119348429175518 3.097826530494713  4.784206689896867 0.9097053583962994 3.172231577785116  4.785942263038891 0.8161982332003074 3.026530579640188  4.666147499098888 0.8621891068688934 3.126441779065658  4.137736868299912 1.200750625573459 3.135114800901515  4.287913783264488 1.20209767088271 3.109051265978291  4.22546650749129 1.255571698876552 3.216201860785723  4.231185913849072 1.205509273462248 3.244669836942566  4.29397104361812 1.15242760139899 3.137209231498668  4.14262298236633 1.151025211698596 3.163157979845545  4.236926476199165 1.155453581686469 3.273172792182846  4.300058128805672 1.102760928704073 3.165395518008507  4.147501212775381 1.101297249261398 3.191224171550169  4.242677289254162 1.105401548713315 3.301684310833085  4.30615874486836 1.053095579670245 3.193587017259085  4.152376734440038 1.05156739642834 3.219295143872087  4.248432207687943 1.055345514983224 3.33018255294589  4.312262951595291 1.00342561472212 3.221767050697633  4.157254500756716 1.0018311656913 3.247356224605042  4.254188143677931 1.005269665797042 3.358648687049953  4.318363976477279 0.9537383086834658 3.2499232653009  4.162142442250625 0.9520767676890842 3.275396506146232  4.25994685037735 0.9551482688653163 3.387064154328932  4.32445514703814 0.9040093862604848 3.278050873265845  4.167055994865598 0.9022841306358167 3.303409093266272  3.941588661381654 0.9167360710210328 2.568195725536975  4.088862143217334 0.9245686554824872 2.537024085209219  4.03237790027634 0.9614265938514031 2.662344149622375  4.037857095795284 0.9063884705782752 2.6831250641046  4.095645075070387 0.8667323708316648 2.551645723684627  3.945364566859413 0.8587781537432218 2.584851726457746  4.043300844057111 0.8513283607881382 2.703863968774311  4.102407595123254 0.8088793318332486 2.566197893123395  3.949004186005608 0.800807046584375 2.60144398270229  4.048718874015774 0.7962635071881294 2.724572379763909  4.109146243744094 0.751037496008057 2.580712207655337  3.952588561991934 0.7428586082220593 2.618000964449795  4.054134353105805 0.7412103502937595 2.745272543744009  4.115882812685245 0.6932220244278235 2.595219732844341  3.95617039147293 0.6849491753801771 2.634551393606532  4.059569245256252 0.6861800248328225 2.765989359049703  4.122635344066843 0.6354402170955442 2.609751523989371  3.959806702471461 0.6270918348474671 2.651121223193693  4.065026716377806 0.6311780230300823 2.786747730819902  4.129381122430184 0.5776768683890569 2.624345827503171  3.963570636040821 0.569253310956303 2.667729703449309  3.667890517290364 1.286012700114159 3.336845682327847  3.689021067269632 1.204646334640682 3.199233445796956  3.796542165765982 1.254605961568233 3.276752939016434  3.799163193883683 1.204443445029148 3.306537029310333  3.691288213873551 1.154452889950513 3.228350779436088  3.669595399091188 1.235947406031969 3.368116173000553  3.801738509335531 1.154299190726291 3.33634682568411  3.693504045175662 1.104272400758992 3.2574786242005  3.67125613210416 1.185912971112546 3.399413376107102  3.804295020275744 1.104169195105931 3.366159796651127  3.695696470780669 1.054104847246387 3.286603314233156  4.292653292537628 0.9749842965080374 2.633149409972105  4.298576579153531 0.9186769382165118 2.650629734125331  4.304481087893846 0.8623579389780256 2.66806378445131  4.310379249636408 0.8060485755591003 2.685475755705099  4.316277990826348 0.7497587444657061 2.702880772830391  4.32218490118195 0.6934975182801082 2.720294580127059  4.328111975146074 0.6372648982440494 2.737737538189458  4.278337054901694 1.123570351038738 2.97057831477167  4.404503696424277 1.159546685563061 3.007709487609453  4.411192103257672 1.109822684769237 3.035592446129314  4.284157515164271 1.073660968681541 2.998330772903902  4.417928091595045 1.060103266277704 3.06350041059431  4.289996147226146 1.023738334645553 3.026094680552705  4.424685289128172 1.01038579859974 3.091412174016851  4.295841819051827 0.9738080657261473 3.053858890492261  4.431446385906967 0.9606634405144447 3.119313784775415  4.301690825261067 0.9238704936486156 3.081614882041586  4.438197251192473 0.9109250867601959 3.147197044643827  4.307542552162428 0.8739193899428572 3.10936
[...]
<PointData  Vectors="f_24"> 
<DataArray  type="Float64"  Name="f_24"  NumberOfComponents="3" format="ascii">6.1120229597673072e-03 -2.3390330660917367e-02 5.2248872863017821e-04  5.8196411924186240e-03 -2.5520507199050392e-02 2.0949695457488028e-03  6.1091729893537157e-03 -2.5206821827018253e-02 2.3767434295623472e-03  5.2499923835230729e-03 -2.5298628410610324e-02 1.8761384930010203e-03  5.0838609778404995e-03 -2.5589104285799413e-02 1.4202045379824555e-03  5.3391731998766656e-03 -2.3424708976120052e-02 -6.9101883022529731e-05  4.4203676773219413e-03 -2.5221871856071477e-02 1.6445765512081124e-03  4.3577983118129561e-03 -2.5529360428444749e-02 1.1032147539454602e-03  4.5845122540526927e-03 -2.3351309531362646e-02 -3.0734288279429421e-04  3.5993244402216934e-03 -2.5087202527829720e-02 1.4846418579667238e-03  3.6290245120945567e-03 -2.5447879846912113e-02 8.7152627161372572e-04  3.8310345933286849e-03 -2.3275235672174679e-02 -4.6949201113520838e-04  2.7611906335054041e-03 -2.4985048334080610e-02 1.2119236360588845e-03  2.8912616925092158e-03 -2.5418617630857673e-02 5.1700170045246773e-04  3.0705326333786659e-03 -2.3268535438711522e-02 -7.5182910130221616e-04  1.8896756281856393e-03 -2.4888778502328974e-02 7.5542484804546174e-04  2.1332299285924906e-03 -2.5423750838570954e-02 -8.7412438227959274e-06  2.2912679800590695e-03 -2.3313983527242281e-02 -1.1861721411773590e-03  9.9567415090057892e-04 -2.4824692993834808e-02 1.2380721682964116e-04  1.3755995495943001e-03 -2.5485735183518422e-02 -7.0282306608085324e-04  1.5110079543896411e-03 -2.3444410693083430e-02 -1.7713091644920912e-03  5.3593442497354895e-03 -3.4171325910795830e-02 7.1264656765663015e-03  5.0874099352727752e-03 -3.4483166951006616e-02 6.9657872190099172e-03  5.4463116977893408e-03 -3.6030436671716119e-02 8.0000850304132436e-03  4.6113800123107861e-03 -3.6135146017318612e-02 7.6754920058364068e-03  4.3071276077285879e-03 -3.4640880553863974e-02 6.2369005257733737e-03  4.5534325771373931e-03 -3.4291302388411563e-02 6.6786910169698704e-03  3.5565945020058971e-03 -3.4628314920715303e-02 5.8040978528531659e-03  3.7708787651084142e-03 -3.4228014387306827e-02 6.4529529033911983e-03  3.7958112951757112e-03 -3.6042698105173056e-02 7.5263647860666855e-03  3.0005164407912815e-03 -3.4074330870365994e-02 6.2963095906451352e-03  2.8160733556246392e-03 -3.4560519846796423e-02 5.4567880571540425e-03  2.9960304779293144e-03 -3.5853249875660020e-02 7.4356819737896925e-03  2.2241855460698292e-03 -3.3918837724900168e-02 6.0279015646497944e-03  2.0687784958589471e-03 -3.4521924748199241e-02 4.9754568571228307e-03  2.1895519475333210e-03 -3.5643921370435615e-02 7.2467469070104755e-03  1.4202709141224120e-03 -3.3700979412657726e-02 5.5601054523355207e-03  1.2993308745786478e-03 -3.4465833885954575e-02 4.2826803092909536e-03  1.3519328365339586e-03 -3.5348998621532741e-02 6.8626338481278699e-03  6.0587240526969750e-04 -3.3459728549071484e-02 4.9097829326744842e-03  5.1590733486055673e-04 -3.4433246559911590e-02 3.4165777541860787e-03  4.9914124795488171e-04 -3.5004769954050524e-02 6.3076517755802034e-03  5.0254892112015235e-03 -3.2270118530599398e-02 5.7701369732093303e-03  4.2861192169604337e-03 -3.2402760813040235e-02 5.0113478084834575e-03  3.5766640318478401e-03 -3.2393074702271304e-02 4.5917208648952133e-03  2.8721024923622340e-03 -3.2342265200089322e-02 4.2457084175839387e-03  2.1584829964830729e-03 -3.2337299505243104e-02 3.7510978132050655e-03  1.4238690441927921e-03 -3.2328862172506703e-02 3.0569028291878297e-03  6.7925965116699878e-04 -3.2368076180806747e-02 2.1851750771275792e-03  5.0043356969097976e-03 -3.8283862534032528e-02 8.5480595311769950e-03  4.7068164891191540e-03 -3.7804696387190265e-02 7.8934209817830975e-03  5.1456932587303095e-03 -4.0434431488789190e-02 9.6099471834846170e-03  4.3034963727632122e-03 -4.0733328933229354e-02 8.7362174335868688e-03  3.9164403917939655e-03 -3.7942670355055781e-02 6.8542795585640670e-03  4.1865918281722841e-03 -3.8498384582873149e-02 7.6570651018287835e-03  3.5036505905393406e-03 -4.0837734924364155e-02 8.1914451529703156e-03  3.1784872270604458e-03 -3.7982899549858971e-02 6.1620853673911300e-03  3.4017283316211842e-03 -3.8550866518313860e-02 7.0958578493385037e-03  2.7167899374839054e-03 -4.0863408170923182e-02 7.7266494339244150e-03  2.4466889474375991e-03 -3.7997656300511683e-02 5.5272075088894715e-03  2.6257427143956576e-03 -3.8544098102182713e-02 6.6120110046707977e-03  1.7030991817084333e-03 -3.8057356656167683e-02 4.7370092419958560e-03  1.8406804101209144e-03 -3.8567555283859460e-02 5.9775148320054747e-03  1.9235356735123395e-03 -4.0910485657860075e-02 7.1013000551007214e-03  9.3901093823051129e-04 -3.8128313058753534e-02 3.7446852417139000e-03  1.0319193439897211e-03 -3.8577327911645864e-02 5.1313724931915444e-03  1.0950215779084753e-03 -4.0923154574342653e-02 6.2663054856396316e-03  1.4924636980408198e-04 -3.8248707032608263e-02 2.6116615904241644e-03  2.0251221375155163e-04 -3.8608581519608505e-02 4.1165570952189506e-03  2.4249439243927083e-04 -4.0966611592010156e-02 5.2277638616490254e-03  5.7201218020037003e-03 -3.2133519198175212e-02 6.1824999076647603e-03  5.5912845411837464e-03 -3.1638502888193948e-02 6.0806079468094148e-03  5.5920786215134868e-03 -3.3500621448532185e-02 6.9198184944539659e-03  4.7477782113193121e-03 -3.3509033698600997e-02 6.8312279614986347e-03  4.7692963517244743e-03 -3.1692596683314561e-02 5.8421114414825247e-03  4.8384898731435606e-03 -3.1976944231744166e-02 6.4424147700927201e-03  3.9292426409683256e-03 -3.3336631019931964e-02 6.8567612582562266e-03  3.9676584834132753e-03 -3.1567192717860348e-02 5.7606275784813175e-03  3.9931663543246653e-03 -3.1672110910960942e-02 6.7134147201894983e-03  3.1266046843327986e-03 -3.3064479624256696e-02 6.9149254418824340e-03  3.1784009798873571e-03 -3.1348801684906752e-02 5.7277039724759494e-03  3.1670036706103310e-03 -3.1275750971657551e-02 6.9782206679323347e-03  2.3185495281860761e-03 -3.2756369927188868e-02 6.8944959946139360e-03  2.3806974260771603e-03 -3.1113342731801868e-02 5.5994430417250930e-03  2.3306002832930361e-03 -3.0820437584965988e-02 7.1938667938464679e-03  1.4778991244623655e-03 -3.2332822431726353e-02 6.6953635248405219e-03  1.5520537960859826e-03 -3.0782774630015119e-02 5.2824755203525840e-03  1.4602841855468536e-03 -3.0207251230277961e-02 7.2706256311956662e-03  6.2431687809826205e-04 -3.1822591794954731e-02 6.3394402659176473e-03  7.1173001541581136e-04 -3.0401964531790938e-02 4.7881571485400582e-03  5.6831112489385909e-04 -2.9459622276033853e-02 7.2333232558492774e-03  3.1246702840594560e-03 -4.5925646887355419e-02 1.0355291927386077e-02  3.3649612930605160e-03 -4.5258142749859391e-02 1.1193850853099881e-02  3.7251758732000525e-03 -4.7429323419672265e-02 1.2540313851988219e-02  3.9113103657216729e-03 -4.5903368842179500e-02 1.0766805492852353e-02  4.2107164742741458e-03 -4.5346501696492389e-02 1.1333563714242725e-02  2.8773201465985662e-03 -4.7238367214965792e-02 1.2404208961811583e-02  2.3272394377873060e-03 -4.5947484514252637e-02 9.7718156969587439e-03  2.5077003733556518e-03 -4.5133732156935454e-02 1.0920269017204321e-02  1.9725919824334789e-03 -4.6845920670586946e-02 1.2067895334706983e-02  1.4911467234616103e-03 -4.5897702019434578e-02 8.9408145960802616e-03  1.5973355825439530e-03 -4.4858429127448834e-02 1.0434933403164762e-02  9.9806896868629715e-04 -4.6354120939101247e-02 1.1433388001858563e-02  6.1279882413348044e-04 -4.5857796188682923e-02 7.8655515301796052e-03  6.3136540753625263e-04 -4.4534799109894579e-02 9.6787006832463017e-03  5.9108878743112398e-03 -3.7882441304695563e-02 8.3051948374300161e-03  6.0697689854863268e-03 -4.0358424149810009e-02 9.4605320368779978e-03  6.0671936857835422e-03 -3.8403856570896087e-02 7.9657274579668126e-03  5.0613919811782803e-03 -3.7992355159851193e-02 8.8139115063035865e-03  5.0935279816652947e-03 -4.0262975017766017e-02 9.7983336162755924e-03  4.9604811009205853e-03 -3.7675825181696744e-02 8.7689733870854689e-03  4.1160135570681043e-03 -3.7490962119878297e-02 9.5161082029551446e-03  4.1640021229746652e-03 -3.9993426120453014e-02 1.0125373779856344e-02  4.0531176835073941e-03 -3.7326918341143579e-02 9.1848226409334717e-03  3.1993623960720227e-03 -3.6915761904069269e-02 1.0140828401141765e-02  3.2629328506247517e-03 -3.9611501043049197e-02 1.0437487562677624e-02  3.1729982268726134e-03 -3.6882305687713654e-02 9.5727653856165461e-03  2.2673560715777232e-03 -3.6242412167587244e-02 1.0756467334501545e-02  2.3501076472225661e-03 -3.9152118649259153e-02 1.0697894739250485e-02  2.2838836801474631e-03 -3.6360053968456395e-02 9.9233752338511484e-03  1.2794309153464096e-03 -3.5332070419987205e-02 1.1315466162582841e-02  1.3823497507684920e-03 -3.8489238593630459e-02 1.0823694023829711e-02  1.3469808278525435e-03 -3.5640767872944325e-02 1.0164313572625127e-02  2.3778409421852667e-04 -3.4217536170601581e-02 1.1840521233727240e-02  3.5905979524366417e-04 -3.7667079117334350e-02 1.0819120815919155e-02  3.6786924980730700e-04 -3.4747511825126511e-02 1.0305246887369036e-02  4.5889074288814760e-03 -2.9029020423676014e-02 3.0876559293113799e-03  4.5206688954926213e-03 -3.0088935096036360e-02 3.5506952940736595e-03  4.7750293784057972e-03 -3.1913564736015317e-02 5.1496663575619087e-03  4.0589277319458446e-03 -3.2019577153237937e-02 4.2212184831948128e-03  3.8407353697531726e-03 -3.0026199877406942e-02 2.6481859991148693e-03  3.9719059224183634e-03 -2.8974212601291838e-02 2.2489265828265427e-03  3.3847594957396145e-03 -3.2016412436234445e-02 3.6886521253548916e-03  3.2290418126557103e-03 -2.9975467909594555e-02 2.1125876103991713e-03  3.3869273618785446e-03 -2.8907097702181660e-02 1.7812734596467979e-03  2.7168022734330331e-03 -3.2015559394870448e-02 3.2309743452690835e-03  2.6215781442581057e-03 -2.9974329661278356e-02 1.5985121898822623e-03  2.7916521909598100e-03 -2.8878736215888486e-02 1.3264315459755763e-03  2.0370642678818377e-03 -3.2082263430680782e-02 2.6186364572467831e-03  2.0010529447775974e-03 -3.0057439013618494e-02 9.2539075879877024e-04  2.1824774501589127e-03 -2.8937271708172129e-02 7.0231812499700532e-04  1.3380740362898295e-03 -3.2173630129452832e-02 1.8232704659483130e-03  1.3628411388838962e-03 -3.0201975155482418e-02 1.0429499365282059e-04  1.5528476114476586e-03 -2.9051172974754905e-02 -7.8861518992375852e-05  6.2540720654675932e-04 -3.2342884957023608e-02 8.5045174470748947e-04  7.0621182211936520e-04 -3.0443957190937562e-02 -8.4358264476292822e-04  9.1889655601007456e-04 -2.9257775467665267e-02 -9.9550482945122941e-04  5.5437675804636136e-03 -2.7595675157086007e-02 3.0258185033282862e-03  5.6885566523248174e-03 -3.0614495946067025e-02 5.0742104496574458e-03  5.6010834618175102e-03 -3.0829208828431504e-02 4.6900446201887198e-03  4.7076166566579359e-03 -3.0178135083822208e-02 5.6986167578466883e-03  4.7979921528964993e-03 -3.0177475814944996e-02 5.7894894129673904e-03  4.6758462901408948e-03 -2.6758440608446767e-02 4.1887921184412822e-03  3.8536916060110536e-03 -2.9501848125144149e-02 6.5168927709576283e-03  3.9446964524403657e-03 -2.9658780445366528e-02 6.3874988498557779e-03  3.8410657306976654e-03 -2.5949018757586609e-02 5.1205343198007834e-03  3.0119424106518598e-03 -2.8784832345911147e-02 7.2473811046962454e-03  3.1073294118861769e-03 -2.9074174562493959e-02 6.9261090468865335e-03  4.5925348602363428e-03 -3.4467427570958983e-02 6.1211740863510722e-03  3.8467911294485500e-03 -3.4530440341207093e-02 5.1108687213455703e-03  3.1477462290897098e-03 -3.4531494194303722e-02 4.4521086811326830e-03  2.4555546652494193e-03 -3.4538551177188070e-02 3.8475942852034851e-03  1.7553467376512010e-03 -3.4607170418337919e-02 3.0897767487381065e-03  1.0298401579544481e-03 -3.4700956674073608e-02 2.1572770038772071e-03  2.8829338006189007e-04 -3.4862552350579286e-02 1.0809080373793579e-03  5.6648534285495709e-03 -3.9820752413177229e-02 9.6577198279573524e-03  5.9545665823077468e-03 -4.2037801068707109e-02 1.0574173587969178e-02  5.0089668125098564e-03 -4.2197686006272911e-02 1.0417758457062677e-02  4.7702666740445107e-03 -3.9980232571218487e-02 9.3700964071627164e-03  4.1117085207548320e-03 -4.2130178500839881e-02 1.0397697031542809e-02  3.9064362158097530e-03 -3.9927336573700470e-02 9.2585512578530170e-03  3.2369563040536412e-03 -4.1931302927660667e-02 1.0416352966254655e-02  3.0599290068741773e-03 -3.9756997244158494e-02 9.2033263415602657e-03  2.3512455705371710e-03 -4.1682862976132343e-02 1.0340404495202859e-02  2.2053429696695243e-03 -3.9557706925108738e-02 9.0417815953867681e-03  1.4146255267077548e-03 -4.1283189937925263e-02 1.0072658914198984e-02  1.3063655714500070e-03 -3.9229113770382858e-02 8.6996980799339523e-03  4.2627457412639484e-04 -4.0790569117015445e-02 9.6034976501817634e-03  3.7327671132412663e-04 -3.8841466647780459e-02 8.1423540643354199e-03  5.3402556347397542e-03 -3.1976580642562411e-02 6.0160233507984577e-03  4.5654680082817777e-03 -3.2109894981353616e-02 5.4721309025127212e-03  3.8141658752613604e-03 -3.2062818926390395e-02 5.1942963009328422e-03  3.0708890284547232e-03 -3.1941570740544108e-02 4.9933808767532494e-03  2.3197031835025654e-03 -3.1836751264851422e-02 4.6683887705926417e-03  1.5427144660025596e-03 -3.1683564457202565e-02 4.1455883200716987e-03  7.6038463931453536e-04 -3.1534682518348268e-02 3.4232808114798112e-03  5.8105045114708919e-03 -3.8822929474655481e-02 9.0830065014176863e-03  4.8900701605218777e-03 -3.8827078185643245e-02 9.1367529444452596e-03  4.0053356674781999e-03 -3.8643527140830157e-02 9.2649758829699471e-03  3.1440392739290821e-03 -3.8345433873419321e-02 9.4129012504312760e-03  2.2771874546092014e-03 -3.7993429733688890e-02 9.4869773134422623e-03  1.3628102868994752e-03 -3.7481640517815246e-02 9.4078890952794779e-03  4.1513264829883592e-04 -3.6863135041051050e-02 9.1562386481215986e-03  5.8448297855575254e-03 -3.5571830930507836e-02 6.6531691640862286e-03  5.7574639248648488e-03 -3.5341749689255818e-02 7.2731792511574302e-03  4.8443622983466161e-03 -3.5093185267589061e-02 7.7485236621674496e-03  4.8790060798550817e-03 -3.5035666070615611e-02 7.6145997195937653e-03  3.9681359403699514e-03 -3.4715798457520035e-02 8.1738133066800618e-03  3.9671564621301279e-03 -3.4447984956154407e-02 8.4025224882986905e-03  3.1153178470567202e-03 -3.4249038651612725e-02 8.5694277502503576e-03  3.0783848184138055e-03 -3.3805089468375293e-02 9.1030087642268425e-03  2.2542686844956978e-03 -3.3707210256712951e-02 8.9308378238178998e-03  2.1716654709352376e-03 -3.3063075354458196e-02 9.8126321842139878e-03  1.3536060421099742e-03 -3.2974698991108990e-02 9.1907407260999243e-03  1.2205711363812333e-03 -3.2097589932691829e-02 1.0483997885932388e-02  4.2041903528605148e-04 -3.2084448850898832e-02 9.3579504263977039e-03  2.2135748628484869e-04 -3.0928378765038973e-02 1.1165227834934477e-02  5.7056060290052429e-03 -3.2927274201094273e-02 6.1073040871981480e-03  5.7073226165692374e-03 -3.3372092577965778e-02 5.7934281957655633e-03  4.7803684203589448e-03 -3.2803975625097133e-02 6.7457878451828790e-03  4.8042139336411114e-03 -3.2566519509025033e-02 6.7462978916931335e-03  3.9012837476509678e-03 -3.2192834641379370e-02 7.5269295128111164e-03  3.9435411257642706e-03 -3.2106634901480913e-02 7.2874079920652078e-03  3.0398204636567687e-03 -3.1533360766898409e-02 8.2218704525992004e-03  3.1028324777199506e-03 -3.1572491408476289e-02 7.7793312371612494e-03  2.1630401966745713e-03 -3.0780432746233394e-02 8.9263907241486033e-03  2.2510961142600695e-03 -3.0958364671336266e-02 8.2517726642003675e-03  1.2464164932504455e-03 -2.9813552412775699e-02 9.5976449272409461e-03  1.3640797339289630e-03 -3.0153338849075107e-02 8.6414870236321707e-03  3.0052031941713871e-04 -2.8655161858135166e-02 1.0276803639818474e-02  4.5398811821632150e-04 -2.9178287973662682e-02 8.9809697167077315e-03  4.4305903742261664e-03 -4.2834991220001270e-02 9.7355728810880650e-03  4.0689350817325965e-03 -4.1768541926588180e-02 8.6880254284045968e-03  4.7095078035490475e-03 -4.5750537820127224e-02 1.1250140915731441e-02  3.6258777947541137e-03 -4.2968888968613554e-02 9.1874700846601501e-03  3.3283273498755611e-03 -4.1911815525877076e-02 7.9501545576925806e-03  2.8368957816535222e-03 -4.3007895703963676e-02 8.7235413987413815e-03  2.6008047501348561e-03 -4.2002368716936363e-02 7.2912076900262593e-03  2.0375049382692070e-03 -4.3064439234759076e-02 8.0957664474226414e-03  1.8637630713464937e-03 -4.2125474065300365e-02 6.4631374904532152e-03  1.2030506406123774e-03 -4.3069140555238798e-02 7.2363307169523621e-03  1.0992785140152908e-03 -4.2243392655839943e-02 5.4166572666219338e-03  3.3585215124509396e-04 -4.3094788852638580e-02 6.1513075152208364e-03  2.9666225193994699e-04 -4.2392115662152889e-02 4.1859598104506462e-03  5.0737231993488617e-03 -4.5285782450517162e-02 1.1538361087492444e-02  5.1629062252098387e-03 -3.6615916594694882e-02 8.0230979240321319e-03  4.9258418762514406e-03 -3.4579056808628619e-02 6.7687668923928053e-03  4.9550870672163674e-03 -3.6135757985365224e-02 7.5462333651265942e-03  4.1700033784600292e-03 -3.6307497077386376e-02 6.6241971085515584e-03  4.1619391732363367e-03 -3.4726391901993767e-02 5.8792666440474961e-03  4.3458756992498897e-03 -3.6783865271712041e-02 7.3428549303962551e-03  3.5601110043341744e-03 -3.6777551785746716e-02 6.9357297337641430e-03  3.4298984815309447e-03 -3.4739367454759140e-02 5.3293733509822538e-03  3.4147948229238181e-03 -3.6327889219079673e-02 6.0394061434664260e-03  2.7068036534092675e-03 -3.4712663266460157e-02 4.8669631692004906e-03  2.7830755651247611e-03 -3.6692032440016210e-02 6.5996303004931837e-03  2.6685830536914423e-03 -3.6303733010461095e-02 5.5495592950827385e-03  1.9992649831048421e-03 -3.6624397028557208e-02 6.1351329259501366e-03  1.9781712149172684e-03 -3.4726738214109459e-02 4.2732197547511105e-03  1.9176921918444691e-03 -3.6309677237312654e-02 4.9301357256092502e-03  1.1907917005534057e-03 -3.6530559050436957e-02 5.4538935170280285e-03  1.2277086659436324e-03 -3.4750243950462570e-02 3.4705968246675294e-03  1.1415297789379552e-03 -3.6323397780182828e-02 4.0964016628755725e-03  3.7276758941142936e-04 -3.6440809409661670e-02 4.6084450219118908e-03  4.6124138611278561e-04 -3.4804854843317266e-02 2.5031373348799917e-03  3.5206059745384650e-04 -3.6348706665605982e-02 3.1008165277832751e-03  5.8072958895375839e-03 -3.0368755764758320e-02 5.5229921218534310e-03  4.9260165454519059e-03 -3.0293991931053831e-02 5.6156971986506743e-03  4.0790963769747309e-03 -3.0054828610893373e-02 5.7684372960734621e-03  3.2500501502923931e-03 -2.9720117374135269e-02 5.9332770288743567e-03  2.4088476067783251e-03 -2.9338187118453710e-02 6.0325928666850378e-03  1.5299474492626523e-03 -2.8823743301223073e-02 5.9747428134065712e-03  6.3157582313640257e-04 -2.8199872472131616e-02 5.7777367475530216e-03  4.4634907274038833e-03 -3.5284375523285838e-02 6.2877976449291322e-03  3.7341361647281260e-03 -3.5271705023157865e-02 5.2120003880499859e-03  3.0652744398904433e-03 -3.5242866509670706e-02 4.4757960560674508e-03  2.4035785903757058e-03 -3.5235269620179428e-02 3.7916887655190649e-03  1.7292027624371017e-03 -3.5282277536581724e-02 2.9720229267304245e-03  1.0301886976731788e-03 -3.5364597162772030e-02 1.9790198861868546e-03  3.0148399093366652e-04 -3.5503815238324445e-02 8.6788856634353157e-04  6.7127287107821617e-03 -4.5004535242207114e-02 1.0403487578459974e-02  6.4933666757127110e-03 -4.5718523381053019e-02 1.1803326355668102e-02  6.7355776121496838e-03 -4.7596044372274916e-02 1.2228849887627822e-02  5.7910484232154254e-03 -4.7629143412705320e-02 1.2681520153853579e-02  5.5378521873149901e-03 -4.5839009661751369e-02 1.2017894777608139e-02  5.6923204617839451e-03 -4.4730869980732092e-02 1.1325962358505703e-02  4.7181898198980273e-03 -4.4315810101539933e-02 1.2089366361345404e-02  4.6156755336716135e-03 -4.5733543120830090e-02 1.2234262752829291e-02  4.8717858411502432e-03 -4.7450730355037718e-02 1.3069513200245134e-02  3.7226054344517436e-03 -4.5475569410439731e-02 1.2455819531542853e-02  3