<?xml version="1.0"?>
<VTKFile type="UnstructuredGrid"  version="0.1"  >
<UnstructuredGrid>
<Piece  NumberOfPoints="714" NumberOfCells="2949">
<Points>
<DataArray  type="Float64"  NumberOfComponents="3"  format="ascii">0.863131187756453 3.309152538202909 0.6951791144142431  0.9733413041673884 3.381630496926725 0.7175071616577456  0.9611989101770497 3.296797120112986 0.6938005641578472  0.9616365504987174 3.320652534705044 0.6070969137999584  0.9752978576774286 3.41283966039549 0.6328757049465316  0.8652078719180989 3.333401937401035 0.6065725637635438  0.9617917990470689 3.344620240463928 0.520820707437561  0.9769240980932915 3.444072360332373 0.5486421674582825  0.8669738202978722 3.357780594490527 0.5184103852764304  0.9617102505098157 3.368594868641833 0.4349409159251061  0.978326882046914 3.475249817014657 0.4648089887365807  0.8684518326610648 3.382155757854868 0.4307248757562405  0.9614878776564899 3.392501325991912 0.3494485534891602  0.9796357431328002 3.506306352810533 0.3813700009076298  0.8697377720141749 3.406464673219582 0.3435129029500877  0.9612695130165105 3.416305851841503 0.2643916010860451  0.9810399536687565 3.537182527823846 0.2983595959226025  0.8709708447974478 3.430688476222275 0.2568428412947477  0.9614424567405739 3.439821343131783 0.1798307572458852  0.9828740286153024 3.567709510039175 0.215791122239076  0.872614899012123 3.454596148981837 0.1707635762833835  0.7539915315759323 2.870926284642188 0.6611085234823647  0.8876137850008619 2.959087411096921 0.6518308553544925  0.8738189324274078 2.833228120650987 0.6747761149233517  0.8758282799409457 2.81804721131354 0.589343441325622  0.8882558943686805 2.953580753633041 0.5635466716622319  0.7557295819409279 2.859924775142503 0.5718308597416868  0.8777227269838943 2.80342563192222 0.5041469911291641  0.8887644902823945 2.948488147039498 0.4755877558799164  0.7573520616459816 2.849383295884123 0.4828446084410569  0.8794525388801886 2.788972983466694 0.4191886159162955  0.8891082923057828 2.943510814337269 0.3879494067482503  0.7587676107353618 2.838955286405647 0.3942037014367842  0.8893777759527761 2.938486324372324 0.3006301517528899  0.7600574731419826 2.82846228460178 0.305920071492886  0.8810805218320037 2.774498386666388 0.3345177247249422  0.8896886877965841 2.933381706677582 0.2136541340992038  0.761358055785084 2.817898128899464 0.2180066884915336  0.8827439585919469 2.759968956183388 0.2500742619461281  0.8902857377704336 2.928079917254016 0.1270661181944406  0.7628116843006728 2.807211740360173 0.1305850952433534  0.8845966076586045 2.745270309134947 0.1660236230660066  0.7301745752583682 3.328640206463708 0.6949324675455003  0.864666769981601 3.413186392116368 0.7241272352470429  0.8686584666252036 3.446626264555755 0.6378077346128911  0.7339061522785907 3.353603293194827 0.60314808013536  0.8722513683009548 3.480057753209383 0.5520861083001887  0.7372983272612347 3.37866947106499 0.5119732044328023  0.8756149636767236 3.513404913337935 0.4668302486634127  0.740367850154145 3.403705278038329 0.4213667605158603  0.878870234372594 3.546608351576782 0.3820539950132528  0.743161928147162 3.428704565480725 0.3313626547382195  0.882216553151338 3.579604424974089 0.297810113793489  0.745790132787495 3.453659746120058 0.2420752870786216  0.8860365752105157 3.612151343529755 0.2140955170048717  0.7488204053821917 3.478256047368769 0.1536235825049068  0.7593816215658752 2.996365938398029 0.6503083885289371  0.7599511636829057 2.9965664053326 0.5587010271690858  0.7604053476078039 2.997094531811642 0.4675631886492129  0.7606392460281801 2.99769809603894 0.3768494321255088  0.7607626064373146 2.998214493019866 0.2865701767058857  0.7609262137426375 2.998567586988284 0.1967351323987671  0.7612693110975984 2.998758761461317 0.1074159457174575  0.3847295236170882 3.291257753105285 0.6618864392122071  0.4972192012255082 3.324240366820403 0.6740544748318256  0.511746054471787 3.201536260818814 0.6555043245719254  0.5189535891078308 3.215430640856039 0.5563487200415599  0.5049352330568067 3.350453389310956 0.5756100725205446  0.3885661955283519 3.314347374143308 0.5590838760090231  0.525812568731633 3.229360892647383 0.4580448578959105  0.5123694132614733 3.376552810634896 0.4781656671131606  0.3925443497867224 3.336991069683478 0.4572388217628334  0.5324827276313534 3.243083189884524 0.3604831747617293  0.5195858146724505 3.402462360537889 0.3814892323470867  0.396327159864927 3.359215343837599 0.3561544747262446  0.5390788740078141 3.25655263474819 0.2636177464662272  0.5265789679670732 3.428259594074662 0.2856189195777671  0.3999620510656147 3.381141004469208 0.255774836013572  0.5457530178551689 3.269731412311396 0.1674567311059871  0.5336100267539418 3.453844172621484 0.1906000511736567  0.4036696965200507 3.402775319403235 0.1561272217484961  0.5526983195313457 3.282601417810675 0.07201498956639746  0.5413134184554813 3.479038849671777 0.09641109856773805  0.4079690038124495 3.423948728849139 0.05748939050652092  0.7596306752802955 3.435368644627871 0.7291315659949481  0.7626496360090984 3.472421739142255 0.6414797145649567  0.7653034695302114 3.50939136930393 0.5544865147714716  0.7676838427329828 3.546270505088622 0.4680916667834367  0.7698900752648631 3.583020103036301 0.3822737446523037  0.7721000529466439 3.6195818896434 0.2970362656299145  0.7747615635686693 3.65567651060934 0.212368639857941  0.8461132923847308 3.520443912698591 0.7749892974162618  0.8495361440490664 3.564628701900459 0.6929441473122523  0.8525833488149772 3.60868443920692 0.6114144604425235  0.855425880109151 3.652564718845854 0.5303790809406745  0.858230357830882 3.696240040815332 0.4498046717356678  0.8611639495945622 3.739654308861248 0.3696794683385149  0.8645558189317134 3.782623429233958 0.2899928477584173  0.2811769111492475 2.507298297840812 0.7640072453105182  0.4057969753182139 2.504226173662519 0.7642662971990629  0.2765072819979336 2.397062930875575 0.8140900547890229  0.2814438661365654 2.470400525481931 0.6758146445944225  0.5223362053480143 2.954568359532387 0.6503250644928256  0.5235175928546048 2.845341935064245 0.6623158004276692  0.4098497608624208 2.833404655192919 0.6657274027551088  0.4110248990631935 2.815496950932793 0.5693583859795562  0.5227403720156952 2.830067647734126 0.5682965081228495  0.5251205441302608 2.947302349394737 0.5538075732188834  0.4118249078212164 2.797546878254739 0.4736793719285999  0.5217043526800004 2.815021603622844 0.4748012191817557  0.5276217047380911 2.940181500770373 0.4578600061910134  0.5203484098290523 2.800014729069872 0.3818259192210118  0.5298623250914849 2.93301317571601 0.3625132486811516  0.4123511730380919 2.779524941512202 0.3787208726202318  0.5188095010499352 2.785006152076505 0.2893564189788145  0.5319748726089732 2.925731310755518 0.2677719887200534  0.4127455765910739 2.761539696936163 0.2843014161092092  0.5171298436181218 2.770093027028871 0.1972973329762271  0.5339953202060214 2.918346071283062 0.1736291692553361  0.4130324959339502 2.74371475316021 0.1902788816348364  0.5152640487659753 2.755262157438418 0.1057070305565281  0.5356025366120631 2.910947846721185 0.08010506264742398  0.4127957872292741 2.726183323141485 0.09655443159636798  0.1568500000043948 3.297460337250095 0.6595639950680336  0.2824818292709887 3.401238265222657 0.6987527584637649  0.272566609654512 3.293646977636361 0.6557213176168981  0.2750643047780703 3.318106554734593 0.5490846313418198  0.2824262441273052 3.440529242156026 0.5961003906992801  0.1568500000041164 3.329405803370474 0.5508440687898557  0.2778760493776918 3.341580225379911 0.4434224454415708  0.2828997842689462 3.478789482478818 0.4942329948674461  0.1568500000038381 3.359827962786915 0.4429783062217995  0.28064591809307 3.364545850572091 0.338635665455663  0.2831945573990401 3.516457823282801 0.3933541405154555  0.1568500000035597 3.389789145925911 0.3361218642478202  0.2833351445369995 3.387138624760232 0.2344902529134001  0.2833537594341655 3.553863891809546 0.293208505585545  0.1568500000032814 3.419525649678813 0.2298533745602248  0.2859989361954074 3.409597527869548 0.1309220287763186  0.283624465022386 3.59098525341738 0.193744712888321  0.1568500000030031 3.449142689522036 0.1240227302048143  0.2893135470473624 3.431658176308488 0.02794677835927642  0.2846884756984993 3.628435421758221 0.09547739807715479  0.1568500000027248 3.478501320939467 0.01983438229468411  0.4024461218937578 3.404357561872779 0.6945677428511789  0.4046482880566444 3.440877302017606 0.5952108324321116  0.4070592095175593 3.476984150987702 0.4969013017916827  0.4092048657991013 3.512868490918163 0.3994493087169512  0.4110063201044399 3.548684252606362 0.3028997099867072  0.4128916406208522 3.584228542130624 0.2071585735160728  0.4157454665909349 3.619567742603995 0.112279906960427  0.6397302206811882 3.08608739408497 0.6517596764452531  0.7561505502477238 3.210174657262454 0.6669430931268747  0.7796508219702315 3.107434337884378 0.658419556620611  0.7812474439952617 3.114034539086068 0.5664968660798192  0.7572724073438458 3.226426296758361 0.5745928428737229  0.6427941207115633 3.090887420554057 0.5564939720026437  0.7826578803999732 3.120935922542914 0.4750902670811716  0.7581763796845294 3.242845183534401 0.4827861480190588  0.6456347073748772 3.095899330842281 0.4618058655298938  0.7838586814856505 3.127875839245109 0.384137572806064  0.7587719812906815 3.25927636101881 0.3914886179444731  0.6482282154324216 3.100861085683347 0.367693126896062  0.7849286917000367 3.134732238024986 0.2936435707754223  0.7591223286370856 3.275649467722085 0.3007248902698493  0.6506973050750959 3.10565071772962 0.2741482704604217  0.7860072386201481 3.141451002173245 0.2036431711927355  0.759351997655734 3.29194958716345 0.210584106121837  0.6532260080457223 3.110151893411301 0.1811998126180934  0.7873580987184479 3.147951209348543 0.1142202511695853  0.7600130117389466 3.307952940497349 0.1211525728142001  0.6558029124137893 3.114493504530166 0.08888095008092904  0.8949409569437331 2.43255
[...]
<PointData  Vectors="f_24"> 
<DataArray  type="Float64"  Name="f_24"  NumberOfComponents="3" format="ascii">3.1364572221531307e-02 -1.7139339537445945e-02 1.9838067346289482e-03  3.0269582694307941e-02 -1.6521674912215366e-02 5.4405624019369936e-03  3.0600838064765691e-02 -1.7296484818359107e-02 1.9744013762274396e-03  3.0830801557260038e-02 -1.5148285475509050e-02 3.2495629199518596e-03  3.0522342686548635e-02 -1.4890719774770895e-02 6.5598159730676699e-03  3.1513014651741666e-02 -1.5020825915276410e-02 3.2437506435244534e-03  3.0941522199405581e-02 -1.3167850646515881e-02 4.0637901149135208e-03  3.0629905344520657e-02 -1.3310277067435426e-02 7.2988352110647057e-03  3.1495647248667359e-02 -1.3049008646461540e-02 4.0396718276249017e-03  3.1021101358388828e-02 -1.1055973896800278e-02 4.6588740303265827e-03  3.0721168613887476e-02 -1.1607244808032893e-02 7.8728556651052588e-03  3.1442774772502333e-02 -1.0943690263622196e-02 4.6218986574980614e-03  3.1141348294939013e-02 -8.7608558300913530e-03 5.1331989960740378e-03  3.0858498428481800e-02 -9.7491980086596222e-03 8.3322620978718304e-03  3.1428598181294919e-02 -8.6573229208900294e-03 5.0953086000456648e-03  3.1347186697160447e-02 -6.3250896098054595e-03 5.4574723961629693e-03  3.1093466534892939e-02 -7.7615396868165112e-03 8.6280713618266548e-03  3.1515889873224220e-02 -6.2412868522072062e-03 5.4335909217356274e-03  3.1701093975172748e-02 -3.7555334345081505e-03 5.6343982484929507e-03  3.1503277651206335e-02 -5.6578305461146786e-03 8.8088155182504454e-03  3.1783711115383237e-02 -3.7190142704864606e-03 5.6425640104947649e-03  3.3339148056880340e-02 -2.3557365990231362e-02 -1.9232287787479936e-02  3.1978170878464086e-02 -2.1588284151605363e-02 -1.3992370697769506e-02  3.2424270127915746e-02 -2.4720537305280441e-02 -2.1371102055294910e-02  3.2559088948493714e-02 -2.0404948303386537e-02 -2.1551566132363944e-02  3.2188866207661412e-02 -1.7713877018363872e-02 -1.3782008795914789e-02  3.3346442291049577e-02 -1.9296067974345053e-02 -1.9231628114957568e-02  3.2605981132048691e-02 -1.6803502507284584e-02 -2.1808354170899772e-02  3.2241283835271452e-02 -1.4364712567358459e-02 -1.3752085106628025e-02  3.3235282554775668e-02 -1.5669459443405000e-02 -1.9347777979816495e-02  3.2600342230478842e-02 -1.3222138027266966e-02 -2.2184011151423547e-02  3.2250959169113164e-02 -1.0948487406173789e-02 -1.3829785685691758e-02  3.3100219239363272e-02 -1.2034769965240298e-02 -1.9567313878336823e-02  3.2291713457267647e-02 -7.2692851026446353e-03 -1.4006155292686909e-02  3.2995700459756749e-02 -8.1422008170864528e-03 -1.9895251184753601e-02  3.2614756492018573e-02 -9.3776564011104745e-03 -2.2678422231761756e-02  3.2395652142502757e-02 -3.3707522237465298e-03 -1.4290265881372936e-02  3.2957033811390944e-02 -4.0094920555098995e-03 -2.0323546496822113e-02  3.2676397631490800e-02 -5.2738311284303355e-03 -2.3280367240725283e-02  3.2595122719602646e-02 6.9827692891683024e-04 -1.4674954910532684e-02  3.3014027067134376e-02 2.8966618004124277e-04 -2.0840304977767007e-02  3.2816404819233681e-02 -9.8929226671238342e-04 -2.3999699647121821e-02  3.2521742658696957e-02 -1.7044687492743561e-02 2.4445359946631668e-03  3.1064554606268203e-02 -1.6137633294584699e-02 6.0481859131951924e-03  3.1212986987418340e-02 -1.4652439054244385e-02 7.0975469404944910e-03  3.2519076242647930e-02 -1.4880637002184578e-02 3.5758162801280509e-03  3.1192900257607147e-02 -1.3158591764425706e-02 7.7709938904511897e-03  3.2280363522618843e-02 -1.2879512619005329e-02 4.2846611029216221e-03  3.1134904420402818e-02 -1.1547890705821616e-02 8.2949532556243211e-03  3.1996163615396624e-02 -1.0765236549601768e-02 4.8186116135181430e-03  3.1124529996726873e-02 -9.7966561045415550e-03 8.7237172360327721e-03  3.1759240476985466e-02 -8.4767258612161236e-03 5.2691145664272533e-03  3.1235817160238113e-02 -7.9331435975587943e-03 9.0064402414170124e-03  3.1640911661578890e-02 -6.0789081671794414e-03 5.6087980629669727e-03  3.1551988467035399e-02 -5.9907030854554327e-03 9.2065796916244794e-03  3.1712167624482056e-02 -3.6025096290118151e-03 5.8607813327832044e-03  3.3120391153409298e-02 -2.1089886523483255e-02 -1.2386170165467447e-02  3.3089024696299527e-02 -1.7243270633593634e-02 -1.1879605963026972e-02  3.2939285377320167e-02 -1.3897597932692666e-02 -1.1593959045592770e-02  3.2771354715781346e-02 -1.0509928086113420e-02 -1.1428868095665195e-02  3.2642409665376973e-02 -6.8961155535143684e-03 -1.1364580368819504e-02  3.2591021817059494e-02 -3.0771035845566955e-03 -1.1408292837414305e-02  3.2664642308744676e-02 8.9320208824320490e-04 -1.1543732843274637e-02  3.6465593123354997e-02 -1.7739417759979243e-02 1.6892061226640050e-03  3.5135171879115377e-02 -1.7190288825040374e-02 2.5793033865127045e-03  3.5121952146003582e-02 -1.8610984915936869e-02 -2.6539557999092733e-03  3.4581880058868301e-02 -1.5397517693647196e-02 -1.7547194625398984e-03  3.4468259516900440e-02 -1.4736655310787022e-02 3.5008805244368703e-03  3.5477410514595652e-02 -1.4944736754915490e-02 2.6359770033414325e-03  3.3843706136303692e-02 -1.2588757909287098e-02 -1.2149560714908214e-03  3.3600863004633545e-02 -1.2496711204731344e-02 4.1157191745577575e-03  3.4251576543144736e-02 -1.2465095844797654e-02 3.2480406026815286e-03  3.3122832671646125e-02 -9.7080010030044395e-03 -8.1479698725376963e-04  3.2764614777956641e-02 -1.0174549465255381e-02 4.6361786624040920e-03  3.3105426014562560e-02 -9.9020425221432520e-03 3.7564094146677190e-03  3.2494162080853241e-02 -6.6323181550493951e-03 -4.8824938993061200e-04  3.2044293153498972e-02 -7.6982304624199360e-03 5.1026751292182924e-03  3.2113110101320425e-02 -7.1586160292249155e-03 4.2043952822883104e-03  3.2014405490945239e-02 -3.4172598647117173e-03 -2.5691300253155548e-04  3.1491299082388638e-02 -5.1174101606038446e-03 5.4687843142450492e-03  3.1283426263413482e-02 -4.2810954548705357e-03 4.5444469482023298e-03  3.1690828319832137e-02 -9.9434066396683504e-05 -8.7018388748245549e-05  3.1110489067360879e-02 -2.4533014272178281e-03 5.8066386308662987e-03  3.0555076371740288e-02 -1.2856648775734375e-03 4.8302428766953181e-03  3.1998371347316784e-02 -1.5923723990016941e-02 6.4382370751085117e-03  3.2034716191180763e-02 -1.4469268739772114e-02 7.4401538495800839e-03  3.1833236616990133e-02 -1.3044085175396422e-02 8.0965647323917676e-03  3.1582778318137113e-02 -1.1517046622393392e-02 8.6144876082222006e-03  3.1383098420229641e-02 -9.8725593839594557e-03 9.0434355698064076e-03  3.1309279796689821e-02 -8.1385096265330463e-03 9.3493992707282085e-03  3.1427360448300440e-02 -6.3385772801531001e-03 9.5848469272226660e-03  3.1021055164509974e-02 -1.4905110701036126e-02 8.8953387059790348e-03  3.1150372484888330e-02 -1.4154342741979613e-02 9.8787345669471456e-03  3.1078367877516055e-02 -1.3271231471919482e-02 1.0484373872160968e-02  3.0970719567377614e-02 -1.2272100482730454e-02 1.0896848642864047e-02  3.0913273892052281e-02 -1.1164915511200527e-02 1.1188307843103124e-02  3.0980754047913853e-02 -9.9605460834798400e-03 1.1332849023180672e-02  3.1259173450939266e-02 -8.6859073968822125e-03 1.1373498528436048e-02  3.5466070603298774e-02 -3.2891233961334664e-02 -3.9468625873483126e-02  3.5251253486387669e-02 -3.2961230488627896e-02 -3.9582999457503355e-02  3.4772280491132110e-02 -3.5750179692874903e-02 -4.5557045149050054e-02  3.5540019248749999e-02 -2.8225321349589230e-02 -4.0866452978350586e-02  3.5332042793983991e-02 -2.2271751863830982e-02 -1.4692937140653953e-02  3.5362822815156562e-02 -2.4331749826255477e-02 -2.0559663933626428e-02  3.6240103169880043e-02 -2.4922841574582220e-02 -2.1036128981838761e-02  3.5729410527869522e-02 -2.0146179772419920e-02 -2.1379505774673631e-02  3.5029519971583371e-02 -1.9815473055671790e-02 -2.0801463458980287e-02  3.4922013319115722e-02 -1.7982901119782485e-02 -1.4502050546581751e-02  3.5151423011268244e-02 -1.6184284554395686e-02 -2.1788914936227102e-02  3.4604728795805707e-02 -1.5972451361900942e-02 -2.1108952170232138e-02  3.4388522298998504e-02 -1.4328800092988236e-02 -1.4503331447104698e-02  3.4200163250220572e-02 -1.2166582809026967e-02 -2.1495535514553545e-02  3.3876511693677364e-02 -1.0676244120247435e-02 -1.4617753060632687e-02  3.4616450800936532e-02 -1.2315672564219440e-02 -2.2288284374120382e-02  3.3838547133846826e-02 -8.1065294190093718e-03 -2.1977215132336751e-02  3.3424524222024285e-02 -6.7874889756981659e-03 -1.4824592545345313e-02  3.4129290605175222e-02 -8.1869784828026287e-03 -2.2881946074721715e-02  3.3533426241152645e-02 -3.7823780000925725e-03 -2.2539093440867145e-02  3.3057774352803326e-02 -2.6605008680619401e-03 -1.5123779618094260e-02  3.3704352579590667e-02 -3.7531501838779942e-03 -2.3560149165319184e-02  3.3300793480590646e-02 7.4860887912090118e-04 -2.3171387500701534e-02  3.2793188066134557e-02 1.6387259659406026e-03 -1.5496316423800340e-02  3.3336855713672620e-02 9.3901100558870963e-04 -2.4312156909707627e-02  3.9664153415105124e-02 -1.8396526189091940e-02 4.7290060122605147e-03  3.8091554424824044e-02 -1.7131492302910712e-02 6.3442734860157573e-03  3.7936895791520993e-02 -1.7948778494854992e-02 2.8391613800590309e-03  3.6278960568343351e-02 -1.5061545293704459e-02 3.6881133803370885e-03  3.6319517431493545e-02 -1.5116064506677402e-02 7.5280924167546760e-03  3.7103170707573130e-02 -1.5592426771547702e-02 5.8446059133720396e-03  3.4585344656663505e-02 -1.2544287266883673e-02 4.2865342146943142e-03  3.4495191038041016e-02 -1.3307715690485531e-02 8.3571776880628484e-03  3.4929484889946190e-02 -1.3154417990817385e-02 6.5205144467162073e-03  3.3101937835132385e-02 -9.9178711900525570e-03 4.7974698866275192e-03  3.2890357679254738e-02 -1.1405853579780781e-02 9.0351210474723456e-03  3.3074967899069205e-02 -1.0590774628703200e-02 7.0594760784151896e-03  3.1853458865412784e-02 -7.0973531949803884e-03 5.2229249241673957e-03  3.1529247403967821e-02 -9.3572608990058863e-03 9.6066396492251131e-03  3.1524461528103620e-02 -7.8538344960182183e-03 7.5085747838357997e-03  3.0775821046031968e-02 -4.1080985726107281e-03 5.5398226875857147e-03  3.0347528925788431e-02 -7.1571836446929051e-03 1.0061095498595589e-02  3.0118521335632781e-02 -4.9592367833689787e-03 7.8969743276617582e-03  2.9775887232156843e-02 -9.5618147195462822e-04 5.8029224037718314e-03  2.9253760716737898e-02 -4.8129978177073830e-03 1.0456760343142512e-02  2.8804470388902634e-02 -1.9322747575740596e-03 8.2767986981144258e-03  3.6276881237548353e-02 -1.6609827464560141e-02 5.6763857906400646e-03  3.5221799401267961e-02 -1.4622814415435505e-02 6.6630873254538243e-03  3.3939859497548824e-02 -1.2813027054023093e-02 7.3790484662418976e-03  3.2743278437154008e-02 -1.0917712761694710e-02 7.9949628114382512e-03  3.1706226436280772e-02 -8.8998912312852497e-03 8.5411352086180257e-03  3.0838099548580657e-02 -6.7632430451492719e-03 8.9825785497577686e-03  3.0086792810068638e-02 -4.5237216989491777e-03 9.3740497341700101e-03  3.4048029657552464e-02 -1.9993260840734963e-02 -8.0856300760433833e-03  3.2674088206062317e-02 -1.8231168544301509e-02 -2.1307155156577188e-03  3.2658549106591661e-02 -1.9610631347735399e-02 -7.0071950861464961e-03  3.2688589364767109e-02 -1.6219831992849966e-02 -6.1494715894710016e-03  3.2637251297463060e-02 -1.5394392015181804e-02 -1.1481417835948490e-03  3.3825119309123804e-02 -1.6375391390308532e-02 -7.3947060647025368e-03  3.2554917807173435e-02 -1.3279388702386421e-02 -5.6582034347693903e-03  3.2442239893486352e-02 -1.2842998498235319e-02 -5.2293616607720656e-04  3.3441777839379558e-02 -1.3219503861093647e-02 -7.0023499168638996e-03  3.2394885348701025e-02 -1.0257902874209511e-02 -5.3443161676009505e-03  3.2220605532600956e-02 -1.0199039589830355e-02 -4.4068429924635381e-05  3.3050815633761582e-02 -1.0014382417169850e-02 -6.7525373044659120e-03  3.2274203639064608e-02 -7.0202403125925166e-03 -5.1342298946242815e-03  3.2041116875948281e-02 -7.3710943612418376e-03 3.5476649562170623e-04  3.2713125549424495e-02 -6.5975576966403725e-03 -6.5926326454939137e-03  3.2244019148921735e-02 -3.5840778656641785e-03 -5.0294184135654049e-03  3.1969412332586926e-02 -4.4006949615614799e-03 6.4911470022439399e-04  3.2478592134677402e-02 -2.9891754639718156e-03 -6.5324941549852883e-03  3.2360844956902321e-02 -1.7372375531608796e-05 -5.0265636103055678e-03  3.2060506967530558e-02 -1.3210304572213877e-03 8.5284187600949120e-04  3.2390599435864073e-02 7.5495040054478961e-04 -6.5469707143855169e-03  3.3610362858673783e-02 -3.5020238792131557e-02 -4.4036344185870845e-02  3.3290998049527773e-02 -3.2056961594746552e-02 -3.7744965909576142e-02  3.3074107219981441e-02 -3.5012653647202574e-02 -4.3594519838032406e-02  3.2886009787312348e-02 -3.1172140809668906e-02 -4.4795068878097331e-02  3.3213949643582964e-02 -2.7875229191113553e-02 -3.8818483362296076e-02  3.3433184039902634e-02 -3.1176214059329899e-02 -4.5201138223604623e-02  3.2753300284141217e-02 -2.7848961658620712e-02 -4.5749311184082098e-02  3.3156342803203502e-02 -2.4315559187861210e-02 -3.9703689673501401e-02  3.3305744698687433e-02 -2.7805860889444544e-02 -4.6123134409751368e-02  3.2619543171620170e-02 -2.4642870119397736e-02 -4.6632529427493415e-02  3.3084410064384007e-02 -2.0882263244372042e-02 -4.0565771830988390e-02  3.3183794437927142e-02 -2.4556880360546693e-02 -4.6969085097685360e-02  3.2477867138620990e-02 -2.1191617289335548e-02 -4.7584802400613503e-02  3.3014847136687737e-02 -1.7199300736532207e-02 -4.1509064417064624e-02  3.3053889107818403e-02 -2.1091795719698759e-02 -4.7871099632440149e-02  3.2319094434891636e-02 -1.7406809122328223e-02 -4.8572969330880331e-02  3.2952540599247286e-02 -1.3213316048152415e-02 -4.2499218102124856e-02  3.2914464006383835e-02 -1.7290237773705176e-02 -4.8805523206550988e-02  3.2150669831359384e-02 -1.3402496067972485e-02 -4.9613777251514092e-02  3.2905355494464023e-02 -8.9922979598661881e-03 -4.3566252208613411e-02  3.2768663989542611e-02 -1.3294115023000021e-02 -4.9777476873058953e-02  3.6459509435897333e-02 -2.0546054715102853e-02 -8.4113762997649402e-03  3.6390667633480610e-02 -2.2233225672233400e-02 -1.4152844286080043e-02  3.7569380796951296e-02 -2.2268372047436889e-02 -1.3139416297304352e-02  3.6510022308305162e-02 -1.7569824073523484e-02 -1.3161061228868230e-02  3.5715124963578294e-02 -1.7793000833388646e-02 -1.4115586444247067e-02  3.5677386855377635e-02 -1.6479615998926202e-02 -8.0283898314478987e-03  3.5424416274850483e-02 -1.3794678884576988e-02 -1.3356895851279086e-02  3.4937952093125710e-02 -1.4047701428989303e-02 -1.4238738664021212e-02  3.4745512831090709e-02 -1.3046495517930136e-02 -7.9165383692368224e-03  3.4454262074888505e-02 -1.0041182277799330e-02 -1.3670602145647668e-02  3.4215926578949202e-02 -1.0318649506914208e-02 -1.4458706534666898e-02  3.3876522119717555e-02 -9.5865731644406531e-03 -7.9258366675178608e-03  3.3596830053150999e-02 -6.0009169692790253e-03 -1.4079751500591146e-02  3.3578115727133012e-02 -6.3355434172667306e-03 -1.4767364478820738e-02  3.3114820552554873e-02 -5.8860138859288761e-03 -8.0112830543044612e-03  3.2855664397937835e-02 -1.6615305751812397e-03 -1.4580962039054911e-02  3.3036602113873770e-02 -2.1000109023612103e-03 -1.5163713844132872e-02  3.2482619652026062e-02 -1.9629172785618908e-03 -8.1904078571968311e-03  3.2160405573006610e-02 2.9459047783811834e-03 -1.5174426674644886e-02  3.2571386811083118e-02 2.3434446343339817e-03 -1.5638443890165145e-02  3.1948492511377602e-02 2.1240293752284121e-03 -8.4522737251067747e-03  3.0006153627162305e-02 -1.5432496002295888e-02 8.1703157254039479e-03  3.0261170304444040e-02 -1.4537459277479733e-02 9.3926129729164001e-03  3.0356689720644946e-02 -1.3573443501566767e-02 1.0165083237113740e-02  3.0436133051605582e-02 -1.2450952954081464e-02 1.0684768081611069e-02  3.0561447875183369e-02 -1.1186947184917882e-02 1.1051469814703068e-02  3.0790011959651285e-02 -9.8030880252485981e-03 1.1248306755433013e-02  3.1207109049680905e-02 -8.3103247810408561e-03 1.1295659911484348e-02  3.6763143049139024e-02 -2.7149135739463325e-02 -2.6429431748170244e-02  3.6052212639798388e-02 -2.7271739060369293e-02 -2.7150055193561614e-02  3.5694109283632265e-02 -2.2469015373700503e-02 -2.7953379452267425e-02  3.6253682295589375e-02 -2.2111773214109450e-02 -2.7297537695857282e-02  3.5294579705687605e-02 -1.8459457316444591e-02 -2.8713799848536725e-02  3.5736280679630590e-02 -1.8094348843251305e-02 -2.8133669344461685e-02  3.4928726104746108e-02 -1.4573871252164966e-02 -2.9514379609819934e-02  3.5272379000172716e-02 -1.4216326878316933e-02 -2.9036289945866278e-02  3.4584177534915828e-02 -1.0407620492477364e-02 -3.0409241080710969e-02  3.4814491217258776e-02 -1.0017920996866828e-02 -3.0055622983986625e-02  3.4280975335788930e-02 -5.9053238904165457e-03 -3.1378422482388757e-02  3.4408598978757136e-02 -5.4146564932252709e-03 -3.1141742597836457e-02  3.4014993535705910e-02 -1.0816535734051540e-03 -3.2416127417993885e-02  3.4037213660948647e-02 -4.0198975810794773e-04 -3.2264670495922715e-02  3.1554653364169724e-02 -1.8249781991667338e-02 -2.3962434839934895e-03  3.2064578132503511e-02 -2.0122348179954050e-02 -8.6894717615791824e-03  3.2200699142718253e-02 -1.6582565764689729e-02 -7.8582313977893000e-03  3.1699107308549655e-02 -1.5427098915568656e-02 -1.4978895088414341e-03  3.2198979602233960e-02 -1.3558059107104352e-02 -7.3669483726552416e-03  3.1706681258966050e-02 -1.2870531639040646e-02 -9.2157208387783724e-04  3.2154950409639491e-02 -1.0463182800763738e-02 -7.0702097881820639e-03  3.1690834666301473e-02 -1.0207941677455727e-02 -4.6884506003172510e-04  3.2142365209908291e-02 -7.1518083062321863e-03 -6.8874912232910349e-03  3.1712068317798561e-02 -7.3474652548247395e-03 -9.7831522076708422e-05  3.2204224412896512e-02 -3.6345504254527193e-03 -6.8147210113778884e-03  3.1826217620860728e-02 -4.3312055857980328e-03 1.5111189667265182e-04  3.2379883519472484e-02 1.9583124706111914e-05 -6.8540639013910110e-03  3.2083382377704216e-02 -1.1846508585386711e-03 2.9074073502443286e-04  3.5405029157017355e-02 -2.0219020501600033e-02 -8.3022713736935656e-03  3.4860016192038504e-02 -1.6394027955343112e-02 -7.7835724263228137e-03  3.4192060198323035e-02 -1.3084272881576639e-02 -7.5474793016868432e-03  3.3546276838341715e-02 -9.7351893283332980e-03 -7.4358632774679367e-03  3.2980932825777368e-02 -6.1610897096927852e-03 -7.4029985528127644e-03  3.2535785975853881e-02 -2.3848376586263738e-03 -7.4656862971692259e-03  3.2219137568308021e-02 1.5355732528913896e-03 -7.5998987353012946e-03  3.3692922658076198e-02 -2.8989298078550264e-02 -3.1687424969332488e-02  3.3905068047846945e-02 -3.2137695592405625e-02 -3.8353573586835145e-02  3.3823709027361253e-02 -2.7918471384202875e-02 -3.9407374658264931e-02  3.3648402639342372e-02 -2.4578354831752101e-02 -3.2514947847785747e-02  3.3583371222472201e-02 -2.0846605436837175e-02 -3.3235654007935996e-02  3.3738970917824233e-02 -2.4281689582723701e-02 -4.0268115526802394e-02  3.3503390788650368e-02 -1.7199787653421485e-02 -3.3977925770722610e-02  3.3655201379720348e-02 -2.0763848444052522e-02 -4.1092533560372499e-02  3.3433753423644394e-02 -1.3288721464918300e-02 -3.4815368036755147e-02  3.3575808902099366e-02 -1.7005639567581693e-02 -4.1992917130289589e-02  3.3391694863848791e-02 -9.1020836081355527e-03 -3.5717473850603101e-02  3.3506467940789660e-02 -1.2944346330121958e-02 -4.2945010541556097e-02  3.3389534753813219e-02 -4.6953850229274272e-03 -3.6711066421666605e-02  3.3455903235610499e-02 -8.6683487844857621e-03 -4.3961513994494723e-02  3.8066567448073761e-02 -1.6128115606511107e-02 9.7857805465502417e-03  3.8177344638843785e-02 -1.4811770237657935e-02 1.1911915013599915e-02  3.6123495159735071e-02 -1.4218380900844754e-02 1.0541604030475053e-02  3.5036831282975821e-02 -1.3830366614272624e-02 1.1284476594873282e-02  3.6225172317287085e-02 -1.4510767828450384e-02 1.2549841152071160e-02  3.6162157605406225e-02 -1.4959811609179086e-02 1.0670852535658665e-02  3.3671399790323076e-02 -1.3306742531593160e-02 1.1781227443807798e-02  3.4210703853114054e-02 -1.4118309823997382e-02 1.3021969144344371e-02 