<?xml version="1.0"?>
<VTKFile type="UnstructuredGrid"  version="0.1"  >
<UnstructuredGrid>
<Piece  NumberOfPoints="745" NumberOfCells="3065">
<Points>
<DataArray  type="Float64"  NumberOfComponents="3"  format="ascii">5.141563786684137 3.607884958165014 3.454101691302056  5.131607342116907 3.632093277006738 3.318290031878065  5.034061699394991 3.600039508988027 3.35168706989639  5.015075259735809 3.666329458205038 3.367088171994258  5.118240100753837 3.700374677759064 3.331174099472396  5.127120676155678 3.676424044843346 3.476569684830307  4.996238644968346 3.732527438912947 3.382704890668565  5.104834610466369 3.768553401121352 3.344321149277741  5.112674330468192 3.744825674673646 3.499198148441698  4.977435780583378 3.798690728058967 3.398413335253037  5.091420066725593 3.836723916054514 3.357559764078015  5.098228287823832 3.813176513773776 3.521878809410847  4.958612864066199 3.864838438458762 3.414116663213687  5.078002514346644 3.904904835865461 3.370780748391535  5.083789858987656 3.881492105238701 3.544536830902548  4.939730956992913 3.930944200712113 3.429736259819717  5.064588047457876 3.973068578380451 3.383903837440273  5.06936089540826 3.949751355451172 3.56711351227702  4.920755354417397 3.996957330771687 3.445215012390612  5.051188904225163 4.041156424271324 3.396858541613056  5.054945715052977 4.017916725079623 3.589557762523545  5.141846657912321 3.665971703260448 3.046885086779868  5.123808410043225 3.652131364840413 3.199740957476425  5.220586764512992 3.667750110694033 3.146750609073546  5.213889458552988 3.734802394298384 3.153237101306836  5.112301649035835 3.719035913324348 3.208946441955603  5.1333188427127 3.730974515801723 3.051155778784976  5.100705401615745 3.785964491701702 3.218453314399533  5.124659150727254 3.7960738056715 3.055719868000291  5.206978165518203 3.801928768158593 3.160045718345202  5.089080352995 3.852960880831647 3.228061596087005  5.115968540756288 3.861327667680671 3.06037790931956  5.200031531583803 3.869170200481841 3.166932026555998  5.07744963836163 3.920019028536302 3.237643722463416  5.107279603084974 3.926720993411085 3.064998552949237  5.193104450632705 3.936516741698731 3.173778246348113  5.06582431853546 3.98710790163361 3.247103844777592  5.09861869795444 3.992219355594718 3.069461260510736  5.186247877788747 4.003939748282669 3.180479428261002  5.090009707744787 4.057757984175857 3.07365807203241  5.054239822769903 4.054180175667316 3.256346999759104  5.179528188107484 4.071390739997454 3.186936999049807  4.957443713818196 3.599619236230561 3.247014712570776  5.053124099668478 3.625618449421543 3.244921279098925  5.029571202844509 3.641536031203499 3.121576171177958  5.01499900844974 3.705873672330455 3.129904769544825  5.035971669594482 3.691072257710428 3.257250285499532  4.938886157812393 3.663803898495969 3.259883873244601  4.920455928132759 3.728015374252478 3.273007626748273  5.01888301328546 3.756479415794909 3.269838704341514  5.000412820778481 3.770295848733658 3.13853990224138  4.902042230129574 3.792267947643069 3.286242642276604  5.001797651561455 3.821912126234277 3.282535342294943  4.98580945021809 3.834816472278533 3.14728399165809  4.971175093328397 3.899422247984714 3.156007496671345  4.98469190241593 3.887372274994412 3.295223261852372  4.883585204398353 3.856551597323082 3.299479148785619  4.956490093282854 3.964082805728052 3.164600251630291  4.967544582295251 3.952819482429025 3.30780863093729  4.865034110066579 3.920824456004417 3.312613650784598  4.941723089172491 4.028751222275219 3.172955094326924  4.950303865268446 4.018174496232211 3.320198710480883  4.846350752119241 3.985042274598974 3.325556519031183  5.465809792722993 3.700640839155847 2.874364370977484  5.599254518156492 3.718365556231411 2.884818576341054  5.492033779388525 3.70787627622118 2.737047994451937  5.483276866040106 3.768111613738847 2.738408551897479  5.587545152343846 3.779369974560457 2.887739429569392  5.45880494507574 3.762967067220749 2.876062912225014  5.474411285465043 3.828610971128301 2.739992346167533  5.575741159516356 3.840595872562044 2.890880647318033  5.451614408175535 3.825473409575642 2.878043619382386  5.465452930258591 3.88941142236364 2.741625006301554  5.563865951473497 3.902064709942175 2.894109601144146  5.444360074313928 3.888254597584394 2.880111309212777  5.456452289901243 3.950555944559524 2.743207413303725  5.551949851296381 3.963823834131482 2.897313664988106  5.437107814048909 3.951339167275243 2.882124934636916  5.447455330782049 4.012134104266432 2.744645617897098  5.540036917205076 4.025966796576565 2.900390681456372  5.42994285218681 4.014755982839329 2.883964307249526  5.438673141601651 4.074258508419518 2.745780119978708  5.528311821043026 4.088708087746531 2.903142870689836  5.423045463570574 4.078506725011112 2.885465905384661  5.601782466282978 3.68270871005484 3.250122610725922  5.721982214131226 3.705627280437306 3.20309521746121  5.649065957382173 3.709229831232139 3.117684857513643  5.63917852469106 3.773504849442145 3.126976501968504  5.711733344638439 3.770141581864278 3.215901679083247  5.595741725892687 3.749764071897869 3.262099318860121  5.62909816585605 3.837875273857775 3.136531673136473  5.701304135744074 3.834717571379743 3.22894279797745  5.589403745703884 3.816827270313137 3.274373059074244  5.618951851843954 3.90242259450542 3.14620151570556  5.690801891088028 3.899443119381925 3.242083475714558  5.582997245465041 3.884026084874768 3.28674360553566  5.608831160476917 3.967205754329596 3.155847108263964  5.680317475369669 3.964379473651932 3.255221968532396  5.576651387146993 3.951408991951602 3.299086178404563  5.598838272547632 4.032298995544594 3.165375960218519  5.669933319024179 4.029622868252724 3.26828671979898  5.570499917498432 4.019003879187211 3.31130759558737  5.589196621094043 4.097790148898678 3.174655789794303  5.659910860726291 4.095337252207694 3.281149627434973  5.564765155299812 4.086788352083408 3.323265098948913  5.012868886598364 3.564074961576006 3.452431041430351  4.991381432494964 3.629307732356633 3.474979152654974  4.970134951400695 3.69440774513143 3.497681808985336  4.948959396458286 3.759435884071073 3.520448322253167  4.927776806427515 3.824415060613916 3.543212607589588  4.90653194666513 3.889327512980084 3.565918772038876  4.885145415790561 3.954141791101681 3.588486092018108  5.428134835026212 3.695023888558883 3.018483740824926  5.55881550690816 3.706945425095934 3.014709235893305  5.550355287244929 3.770678038355483 3.018951016345894  5.422134756535258 3.760011373954019 3.021970866769694  5.541681288098943 3.834639126795683 3.023477793397781  5.415877681096664 3.825149312971714 3.025786679072453  5.5329419422884 3.89881503919002 3.028100328551554  5.409576990954912 3.890507777930155 3.029679362106091  5.524209439950317 3.963252269878565 3.032687812880462  5.403318559471871 3.956105589470408 3.033511507644988  5.515589433098116 4.027999793463842 3.037121958652877  5.39719917878017 4.021945449261182 3.037164554703876  5.507293872221504 4.093093700830772 3.041245689868256  5.391340776591313 4.08798431256286 3.04051568570966  5.511472441123128 3.692581103162119 3.135254136060803  5.5055967782908 3.758875930630484 3.142416544319491  5.499429817255145 3.825326146880347 3.149911914587835  5.493212391428644 3.891948325123946 3.157494152743664  5.487041667516745 3.958779517925625 3.165033446107695  5.481038419679479 4.025840741027628 3.172422738585356  5.47541006649807 4.093105530820012 3.179537973276982  5.722573813421621 3.686158840183879 3.302766329253215  5.783355646911097 3.664369718774026 3.406039315708785  5.836712837432537 3.713684665117631 3.258203579918664  5.822559431477716 3.776448670303301 3.275524233481946  5.776482045376423 3.72944627693587 3.430013810594704  5.714400473463161 3.752243205870839 3.31814803998939  5.808303199748903 3.839329691488963 3.293058511938805  5.769363424687201 3.794500104549051 3.4542345667221  5.705998378611217 3.818388949549961 3.333801465013859  5.793997473736771 3.902328136320682 3.310689134107054  5.76218828986112 3.859644889802266 3.478543344988726  5.697526863730086 3.884642808202452 3.349539028876519  5.779691529031465 3.965516176999863 3.328337882944437  5.755068613492419 3.924968009001234 3.502866504584249  5.689093046841083 3.951095696122523 3.36527365299579  5.765444678647925 4.028995002918108 3.345948083415771  5.748132733132847 3.990577946751532 3.52717293340203  5.680826961097271 4.017854862356945 3.380936529769377  5.751403745389759 4.092973981821013 3.363455315944771  5.741716135329139 4.056624985057346 3.551375160414377  5.67304092625732 4.084999934756813 3.396377156904782  4.790822330070033 3.872712264340028 3.472617338466278  4.713635193831054 3.865318835747629 3.328532429118347  4.769217684225657 3.936655949755014 3.491310609118925  4.691397741995742 3.927412837355647 3.342751538538561  5.699837902557886 3.733478256881233 2.99974270055504  5.786410705936331 3.736479686049544 3.116652301989859  5.831658128152075 3.768521863212402 2.999702724986903  5.771403296983467 3.798298217203153 3.128728018960766  5.686010557330717 3.795038851364728 3.006376732371555  5.811494161657934 3.827340031894322 3.009837606737384  5.756303752318159 3.860332840806829 3.141006428514035  5.672073759420108 3.856850432176868 3.013218632504686  5.791351720356103 3.886376667343137 3.020110608501883  5.741161632381556 3.92254085633582 3.153370211289475  5.658077789652149 3.918881706861153 3.02014769098944  4.77315109943274 3.622914519435105 2.731730689914975  4.886684671564927 3.643596231879016 2.80105178943901  4.904220154182751 3.656037540051555 2.672104239172473  4.895249455268247 3.715704461896007 2.676522043565905  4.874436238613596 3.703580771360267 2.806992985309824  4.758454322591176 3.681004762180295 2.73894752678004  4.886285531830976 3.775588172631599 2.681215673702249  4.862212451656746 3.763777781836199 2.813196755741587  4.743886965112612 3.739332067598514 2.746428145708193  4.877252463619734 3.835759986435352 2.685970403892374 
[...]
<PointData  Vectors="f_24"> 
<DataArray  type="Float64"  Name="f_24"  NumberOfComponents="3" format="ascii">-5.2645418550074860e-03 1.3811966608638263e-01 6.0508623908077423e-02  -8.5814898605072430e-03 1.5627262773442332e-01 6.3403217620688457e-02  -6.2622304630543038e-03 1.5363872097956005e-01 6.2997991076945870e-02  -4.9732990609142715e-03 1.5159118377805383e-01 7.1615358604868229e-02  -7.0580818874139686e-03 1.5468000138062252e-01 7.1873268659196479e-02  -3.4699290140129796e-03 1.3462418654640804e-01 6.9312051493261348e-02  -3.6709108950656304e-03 1.4924210968872462e-01 7.9501126864678293e-02  -5.5679756994291632e-03 1.5267493437164337e-01 7.9583233920139315e-02  -1.7380927387293883e-03 1.3104711081683709e-01 7.7511854444784714e-02  -2.3280248800804908e-03 1.4655392206480355e-01 8.7071963074782238e-02  -4.0613836187356669e-03 1.5028577815739175e-01 8.6991015637062227e-02  -5.9644035871501201e-06 1.2726954201789809e-01 8.5503716895751106e-02  -8.9976711660349703e-04 1.4352017999665734e-01 9.4636959236907015e-02  -2.4967110956790094e-03 1.4752262500053986e-01 9.4427618293790233e-02  1.7674186350383624e-03 1.2326028502127384e-01 9.3545791548003826e-02  6.6290380347195689e-04 1.4016258180382540e-01 1.0244815131624206e-01  -8.4168556375203204e-04 1.4442119279917456e-01 1.0215264822828658e-01  3.6051747634091962e-03 1.1905863986499013e-01 1.0182190400334613e-01  2.4126156401742542e-03 1.3653048809966023e-01 1.1073561985471120e-01  9.3110695328424214e-04 1.4102492907903824e-01 1.1040459503162225e-01  5.4961862047309641e-03 1.1482655066620809e-01 1.1047609267458063e-01  -1.4559920644131219e-02 1.8528862676250904e-01 6.7742912469133471e-02  -1.1153376737269393e-02 1.7051322201915087e-01 6.6108311610129367e-02  -1.4180136411301909e-02 1.7396294156327521e-01 6.5035797129335923e-02  -1.2504373394397765e-02 1.7390898454927806e-01 7.1876746529047339e-02  -9.7574144987075048e-03 1.6994294493331014e-01 7.3575082274738204e-02  -1.3219084563947308e-02 1.8595670104391124e-01 7.3496156126473297e-02  -8.3914456622903137e-03 1.6869172687532358e-01 8.0354401434897915e-02  -1.1954617898592253e-02 1.8576996559804132e-01 7.8677656754496228e-02  -1.0937309709172883e-02 1.7317951498863327e-01 7.8112402840675166e-02  -6.9929755172968696e-03 1.6687372688176960e-01 8.6873497820403697e-02  -1.0684169923680407e-02 1.8482537999641713e-01 8.3635089819945344e-02  -9.3925901085515958e-03 1.7182465854119341e-01 8.4094163310161701e-02  -5.5182786255460071e-03 1.6453861075432044e-01 9.3457160497096944e-02  -9.3537864129912031e-03 1.8320157201430926e-01 8.8664358535078841e-02  -7.8119491376073867e-03 1.6990271009581734e-01 9.0145728478377762e-02  -3.9342350969117012e-03 1.6173859061798374e-01 1.0038266504123193e-01  -7.9218262629054403e-03 1.8096744099079332e-01 9.4053222340664197e-02  -6.1685005810860954e-03 1.6747385752114602e-01 9.6542532488737232e-02  -6.3654743069691301e-03 1.7821322014203944e-01 1.0007630288449847e-01  -2.2323681046962280e-03 1.5864617848145934e-01 1.0787978210387913e-01  -4.4654526705938148e-03 1.6462080027574177e-01 1.0353322715307145e-01  -7.1226280928320031e-03 1.6787113717921667e-01 6.5727965507875769e-02  -8.8960081505342521e-03 1.6659552098557301e-01 6.5351029347090070e-02  -1.0804757017460795e-02 1.8050888663646214e-01 6.8233452075755915e-02  -9.8523408887408737e-03 1.8051337595953315e-01 7.4903029115845135e-02  -7.7104395937470406e-03 1.6549711123234795e-01 7.3268570807552252e-02  -6.2546465188986168e-03 1.6666660888203613e-01 7.3572312044949073e-02  -5.3072480057523358e-03 1.6495380533652315e-01 8.0700249179382191e-02  -6.4695497942520103e-03 1.6385421982995599e-01 8.0460662832530269e-02  -8.8439630007493171e-03 1.7969608618394375e-01 8.0922160275122265e-02  -4.2571654708190715e-03 1.6275191354047039e-01 8.7502110860563698e-02  -5.1794461951936771e-03 1.6171088033828698e-01 8.7343273394772755e-02  -7.7530685164988612e-03 1.7819463953287029e-01 8.6672180444817240e-02  -6.5419969880571808e-03 1.7608484262922258e-01 9.2461510156218576e-02  -3.8000212935712053e-03 1.5910236652844881e-01 9.4246444476755523e-02  -3.0692354131216472e-03 1.6009374247514338e-01 9.4297206046172560e-02  -5.1593868326159659e-03 1.7343291846956735e-01 9.8562610303191217e-02  -2.2756187145695495e-03 1.5608126977694831e-01 1.0142727678543947e-01  -1.6918601279100336e-03 1.5700717422988122e-01 1.0134035880213935e-01  -3.5580104944106209e-03 1.7035918074104631e-01 1.0521249490441603e-01  -5.2839902254068073e-04 1.5265949881672064e-01 1.0904869512823764e-01  -6.2831566603637512e-05 1.5348006782583376e-01 1.0883735032965562e-01  -2.3793407437217855e-02 1.8718183854542039e-01 6.4289988260661957e-02  -2.5498949394697032e-02 1.8123632760857183e-01 6.1625123474687578e-02  -2.5442023600537066e-02 1.9098652696217736e-01 6.6310624405308050e-02  -2.3388508892986298e-02 1.9294790177267854e-01 6.7677603707056222e-02  -2.3243661323001437e-02 1.8284884291645845e-01 6.4917928202735536e-02  -2.1638695374253971e-02 1.8876778908015099e-01 6.7514003400897360e-02  -2.1523782824492670e-02 1.9410233525384468e-01 6.8895019939703067e-02  -2.1129374386230557e-02 1.8379850818572213e-01 6.7943272995694318e-02  -1.9685843761071378e-02 1.8955534952528624e-01 7.0446062613276614e-02  -1.9706538950790383e-02 1.9450614816678888e-01 7.0066651030963378e-02  -1.9050820765837612e-02 1.8410278737717808e-01 7.0843876599968950e-02  -1.7795778445504600e-02 1.8960342998687496e-01 7.3276725942112944e-02  -1.7830046195535722e-02 1.9414834888066546e-01 7.1302902262237941e-02  -1.6908251049388964e-02 1.8375796235921540e-01 7.3784199172367990e-02  -1.5879937877028964e-02 1.8892666834190325e-01 7.6190553366408689e-02  -1.5802689104010559e-02 1.9297197816394304e-01 7.2760400830971572e-02  -1.4609596567212852e-02 1.8271187534641381e-01 7.6972346091216504e-02  -1.3876422055428087e-02 1.8749951813112750e-01 7.9407191575532970e-02  -1.3598612219282704e-02 1.9094821988126146e-01 7.4663965230079204e-02  -1.2111849692756726e-02 1.8083626150435619e-01 8.0733722227335755e-02  -1.1769300795113612e-02 1.8526455224372296e-01 8.3195683303302126e-02  -1.7509374559850674e-02 1.5260214872368874e-01 5.4655792240519828e-02  -2.0118857898651796e-02 1.5324946642837939e-01 5.3140965172864853e-02  -2.1506629910278009e-02 1.6347582421849799e-01 5.6495283920399597e-02  -1.9005155443781757e-02 1.6361010035997048e-01 6.2303480876502254e-02  -1.7548652036495565e-02 1.5261753730683469e-01 5.9481048879651048e-02  -1.5038960312696768e-02 1.5163487768993544e-01 6.1660590641783801e-02  -1.6646012701545494e-02 1.6322820925849049e-01 6.7673176419636369e-02  -1.5105941404527206e-02 1.5165714645935582e-01 6.5343053920465397e-02  -1.2704223918771849e-02 1.5032650748432611e-01 6.8127092921325752e-02  -1.4328026166599747e-02 1.6236283224849510e-01 7.2848335627867911e-02  -1.2704775127276519e-02 1.5032620625854526e-01 7.0987167672886917e-02  -1.0423950181334574e-02 1.4865229837122210e-01 7.4353177775494564e-02  -1.1980854437581741e-02 1.6100458275870838e-01 7.8060680119005993e-02  -1.0275393113003963e-02 1.4860093707641725e-01 7.6632887787768098e-02  -8.1461021920657562e-03 1.4658007163715911e-01 8.0598933909116474e-02  -9.5558006122878729e-03 1.5911422873083886e-01 8.3551980325889036e-02  -7.7647998771126761e-03 1.4641903768583750e-01 8.2517899841089704e-02  -5.8528052144287603e-03 1.4407065302360991e-01 8.7126079352181834e-02  -7.0535780792582463e-03 1.5661750324674492e-01 8.9580566173738829e-02  -5.1632162706881195e-03 1.4363751864354279e-01 8.8937121581722428e-02  -3.5766845405867487e-03 1.4108676715515697e-01 9.4218929942823826e-02  -3.7143324028603235e-03 1.4035328427692548e-01 5.9553849811529398e-02  -2.2150586365139793e-03 1.3686934174935983e-01 6.8391678792563193e-02  -7.5883667560827043e-04 1.3332077320655039e-01 7.6595095100151556e-02  7.1311450406293521e-04 1.2958982236306410e-01 8.4524093417443852e-02  2.2468953381616762e-03 1.2562893352242677e-01 9.2453071907197606e-02  3.8807489840689299e-03 1.2144088586334065e-01 1.0058649832664265e-01  5.6644090226698265e-03 1.1708764707004386e-01 1.0904616969134251e-01  -2.0630859605927310e-02 1.7950067438648695e-01 6.2951413272625975e-02  -2.2742835279483089e-02 1.7504135478648819e-01 6.0227173266401944e-02  -2.0401881050897294e-02 1.7599886379517413e-01 6.5083415070616379e-02  -1.8464262839374589e-02 1.8039754725975904e-01 6.8028936637873863e-02  -1.8221286333732132e-02 1.7629417737017805e-01 6.9563141046930552e-02  -1.6479406057272127e-02 1.8053311454994914e-01 7.2704136711544479e-02  -1.6098679032063742e-02 1.7598351138228080e-01 7.3878723506737243e-02  -1.4560703854739905e-02 1.7998527533284242e-01 7.7219527043451155e-02  -1.3947323928148824e-02 1.7506393470858478e-01 7.8249259200530497e-02  -1.2640187596200794e-02 1.7877841221404567e-01 8.1831027149178157e-02  -1.1713749824944402e-02 1.7351073788305418e-01 8.2929316613575985e-02  -1.0677386858059275e-02 1.7692768878719445e-01 8.6798384303452394e-02  -9.4017310224386742e-03 1.7129210244820284e-01 8.8234049747267632e-02  -8.6728802130439566e-03 1.7450036166800945e-01 9.2393878058123213e-02  -1.9320123113338479e-02 1.6680160118891513e-01 5.9161762070202538e-02  -1.6972607100302281e-02 1.6685795393754665e-01 6.5416903525819997e-02  -1.4786658726393138e-02 1.6633486779836543e-01 7.1165077655687331e-02  -1.2662337800167836e-02 1.6528129787657830e-01 7.6706066261275074e-02  -1.0539020080297161e-02 1.6369929350883800e-01 8.2308734144296625e-02  -8.3918219224429717e-03 1.6158051772391679e-01 8.8237658270785654e-02  -6.2519129736073823e-03 1.5892890072139881e-01 9.4754585324134818e-02  -1.7303278954641326e-02 1.4338969546573535e-01 5.0934111071082630e-02  -1.4866471559689754e-02 1.3035807980690151e-01 4.6717648669007641e-02  -1.9593035941462382e-02 1.4400104286956711e-01 4.9721802215941795e-02  -1.6948061550421355e-02 1.4282786472584399e-01 5.6056201178996692e-02  -1.2237588697758503e-02 1.2749710734632302e-01 5.3676349049543277e-02  -1.4760468196816871e-02 1.4191528332809925e-01 5.7861157432151894e-02  -1.4420299968896516e-02 1.4143515052789524e-01 6.1968989817221189e-02  -9.6997056701083294e-03 1.2456630563488444e-01 6.0227721402387767e-02  -1.2324465715195092e-02 1.4024838458787572e-01 6.4310459169272180e-02  -1.1923002382415166e-02 1.3976847082172572e-01 6.7668951052513970e-02  -7.1902667549791658e-03 1.2148272668814394e-01 6.6586285513665758e-02  -9.9241512518865004e-03 1.3831888919239868e-01 7.0523178397227507e-02  -9.3874538521351320e-03 1.3778971938684498e-01 7.3349881733498393e-02  -4.6660928915607351e-03 1.1816659088512063e-01 7.2949873459864728e-02  -7.5041400694005117e-03 1.3606373595163823e-01 7.6733893073893777e-02  -6.7514963884349076e-03 1.3543129330531992e-01 7.9214349595778583e-02  -2.1124945643497539e-03 1.1452338269548955e-01 7.9520335371525419e-02  -5.0368551886521788e-03 1.3339380296755543e-01 8.3188838098448986e-02  -3.9533257620610928e-03 1.3250758081834826e-01 8.5504613405837995e-02  4.0108541896869689e-04 1.1050775538854944e-01 8.6540890742487858e-02  -2.5774355970422714e-03 1.3023739943733195e-01 9.0242885867989828e-02  2.2396113152346004e-03 1.3590384470040379e-01 1.0163061954263108e-01  -4.8132007185899443e-04 1.5659408189209217e-01 1.0059787850811268e-01  3.8345343954963780e-03 1.3179959487632381e-01 1.0987347891643215e-01  9.4906792576828728e-04 1.5292545391549042e-01 1.0798556040200981e-01  -2.4450906449478078e-02 1.7042440811530579e-01 5.7947517948166445e-02  -2.2649653728367674e-02 1.5830594011695440e-01 5.4144592955139473e-02  -2.5109699143084922e-02 1.6465102242066895e-01 5.5850551835808254e-02  -2.0094001709570316e-02 1.5834558090690848e-01 5.9619790177506612e-02  -2.2048867157278908e-02 1.7141817275868165e-01 6.2469496263292346e-02  -2.2687915395394172e-02 1.6556325079288356e-01 6.0204121191460097e-02  -1.7643742437087433e-02 1.5796676010193164e-01 6.4710965259060740e-02  -1.9757648775834500e-02 1.7183207787778526e-01 6.6647074996069353e-02  -2.0346013296063073e-02 1.6598639223459907e-01 6.4240917118975102e-02  -1.5217128074572105e-02 1.5718079632596413e-01 6.9611127278050175e-02  -1.7479377274638816e-02 1.7171492872874189e-01 7.0666341656938206e-02  -5.9878694712703143e-03 2.0677537147416999e-01 7.6556563174899284e-02  -9.9770007935753302e-03 2.0486401978666960e-01 7.4491433109525149e-02  -1.0353049855241625e-02 2.0677720824144832e-01 7.5813249931887150e-02  -1.0507046052648678e-02 2.0863385303641879e-01 7.5892564841741617e-02  -1.0129944039110364e-02 2.0636456652669771e-01 7.6620404116328936e-02  -6.9024835877839561e-03 2.0839121391849566e-01 7.7465192667381194e-02  -1.0494021588051948e-02 2.0932750046471352e-01 7.5850520448034489e-02  -1.0054149278809169e-02 2.0671882928652377e-01 7.8432099563919860e-02  -7.4300809214085835e-03 2.0894109806136602e-01 7.8152278761471433e-02  -1.0351325493400416e-02 2.0902023785922111e-01 7.5742223510182061e-02  -9.7914084460270882e-03 2.0610238903012107e-01 8.0110772450058973e-02  -7.6668222735538681e-03 2.0855275829181003e-01 7.8690342505702351e-02  -1.0073757369291980e-02 2.0779615308831573e-01 7.5634185771797577e-02  -9.3314857414752653e-03 2.0461004604383545e-01 8.1810714635855653e-02  -7.6484840036390922e-03 2.0728836398230932e-01 7.9158374753652963e-02  -9.6410551858894210e-03 2.0567446675198456e-01 7.5614299907994703e-02  -8.6448072296492762e-03 2.0229227732041180e-01 8.3681937808117501e-02  -7.3573411091300694e-03 2.0515084772807507e-01 7.9656684233131547e-02  -9.0202419637277313e-03 2.0267368309163669e-01 7.5852010035783290e-02  -7.6853938523113417e-03 1.9923786912573874e-01 8.5853827558776921e-02  -6.7262566034883616e-03 2.0210932113600039e-01 8.0380803010629429e-02  5.1561031159462149e-03 1.0199371750421195e-01 9.9934979488231754e-02  5.2841726207692775e-04 1.2520196882161866e-01 9.9918801814100511e-02  3.6661767403018334e-03 1.0377437362402014e-01 9.5140561944453764e-02  -1.5799455276530431e-03 1.2887866413374174e-01 9.1981653764974622e-02  -1.9782617772240902e-02 1.9867908504287399e-01 6.9757404638147752e-02  -2.0442637095324078e-02 1.8944650770532445e-01 6.6197475673640496e-02  -2.2905441137650591e-02 1.9457384026812871e-01 6.7639610018438379e-02  -2.1026277401048742e-02 1.9641865796865282e-01 6.9586099310851801e-02  -1.8590327106438681e-02 1.9086939895433783e-01 7.0139410699303323e-02  -1.8260723518267276e-02 2.0044344032281289e-01 7.1818741192601510e-02  -1.6902013128202605e-02 2.0124626102674689e-01 7.3649465185073773e-02  -1.6879226874883375e-02 1.9140541214518009e-01 7.3728510419789534e-02  -1.9320042334309732e-02 1.9736095940531251e-01 7.1349010766902782e-02  -1.5608461061758942e-02 2.0115302807044941e-01 7.5420837470888902e-02  -1.5249619976521619e-02 1.9114546059682802e-01 7.7189604045885540e-02  -1.7692867497871845e-02 1.9747594705721147e-01 7.3056571290950389e-02  -1.3620977673177923e-02 1.9011967557170997e-01 8.0738002890216001e-02  -1.4302261068141439e-02 2.0019602129754352e-01 7.7300109526840077e-02  -1.6058388259916949e-02 1.9678579920484993e-01 7.4869744006784672e-02  -1.2941235118790960e-02 1.9842082538562306e-01 7.9459729849328295e-02  -1.1939406489621704e-02 1.8839397628025042e-01 8.4641357794630681e-02  -1.4347917977911216e-02 1.9528666305329101e-01 7.6946605778547963e-02  -1.1475120839036445e-02 1.9580434353226733e-01 8.2134761637046264e-02  -1.0154207663159599e-02 1.8594670328336083e-01 8.9144379321785247e-02  -1.2500028264772832e-02 1.9290772339693796e-01 7.9522860765945544e-02  -7.6652221248404567e-03 1.8179903270290076e-01 6.8792090146060969e-02  -7.2668435053601732e-03 1.8147804940023615e-01 7.5433275709449424e-02  -6.7079013997596477e-03 1.8043714201958599e-01 8.1409465673474360e-02  -5.9767975781099018e-03 1.7873042810155396e-01 8.7091520958192462e-02  -5.0445414591172751e-03 1.7641973928772253e-01 9.2770680171838926e-02  -3.8747422060909434e-03 1.7355889653729459e-01 9.8695387729169179e-02  -2.4137552050968549e-03 1.7020540769792450e-01 1.0507950685506436e-01  -2.2247420340137030e-02 1.5051149171850836e-01 5.1942724815647337e-02  -1.9650454060887584e-02 1.5031316653559706e-01 5.7388354925964891e-02  -1.7166548887660588e-02 1.4979180109320597e-01 6.2471544929601192e-02  -2.1403036313395997e-02 1.9025704590183778e-01 7.4427690554509901e-02  -2.2003262674141592e-02 1.8176746673877719e-01 7.3928764227748051e-02  -1.8500781060156245e-02 1.7741389833372390e-01 7.6572730013427251e-02  -2.0096326895551717e-02 1.9225884699822329e-01 7.1141697890585831e-02  -1.5391049602096859e-02 1.8485421772957791e-01 5.4231210189556407e-02  -1.5155134105582996e-02 1.9252441906447451e-01 5.8908921737463642e-02  -1.3610537675015485e-02 1.7924464772049495e-01 5.0693994953803827e-02  -1.6502626187139550e-02 1.9367485170149043e-01 6.1992785872385124e-02  -1.2243851971252455e-02 1.7737696978107356e-01 4.4906082860355093e-02  -1.3477270048851362e-02 1.8316138579526348e-01 4.9795336469079916e-02  -1.3589958599005501e-02 1.9028497680574979e-01 5.5668048677620215e-02  -2.6730881457391529e-02 1.7507998928739710e-01 5.9404068353272166e-02  -2.7212030158709460e-02 1.8375196811937058e-01 6.3186598559638374e-02  -2.4556461007756870e-02 1.7677924731554592e-01 6.2418392112465748e-02  -2.5148246170654091e-02 1.8575971334432018e-01 6.4861188684147919e-02  -2.2397907283127946e-02 1.7787672095281742e-01 6.5200733118039089e-02  -2.3158444685417806e-02 1.8713432929933493e-01 6.6372783040880762e-02  -2.0196066057341987e-02 1.7841945186816272e-01 6.7869674205698546e-02  -2.1153029190612033e-02 1.8786509886333852e-01 6.7815507837710939e-02  -1.7862238831163574e-02 1.7841121822951581e-01 7.0552835681504888e-02  -1.9034572081910624e-02 1.8794613211012076e-01 6.9287921379234924e-02  -1.5270304350652188e-02 1.7780943088579829e-01 7.3388909023556895e-02  -1.6685472161252261e-02 1.8733340637269863e-01 7.0906943587138047e-02  -1.2186484638259793e-02 1.7643757966288273e-01 7.6533876180024218e-02  -1.3905310816714261e-02 1.8584540438544284e-01 7.2804313323385675e-02  -2.4432906490599527e-02 1.8746956148564781e-01 7.1577149097965559e-02  -1.6579803739053017e-02 1.9099258595930707e-01 5.9654829176516364e-02  -1.4418187807168361e-02 1.8920464865788514e-01 5.7065954745125082e-02  -1.7669424099243904e-02 1.7073882236337801e-01 6.1654294027978437e-02  -1.5540505705646974e-02 1.7086034289686095e-01 6.8101495327345052e-02  -1.3546272990861655e-02 1.7035044238884722e-01 7.4020348486154422e-02  -1.1620295439209736e-02 1.6925184886008710e-01 7.9718254447569969e-02  -9.7056073779592661e-03 1.6759525516522528e-01 8.5493516743404038e-02  -7.7724301915031886e-03 1.6541132476233178e-01 9.1612209553301710e-02  -5.7977930036218301e-03 1.6271971718576234e-01 9.8276645127566509e-02  -1.4482008653473469e-02 1.6588031524699409e-01 7.8124157917294532e-02  -1.6021783059559040e-02 1.6058598079851433e-01 7.7187064505667036e-02  -1.3881693490493801e-02 1.6703273371501445e-01 7.1141395014657452e-02  -1.7555165357817499e-02 1.7911365126809042e-01 7.1135218455830693e-02  -1.5322491001841425e-02 1.6182363875491118e-01 7.0161772270191033e-02  -1.6662921837766406e-02 1.8014537038414161e-01 6.6001968679488918e-02  -1.3301739780035378e-02 1.6760977610836056e-01 6.4549934040813356e-02  -1.4588796087662125e-02 1.6253764655602537e-01 6.3549894407604696e-02  -1.5744927382698257e-02 1.8053417743300754e-01 6.1004180357812035e-02  -1.2690740370719633e-02 1.6763725764178258e-01 5.8138994126575930e-02  -1.3791523085386828e-02 1.6274265449746927e-01 5.7116767700498422e-02  -1.4749682088500348e-02 1.8025604320327213e-01 5.5970666320770232e-02  -1.2021811964263442e-02 1.6708709203639976e-01 5.1658357476608963e-02  -1.2894753180677903e-02 1.6242904826101334e-01 5.0620986856913859e-02  -1.1253614159708793e-02 1.6589551970421978e-01 4.4830753889566380e-02  -1.1843271937974194e-02 1.6156583420139906e-01 4.3781911929480423e-02  -1.0353371468436267e-02 1.6404686438270988e-01 3.7343858167942473e-02  -1.0534846668589859e-02 1.6006166673469235e-01 3.6248147939001094e-02  -1.3221040103716318e-02 1.8415570208687396e-01 7.8354888137373055e-02  -1.7615555112984210e-02 1.8802981462001253e-01 7.6719669821084024e-02  -1.5478297846385812e-02 1.780