<?xml version="1.0"?>
<VTKFile type="UnstructuredGrid"  version="0.1"  >
<UnstructuredGrid>
<Piece  NumberOfPoints="907" NumberOfCells="3879">
<Points>
<DataArray  type="Float64"  NumberOfComponents="3"  format="ascii">9.094173925064778 3.680739223457439 3.609707729621877  8.974074714784079 3.63017503845702 3.693390042021607  9.084317025112236 3.627439826924734 3.70405588382302  9.082913863021151 3.684079227111119 3.739611611864856  8.972825159620786 3.68777162096141 3.727149345104348  9.092603799532878 3.738575932422564 3.63876107865531  9.081642680694999 3.740499543181694 3.775286901079671  8.971713691786661 3.745186745264281 3.761085090129324  9.091146337311054 3.796295879651527 3.668001403069121  9.080422894800144 3.796824793264273 3.811004212718834  8.970675018714399 3.80252304475256 3.795091095115665  9.089746064283009 3.853976273407076 3.697324202202906  9.079221103720979 3.853114763700719 3.846709808996577  8.969652156462031 3.859843879510161 3.82909398321589  9.088365329535279 3.91166346862527 3.726649839389772  9.078006095967552 3.909389081764435 3.882357467883452  8.968600608306199 3.917172031237474 3.863032797915008  9.086977039454791 3.969380426832473 3.755913006459457  9.076726087554711 3.965636916718212 3.91788752958675  8.967493775225321 3.9745230544923 3.896843728713279  9.08553622675373 4.027128515339742 3.785047074177867  8.985464613763671 3.820398943615236 3.60656360458235  8.982893111459145 3.879042815212806 3.631639139406527  8.980335530153495 3.937751713280983 3.656723440676499  8.977741085898524 3.99654388774092 3.681728322870159  8.975082618645859 4.055403828305302 3.706572553970174  9.464834165975125 3.509678280676943 3.806891115006415  9.358863483544365 3.563401046119201 3.774094414457075  9.383337203384682 3.455671376469039 3.865291915175391  9.390671115387587 3.496337577912266 3.921325552784612  9.362970254109488 3.612168951177063 3.821375905646348  9.472562424325815 3.553888864071617 3.85849134305187  9.397899498950853 3.536825924924611 3.977268278766124  9.367026670356442 3.660757343158181 3.868653918585233  9.480142547329347 3.597923338566543 3.910057254753796  9.405082008373627 3.577188014290841 4.03314665856418  9.371072289775951 3.709224792785952 3.91592027315982  9.487672774226297 3.641848413922416 3.961600193735869  9.412276640051466 3.617451994077123 4.088971382743197  9.375141243565119 3.757615072587064 3.963155172242622  9.495224949753641 3.6856978805827 4.013112212649236  9.419517305927577 3.657626029963379 4.144739538690294  9.379253553729855 3.805950256498333 4.010336192989061  9.502851285998982 3.729479310675794 4.064569315370041  9.426835404034028 3.697722128971895 4.20044581380513  9.383403052772875 3.854240157047294 4.057443616152565  9.510580408649112 3.773175880561477 4.115928282086077  9.866572959134942 4.03126223374729 3.592545194557926  9.959378186058785 3.996332344890383 3.666288951647141  9.905039185548706 3.929902823193613 3.763494101993638  9.903898277522309 3.881166733582289 3.722756957264811  9.956513789992952 4.046903888409117 3.702848324585357  9.865947179062083 4.083239706439532 3.624946527510053  9.906360294811888 3.978793930098474 3.804314641527654  9.077373038589931 3.259683533263328 4.002848764150533  8.994165394544964 3.323734678912614 3.977723939903347  8.990427223869519 3.192860859896217 4.031499680485336  8.992289512074201 3.213051461251274 4.101154501737946  8.994454267453927 3.353867272433668 4.04314149033971  9.081953536894128 3.282808951975932 4.070966319241559  9.086513585021986 3.305865565842503 4.138857438150599  8.994825562452053 3.383866879397264 4.108315277989906  8.994183426202293 3.233190466056591 4.170577032774716  9.091065238851323 3.328821345575077 4.20658941318528  8.9952269766355 3.413743035862753 4.173344134930726  8.996090314952152 3.253255396903956 4.239864556233325  9.09561750526712 3.351668719377291 4.274226549158596  8.995632624533471 3.443509463730231 4.238277776942152  8.998004934222136 3.273229252043518 4.309051135439274  8.996022252196974 3.473168889477356 4.30314274820133  9.10017783189469 3.374402125127867 4.341777545327639  8.999920347497817 3.293096193145508 4.378151046694822  8.996363848837778 3.502704858437684 4.367928744123659  9.104761882133507 3.39702876895015 4.409242566705949  9.001823254483561 3.31282814614124 4.447162548023023  9.272520908050208 3.518843263545819 3.82520261269095  9.278074219012492 3.566475754665119 3.875052948658581  9.283561196056207 3.61386637660124 3.924828504348738  9.289028235579767 3.661120874674082 3.974561060107913  9.294510711627643 3.708276846263423 4.024246752149802  9.300036639506235 3.755350024525528 4.073874182388061  9.305645599577273 3.802349896655846 4.123404882238556  9.701875004047123 3.129814460679683 3.942288344804531  9.657481074899948 3.238665592837555 3.923641606782544  9.58974757138742 3.11045185651866 3.965843625218963  9.602554775511519 3.121169966912408 4.033734700644252  9.670540099379791 3.259048904076275 3.988767742627847  9.716065245513725 3.141108461906349 4.009288037263177  9.615222276364156 3.131823270205343 4.101533073149784  9.683401970867179 3.279334713668297 4.053868530915193  9.730082063378381 3.152311578971554 4.076257490106268  9.627817780370139 3.142410227990534 4.169265820107796  9.696177787937291 3.299537689842857 4.118951560048755  9.744020100548909 3.16343401035194 4.143203375628055  9.640396311875234 3.15291748081455 4.236948621514119  9.708954429455883 3.319662360024237 4.184009454250316  9.757948851493779 3.174477026273338 4.210125654364941  9.653015726794335 3.163355577260134 4.30457757173555  9.721811569849029 3.339721837671807 4.249025240401813  9.771944600151537 3.185467299472217 4.277008444654988  9.665732620248773 3.173756017674306 4.37212242392755  9.734843143070149 3.359765526009268 4.31394910807211  9.78607911805925 3.196449934196786 4.343809173190841  9.667394904004649 3.042103713219545 3.958225085765155  9.682107601342093 3.045956795714935 4.025988340993258  9.696675065509018 3.049752982880563 4.093673149791293  9.711170188943575 3.053479193621099 4.161306071197203  9.725649849080751 3.057132963872857 4.228896529537558  9.740175582447698 3.060733148551988 4.296441026751154  9.754808002743054 3.064310653588099 4.363914650348113  9.816493766579187 3.97921364958951 3.690688822389225  9.819755898539359 4.030667676719423 3.726391243057643  8.782451649819567 2.72488481190111 4.332868114918511  8.869734492482417 2.609600358511758 4.30391564678766  8.765782250919964 2.553307393728542 4.289388161132558  8.867992078237563 2.629673475380188 4.236517853035285  8.785962596535102 2.735650146463779 4.262739745987533  8.764239264576968 2.53139490067865 4.355961499543301  8.778952090139152 2.714053657616375 4.402939456145457  8.871490232628208 2.58945519494929 4.371261225424148  8.762743194791444 2.509360842625611 4.422473797545072  8.775471259783606 2.703091473786774 4.47294589226478  8.873255795007427 2.56916603476007 4.438534173612901  8.872646067390585 3.279122480104538 3.99581341094685  8.871380267280562 3.305795361482294 4.062983184112293  8.870225405103758 3.332359361240268 4.129924558064336  8.869126753753557 3.358813768249671 4.196726305761384  8.868040690760058 3.385164617877096 4.263437398410536  8.86693436863041 3.411411523749977 4.330074198175232  8.865777319657784 3.437547790782923 4.396634822451011  9.540126998473282 3.218104758244057 3.952169018398159  9.55257053022623 3.236444251249219 4.018716036533941  9.564842814741171 3.254714734332207 4.085169021194757  9.577035636917472 3.272896716372694 4.151555231853954  9.58921647213695 3.29098753310498 4.217888252920384  9.601450631279658 3.308998840629192 4.284161216819765  9.613809699765614 3.326965157567412 4.350345920171875  8.634123147006486 2.640660717495731 4.306351799676832  8.62829279666594 2.62544734036836 4.374864092759806  8.62251085378554 2.610133244143109 4.443315241866014  9.233965360429394 3.572637314865807 3.765476805860451  9.195838296986324 3.650316455348774 3.675377521503329  9.133383907309016 3.579745119989614 3.773140215836939  9.136487021019565 3.632764004115143 3.816127578043412  9.196559013857522 3.706291438226072 3.710888739205165  9.237490907474886 3.624283719558711 3.809556204475536  9.139581499895685 3.68552289263845 3.859151105527473  9.197330273778425 3.762096938196793 3.746514843105921  9.240997282639269 3.67568041595912 3.853635364334961  9.142699777947694 3.738150464828676 3.902178296316514  9.19813565951234 3.817820662984625 3.782188415606567  9.244503261635865 3.72692830822602 3.89769274623715  9.145837974173544 3.79070531938819 3.94517930802352  9.198959448946791 3.873512840735267 3.81785176459329  9.24802516526554 3.778087031465653 3.941714976214683  9.149005350848785 3.843214545375501 3.988125548331381  9.19978838613032 3.929200288768279 3.85346025461878  9.251573414213592 3.829178440068232 3.985678972402182  9.152233442197248 3.895686862251578 4.030984974215958  9.200626110189601 3.984897799965771 3.888973775359343  9.255179188711248 3.880217794251565 4.029556312629988  9.003056694475823 3.569947517023636 3.791386873810843  9.002897726068676 3.623963893861899 3.83434019099101  9.002856326752307 3.677717104233612 3.877356653313903  9.002868598650419 3.731352095863636 3.920376933220657  9.002896027755726 3.784931060216428 3.963373292686684  9.00290687029646 3.838477731036436 4.006313998742745  9.002877628025686 3.891997510826955 4.049165336580164  8.885083600362723 3.563630430213043 3.795366095478767  8.882681370729099 3.616719741218734 3.839688836318679  8.880467675855575 3.669588199340813 3.884103262099071  8.878342107889752 3.722353061187358 3.928547889447814  9.433183459965583 3.689467603350765 3.590811114476437  9.298174869592174 3.679291777228408 3.617032852545226  9.389669280388732 3.636868741041209 3.683647487655982  9.392014338006401 3.691051728446202 3.721767349321144  9.298573962066003 3.736163276371327 3.648230128264556  9.434267560222253 3.745285302845404 3.62255492292414  9.298988445603836 3.792892244308628 3.679584348060985  9.43
[...]
<PointData  Vectors="f_24"> 
<DataArray  type="Float64"  Name="f_24"  NumberOfComponents="3" format="ascii">-4.7740371934839022e-02 7.1596052345056838e-02 -7.0009341588867097e-03  -4.3733018310726283e-02 5.5505835892758051e-02 -1.4224178895417161e-02  -4.5539583605282243e-02 5.4029521904874617e-02 -1.5517125360170574e-02  -4.5329471532888813e-02 4.9537191123230497e-02 -9.4311066192639958e-03  -4.3676909373011108e-02 5.1009343934115693e-02 -7.9823647627134450e-03  -4.7443818278954428e-02 6.7434577337528598e-02 -1.0914818737563567e-04  -4.5127450112192741e-02 4.6057316068369263e-02 -4.0458035132165827e-03  -4.3557404794118355e-02 4.7672547347259932e-02 -2.5466174790347630e-03  -4.7179297991800581e-02 6.4433642828626708e-02 5.6064003789351577e-03  -4.4882509427667056e-02 4.2036505885712297e-02 2.0172437877236243e-03  -4.3476252449668636e-02 4.3821288763307334e-02 3.6121723802511078e-03  -4.6856439043053616e-02 6.1048346674261310e-02 1.1832685042381160e-02  -4.4659250340675097e-02 3.7207958702833006e-02 9.1519897133937184e-03  -4.3492532863541225e-02 3.9092911801390060e-02 1.0953544431390568e-02  -4.6622221739417984e-02 5.6562393389837186e-02 1.9562244399349119e-02  -4.4456460357627445e-02 3.2185060614902665e-02 1.7081723192240252e-02  -4.3591914571088450e-02 3.4170075512447301e-02 1.9171618019270829e-02  -4.6405788099883757e-02 5.1696334143359633e-02 2.8362484241379236e-02  -4.4315664057103764e-02 2.7163446043161274e-02 2.5488169821393177e-02  -4.3811598230628870e-02 2.9283750643690733e-02 2.7953905505699098e-02  -4.6179336692393304e-02 4.6781081672127155e-02 3.7660349922580091e-02  -4.6189776684922620e-02 7.5296626887749379e-02 1.0934316429605444e-02  -4.5956346112662694e-02 7.2474017033837573e-02 1.7233690689980267e-02  -4.5911612526117695e-02 6.8382471550334167e-02 2.5348639455200647e-02  -4.6021568105898435e-02 6.3778913587385203e-02 3.4788826997229766e-02  -4.6140592180559020e-02 5.9097309034331635e-02 4.4765954861134355e-02  -5.1846399807256721e-02 3.4434535127681201e-02 -3.6535432483830267e-02  -5.0214911427140414e-02 4.0463760292715721e-02 -2.8412534921558000e-02  -4.8675500644266588e-02 2.6191020709967202e-02 -4.0942853518084771e-02  -4.7226829219085137e-02 2.1854936490029026e-02 -3.8144248821268538e-02  -4.9030379416675471e-02 3.5852272929605682e-02 -2.4016448127047552e-02  -5.0332081320412898e-02 2.9625004302854557e-02 -3.3395706514973360e-02  -4.6073811906302838e-02 1.7851019696878752e-02 -3.5127683052447504e-02  -4.8083627818963512e-02 3.1750822619743935e-02 -1.9834481831827382e-02  -4.9094431305826552e-02 2.5522417920021679e-02 -3.0156501011286196e-02  -4.4974614331897131e-02 1.3349975062566201e-02 -3.1622904349560367e-02  -4.7144162783084684e-02 2.7043278613724759e-02 -1.5064733935655729e-02  -4.7896579905005801e-02 2.0901472160532873e-02 -2.6270399206519916e-02  -4.3801732459694716e-02 8.6318884020393921e-03 -2.7730701219569276e-02  -4.6139114915389162e-02 2.1808462518255921e-02 -9.6552755025490402e-03  -4.6630039943816898e-02 1.5895764563574711e-02 -2.1819329433270421e-02  -4.2458728092020670e-02 3.9102967859062660e-03 -2.3416516195417531e-02  -4.5002699228781633e-02 1.6545012127115961e-02 -3.7269480270123376e-03  -4.5152785240717565e-02 1.0899874216161586e-02 -1.6862643945207752e-02  -4.0923961763510694e-02 -8.5627625247013985e-04 -1.8837870289771647e-02  -4.3707640173122272e-02 1.1230874325942566e-02 2.5631313766469794e-03  -4.3393989372220609e-02 5.8980998344246912e-03 -1.1533245561707806e-02  -6.4846085665793071e-02 7.5166587001790658e-02 1.9470367720945680e-02  -6.4645025396910125e-02 6.2975139177868122e-02 1.0244138036449170e-02  -6.0310968900925563e-02 4.7603807070821638e-02 1.0292594443000089e-03  -6.1703057973421134e-02 5.3255741632578520e-02 -5.8088668155957188e-03  -6.3304519495520309e-02 5.7362397759634698e-02 1.8283423843225521e-02  -6.3414106750351404e-02 6.9875566852426074e-02 2.7827080084697711e-02  -5.8735117552011849e-02 4.1854304817789269e-02 8.5420781977645945e-03  -3.7377476424915852e-02 8.4959357359017090e-03 -5.0448350748716168e-02  -3.6869598118880555e-02 1.0996127680547647e-02 -4.6920139278261185e-02  -3.4681547782249113e-02 4.3263346278031934e-03 -5.3731320461546175e-02  -3.4713035313358911e-02 1.4834621408023007e-03 -5.3059072040127851e-02  -3.7043938934539465e-02 6.9079706258382790e-03 -4.5579494092804831e-02  -3.7170926777708460e-02 5.0325841950028720e-03 -4.9663274788797097e-02  -3.6815155601630255e-02 1.7727731486752063e-03 -4.8482706123441160e-02  -3.6881920723733079e-02 3.1509966369430219e-03 -4.3789070529962164e-02  -3.4469596324150337e-02 -1.2849821452458143e-03 -5.1986451823684346e-02  -3.6339972559007172e-02 -1.5578709964206403e-03 -4.6919862330572021e-02  -3.6610493581671649e-02 -7.8677196535027435e-04 -4.1523807318483090e-02  -3.4119927372055089e-02 -4.0916363768732731e-03 -5.0578639074245181e-02  -3.5819997781848488e-02 -4.8898768187409028e-03 -4.5027386995862659e-02  -3.6336730804979261e-02 -4.7494072530504415e-03 -3.8892233046486591e-02  -3.3765747573322069e-02 -6.8667662879725267e-03 -4.8865317517068525e-02  -3.6167668438617427e-02 -8.6317979202385122e-03 -3.5852469120961419e-02  -3.5308218187705409e-02 -8.1401961412899491e-03 -4.2735968831837813e-02  -3.3514056317846638e-02 -9.5600999438873631e-03 -4.6752928252768181e-02  -3.6211226477551137e-02 -1.2465522514095313e-02 -3.2549057318865343e-02  -3.4859036261376354e-02 -1.1365979153521980e-02 -4.0239709396044133e-02  -3.3451005104023365e-02 -1.2193573970372195e-02 -4.4539415138310105e-02  -4.7033705476756858e-02 3.3176456523755782e-02 -3.2246944460848505e-02  -4.6210551618866141e-02 2.8591039398017146e-02 -2.8120792591512817e-02  -4.5501925378868317e-02 2.4482100084709101e-02 -2.4180772238883940e-02  -4.4787897143321868e-02 1.9832901387812549e-02 -1.9701837424844694e-02  -4.3990750922690690e-02 1.4799097042637028e-02 -1.4688943276893315e-02  -4.3083923208213797e-02 9.7732727223166418e-03 -9.2126676882741121e-03  -4.2059838423793447e-02 4.7242102805072697e-03 -3.4453454819874884e-03  -4.9734239669972258e-02 1.1634568751053348e-02 -7.0868010938266918e-02  -5.0886941236057415e-02 1.5261547655930347e-02 -6.4503790203916736e-02  -4.6710067070264205e-02 9.5849179773651785e-03 -6.6910678543583624e-02  -4.4957216215434796e-02 7.9280514817971440e-03 -6.7200045830514185e-02  -4.9024611866194119e-02 1.2507278744933676e-02 -6.4294935794098049e-02  -4.7905949131746527e-02 9.9204789649164817e-03 -7.1038200258372361e-02  -4.3398924991009481e-02 6.3097934576347575e-03 -6.6976748844161133e-02  -4.7493489660420836e-02 9.9134765789574055e-03 -6.3528846843642323e-02  -4.6313965845361335e-02 8.2817986996041610e-03 -7.0697363506602204e-02  -4.1815019099722926e-02 4.6975808325305174e-03 -6.6374355562727042e-02  -4.5919071994802892e-02 7.1230048269377375e-03 -6.2318099615539239e-02  -4.4678773207272503e-02 6.5970070631887609e-03 -6.9970972751581123e-02  -4.0065455773444780e-02 3.1227429127019383e-03 -6.5448064526591243e-02  -4.4137981925203525e-02 4.3017466491693671e-03 -6.0750180737765058e-02  -4.2839261074165039e-02 4.9402386208247141e-03 -6.8911781809290390e-02  -3.7978060147681972e-02 1.5913591206174313e-03 -6.4095373053296351e-02  -4.1988807905260023e-02 1.5285628119119400e-03 -5.8733881284279303e-02  -4.0588754228144737e-02 3.3295572843418477e-03 -6.7403049745142316e-02  -3.5487556219900886e-02 9.3527439616352030e-05 -6.2499770568204799e-02  -3.9398521961529764e-02 -1.2514610190928325e-03 -5.6478482388026177e-02  -3.7877215951206987e-02 1.7322220585844850e-03 -6.5749306745348984e-02  -4.7240460984060852e-02 8.5872000236203883e-03 -7.0850748488024626e-02  -4.5387942830371335e-02 7.6645541016395809e-03 -7.1469496665630947e-02  -4.3791954954196563e-02 6.7636190691768927e-03 -7.1549717860243084e-02  -4.2171151550179857e-02 5.9576605139930973e-03 -7.1200253538065680e-02  -4.0350438680638090e-02 5.2037601943391663e-03 -7.0489172077868700e-02  -3.8141263662905801e-02 4.5030162809841789e-03 -6.9309710114139125e-02  -3.5432530260572546e-02 3.8269255517527855e-03 -6.7914327949863629e-02  -6.0524131518448224e-02 5.8979814604904486e-02 1.2203999465934631e-02  -5.8907142670798315e-02 5.3523909281097841e-02 2.0213220089483924e-02  -2.3707120730377236e-02 -6.5357335951845503e-03 -5.4731875108402342e-02  -2.2790166196676932e-02 -5.5402792779675877e-03 -5.0630396873967559e-02  -2.0975709161191781e-02 -7.1381719391403111e-03 -4.8573937558199644e-02  -2.3360461281177618e-02 -7.3995736105734343e-03 -5.1861325050684193e-02  -2.4098252099544932e-02 -7.5739889111432800e-03 -5.5736892104949642e-02  -2.0641113656422506e-02 -4.9493348931573177e-03 -4.6721919122010624e-02  -2.3516073764844814e-02 -5.4380938639192449e-03 -5.3306846363094719e-02  -2.2341013954989410e-02 -3.6468627584685517e-03 -4.8986810152973750e-02  -2.0540148741029753e-02 -2.6773518195322725e-03 -4.4643096266387919e-02  -2.3613700376143295e-02 -4.2519178503169063e-03 -5.1616077161535760e-02  -2.2035914162978940e-02 -1.7382886790902792e-03 -4.7059883079806304e-02  -3.4526737077981061e-02 7.0459443312884890e-03 -4.9796567738965909e-02  -3.4768342527920229e-02 3.3362226183336272e-03 -4.8946080801816776e-02  -3.4627724509613385e-02 -1.3007548154541203e-04 -4.7595605818804967e-02  -3.4437995633825401e-02 -3.7346212191273660e-03 -4.5721432115617258e-02  -3.4296475507986743e-02 -7.3307329046152997e-03 -4.3443718797518932e-02  -3.4354612391899915e-02 -1.0821215064049360e-02 -4.0682405072272630e-02  -3.4746542098004034e-02 -1.4223857363095305e-02 -3.7572275869503104e-02  -4.7688751828473881e-02 1.2804714860191106e-02 -6.1560883728624491e-02  -4.5932567956228902e-02 1.0090469779511134e-02 -6.1318141828369546e-02  -4.4436171310146870e-02 7.5372294795348757e-03 -6.0633486230019552e-02  -4.2920369481210890e-02 4.8829131596047600e-03 -5.9573254978978397e-02  -4.1247905248799163e-02 2.2074446651201411e-03 -5.8196676600882985e-02  -3.9283048287928460e-02 -4.1733156289511090e-04 -5.6407225811214490e-02  -3.6950995320256259e-02 -3.0420200422206101e-03 -5.4412993582941507e-02  -2.0925532360919735e-02 -8.4581625023077544e-03 -5.2957393596944138e-02  -2.0764546743803548e-02 -6.8429288514977350e-03 -5.1323969330036752e-02  -2.0973897910296978e-02 -5.1361019175954438e-03 -4.9413442365204348e-02  -4.7246835894012670e-02 4.3512997364837720e-02 -2.4615675088637313e-02  -4.8507571023431034e-02 5.8495263080063233e-02 -1.3670088114860047e-02  -4.5379710006702698e-02 4.1911111865754289e-02 -2.2826561341544677e-02  -4.4923313652233988e-02 3.7288488570606092e-02 -1.7844332039175303e-02  -4.8078986559404922e-02 5.4338396189843985e-02 -7.5587837539675649e-03  -4.6779733613534207e-02 3.8293250744380516e-02 -1.9654610565219267e-02  -4.4629911881983383e-02 3.3355629490314564e-02 -1.3076270543932919e-02  -4.7675748978787548e-02 5.0940723078421110e-02 -2.0968561644797855e-03  -4.6287941518203632e-02 3.4190992993965150e-02 -1.5243791630222788e-02  -4.4294926749240023e-02 2.8827932009553543e-02 -7.6378925332783306e-03  -4.7191717281122071e-02 4.6889677928692343e-02 3.9922188777532621e-03  -4.5714964469076427e-02 2.9608739870318410e-02 -1.0171904838621758e-02  -4.3919817408675302e-02 2.3723032939573844e-02 -1.4462135971362031e-03  -4.6688423355747549e-02 4.1936663872623528e-02 1.1203312351498216e-02  -4.5075981931793567e-02 2.4465346011725835e-02 -4.3588111363149487e-03  -4.3503200782535105e-02 1.8590689483871495e-02 5.3102192934902778e-03  -4.6123063436232278e-02 3.6785463393890661e-02 1.9147451293641340e-02  -4.4353607669630410e-02 1.9254104295303158e-02 2.0370302269085475e-03  -4.3058384916601529e-02 1.3422329731470806e-02 1.2475584096692265e-02  -4.5485766425127638e-02 3.1560953950962679e-02 2.7525762515877968e-02  -4.3518852032783016e-02 1.4065849693561564e-02 8.8690566267682451e-03  -4.2282697643618875e-02 3.7879336570480406e-02 -2.3808611598749585e-02  -4.2324088752494236e-02 3.3559776521368885e-02 -1.8748438023967261e-02  -4.2264048192994570e-02 2.9774860381712568e-02 -1.3750390628331529e-02  -4.2183784761477383e-02 2.5315621616319100e-02 -8.0607801288392570e-03  -4.2116930295466176e-02 2.0311772422409818e-02 -1.6337264761813427e-03  -4.2107804511024388e-02 1.5292712286852566e-02 5.3780546719186598e-03  -4.2242537245952907e-02 1.0223080093460393e-02 1.2775453589031266e-02  -4.0209209835652279e-02 3.5535759483048608e-02 -2.4828624709984808e-02  -4.0359290967578891e-02 3.1190990959604762e-02 -1.9923834235072321e-02  -4.0361591840560422e-02 2.7331679460959397e-02 -1.5071417303923166e-02  -4.0418573147170671e-02 2.2755341488507691e-02 -9.5033717087106614e-03  -5.5815170307945236e-02 7.2141607300789903e-02 -1.1423637284496180e-02  -5.2368707518075333e-02 6.9064410027661685e-02 -1.0431660540185411e-02  -5.2882441954362765e-02 5.5417347597720656e-02 -1.9063228807918799e-02  -5.1759067240075722e-02 5.1136147953382928e-02 -1.3520006736011954e-02  -5.1521143357464133e-02 6.4803241606233103e-02 -3.8333947539250035e-03  -5.4848300121211550e-02 6.7741606372086122e-02 -5.1246107267256631e-03  -5.0968399447096177e-02 6.1728904740277757e-02 1.7504078631281610e-03  -5.4238696265927436e-02 6.4636834864445603e-02 2.0100429030789300e-04  -5.0966078968995923e-02 4.7647938309658203e-02 -8.4332432843245136e-03  -5.0330663133073113e-02 5.8206796315170603e-02 7.8699485926348820e-03  -5.3442460035515053e-02 6.1166977343354002e-02 6.0623044037531222e-03  -5.0085919303091031e-02 4.3536032698356951e-02 -2.6926582025111850e-03  -4.9598999314762596e-02 5.3645734789256605e-02 1.5318226680745495e-02  -5.2469871042077870e-02 5.6641037430592539e-02 1.3216027468971174e-02  -4.9101376437582174e-02 3.8601543933138659e-02 4.0182008881182400e-03  -4.8778653415448098e-02 4.8739212870365548e-02 2.3689980145328457e-02  -5.1324638661133307e-02 5.1690434885612736e-02 2.1419978074828448e-02  -4.7989343455619990e-02 3.3447392863694289e-02 1.1442430024696087e-02  -4.7799079410164043e-02 4.3774025477635328e-02 3.2531228888355600e-02  -4.9962197998396629e-02 4.6737698583221729e-02 3.0106516076296844e-02  -4.6694115979414814e-02 2.8250915511199029e-02 1.9258272665733590e-02  -5.0050718141407664e-02 1.8260043151274195e-02 -5.5810060224487514e-02  -4.5458997351553523e-02 1.2087270384406466e-02 -5.7074801229666489e-02  -4.3895473513030622e-02 9.1991150206708876e-03 -5.6382790233485205e-02  -4.8308446667303516e-02 1.4634040966044946e-02 -5.5029810781176997e-02  -4.2548693503758367e-02 6.4106610527104937e-03 -5.5288281696976069e-02  -4.6849304775721599e-02 1.1358782726006315e-02 -5.3781794778260651e-02  -4.1216125550462210e-02 3.4485008820788810e-03 -5.3868450259199042e-02  -4.5387600033729873e-02 7.7871782467579245e-03 -5.2003359481508880e-02  -3.9773528676375881e-02 4.3530781838769161e-04 -5.2173205314381424e-02  -4.3772349580467482e-02 4.1438785400631124e-03 -4.9845103771798897e-02  -3.8101366080822617e-02 -2.5571428952639087e-03 -5.0110431024623002e-02  -4.1866368430510163e-02 5.2577033315918443e-04 -4.7249458483420985e-02  -3.6155641479358298e-02 -5.5610072391928164e-03 -4.7893515615205058e-02  -3.9606260129805018e-02 -3.0926046043789584e-03 -4.4375718040138387e-02  -6.2899424074925492e-02 4.7993437367270929e-02 -3.0340579126042822e-03  -6.1537297604246470e-02 4.2172165209105161e-02 4.2740157238645706e-03  -4.7927521207139036e-02 1.8668186396205863e-02 -5.0345969859407182e-02  -4.6263548754985832e-02 1.4800823268792243e-02 -4.8924541491931567e-02  -4.5004751494635807e-02 1.1203706430429736e-02 -4.7105362952427031e-02  -4.3712243769187024e-02 7.2812045349964416e-03 -4.4857697854902324e-02  -4.2317020020601823e-02 3.2669258785018359e-03 -4.2263764136424603e-02  -4.0711078470024392e-02 -7.2361494999510897e-04 -3.9264273710725814e-02  -3.8854747232819307e-02 -4.7301211703805173e-03 -3.6040126857080988e-02  -5.3856600314619085e-02 4.5099969556019227e-02 -2.7939370125159995e-02  -5.6213615475484403e-02 5.9622850771105518e-02 -1.9116924225062053e-02  -5.5119087035150761e-02 5.5581793401384735e-02 -1.3753717279461165e-02  -5.2416956960254411e-02 4.0572743176728703e-02 -2.3780199341565847e-02  -5.4253080797590746e-02 5.2337923721972136e-02 -8.8096788943619348e-03  -5.1293639560611858e-02 3.6611261020354065e-02 -1.9689333077920038e-02  -5.3235427948307823e-02 4.8420131539747994e-02 -3.2218483798827293e-03  -5.0141868951059265e-02 3.1983778234465111e-02 -1.4945348278303601e-02  -5.2101522451707662e-02 4.3536523374716932e-02 3.4593887243107059e-03  -4.8899356152291650e-02 2.6726914192942049e-02 -9.4716945142776180e-03  -5.0728427350028929e-02 3.8397084501355996e-02 1.0902547638992573e-02  -4.7445002803291197e-02 2.1401880278635991e-02 -3.4381272162355998e-03  -4.9054014245016916e-02 3.3194058531841160e-02 1.8717146711045584e-02  -4.5706749757391828e-02 1.5991497851551878e-02 2.9420758690745941e-03  -1.8241199181162814e-02 -7.6418179644067606e-03 -4.4058069363990669e-02  -1.8226468118875624e-02 -4.9816916832744855e-03 -4.1687273917011852e-02  -3.7420187373681281e-02 1.4147661036326411e-02 -4.2703602242115252e-02  -3.7524356323459060e-02 9.9698423017112320e-03 -4.0144773843579097e-02  -3.7467529313580689e-02 5.9630168153377953e-03 -3.7300098327324664e-02  -3.7332689814950824e-02 1.5676944396817332e-03 -3.3983681448299725e-02  -3.7240833670283136e-02 -2.8987474666547007e-03 -3.0308103229321291e-02  -3.7325938133077018e-02 -7.3018426601714507e-03 -2.6205635419990561e-02  -3.7691952729346480e-02 -1.1764387545571792e-02 -2.1897645061400333e-02  -5.2709833869769268e-02 1.5876927500219348e-02 -6.9220256926280324e-02  -5.5024832108030150e-02 2.0897879638065206e-02 -6.3756130860689250e-02  -5.3268654563682724e-02 1.7741474364034896e-02 -6.2845410948222075e-02  -5.0948014760577781e-02 1.3414543228597260e-02 -6.9508304902812429e-02  -5.1764759345389773e-02 1.4763338926785049e-02 -6.1534705674671515e-02  -4.9515176122485315e-02 1.1137286696244199e-02 -6.9121849484372971e-02  -5.0250874710569077e-02 1.1371504964322572e-02 -5.9769494924238914e-02  -4.8001681481395740e-02 8.6825871746657630e-03 -6.8206018863613285e-02  -4.8543263262511564e-02 7.8407920649770525e-03 -5.7609267986033171e-02  -4.6266112190985038e-02 6.2124729648991199e-03 -6.6862123423172978e-02  -4.6403439259694618e-02 4.3480882872031484e-03 -5.4919473557429960e-02  -4.4109085118627767e-02 3.7933057589364196e-03 -6.4978315306994272e-02  -4.3696848064038202e-02 8.5513431403325959e-04 -5.1940520423470915e-02  -4.1393017026887531e-02 1.4147355238573914e-03 -6.2730006297758725e-02  -6.1775994391157767e-02 7.3891583031741356e-02 -1.5746677236057854e-02  -5.8892482800434562e-02 6.3643989572883378e-02 -2.0191457389972935e-02  -5.9516437135586228e-02 5.6350855618396679e-02 -2.7977798220672180e-02  -5.8464931617404188e-02 5.1562633789984359e-02 -2.3597713966268224e-02  -5.7830662145622554e-02 5.9041074018638381e-02 -1.5078762784517349e-02  -6.1239176068431468e-02 6.9702779550008101e-02 -1.0399674771037655e-02  -6.0602991083999164e-02 6.6573798091727157e-02 -5.8003321350262767e-03  -5.6965510250123745e-02 5.5589772025314975e-02 -1.0606495655031949e-02  -5.7536247489609192e-02 4.8032108613256741e-02 -1.9622318259237551e-02  -5.9540540288712820e-02 6.2886533538864614e-02 -7.2951825227591963e-04  -5.5906309595652084e-02 5.1638909417529931e-02 -5.5413622843613905e-03  -5.6365503456109745e-02 4.3986495202206058e-02 -1.4997365490630361e-02  -5.8213295982211768e-02 5.7957075318123566e-02 5.6166645186907366e-03  -5.4665466231077438e-02 4.6688764014687467e-02 6.2420671842757782e-04  -5.5046402228227702e-02 3.9010180574381284e-02 -9.3811302766492969e-03  -5.6730941698795105e-02 5.2507134655892261e-02 1.3065065688512250e-02  -5.3215677078589096e-02 4.1358537749572058e-02 7.7037074766959516e-03  -5.3506730335931521e-02 3.3712247779228453e-02 -2.9050220437816495e-03  -5.4996214368448725e-02 4.6997137348591844e-02 2.1052398123622171e-02  -5.1410992750041649e-02 3.6009970061598610e-02 1.5270070784073204e-02  -5.1611251867145394e-02 2.8422648469641491e-02 4.1180087242436870e-03  -1.8346621854146664e-02 -6.7235976099996250e-03 -3.9371459427321218e-02  -1.8078070667768925e-02 -3.6942335033017968e-03 -3.6814236210239888e-02  -5.4933411225247433e-02 1.78490186