<?xml version="1.0"?>
<VTKFile type="UnstructuredGrid"  version="0.1"  >
<UnstructuredGrid>
<Piece  NumberOfPoints="714" NumberOfCells="2945">
<Points>
<DataArray  type="Float64"  NumberOfComponents="3"  format="ascii">8.207475029603891 3.967695244631578 2.47057760246273  8.171864728267227 3.982341062613199 2.369459403059518  8.087444406710059 3.973848497477081 2.415720925543038  8.086574877081913 4.029484126079774 2.423634102753222  8.168632146551568 4.03787766554902 2.378107055287793  8.20550590422692 4.022391793229614 2.480602212822068  8.085721376337629 4.085357329266033 2.431530702328439  8.165464825771934 4.093685546858451 2.386686239087987  8.203595160127625 4.077335990856516 2.490588676655047  8.084879726262763 4.141492720306021 2.439461980442442  8.16230581811867 4.149748577596275 2.395299018409189  8.20169358416679 4.132537791930126 2.500614019783844  8.084039612131679 4.197915058000834 2.447469683684047  8.159116339320475 4.206078407331259 2.404003137026968  8.199771187598893 4.18802489099375 2.510723389529691  8.083190475446944 4.254691792651064 2.455594620413413  8.155844599490791 4.262701187666272 2.412853185922518  8.197784683976572 4.243846040476119 2.520979962881519  8.082264986000348 4.311919540489148 2.463895897236507  8.152429197691882 4.319718417676606 2.421904758239475  8.19571086165174 4.300096826737729 2.531458913783163  8.144792245278499 3.95270647435495 2.553652667827423  8.144909257366267 4.007286675836069 2.563094986742033  8.145033731006141 4.062119986655923 2.572562614889263  8.145181086948975 4.117221348506737 2.582056185523195  8.145347308488459 4.172624725008237 2.591618395128133  8.145542097081975 4.228406477803728 2.601282778316311  8.145681757268314 4.28466246339261 2.611135735169881  8.896527013464288 3.825852286775401 3.101628448577795  8.938308606269832 3.869509059736925 2.963256761118864  8.801977227266025 3.840976379840709 3.023592456374373  8.798755602450578 3.892653072206757 3.038368010073994  8.93408000014438 3.92021297714988 2.978987093091362  8.892515603372233 3.878431044328029 3.115853191099767  8.795622144649553 3.944544934728655 3.053242507970128  8.929925716709658 3.97111500184896 2.994779615506154  8.888590787016541 3.931217799346595 3.130214861599225  8.792541187855146 3.996672940811393 3.068180280852149  8.925810203751551 4.022218088025737 3.010629539438528  8.884729225248314 3.984218122616571 3.144651517136657  8.789471949704728 4.049060976350285 3.083166144770087  8.294816223362385 4.049261228695586 1.967635809802287  8.173430951253961 4.020466724583418 2.077507408631679  8.311303499710379 4.038644455776517 2.085645466780971  8.301314028768589 4.097631990500277 2.092046214211678  8.166433489209712 4.079687122053372 2.082519817117849  8.282535861433791 4.11017266339964 1.971674489761229  8.270523184886772 4.171289698658777 1.975513169044637  8.159564805173561 4.139155299367092 2.087383775420166  8.291546283481079 4.156929643442346 2.098273926503519  8.152706005418073 4.198827267661041 2.092233166946296  8.258575972086913 4.232614474175747 1.979327006626255  8.281819394883978 4.216420062928576 2.104473600375389  8.641158003751638 4.109384749881825 2.148948306547229  8.519330082205501 4.082375140360138 2.134451673456707  8.593792322857924 4.071531364738894 2.242418308059487  8.581680015762974 4.127695976569326 2.257838487620647  8.50460147378662 4.140487023922005 2.146179148986045  8.62836458447064 4.168122815414575 2.162884459349742  8.569855334184085 4.184069621277464 2.27303088972296  8.490226419037391 4.198819369208998 2.157699298695921  8.615870248209896 4.227003554647759 2.176586808689933  8.558101456099829 4.240573213543382 2.28819908723852  8.475942941982137 4.25728443170374 2.169199286938852  8.603429508828077 4.285963728813301 2.190279097248888  8.546273502502078 4.297155171763295 2.303459790007211  8.461575369512028 4.315833230345671 2.180787339266409  8.590917310138911 4.344949133078616 2.204041016723417  8.534246311046781 4.353753491489198 2.318878470561119  8.446951752638228 4.374421904865243 2.192522382382966  8.578236709969996 4.403874505510972 2.217919101869957  8.521863335947629 4.410239304122749 2.334515950232033  8.431842236955722 4.432918124382285 2.204475043771142  8.565321349110906 4.462614839007496 2.231936553694808  8.703504692983365 3.926478746397023 2.737216955425222  8.60492256597805 3.950696752948628 2.643635325104742  8.54741901508455 3.907162251800965 2.767589484694996  8.545346445110837 3.958421845110029 2.783376802012124  8.600157413984315 4.002043190026303 2.659990807645748  8.699752227741014 3.97686158163255 2.754762765166923  8.543358656859057 4.009931871893698 2.799130168393453  8.595518333356223 4.0536512283433 2.676252213095669  8.696094698030722 4.027489880064721 2.772246150982338  8.541414152917351 4.061720881216752 2.814926857845337  8.590917499992118 4.105495764842038 2.69254881173383  8.692463804676892 4.0783557654534 2.78976822223495  8.539464611417213 4.113783656772204 2.830831514211695  8.586293612927912 4.157563231503593 2.708953947419596  8.688817074205929 4.129450454608144 2.80739173885484  8.53746454070972 4.16613529995451 2.846899418579576  8.581579891071625 4.209846615240068 2.725551501524776  8.685103283464601 4.180772894767726 2.825191372646821  8.535363461800378 4.218779369874963 2.863197715476147  8.576662862862596 4.2623400291978 2.742448544974738  8.681273381289442 4.232320240054051 2.84328382523663  8.586417810913577 4.112907737669117 2.061217252949509  8.571204812711755 4.173414134506571 2.070226243965401  8.556370208792231 4.234068559605444 2.079030918841832  8.541614231548859 4.294809058323991 2.087825777195667  8.52678540973651 4.355577486791176 2.096676503838893  8.511758763533775 4.416287505244187 2.105621612380053  8.496421572537633 4.476812762292608 2.11466086785649  8.645507321494515 3.890054223807828 2.833896071609368  8.642897982633635 3.940682711941303 2.850276829734281  8.640374889413634 3.991607245492688 2.866683445457233  8.637882360016977 4.042779658946714 2.883131168861514  8.63539258684435 4.094221648588507 2.899664910417975  8.632861842035695 4.145967448748226 2.916340125174083  8.630219968111104 4.198101586165339 2.933269123136095  8.48481103148543 3.942604840100119 2.63608222708574  8.482024718052601 3.99457778539741 2.65099067645131  8.479334356230694 4.04686325612457 2.665840386446341  8.476680764376587 4.099383836905733 2.68073301823879  8.474006099747371 4.152154745188726 2.695729452203542  8.471253472717228 4.205188493662711 2.710909002215695  8.468364045861016 4.258539310658548 2.726386013128708  8.850000488309339 3.924430951421513 2.77700045749684  8.746395429579321 3.890542382414808 2.85125740979777  8.83591559299548 3.875924852783353 2.917566754690413  8.742915876485345 3.940836592972944 2.867752418262612  8.845558936027526 3.974246134588466 2.794653993755094  8.832161926925526 3.926352244103224 2.933667442111328  8.828488394984484 3.97702182795335 2.949809705238122  8.739526901605924 3.991432538205714 2.884264799692522  8.841212600020709 4.024305650680372 2.812261683004634  8.824858430285433 4.027933460796423 2.966012486417316  8.736181182600307 4.042271117617888 2.900831261683709  8.836894168489238 4.074569616046895 2.829906045595228  8.821222460450592 4.07908275470528 2.982288292506203  8.732824628572541 4.093353830165119 2.917483623776817  8.832556856507283 4.125039009432236 2.847645875211998  8.817530937503598 4.130487904321829 2.998653197739202  8.729415926901499 4.144695210761133 2.934263440559665  8.828154626954319 4.17570064699957 2.865540116899665  8.813725757204644 4.182173485071072 3.0151302116418  8.725892256437756 4.196309956511916 2.951229292540231  8.823619076358034 4.226636111743328 2.883700043952831  8.811406080376507 4.151033112904027 2.486331630283986  8.862097548574022 4.198945441365408 2.38477701218976  8.92312198010079 4.156395323358764 2.507745642488703  8.818518508760194 4.098133904243922 2.467503633055395  8.855124256747047 4.253973424973394 2.403238188377883  8.804307424069723 4.20405966003418 2.505153823818432  8.91687075184668 4.208909855851932 2.52729788074818  8.848127170408159 4.309041778139653 2.4217580462646  8.323554638602902 4.009528011763811 2.310105476494108  8.380418829139296 4.029890864114227 2.242247449299476  8.269237159343607 4.02474278933154 2.184104851085559  8.261605946329388 4.082586397286588 2.191587939568195  8.37294183595399 4.086697791025593 2.253016574472963  8.317330859310927 4.065321224058205 2.321156791238614  8.254147434771383 4.140709165079987 2.198938812213019  8.365646499246036 4.143763883374191 2.263615714688481  8.311252063099571 4.121360525925724 2.332082999634266  8.246704137584235 4.199056395365903 2.206306608884525  8.358370897749419 4.201025134869672 2.274232575471157  8.3051881249656 4.177620926741584 2.343033939768489  8.239171163530424 4.257612826047976 2.213778493353599  8.351001757279672 4.258451910437532 2.28494921171089  8.299051646101404 4.234104591414428 2.354089753861211  8.231449896111025 4.316391863552625 2.221420209113264  8.343413462913205 4.316029382596509 2.295851732654622  8.292756561881864 4.290839482183595 2.365328262840583  8.223459398932279 4.375405688051582 2.229280107903137  8.335589278533851 4.373834873527193 2.307005382753199  8.286212167380198 4.347828516224138 2.37684999207084  8.546692263580038 3.756390369811822 3.337587626838729  8.442577695122369 3.772433848258017 3.30591729486135  8.496811224061116 3.732438450684507 3.421109174748876  8.499870695020842 3.791211612863678 3.439679940589175  8.447147203391712 3.830019387456608 3.321263796003453  8.548875150093098 3.813909403179821 3.353754929376628  8.503016528857092 3.850174401112432 3.458541330440173  8.451766695707338 3.887835987247114 3.336838326531796  8.551157513827775 3.871644883532612 3.370166741777582  8.506235197362431 3.909351774436046 3.477545725944113  8.456472498719396 3.94592372548768 3.352505329793372  8.553519098160194 3.929639429316669 3.38667846913031  8.509522522817321 3.968778639244253 3.496575404570125  8.
[...]
<PointData  Vectors="f_24"> 
<DataArray  type="Float64"  Name="f_24"  NumberOfComponents="3" format="ascii">-2.0618789218097692e-03 5.4439218918236741e-02 9.9324212769495799e-03  -2.4832196785738170e-03 5.2717731567864370e-02 1.0699112733492694e-02  -1.7752690767158471e-03 5.2516884916842865e-02 1.0278222848013999e-02  -2.4096609826159527e-03 5.3038437664669980e-02 9.7690621367218129e-03  -3.0729277103332172e-03 5.3250267771219092e-02 9.9400085668397472e-03  -2.7058694326751501e-03 5.4958542022193003e-02 9.6201526852408275e-03  -3.0143088390451362e-03 5.3393506743136747e-02 9.2587867627563353e-03  -3.6320763951666946e-03 5.3616236281440299e-02 9.1984350363766877e-03  -3.3098072064564202e-03 5.5305830377706103e-02 9.2902828759708102e-03  -3.6012909177222294e-03 5.3596669842527506e-02 8.7286543606789040e-03  -4.1681947741681854e-03 5.3827243784904076e-02 8.4429288932847402e-03  -3.8853320374473152e-03 5.5496722847253550e-02 8.9288966734803396e-03  -4.1872529441746081e-03 5.3650045778636891e-02 8.1534978549795360e-03  -4.6951930349394726e-03 5.3890441205968351e-02 7.6380749653162773e-03  -4.4509217020481323e-03 5.5532199769454560e-02 8.5150961322556576e-03  -4.7922762782450275e-03 5.3486821134189497e-02 7.5166146944278811e-03  -5.2204205992059877e-03 5.3753277987264959e-02 6.7400421597798932e-03  -5.0281363243096762e-03 5.5347071918062547e-02 8.0327192622194326e-03  -5.4090596013099826e-03 5.3086503920463934e-02 6.7743134109664541e-03  -5.7335420301903453e-03 5.3380245598919220e-02 5.7090710522420141e-03  -5.6177351145991570e-03 5.4920453214816443e-02 7.4466349539229273e-03  -1.2311099348216855e-03 5.4131405131720399e-02 9.0738255912436797e-03  -1.9325529566109113e-03 5.4600106665622740e-02 9.1676241772585872e-03  -2.5799581827281736e-03 5.4909674101263593e-02 9.2116662467515362e-03  -3.2013736475344514e-03 5.5068609881541122e-02 9.2168074081462933e-03  -3.8238216136881414e-03 5.5074104141315465e-02 9.1803505319048798e-03  -4.4834412541590101e-03 5.4855090528262151e-02 9.1252821619335865e-03  -5.1829367813674638e-03 5.4378339273358035e-02 9.0134006550655846e-03  -5.0374369543991675e-03 5.1156358367503478e-02 3.1059210066621086e-03  -5.8716879436164059e-03 5.6567819394362943e-02 5.5230403098856344e-03  -4.3327309660394393e-03 5.3717134972683343e-02 4.1551140592976038e-03  -4.7306178145750380e-03 5.3497568332630377e-02 6.2067397224737650e-03  -6.1320116169694240e-03 5.6456164594117543e-02 7.3485429141275961e-03  -5.3140496834763965e-03 5.0808230373718698e-02 5.4492199527953113e-03  -5.0638536952244432e-03 5.3168887471018847e-02 8.0829754222488896e-03  -6.3436013960377234e-03 5.6204234816181170e-02 9.0076919534011826e-03  -5.5365140928160155e-03 5.0374099169336405e-02 7.5916579483987180e-03  -5.3406616000288565e-03 5.2740702991195022e-02 9.8154838362537467e-03  -6.5109053112610837e-03 5.5818809097984555e-02 1.0530749283340335e-02  -5.7063984869624379e-03 4.9863944488000148e-02 9.5710373524674902e-03  -5.5992851669184468e-03 5.2168544813559731e-02 1.1519565410178029e-02  -5.0938462633200818e-03 4.1011607843811734e-02 1.1615575413845664e-02  -4.1518345507995059e-03 4.4838684699966512e-02 1.2027259038220538e-02  -4.7556139801103363e-03 4.5692991768265946e-02 1.1649053954130193e-02  -5.0835835122191473e-03 4.6077673648463477e-02 9.6085500452614964e-03  -4.5147143744469131e-03 4.5193757374384969e-02 1.0055809170637767e-02  -5.3224279549277968e-03 4.1221552503326063e-02 9.2500006838749493e-03  -5.5349476029336068e-03 4.1331279689216911e-02 7.0570948787415837e-03  -4.8701017448525485e-03 4.5412403932850898e-02 8.2127359651144663e-03  -5.3975187519184047e-03 4.6330480957661624e-02 7.7092936595975379e-03  -5.2145692336672458e-03 4.5521338330942594e-02 6.4299040281833222e-03  -5.7570074412434018e-03 4.1368610557804990e-02 4.9475547757159956e-03  -5.6900747512338120e-03 4.6469940459201435e-02 5.8661822519214830e-03  -6.3693630467195348e-03 4.8964694137296642e-02 1.0117310407309751e-02  -5.6873903563964684e-03 4.8185981562970832e-02 1.0589123414271052e-02  -5.7503226661769656e-03 5.2209862716239820e-02 1.0725424316006508e-02  -6.1228217994788560e-03 5.2896581592253251e-02 9.1268272433841970e-03  -6.0048935385642981e-03 4.8727002919730360e-02 8.6039720869948398e-03  -6.6275804665688678e-03 4.9597588283228786e-02 8.0656439984468382e-03  -6.4295969302406407e-03 5.3391398472030401e-02 7.6166793817870121e-03  -6.2555059313552193e-03 4.9113269270765599e-02 6.7516003253024291e-03  -6.8232954920948450e-03 5.0047901995205209e-02 6.1612669246592150e-03  -6.6860839087090488e-03 5.3731678090333419e-02 6.1341124884259079e-03  -6.4750797519581137e-03 4.9375616844835116e-02 4.9430930618412847e-03  -6.9950797815604869e-03 5.0367271442185266e-02 4.3097013919171012e-03  -6.9161525395660516e-03 5.3962346933362382e-02 4.5583423257150660e-03  -6.6771755829122112e-03 4.9554091229269182e-02 3.0488235583374938e-03  -7.1494593938465096e-03 5.0610986669113983e-02 2.3504976041682974e-03  -7.1189636621122139e-03 5.4053280313194681e-02 2.8385304769458172e-03  -6.8517614177929500e-03 4.9615895198629661e-02 1.0080107400885269e-03  -7.2779071530252419e-03 5.0752668774612798e-02 2.4457156646080433e-04  -7.2585185114980109e-03 5.4060884283736808e-02 8.8315120339386348e-04  -6.9575723053443717e-03 4.9641795726700272e-02 -1.2434751406453397e-03  -7.3613168847854928e-03 5.0864241381771723e-02 -2.0641471341990218e-03  -4.3696029028889496e-03 5.9746293849270361e-02 8.3862774911719843e-03  -3.9204364129453413e-03 5.9370143070311375e-02 9.2143405311120204e-03  -2.8220377643929273e-03 5.7875390445608833e-02 7.4558501470027138e-03  -3.4419518404056951e-03 5.8073598701853878e-02 8.4507513580317911e-03  -4.4882466666747046e-03 5.9761989051337602e-02 9.5830130995586335e-03  -4.8742964920176074e-03 5.9999093857396851e-02 9.2054188289890180e-03  -3.9875599528323607e-03 5.8119656151763552e-02 9.3323835050929532e-03  -4.9795642940289146e-03 5.9966546030308154e-02 9.8822868015267240e-03  -5.3098660444516376e-03 6.0077889296836266e-02 9.9192582074219687e-03  -4.4841772680264428e-03 5.8015310957350005e-02 1.0127117603166640e-02  -5.4202524579528436e-03 5.9996934570172536e-02 1.0106112865570914e-02  -5.6943660100398875e-03 5.9986199251866781e-02 1.0539666209985312e-02  -4.9662234349212853e-03 5.7743007204561519e-02 1.0857877983647679e-02  -5.8355319585542721e-03 5.9860566816158547e-02 1.0240458798745021e-02  -6.0509322348952883e-03 5.9725775319185853e-02 1.1066383679100138e-02  -5.4737116874809906e-03 5.7192045993546006e-02 1.1565272322679964e-02  -6.2566403129054394e-03 5.9461680437699567e-02 1.0287820929273120e-02  -6.4198273582840469e-03 5.9173764366315044e-02 1.1548265471216353e-02  -6.0144289305469178e-03 5.6369567456947184e-02 1.2202667487325623e-02  -6.6817385247320621e-03 5.8791200892865277e-02 1.0208250483240634e-02  -6.8053658233240546e-03 5.8323871907054493e-02 1.1893289316230959e-02  -6.2528222644875533e-03 4.5374800150002538e-02 9.9750961268714865e-03  -6.4526031010437111e-03 4.5794554233171865e-02 7.6499028222289751e-03  -6.6051966787081485e-03 4.6068655390286657e-02 5.4935020911535178e-03  -6.7493369904579681e-03 4.6242793182631269e-02 3.4073909899496697e-03  -6.8809727327124029e-03 4.6357195787232304e-02 1.2255516695379063e-03  -6.9887727395619740e-03 4.6392532679480104e-02 -1.1105009226689414e-03  -7.0476606965574218e-03 4.6391880375309308e-02 -3.6035454409033903e-03  -3.4043007995080772e-03 5.7787288095853977e-02 6.7707349407101231e-03  -3.9623357904547442e-03 5.7862832739477829e-02 8.0478186425076721e-03  -4.4439113194431629e-03 5.7802513187365935e-02 9.1967723539386013e-03  -4.8728964149572073e-03 5.7595204956997832e-02 1.0243284210300447e-02  -5.2757081422880638e-03 5.7230282947109974e-02 1.1218102900531357e-02  -5.7085912868783438e-03 5.6581873566608695e-02 1.2205374495268442e-02  -6.1769572992554306e-03 5.5617964353680438e-02 1.3151267822509201e-02  -2.9615749255560409e-03 5.8184000578213414e-02 8.9155443272156340e-03  -3.5808710684648378e-03 5.8584388576260124e-02 9.2925290390070674e-03  -4.1426503808915998e-03 5.8813430326053247e-02 9.6036293455804018e-03  -4.6585517007560178e-03 5.8875519485054345e-02 9.8460664287433382e-03  -5.1513018095521793e-03 5.8774314748009093e-02 1.0013034695282270e-02  -5.6552457670938604e-03 5.8429454111366831e-02 1.0110848117758843e-02  -6.1874524709401510e-03 5.7800427910060709e-02 1.0101161585120920e-02  -5.6548640958216066e-03 6.0307191180058985e-02 8.3109197514304040e-03  -4.3044232128999979e-03 5.8344427761696481e-02 6.8387661941029390e-03  -4.9791760964378300e-03 5.7385274131939674e-02 6.0454077579392062e-03  -4.7803280306821100e-03 5.8403529860978083e-02 8.1770735062297300e-03  -6.0273010265771169e-03 6.0516534617934124e-02 9.2876457480296284e-03  -5.3594315414618289e-03 5.7340987126292285e-02 7.6694399885012992e-03  -5.6790762206625160e-03 5.7153356314920946e-02 9.1450210347229621e-03  -5.1854529149889753e-03 5.8316688785239816e-02 9.3867915150152338e-03  -6.3384163361279253e-03 6.0549199984439098e-02 1.0151906337167779e-02  -5.9487541263539556e-03 5.6827124778984370e-02 1.0498214411948347e-02  -5.5379603789619553e-03 5.8081128669246439e-02 1.0487181781487080e-02  -6.6031923050351299e-03 6.0407143375837587e-02 1.0913314303215956e-02  -6.1924933554398731e-03 5.6336381941223430e-02 1.1786872715419268e-02  -5.8653149086457159e-03 5.7680418592242641e-02 1.1511022460868207e-02  -6.8388311323850865e-03 6.0088555365978444e-02 1.1580736583831540e-02  -6.4461826172624789e-03 5.5549489215076291e-02 1.3103012016972122e-02  -6.2092224034164039e-03 5.6984754604398759e-02 1.2534819199536433e-02  -7.0748842185898424e-03 5.9461294897282607e-02 1.2190362553665880e-02  -6.7149299649792212e-03 5.4422258503886850e-02 1.4442070896951213e-02  -6.5794597696390254e-03 5.5958152466750136e-02 1.3524919046712181e-02  -7.3148585767234568e-03 5.8508490971874924e-02 1.2686965609401543e-02  -7.3456865893022525e-03 5.9791752892744160e-02 9.4610670175439178e-03  -7.8477699460946567e-03 5.7474791006452891e-02 8.3037433198478883e-03  -8.0252096334388102e-03 6.0449012007075621e-02 9.7139727774681155e-03  -7.0796489737914052e-03 5.9309970149525451e-02 1.0208802042556631e-02  -7.9876217865492392e-03 5.7842453120993620e-02 7.0669493896796057e-03  -7.5618333020900184e-03 6.0073883536042795e-02 8.6882996228830750e-03  -8.1585019791344856e-03 6.0732950565814715e-02 8.9949424690322424e-03  -8.1151952364423904e-03 5.8089460271762004e-02 5.7097822864103061e-03  -3.7526998335881898e-03 5.2797656448036717e-02 1.1012610012894506e-02  -4.4511781625782062e-03 5.1298884713186492e-02 1.1179896374643901e-02  -4.1372103100618769e-03 4.8924968221453501e-02 1.1445863267907275e-02  -4.5596297217549674e-03 4.9396783080150213e-02 9.8022852421016105e-03  -4.8830895016518105e-03 5.1867165015586400e-02 9.7089910279212800e-03  -4.2540249979507606e-03 5.3371323234789998e-02 9.8909752836750173e-03  -4.9663580954781234e-03 4.9695857347448719e-02 8.2511232358095099e-03  -5.3000736701603966e-03 5.2261317588208483e-02 8.3136264351993290e-03  -4.7286452161946161e-03 5.3763809401743405e-02 8.8122120088030068e-03  -5.3473467180612426e-03 4.9861824753043280e-02 6.7298255975410826e-03  -5.6772280989380039e-03 5.2512276095172117e-02 6.9388333060770111e-03  -5.1715537112908211e-03 5.4003780028956040e-02 7.7367212125188890e-03  -5.7130512448476476e-03 4.9912951178118926e-02 5.1479503591916427e-03  -6.0309164196235441e-03 5.2640443756233259e-02 5.4951433187467712e-03  -5.5931671576153761e-03 5.4106586822351713e-02 6.5980853545386598e-03  -6.0469518373310422e-03 4.9818817936843514e-02 3.4107079224477686e-03  -6.3431637913597076e-03 5.2613510258648404e-02 3.8991618013513663e-03  -5.9872625049611217e-03 5.4022817410727751e-02 5.3299539271043023e-03  -6.3216658047078921e-03 4.9589547180261900e-02 1.5028739629252676e-03  -6.6153041994428024e-03 5.2447322691288323e-02 2.1091341982805668e-03  -6.3455411283873690e-03 5.3766518561646590e-02 3.8768312118080818e-03  -2.5554748014508782e-03 3.7278990502913660e-02 -5.0316015486136386e-04  -2.0273141010919379e-03 3.7986422955626736e-02 9.5859830128323007e-05  -2.5005487948078688e-03 3.2643327957572806e-02 -1.6417749450102462e-03  -2.8479859450004398e-03 3.1672846166579754e-02 1.1338446424679414e-03  -2.4779307372119366e-03 3.7333851487276318e-02 2.7376167183004369e-03  -2.9506898464528174e-03 3.6516928644183100e-02 2.2352874159820455e-03  -3.1376758910594440e-03 3.0801624763113246e-02 3.6356233140555634e-03  -2.8489416278651238e-03 3.6703963054330095e-02 5.1382623642682521e-03  -3.2657827463781156e-03 3.5794376002551372e-02 4.7170860030716971e-03  -3.4115852874602227e-03 2.9958524044392320e-02 6.0598950984457863e-03  -3.2012558112363750e-03 3.6065744464187026e-02 7.4465857056299377e-03  -3.5630428184311226e-03 3.5070247476311808e-02 7.1034591277685322e-03  -3.6870412871778252e-03 2.9077918149967321e-02 8.5890898332268428e-03  -3.5643174628393697e-03 3.5369876590471153e-02 9.8447301426557825e-03  -3.8693522991985465e-03 3.4287340759525935e-02 9.5833421945537029e-03  -3.9847679457356957e-03 2.8151959905471532e-02 1.1287883073973992e-02  -3.9613032888669575e-03 3.4603614473731718e-02 1.2408702758910621e-02  -4.2068897320661743e-03 3.3428709661666660e-02 1.2235695502178248e-02  -4.3168273421225886e-03 2.7187057094923101e-02 1.4186049224011260e-02  -4.4091366333468803e-03 3.3768291984183164e-02 1.5186909575426779e-02  -4.5930298669019584e-03 3.2493659696244050e-02 1.5101569852115790e-02  -4.9720405176636780e-03 5.1962022791238398e-02 1.1036576821678435e-02  -5.3949010929265385e-03 5.2569485422021237e-02 9.5540431309433863e-03  -5.7681350268499075e-03 5.3012772579298637e-02 8.1406422094561972e-03  -6.0920818061937446e-03 5.3309205136927225e-02 6.7525083648241856e-03  -6.3842021049630559e-03 5.3485088430818034e-02 5.2891227419589459e-03  -6.6497935780538151e-03 5.3507882593641462e-02 3.6878760031279112e-03  -6.8413601043665357e-03 5.3414271774377374e-02 1.8548754245816177e-03  -3.5632398083981034e-03 5.5301911148624087e-02 5.0444303016451506e-03  -4.0686885978063808e-03 5.5191049342370249e-02 6.8163029712996967e-03  -4.4990618812154352e-03 5.4964173684170718e-02 8.4352600381827538e-03  -4.8714987637607189e-03 5.4620911130448375e-02 9.9319639589933832e-03  -5.2227947870426596e-03 5.4128495979032978e-02 1.1383131631087307e-02  -5.6031919853780617e-03 5.3362285760801285e-02 1.2887396898614066e-02  -6.0242649669338590e-03 5.2276211796347519e-02 1.4471014517576876e-02  -2.6871714003300906e-03 5.0613220190354059e-02 1.1206127721637250e-02  -3.2286163271556005e-03 5.1142399325371332e-02 1.0133150653144903e-02  -3.7546661146246069e-03 5.1511736844873604e-02 9.0976548427196078e-03  -4.2652054098416513e-03 5.1731673129659865e-02 8.0665925383414366e-03  -4.7717863739454814e-03 5.1811491168252059e-02 6.9934823751661148e-03  -5.2736607345099289e-03 5.1699940946784657e-02 5.8242848482377664e-03  -5.7543268055442187e-03 5.1377933361102697e-02 4.4967419642427476e-03  -3.2604155020318393e-03 5.1353996863321885e-02 1.1194628357171051e-02  -3.7836813732747337e-03 5.1893268028718305e-02 1.0037502168861630e-02  -4.2719461531772309e-03 5.2270374546715903e-02 8.9225445609546310e-03  -4.7361593754426312e-03 5.2494672132078493e-02 7.8152637148910954e-03  -5.1868822361689597e-03 5.2582445450786608e-02 6.6587813054046260e-03  -5.6262928601082968e-03 5.2487426648699695e-02 5.3980473235441181e-03  -6.0226321519066019e-03 5.2205264416370994e-02 3.9535220741342301e-03  -2.0428777442945351e-03 3.3037171343548527e-02 -9.8978524969205390e-04  -2.4380716132919537e-03 3.2174378942687328e-02 1.7021671976537483e-03  -2.7790639978710328e-03 3.1390219929497129e-02 4.1361412371888583e-03  -3.1052156424837660e-03 3.0626896527662803e-02 6.4921532543635368e-03  -3.4333211169019456e-03 2.9826754068067781e-02 8.9460226030766317e-03  -3.7767391688167920e-03 2.8988522193342796e-02 1.1566766142262187e-02  -4.1398392759934895e-03 2.8121070348158649e-02 1.4379995203729718e-02  -5.8403204371939845e-03 6.0851346122397454e-02 9.7479762246033309e-03  -6.2256375136641945e-03 6.1282761475343533e-02 1.0107271912957207e-02  -6.5583689389855249e-03 6.1505642889757718e-02 1.0392735109883618e-02  -6.8429832402626730e-03 6.1538648447934843e-02 1.0597107801137000e-02  -7.0968049492594193e-03 6.1397859060587694e-02 1.0691826106543040e-02  -7.3428092022339575e-03 6.0976397196425836e-02 1.0678023185404263e-02  -7.5878598273545128e-03 6.0283943372254081e-02 1.0465736576779894e-02  -3.9953584387111179e-03 5.8440426619127239e-02 1.0009013114879704e-02  -4.5556664572132559e-03 5.8958889052215725e-02 9.8744164864657084e-03  -5.0530901662594642e-03 5.9290307214004634e-02 9.7082775821259563e-03  -5.5011644838011331e-03 5.9445955515035342e-02 9.4903983584815280e-03  -5.9157736689902972e-03 5.9439666377753428e-02 9.1807620654459771e-03  -6.3236294155002816e-03 5.9198047562173423e-02 8.7575658481005708e-03  -6.7172501912854095e-03 5.8712308538021986e-02 8.1625331565170611e-03  -1.4737990820727475e-03 3.9303373552625462e-02 8.1428849184877453e-04  -1.9841960317560862e-03 3.8809630686149829e-02 3.3381878649742973e-03  -2.4154970445780933e-03 3.8313748851553586e-02 5.6385886031800961e-03  -2.8228174129682946e-03 3.7799684153375562e-02 7.8357540477429904e-03  -3.2411715102129662e-03 3.7226205801997300e-02 1.0099049821642789e-02  -3.6950097520170992e-03 3.6585692092083198e-02 1.2511500205808337e-02  -4.1894240089534931e-03 3.5877628627725942e-02 1.5129352844474980e-02  -2.0863053006951178e-03 4.9677234906328811e-02 1.1146279665717988e-02  -2.6579180233759379e-03 5.0196288052036124e-02 1.0182015872480518e-02  -3.2160212747394160e-03 5.0557396294491422e-02 9.2438046574305557e-03  -3.7683810075708258e-03 5.0771965754735957e-02 8.3103925154209522e-03  -4.3280695765837655e-03 5.0843694091939950e-02 7.3411191171538197e-03  -4.9039231907405051e-03 5.0714889754308427e-02 6.3021886691700321e-03  -5.4795409327750757e-03 5.0357416352971994e-02 5.1143087481264216e-03  -4.8575057866926683e-03 6.0182812377904821e-02 9.5649394668045687e-03  -5.3459025367358307e-03 6.0603146231969662e-02 9.8901340958889999e-03  -5.7642829435543145e-03 6.0815038358866758e-02 1.0136436923444094e-02  -6.1314345119357497e-03 6.0844938214291044e-02 1.0305802584519791e-02  -6.4699621294906232e-03 6.0706437494045175e-02 1.0371755377359770e-02  -6.8097796137360986e-03 6.0294039361632752e-02 1.0342119426822737e-02  -7.1531884133009130e-03 5.9626835796519527e-02 1.0139579311402792e-02  -3.1881748530158288e-03 2.7184569054095820e-02 -3.8750208330823506e-05  -2.7936917110789206e-03 2.5715060942604340e-02 -1.6595925523388270e-04  -3.0472049639532375e-03 2.4620999449145749e-02 2.2331156035461201e-03  -3.4028427675185566e-03 2.6136275895739539e-02 2.4657287239470290e-03  -3.2875776316295263e-03 2.3576261495592183e-02 4.5956943039257370e-03  -3.6051535046343090e-03 2.5124636769336826e-02 4.9331717429321681e-03  -3.5213816996516236e-03 2.2507547151320143e-02 7.0795574136145395e-03  -3.8081148615140034e-03 2.4081382308333194e-02 7.5295982849781767e-03  -3.7551767279190790e-03 2.1421930057511269e-02 9.7245740665065552e-03  -4.0296014363380202e-03 2.3010362002918103e-02 1.0296889843331665e-02  -4.0010586464162548e-03 2.0329731521518190e-02 1.2560412531666723e-02  -4.2783387425154385e-03 2.1912537407086433e-02 1.3259145883923452e-02  -3.2455095381204451e-03 5.7276710096233287e-02 9.8854407425169530e-03  -3.8395429601804595e-03 5.7791854263190688e-02 9.7116176980292512e-03  -4.3872780406614739e-03 5.8112389562418924e-02 9.5086865243015576e-03  -4.8943796908161585e-03 5.8265347358453463e-02 9.2581875011361232e-03  -5.3801899013318421e-03 5.8259648239460428e-02 8.9307965384436798e-03  -5.8584037521093564e-03 5.8024803867357005e-02 8.4959368754233475e-03  -6.3381623995900664e-03 5.7549417543468762e-02 7.9323995914397458e-03  -3.3142699503445243e-03 3.3030556751565167e-02 1.2905264744559211e-03  -3.6365022430622745e-03 2.9762020476419158e-02 4.5060803316025001e-04  -3.4113269909097944e-03 3.0882735933855068e-02 -2.4246849913596479e-03  -3.0043892873675613e-03 3.3975702709631669e-02 -1.5511444603011717e-03  -