<?xml version="1.0"?>
<VTKFile type="UnstructuredGrid"  version="0.1"  >
<UnstructuredGrid>
<Piece  NumberOfPoints="728" NumberOfCells="3027">
<Points>
<DataArray  type="Float64"  NumberOfComponents="3"  format="ascii">4.902612084868541 1.468473936384188 3.42062816584029  4.987450543129818 1.528213147709057 3.512544599353532  4.846791063340706 1.531330489665432 3.547134383861237  4.853068316176036 1.47563817048588 3.578937226236635  4.993283683593704 1.472548114457358 3.543505878340805  4.909063684707703 1.414478745310096 3.450508335155616  4.9155248118881 1.36050659706965 3.480374428385462  4.999102514985604 1.416913238540713 3.574449787616349  4.859351300090709 1.41999648301774 3.610721664877022  4.865643574429752 1.36437997671261 3.642495312665719  5.004916998585844 1.361313525184234 3.605371618035668  4.92199292505489 1.306574654451077 3.510216162906475  4.928468762876191 1.252663187744085 3.540027856680713  5.010738345879608 1.305735503617145 3.636259630882622  4.87194410777092 1.308806467172365 3.674225849076081  4.878260012216465 1.253240376118202 3.705899304212136  5.016578052654402 1.250175827139156 3.667090599737562  4.934953891227254 1.198770498909557 3.569787968003235  4.884598880223742 1.19768853631513 3.737484226492301  5.022450006436156 1.194630608855595 3.697844959501749  4.941457475053717 1.144889421628005 3.599476817362736  3.790219885451639 1.336987898097291 3.409944751710889  3.919899257800957 1.349659894350455 3.420916386102715  3.874057161004134 1.411371160092791 3.518156173859071  3.875998036616972 1.361000199574543 3.552930510333322  3.922713465846265 1.299230689599719 3.453119511558561  3.79201321421362 1.286870255184708 3.44234002974537  3.877901534226098 1.310689219733414 3.587771703740649  3.925495974893083 1.24883784376596 3.485378563266717  3.793760672484226 1.236790923932431 3.474781388961499  3.879796329050111 1.260415705894742 3.622626312682258  3.928267896252681 1.19846654568978 3.517650891650174  3.795491872946577 1.186737158822734 3.507233066220269  3.881703040326817 1.210155404570535 3.657452055654238  3.931048340747762 1.148100048950528 3.549901483456352  3.797229054224419 1.13669239840557 3.539662364013837  3.8836408452702 1.159881776415965 3.692207393308089  3.933856985139269 1.097717296912597 3.582096401313585  3.798994120667595 1.086637236866642 3.572036948811886  3.885633140977914 1.109560727568339 3.726849718777613  3.936714469568598 1.047289691777819 3.614200487820281  3.800819635150476 1.036548837660143 3.604322347336137  3.307205889540898 1.744651433536515 3.863120474782638  3.448338176997094 1.740616948230485 3.861970760661237  3.383135941321758 1.834635834180544 3.924501317603635  3.382082647881189 1.800567072472988 3.98343330480804  3.446565462704581 1.701702976030399 3.916324035353738  3.950633343717449 1.474859847639299 3.602635626482695  4.107144884559957 1.473512502739929 3.588823578248759  4.039980520585516 1.548229276995341 3.690911071966469  4.041554120962882 1.498133040879709 3.731866348289407  4.110257563944742 1.422366772309559 3.625211309160816  3.952828703661273 1.424466226271032 3.640098581811354  4.113350735937581 1.371286150640944 3.661672135226549  3.954991980384515 1.374155617772416 3.677638716391146  4.043085951435222 1.4481480595887 3.772902455118199  3.957152510046542 1.323892489026738 3.71519423913275  4.116446138270259 1.320248600300194 3.698148549577009  4.044618932158158 1.398226466671292 3.813953592881039  3.959330801958504 1.273648482954173 3.752714412793017  4.119557846378401 1.269224643493258 3.734593241834187  4.046176607252645 1.348330300862293 3.854964591181943  3.961544428753538 1.223392051320928 3.790151627060736  4.122696764383712 1.218184253773695 3.770959612795805  4.047778396397644 1.298422085174999 3.895882197835162  3.963809910848199 1.173081848207531 3.827452827834299  4.125879585160408 1.167091998014243 3.807197796105984  4.049445522763955 1.248465213872941 3.936640418104221  4.919681027274324 1.591333621672817 3.636926206684248  5.065975321512891 1.591315603734877 3.610966035385178  5.00656964441204 1.660452823540904 3.738040712456943  5.012539360195545 1.603102140474893 3.776353921610155  5.071815311959484 1.53417768170844 3.643963760770661  4.925554990786289 1.534142583215367 3.670447150726219  5.018493467067957 1.545797314361389 3.814666451996764  5.077632299422318 1.477075893475673 3.676949665110664  4.931415553733339 1.4769941066729 3.703964423886754  5.02444196312905 1.488536237284486 3.852957681679507  5.083440477350132 1.420008310338157 3.709915841947556  4.937272946119226 1.419887061173683 3.737463760689714  5.030400316151702 1.431302639602645 3.891202537459493  5.089255088341233 1.362965214483304 3.742843483368874  4.943139942045488 1.362806888598984 3.770924125505812  5.036379955714995 1.374080448640901 3.929372293368328  5.095090500652608 1.305936583103052 3.775708942362806  4.949029515679785 1.305739264545849 3.804319514396416  5.042378536972093 1.31685561871691 3.967447530998022  5.100952673556055 1.248912003818089 3.808490079356717  4.954952169305904 1.248668376749889 3.837624388786209  4.647122213012714 1.781784227920057 3.931000684098614  4.749793613621895 1.707503437541614 3.835732708246462  4.792717524673092 1.791577731519552 3.93428819870781  4.75404817722641 1.651832551777005 3.879955217077107  4.649840968344114 1.729424126331409 3.982373598755002  4.796312067345836 1.73804634311288 3.985374495963003  4.75827191335163 1.596249207351344 3.924199278210969  4.652504240867977 1.677191265277316 4.033776368063616  4.799858647011806 1.684635462198693 4.036465459858852  4.762495177131938 1.540729762953843 3.968427435535079  4.924714945151008 1.390439217954013 4.107720069846316  5.055126347735795 1.391004439608685 4.090540226534126  4.918954706481157 1.446535269077627 4.063875638800713  4.430686719128866 1.475875182254693 3.54300134515803  4.394279318787187 1.416210052499245 3.454013173467434  4.525939406320055 1.433381623113186 3.452600319701647  4.533413972678006 1.380908968682524 3.483711858823026  4.401454890169848 1.364288730274604 3.485377301385038  4.437672014771972 1.423002373818454 3.576162721491505  4.540959237692551 1.328475675990335 3.514842323242847  4.408697854048575 1.312405990289554 3.516781125810621  4.44471921459356 1.370177986095098 3.609364084400875  4.548537620253997 1.276074739367996 3.545968923967371  4.415971350943687 1.260549362314227 3.548190988530685  4.451796366891847 1.317389096884447 3.642571891875184  4.556126478614663 1.223690665933294 3.577066847333925  4.423255606761015 1.208702462774091 3.579575800808854  4.458886687317339 1.264615881673365 3.675750733679528  4.563705351402299 1.171306132955868 3.608106671857135  4.430533129777731 1.15684309672424 3.610902898022008  4.465974280485407 1.211833973707732 3.708862295248368  4.571246926458716 1.11889965649795 3.639057346952491  4.437771950146161 1.104940580172765 3.642134838705206  4.473033382927467 1.15901394020781 3.741863064220589  3.828422210374378 1.711565806937708 3.857297772953  3.799489855455553 1.620037492420944 3.774238660589359  3.92751207935333 1.616594438440716 3.772890765801107  3.927230759358681 1.569525340331722 3.819367692227392  3.798042517895224 1.574111036944311 3.821338054841772  3.826732565306933 1.668478994470679 3.909400280433607  3.926893666144065 1.522601481467421 3.865900704853053  3.796536240927261 1.528326444341898 3.868480550601045  3.824984918693764 1.625569949892569 3.961515207462467  3.92656723808317 1.475773125956797 3.912434232560479  3.795041412343113 1.482638870500594 3.915619593691249  3.823243121104372 1.582770681178976 4.013588043051217  3.926276550205048 1.42898157357116 3.958910191861302  3.793580041018737 1.436992809805699 3.962701156158709  3.82155043668128 1.540021853378858 4.06558725751123  3.926044336662679 1.382175878569013 4.005274964396714  3.792169369385471 1.391338822990668 4.009669295053644  3.819922313351209 1.497264749932845 4.117459358597816  3.9258942960497 1.335302344453648 4.051478451452383  3.79085297298058 1.345627754807906 4.056469137523599  3.818377408333647 1.454439441066514 4.169144978195101  4.014270843716327 1.396366667735144 3.483475779475669  4.01745217763043 1.345684561416709 3.517058573706569  4.020610951109319 1.295047206923282 3.550707443940782  4.023765348168902 1.244435631846454 3.58437370262366  4.026930909804467 1.193829138052156 3.618016353159184  4.030121956903804 1.143202286305308 3.651597132566656  4.033355996740092 1.092522601544681 3.685072219913691  3.530009830169142 1.31029064495894 3.381941137353115  3.623461245705041 1.360540094753808 3.452182585692352  3.479341250868802 1.385813357737382 3.492132538576421  3.479529907709536 1.336551811898955 3.527843930168689  3.624642033032542 1.310756424838477 3.486104987435217  3.5311951165771 1.260521103740833 3.414661843741484  3.479699734138264 1.287350395001962 3.563592493330938  3.625791878393005 1.261025405494242 3.520070924981969  3.532354342252376 1.210791611487062 3.447410977225488  3.4798667004107 1.238191974333019 3.599344112749477  3.626932021022947 1.211329149706595 3.554044143493369  3.533503272363274 1.161092355205659 3.480161200071116  3.480038786609969 1.189053773241376 3.63506597037538  3.62807819544821 1.161648286669335 3.58799163940933  3.534653633231143 1.111409142115737 3.512886262710446  3.480223036387569 1.139913903966427 3.670721119366858  3.629245581893222 1.11196199608833 3.621879110305799  3.535817044122702 1.061726647470038 3.545558496596645  3.480432345349982 1.090752088501576 3.706274624943292  3.630452117442197 1.062247202763695 3.655670210949605  3.537008559644506 1.012028737134234 3.578149556203038  3.695696470780669 1.054104847246387 3.286603314233156  3.67289892390418 1.135900902139038 3.430713644764054  3.804295020275744 1.104169195105931 3.366159796651127  3.67125613210416 1.185912971112546 3.399413376107102  3.806852983341615 1.054044823612502 3.395955697677675  3.697885244124504 1.003945906983608 3.315712380269686  3.674543438482107 1.085899383133209 3.4619933161957
[...]
<PointData  Vectors="f_24"> 
<DataArray  type="Float64"  Name="f_24"  NumberOfComponents="3" format="ascii">2.0131720697570542e-02 -1.1337959596262617e-01 2.5359599373872062e-02  1.9508415705005323e-02 -1.0792089155594160e-01 2.1199855004908657e-02  1.9445670732480540e-02 -1.0006646099575241e-01 1.7646542166455632e-02  1.6999895866785162e-02 -9.6579726279551456e-02 2.2903200873588107e-02  1.7161669421173569e-02 -1.0476260990092727e-01 2.6400726066302234e-02  1.7842313530491108e-02 -1.1106588626322488e-01 2.9872518832044011e-02  1.5597010036378733e-02 -1.0854546315846714e-01 3.3786064972064121e-02  1.4917836782644689e-02 -1.0153043188854734e-01 3.0958464323408035e-02  1.4621720756658560e-02 -9.3119419068693476e-02 2.7559756201178891e-02  1.2283022029249881e-02 -8.9533990357588925e-02 3.1859317240918214e-02  1.2694181725557793e-02 -9.8108198967862575e-02 3.5134102995595107e-02  1.3379022981893248e-02 -1.0569467893724363e-01 3.7320962385938398e-02  1.1132336785347202e-02 -1.0246621487112162e-01 4.0688082233476697e-02  1.0460290903781758e-02 -9.4363207454807613e-02 3.9210700163169881e-02  9.9296047419873083e-03 -8.5689896157996312e-02 3.6082494053699746e-02  7.5328343321057608e-03 -8.1429033690024813e-02 4.0462214038835903e-02  8.1789665058367624e-03 -9.0158974134035744e-02 4.3409329406732484e-02  8.8354144624860631e-03 -9.8690308013790307e-02 4.4084534196114265e-02  5.0521221834216607e-03 -7.6601157847347043e-02 4.5273470030489184e-02  5.8244452216410338e-03 -8.5344136216969249e-02 4.7985376108876120e-02  6.4456469151024992e-03 -9.4236841767419768e-02 4.7716082412828931e-02  1.9678909745501679e-02 -7.4852619430368764e-02 1.3300495908049262e-02  1.9544571808224484e-02 -7.8556995607110422e-02 1.4460967854496781e-02  1.9134445928988022e-02 -6.8988433672013641e-02 9.1596855355319771e-03  1.6966658014524568e-02 -6.5501844284925462e-02 1.2751252586046756e-02  1.7284436790294583e-02 -7.5922947349243916e-02 1.7774858617408618e-02  1.7488919653393227e-02 -7.2307651115226648e-02 1.6417195023350230e-02  1.4840712242461248e-02 -6.2126006652574610e-02 1.5939060764600187e-02  1.5073422810492511e-02 -7.3222630434353689e-02 2.0651521890902351e-02  1.5336237893152475e-02 -6.9694367639268118e-02 1.9119511614932451e-02  1.2739734506255689e-02 -5.8731032615719880e-02 1.8916788332983783e-02  1.2887527003101381e-02 -7.0376615414299112e-02 2.3283041423681535e-02  1.3203030594111110e-02 -6.6930320504894031e-02 2.1577289734747120e-02  1.0645710063349856e-02 -5.5203728519769013e-02 2.1858158285584409e-02  1.0706044116943538e-02 -6.7308206986274738e-02 2.5822713593062159e-02  1.1077391797566912e-02 -6.3948686143553354e-02 2.3934897313715179e-02  8.5489679967351122e-03 -5.1438811325351025e-02 2.4919344763970668e-02  8.5125173582980308e-03 -6.3937203953512267e-02 2.8407160831056291e-02  8.9500795884363063e-03 -6.0673347703328738e-02 2.6320031029470840e-02  6.4464799121672590e-03 -4.7335639023878336e-02 2.8258006691284126e-02  6.2945025003894074e-03 -6.0189464032197812e-02 3.1162936999425375e-02  6.8201444912866435e-03 -5.7021497560984361e-02 2.8841981343756443e-02  2.0310592376536624e-02 -1.4909284643053730e-02 -1.6413267646638200e-02  1.9772339935799303e-02 -1.8273005478939914e-02 -1.5763008863401297e-02  2.0347391473842538e-02 -8.5299328517412440e-03 -1.9810699014665069e-02  1.9644420292187825e-02 -4.0703889555299974e-03 -2.0062749083744048e-02  1.8810980259770620e-02 -1.3318486318397762e-02 -1.5013869015608035e-02  1.8725795205220195e-02 -6.3314253810864973e-02 5.2560211780781525e-03  1.8772345799866044e-02 -7.0044378672944302e-02 7.7347392785330950e-03  1.8320473597227712e-02 -5.6562931846266484e-02 7.1031445939985841e-04  1.6191350094674890e-02 -5.1505747824837723e-02 4.3325004549077404e-03  1.6463453184731514e-02 -6.5894965423210231e-02 1.1785206791187225e-02  1.6561516558878633e-02 -5.9065567534559264e-02 9.0263724951515911e-03  1.4219476734053976e-02 -6.1972769884846769e-02 1.5415635068279688e-02  1.4458757944490112e-02 -5.5104238289285477e-02 1.2422923304236154e-02  1.4124177908460876e-02 -4.6914819527793555e-02 7.7082179930901430e-03  1.2380670471152199e-02 -5.1228626021072629e-02 1.5665220824175791e-02  1.2008608569988723e-02 -5.8104447860704490e-02 1.8860294001222751e-02  1.2079695939918934e-02 -4.2554913925770876e-02 1.1017568388137281e-02  1.0308212610844704e-02 -4.7298266603982141e-02 1.8940976606453497e-02  9.8021869306213795e-03 -5.4159693920749527e-02 2.2314470341940760e-02  1.0037104941724745e-02 -3.8245170464365687e-02 1.4445601011209822e-02  8.2291126583262514e-03 -4.3195820704708995e-02 2.2417719202263771e-02  7.5785781097181745e-03 -5.0016025952779208e-02 2.5959544306583246e-02  7.9841599004370125e-03 -3.3845663989484354e-02 1.8153843197676271e-02  6.1321614531336397e-03 -3.8827148179484058e-02 2.6257040240246509e-02  5.3178390507264825e-03 -4.5561766852534442e-02 2.9969881469284747e-02  5.9134235801259630e-03 -2.9247669673364965e-02 2.2285732924800291e-02  1.8680867144509415e-02 -9.2577552322134590e-02 1.3050218003752985e-02  1.8628234317282274e-02 -9.9921967678245502e-02 1.6215596329192356e-02  1.7595432943969664e-02 -8.2878975580117906e-02 7.9798617701914189e-03  1.5122059009338211e-02 -7.7551217374970033e-02 1.3429023092360373e-02  1.6276602498282788e-02 -9.5846244230681624e-02 2.1895720239051657e-02  1.6209769192369394e-02 -8.8284642823119500e-02 1.8652041276690817e-02  1.2780274505602577e-02 -7.2648433474687579e-02 1.8403643050659675e-02  1.4020580217632151e-02 -9.1893080794630599e-02 2.6914283023772478e-02  1.3833310206650840e-02 -8.4226358668454043e-02 2.3659383658326340e-02  1.0497587236559759e-02 -6.7916064488343308e-02 2.3194997018956644e-02  1.1807402746832965e-02 -8.7890880189843354e-02 3.1608842110093467e-02  1.1506127483762812e-02 -8.0171916830397871e-02 2.8362238928628467e-02  8.2227754468489605e-03 -6.3153170921435409e-02 2.8066772776073549e-02  9.5911577590995657e-03 -8.3676307427598809e-02 3.6250607363516214e-02  9.1804418231774907e-03 -7.5962820625599295e-02 3.3043950690290542e-02  5.9091939382967928e-03 -5.8207810226549431e-02 3.3259081878272610e-02  7.3306679837631603e-03 -7.9096763501983067e-02 4.1103245793533923e-02  6.8104647208096268e-03 -7.1429274376222138e-02 3.7965235523889411e-02  3.5174037318504007e-03 -5.2984734995868470e-02 3.8994074979842148e-02  4.9837225077235736e-03 -7.4022961101565490e-02 4.6424063679687939e-02  4.3492608235985945e-03 -6.6444463924846445e-02 4.3405267364026057e-02  1.6468872014022883e-02 -4.5672377389915260e-02 -8.0980214655959112e-03  1.7114664517630201e-02 -6.2119428121165728e-02 -1.1210513154060265e-03  1.6188762270571581e-02 -4.9999498239082993e-02 -6.6591809825799339e-03  1.4573422514403680e-02 -5.6052039913360538e-02 3.3745851977551871e-03  1.4129599306145978e-02 -3.9183517463934142e-02 -5.2162411730309549e-03  1.3755146160037609e-02 -4.3386185017278735e-02 -3.4238969723338016e-03  1.2177944374105519e-02 -5.0653478029060978e-02 7.5623109897204948e-03  1.1947421938095906e-02 -3.3708556077501832e-02 -2.1986478597574538e-03  1.1557918584154274e-02 -3.7754054005184501e-02 -1.0682208639134677e-04  9.8661093582587487e-03 -4.5638667661856688e-02 1.1756443745230671e-02  2.8036287225905116e-03 -3.3983873955031337e-02 2.8149798419533752e-02  3.0223261619358711e-03 -3.9112695677748652e-02 3.1207479414178597e-02  5.1889124645199697e-03 -3.9051430170506066e-02 2.2645767431738576e-02  1.9408150120500969e-02 -8.6181564506072880e-02 1.3641501262396646e-02  1.9845662954212327e-02 -9.2989616636051431e-02 1.8261554806096442e-02  2.0005946974174686e-02 -9.7881681085869379e-02 1.9738252630893145e-02  1.7501015190092943e-02 -9.5231593481298477e-02 2.4071953898366239e-02  1.7337274014481277e-02 -9.0263932842409494e-02 2.2421018676725340e-02  1.6854986448915768e-02 -8.2631044157486067e-02 1.8273038338929817e-02  1.5073803505885396e-02 -9.2442514767360040e-02 2.7853248191264546e-02  1.4922535996703406e-02 -8.7462240176168132e-02 2.6059311819023354e-02  1.4411808991711263e-02 -7.9179122349715692e-02 2.2376299634865929e-02  1.2678916822793209e-02 -8.9445811441838691e-02 3.1315473363653742e-02  1.2538329487190226e-02 -8.4478598684832817e-02 2.9397242698531313e-02  1.2011082594745186e-02 -7.5661707516351193e-02 2.6203615047191813e-02  1.0262456255861887e-02 -8.6144720697168997e-02 3.4660487667180925e-02  1.0136707016462344e-02 -8.1223354817348672e-02 3.2631346694834445e-02  9.6025439563538484e-03 -7.1957412290315839e-02 2.9980531120464719e-02  7.7724127395285081e-03 -8.2428666492731090e-02 3.8077604711687078e-02  7.6686683752107115e-03 -7.7596485452150074e-02 3.5943177651633781e-02  7.1378731799643502e-03 -6.7940815218260425e-02 3.3916995540720883e-02  5.1517596649084266e-03 -7.8178325572102317e-02 4.1763314371042505e-02  5.0899600783140620e-03 -7.3487733988442425e-02 3.9509906459107354e-02  4.5765951352959144e-03 -6.3485181946023192e-02 3.8217754761201622e-02  1.8304384281136933e-02 -2.8985678711525041e-02 -1.2407617419380250e-02  1.8384409408558712e-02 -3.8876798346974648e-02 -7.0396590484413423e-03  1.8123221280541318e-02 -4.2978831435057180e-02 -5.6241657539480650e-03  1.6332608212044013e-02 -3.7433548350241874e-02 -2.9024112682116479e-03  1.6774881532479285e-02 -3.3500431967385363e-02 -4.5806037478476648e-03  1.6934680327380831e-02 -2.3434982694659063e-02 -1.0932309954315532e-02  1.4544243096991113e-02 -3.2494871170990820e-02 -2.3265321018431357e-04  1.5152941406495550e-02 -2.8666294218730893e-02 -2.1718459974265150e-03  1.5516709613244703e-02 -1.8591847962488098e-02 -9.2587549770045911e-03  1.2763214744507864e-02 -2.7888538020267698e-02 2.5182266864161992e-03  1.3514827267189800e-02 -2.4159900880356536e-02 3.4016158123953281e-04  1.4069912660568302e-02 -1.4137453815224389e-02 -7.2925404192117002e-03  1.0978200146096267e-02 -2.3424183729524848e-02 5.4938605489226709e-03  1.1872326102103445e-02 -1.9797971261580928e-02 3.0815198824794918e-03  1.2600995466082310e-02 -9.8828377230589480e-03 -4.9695017969917472e-03  9.1887140839926572e-03 -1.8957365945740042e-02 8.8188834014091624e-03  1.0235278311225298e-02 -1.5438602111470447e-02 6.1647475434057058e-03  1.1125054331661796e-02 -5.6897255866501023e-03 -2.2186766287282198e-03  7.3971647701019617e-03 -1.4375916448489947e-02 1.2615762587743010e-02  8.6158254017611926e-03 -1.0973651931822745e-02 9.6928038132866531e-03  9.6600354906608340e-03 -1.4602267202330679e-03 1.0293991372758860e-03  1.9296758049289330e-02 -7.6784224948408780e-02 1.2480708396720880e-02  1.6995937150814031e-02 -7.3617845928570805e-02 1.6191973788022892e-02  1.4754531809870483e-02 -7.0467148014489001e-02 1.9458591081930345e-02  1.2542755610127155e-02 -6.7226539558826584e-02 2.2484102089287413e-02  1.0335513140605525e-02 -6.3809288392799160e-02 2.5447538622573714e-02  8.1111047302106429e-03 -6.0120795946197972e-02 2.8508475276007961e-02  5.8568155427476199e-03 -5.6065204209440382e-02 3.1811026052831523e-02  2.0233166527074922e-02 -6.7832596505655277e-02 1.1209903061890857e-02  1.9779243140167727e-02 -6.6131955479248661e-02 9.3149013973429593e-03  1.9920042399252842e-02 -5.8275294089565506e-02 5.8332695893036834e-03  1.7932560261883855e-02 -5.5140254799566565e-02 8.8729201076060017e-03  1.7685223401635038e-02 -6.3279303663518430e-02 1.2450844523331096e-02  1.8079474067070760e-02 -6.5581745149602605e-02 1.3930167622264013e-02  1.5951223257281329e-02 -5.2067961136157047e-02 1.1530461246826964e-02  1.5622147442262662e-02 -6.0427958816205482e-02 1.5175561534396993e-02  1.5959758295345721e-02 -6.3222936599797830e-02 1.6254737858942006e-02  1.3983171803613192e-02 -4.8957170431239407e-02 1.3980831146367213e-02  1.3573767241735599e-02 -5.7490595438554899e-02 1.7666848146220396e-02  1.3858688145979446e-02 -6.0701734393163523e-02 1.8340133058871416e-02  1.2025202740739866e-02 -4.5709933574438276e-02 1.6369349323538864e-02  1.1534765092913467e-02 -5.4380071650012990e-02 2.0076923048700460e-02  1.1765946731130465e-02 -5.7956925249636922e-02 2.0309828302633840e-02  1.0076592623719774e-02 -4.2230407672514216e-02 1.8827613117466079e-02  9.5010501310778903e-03 -5.1007376440906478e-02 2.2537087798799184e-02  9.6721199740449487e-03 -5.4921271875332550e-02 2.2270897344199615e-02  8.1436134395123250e-03 -3.8415327015828643e-02 2.1469998109441828e-02  7.4744426496551565e-03 -4.7270713483295992e-02 2.5159378267694637e-02  7.5746306252409785e-03 -5.1533649577539156e-02 2.4332946539949916e-02  1.3906381774290041e-02 -7.8194027076758835e-02 2.2794902266178387e-02  1.3626586260140253e-02 -6.8942268391146547e-02 2.1406724649761174e-02  1.3510827205976792e-02 -7.7696423759405039e-02 2.4210147881874838e-02  1.5771603897233710e-02 -7.1244834163612880e-02 1.9439000719585112e-02  1.1335650989730736e-02 -7.5428566205681252e-02 2.5732258393062698e-02  1.1726266966238439e-02 -7.6333877993046431e-02 2.3725450720970730e-02  1.1489094913500114e-02 -6.6382774414869367e-02 2.3241609835576431e-02  9.1480632256141416e-03 -7.2823166045856549e-02 2.7184555824762612e-02  9.5355180878306592e-03 -7.4147454392126305e-02 2.4526303795299763e-02  9.3501600505802394e-03 -6.3510486006822228e-02 2.5041366505649913e-02  6.9320963303941873e-03 -6.9830820396536084e-02 2.8644926365688848e-02  7.3176868865398540e-03 -7.1588671357815215e-02 2.5224185892078897e-02  7.2051787911783481e-03 -6.0264810506552038e-02 2.6899256503748720e-02  1.8704147397777204e-02 -4.4315365858235659e-02 -3.5882021789033626e-03  1.8877433008816859e-02 -5.8386532019859133e-02 3.5919284736029115e-03  1.8445839819252990e-02 -5.1083342411881949e-02 -8.2949273697833722e-04  1.6533889270053347e-02 -4.6166894160402101e-02 2.4806965180867550e-03  1.6888381447626392e-02 -5.4179496935549014e-02 7.1012554299635672e-03  1.6986403442343631e-02 -3.9353926383721198e-02 -7.0219345271840057e-04  1.4644143399876748e-02 -4.1673261964968199e-02 5.5343558666530752e-03  1.4909260537841239e-02 -5.0235524348738271e-02 1.0250551676233694e-02  1.5279601743660429e-02 -3.4848393980961824e-02 2.0044692658596828e-03  1.2761865476992566e-02 -3.7404876114905089e-02 8.5456778917486643e-03  1.2949487116177941e-02 -4.6392220444835999e-02 1.3253695569977693e-02  1.3564587037425128e-02 -3.0581797438216488e-02 4.7108583282483010e-03  1.0883392647586828e-02 -3.3186624686500799e-02 1.1682385398939035e-02  1.1000487394812419e-02 -4.2508599665633653e-02 1.6288732259438159e-02  1.1852500396332000e-02 -2.6387719280391485e-02 7.5642378710632100e-03  9.0079685643918665e-03 -2.8883918433405213e-02 1.5089270684544950e-02  9.0593327500698966e-03 -3.8463780919204001e-02 1.9514022973836215e-02  1.0153112722110398e-02 -2.2138275818135145e-02 1.0695392885356838e-02  7.1378890778826184e-03 -2.4395720318551264e-02 1.8902411271068325e-02  7.1267675985961622e-03 -3.4154342278029826e-02 2.3079417904319048e-02  8.4770195937232777e-03 -1.7741662637321458e-02 1.4218584365633384e-02  1.9369209201753845e-02 -8.7487077720289880e-02 1.3048146321449836e-02  1.8573636943175188e-02 -7.4925306453150681e-02 7.0122981023930863e-03  1.5982440705858792e-02 -7.0312194752495963e-02 1.1900232583101515e-02  1.6770572733965067e-02 -8.3705433838104429e-02 1.7992523587543285e-02  1.3527090866530820e-02 -6.6047005258440053e-02 1.6322369199300576e-02  1.4296612168524365e-02 -8.0036527171947841e-02 2.2373324157165048e-02  1.1128877808596040e-02 -6.1912457665492013e-02 2.0546329547062453e-02  1.1874514289112714e-02 -7.6341515071313371e-02 2.6470934276570407e-02  8.7305654502387066e-03 -5.7724996170217258e-02 2.4817541018174665e-02  9.4477736318181772e-03 -7.2472465411308459e-02 3.0527792748479429e-02  6.2849098250913216e-03 -5.3329487341504785e-02 2.9363650668075326e-02  6.9647599393500622e-03 -6.8289202870076796e-02 3.4768144400510327e-02  3.7434094607608197e-03 -4.8596297778545572e-02 3.4415572929001902e-02  4.3760938701235099e-03 -6.3650825755157084e-02 3.9404597841745714e-02  1.9316282408809431e-02 -6.3655220487378025e-02 7.1218218577293844e-03  1.7262322662372404e-02 -6.0179932540969733e-02 1.0528442899053938e-02  1.5231874582949632e-02 -5.6830304168314867e-02 1.3552795992309742e-02  1.3218650098738502e-02 -5.3478526153638600e-02 1.6368407008477151e-02  1.1214116178939115e-02 -5.0007054306689093e-02 1.9148548696325499e-02  9.2165482566555403e-03 -4.6307925027926591e-02 2.2045046897726114e-02  7.2296266973539466e-03 -4.2278373939945921e-02 2.5207362438010816e-02  2.0053135908353639e-02 -1.0471318069576664e-01 2.1104994842567584e-02  1.7614063594471083e-02 -1.0195741226728502e-01 2.5874614526173092e-02  1.5242225679747619e-02 -9.9084969889058197e-02 3.0031026770999277e-02  1.2907644555602388e-02 -9.5984649363494171e-02 3.3830596369410465e-02  1.0547327544431153e-02 -9.2557583228525836e-02 3.7500787706308443e-02  8.1367519169725285e-03 -8.8664540212360185e-02 4.1255656319235876e-02  5.6237682790823505e-03 -8.4152423937123674e-02 4.5293762506139382e-02  1.8240476463627722e-02 -2.0499298353150772e-02 -1.6724254069734153e-02  1.7858421653723609e-02 -3.2885920476928891e-02 -1.1219711905502892e-02  1.7710781658652162e-02 -2.3080887654752330e-02 -1.6129110383605028e-02  1.6490183614825363e-02 -1.7343601821890771e-02 -1.5747153547724539e-02  1.6342702777312854e-02 -2.6993519865618400e-02 -9.5524075859121892e-03  1.7153684285372912e-02 -1.5090070237057671e-02 -1.6492145794093430e-02  1.5989331630290610e-02 -1.0401879717059666e-02 -1.5789950734314891e-02  1.4766628642285279e-02 -2.1846214199508912e-02 -7.7020143518037841e-03  1.5184413178637500e-02 -1.2484093879619098e-02 -1.4869050217798706e-02  1.4756109756924115e-02 -6.1529476640532956e-03 -1.4615926315447001e-02  1.3175957722903232e-02 -1.7136351568912370e-02 -5.5762395589131824e-03  1.3819992778785376e-02 -8.0894765958082551e-03 -1.3495802875519918e-02  1.3483661090788246e-02 -2.1460306927638170e-03 -1.2963033363263057e-02  1.1563213403211961e-02 -1.2655167747094220e-02 -3.0927627561089552e-03  1.2408459587547624e-02 -3.9458856695268251e-03 -1.1627348935427335e-02  1.2185054593123076e-02 1.7503415129577512e-03 -1.0810991207323019e-02  9.9299729927650997e-03 -8.2560756746175735e-03 -1.7311597148534605e-04  1.0953814706882146e-02 8.1653958151419180e-05 -9.2505442527600085e-03  8.2733111408859802e-03 -3.8413190425810521e-03 3.2595556706227760e-03  1.0880787830423989e-02 5.6184135621541401e-03 -8.1167080378001296e-03  9.4468665882718739e-03 4.0712495124936984e-03 -6.3432545876476324e-03  2.0046544683179658e-02 -5.0192101925230097e-02 1.8498224912305407e-03  2.0492065701676637e-02 -6.0749304509812953e-02 7.9948272057218158e-03  1.8372172098710348e-02 -5.8256327909419911e-02 1.0723677577874164e-02  1.8181589265938949e-02 -4.6710064562133266e-02 4.8629302747119222e-03  1.6289568318638318e-02 -5.5693022930676711e-02 1.3052070089380190e-02  1.6310493752401553e-02 -4.3389830140982709e-02 7.4877939718925885e-03  1.4224734326332531e-02 -5.3010244479335174e-02 1.5154768102240554e-02  1.4445544531051732e-02 -4.0101021777431571e-02 9.9368533076042882e-03  1.2168740578632525e-02 -5.0152871304337932e-02 1.7158827241426228e-02  1.2589531992223074e-02 -3.6740702097089760e-02 1.2369161478773406e-02  1.7358537068741912e-02 -5.7832632692956715e-02 -2.5667262229285511e-03  1.4804232459299077e-02 -5.1785232968400936e-02 1.6253403934100177e-03  1.2433811819839859e-02 -4.6493769091910796e-02 5.5658643259991203e-03  1.0144595836481515e-02 -4.1620420607096836e-02 9.5484948678418707e-03  9.8223177430733239e-03 -2.8714570676467960e-02 1.1310504558545663e-03  7.5654942062174223e-03 -4.0774263542100439e-02 1.6176161890237892e-02  7.8598504219580655e-03 -3.6909008965061607e-02 1.3774263180665146e-02  7.6870270650860537e-03 -2.3957814370836206e-02 4.8494020125292338e-03  5.2209344146727293e-03 -3.5895432450779405e-02 2.0995110817477004e-02  5.5341212452467529e-03 -3.2191835028328716e-02 1.8404795223344581e-02  5.4942152662054390e-03 -1.9270819119678682e-02 9.0350433605997510e-03  2.7904724488297871e-03 -3.0895436480878110e-02 2.6366965755900071e-02  3.1348014057529343e-03 -2.7366103628146281e-02 2.3579892162276413e-02  3.2154719398983849e-03 -1.4562156010725981e-02 1.3762198657071579e-02  1.7712622446476520e-02 -7.5778611961115