<?xml version="1.0"?>
<VTKFile type="UnstructuredGrid"  version="0.1"  >
<UnstructuredGrid>
<Piece  NumberOfPoints="970" NumberOfCells="4170">
<Points>
<DataArray  type="Float64"  NumberOfComponents="3"  format="ascii">8.123963870888062 3.031974882518874 0.8525083330028909  8.062703390031361 2.955567925177228 0.8521412388386504  8.032128368178475 3.092276104198452 0.8458160966112692  8.037936290068743 3.093385738973185 0.7766207560153507  8.073565353376337 2.944767355376157 0.7857748748764195  8.133079056443346 3.026177435772532 0.7841489845661386  8.084464375073898 2.93391195261643 0.7194425315704228  8.142239769194484 3.020306137171641 0.7158048174275504  8.043729862777251 3.094459485787887 0.7074106971852143  8.151438911859241 3.014370591868898 0.6474893197501572  8.095401095383085 2.923007395622081 0.6531549802706634  8.049548975826514 3.095473060358844 0.6381904452000667  8.160669442654651 3.008385973708942 0.5792022167337173  8.10635993687753 2.912055245952138 0.5869036493941394  8.055398117026648 3.096429650902681 0.5689699871181255  8.169922566881707 3.002367963514136 0.5109367073323179  8.117330192871481 2.901063805497584 0.5206816208900307  8.061277839457814 3.097331523933728 0.4997522991739667  8.179194589204972 2.99632815773972 0.4426932636569148  8.128298304375338 2.890050980044395 0.4544774168028328  8.0671952496579 3.098179490855676 0.430535374745681  7.914583213520623 3.026891808092581 0.8315482885395671  7.92291789465583 3.025693483221596 0.7633375105642373  7.931239522704056 3.024479396107608 0.695118126586904  7.939578599507342 3.023227154275873 0.626892608583617  7.94794196290166 3.021922209900048 0.5586667077743549  7.956329683852723 3.020556476741135 0.4904441610319007  7.964751531344106 3.019124643098418 0.4222315249107816  8.305618931698151 2.437596726836075 1.136657103369128  8.210760883467648 2.376532609860462 1.123834859305424  8.245503399695226 2.509216825462968 1.078048599523687  8.265887319538253 2.485063386867563 1.027707646523515  8.231995623221341 2.354360038078393 1.074157730992279  8.326123310864117 2.414487322975192 1.087466876181903  8.346943641936415 2.391334013418923 1.038511361230087  8.25357913382863 2.33217968003205 1.024691101751453  8.286561723710847 2.46088001826117 0.9775931213226514  8.367909066074732 2.368195192328478 0.9897336669876637  8.275321918472695 2.310023939304246 0.9753578403807358  8.307374470301577 2.436707757164487 0.9276189890802244  8.388868600134094 2.345105814910148 0.9410618466260517  8.29705729271126 2.287909844346782 0.926084461623786  8.328181595813639 2.412573907803214 0.8777236645934708  8.409640278283465 2.322094666690491 0.8924143335925451  8.31859437079555 2.265834881063811 0.8767928954715665  8.348827014309174 2.38849829605071 0.8278331544687185  8.429927369203199 2.299126908727474 0.8436902597669693  8.339665234843554 2.243714226719836 0.8273842286329044  8.369075514718832 2.364445447135188 0.7778836751048661  7.377267140918786 2.852280727429805 0.7814537232897586  7.265002608982934 2.785665894069089 0.7869065705812438  7.288726453159245 2.937100169943909 0.7778717200081235  7.285289053008006 2.938909176421264 0.7088347614841961  7.262305719001437 2.778745977463883 0.7192803593123773  7.378550382229705 2.847997564613188 0.7131438294914709  7.379695790711088 2.843822755069381 0.6447763857753673  7.259423503885106 2.771917410060267 0.6516106212193177  7.281715055219191 2.94079236995977 0.6397777502905392  7.380798111059268 2.83965236778935 0.5763621519841439  7.256478710294472 2.76509193311217 0.5839057681052606  7.381913838305233 2.835424062047601 0.5079142351285512  7.253551014838111 2.758212292899559 0.5161788026618351  7.27448577799184 2.944493190406823 0.5016035229004825  7.250697644255353 2.751233656584656 0.4484335607754075  7.3830844397933 2.83109017893869 0.4394458455697716  7.270930615095927 2.946234544330261 0.4324878829636776  7.38435138957931 2.826611918415128 0.3709671491856105  7.247966945044912 2.744122201714517 0.3806684913911628  7.267465010286293 2.947862622520165 0.363357315298877  8.134033103556552 2.472916088419065 1.048689527897003  8.155020676193143 2.449742987836728 0.997560486013961  8.176319630293458 2.426567572779487 0.9465924480265687  8.197761537437239 2.403410809631511 0.8957139500780704  8.219200967709458 2.380281987425977 0.8448654613600289  8.240480681730372 2.357166542598667 0.7939900454746847  8.261401364276262 2.333977218367616 0.7430391667422799  8.759381886919138 2.904293554208575 0.9840416912954976  8.692627748846236 2.820396590730952 1.031573622689377  8.626830271431487 2.918088393777086 0.9667385153313008  8.699309886039057 2.787637271863609 0.9775939141057579  8.764122423356286 2.874060402292887 0.9256547402479447  8.633784496826729 2.890017406701415 0.9067898502238135  8.706051100721997 2.754684308870678 0.9238596525458487  8.768877903333449 2.843605018804088 0.8674673675796505  8.640786729268735 2.861741225058967 0.8470271015490106  8.712805681935128 2.721652949850719 0.8703043221446942  8.7736249955712 2.813055140660328 0.8094206370731039  8.647800186216646 2.833369918721152 0.7874034968424999  8.719538001338773 2.688631600639126 0.8168706338097688  8.778348656903416 2.782490965076112 0.7514691640132927  8.65480152991363 2.804984694117684 0.7278785756374202  8.726235116272266 2.655719855692598 0.7634933206888138  8.783086326701907 2.752041555911225 0.6935618388120952  8.661790601830644 2.776680226660018 0.6684083807187022  8.732945403725731 2.623098544191173 0.7100898376556429  8.787900876235529 2.721843916109468 0.6356296302257294  8.668801671868287 2.748590624954375 0.6089370791146601  7.493404039023377 3.059764255259846 0.7844659632827613  7.407295076591783 2.985759333590051 0.7800060692118785  7.402113839017683 3.133233264640328 0.7990771946530392  7.401297106419205 3.146376877272068 0.7301087164013811  7.407936069919103 2.989051658047709 0.7106132056587394  7.496797433906421 3.067970126346344 0.7147864778549281  7.400386806703681 3.159560384659748 0.6611482392492236  7.40846751579692 2.992424368163452 0.6412011386285968  7.500102518487609 3.076218317951778 0.6451017797119731  7.399445417157009 3.172725512314134 0.5921664910748315  7.408966109253067 2.995793705377905 0.5717620642253979  7.503384595843474 3.084450023040481 0.5753966698575561  7.398506524557134 3.185846040032537 0.5231597889846746  7.40947541420623 2.999111433871609 0.5022991001033085  7.506678353205416 3.092631074025654 0.5056678857161138  7.39759732796295 3.198902257793424 0.4541330430069884  7.410029618734142 3.002340982254748 0.432817972791403  7.510011777507163 3.100734155056533 0.4359177613756673  7.396741552816261 3.211868127833151 0.3850962449717797  7.410658653028706 3.005445671856382 0.3633259524253584  7.51342067899511 3.108736946066828 0.3661528845320682  7.791810683480469 2.455633156735022 0.9357794172773297  7.763415218837585 2.360539852025566 0.9689824047414825  7.649167272342809 2.401352040697841 0.9258245031846253  7.660466316685352 2.377906629964961 0.8678557877103177  7.778127483448012 2.336741846726024 0.9133150219925097  7.807067973626362 2.433202385520922 0.8789807367162445  7.671834633537833 2.354560575907408 0.8096823527687232  7.793030876773267 2.313016370776336 0.8574945169393816  7.822493180636093 2.41086324509821 0.8220647573990675  7.683246118444786 2.331205142721842 0.7513865001498393  7.808012057184181 2.289277595584179 0.8015773137155549  7.837987793051381 2.388508517258253 0.7650721589891575  7.694661868934222 2.307742440012249 0.6930060031365229  7.822984194293552 2.265451317344752 0.7455811873498956  7.853473807298528 2.366064903672807 0.7080202393201822  7.706084265318697 2.284103787651047 0.6345578542319497  7.837892216497607 2.241480281635605 0.6894983886875171  7.868909101270495 2.343480239800865 0.6509071630953946  7.717538561033838 2.260237422774019 0.5760531033462037  7.852760802273172 2.217271699696043 0.6333289178796019  7.884302008741065 2.320686796799289 0.5937216827035011  7.307042184146681 3.067866635636987 0.7897187763138147  7.302500196932831 3.078383746484314 0.7208593736958182  7.935706902181098 3.180082045388536 0.8411551582390309  7.940365995766842 3.18870150358683 0.7715841974621293  7.944996898099297 3.197286678852763 0.7019962687402471  7.949635107377173 3.20581898102049 0.632389072165169  7.954296127109854 3.214294808279415 0.562763496223819  7.958993808514982 3.222710352017892 0.4931173128386105  7.963740994598663 3.231058955117251 0.4234432870292986  7.674492196639685 2.513231050694638 0.8883583318028311  7.686558433507233 2.491466649989625 0.8289972262913518  7.69868779233375 2.469828649808956 0.7694455780625494  7.710847259139709 2.448168192508672 0.7097831195140472  7.723011050247581 2.426403679444539 0.6500519189869269  7.73519238985786 2.404475904619869 0.5902816623442636  7.747396635260458 2.382324097726066 0.5304843280059914  7.344745364978538 2.357185287150247 0.9102151716979677  7.327414697425354 2.476697982116833 0.8633510118012977  7.425834539131022 2.413970161930582 0.8877385750360371  7.429788798230185 2.39038604350927 0.8276539346431031  7.339605002580815 2.251128372860458 0.6756610669117742  7.323319275938605 2.388605675687942 0.6174178597720761  7.441212310219721 2.319816874024473 0.6464268681239819  7.445134391512448 2.296043734315957 0.5859047462547158  7.322357533530226 2.366410473104707 0.5557916431332925  7.338425425702164 2.224414555168345 0.6168539037652393  7.449164688627126 2.272062626572567 0.5253493537533732  7.778399453806268 2.551773318984294 0.8971864244453256  7.793007565507498 2.530879180056191 0.8384942082479158  7.807736646891238 2.510064633052083 0.7796605861925299  7.822518419065073 2.489225949171565 0.7207450671103566  7.837305935212329 2.468312272090426 0.6617814640995107  7.85206972186723 2.447272234261938 0.6027842639753866  7.866807248951844 2.426035738732293 0.5437620026606503  8.061693936001522 3.218592673260389 0.7122574080000182  8.004673651999399 3.350206983211641 0.7348215678037595  8.058936678448665 3.211285790647513
[...]
<PointData  Vectors="f_24"> 
<DataArray  type="Float64"  Name="f_24"  NumberOfComponents="3" format="ascii">-2.8198882617799851e-02 -2.2645319030867951e-02 4.1149196439598683e-02  -2.6788814944929885e-02 -2.4126528432104975e-02 3.7659458843268004e-02  -2.7326669808909732e-02 -2.0554645130289973e-02 4.5915124621900408e-02  -2.8575388928026465e-02 -1.8917804468637701e-02 4.6220737092215039e-02  -2.8199619852336714e-02 -2.2095547820703706e-02 3.7095572011013538e-02  -2.9566366472372683e-02 -2.0823643562178602e-02 4.0814371483596602e-02  -2.9560539801537770e-02 -2.0708351791319791e-02 3.6319516756654263e-02  -3.0882740547506914e-02 -1.9502156122127880e-02 4.0312945275073016e-02  -2.9733881421860096e-02 -1.7875798221351671e-02 4.6126168047779824e-02  -3.2172562159857046e-02 -1.7611032985084575e-02 3.9635615804690078e-02  -3.0897135385448866e-02 -1.8759136271732216e-02 3.5390551853345428e-02  -3.0810775727439725e-02 -1.6396014962931384e-02 4.5778941015796895e-02  -3.3391035944017905e-02 -1.5002844399034650e-02 3.8697097603908860e-02  -3.2129237085021134e-02 -1.5967329249078479e-02 3.4222186249428764e-02  -3.1814741893974020e-02 -1.4347785163209758e-02 4.5184133424159757e-02  -3.4588745668158088e-02 -1.1979839614018805e-02 3.7284471444255646e-02  -3.3319289392856534e-02 -1.2703002556056444e-02 3.2637810358434764e-02  -3.2798733526458089e-02 -1.1919751262870410e-02 4.4116530313213401e-02  -3.5844998474425564e-02 -8.7087713752276950e-03 3.5536762209829459e-02  -3.4575263449064315e-02 -9.1684244231876860e-03 3.0802996669745675e-02  -3.3825774622892123e-02 -9.2626821879784847e-03 4.2547846206407995e-02  -2.5635271923016664e-02 -2.0847468590969677e-02 4.4865154590066660e-02  -2.6789004342113381e-02 -1.9155330465915197e-02 4.4898785170682992e-02  -2.7916753022474278e-02 -1.7986699552639675e-02 4.4598665611908922e-02  -2.9009090288742191e-02 -1.6401788160809255e-02 4.4117501733063509e-02  -3.0004278040954121e-02 -1.4214416255149557e-02 4.3437162434621854e-02  -3.0907509823733949e-02 -1.1615396052248667e-02 4.2338639258820004e-02  -3.1707584559254431e-02 -8.7419301812278263e-03 4.0843818348532977e-02  -1.5549032622511021e-02 -5.4664313870967880e-02 -1.0885645628751644e-02  -1.4432649125778154e-02 -5.3108550233632576e-02 -9.5766204512114147e-03  -1.6984954488869913e-02 -4.9916783773145103e-02 -4.1718415311356519e-03  -1.8989174891225077e-02 -4.7222319654801351e-02 -6.0596203450621758e-03  -1.6406219838726532e-02 -5.1187387866893322e-02 -1.1236997603690931e-02  -1.7505315410802687e-02 -5.2461351607294829e-02 -1.2758309943782509e-02  -1.9227177158082934e-02 -5.0999589278121482e-02 -1.4170511442214095e-02  -1.8122790659154103e-02 -4.9831798322017909e-02 -1.2503016553943487e-02  -2.0747216054675346e-02 -4.5659858940278068e-02 -7.4656040384031850e-03  -2.0889646780691766e-02 -4.9717868829358802e-02 -1.5492036915097762e-02  -1.9758514889601512e-02 -4.8591931995701582e-02 -1.3709626768470498e-02  -2.2497271454850771e-02 -4.4263039245558515e-02 -8.8480359949903373e-03  -2.2726612798366231e-02 -4.8108175838696358e-02 -1.6973278506177435e-02  -2.1615162109548437e-02 -4.7120753752252720e-02 -1.5062357429271596e-02  -2.4376416447568123e-02 -4.2321520370166857e-02 -1.0482607238140727e-02  -2.4786293332654717e-02 -4.5713750457362798e-02 -1.8535632682703321e-02  -2.3739272309354454e-02 -4.5062296586568233e-02 -1.6426063487389422e-02  -2.6357985207033228e-02 -3.9431628927683475e-02 -1.2314579781528836e-02  -2.7064314821252766e-02 -4.2854761993138320e-02 -1.9874524599208961e-02  -2.6105555483559129e-02 -4.2645002605030478e-02 -1.7539334903460969e-02  -2.8544663291603944e-02 -3.6009798019862892e-02 -1.4080429589017642e-02  -1.7282941638021392e-02 -2.0250343241082686e-02 4.2860396780031972e-02  -1.5262596158952223e-02 -2.1367590398365093e-02 4.0567749799415201e-02  -1.6265807337794903e-02 -1.7747746280270160e-02 4.8152802375358864e-02  -1.6675844074080300e-02 -1.6100279126494720e-02 4.8375738892630915e-02  -1.5696812682099985e-02 -1.9065792830247057e-02 4.0609883802698456e-02  -1.7888809809879325e-02 -1.8131269876326087e-02 4.3024237343608905e-02  -1.8465432537826853e-02 -1.6581300350553791e-02 4.2852022032448353e-02  -1.6096392871215850e-02 -1.7377195763477678e-02 4.0381928361582838e-02  -1.7103971654826994e-02 -1.4786982757848587e-02 4.8208349873084706e-02  -1.9095382379562195e-02 -1.4724149283657124e-02 4.2443154198268850e-02  -1.6567560569402406e-02 -1.5392954271362422e-02 3.9947599773593565e-02  -1.9755817744823479e-02 -1.2419880540292328e-02 4.1833607799722401e-02  -1.7126518806835758e-02 -1.2943787054463458e-02 3.9318112090303371e-02  -1.8159584841817851e-02 -1.1177096932032065e-02 4.7346484477524813e-02  -1.7757379594609147e-02 -1.0175410636123681e-02 3.8427239866613949e-02  -2.0425945615450362e-02 -9.8035816972186687e-03 4.0948520374497366e-02  -1.8783900312204668e-02 -8.9131568884075613e-03 4.6563194185754310e-02  -2.1091102263918249e-02 -6.9963920079247751e-03 3.9878163519374836e-02  -1.8423200816334830e-02 -7.2072578372088230e-03 3.7374697599577920e-02  -1.9460817056881019e-02 -6.4609876360651837e-03 4.5658615709726048e-02  -1.6289218354603587e-02 -4.7454750184571917e-02 -1.3509437151482567e-03  -1.8287015940899425e-02 -4.4865213220967037e-02 -3.0517714714237525e-03  -2.0039612894350481e-02 -4.3336105835380015e-02 -4.3302152602702274e-03  -2.1763240194205506e-02 -4.1925621005374121e-02 -5.6167840158924042e-03  -2.3648907255376519e-02 -4.0018697832148432e-02 -7.1547914444566986e-03  -2.5641318249379742e-02 -3.7287958001025391e-02 -8.8291587953795592e-03  -2.7831921583137388e-02 -3.4096055615366112e-02 -1.0441373635472978e-02  -3.1479713501679274e-02 -3.8850952570194282e-02 9.0432975640518318e-03  -2.8309652400667313e-02 -4.4945773108432022e-02 2.7259267709624003e-03  -2.9884045814561177e-02 -3.5871006141966776e-02 1.4879365449848185e-02  -2.9858742965334237e-02 -4.1086998493378019e-02 5.9290282549894358e-04  -3.2911502228464999e-02 -3.5285287788486337e-02 7.3918865006602982e-03  -3.1617943043354926e-02 -3.2565585943250777e-02 1.3381154171480562e-02  -3.1257440211930949e-02 -3.8859326832550452e-02 -9.5354914137160782e-04  -3.4254550175922840e-02 -3.2947088560993265e-02 6.0194435345730657e-03  -3.3225558426942546e-02 -3.0457385736903247e-02 1.2109403717477023e-02  -3.2771072903520847e-02 -3.6571819966815945e-02 -2.5859264482290274e-03  -3.5749959938249039e-02 -3.0231115707419900e-02 4.4884626404957757e-03  -3.4885192789951905e-02 -2.7909430541733019e-02 1.0655238766500310e-02  -3.4373590005440602e-02 -3.3214309286332899e-02 -4.7099941872086265e-03  -3.7352498919795314e-02 -2.6428893082621054e-02 2.4414702508619617e-03  -3.6546846957025168e-02 -2.4270344400026921e-02 8.7325239090483529e-03  -3.6032325002679243e-02 -2.8951731714514126e-02 -7.4408076955795512e-03  -3.9067351766900522e-02 -2.2026975193955869e-02 -1.7400408438035831e-04  -3.8227038554598261e-02 -2.0003867149310486e-02 6.2356823551819934e-03  -3.7798813810513886e-02 -2.4211254183374609e-02 -1.0581037790819229e-02  -4.0879459851633479e-02 -1.7233254850516903e-02 -3.2181213160004780e-03  -4.0031421774598751e-02 -1.5369413867867101e-02 3.2754458217769322e-03  -1.9864810355372315e-02 -1.6431476640029148e-02 5.1670871827374003e-02  -1.8283379116781625e-02 -1.7402385219705670e-02 4.9080420853773732e-02  -1.8572812907065764e-02 -1.4543192636319934e-02 5.4451182297201778e-02  -1.9121085396433882e-02 -1.3799189497282201e-02 5.4832359139330482e-02  -1.8865430926087525e-02 -1.5869940959430565e-02 4.9369616043907626e-02  -2.0583628875484084e-02 -1.5237859116923677e-02 5.1814666304902751e-02  -1.9695437791043734e-02 -1.3200146681093544e-02 5.4741797008365858e-02  -1.9480984365046288e-02 -1.4691207360517652e-02 4.9228690506969326e-02  -2.1311926963549343e-02 -1.4264390399575831e-02 5.1592169492445383e-02  -2.0252375606747520e-02 -1.2336090585464154e-02 5.4408797145064407e-02  -2.0104236114681776e-02 -1.3199350165870188e-02 4.8864955193716822e-02  -2.2000228583795616e-02 -1.2988144167450054e-02 5.1194767654747675e-02  -2.0784296773032656e-02 -1.1167403103699351e-02 5.3894173744320754e-02  -2.0723387513349883e-02 -1.1329352291353331e-02 4.8324986371038207e-02  -2.2625995369509835e-02 -1.1359395815059306e-02 5.0626361907792863e-02  -2.1309501390010817e-02 -9.7893249692970544e-03 5.3083651591095363e-02  -2.1329409047026304e-02 -9.1864838259570428e-03 4.7514766772413071e-02  -2.3176189992843984e-02 -9.4812827034587606e-03 4.9761295468779228e-02  -2.1816053492913091e-02 -8.2382113485244667e-03 5.2108414715517484e-02  -2.1946486067804812e-02 -6.8724597771445657e-03 4.6534442031668954e-02  -2.3661716664416420e-02 -7.4240909413670758e-03 4.8842455210400419e-02  -1.6472901302165253e-02 -3.8475506582662161e-02 1.0903078749444468e-02  -1.5052598997480895e-02 -4.1307369007811373e-02 6.6791230144373015e-03  -1.5475511136814460e-02 -3.7906698378943574e-02 1.1883632880490304e-02  -1.6858121089940305e-02 -3.5238229923823333e-02 1.1158544946611816e-02  -1.6653056688316539e-02 -3.8843860187315234e-02 5.7629129447494820e-03  -1.8119532620401013e-02 -3.5794545119940610e-02 9.9488269502373151e-03  -1.8068945534746379e-02 -3.3456599617470120e-02 1.0612001208393691e-02  -1.8030711761814967e-02 -3.7167050263011696e-02 5.0944476593303830e-03  -1.9576407519188339e-02 -3.4081053397850836e-02 9.2061546546447423e-03  -1.9239961521624670e-02 -3.1661247045978669e-02 9.9356609924209291e-03  -1.9368398270500711e-02 -3.5521833136838390e-02 4.3389222308644615e-03  -2.1015144155933443e-02 -3.2339496947416259e-02 8.3412485870283833e-03  -2.0460052269511236e-02 -2.9398129976230144e-02 8.9961860559102051e-03  -2.0827097076758876e-02 -3.3492836098495363e-02 3.3496611661753030e-03  -2.2519653268634143e-02 -3.0039085721349668e-02 7.1943335664086030e-03  -2.1727406431208414e-02 -2.6699949405881468e-02 7.9098641681923949e-03  -2.2402732546098415e-02 -3.1072227738892198e-02 2.2704000230581913e-03  -2.4070647209233093e-02 -2.7216704459598451e-02 5.8816685645190908e-03  -2.3057104776570955e-02 -2.3752762497308087e-02 6.7471491435498769e-03  -2.4075923780982666e-02 -2.8356692442871704e-02 1.1727659706034471e-03  -2.5713159910610000e-02 -2.4078449054255220e-02 4.4907036447227149e-03  -1.6901339634196409e-02 -1.5285694192531417e-02 5.3071827552732202e-02  -1.7323999333955550e-02 -1.4250918003868228e-02 5.3482199140598277e-02  -2.6424507934623184e-02 -1.7717675692414468e-02 5.1910688487499440e-02  -2.7532989113112936e-02 -1.6881299074924923e-02 5.2110143310945017e-02  -2.8507694145055676e-02 -1.6244648670171797e-02 5.1887642825224102e-02  -2.9380066201342082e-02 -1.5237410090580501e-02 5.1493499713057347e-02  -3.0179525348688566e-02 -1.3800285614946286e-02 5.0903302405790420e-02  -3.0952953854655661e-02 -1.2083714832889251e-02 4.9828733216240123e-02  -3.1685636145398190e-02 -1.0136340404953315e-02 4.8343660790185532e-02  -1.6952351380349059e-02 -3.4244403459728817e-02 1.7610509456288104e-02  -1.8388661554586766e-02 -3.1432288654666928e-02 1.6899205896024293e-02  -1.9670125512454496e-02 -2.9660393434744116e-02 1.6286339140224541e-02  -2.0921063816769378e-02 -2.7796416718559466e-02 1.5486857073225471e-02  -2.2175120804859273e-02 -2.5324028899517678e-02 1.4395595022515998e-02  -2.3419997741816977e-02 -2.2342950711546329e-02 1.3092905462941269e-02  -2.4713107063273045e-02 -1.9089353620878598e-02 1.1649716658940254e-02  -1.3628372753673540e-02 -3.6506753825686689e-02 1.4905313235086896e-02  -1.4257514847786989e-02 -3.2012193696785603e-02 2.1684460044048160e-02  -1.4663042215782603e-02 -3.4687003914110837e-02 1.7025483098963942e-02  -1.5508331103506908e-02 -3.1963456201616322e-02 1.6461018535760468e-02  -1.5695284942704796e-02 -2.7840023562805336e-02 1.2199129053072830e-02  -1.6351730385652238e-02 -2.2657099466380604e-02 1.9236109729585178e-02  -1.7675870116492742e-02 -2.5675918511913687e-02 1.4490552297062463e-02  -1.8416850687527780e-02 -2.2836010926133785e-02 1.3423969397119073e-02  -1.6916218878429125e-02 -1.9696509609374403e-02 1.8137577480475290e-02  -1.6180809014194289e-02 -2.5189139145182966e-02 1.1197479417564191e-02  -1.9196510172094453e-02 -1.9776462530841653e-02 1.2269619495655056e-02  -1.7923179757441607e-02 -3.4637941014314354e-02 1.7141409888908467e-02  -1.9525817251038496e-02 -3.1795102578723165e-02 1.6280982738726774e-02  -2.1001020141950388e-02 -3.0057052248206876e-02 1.5548485516803321e-02  -2.2440104040270213e-02 -2.8217736353958255e-02 1.4643897485441624e-02  -2.3864061815448818e-02 -2.5718751828568455e-02 1.3444125870699835e-02  -2.5252742700317937e-02 -2.2623288943281118e-02 1.2009481473367339e-02  -2.6696669517309750e-02 -1.9233592323036158e-02 1.0442859995168559e-02  -3.0188091808859105e-02 -1.6757109537830155e-02 5.1163747129739132e-02  -2.9172964640268029e-02 -1.5493717754053612e-02 5.5137313573712106e-02  -2.9242653920099674e-02 -1.7383493547013004e-02 5.1366397387288390e-02  -3.1092302376519096e-02 -1.5724880332876629e-02 5.0760946026386221e-02  -2.9878913934961528e-02 -1.5196726775206278e-02 5.4679622055268641e-02  -3.1964216759886900e-02 -1.4244291218258423e-02 5.0134080433446346e-02  -3.0570521308654095e-02 -1.4625824212503614e-02 5.3970044222257200e-02  -3.2878652050879947e-02 -1.2497175062201070e-02 4.9011923959231360e-02  -3.1297666120309681e-02 -1.3823952578388468e-02 5.2766771331116305e-02  -3.3881662190781543e-02 -1.0513256098687654e-02 4.7417118593328061e-02  -3.2031938833075618e-02 -1.2802379562698909e-02 5.1090944826686822e-02  -2.4878343160350980e-02 -1.8304094018893869e-02 4.9958111051315111e-02  -2.5918737777830294e-02 -1.7086025651731604e-02 5.0264386401510458e-02  -2.6927951029311982e-02 -1.6264308533702084e-02 5.0195674281318645e-02  -2.7855857931979623e-02 -1.5085549095256954e-02 4.9918012168007168e-02  -2.8671106325379756e-02 -1.3470545697754983e-02 4.9437211689001698e-02  -2.9367674202780834e-02 -1.1515447599794433e-02 4.8521883130672482e-02  -2.9920048272230562e-02 -9.2984242932685063e-03 4.7184928821902887e-02  -2.8968403456296046e-02 -1.3999963682759959e-02 5.4475647755089326e-02  -2.9545305959099745e-02 -1.3130549306641268e-02 5.3291649747664552e-02  -3.0059448313629902e-02 -1.2056096067213931e-02 5.1766592718975317e-02  -1.6700140878029495e-02 -2.3016052615655785e-02 3.7169721158339171e-02  -1.7343701395358166e-02 -2.0583664070312160e-02 3.7101167203812971e-02  -1.7938984882843848e-02 -1.8830300215033669e-02 3.6812105522729087e-02  -1.8580504494882685e-02 -1.6795984667491191e-02 3.6294417495793707e-02  -1.9257793827636236e-02 -1.4249813935503248e-02 3.5554315342933955e-02  -1.9952905836600407e-02 -1.1368050471787751e-02 3.4548641188188942e-02  -2.0655588003247165e-02 -8.2907353100636540e-03 3.3367095914217410e-02  -2.2809033128987865e-02 -5.6853402034401875e-02 -1.2086974658161311e-02  -2.0691767916718392e-02 -5.6150541265645872e-02 -1.0677829534987157e-02  -2.4866728149881317e-02 -5.0234008996573078e-02 -3.6002500540936095e-03  -2.6587861861577761e-02 -4.6580006662388200e-02 -5.8849517037243750e-03  -2.2539740310070625e-02 -5.2858885528009977e-02 -1.2991328803999449e-02  -2.4544116661663670e-02 -5.3441526874081317e-02 -1.4482732843089482e-02  -2.8102643809874876e-02 -4.4462032375352609e-02 -7.5313330554911163e-03  -2.4114452935208398e-02 -5.0874534568212490e-02 -1.4650330806520341e-02  -2.6001421270944888e-02 -5.1380366123917678e-02 -1.6196412573394922e-02  -2.9691414485883961e-02 -4.2450874962774075e-02 -9.1463029443598302e-03  -2.5698594452245913e-02 -4.9212658506771631e-02 -1.6161709406107210e-02  -2.7486842725615454e-02 -4.9619315433063291e-02 -1.7756090440789341e-02  -3.1363389350176643e-02 -3.9431221889427888e-02 -1.1208834186776713e-02  -2.7414440765978897e-02 -4.6929046178265911e-02 -1.7920291343519544e-02  -2.9098361178702389e-02 -4.7102919599728559e-02 -1.9631514946956558e-02  -3.3083388770902229e-02 -3.5379632128546092e-02 -1.3773014572758847e-02  -2.9220849791622001e-02 -4.3519163867670574e-02 -2.0020249974287547e-02  -3.0815811451625312e-02 -4.3502204533179177e-02 -2.1880928169409619e-02  -3.4904936309556642e-02 -3.0693265600176749e-02 -1.6621002824216118e-02  -3.1202012605573374e-02 -3.9407013304166627e-02 -2.2185496841282279e-02  -3.2679249652637167e-02 -3.9161841163283834e-02 -2.4276092571979456e-02  -1.9182962055764485e-02 -4.4681853006251208e-02 3.3832436440127439e-03  -2.1164370981885911e-02 -4.1660321420630704e-02 1.6158348446506118e-03  -2.2927781121329847e-02 -4.0026892839970629e-02 2.5942499216609485e-04  -2.4723256440268401e-02 -3.8468347490368156e-02 -1.1635276258358774e-03  -2.6600049830700884e-02 -3.6180667202218575e-02 -2.9041252396151450e-03  -2.8446744681510306e-02 -3.2801195865741262e-02 -4.9621489908262643e-03  -3.0443735525190415e-02 -2.8900508550566591e-02 -7.1203233802573651e-03  -2.0545565493489834e-02 -6.1544284068862330e-02 -1.8424129239161560e-02  -2.2351131188208338e-02 -5.8610429180667174e-02 -2.0679765662885929e-02  -2.3869505564391009e-02 -5.6670233453555284e-02 -2.2296206141128479e-02  -2.5352232619140939e-02 -5.5091335322117484e-02 -2.3684949888085411e-02  -2.6948948468263404e-02 -5.3048369213630084e-02 -2.5235146066452260e-02  -2.8689759821662896e-02 -4.9939122275209712e-02 -2.7037155707149228e-02  -3.0645078517740128e-02 -4.6123134008957116e-02 -2.8736590602855258e-02  -1.4315336683850252e-02 -4.1944040029495325e-02 5.7457438433137983e-03  -1.5743501501579656e-02 -3.9672358828760856e-02 5.0431027118038301e-03  -1.6961084580773021e-02 -3.7972241922922693e-02 4.5308679171960874e-03  -1.8127612381104722e-02 -3.6310991341585670e-02 3.9403389071687236e-03  -1.9397497950738033e-02 -3.4366490089042939e-02 3.1498072415015754e-03  -2.0785634702977063e-02 -3.2146375913139125e-02 2.3245035243952459e-03  -2.2264971934714772e-02 -2.9690755376722378e-02 1.5122872459502931e-03  -2.7784345011761771e-02 -5.5445984684858889e-02 -1.2614656827769081e-02  -3.0779589549950144e-02 -4.8939604276596264e-02 -5.4623100495377512e-03  -3.0344017168056264e-02 -5.4445550073021189e-02 -1.3472828739712919e-02  -3.1757274052116528e-02 -5.0675466324174065e-02 -1.5825242304751585e-02  -3.2207243575602770e-02 -4.5004449624774380e-02 -7.7120282053731335e-03  -2.9318698382107867e-02 -5.1668904812204361e-02 -1.4977008592594441e-02  -3.2930803055788896e-02 -4.8469882536208542e-02 -1.7441585384440867e-02  -3.3381945878427854e-02 -4.2718468597518246e-02 -9.3165540424541785e-03  -3.0593535567953252e-02 -4.9432260614204679e-02 -1.6614510050299847e-02  -3.4143607581155339e-02 -4.6362310394170797e-02 -1.9002446488037186e-02  -3.4647898030018644e-02 -4.0416046110080490e-02 -1.0978064046489064e-02  -3.1921012285865434e-02 -4.7388375659297370e-02 -1.8149873567930120e-02  -3.5490955278183349e-02 -4.3162326230918438e-02 -2.1087437301045158e-02  -3.6081340464638872e-02 -3.7019142919278110e-02 -1.3179142561238340e-02  -3.3376491633092732e-02 -4.4358763315228283e-02 -2.0134238016184022e-02  -3.7020649439423070e-02 -3.8908874622078198e-02 -2.3742958507760595e-02  -3.7659615763090182e-02 -3.2675319648143464e-02 -1.5979684182526946e-02  -3.4967079673352400e-02 -4.0229421453506345e-02 -2.2644196438073683e-02  -3.8643779488843344e-02 -3.4049310611297637e-02 -2.6691782773638695e-02  -3.9348114755506688e-02 -2.7829191031416425e-02 -1.9151784271649722e-02  -3.6667622005459317e-02 -3.5473077294065208e-02 -2.5411936300009482e-02  -2.3001465477313958e-02 -4.8977631058165640e-02 -1.4593070533702836e-03  -2.4814018740985811e-02 -4.5462874656497274e-02 -3.6750805013593978e-03  -2.6461176089128763e-02 -4.3528887631890660e-02 -5.3175923209791793e-03  -2.8156504696709227e-02 -4.1727170507886671e-02 -6.9492432266511119e-03  -2.9919834699475480e-02 -3.8989431712131664e-02 -8.9717776192659773e-03  -3.1673900986980155e-02 -3.5128152244694871e-02 -1.1465277365880867e-02  -3.3542347795766717e-02 -3.0647588332873652e-02 -1.4219735701109369e-02  -1.8672714026469289e-02 -4.2111982350238206e-02 6.4678036712838951e-03  -2.0603197246478570e-02 -3.9223732216407910e-02 4.9110460637339752e-03  -2.2346876578462013e-02 -3.7605301052347745e-02 3.7034942550799076e-03  -2.4112113621242780e-02 -3.5994802927590844e-02 2.4159225091806079e-0