<?xml version="1.0"?>
<VTKFile type="UnstructuredGrid"  version="0.1"  >
<UnstructuredGrid>
<Piece  NumberOfPoints="688" NumberOfCells="2869">
<Points>
<DataArray  type="Float64"  NumberOfComponents="3"  format="ascii">2.265439925769417 3.800516627823904 3.192183206818947  2.334493967918213 3.84081848175631 3.087843399017487  2.231700760016726 3.876668861386411 3.046485760374952  2.240632621919167 3.937711343197886 3.072232754397564  2.149726826202174 3.849884387122568 3.135684564359981  2.110866497666702 3.908468831025487 2.996496724821364  2.115942447903105 3.970466896821391 3.020048585339632  2.156819666606823 3.909988674231476 3.164148621356055  2.24953613555288 3.998611234001787 3.097881406699028  2.163931981021316 3.969955414945845 3.19249724738718  2.121063089350546 4.03230960318229 3.043501261469542  2.258417601704703 4.059385862596503 3.123466319257663  2.17105150419143 4.029827993042979 3.220784537799856  2.126189983154883 4.094021590214163 3.066885016131175  2.267278760040496 4.120046571200481 3.149016937416873  2.178160257848077 4.089601533602452 3.249029173878012  2.131306130730075 4.155624186480527 3.090227677289403  2.276119306532248 4.18059302670892 3.174549402165395  2.185241992308004 4.14926910620496 3.277256188912335  2.136392922412892 4.217109097973237 3.113549507376561  2.284957888654967 4.241015354049075 3.200062129245633  2.192277178831897 4.208808630534875 3.305483037700055  2.141426230049412 4.27845154645339 3.136850820876206  1.987468767806829 3.939361863931348 2.94047746729852  2.03000960766754 3.873621139314178 3.096191694873636  2.033733895944988 3.934703850481522 3.122042966661602  1.990431205481781 4.001859598579787 2.961872504872961  2.037557743138968 3.995658652198269 3.147779008590848  1.993460865503365 4.064245565894355 2.983180305439555  2.041419540991455 4.056503645562186 3.173439592758339  1.996524383756653 4.126526289519311 3.004429610427925  2.045281258258851 4.117253553184647 3.199059101590754  1.999585534795445 4.188704093258796 3.025643884623565  2.049106753230587 4.177910813176296 3.224666617900446  2.002608917236097 4.250774434309328 3.04684583697423  2.052846248166896 4.238463518978497 3.250294273586858  2.005566633045115 4.312719473282402 3.068053120853627  2.275987935344901 3.858449568705449 3.22378332603352  2.286515746025991 3.916291551696514 3.255275274258881  2.297017974733093 3.974031299896366 3.286684286047041  2.307506890642495 4.031672255863248 3.318050001774433  2.317985995805725 4.089206776278784 3.349393490057691  2.328457779762686 4.146623354071941 3.380723362999625  2.222211712296038 3.369615712480459 3.639264590669008  2.340535144198933 3.27100012863874 3.680662824454878  2.328988907401669 3.403561966147255 3.594808296851073  2.23166849731697 3.405433066515625 3.692816510129317  2.351592617012579 3.304239044959843 3.734603492942276  2.341324535387296 3.440972645813948 3.646300952503951  2.362551854968642 3.337436631121783 3.788489442201223  2.24111771135286 3.441203722897182 3.74628599883075  2.203503672866587 3.483259757355144 3.562750166108633  2.302136200768842 3.523979712564128 3.505419528509622  2.213653359478903 3.522937223407882 3.614104753361102  2.315163422297677 3.565349113259889 3.554480748954455  2.223796873837097 3.562570192976638 3.665375131509854  2.353562362623849 3.478368715601196 3.697718481334973  2.328115856182515 3.606691042212128 3.603458240916227  2.233946946162221 3.602160584480689 3.716590225184627  2.341048259624978 3.647986321361515 3.652391456529446  1.919987943948726 3.90262064029318 3.042671593526039  1.922273538220464 3.963769746351899 3.067426324798315  1.924662552385997 4.024829409686822 3.092073379954246  1.927106709342586 4.085802149897925 3.116655317069005  1.929556740068439 4.146695638998404 3.141200834335533  1.93196981427269 4.207508150319939 3.165734408249731  1.934288534222665 4.268221996329353 3.190296816702141  2.22728587849522 3.255958652048142 3.711532082005445  2.235494266186977 3.287199940109062 3.767779566180687  2.24369698083111 3.318379247376027 3.823951650659758  2.174288608528001 3.596681851248795 3.476735485852707  2.184154151274132 3.640341488673492 3.525805171832778  2.194022751846636 3.683976901699147 3.574772488680977  2.203898925040715 3.727571705221505 3.623672839091016  2.213775198961866 3.771121005238905 3.672532128917779  2.244102645346765 3.641709329977679 3.767766091958486  2.065834704490028 3.554819310935251 3.527198664340486  2.071840124502569 3.597152588170707 3.577864005608729  2.077953346974447 3.639457789926283 3.62841425564835  2.084115623939183 3.6817440127228 3.678906775679867  2.090283897071595 3.724002815021098 3.729366492375416  2.22364432319891 3.81461595843589 3.721356140495191  2.254255799145613 3.68120883987126 3.818909880351252  2.096422032367089 3.766222409918365 3.779795904346964  2.233503771434087 3.858046241733065 3.770141389046397  2.264407229434694 3.720642733959496 3.870022011052976  2.102471495760669 3.808364762728694 3.830194099266409  1.824955829824101 3.830181562124401 3.211192792508633  1.956781173048354 3.797516577484055 3.270007886411588  1.938524922536266 3.850848374990288 3.159071637676128  1.94121267423333 3.911205108706687 3.186476404696213  1.959724676086324 3.854235061081602 3.305365864687321  1.825281111501761 3.889048915151329 3.241890618710682  1.944025975159396 3.971472753765307 3.213761163570661  1.962807573300166 3.910908715034192 3.340612410987877  1.825791424800911 3.947899054159854 3.272488797665982  1.946901547724229 4.031672260349946 3.240977679805786  1.96595184489307 3.967533965016658 3.37579533563432  1.826389006429548 4.006727159599778 3.303031730200863  1.949785570879264 4.091802958994069 3.268157936335981  1.969097359866758 4.024105160651991 3.410947494788418  1.826994608574317 4.065521970206164 3.333553837106236  1.952626221765797 4.15185451620498 3.295333696606592  1.972192017537931 4.080608638234631 3.446091509498141  1.827535233222717 4.124262617273016 3.364082484475627  1.955357576583214 4.211807518111059 3.32254233905988  1.975170196237928 4.137018164774666 3.481260559246141  1.827920606698323 4.182914603024715 3.394648498462958  2.109517726928554 2.988059615791209 3.833545905257834  2.212344002334348 3.025042865377539 3.813355605352029  2.116446785625206 3.117600602009811 3.787624887320459  2.120143327127089 3.14178144637486 3.847506179827318  2.216785505048993 3.047475414526391 3.873245896280867  2.111310280271669 3.007337205606425 3.894845766395142  2.123948255501532 3.165877818548972 3.907324652470745  2.221278230201683 3.069789975759624 3.933053865761249  1.730313800970617 3.577257546416681 3.521301768304219  1.848665620799074 3.49864887017674 3.581523842113609  1.846577119813883 3.598324770844763 3.505137661965181  1.847307722325901 3.642508888137616 3.554695334945901  1.84990800623016 3.538492802207772 3.634045445534409  1.730139884279047 3.620433365047416 3.571611224497619  1.730245695843181 3.663752561712205 3.621893546518023  1.851385169847942 3.578407018520207 3.686544906664007  1.848280171283655 3.68676069671199 3.604202333255032  1.852981734534857 3.618368908293454 3.739049399858172  1.730475526077434 3.707162159911393 3.672220768945737  1.849357578088769 3.731050319369474 3.653698712976801  1.730706251315674 3.750598510923122 3.722605546096643  1.85459858561421 3.658352232812232 3.791580071309963  1.850445918617133 3.775350251229441 3.703206101193925  1.730847311403695 3.794028807072609 3.773055300376176  1.856153041790059 3.698333544703031 3.844134472555175  1.851466043448932 3.819635270364288 3.752738698714757  1.730797016692361 3.837410377311098 3.823590288461462  1.857519583441996 3.738257502979336 3.896736572255605  1.852299595778156 3.863857774428047 3.802313935349102  1.248277113236035 3.86178951459642 3.119985445114589  1.35859591835641 3.810241297726341 3.227504378803362  1.368469242644364 3.873252608184924 3.103394201802525  1.366963076099991 3.933807294481928 3.129637269893069  1.35718533955191 3.867902468861187 3.260688532355684  1.247151253749164 3.922576460521371 3.148036806475126  1.356060085178281 3.925793516854323 3.293704609235938  1.246266399418996 3.983567228525668 3.175845004385399  1.365696319096853 3.994538315655345 3.15569731879864  1.355015683693276 3.983820861037792 3.326736500596369  1.24545563131641 4.044680275340624 3.203610184926541  1.364491830306842 4.055360483330857 3.181749242698185  1.353940648027667 4.04191964166705 3.359875648759298  1.244618224968093 4.105845365576585 3.231470682367763  1.363272920142736 4.11623194914598 3.207868609859281  1.352785900815581 4.100070776756887 3.393158914807764  1.24374222925132 4.167043459532734 3.259479970323971  1.361996432109255 4.177138585144013 3.234101380142903  1.351496247508665 4.158271037125498 3.426630612947131  1.24281650786888 4.228281508855781 3.287708938030203  1.360606655112033 4.238090934831253 3.260507574968944  1.848563585490499 3.770402670384241 3.313108009309015  1.849813590426413 3.825038039847341 3.351317376245504  1.851248124974969 3.879685451860403 3.389423816739626  1.852769789706977 3.934329268802125 3.42748217574553  1.854301070470313 3.988954762304386 3.465524879699996  1.855775509831064 4.043545711029312 3.503575848333881  1.857107799600246 4.098071028702005 3.541667816254352  1.73956513105337 3.478435705641137 3.598967376393959  1.73875874764189 3.516709318466829 3.652733930906928  1.738274526962517 3.555139878861668 3.706511735650509  1.737913924214882 3.593652563860342 3.760361363284675  1.737545842482482 3.632192681711678 3.814291978591361  1.737080589665178 3.670732555445833 3.868290255193909  1.73639071881489 3.709216625674038 3.922375091679295  1.774872947746054 3.144685029007047 3.778607681026687  1.888184400271226 3.178524781615165 3.764896590273506  1.759113912271621 3.265615395100228 3.720292231027639  1.757439599294991 3.294090736949471 3.778833312538438  1.887703274120382 3.204302030327772 3.824553953231183  1.77265562546424 3.168350563959694 3.839085195163175  1.756104686641907 3.322688228418791 3.837
[...]
<PointData  Vectors="f_24"> 
<DataArray  type="Float64"  Name="f_24"  NumberOfComponents="3" format="ascii">2.6800534951291970e-02 1.1711508210625722e-01 4.9197306867179366e-02  2.6464319951764220e-02 1.2291977826976470e-01 5.0450042793842201e-02  2.6509055839638848e-02 1.2148777452835290e-01 4.8449554582410938e-02  2.4483182376747775e-02 1.2069630558863087e-01 4.9479321275010778e-02  2.6824718845029877e-02 1.1663750167669304e-01 4.7260355172983312e-02  2.6835806283639949e-02 1.2008869467257292e-01 4.6240559557363260e-02  2.5161428814224559e-02 1.1938372152707075e-01 4.7104649880252702e-02  2.4850394436384284e-02 1.1533523875684780e-01 4.8687015839270209e-02  2.2493711081873542e-02 1.1983976580252696e-01 5.0227832391433025e-02  2.2927318335381055e-02 1.1409703601655517e-01 4.9832823595195141e-02  2.3478042764697928e-02 1.1857284088842242e-01 4.7670766959477667e-02  2.0520992116712197e-02 1.1889962373400495e-01 5.0822134223546568e-02  2.1031740393519814e-02 1.1283486956739706e-01 5.0840251100368231e-02  2.1803903329505100e-02 1.1763729441101982e-01 4.8081830672065583e-02  1.8546735450882926e-02 1.1784723747780868e-01 5.1375322968362301e-02  1.9144799256023450e-02 1.1150116812735372e-01 5.1831854510911206e-02  2.0138398379797837e-02 1.1656986835624240e-01 4.8449870476454077e-02  1.6552615784805207e-02 1.1666065304313653e-01 5.1978272754100538e-02  1.7249339417545004e-02 1.1006172985750287e-01 5.2909138861029006e-02  1.8487898171866825e-02 1.1534232841121669e-01 4.8867736623039830e-02  1.4528714379416403e-02 1.1531990449074869e-01 5.2709203536229550e-02  1.5335109931799332e-02 1.0850574600357113e-01 5.4184118382932862e-02  1.6860011461571543e-02 1.1390020471456458e-01 4.9401402886195586e-02  2.7330474042046270e-02 1.1896793094233513e-01 4.4269417683604831e-02  2.7340782370555532e-02 1.1563798757825100e-01 4.5247038560633626e-02  2.5683124938610715e-02 1.1444694735264746e-01 4.6616199132815520e-02  2.5945882958842582e-02 1.1841987158211585e-01 4.4895356411665276e-02  2.4038278167453991e-02 1.1326674824160314e-01 4.7669996683661946e-02  2.4537600316053714e-02 1.1771526003157984e-01 4.5236972370927150e-02  2.2410021672804165e-02 1.1205681050473014e-01 4.8567354491128055e-02  2.3126161355622593e-02 1.1684815668805865e-01 4.5424734311799463e-02  2.0796127194220464e-02 1.1076647807367210e-01 4.9439927010463292e-02  2.1729549854274381e-02 1.1580732438613775e-01 4.5562507405925913e-02  1.9193515874224364e-02 1.0934944925584789e-01 5.0398708521615682e-02  2.0364137988551446e-02 1.1457739145097330e-01 4.5738213951139479e-02  1.7597945399158158e-02 1.0774196577566597e-01 5.1548461153925883e-02  1.9047244004306390e-02 1.1317721556239708e-01 4.6033074726930454e-02  2.4487361873613039e-02 1.1568339257683628e-01 5.0777445942426586e-02  2.2275799121842035e-02 1.1433171122587110e-01 5.2090435724509998e-02  2.0114961537206370e-02 1.1298761135182747e-01 5.3287543595730895e-02  1.7958869352089402e-02 1.1159928611924401e-01 5.4467117621315959e-02  1.5774659599779670e-02 1.1013189883107211e-01 5.5721507169039709e-02  1.3533407635510092e-02 1.0855816884766174e-01 5.7136691620216090e-02  2.8794265538481204e-02 8.5515775432459723e-02 3.7582170638770597e-02  2.8606156051834666e-02 8.3815232830529690e-02 3.5046186804537256e-02  2.8538535423890728e-02 9.1903077466008551e-02 4.0853999089450380e-02  2.6991974858967375e-02 8.1988691506369171e-02 3.8666435818566353e-02  2.6887417139974137e-02 7.9981163387860460e-02 3.6188097491659243e-02  2.6468788628485635e-02 8.8522488891807471e-02 4.2301812277273615e-02  2.5338425608849954e-02 7.6268784778869725e-02 3.7335130453075391e-02  2.5343995758480602e-02 7.8585377984611335e-02 3.9776333863858530e-02  2.8474099166167537e-02 9.1794077503629196e-02 4.1569335335991574e-02  2.8250510511378637e-02 9.8708092592855512e-02 4.4827158611172743e-02  2.6451593056306146e-02 8.8636337346414337e-02 4.2810081840831703e-02  2.5953007683157205e-02 9.5793437625636163e-02 4.6360949479941925e-02  2.4587967390145526e-02 8.5543279904047892e-02 4.4102375942806353e-02  2.4575964655936398e-02 8.5198956016310751e-02 4.3722974255844635e-02  2.3838437550811869e-02 9.2901111820884494e-02 4.7890181380587572e-02  2.2801068442187662e-02 8.2500917614494920e-02 4.5440911467905833e-02  2.1814866779269925e-02 9.0031858493563044e-02 4.9423728393215655e-02  2.7843446694763917e-02 1.1538544617840057e-01 4.3664212074880041e-02  2.6441125551076274e-02 1.1438532726951545e-01 4.4875519372606004e-02  2.5022691070355516e-02 1.1333063726895497e-01 4.5794310542358815e-02  2.3612194547046911e-02 1.1218723268849902e-01 4.6553990981376067e-02  2.2218177356689968e-02 1.1092462005142782e-01 4.7284158403003873e-02  2.0849363215216500e-02 1.0951044912690476e-01 4.8089176281513629e-02  1.9507218299894508e-02 1.0790752690778482e-01 4.9040155080992812e-02  2.8843556995412578e-02 7.8461133612363607e-02 3.2695273243962181e-02  2.7352129362902856e-02 7.4633861960804251e-02 3.3403815419057507e-02  2.6014390085983729e-02 7.0959515948896171e-02 3.4201773034358875e-02  2.7912115008742189e-02 9.7792829471287687e-02 4.4476999948194658e-02  2.5781449405990680e-02 9.4934482381153734e-02 4.5773981579346958e-02  2.3799205965794532e-02 9.2128518584374819e-02 4.7170946290391917e-02  2.1885163984031078e-02 8.9374978354610404e-02 4.8620329570706035e-02  1.9982786718578643e-02 8.6673759244816725e-02 5.0110013926702515e-02  2.1028028386705786e-02 7.9504854859227259e-02 4.6824894543295852e-02  2.8425272304034896e-02 9.1682224212388808e-02 4.1402887848009357e-02  2.6601517590391453e-02 8.8608228213646237e-02 4.2498143093933440e-02  2.4879958424194576e-02 8.5633215523198497e-02 4.3705155862455485e-02  2.3214787222276007e-02 8.2739153953513320e-02 4.4992575860840892e-02  2.1563858313871250e-02 7.9909951386493372e-02 4.6351167817520862e-02  1.8047533512336140e-02 8.4035289334233571e-02 5.1635122875997634e-02  1.9216966583184784e-02 7.6556021677188127e-02 4.8252100853648942e-02  1.9896307726225082e-02 7.7136552273996670e-02 4.7777700171885776e-02  1.6046223158024578e-02 8.1482222663509171e-02 5.3180679173710485e-02  1.7324936573350457e-02 7.3660272238974298e-02 4.9713878852654693e-02  1.8187877172901983e-02 7.4405952957695434e-02 4.9258766040303867e-02  2.8461338350381640e-02 1.0705367150583951e-01 4.2348656676110617e-02  2.7676500602056484e-02 1.0630294375507574e-01 4.4107052497272009e-02  2.7804807446484378e-02 1.1144011896083832e-01 4.3897162982892250e-02  2.6249724094728616e-02 1.0993829938524297e-01 4.5532140141715645e-02  2.5986549945980621e-02 1.0416879305274354e-01 4.5721033758191032e-02  2.7038041763725720e-02 1.0520134333484965e-01 4.4044448395163839e-02  2.4706446932950855e-02 1.0854470606925942e-01 4.6828183133062806e-02  2.4329832969618059e-02 1.0224193635453054e-01 4.7187416508359954e-02  2.5618854010577331e-02 1.0351485758745084e-01 4.5470776176007810e-02  2.3175917092774622e-02 1.0716377254510803e-01 4.7983199245619210e-02  2.2694896532564100e-02 1.0037327872128074e-01 4.8603094302473553e-02  2.4213721352650756e-02 1.0187188870039753e-01 4.6797125501662165e-02  2.1660618300189165e-02 1.0573281057462269e-01 4.9131434239971371e-02  2.1073284021250756e-02 9.8499317896357422e-02 5.0052348989898708e-02  2.2823485374650454e-02 1.0020023027365647e-01 4.8142428113823986e-02  2.0159794765720614e-02 1.0420152218056487e-01 5.0391927962304087e-02  1.9458138089543494e-02 9.6599155592142424e-02 5.1614866358197301e-02  2.1448624551997392e-02 9.8451823057990412e-02 4.9608247678579721e-02  1.8668825763535932e-02 1.0251099804595150e-01 5.1881878174102072e-02  1.7841923153215273e-02 9.4719538154095326e-02 5.3394884525930233e-02  2.0093623054232145e-02 9.6602900156902941e-02 5.1290162616086557e-02  2.9224713774425464e-02 6.1072121263194987e-02 1.9539940601874171e-02  2.8803505807016145e-02 6.5461647138084764e-02 2.1685203332562922e-02  2.9252649993705297e-02 6.7685331055214445e-02 2.5365590597369092e-02  2.8396844747999039e-02 6.3925374138036534e-02 2.5290633753628569e-02  2.8090172157057624e-02 6.1540181981586457e-02 2.1497776712066721e-02  2.8761017942964741e-02 5.7456929855887864e-02 1.9020536714386419e-02  2.7602531237545438e-02 6.0287276934217503e-02 2.5395250011073223e-02  2.7447442435225011e-02 5.7782357834650661e-02 2.1476573476640642e-02  2.9785923244622866e-02 8.6051557046496543e-02 3.7318115641988711e-02  2.9523462875676854e-02 8.3331531751980339e-02 3.6737371214704620e-02  2.9058594611808122e-02 8.9196193201280208e-02 3.9255927849581783e-02  2.7639892821251049e-02 8.6174351887291528e-02 4.0231807525337462e-02  2.8215504636035317e-02 8.0186965464705343e-02 3.7497956775652992e-02  2.8559105790825382e-02 8.3040099280836041e-02 3.8200242936577776e-02  2.7347622403846139e-02 8.0177213986805662e-02 3.9207496089043600e-02  2.6945195196461599e-02 7.7171413409295134e-02 3.8377675082125827e-02  2.6246598836757909e-02 8.3298710780442417e-02 4.1349767024631570e-02  2.5698396865444815e-02 7.4253583789961983e-02 3.9376941845939178e-02  2.6148416190538940e-02 7.7419213590410277e-02 4.0325276448788271e-02  2.4876980328115493e-02 8.0523861731953694e-02 4.2562993514815427e-02  2.4948968161839644e-02 7.4731496785185661e-02 4.1546803462169067e-02  2.4454738661511977e-02 7.1408985592198090e-02 4.0488319284448654e-02  2.3516059763428392e-02 7.7822227339873928e-02 4.3865612893068090e-02  2.3749289519988150e-02 7.2098680528992376e-02 4.2871047790840014e-02  2.3209859278006419e-02 6.8616929144622807e-02 4.1700428567745765e-02  2.2151375044804442e-02 7.5173692783964408e-02 4.5262528133745143e-02  2.2544475356531174e-02 6.9514655519985771e-02 4.4304945614363586e-02  2.1957184990994309e-02 6.5839254060478691e-02 4.2983014094560373e-02  2.0778651420695599e-02 7.2593400489805004e-02 4.6769862513500814e-02  3.3010843561300941e-02 1.0317310810364126e-01 3.6171922219314846e-02  3.1951142710612203e-02 9.9555281146258640e-02 3.6894689365727637e-02  3.2044256372126628e-02 1.0535271297118200e-01 3.7424285016654762e-02  3.1004187028872306e-02 1.0408923442457350e-01 3.9057717832322113e-02  3.0892493515074570e-02 9.7613225949125318e-02 3.8621766504724681e-02  3.1982971055227113e-02 1.0179213407218633e-01 3.7844267143418826e-02  2.9848038177646512e-02 9.5825413651144983e-02 4.0107260941050195e-02  3.0978709828984353e-02 1.0045615826608113e-01 3.9192544844368633e-02  2.9974468278928329e-02 1.0282928304362766e-01 4.0356483336424664e-02  2.8804788622112300e-02 9.4081315552386080e-02 4.1509177057420202e-02  2.9985682563643510e-02 9.9083723395953949e-02 4.0389487118176304e-02  2.8956116261521225e-02 1.0151598980188488e-01 4.1497758349808275e-02  2.7766966220416894e-02 9.2304363873609324e-02 4.2933076749469209e-02  2.8996695834365458e-02 9.7610990872515291e-02 4.1569684088875805e-02  2.7946665598809248e-02 1.0008962763687348e-01 4.2623825400960609e-02  2.6737001312990314e-02 9.0441205188915380e-02 4.4475400293190817e-02  2.8006976469342457e-02 9.5988182343612963e-02 4.2853231760590652e-02  2.6946700156725113e-02 9.8503439191076014e-02 4.3860695051159269e-02  2.5718154815968442e-02 8.8444280191479624e-02 4.6233554441173864e-02  2.7019687796869578e-02 9.4179473839857891e-02 4.4351906652084716e-02  2.5961747937752952e-02 9.6732110858762627e-02 4.5339249588413656e-02  2.8389213156384274e-02 1.0191648505415767e-01 4.2288618673638777e-02  2.6866465216549312e-02 9.9529687428353303e-02 4.3837353476144945e-02  2.5370167431725103e-02 9.7355030807227405e-02 4.5312592003929633e-02  2.3888730468360989e-02 9.5270462519487786e-02 4.6770763639123199e-02  2.2418660345211415e-02 9.3210457407868610e-02 4.8276455001845416e-02  2.0957447873767420e-02 9.1149453541686076e-02 4.9888418313868033e-02  1.9503519227316492e-02 8.9097848889401310e-02 5.1666531172650978e-02  3.0101648712639699e-02 8.0128887313323655e-02 3.4954916331051696e-02  2.9003279812522462e-02 7.7002524410966736e-02 3.5539172036840178e-02  2.7916380702799073e-02 7.4006582683468200e-02 3.6277636173434276e-02  2.6834740267502787e-02 7.1095764848922299e-02 3.7144110707974631e-02  2.5756783932573090e-02 6.8251503201160899e-02 3.8123458935157797e-02  2.4679633846775843e-02 6.5460418676442880e-02 3.9207075591985413e-02  2.3604485766309073e-02 6.2707421782729506e-02 4.0384640372825381e-02  3.0835713988569283e-02 6.3437259259227122e-02 2.4598703291137954e-02  3.0224513823049880e-02 6.6689183867522331e-02 2.6442415365917751e-02  3.0705038997231059e-02 6.9334293559496440e-02 2.8730526073543365e-02  2.9979568483613977e-02 6.6123220461357740e-02 2.8777515072273496e-02  2.9531580775899874e-02 6.3300982594943656e-02 2.6337110898124249e-02  3.0346875575839698e-02 6.0237018761513564e-02 2.4318586508952918e-02  2.9245425129785858e-02 6.3001515520531834e-02 2.8946678914875408e-02  2.8841555357775044e-02 6.0037764403403623e-02 2.6387592694612938e-02  2.9832751704171438e-02 5.7142047292021804e-02 2.4216809249401217e-02  2.8507781383739612e-02 5.9950430561641677e-02 2.9259568725463536e-02  2.8158922033689408e-02 5.6847806873205432e-02 2.6588342431448159e-02  3.1020203957272608e-02 1.0241292935676188e-01 3.8292439095528659e-02  2.9930191139311522e-02 1.0059372490217783e-01 3.9991223039417753e-02  2.8842410377208926e-02 9.8898044202743562e-02 4.1453551055839345e-02  2.7756987038306018e-02 9.7220329019422264e-02 4.2815877912870788e-02  2.6680959023096230e-02 9.5496067994508327e-02 4.4194869751983237e-02  2.5621047875322569e-02 9.3681446510420957e-02 4.5688587924277976e-02  2.4586676320172834e-02 9.1758657568322050e-02 4.7379816641024544e-02  3.3015041366375703e-02 9.8516154011550686e-02 3.5525233533494453e-02  3.2004913709531499e-02 9.6656408333711502e-02 3.7280425310407032e-02  3.1002970977116066e-02 9.4948369730164697e-02 3.8771253709241928e-02  3.0006791149528315e-02 9.3288068872026175e-02 4.0156572530308104e-02  2.9013947977096624e-02 9.1589458276229843e-02 4.1552787495109905e-02  2.8022350495788634e-02 8.9791547824130749e-02 4.3064599544023030e-02  2.7033668791893783e-02 8.7830359999201676e-02 4.4788276318608232e-02  2.9075915310851148e-02 8.0204803291053894e-02 3.4952235330222618e-02  2.7577944158216173e-02 7.6651761973719978e-02 3.5644278275384918e-02  2.6190158488154234e-02 7.3223431691535668e-02 3.6439580868127278e-02  2.4741177666749801e-02 6.7361680066795965e-02 3.5073104913744109e-02  2.4859634676898168e-02 6.9875643561941550e-02 3.7328731345701950e-02  2.3772089320378487e-02 7.5252522190103074e-02 4.0936761130791102e-02  2.3482475484352755e-02 6.3801308951396074e-02 3.6019692792943828e-02  2.3546955663592491e-02 6.6581923225314948e-02 3.8307604665503599e-02  2.2214559641075944e-02 7.1961066995239895e-02 4.2156912862036072e-02  2.2193860024938755e-02 6.0257846174127105e-02 3.7048912779178204e-02  2.2219975381073197e-02 6.3322083363750045e-02 3.9372687211876298e-02  2.0621322916789062e-02 6.8690605899637242e-02 4.3442708473888397e-02  2.0843166100518031e-02 5.6724742170495258e-02 3.8194965916105328e-02  2.0856784744017663e-02 6.0080329948015536e-02 4.0508344383590085e-02  1.8952858840911729e-02 6.5413740658046990e-02 4.4785774904360906e-02  2.7851372635564638e-02 9.8713182977374456e-02 4.3946964184850314e-02  2.5924856825515978e-02 9.5912228275963865e-02 4.5253337918633889e-02  2.4089391616732056e-02 9.3271269406276808e-02 4.6641065174015346e-02  2.2304499670424135e-02 9.0720221458073153e-02 4.8076464532632458e-02  2.0534876191337651e-02 8.8225410003117857e-02 4.9567597841708423e-02  1.8754453132701507e-02 8.5777047076016910e-02 5.1133767787393841e-02  1.6954691736838709e-02 8.3386179504490024e-02 5.2804378648274503e-02  3.2602356549621757e-02 9.3661181509214708e-02 3.5352846110648616e-02  3.1775062578451398e-02 9.5095204591209917e-02 3.6492673110441604e-02  3.0721054176644270e-02 9.2755952388640803e-02 3.8064774085679362e-02  3.1605185255557819e-02 9.1313322269827996e-02 3.6925799429050409e-02  2.9668847429889431e-02 9.0616706433744823e-02 3.9532203282511509e-02  3.0606267073536992e-02 8.9202159286042706e-02 3.8377453924327926e-02  2.8613329741200642e-02 8.8567014642509212e-02 4.0971578182731859e-02  2.9605933271526365e-02 8.7180326915667100e-02 3.9800873407797643e-02  2.7560000150934755e-02 8.6530845833020509e-02 4.2460767870010505e-02  2.8608638367185107e-02 8.5163571630766668e-02 4.1274598545881891e-02  2.6516852586041799e-02 8.4460331149476264e-02 4.4068352931068304e-02  2.7618424598595825e-02 8.3100975617620046e-02 4.2872665592750929e-02  2.5490476822681143e-02 8.2332053932418922e-02 4.5854245238000253e-02  2.6632887271855747e-02 8.0968921138658556e-02 4.4679451794430253e-02  2.8411358884583626e-02 1.1623500635333382e-01 4.2376839838080271e-02  2.7196488908286586e-02 1.1559041632982238e-01 4.3253410569160738e-02  2.5971591345730051e-02 1.1480316110027677e-01 4.3808121187259075e-02  2.4754032154427067e-02 1.1386060894293168e-01 4.4195877566444240e-02  2.3558798351394288e-02 1.1274155277959470e-01 4.4537280152843590e-02  2.2400137458920926e-02 1.1141769307159052e-01 4.4939113876123586e-02  2.1303467799246672e-02 1.0986835396699113e-01 4.5505941168823817e-02  2.9781601470501802e-02 6.3939981603547705e-02 2.3418188246020061e-02  2.9192787539274106e-02 6.0411457042490853e-02 2.3088068419563713e-02  2.9655717751351285e-02 7.0204061534849649e-02 2.8503757425362652e-02  2.8721942032174749e-02 6.6637275783209812e-02 2.8594081250392006e-02  2.7824108121268506e-02 6.3195208086134297e-02 2.8847757871798756e-02  2.3152974590119987e-02 1.1619167641240950e-01 4.2533567818024316e-02  2.2019169712669772e-02 1.1503993107710152e-01 4.2291736926625870e-02  3.1542246672375866e-02 6.6248184302636834e-02 2.6860194789678268e-02  3.1188519534745524e-02 7.1882098427880486e-02 3.0397040164116675e-02  3.0440371944114544e-02 6.8809595941034557e-02 3.0544475957576828e-02  3.0971327196869434e-02 6.3220117163371878e-02 2.6785969473113881e-02  2.9670270649618382e-02 6.5811885889856744e-02 3.0858338284525100e-02  3.0387145003890993e-02 6.0283065389740390e-02 2.6842018630829485e-02  2.8892785043475117e-02 6.2879214383432760e-02 3.1307638840585343e-02  2.9790678333904114e-02 5.7404931681800997e-02 2.7038114994507895e-02  2.8114420507639220e-02 5.9999010557339499e-02 3.1876086130666482e-02  2.7773184149636664e-02 5.6952506719947796e-02 2.9704871151214368e-02  2.9192281905015022e-02 5.4566054901402240e-02 2.7362632106134883e-02  2.7340282579398974e-02 5.7161830039442960e-02 3.2551140480352202e-02  3.0046441814783827e-02 7.2263411151677628e-02 3.0561240202303015e-02  3.0383891447137431e-02 7.4634122311797155e-02 3.2212777296859715e-02  2.9466711311432758e-02 7.1429147872515891e-02 3.2447351430480741e-02  2.9120481267308523e-02 6.8903176785290343e-02 3.0711828633174076e-02  2.8544172191700187e-02 6.8303183893622665e-02 3.2878711890667260e-02  2.8206900683481920e-02 6.5615799247639398e-02 3.1017277800510664e-02  2.7627467567381391e-02 6.5247721605678863e-02 3.3446573173191746e-02  2.7308151810158717e-02 6.2405009510868463e-02 3.1462528417797467e-02  2.6715926484370475e-02 6.2253237051530637e-02 3.4128256992512034e-02  2.6419587080836707e-02 5.9255322207678054e-02 3.2032345197364635e-02  2.5808318756132927e-02 5.9315056498946347e-02 3.4911571463031491e-02  2.5535267653020020e-02 5.6155105718783432e-02 3.2710947859215633e-02  2.8723133310990825e-02 8.6459719466578225e-02 3.8913490181840468e-02  2.6993056672581839e-02 8.3149731814270503e-02 3.9862816446774342e-02  2.5383115241185274e-02 7.9956020055163751e-02 4.0915798617513197e-02  2.3832281284887846e-02 7.6834306468976654e-02 4.2050051688280479e-02  2.2296673527983580e-02 7.3768420616412742e-02 4.3258039893669123e-02  2.0740203974775037e-02 7.0747623924794265e-02 4.4536582904678039e-02  1.9130754978204562e-02 6.7765997081058169e-02 4.5891397114318486e-02  3.1116010783381443e-02 1.0775276897286630e-01 3.8623036365227993e-02  3.0049228491418577e-02 1.0661876172349216e-01 4.0186366754951623e-02  2.8991138487387585e-02 1.0546113879846680e-01 4.1408737043893251e-02  2.7943631588874664e-02 1.0423008220331705e-01 4.2463388489831354e-02  2.6909736848444731e-02 1.0287538541082632e-01 4.3496078486978715e-02  2.5893967184460853e-02 1.0134948333097174e-01 4.4636090952790718e-02  2.4904761450