<?xml version="1.0"?>
<VTKFile type="UnstructuredGrid"  version="0.1"  >
<UnstructuredGrid>
<Piece  NumberOfPoints="912" NumberOfCells="3913">
<Points>
<DataArray  type="Float64"  NumberOfComponents="3"  format="ascii">9.265938074100212 1.918780662675375 3.41942126143037  9.159059469943569 1.866053742957618 3.347637663674076  9.273718314861782 1.875455437083497 3.335051108872095  9.280872045526566 1.8289259974973 3.361141207757924  9.165411207930026 1.819217561615923 3.373767370248894  9.273493886877311 1.871307967700135 3.446187086311895  9.288022585358549 1.782391360982063 3.387207493745593  9.171758495480761 1.772373226791066 3.399875591281844  9.524486172983208 1.894423738320423 3.072529535859104  9.425936205174128 1.908122245238897 3.127490306487424  9.454040413016964 1.845006067356836 3.006830537930293  9.462117805287527 1.799990561798499 3.031964015958329  9.433697916343521 1.862879790317049 3.152939067086798  9.532767908874277 1.849343625215287 3.097581882597165  9.441535273791397 1.817632619097159 3.178341634670738  9.541148005670079 1.804271914921158 3.122582606493121  9.47028009895376 1.75497564625529 3.057034723062074  9.549569224306838 1.759214274426862 3.147542702486218  9.44940726917504 1.772393200092095 3.203707192620144  9.47847653700012 1.709969501330268 3.082063338136365  9.557986983863577 1.714172279227788 3.172472275655399  9.45727723812381 1.727158900236281 3.229046545381786  9.486666930538741 1.664978140102654 3.107063166583217  9.566356117211036 1.669141222301906 3.197384520402304  9.465106826151798 1.681925791756036 3.254370310073452  9.494813029272098 1.619999946386539 3.132052485767023  9.574610962654242 1.624105167607541 3.222300768635864  9.472854383015324 1.636682019906344 3.279698687553435  9.502865496133451 1.575028018533279 3.157065589901537  9.553213561971107 1.692242699470965 2.639569533554867  9.424701910508393 1.662423639804791 2.589161249319794  9.528409903984603 1.670580408474905 2.539473647540267  9.536711966467877 1.617831103271958 2.547952938444555  9.432785009215388 1.610125665712554 2.600180355191136  9.561615566077061 1.641220067113647 2.65447893951913  9.570035501171018 1.590233652626806 2.66929588324331  9.440870852430967 1.557862730038447 2.61106941567902  9.545017570771412 1.565134472277366 2.55632516033529  9.578444181143873 1.53930262850067 2.684055724145317  9.448951915157117 1.505644631339751 2.621889858043449  9.553312080189311 1.512481249081644 2.564633768560185  9.457019080937155 1.453474743461292 2.632687171475329  9.586837609042124 1.488437148764276 2.698785212298447  9.561594050334447 1.459882916295616 2.572916916339095  9.595209206964054 1.437646002129307 2.713515477497376  9.465056302883493 1.401386510885865 2.643502585752632  9.569866883757101 1.407344929642711 2.581212290080458  9.60353357279309 1.386910975642145 2.728275697480514  9.473062653760827 1.349380402070583 2.654389309961248  9.578090951448065 1.354916243976923 2.589567313902493  8.785000649550204 1.508458591726102 2.218545167109312  8.829261961723663 1.519893364385529 2.351681881466638  8.701524779605267 1.488457829763067 2.345573758274285  8.715349401346078 1.431900520465533 2.347482997708925  9.233938421346204 1.79753018531484 2.987185471033776  9.111794812874162 1.800545649166652 3.025305589106762  9.175653729274483 1.745342640209099 2.911559987685989  9.182778768388836 1.698988943820645 2.935699832281367  9.118352899274024 1.755372836699925 3.051124515579041  9.241150984343594 1.752384815737196 3.012640818449581  9.189921057341014 1.652617583415595 2.959778947801913  9.124918618835913 1.71018032357636 3.076905948707676  9.248397406111616 1.70722012639642 3.038043293825028  9.197069441957751 1.606249229507294 2.98381980090106  9.131488010110468 1.664983138223322 3.102662278232927  9.255658201798616 1.662051289689505 3.063411749588939  9.204209094961694 1.559892028912796 3.007840611697807  9.138051604651805 1.619786723917534 3.128400900774147  9.262913762384699 1.616885575859003 3.088760116736033  9.211324768689726 1.513553486854173 3.031863055760142  9.144599034984356 1.574592527523099 3.154133698832636  9.270144081066581 1.571725968212041 3.11410670587014  9.218409662598631 1.467241118494792 3.055919658157674  9.151123974899932 1.529403629372927 3.179886977472352  9.2773283483534 1.526577134850723 3.139486355892784  9.409877606585853 1.693143319431934 2.705364267881262  9.41830148626337 1.643382968073219 2.723074582575824  9.426759377885492 1.593637514868357 2.740687860703411  9.435227025009036 1.543922334411281 2.758244459305654  9.443678852163966 1.494242886421793 2.775774962700814  9.452094264296669 1.444605793396784 2.793305881439113  9.460455404707185 1.395017150803877 2.810881404730827  9.315301173223533 1.862011725409944 3.078031271501674  9.322764280062762 1.816932538696325 3.103356067005297  9.330285903766857 1.771839484979805 3.128637748085295  9.337833439908536 1.726744190007989 3.153885496710627  9.345378550597824 1.681651370863371 3.179110451187882  9.352892651996189 1.636559904196288 3.204327655262742  9.360341367100661 1.591462404485242 3.229559638042024  9.531450350609168 1.728503791488539 2.735953809879736  9.540594936005231 1.680330778823749 2.756113298766748  9.549828950637805 1.632180973624405 2.776185638097265  9.559085605802967 1.58405514163403 2.796203786879412  9.56832905113186 1.535956636573396 2.81619318251358  9.577523470425488 1.487889862301967 2.836177320320437  9.586606884420551 1.439863350418983 2.856196155826101  9.709407690944154 1.902123005603988 3.02440005285621  9.592225169336851 1.859660044431384 2.985826730414292  9.699504934978968 1.855332441064002 2.942065743638327  9.707623368390083 1.810185002371635 2.966471151552831  9.600697719174043 1.814689324940672 3.010490471712902  9.717510533272618 1.857205742179049 3.049242161670457  9.715815567555602 1.765073341482306 2.990815330725347  9.609272388825071 1.769741949500768 3.035090976674607  9.725697163310304 1.812319390240226 3.074029259630966  9.724039519322716 1.719992018051312 3.01511518702274  9.617887576893594 1.724815545607013 3.059648236992586  9.733918977354479 1.76746181776472 3.098772342408028  9.732256263999231 1.674937076889004 3.03938026471122  9.626498596568622 1.679907857777652 3.08417454606258  9.742137660905197 1.722629460318233 3.12347890378809  9.74042730596223 1.629906780613282 3.063620262559307  9.635059894078843 1.635016177054113 3.108683201465833  9.750312918549753 1.677821612959735 3.148155713284262  9.748515055716656 1.584912079078024 3.08784697398292  9.643499770878918 1.59014119116891 3.133193685269172  9.758388515846658 1.633044231290631 3.172811771673822  9.053451292158375 1.732215234040939 2.92071080190189  9.060612111427776 1.685946618748096 2.945343810742381  9.06779233270996 1.639662530312767 2.969930781990021  9.074979874029337 1.593378562257735 2.994487633875786  9.082159599475677 1.547101132190012 3.019027865850384  9.089314692463189 1.500835381716854 3.043568388832449  9.096429032604737 1.454590155402958 3.068138820613463  9.616973285751035 1.926811391757401 3.099994983667287  9.625444642457371 1.881728438601003 3.125023006237132  9.634022233068773 1.83667260446819 3.149999884197557  9.642644729824832 1.791640151579214 3.17493539704942  9.6512649692463 1.746626901877976 3.199837090335987  9.6598335033314 1.701626763888976 3.224712914883857  9.668276213895815 1.656628950260787 3.249574261361489  9.938043659707755 1.695413937468635 2.376590788778683  9.987577938641103 1.722385719625658 2.494529301737767  9.868762966540569 1.708093938062496 2.494953361660618  9.876263144508554 1.655841797087195 2.506845918700002  9.993022836367262 1.670062497594853 2.507533725106371  9.942655348985683 1.640954270432488 2.382450866959082  9.883726062027138 1.603628867303043 2.51869211690696  9.998321539481406 1.617765609594029 2.520525735666978  9.947051154760715 1.586515068094505 2.388247263837176  9.891143026588438 1.551446951764944 2.530504975637237  10.00355248559587 1.565490855841283 2.533495152939288  9.951358096289303 1.532108548407614 2.394007140034475  9.898549923390467 1.499301765891874 2.542301306027841  10.00877177938712 1.513248580170085 2.546453554644015  9.955658336883801 1.47774785511537 2.399757095528017  9.905987390179849 1.447209927563315 2.55409720378756  10.01403486064783 1.461061492655311 2.559411324239057  9.960034198636817 1.423451998124484 2.405524395905887  9.91345397092762 1.395205801584429 2.565900758577749  9.964623268820157 1.369237084312045 2.411324878249173  8.792711343228348 1.519035826489619 2.461228307255782  8.806734662091706 1.464308487888947 2.469386920907647  8.84276415532578 1.464248753174139 2.354287853381695  8.821055506917544 1.409653171102029 2.477462389916659  8.856529518938723 1.408691026331007 2.356782764915007  8.729430591955243 1.375378781185662 2.349334663214615  8.8354665144586 1.355043717973736 2.485498847948096  8.870393481855743 1.353186757890479 2.359228118293865  8.743595745268561 1.318881101916643 2.351160754731516  8.849841447398017 1.300461825702283 2.493537002258924  8.884231833523902 1.297712513586374 2.361671956906095  8.757732769472925 1.262390674130226 2.352995440824552  8.864040391419898 1.245885015003872 2.501617666408571  8.897914283709735 1.24223943976896 2.364160189416463  8.771737565159244 1.205881948831158 2.354870773403977  8.877850159991912 1.191235900488612 2.509790942097785  8.911268026980755 1.186724861634997 2.366749582668999  9.455729162562173 1.646105963844305 2.464703142038327  9.464202602823393 1.592590364371161 2.471546069851397  9.472686183476823 1.539142316260526 2.478234770982697  9.481161283249062 1.485769000797393 2.484847534371221  9.489616197275218 1.432473919937024 2.49143624068977  9.498033816251059 1.379274836391083 2.498048883372434  9.506391484799247 1.326172948983275 2.504752066561282  9.336868105868648 1.940999841042107 3.212389324949369  9.344326011925144 1.895277658500508 3.238252964933476  9.351845093762471 1.849544186366745 3.264083994258761  9.359391955526275 1.803809205632118 3.2898
[...]
<PointData  Vectors="f_24"> 
<DataArray  type="Float64"  Name="f_24"  NumberOfComponents="3" format="ascii">5.2424611524472448e-04 -2.6949451861942954e-02 -3.0674996733651093e-03  8.4352175153146658e-04 -3.0289971483807215e-02 -1.1891817220935684e-03  6.2701806652111221e-04 -2.9790769293100067e-02 -1.8401129525737673e-03  1.0036150306580605e-03 -2.8979574488884108e-02 -8.2342240565481104e-04  1.2185712139653167e-03 -2.9476518810946855e-02 -1.5645656534222176e-04  9.0562202199160843e-04 -2.6040409501989947e-02 -1.9073672453414688e-03  1.3653721613039035e-03 -2.8083584842295933e-02 2.1303224749353913e-04  1.5810487473635350e-03 -2.8574549406239984e-02 8.9581988984385155e-04  -8.6187279725975774e-04 -3.4120492013298316e-02 -3.0918462738667102e-03  -5.6399385415374214e-04 -3.3828780831557201e-02 -3.0085386022197175e-03  -6.7875292076817516e-04 -3.5290216151634239e-02 -1.8384359562776079e-03  -2.7300140679594782e-04 -3.5024226070427059e-02 -1.3396461057562335e-03  -1.2290724684302259e-04 -3.3327049504926640e-02 -2.1219594104381428e-03  -4.3501772485491757e-04 -3.3710912932752149e-02 -2.3434235813071811e-03  2.7752560826218664e-04 -3.2754560390142524e-02 -1.3315467723305620e-03  -4.9897719262535152e-05 -3.3214084339264947e-02 -1.6607674825943790e-03  9.1155162430214316e-05 -3.4639334600082866e-02 -8.4846185006365120e-04  2.9556474093472574e-04 -3.2656784790958196e-02 -1.0264217632392073e-03  6.3766823363262169e-04 -3.2130942050314366e-02 -6.0518544333491137e-04  4.2229261898310148e-04 -3.4176730033987399e-02 -3.7898766145302843e-04  6.1468972236772539e-04 -3.2030945719021785e-02 -4.1821252070410700e-04  9.7486259163504754e-04 -3.1433128270261949e-02 1.0203612286240460e-04  7.2932418738576549e-04 -3.3656470230368468e-02 4.2279112714453222e-05  9.1582255698831371e-04 -3.1266162287629101e-02 1.4382209669863678e-04  1.2932391835830839e-03 -3.0582029317017929e-02 7.7803656219062236e-04  1.0175318381761243e-03 -3.3007785161373565e-02 4.0242711007067725e-04  1.2129369299267825e-03 -3.0375003356614479e-02 6.5535983406534261e-04  1.6115424594622626e-03 -2.9585560018122899e-02 1.4241815768075922e-03  1.2969054082170404e-03 -3.2264629252035652e-02 6.5398425488201537e-04  -1.9507618011320187e-03 -3.4796879597938278e-02 -2.3768787784321371e-03  -1.8043265685568034e-03 -3.4582096924526705e-02 -1.8646669452156901e-03  -2.3388101795076182e-03 -3.4075838745506723e-02 -2.7172917150932426e-03  -2.2326576769760940e-03 -3.4032986966781628e-02 -3.1533041512565472e-03  -1.6539806258482630e-03 -3.4559587752168171e-02 -2.2897687116622571e-03  -1.7697672251509187e-03 -3.4801212881784727e-02 -2.6931908669786614e-03  -1.5922352325535483e-03 -3.4738073289137500e-02 -2.8693742820782180e-03  -1.5089549239124564e-03 -3.4493313729766717e-02 -2.5731219166863352e-03  -2.1239218722171487e-03 -3.3958594691583431e-02 -3.4562385904131940e-03  -1.4217838009803006e-03 -3.4636993753119995e-02 -3.0258921238217147e-03  -1.3698881693419778e-03 -3.4404310327287295e-02 -2.8250415917393064e-03  -2.0169116393276908e-03 -3.3869261957351189e-02 -3.7237081499000495e-03  -1.2361266904518833e-03 -3.4317879061610011e-02 -3.1371390547936160e-03  -1.2609548118647266e-03 -3.4539349946500923e-02 -3.2536433588491310e-03  -1.9179475538281894e-03 -3.3781785626521725e-02 -4.0376932788041206e-03  -1.1093210459298659e-03 -3.4425823084033164e-02 -3.5730775262495353e-03  -1.1108747743974730e-03 -3.4225010581155464e-02 -3.5418385452263071e-03  -1.8230602504867765e-03 -3.3693699281669910e-02 -4.4506341771845094e-03  -9.6185147528721356e-04 -3.4323249673137456e-02 -3.9616870005304188e-03  -9.8342578788129364e-04 -3.4131536477710209e-02 -4.0055126504138731e-03  -1.7334725262028736e-03 -3.3604160111475059e-02 -4.9094057838489028e-03  -2.0608473591588326e-03 -3.0876414988986196e-02 -5.4121307571023422e-04  -1.4553460563898717e-03 -3.2585024149720095e-02 -3.9626586669603405e-06  -1.2432551971009562e-03 -3.2645599533035842e-02 5.7521606439979705e-04  -1.2071424843559905e-03 -3.2465178588586018e-02 -1.7735770177025164e-04  -8.4470115298529861e-05 -3.6525642400828090e-02 -3.9602592793131854e-05  2.4302729292011158e-04 -3.6936491606333464e-02 5.5259202881191821e-04  -1.1917901556302785e-05 -3.6981396134530456e-02 6.8829538633897775e-04  3.5305140137182646e-04 -3.6915154917332459e-02 7.6930239338533367e-04  6.5294819390906164e-04 -3.6722735915199964e-02 9.8057753750867738e-04  3.1509315490064739e-04 -3.6347779055576859e-02 2.9861858742175724e-04  6.7536800327825676e-04 -3.6712937039902624e-02 9.2929458214518004e-04  1.0204782319283825e-03 -3.6374755123716976e-02 1.4088307578391554e-03  6.7152891258471441e-04 -3.6033945083294008e-02 6.6272029657110784e-04  9.7915302889394081e-04 -3.6420696565046574e-02 1.1031204265478049e-03  1.3585031450591542e-03 -3.5934639291153703e-02 1.8209144217018805e-03  1.0006787517488813e-03 -3.5629205201317987e-02 1.0221713961581487e-03  1.2722082045326176e-03 -3.6089988174709410e-02 1.2049490753755097e-03  1.6815975457611244e-03 -3.5430144792317160e-02 2.1758604452874817e-03  1.3133506815377308e-03 -3.5168936284214199e-02 1.3220097595120902e-03  1.5531768574445911e-03 -3.5671654059846437e-02 1.2069731077663547e-03  1.9900395527682208e-03 -3.4789565120906210e-02 2.4482464976954979e-03  1.6110029363098214e-03 -3.4587772135879949e-02 1.5445436278083667e-03  1.8315091403559229e-03 -3.5210786755293315e-02 1.0767177154817657e-03  2.2942527066738268e-03 -3.4048837115976602e-02 2.5986239092738068e-03  1.9033781468697790e-03 -3.3925090861187147e-02 1.6344265117133009e-03  -1.2557454840620627e-03 -3.5477387871309350e-02 -1.1870600194390322e-03  -1.0255458656990193e-03 -3.5496553943035240e-02 -1.4738524947814976e-03  -8.0654847873554050e-04 -3.5422861576941252e-02 -1.6139170230322496e-03  -5.9649859848202283e-04 -3.5299204523711832e-02 -1.7241273122241174e-03  -3.9499329020781373e-04 -3.5168203816292619e-02 -1.9042148515311232e-03  -2.0301835999084707e-04 -3.5009210695607598e-02 -2.1768240630097840e-03  -1.3397226104283888e-05 -3.4850889411033412e-02 -2.5377894206342877e-03  -2.5935452620209898e-04 -3.5276686380885609e-02 -1.4863166613655722e-03  1.6697909576764581e-04 -3.4915687341658411e-02 -8.0469226518752014e-04  5.5465157492273743e-04 -3.4448816458441923e-02 -1.7607098938878643e-04  9.0551432691265998e-04 -3.3909898395270359e-02 4.0870059817835273e-04  1.2339049743670010e-03 -3.3300401239099719e-02 9.5666089826043361e-04  1.5447655181509831e-03 -3.2545089590546021e-02 1.4465376396602693e-03  1.8526164396490813e-03 -3.1660752553785081e-02 1.8656063361915021e-03  -1.5087814006021121e-03 -3.5412202718160972e-02 -1.7900876048342076e-03  -1.2636705300573278e-03 -3.5436068365389622e-02 -1.9797620092238126e-03  -1.0279618052148193e-03 -3.5347009376854165e-02 -2.0331856331805053e-03  -8.0105553293105774e-04 -3.5196583072602684e-02 -2.0508594214767749e-03  -5.8727254589945326e-04 -3.5031017914566566e-02 -2.1392648294237772e-03  -3.8460430997773552e-04 -3.4817486886036815e-02 -2.3095109522195938e-03  -1.9296180531526528e-04 -3.4598810276088500e-02 -2.5903836455957205e-03  -1.5087819912466751e-03 -3.3776733826417875e-02 -4.0816200483112719e-03  -1.1398277919699134e-03 -3.4805128317626582e-02 -2.7628580426546094e-03  -1.5518019145416750e-03 -3.4701967494428991e-02 -3.2703030152035906e-03  -1.1788927359407087e-03 -3.4493008671212633e-02 -2.8402564307112416e-03  -7.4592694313373436e-04 -3.4547325552186418e-02 -2.2606531245248931e-03  -1.1004151276301658e-03 -3.3416565099243879e-02 -3.3929007978439345e-03  -8.4391050384756959e-04 -3.4170101023659895e-02 -2.4034197587791679e-03  -3.9070108943621963e-04 -3.4176622003776171e-02 -1.7667651535806961e-03  -7.3142446389598515e-04 -3.2966877736607218e-02 -2.7548741239495178e-03  -5.3818867025425432e-04 -3.3772012604527245e-02 -1.9798783485440482e-03  -6.9584881213407803e-05 -3.3731443555478788e-02 -1.2937642996585629e-03  -4.0121254692125060e-04 -3.2457754838044535e-02 -2.1577469014626830e-03  -2.5469132233950110e-04 -3.3322694976933603e-02 -1.6029468437174707e-03  2.2497210125108739e-04 -3.3228531334194567e-02 -8.6372309618525740e-04  -9.7652732577500675e-05 -3.1887012841746630e-02 -1.5900507428243172e-03  1.0066121910729568e-05 -3.2765471037620467e-02 -1.2881008639262623e-03  5.0104747776709771e-04 -3.2606020587555185e-02 -4.9366995438645969e-04  1.8776561179911268e-04 -3.1190646973159989e-02 -1.0694424027209630e-03  2.6892050895151442e-04 -3.2126735370112500e-02 -1.0768320944712973e-03  7.6587832621675988e-04 -3.1886111744043891e-02 -2.1961515986348775e-04  4.7067703610903142e-04 -3.0379544716808263e-02 -6.1159590918206778e-04  2.9398716197387686e-04 -3.7521366175087882e-02 1.4872359386211480e-03  6.7180369003087760e-04 -3.7469185831751940e-02 1.5480643760104875e-03  9.9907680046688375e-04 -3.7276799902032358e-02 1.6898810787527056e-03  1.3060781842666007e-03 -3.6988350234444356e-02 1.8457872395945187e-03  1.6042204035713072e-03 -3.6657572768012694e-02 1.9278951057066468e-03  1.8912431588794679e-03 -3.6238368046073062e-02 1.9048656822319957e-03  2.1792774381929206e-03 -3.5775956582872984e-02 1.7433571609575390e-03  -1.1565868921768693e-03 -3.3103331415281947e-02 -4.2280888372270824e-03  -7.2196569903064964e-04 -3.2611376482689143e-02 -3.3515148245677382e-03  -3.3172090525027944e-04 -3.2055508102390377e-02 -2.5689660285055987e-03  1.6705681384751326e-05 -3.1453377112588186e-02 -1.8471985042845267e-03  3.3826581221290661e-04 -3.0781033460955835e-02 -1.1402973901581623e-03  6.4334222349641656e-04 -2.9969760571584209e-02 -4.6461820733160043e-04  9.4563282292381878e-04 -2.9021928300989198e-02 1.8406096315902085e-04  -4.3665550565424880e-03 -3.2599391791065045e-02 -5.8464976854761394e-03  -3.9620839071677228e-03 -3.3577184591706721e-02 -5.4213869092362499e-03  -3.5940737515627996e-03 -3.3576958297555436e-02 -4.8032881813025903e-03  -3.4950468578877885e-03 -3.3577869539619554e-02 -5.1810581148928388e-03  -3.8562212687546357e-03 -3.3589754329932664e-02 -5.7598638865151309e-03  -4.3277699166803414e-03 -3.2529624567187894e-02 -6.2562796068897043e-03  -3.3820230264262259e-03 -3.3535732784921175e-02 -5.4098059135778524e-03  -3.7339022169148831e-03 -3.3550184975585651e-02 -5.9508213378985835e-03  -4.2709712183898524e-03 -3.2457526719609157e-02 -6.5262201141262103e-03  -3.2690279220412974e-03 -3.3473960316591930e-02 -5.6053687352342358e-03  -3.6105872541652311e-03 -3.3488107079910970e-02 -6.1100738128844721e-03  -4.2117213246721857e-03 -3.2388034260126958e-02 -6.7712722155885167e-03  -3.1674182961830000e-03 -3.3416495398597701e-02 -5.8669794519085145e-03  -3.4956722159326711e-03 -3.3430135302052813e-02 -6.3387379075257972e-03  -4.1619024727236878e-03 -3.2333438022196369e-02 -7.0771083451578974e-03  -3.0750098919091568e-03 -3.3352328571801329e-02 -6.2037618297751075e-03  -3.3996454659800919e-03 -3.3360806853630257e-02 -6.6406366341772820e-03  -4.1267255572738689e-03 -3.2285896626716305e-02 -7.4562061261148503e-03  -2.9916985904417759e-03 -3.3301445249155563e-02 -6.6212176984176722e-03  -4.0986502533901480e-03 -3.2259414854970768e-02 -7.8992807687273941e-03  -8.2762984426600344e-04 -3.4040168760976118e-02 8.1560194300220941e-04  -7.1620629080448243e-04 -3.3957561581830401e-02 8.6570347853558166e-05  -1.4254180713197003e-03 -3.2422791555786888e-02 -7.0769128846552706e-04  -6.1551592416084103e-04 -3.3877920845748991e-02 -4.9832953179078181e-04  -1.4026516129044028e-03 -3.2294444659634769e-02 -1.2859646600390975e-03  -1.1788026931468956e-03 -3.2319053455562269e-02 -8.1213883867100733e-04  -5.1858120667238640e-04 -3.3801501671204930e-02 -1.0577588868238819e-03  -1.3764443127253212e-03 -3.2190769556453586e-02 -1.8410685796671090e-03  -1.1490976581910296e-03 -3.2201469752904284e-02 -1.4231434834410272e-03  -4.2025032260572284e-04 -3.3743867154013577e-02 -1.6777022594015659e-03  -1.3422679701319128e-03 -3.2110081008316506e-02 -2.4453855102824912e-03  -1.1111425958530148e-03 -3.2108201568799524e-02 -2.0768998145191237e-03  -3.0966538072344749e-04 -3.3691273963597300e-02 -2.3684168690236637e-03  -1.2938199616024052e-03 -3.2041973884747332e-02 -3.1087472375226502e-03  -1.0555709851057641e-03 -3.2029645148002175e-02 -2.7951854790846395e-03  -1.8634991661355539e-04 -3.3664107649434991e-02 -3.1144182827245758e-03  -1.2300848296338733e-03 -3.2000432968278203e-02 -3.8173054713717498e-03  -2.4923310303889995e-03 -3.3434845246948446e-02 -2.7505271331705627e-03  -2.4137043414924810e-03 -3.3363453659675843e-02 -3.2378456711281002e-03  -2.3330015494341153e-03 -3.3284140646685924e-02 -3.5850275619157832e-03  -2.2529161329839223e-03 -3.3205633145296877e-02 -3.9012004531228969e-03  -2.1755679422962430e-03 -3.3138948082412023e-02 -4.2741921841485085e-03  -2.1012028320907374e-03 -3.3071650429059303e-02 -4.7188525118182336e-03  -2.0255873372256390e-03 -3.3016298331960028e-02 -5.2238424597849742e-03  -3.5639611455028807e-04 -3.2670181841398395e-02 -3.6059905114323920e-03  9.7883866356407009e-05 -3.1994359165857203e-02 -2.4874756388393298e-03  5.0415816516688570e-04 -3.1292993354658100e-02 -1.5160633593980901e-03  8.7580408549453549e-04 -3.0561341128287137e-02 -6.3000462394089643e-04  1.2274151914349837e-03 -2.9749128831647001e-02 2.5635415155877235e-04  1.5654912248005634e-03 -2.8771887215495940e-02 1.1429385401088574e-03  1.9069424507670847e-03 -2.7634044565586734e-02 2.0429731626773291e-03  -8.5268333752362387e-05 -3.6935198762702272e-02 1.0373246501522778e-03  2.2625908582846771e-04 -3.6956476001247060e-02 8.3770610120846676e-04  5.0846121555626585e-04 -3.6857559131939756e-02 7.7056852434812548e-04  7.7755251839017154e-04 -3.6683542032541393e-02 7.3445732452848155e-04  1.0400448891266316e-03 -3.6486275972991873e-02 6.2213330537866666e-04  1.2931298423679110e-03 -3.6239041746592870e-02 4.0416203777535068e-04  1.5503389789029709e-03 -3.5969148084458405e-02 6.9571866569971680e-05  -4.9023475511851327e-04 -3.4098092529604732e-02 5.6236577042643738e-04  -2.6063800942742200e-04 -3.3965005326316369e-02 -6.5953822489962289e-04  -1.4381396618049532e-04 -3.3921821192136187e-02 -1.3262392052109005e-03  -1.3948244022338255e-05 -3.3885488621151275e-02 -2.0611088602342930e-03  -1.9816068519446467e-03 -3.3878521197483254e-02 -1.8934919998652693e-03  -1.8805696187156580e-03 -3.3815251586455444e-02 -2.4001316649268772e-03  -1.7817405000322909e-03 -3.3737402526203372e-02 -2.7650837894101703e-03  -1.6849137634802919e-03 -3.3654746221657345e-02 -3.0979342948474959e-03  -1.5910497922252648e-03 -3.3580973189020230e-02 -3.4859019818748796e-03  -1.5002052902137308e-03 -3.3505909448986203e-02 -3.9535735462470772e-03  -1.4061890963172690e-03 -3.3442783369470513e-02 -4.4755363993306228e-03  -9.0091480622462390e-05 -3.4411660454742421e-02 -2.0442485066181270e-03  3.5065685116705684e-04 -3.3884424380718876e-02 -1.1088651420198621e-03  7.5083106797150308e-04 -3.3282532719292969e-02 -2.7985560620479049e-04  1.1156404593191574e-03 -3.2629301091603648e-02 4.7616868972701510e-04  1.4604980340688237e-03 -3.1897951242989289e-02 1.2136482238732252e-03  1.7906979320442336e-03 -3.0999921715488529e-02 1.9243998240679138e-03  2.1195948466631036e-03 -2.9953215118863025e-02 2.6087771019567469e-03  2.2528484217782674e-04 -3.7413191380800140e-02 1.7832825583416129e-03  5.4832957023667208e-04 -3.7445288221857505e-02 1.5626891574429731e-03  8.3506807431350967e-04 -3.7350156386904074e-02 1.4726093050044121e-03  1.1067138014913970e-03 -3.7176535649980892e-02 1.4135837888174705e-03  1.3711243179405413e-03 -3.6978457110422226e-02 1.2772020502729933e-03  1.6289966808244883e-03 -3.6729614666984954e-02 1.0232026945970504e-03  1.8885332509903988e-03 -3.6455868457411729e-02 6.5141749431305062e-04  2.6741239063960223e-04 -3.4373919425076178e-02 -1.7456068592391703e-03  6.6564119547959749e-06 -3.1907417087648923e-02 -3.6543625102205489e-03  2.5385817943799043e-04 -3.2246616258239741e-02 -3.1407341791445855e-03  6.6960994551950280e-04 -3.1385719531467161e-02 -1.7500578205475561e-03  4.4318916689985936e-04 -3.1086219702022799e-02 -2.3228359679715828e-03  6.9276676004331294e-04 -3.3742404830157523e-02 -6.4114159548982295e-04  1.0586055306863623e-03 -3.0560725484098692e-02 -5.7574459975937226e-04  1.0869430804614950e-03 -3.3061218188298151e-02 3.1989980537112559e-04  1.4283901457372570e-03 -2.9722796683090743e-02 4.9231646670349954e-04  1.4536529063229079e-03 -3.2341258348550901e-02 1.1853352716830999e-03  1.7887384526497007e-03 -2.8793771804319416e-02 1.5830292165103406e-03  1.8048705950541430e-03 -3.1534545955615549e-02 2.0413225465454893e-03  2.1388756529784020e-03 -2.7688996564381653e-02 2.7059785682025102e-03  1.9344198794656886e-03 -2.7508864381810862e-02 1.9740645567587136e-03  2.1440843574288232e-03 -3.0550162104634012e-02 2.8894970202872896e-03  2.4887368292933133e-03 -2.6408930388432301e-02 3.9072503523617996e-03  2.2881364107293712e-03 -2.6275380893434185e-02 3.1226298991621098e-03  2.4761964224460690e-03 -2.9391795248746775e-02 3.7411306528186542e-03  -2.2558703733463852e-04 -3.1400987792092189e-02 -4.2547578908488986e-03  -1.2661623444946608e-05 -3.3443369547058358e-02 -2.6872260962920234e-03  4.2738779532507218e-04 -3.2781130049129456e-02 -1.5585706057187018e-03  2.2237384245875233e-04 -3.0584533938427569e-02 -2.9507090124258595e-03  8.3074499393319368e-04 -3.2083270943814773e-02 -5.7868860809653271e-04  1.2022987491096455e-03 -3.1351515459980064e-02 3.0930930691094394e-04  1.5573041216894077e-03 -3.0534973686234583e-02 1.1936615382628507e-03  1.7174617228910161e-03 -2.7027674600851172e-02 1.2748464682416382e-03  1.8990260674259683e-03 -2.9548874725111692e-02 2.0787838561711898e-03  2.0767039875736323e-03 -2.5810189981303629e-02 2.3995401460728074e-03  2.2410813703674249e-03 -2.8396879651790458e-02 2.9764768716108651e-03  5.3677077037342944e-04 -3.5565509490961759e-02 -6.2380281841882784e-04  9.4396402868987235e-04 -3.5004678000849949e-02 4.0273967806774859e-04  1.3279947281482928e-03 -3.4372464722366235e-02 1.3010101756917936e-03  1.6871145819730082e-03 -3.3690593026135682e-02 2.1055272678973552e-03  2.0347987706165927e-03 -3.2919488343590035e-02 2.8907753207914836e-03  2.3678278106251563e-03 -3.1967864230455924e-02 3.6520543465806327e-03  2.6968109894542525e-03 -3.0840135782747424e-02 4.3987184112491634e-03  -3.3571472887001211e-03 -3.4208167369046312e-02 -4.6532752513547462e-03  -3.2089555185689030e-03 -3.4238130622764013e-02 -4.9072958908299436e-03  -3.0535915623612336e-03 -3.4190946006797368e-02 -5.0325696498507754e-03  -2.8989799485609831e-03 -3.4102370189479612e-02 -5.1224658444954108e-03  -2.7546630488075349e-03 -3.4001477696867177e-02 -5.2697609244385336e-03  -2.6254676959075116e-03 -3.3884834290485569e-02 -5.5096472147899596e-03  -2.5072913226596421e-03 -3.3753109609265114e-02 -5.8280606575348845e-03  -2.9524554962776866e-03 -3.4330883391872936e-02 -3.9891221091917228e-03  -2.7988056754855045e-03 -3.4351822761144360e-02 -4.2802615925189710e-03  -2.6426951923625070e-03 -3.4299125867795238e-02 -4.4351724689397172e-03  -2.4884259049098591e-03 -3.4208548531415368e-02 -4.5554839181470262e-03  -2.3463089858876420e-03 -3.4111304722706459e-02 -4.7366235633406325e-03  -2.2116788705106708e-03 -3.3995849656114442e-02 -5.0083081904385377e-03  -2.0897233267627314e-03 -3.3871622156908837e-02 -5.3582955509518613e-03  -1.3781705188402548e-03 -3.4966504356573273e-02 -1.0825946942417607e-03  -1.2007404377614738e-03 -3.4957335991596034e-02 -1.5194927372612470e-03  -1.0335577678213200e-03 -3.4893569971730209e-02 -1.8103617196277627e-03  -8.7375217288261967e-04 -3.4803869351091615e-02 -2.0675384300633979e-03  -7.2074642014800078e-04 -3.4715834880848472e-02 -2.3866625411506641e-03  -5.7309016169523343e-04 -3.4615903135253333e-02 -2.7993052125010855e-03  -4.2296029493261268e-04 -3.4519889098923014e-02 -3.2772297497517060e-03  6.3892385343468252e-05 -3.6870235806032242e-02 1.7855166696302176e-03  1.0823346652649745e-04 -3.6613061426853756e-02 2.1054425945374266e-03  -3.4416819413389164e-04 -3.5860794321388507e-02 1.2067575573122373e-03  -1.3001106143358337e-04 -3.5867567898462821e-02 6.2855027322566146e-04  3.5929869239566010e-04 -3.66567984596