<?xml version="1.0"?>
<VTKFile type="UnstructuredGrid"  version="0.1"  >
<UnstructuredGrid>
<Piece  NumberOfPoints="708" NumberOfCells="2953">
<Points>
<DataArray  type="Float64"  NumberOfComponents="3"  format="ascii">2.732335376117434 1.66638585452141 1.290071810752866  2.722950465402513 1.820323141355819 1.239402432854118  2.840498700174469 1.747052140861566 1.257027532418624  2.838006570746491 1.727167329260977 1.198873334768759  2.719543608276602 1.800481269578528 1.181166422553479  2.729195632697138 1.64624814321405 1.230829993240138  2.835580694609585 1.707288046412273 1.140678693780197  2.71616071225073 1.780646286974157 1.122890738777097  2.726089635822877 1.626100368369329 1.171540583342557  2.83318058012887 1.687406608899301 1.082457210156879  2.712782907055408 1.76080999128512 1.064592257678306  2.722991246875437 1.605947501501507 1.112217682646655  2.830762850662639 1.667530216772567 1.024211737039129  2.709384556216063 1.740973452585005 1.006273502290385  2.719871850186728 1.585806611846631 1.052859343882602  2.828277939249429 1.647667016352889 0.9659291587650127  2.705938789081356 1.721139543619658 0.9479202003588051  2.716700401368031 1.56569893092354 0.9934447301293239  2.825663071658508 1.627820563046296 0.9075814962504192  2.702416814164366 1.701303766422468 0.8894957279824569  2.713439913092545 1.545643363543238 0.9339231979165886  2.364546205299263 2.068719226109992 1.167084175005611  2.451092077502237 2.182216092197378 1.110734044669502  2.488677200063918 2.032695312667722 1.175186548539333  2.485844062163256 2.008934583906315 1.117808948857671  2.449441214418546 2.154950123677402 1.053289534029942  2.362997380912755 2.043352025486791 1.109986929677849  2.361466665049976 2.01801429527365 1.052872437819488  2.447804067667725 2.127701693210768 0.9958432681704744  2.483008074496295 1.98519793697831 1.06042070814903  2.35993080246027 1.992698878405088 0.9957369509284891  2.44617335071305 2.100464911806218 0.9383924378470571  2.480161652458699 1.961471322232308 1.003024513077387  2.358382171398155 1.967365728763672 0.9385867948010616  2.444524045881999 2.07322326773683 0.8809395090936363  2.477288177126619 1.937745248034914 0.9456245087069159  2.356816375911399 1.941964408472779 0.881426426574328  2.442855690962623 2.045922394464775 0.8234977546541681  2.474386062912941 1.913991921387302 0.8882213142052765  2.355227565946931 1.916457686186253 0.824274762704548  2.441185204937754 2.018520452942468 0.7660837049803439  2.471500021928948 1.890136763405394 0.8308123058552099  2.833823160162062 1.897446599888609 1.20698266505497  2.831007992040145 1.877192144730455 1.149526460129607  2.82824876913051 1.856953244971137 1.092031164120068  2.825514266357088 1.836714536945205 1.034516403069451  2.822764035321357 1.816470131476002 0.9769906491386641  2.819954446840018 1.796213517891558 0.9194463416659968  2.817032387853741 1.775928153957172 0.8618657104663962  2.625838839706284 1.73555469654092 1.273994355985354  2.621794032435346 1.715732915079366 1.214885210231872  2.617748567245513 1.695905056203223 1.155736670965698  2.613691527690761 1.67607184480461 1.096556089487759  2.609608759672883 1.65624649681362 1.03734652319407  2.605487716833109 1.636446541731382 0.9780939407494098  2.601326939903608 1.616689602297162 0.918768547074549  2.922441510566666 1.993031037938122 1.168084460005123  2.968016789682111 1.833903506421042 1.222795298772328  2.92043880460831 1.972346928599854 1.11086116479221  2.966210915395237 1.814018124402225 1.165701739470076  2.918528943198429 1.951685010424158 1.05361909001514  2.964509206915313 1.794148825209307 1.108572000423656  2.916657261331845 1.931025308861308 0.9963740079968451  2.962851431645515 1.774280138996774 1.051427497265887  2.914771955952282 1.910355596814184 0.9391333393780477  2.961179363357724 1.754407986504537 0.9942720782877388  2.912813800635992 1.889660340635979 0.8818934443589579  2.959426701852094 1.73452823455821 0.937095697481701  2.910704264356507 1.868911132043669 0.8246353463620641  2.95750911882058 1.714623260668019 0.8798769438442655  2.380656458126288 1.936671835390152 1.219151768206795  2.377695660958337 1.914108721425019 1.161319243119937  2.374744682001644 1.891570797156041 1.103465417280866  2.371774983662018 1.869048589415275 1.045594710164282  2.368770404173579 1.846527822035787 0.9877056416694813  2.365745281212057 1.82395973764327 0.9297922596563676  2.362717081385468 1.80131190828793 0.8718398481372437  2.714663345481976 2.068316919879569 1.149199163149893  2.806372483887765 1.999113244641923 1.170899199546333  2.722144626093435 1.948844730736004 1.19420264271706  2.718861785676475 1.927777522754298 1.136562618734658  2.803665895374258 1.977708604445061 1.113488044870838  2.711802489749874 2.045421403285286 1.0916444450193  2.715603676814784 1.906723260290174 1.078888156796295  2.801014443791623 1.956323404633981 1.056047683124529  2.708973327572699 2.022543378125622 1.034074547771511  2.712352880464966 1.885670033707824 1.02120121183365  2.798383287418082 1.934940066020933 0.9986001739778831  2.706156600321338 1.999668238775901 0.9765008281605784  2.709082514384415 1.864610061922282 0.9635076006117639  2.795735468357914 1.913546934661912 0.9411530267472661  2.703321298780739 1.976782452924662 0.9189314624404255  2.705765427256114 1.843533875673695 0.9058007629142496  2.793030316385225 1.892128358367626 0.8837033938060226  2.700434992228813 1.953865773911471 0.8613672439389971  2.702373650294487 1.822413830754352 0.8480585051543316  2.790218338009891 1.87065283559177 0.8262334295962377  2.697470614277227 1.930882034798636 0.8037989858861928  2.623452240330737 1.587264587993803 1.322966067156039  2.618956634154294 1.566125973281125 1.262705730673973  2.614447722035387 1.544957150231506 1.202396409207169  2.609926012792548 1.523779556237751 1.142051967292681  2.605380090501109 1.502625029385522 1.081665911346445  2.600800931043038 1.481529238512427 1.021216745397473  2.596193656331598 1.460527233951107 0.9606622189152496  2.945209395168748 1.676458759560379 1.278502490213004  2.943676208732978 1.656199441478679 1.220594013487558  2.942250375965757 1.635931837370934 1.162633551051664  2.940869705617879 1.615661566259725 1.104648998922509  2.939470691623445 1.595396707840963 1.0466369971189  2.937983288347934 1.575142496253256 0.9885742027782509  2.936341160785982 1.554916936056275 0.9304246486889675  2.256563764297882 1.969439712327065 1.211400566057641  2.25491500296849 1.945339055743168 1.153960477216332  2.253293699792547 1.921280852783105 1.09649318753744  2.251670699048877 1.897242636470052 1.038996405177222  2.250040644150641 1.873168039504105 0.9814756052724612  2.24838202734241 1.849027863588309 0.923935761075623  2.246700765203938 1.824794746258084 0.8663832121500123  2.606402779533791 1.999052007076425 1.182892334839154  2.603079886145051 1.976787545368076 1.12527415837647  2.599761233775985 1.954538056286903 1.067637464794835  2.596438892558161 1.932292084117787 1.009988830399614  2.593093653150435 1.910040696409236 0.9523356899962695  2.58970916994183 1.887770550256424 0.8946766604204396  2.586285519573413 1.865456064880536 0.836998153228353  2.523647987307352 1.656262262508522 1.308192601303362  2.518617674030544 1.635498938032518 1.248408172478592  2.513555487071171 1.614714225059268 1.188578133282323  2.508465282632015 1.593921833222377 1.128717416437457  2.503343924127986 1.573147280625865 1.068820955848178  2.498196773841161 1.552420245957247 1.008870274766937  2.49305687754 1.531760303404592 0.9488271911477573  2.611443819060383 1.865667498726733 1.230608230614203  2.607616995595732 1.845277075461303 1.172359437561381  2.603789221090357 1.82489441718825 1.114078692544992  2.599951008828276 1.804511820512277 1.055778185964108  2.596086776238832 1.784128955141231 0.9974621754798501  2.592185878842047 1.763746546988445 0.9391232212953197  2.588247189229936 1.743363062758458 0.8807375820126175  2.178644448512966 1.636571798712365 1.347363768307033  2.288853453923155 1.726177109346711 1.302742969058726  2.298315917007149 1.626758915773408 1.338966916617082  2.29244592875405 1.60384596879537 1.279205102792998  2.284172373259024 1.70424288041675 1.243597018939764  2.172303259117634 1.612611013621251 1.288038411506644  2.286550805774405 1.580879881856393 1.219419752381884  2.279483328070595 1.682291244146077 1.184427319629263  2.165934203356139 1.588581777940779 1.22871479144567  2.280610480305312 1.557899012716288 1.159612931147118  2.274754386564141 1.660337922383662 1.125234924637733  2.159515512716369 1.564537724493556 1.169375259278005  2.274630340291324 1.534945248858606 1.099778770329694  2.269978434175054 1.638401136956399 1.066016701399439  2.153058848767796 1.540500484660648 1.110005701610205  2.268633339420009 1.51205764341392 1.039895340814297  2.265182464703397 1.616466847772498 1.006751582268449  2.146590744793004 1.516489776785332 1.050578494425337  2.262669342322803 1.489238294605018 0.9799204659063445  2.26040972006959 1.594558072057849 0.9474030573803912  2.140188814418985 1.492563286519855 0.9910385422854128  2.156630624031318 1.526064087747533 1.395876607128921  2.276681586020161 1.533015874198635 1.379425361866569  2.266327400593965 1.416276572378371 1.432023815598247  2.269569208729763 1.50803483084607 1.319381019935352  2.148099136436988 1.498600998733792 1.336788409634459  2.256386709372238 1.387350406335945 1.372224887076698  2.262427191802057 1.482962194093216 1.259320391443508  2.139529110419601 1.471019321091965 1.277720765146592  2.246366343749277 1.358284627696172 1.312459494445362  2.255239964038052 1.457859610792873 1.199238371154538  2.130918344635144 1.443406318652777 1.218657413135279  2.236302120930782 1.329181995054974 1.252694282351362  2.248024072488847 1.432787398248005 1.139122237234713  2.122285422425784 1.415828922010547 1.159572339211195  2.226233869481641 1.30012182086037 1.192893295684815  2.24080834224783 1.407796476661086 1.078948004388882  2.113660506792346 1.388350974584256 1.10042
[...]
<PointData  Vectors="f_24"> 
<DataArray  type="Float64"  Name="f_24"  NumberOfComponents="3" format="ascii">8.2453165452525568e-02 -9.8817548205382522e-02 -1.4182230659943276e-01  8.4757579453623430e-02 -1.0277960659184039e-01 -1.5008191145843133e-01  8.1824911861950733e-02 -1.0165723214612708e-01 -1.4310946389814166e-01  8.3885525978935935e-02 -1.0433043858518583e-01 -1.4206378406148804e-01  8.6623623523218216e-02 -1.0447954487542155e-01 -1.4984662435905580e-01  8.4161230503300141e-02 -1.0267866243682407e-01 -1.4004812959814211e-01  8.5497312768440387e-02 -1.0528670272150382e-01 -1.4125047191964293e-01  8.8259418621768143e-02 -1.0507356546805842e-01 -1.4923206994990801e-01  8.5645484682837655e-02 -1.0437121485191954e-01 -1.3892551389043883e-01  8.6929065028572214e-02 -1.0528536457051949e-01 -1.4072698135339640e-01  8.9715521135075929e-02 -1.0488665399729030e-01 -1.4873239948393471e-01  8.7051869986537647e-02 -1.0485872501611462e-01 -1.3827357624895334e-01  8.8478757206408076e-02 -1.0605779214189441e-01 -1.3986104831206064e-01  9.1228013908239800e-02 -1.0519387742021884e-01 -1.4811779076455611e-01  8.8618962022822712e-02 -1.0644200555874636e-01 -1.3717176157175695e-01  9.0367353715645124e-02 -1.0808724021194432e-01 -1.3778142141089089e-01  9.2962286639431846e-02 -1.0595722444343597e-01 -1.4647597726858311e-01  9.0270529958743656e-02 -1.0974913586062128e-01 -1.3467975958439368e-01  9.2304710193110345e-02 -1.1021954672433446e-01 -1.3469381497063931e-01  9.4772897987163734e-02 -1.0678137489517744e-01 -1.4362003102595480e-01  9.1966694951681749e-02 -1.1334744114308803e-01 -1.3122522239648390e-01  9.8331710001192160e-02 -1.0390304872759165e-01 -1.5434523906448386e-01  9.8271243304984782e-02 -1.0108860253874158e-01 -1.4351251995291092e-01  9.4256510137281965e-02 -1.0451445210847107e-01 -1.5420778448715111e-01  9.5339313262020484e-02 -1.0221426243054388e-01 -1.5577812150232170e-01  9.9309545126482837e-02 -9.5709407811550476e-02 -1.4572990900195040e-01  9.8893130663434817e-02 -1.0096421547547980e-01 -1.5623618528227762e-01  9.9311344567722087e-02 -9.8876844982438414e-02 -1.5698798438646616e-01  1.0003083391381329e-01 -9.3021507992655045e-02 -1.4670826068659820e-01  9.6184886159543098e-02 -1.0059036218057504e-01 -1.5622547177200519e-01  1.0000708767537285e-01 -9.7614800215583913e-02 -1.5717875081147328e-01  1.0093948423471798e-01 -9.1538561229143972e-02 -1.4714316496888849e-01  9.7056163182202435e-02 -9.9574639974278956e-02 -1.5619750833823998e-01  1.0100961336507469e-01 -9.6112229709991878e-02 -1.5744170571014754e-01  1.0234312472442371e-01 -8.9146301544807044e-02 -1.4793838515680535e-01  9.8431738872376578e-02 -9.8360781435315972e-02 -1.5624794089007424e-01  1.0190074629982170e-01 -9.2508715859368151e-02 -1.5746621134747629e-01  1.0345187543481776e-01 -8.3356699628792955e-02 -1.4895699971998758e-01  9.9666073761799714e-02 -9.5212051088181510e-02 -1.5596550464336287e-01  1.0266147385248263e-01 -8.8002450441504204e-02 -1.5633070939501589e-01  1.0468474150381876e-01 -7.6372708081158605e-02 -1.4917769189063279e-01  1.0095706755795793e-01 -9.1357555759959783e-02 -1.5444801574100578e-01  8.3678986342504619e-02 -1.0446058309600235e-01 -1.4694442459428297e-01  8.5899475825596483e-02 -1.0459346489078841e-01 -1.4731757910915907e-01  8.7782571997080380e-02 -1.0427359152466872e-01 -1.4706631161453204e-01  8.9316467308125341e-02 -1.0371052854634480e-01 -1.4670819838325166e-01  9.0895992623012178e-02 -1.0332376597820139e-01 -1.4627720937050381e-01  9.2837130673696380e-02 -1.0264366431202572e-01 -1.4515641288226594e-01  9.4860284278245471e-02 -1.0177779915870090e-01 -1.4286331664663182e-01  8.5113478976284546e-02 -1.0003266816426869e-01 -1.4957214730403437e-01  8.6605979031447441e-02 -1.0326099284304760e-01 -1.4846976488066138e-01  8.8105708105898073e-02 -1.0470736708424849e-01 -1.4757624917717349e-01  8.9541961335269496e-02 -1.0493420853062344e-01 -1.4703047496100843e-01  9.1066180760844551e-02 -1.0597643978396019e-01 -1.4611702041151245e-01  9.2551673551926242e-02 -1.0832691439889162e-01 -1.4397211332761131e-01  9.4075271101269037e-02 -1.1088545329969675e-01 -1.4070061375345203e-01  8.3170595331647446e-02 -1.0491498652421281e-01 -1.4151818471267089e-01  8.0357018792095378e-02 -1.0380467631145898e-01 -1.4107418163527033e-01  8.5586533082941202e-02 -1.0303852742421100e-01 -1.4242239772823753e-01  8.2775534051309094e-02 -1.0494697114589854e-01 -1.4077941783393763e-01  8.7694057991357779e-02 -1.0173966525207104e-01 -1.4246908736803418e-01  8.4710444451319034e-02 -1.0500453912024989e-01 -1.4032703829472329e-01  8.9415526326165090e-02 -1.0084070983578822e-01 -1.4224128567558508e-01  8.6304159048611537e-02 -1.0453876976107361e-01 -1.3992306903575161e-01  9.1025901455705271e-02 -9.9755171684754743e-02 -1.4214570168207527e-01  8.7927587071163979e-02 -1.0456159206022955e-01 -1.3935820564550069e-01  9.3118839552937524e-02 -9.7074590746397862e-02 -1.4166400854485725e-01  8.9998786516082258e-02 -1.0499657432822471e-01 -1.3787922180070949e-01  9.5265978221533335e-02 -9.4063707299962177e-02 -1.4009565865703327e-01  9.2105449326014638e-02 -1.0537967256868185e-01 -1.3535829190134574e-01  9.4900647868925547e-02 -1.0348211883350966e-01 -1.5901118104605913e-01  9.5398527094803912e-02 -1.0331745471947416e-01 -1.5994237519616447e-01  9.5988952759271093e-02 -1.0273080955605662e-01 -1.6003662067794744e-01  9.6777087249786967e-02 -1.0199116518629396e-01 -1.5987813732374442e-01  9.8022592753433960e-02 -1.0151949819305874e-01 -1.5969161415531569e-01  9.8869588237280190e-02 -1.0023820819251336e-01 -1.5864556665146121e-01  9.9704723152798075e-02 -9.8707366343359151e-02 -1.5624238626116055e-01  8.9277297387108628e-02 -1.0428475368331658e-01 -1.4555072165910340e-01  8.5867185278860003e-02 -1.0490566010707078e-01 -1.4585409591755225e-01  8.6851924433513472e-02 -1.0476955876370110e-01 -1.5043254311784687e-01  8.8802425762238957e-02 -1.0396327489776878e-01 -1.5127501741515206e-01  8.8061916645741867e-02 -1.0298576536644784e-01 -1.4689957094827566e-01  9.1277608392632673e-02 -1.0090770053824893e-01 -1.4700527913459058e-01  9.0485741721043678e-02 -1.0321968197090205e-01 -1.5123618909623041e-01  8.9911321628937182e-02 -1.0171192332224661e-01 -1.4700404865632205e-01  9.2808703078503724e-02 -9.9131656169684834e-02 -1.4738817106359309e-01  9.1964505440935249e-02 -1.0258814334806035e-01 -1.5092414768871815e-01  9.1417615795864937e-02 -1.0086485377401956e-01 -1.4679780029496772e-01  9.4172485992861266e-02 -9.8149808176455591e-02 -1.4733212151808464e-01  9.3467404075115182e-02 -1.0186621982511126e-01 -1.5066991730202670e-01  9.3032992174518880e-02 -9.9748624569743011e-02 -1.4669284868283036e-01  9.5753984761164909e-02 -9.6574428818317987e-02 -1.4749323695789010e-01  9.5224177902175328e-02 -1.0018303679061223e-01 -1.4983453556931023e-01  9.4957017826483081e-02 -9.7039096673227590e-02 -1.4625209004450365e-01  9.7539203447225054e-02 -9.2536624751087065e-02 -1.4756621019601623e-01  9.7094313035516563e-02 -9.8178475341857377e-02 -1.4774308766641517e-01  9.6974931223156591e-02 -9.3855322855719014e-02 -1.4465052999429948e-01  9.9436368050612095e-02 -8.7771921310675405e-02 -1.4654281553276138e-01  8.2662726776400741e-02 -9.5571412353583143e-02 -1.3792050247877877e-01  8.4086144533235707e-02 -1.0022502084320269e-01 -1.3554257522635194e-01  8.5618296822262338e-02 -1.0238846186966345e-01 -1.3427446855666633e-01  8.7157923953196825e-02 -1.0334140962985751e-01 -1.3355500964891670e-01  8.8642665314965799e-02 -1.0574223707277701e-01 -1.3211949681106594e-01  9.0003390473254632e-02 -1.1017370875606922e-01 -1.2921707287206380e-01  9.1409175996896533e-02 -1.1494488828148809e-01 -1.2549672955682242e-01  7.9581944912519589e-02 -1.0031942817562581e-01 -1.3467612387703434e-01  8.1640440201973113e-02 -1.0360426559576386e-01 -1.3301195324320467e-01  8.3035089166297593e-02 -1.0474923069275245e-01 -1.3211921483913611e-01  8.4321083701503416e-02 -1.0499462871854025e-01 -1.3155786008591400e-01  8.5900253522120273e-02 -1.0623859962554169e-01 -1.3055991810622725e-01  8.7850904476673958e-02 -1.0921312364918245e-01 -1.2819288099692083e-01  8.9835469730173811e-02 -1.1238352347935174e-01 -1.2491454040891500e-01  9.9189407997272439e-02 -1.0285817870236165e-01 -1.5938431447564169e-01  9.9085255789953974e-02 -1.0217462555628277e-01 -1.6059233353218566e-01  9.9189605420934093e-02 -1.0117816275240782e-01 -1.6097536231874207e-01  9.9744223584110586e-02 -1.0019538256585044e-01 -1.6103076632860652e-01  1.0060528843446140e-01 -9.9341946024517402e-02 -1.6101147946345648e-01  1.0104030693896403e-01 -9.7562398058049504e-02 -1.6029840636709622e-01  1.0128928794767005e-01 -9.5296384655120803e-02 -1.5822604853151037e-01  9.0468644974595155e-02 -1.0479823403719976e-01 -1.5265745045959539e-01  9.2096483735416915e-02 -1.0307587915689824e-01 -1.5392287424273210e-01  9.3388069044553448e-02 -1.0183975490301546e-01 -1.5415986683110691e-01  9.4589575875246190e-02 -1.0104145746805274e-01 -1.5398030852931327e-01  9.6035887667586625e-02 -1.0001170831502718e-01 -1.5385444475666385e-01  9.7584291257284295e-02 -9.7412814316060914e-02 -1.5335304995320287e-01  9.9243509679158917e-02 -9.4292079099793882e-02 -1.5156997987726756e-01  8.5275034857229801e-02 -9.6829823583965205e-02 -1.4634026670662439e-01  8.6448255356527295e-02 -1.0111499783839741e-01 -1.4448562673057871e-01  8.7942541059023591e-02 -1.0308918648875082e-01 -1.4338530220794393e-01  8.9463933585923222e-02 -1.0378856548312056e-01 -1.4276878656869743e-01  9.0908814119624759e-02 -1.0557312198488991e-01 -1.4161222827749015e-01  9.2046801267538655e-02 -1.0913788101487466e-01 -1.3899012995907811e-01  9.3248311132780218e-02 -1.1305529024030302e-01 -1.3537682627509223e-01  8.7764559363810404e-02 -1.0329378366614186e-01 -1.5432472612578904e-01  8.9273780170866041e-02 -1.0427385557978190e-01 -1.5459135701833812e-01  9.0695817894115349e-02 -1.0453023527115796e-01 -1.5422402663939588e-01  9.2068075582503295e-02 -1.0421251333113142e-01 -1.5381244041343053e-01  9.3557067941330715e-02 -1.0415102260881713e-01 -1.5329179411662469e-01  9.5034779146934714e-02 -1.0415869123447893e-01 -1.5185558480154435e-01  9.6639437880886608e-02 -1.0408252342722875e-01 -1.4910297230528347e-01  9.1059415981618888e-02 -9.2924118931684604e-02 -1.4677176471945566e-01  9.1394864352050215e-02 -9.7307498076985979e-02 -1.5389421944863801e-01  8.8484652723342078e-02 -9.3928485293167718e-02 -1.4591159706517629e-01  8.9039668060947319e-02 -9.8240584885047402e-02 -1.4391879204776389e-01  9.1581679796884558e-02 -1.0070025359313994e-01 -1.5277042092902102e-01  9.1259502749229726e-02 -9.6957233446815505e-02 -1.4489170229270773e-01  9.0343686935093592e-02 -1.0014367792150861e-01 -1.4296423870439842e-01  9.2574130978682792e-02 -1.0207598373725864e-01 -1.5210750942709214e-01  9.2319175424892846e-02 -9.8632871515241319e-02 -1.4410720334396099e-01  9.1657713397048285e-02 -1.0086704767947645e-01 -1.4248012254825643e-01  9.3760987509827823e-02 -1.0232026698522907e-01 -1.5176674605864976e-01  9.3428828040696868e-02 -9.9206762972399040e-02 -1.4377977497107222e-01  9.2711593135025430e-02 -1.0291460144993141e-01 -1.4118907110534540e-01  9.4845299973108366e-02 -1.0353484687476994e-01 -1.5086390193382418e-01  9.4223201691919542e-02 -1.0106254500319363e-01 -1.4257937485243866e-01  9.3223261902765447e-02 -1.0681809197151637e-01 -1.3831649488088904e-01  9.5349202149624501e-02 -1.0604771821605836e-01 -1.4854161537011576e-01  9.4444420219387856e-02 -1.0466860745909921e-01 -1.3979617672351025e-01  9.3746170442689805e-02 -1.1107597554089248e-01 -1.3451630153834596e-01  9.5809065915153091e-02 -1.0885605935052127e-01 -1.4503722286135476e-01  9.4633793739788336e-02 -1.0862832517359963e-01 -1.3605133728891472e-01  8.8762077406258827e-02 -8.8157584797103977e-02 -1.3502657431559145e-01  8.6835994483758658e-02 -8.9938604244259909e-02 -1.3609852390518076e-01  8.5274883593931622e-02 -8.4487671418890117e-02 -1.2156459656671573e-01  8.7568698761578009e-02 -9.4654429295373946e-02 -1.3349150504385915e-01  8.9342340252341543e-02 -9.2456374864270455e-02 -1.3249191107599925e-01  8.6036853227142246e-02 -8.9174082127536664e-02 -1.1847950222278292e-01  8.8863162606625593e-02 -9.6787023710784389e-02 -1.3237475651790231e-01  9.0438074466917359e-02 -9.4299167002315720e-02 -1.3148736374560877e-01  8.7072080808416094e-02 -9.1342183336966157e-02 -1.1719549612092070e-01  9.0120766194568713e-02 -9.7903586371071452e-02 -1.3174796549846846e-01  9.1385117328937324e-02 -9.5225241263655697e-02 -1.3091336904597145e-01  8.8067100368092399e-02 -9.2839620572726628e-02 -1.1627649372888184e-01  9.1025159435673020e-02 -1.0057095561800325e-01 -1.3007434902261256e-01  9.1999788000762028e-02 -9.7965322192917287e-02 -1.2904198605909198e-01  8.8711587205449374e-02 -9.6214449104520192e-02 -1.1397492235406693e-01  9.1484595728066317e-02 -1.0543044806567224e-01 -1.2675405928384445e-01  9.2220189926982443e-02 -1.0263476435607491e-01 -1.2557669586415754e-01  8.9178549518051667e-02 -1.0175916259109269e-01 -1.1012362870624086e-01  9.1970117836002688e-02 -1.1067084786524196e-01 -1.2275047687636921e-01  9.2497220384392856e-02 -1.0771279804093689e-01 -1.2144305589958952e-01  8.9643883659794962e-02 -1.0766902860973007e-01 -1.0585805025270434e-01  9.3900055433616791e-02 -1.0281753164275725e-01 -1.4468246094362883e-01  9.5507217524723909e-02 -9.8203739768613588e-02 -1.4654216074260606e-01  9.6540692298974495e-02 -9.5959136913565654e-02 -1.4722590346553124e-01  9.7660059862543558e-02 -9.4756812538830171e-02 -1.4741821291472482e-01  9.9149124893559232e-02 -9.2750115068164551e-02 -1.4785784951704242e-01  1.0065570016110954e-01 -8.7595156560355769e-02 -1.4845473556381014e-01  1.0229172713858949e-01 -8.1418032964780868e-02 -1.4810147593947845e-01  9.1475757194672339e-02 -1.0371831294075390e-01 -1.5732887270678556e-01  9.2511079057693249e-02 -1.0388254765231562e-01 -1.5805251028799619e-01  9.3527029497819270e-02 -1.0358034925310633e-01 -1.5797163729116062e-01  9.4676897658762235e-02 -1.0304206497011446e-01 -1.5768665078923624e-01  9.6003226613507298e-02 -1.0269046165055289e-01 -1.5737658358329271e-01  9.7200380686886412e-02 -1.0177541045160481e-01 -1.5622408396825760e-01  9.8479302991851161e-02 -1.0064537258352865e-01 -1.5367781900849029e-01  8.2996519870062499e-02 -9.2196698276241371e-02 -1.3339294943192925e-01  8.4224093939453265e-02 -9.7292300575483479e-02 -1.3066993501331242e-01  8.5769852631181351e-02 -9.9730440088972389e-02 -1.2936216097903572e-01  8.7313945171529156e-02 -1.0103355266886715e-01 -1.2860070688972847e-01  8.8666322637679817e-02 -1.0386376795410240e-01 -1.2698248261792078e-01  8.9698667284213371e-02 -1.0894129493529996e-01 -1.2379312720063194e-01  9.0782614998647579e-02 -1.1441077277343728e-01 -1.1989826611666191e-01  9.5236645595590905e-02 -1.0054264329680852e-01 -1.5918146165245353e-01  9.5155115531635567e-02 -1.0228179990233507e-01 -1.5915563398213153e-01  9.5628144461895853e-02 -1.0271263830635666e-01 -1.5892320474475349e-01  9.6488388010239595e-02 -1.0238673329593410e-01 -1.5874148906913335e-01  9.7483372573103952e-02 -1.0256101921878241e-01 -1.5828808179912801e-01  9.7961327045429786e-02 -1.0316972711603503e-01 -1.5663571887197758e-01  9.8336668631855764e-02 -1.0378965715047218e-01 -1.5359148831599753e-01  8.0999901943297828e-02 -1.0183766804981925e-01 -1.1793499027853227e-01  8.0703048685000875e-02 -1.0345391409604814e-01 -1.2178570686345552e-01  7.9956997121056222e-02 -1.0012359190284446e-01 -1.1913317809728341e-01  8.1832027922922920e-02 -1.0392020730195195e-01 -1.2114869980999875e-01  8.2127903536909380e-02 -1.0275433339582993e-01 -1.1713791788914046e-01  8.3356056248384450e-02 -1.0571978265387670e-01 -1.1981710148212990e-01  8.3666212612912044e-02 -1.0529919527956023e-01 -1.1548739663600124e-01  8.5377772433937349e-02 -1.0954891025480912e-01 -1.1699536949339304e-01  8.5531483431002656e-02 -1.1000666509297898e-01 -1.1232784405310772e-01  8.7363043350191835e-02 -1.1358944831857516e-01 -1.1347468868156341e-01  8.7382872319249738e-02 -1.1501359495087803e-01 -1.0856381762887275e-01  9.1852549982845866e-02 -9.9602864519855935e-02 -1.3347457951394071e-01  8.7026290241076498e-02 -1.0371815959612386e-01 -1.3967220201312799e-01  8.9259224351306218e-02 -9.9845884760692241e-02 -1.4116357179918559e-01  9.3678895345766247e-02 -9.4199279296394267e-02 -1.3541331272161639e-01  9.4993893285511680e-02 -9.2000738612718888e-02 -1.3620652044581844e-01  9.1045733822739436e-02 -9.7947798961136354e-02 -1.4155763148912262e-01  9.6373879654108235e-02 -9.0692077031370985e-02 -1.3662437007443629e-01  9.2584783791398048e-02 -9.6853939881553996e-02 -1.4157595761869524e-01  9.8018445223007539e-02 -8.8162624306490092e-02 -1.3743405056101077e-01  9.4176684199456490e-02 -9.5072209542455488e-02 -1.4179789105625207e-01  9.9786697027140339e-02 -8.2027935513097311e-02 -1.3861548115946595e-01  9.6181996465154948e-02 -9.0656419989491394e-02 -1.4205868232888647e-01  1.0164977199747421e-01 -7.4705412468729041e-02 -1.3910068060203512e-01  9.8220777529179015e-02 -8.5446575425203869e-02 -1.4132592200997809e-01  7.3886310131034139e-02 -8.0789073593932254e-02 -8.6237026774359127e-02  7.3712923786612317e-02 -8.3949571306063064e-02 -8.8981299828013949e-02  7.0591053338081314e-02 -7.5493813498238596e-02 -7.1665016023727560e-02  7.5087259040191617e-02 -8.5516485658478969e-02 -8.2661646553962798e-02  7.4818235669938768e-02 -8.8374325882649693e-02 -8.5588926526994624e-02  7.1753761642900413e-02 -7.9647677437509293e-02 -6.7907408763999269e-02  7.5768616856283125e-02 -9.0758510516711147e-02 -8.3895258743321141e-02  7.6240570933976459e-02 -8.8192087329253321e-02 -8.0836376693016798e-02  8.0267333576914637e-02 -9.7558690714638990e-02 -1.3253801369585660e-01  8.2017400507674892e-02 -1.0172090440494191e-01 -1.3031343154530026e-01  8.3314169992487724e-02 -1.0347213251066528e-01 -1.2912564884937661e-01  8.4617313496080898e-02 -1.0417417262095585e-01 -1.2843942803194847e-01  8.6141286532538136e-02 -1.0609237954817959e-01 -1.2716619316169780e-01  8.7943091799772943e-02 -1.1019973335664514e-01 -1.2436402607386393e-01  8.9752619008905188e-02 -1.1456552663974251e-01 -1.2076816414512812e-01  9.8089676005304563e-02 -9.5249759639969706e-02 -1.5405322758300100e-01  9.4725558387822276e-02 -9.6467855960999896e-02 -1.5472872431852569e-01  9.3860476360649536e-02 -9.0918788063052203e-02 -1.4599285338766441e-01  9.3633849122083987e-02 -9.4672787837787417e-02 -1.4403848570817293e-01  9.4435145218470823e-02 -9.9532036664136861e-02 -1.5366372032829861e-01  9.7331749209054921e-02 -9.7930185034417860e-02 -1.5309529117152335e-01  9.4341964178302595e-02 -9.6183466586487271e-02 -1.4324021424276576e-01  9.5036115354848558e-02 -1.0061822011624186e-01 -1.5313565534515500e-01  9.7581224792744600e-02 -9.8707979485583616e-02 -1.5275467023464664e-01  9.5153435384147292e-02 -9.6649933078529482e-02 -1.4292499682401516e-01  9.5982352019158557e-02 -1.0071619795281189e-01 -1.5288388268311487e-01  9.8143133814590361e-02 -9.8625431061414859e-02 -1.5263040814576087e-01  9.5565671518901218e-02 -9.8115704143490190e-02 -1.4185083950957586e-01  9.6733534778407612e-02 -1.0167737403136318e-01 -1.5206661242170691e-01  9.8616871713644541e-02 -9.9634654488037946e-02 -1.5184800682460692e-01  9.5520234497834394e-02 -1.0152016606433330e-01 -1.3900362463398844e-01  9.6842701992130423e-02 -1.0392412334013207e-01 -1.4978012513087738e-01  9.8332214957492031e-02 -1.0154944689651059e-01 -1.4965027485640062e-01  9.5372352190271639e-02 -1.0514378007162839e-01 -1.3521354662221691e-01  9.6856820378381461e-02 -1.0639030221019306e-01 -1.4632406556972150e-01  9.7840843801311070e-02 -1.0371729159353435e-01 -1.4645655645642897e-01  1.2245759158234452e-01 -7.5785477490279682e-02 -1.3253900003416291e-01  1.2309653183815693e-01 -6.7451602225504337e-02 -1.2126579188800221e-01  1.1957166708973729e-01 -7.9573130042912249e-02 -1.3354391511269120e-01  1.1824953307036046e-01 -7.4812343174186210e-02 -1.3623785747548434e-01  1.2214064736619457e-01 -6.2283297743056597e-02 -1.2368287305135245e-01  1.2088993473202259e-