<?xml version="1.0"?>
<VTKFile type="UnstructuredGrid"  version="0.1"  >
<UnstructuredGrid>
<Piece  NumberOfPoints="693" NumberOfCells="2914">
<Points>
<DataArray  type="Float64"  NumberOfComponents="3"  format="ascii">4.784144980621432 3.485671612285435 3.45687335956238  4.841071317280245 3.462078614843557 3.566219359931563  4.916214723402724 3.517965661338521 3.487063138971584  4.894636322088134 3.58213410495681 3.511649608454082  4.818536896831895 3.525253041910273 3.594851564616653  4.76111106295649 3.548628156473965 3.478597421984775  4.873296624824 3.646215672254258 3.536405325926165  4.79626678684129 3.588358774837573 3.623674053667525  5.784810001277607 3.102312817635271 4.398252117884756  5.709950005455414 3.24042748793696 4.313258840229275  5.843278042273117 3.219943048813693 4.331771197347582  5.850369896715634 3.177297737156629 4.262683067138116  5.780164210863624 3.137642461150788 4.472824045192824  5.705752756214348 3.284468823216232 4.382092547677  5.836209247638073 3.262538703785988 4.400818366540554  5.775551338314112 3.172922798109854 4.547342862225836  5.701609121216259 3.328467649620052 4.450874355320111  5.829186042343308 3.305104045179952 4.469825742858045  5.77105017200531 3.208150564234728 4.621837549266336  5.69760283085914 3.372421925122579 4.519615174664668  5.822233444202873 3.347651527126781 4.538801133714149  6.036925063298849 3.325665305805135 3.948879031594727  6.139510186106941 3.393549903502258 3.898628809491469  6.023315434785519 3.427716843128333 3.83406653399822  6.014928061336167 3.485051682668971 3.881309750645006  6.126326439805648 3.448526257826928 3.948664802086544  6.027724090049699 3.380785552026619 4.001852129739587  6.113198378997019 3.503372065363345 3.998851315233907  6.018490741028033 3.435754179628387 4.054981688597481  6.006464929059096 3.542268013039847 3.928751956499831  6.100143810109377 3.558182327102581 4.049095695292842  6.009302609892154 3.49069230356934 4.108156108431808  5.998032213705176 3.599470262526669 3.976260812664206  6.087144595034366 3.613011351178941 4.099357454256942  6.000163939369449 3.545641119908407 4.16133540754009  5.989653727131913 3.656719923314656 4.023792206235638  6.074171626168662 3.667902002189677 4.149625342155927  5.991076211008658 3.600639213341005 4.214505867095424  5.981340323292806 3.71408638910651 4.071331382248673  5.982037704672569 3.655759117243089 4.267663253345026  6.061142171429812 3.722923645058824 4.199871967625065  5.973164303266234 3.771676036316135 4.118867228847909  5.333988220984716 3.327329082185125 3.918637670183334  5.340622060329455 3.206602620425482 4.027014750522026  5.467970983909649 3.274239517364428 3.972516233967275  5.467154703115167 3.327600272351413 4.034242165492609  5.33667765219655 3.257224435470595 4.09206299028449  5.329159295170447 3.384519524911183 3.97573262216984  5.332611211674863 3.30768954241904 4.156969616876287  5.324208342030557 3.441513478224366 4.03271146770862  5.4661278882544 3.380782968382481 4.095852748744353  5.319209213898779 3.498363068483177 4.089607514475073  5.328492980915391 3.358003755979651 4.221730815164648  5.465033490024608 3.433847318589553 4.157400289626328  5.314223100292713 3.55509697289168 4.146423947869322  5.324380193684424 3.408208871861408 4.286401789991188  5.46395087696999 3.486818820940433 4.218879340806899  5.309295871324895 3.611731771679422 4.203158732142852  5.320332828301538 3.458311330595356 4.350988794856218  5.462956363997549 3.539717568263271 4.280285421287611  5.304493441251951 3.66824681487083 4.259821038568009  5.316420694018031 3.50828315564818 4.415513800078958  5.462140715252784 3.592519496768709 4.341620858581044  4.900962490116817 3.427758188650935 3.676490895985331  4.955668714863122 3.354475422420271 3.808397417373506  5.03887219977787 3.459795663025505 3.683598833268861  5.022458882543591 3.523275033804865 3.722581391627302  4.938363675545755 3.414202721980062 3.85527970062286  4.880491811397492 3.490219638999342 3.713346487679628  5.006171474859211 3.586519729572381 3.761565900864062  4.921216006206013 3.473689322718605 3.902117191646509  4.86023346010928 3.552522136327682 3.750289872140334  4.989954324506184 3.649602323590339 3.800539389576895  4.904157430973373 3.533023355501797 3.948916982512459  4.84007313836404 3.614722285265399 3.78726840827328  4.973761137968153 3.71257613347098 3.839483090305927  4.887119163657398 3.592244873771984 3.995662011413215  4.819919496378271 3.676848833062977 3.824228055029248  4.957563353514678 3.775458648578415 3.878375542139321  4.870074348695613 3.651363307978521 4.042346618474926  4.799721754769208 3.73889669060323 3.861137563259676  4.941321931460513 3.838248876527934 3.91716411083458  4.852984682707024 3.710391269998814 4.088925455229186  4.779409197113719 3.800853791226315 3.897904264853659  6.181934599244978 3.066714238416446 4.187483044248772  6.317628412536499 3.118399371689295 4.173093207679869  6.176866232313984 3.184004881907993 4.106478244363474  6.16564423362011 3.231549179890183 4.170027604433463  6.307690932586271 3.159980122447353 4.242322252962291  6.170687321591533 3.104742252377249 4.259376589193205  6.154475524220183 3.27893471163188 4.233590726972839  6.29781139609841 3.201449543085846 4.311481736250828  6.159475987540673 3.142650934910769 4.331229681451725  6.143367999833784 3.32625788524498 4.297135260652376  6.287979268715788 3.24284663597257 4.380588098312922  6.148311103771205 3.180495746756204 4.403033742204684  6.13229921853786 3.373549529611451 4.360662833988947  6.278180151926724 3.284186565927563 4.449659809154163  6.137183046381238 3.218293873462593 4.474804868464931  6.121243857502795 3.420822529710338 4.424182131057406  6.268395574142829 3.325467436089535 4.518713220382522  6.126076011687384 3.256051341191584 4.546559203597694  6.110169410435527 3.468094027634529 4.487692864051387  6.258613334383404 3.366680657234195 4.587767526533739  6.114956448506669 3.293767217730703 4.618312163111175  5.988389494597752 3.67216579398958 3.45471251260222  5.923718484658893 3.580413317116356 3.592936180489982  6.047911188612027 3.624464812241202 3.564270721451695  6.033019285027917 3.681705558722648 3.601653424301342  5.916519413966326 3.641216811034178 3.629139358235108  5.973382857983872 3.731074862273507 3.48687793136085  6.018123614751059 3.738962343726029 3.639214602453189  5.909151336036477 3.701949324097699 3.665555266764156  5.958350962553632 3.789968265367591 3.519198307103053  6.003251077332246 3.796254217381999 3.676875325257225  5.901737776278279 3.76270309162498 3.702084429225213  5.943325535912676 3.848927508267198 3.551625960432354  5.988417254501646 3.853631923034101 3.714581985221074  5.894379974486914 3.823565438279797 3.738642528063216  5.928324406596986 3.908012650133302 3.584104768666061  5.973581259778509 3.911201641385268 3.752342600039577  5.887172640490411 3.884611221576767 3.775222577136005  5.913362030915977 3.967347837713738 3.616639915845969  5.958811834992436 3.969306110083405 3.790254332466941  5.880352299155746 3.946004397658923 3.811814963565777  5.898517107126666 4.027220679819418 3.649274310506162  6.116539994999092 3.695370599746424 3.481444844739713  6.156026201262677 3.615445261798871 3.622413149878333  6.223717565736044 3.70079388724184 3.550671218280194  6.195220479755817 3.752146210654359 3.588290977884338  6.134750836751075 3.669598153806143 3.662056033884538  6.095593800106286 3.750668486813801 3.516219713965255  6.166980331448446 3.803628684711883 3.626092575850479  6.113620877672137 3.723781360480189 3.701873195932686  6.074767289259012 3.806048187308378 3.551130947562519  6.138876360458075 3.855191148719033 3.663987657699079  6.092582622968505 3.777988228650591 3.741784627186852  6.054014224489127 3.861514043646551 3.586140370573764  6.110797611822371 3.906816537236799 3.701940266183262  6.071595642005896 3.832258732010152 3.781736706344088  6.033268766237766 3.917058321538561 3.621212732166089  6.082597152276422 3.958539147049362 3.7399430064126  6.050578670029593 3.886663397815259 3.821727291895074  6.012428009480487 3.972734289383393 3.656332105912877  6.053847173414483 4.010352508789281 3.777990809169078  6.02924246325195 3.941349689356907 3.861823496589643  5.991292583378182 4.028739998738907 3.691564070278551  5.96038237745662 3.497913308852756 3.734761121281701  6.070121323842212 3.55531384335641 3.666376728615078  6.057429859079535 3.612387742559334 3.707034125088728  5.954544376653801 3.557854782286616 3.776685584037409  5.948565472657652 3.617685521141151 3.818823461356971  6.044720437087495 3.669478642023741 3.747895469286516  6.032031185523668 3.726553342621755 3.78885127701782  5.942571813466398 3.677546450526293 3.861060592087347  6.01939375945283 3.783690786226096 3.829845694263673  5.936629791847941 3.737484830512622 3.903323251038367  6.006764871807217 3.840961373971625 3.870867796635421  5.930812410921654 3.797610463818926 3.945625104244269  5.994209932358489 3.898672181405805 3.911989881017424  5.925329694686044 3.858110938568821 3.98794704562944  5.496390201294182 3.656509954652507 3.363710209361396  5.428171626862942 3.612354104091757 3.501037045934404  5.553034643435384 3.629078844354735 3.470793399220774  5.550971321440543 3.697412189601288 3.496441091502065  5.42438828589125 3.682357653966513 3.526139091372655  5.491913421640967 3.725803974396118 3.380776019974316  5.548562021276854 3.765663071114788 3.522366442457217  5.420337358582855 3.752272316025488 3.551457296388063  5.487118824656568 3.795066864466697 3.398160424256538  5.546129828507395 3.833986456924758 3.548342423171167  5.416235235136346 3.82218732835931 3.576818754200646  5.482301592257703 3.864422201022261 3.415591293538742  5.54379278560056 3.902395082082995 3.57429967750576  5.412198065597127 3.892118655555064 3.602147574431327  5.477567952945357 3.93388507751181 3.432983699566328  5.541677696852942 3.970884345679083 3.600172080482758  5.408315483318712 3.962058283145526 3.62738932692684  5.473029827560424 4.003448214599757 3.45025806477003
[...]
<PointData  Vectors="f_24"> 
<DataArray  type="Float64"  Name="f_24"  NumberOfComponents="3" format="ascii">-3.7789917306462996e-04 1.4193971838499764e-01 5.8116022861560791e-02  8.6010788162407651e-04 1.2557685856312992e-01 5.3189612463675373e-02  -1.7336601636568137e-03 1.3659350029690448e-01 5.7335341165692257e-02  -3.5559658271502225e-04 1.3266033145291203e-01 6.6188099901378000e-02  2.2631393861825820e-03 1.2077465191382418e-01 6.1914358774658937e-02  5.5539790088993666e-04 1.3852579357335068e-01 6.6848059890677394e-02  9.5370493348334931e-04 1.2871156705625794e-01 7.4399446365605262e-02  3.5865039605807820e-03 1.1609570920864895e-01 7.0096240259623147e-02  1.1379163523559154e-02 4.6901467528786319e-03 -8.0360229374981124e-03  1.0860121781898753e-02 1.4444281378325770e-02 4.7736237408756779e-03  1.0113942752121474e-02 1.1627288151328831e-02 6.0325190990672614e-05  8.3455690024576284e-03 1.7572575318093895e-02 -2.2659981367366658e-03  1.2923311953600003e-02 -5.0420257519138794e-04 -6.0636183701520156e-03  1.2618320076840599e-02 8.4012606028385142e-03 7.9016714670047047e-03  1.1855197057648975e-02 5.9385057304862819e-03 2.9381227749177901e-03  1.4468161923708360e-02 -5.6143334980963047e-03 -3.4744935471316659e-03  1.4394397150998340e-02 2.4514665236943251e-03 1.1579234301339548e-02  1.3581494445548414e-02 3.3749418743670193e-04 6.3743544398961217e-03  1.6054101171698091e-02 -1.0738764326843637e-02 -2.5578475419862261e-04  1.6220610728233401e-02 -3.5210467659016471e-03 1.5826340575739301e-02  1.5285409410087974e-02 -5.2611974695878179e-03 1.0433598707827559e-02  -1.6368776449489468e-03 5.7145763163627961e-02 8.0027163526706410e-03  -3.9301017904731471e-03 6.3098608680273477e-02 1.1170640881703510e-02  -4.7125194580138587e-03 7.2946785898964528e-02 1.7175755775269783e-02  -2.4596705761020456e-03 6.6632444693108667e-02 2.2601253305752609e-02  -1.6243521995717442e-03 5.6615902420198233e-02 1.6125094939214643e-02  5.3516020224815975e-04 5.0210899095857082e-02 1.2556679623725777e-02  6.5599159265466056e-04 5.0635869131811548e-02 2.0893482509861450e-02  2.6978153301415774e-03 4.3875343436126098e-02 1.7003749882073607e-02  -1.6864716948484495e-04 6.0675004637680101e-02 2.7836508718351551e-02  2.9119551607453202e-03 4.4962604121493062e-02 2.5683427957703318e-02  4.8397724726656184e-03 3.7915474015273939e-02 2.1563025823558568e-02  2.1237165362753877e-03 5.4968857272442960e-02 3.3052342824775656e-02  5.1346822507847816e-03 3.9413977674042699e-02 3.0647365940684387e-02  6.9497537150903736e-03 3.2129714160194278e-02 2.6375032577592154e-02  4.3999262031720271e-03 4.9353212956081124e-02 3.8404480834464377e-02  7.3072533201789316e-03 3.3817902406924283e-02 3.5929945700078625e-02  9.0104660890972903e-03 2.6346563824569416e-02 3.1566955800045225e-02  6.6368938895642673e-03 4.3671487543641530e-02 4.4042437922613732e-02  1.0993325108344490e-02 2.0434018480027499e-02 3.7278707277567089e-02  9.3737882959502358e-03 2.8022768509013023e-02 4.1682406100984982e-02  8.7836481326831715e-03 3.7787568851595239e-02 5.0158214242329718e-02  4.1747850612204734e-03 6.8009911262234893e-02 2.5247992445456460e-02  6.6994140676303491e-03 5.1093076619443810e-02 1.3927903143301532e-02  4.3473558326712521e-03 5.8370945110104017e-02 1.7287934442283864e-02  6.3447784719786538e-03 5.0046682179101319e-02 2.1267306190742023e-02  8.6480727112607982e-03 4.2690481039888969e-02 1.7284827977480439e-02  6.2615154303861430e-03 5.9768250720214050e-02 3.0398793507079500e-02  1.0546867863623651e-02 3.5025078044649702e-02 2.0989312792830062e-02  8.3021915681796218e-03 5.2179670608762496e-02 3.5670242537081821e-02  8.3361351355436073e-03 4.2387527971680335e-02 2.5486171663894917e-02  1.0320752990902869e-02 4.4993008354441887e-02 4.1142664599779312e-02  1.2424160740788826e-02 2.7830331876408716e-02 2.5096143626862123e-02  1.0329443084395304e-02 3.5144204652136329e-02 2.9982952858040583e-02  1.2323786722880427e-02 3.7991705108014882e-02 4.6877289602848690e-02  1.4288615587739154e-02 2.0869929922255739e-02 2.9605865648729062e-02  1.2322189428435913e-02 2.8129860620722147e-02 3.4812889760176047e-02  1.4320962315450244e-02 3.1041816484600707e-02 5.2924547624010124e-02  1.6155945100038011e-02 1.3990910252141268e-02 3.4524052301092983e-02  1.4331279164148017e-02 2.1195331884587387e-02 4.0017883195164736e-02  1.6313306045686492e-02 2.4038774656738978e-02 5.9315078454243289e-02  1.8033757332161088e-02 7.0692178852239385e-03 3.9836509682459956e-02  1.6383178763985030e-02 1.4216493890698298e-02 4.5611205842542780e-02  2.4278500345111206e-03 1.0848842786436604e-01 4.7281117231661743e-02  4.7460102641595399e-03 8.7723115578099572e-02 3.7388542946375690e-02  1.1163956538060768e-03 1.0636061270371010e-01 4.6802396019984434e-02  3.1202084646935937e-03 9.9934934273657600e-02 5.4871803304351228e-02  6.7570662163079429e-03 8.0189039053018954e-02 4.4339814175163098e-02  4.2015039001837258e-03 1.0228560079075139e-01 5.5451812646012975e-02  4.9802444111872214e-03 9.3864956494065635e-02 6.2576620948410572e-02  8.6115635376195730e-03 7.3187726278733253e-02 5.1135354682166616e-02  5.8504486090552050e-03 9.6413163996915144e-02 6.3245946135195172e-02  6.7806665470510610e-03 8.7945928279192176e-02 7.0161094409087479e-02  1.0374662709041771e-02 6.6484003882283357e-02 5.7958919742417486e-02  7.4437227739979767e-03 9.0674995816521456e-02 7.0921255067624589e-02  8.5696423535673322e-03 8.2054028803731374e-02 7.7802648947700753e-02  1.2087127839685050e-02 5.9900015079921522e-02 6.4941185068589688e-02  9.0337226184825543e-03 8.4939682076869916e-02 7.8671350821859373e-02  1.0376630410438435e-02 7.6102348241709028e-02 8.5630469442685320e-02  1.3773392208546524e-02 5.3310971163676536e-02 7.2178209860338918e-02  1.0652337454667966e-02 7.9119325567534510e-02 8.6637280754062782e-02  1.2215552292182663e-02 7.0026376036624746e-02 9.3740865148634667e-02  1.5445804762666810e-02 4.6635082324857524e-02 7.9753898360721720e-02  1.2318920709897457e-02 7.3171479270160406e-02 9.4910566202961663e-02  3.4076374061311789e-03 2.0496911999114686e-02 -1.2741148570227215e-02  1.9746571731223796e-03 2.2600048512649840e-02 -1.2161113451876364e-02  1.3799174616556738e-03 3.3433348519471835e-02 -5.6730552704882505e-03  3.4766076096840650e-03 2.6462171693843333e-02 -3.3465643145746027e-03  3.9685636322887930e-03 1.6091084391042822e-02 -1.1289867154700891e-02  5.3685559358741496e-03 1.4144899554806835e-02 -1.2439349424190574e-02  5.4976218728134060e-03 2.0340427642225940e-02 -7.4502811929897013e-04  5.8682443958388182e-03 1.0489326377885941e-02 -9.8408964272300725e-03  7.2203064341186344e-03 8.5784143513151622e-03 -1.1359357040962052e-02  7.4465860796913454e-03 1.4705015414860408e-02 2.2472066721392334e-03  7.6815203587362654e-03 5.3666265397080788e-03 -7.8314761987577485e-03  8.9680294586604193e-03 3.4727289063423449e-03 -9.6496109146051515e-03  9.3252567050024424e-03 9.2890037975359181e-03 5.6894828211829620e-03  9.4083262882501996e-03 4.6312460801490690e-04 -5.2839191232432990e-03  1.0630081203095373e-02 -1.4089491698264622e-03 -7.3493537236899546e-03  1.1122003263277704e-02 3.9200695750640962e-03 9.6255199906050762e-03  1.1044493917400531e-02 -4.3870131169392902e-03 -2.2146417073785085e-03  1.2197220372853717e-02 -6.2215598590314629e-03 -4.4771380227238032e-03  1.2808488943434351e-02 -1.5163284600818274e-03 1.4098150332929070e-02  1.2575935955936379e-02 -9.2796339297028657e-03 1.3894394032612583e-03  1.3626815854218734e-02 -1.1077599887138362e-02 -1.0721451046404769e-03  -1.5292458892401014e-02 1.1934192857927764e-01 4.0712259443196001e-02  -1.0955113844541328e-02 1.0523228501777941e-01 3.4186864761269607e-02  -1.2659735204063220e-02 1.0574459610712003e-01 3.4538580394770355e-02  -1.0022490899169735e-02 1.0141986493102430e-01 4.0538866753941701e-02  -8.4250928849078123e-03 1.0048428810103285e-01 4.0606351359952296e-02  -1.2564952021674762e-02 1.1589343277647060e-01 4.6920760724281418e-02  -7.4261098587420629e-03 9.7130102145347980e-02 4.6315020197036670e-02  -5.9099910507745251e-03 9.5863100632208972e-02 4.6729800310453457e-02  -9.9083747862426901e-03 1.1241315050350373e-01 5.2831890610848781e-02  -4.8444110036520742e-03 9.2827376434766781e-02 5.1965163440537698e-02  -3.4061257390812782e-03 9.1292384974906451e-02 5.2717560820356606e-02  -7.2784975168237037e-03 1.0884592379541405e-01 5.8595359356879179e-02  -2.2570591831772018e-03 8.8446782306999774e-02 5.7601526919622885e-02  -9.0043513275679394e-04 8.6662383313832844e-02 5.8707588712864966e-02  -4.6349985796059019e-03 1.0513139013636721e-01 6.4337604015994851e-02  3.6175059821847886e-04 8.3885155828589700e-02 6.3349261431318984e-02  1.6093953182843978e-03 8.1850721582485020e-02 6.4853886897212262e-02  -1.9308652640625211e-03 1.0118033191304245e-01 7.0185604480605721e-02  3.0302058961073461e-03 7.8951266689558083e-02 6.9383586447524070e-02  4.0939905081659725e-03 7.6680414391580784e-02 7.1345039730254342e-02  8.8796762940988871e-04 9.6826623931315914e-02 7.6269796112401991e-02  -1.5163240237413925e-02 1.1293259016654524e-01 3.8564844352228678e-02  -1.1698549560123665e-02 9.6786562810450588e-02 3.0410996211055676e-02  -1.3567008765023833e-02 1.0288023919544087e-01 3.5650167405319413e-02  -1.0933126514726898e-02 9.9259794142308816e-02 4.1135989761332155e-02  -9.1247074118924586e-03 9.2336451454422749e-02 3.6133845926932980e-02  -1.2467658777101329e-02 1.0949439866610040e-01 4.4331013821303805e-02  -8.3380323502916104e-03 9.5603837806140221e-02 4.6420229152332425e-02  -6.5720310283714682e-03 8.7946755165485363e-02 4.1645013257342517e-02  -9.8310417765665199e-03 1.0601223622241479e-01 4.9862465712603436e-02  -5.7661276722991350e-03 9.1891176368245481e-02 5.1616452334696847e-02  -4.0307576039155940e-03 8.3575030218009522e-02 4.7048601778237643e-02  -7.2198821145700821e-03 1.0245658591260612e-01 5.5264342114472127e-02  -3.1791364294618939e-03 8.8089723946955703e-02 5.6806866660334493e-02  -1.4866098730789668e-03 7.9154977722765460e-02 5.2454206724362351e-02  -4.5958084304280108e-03 9.8792857023904099e-02 6.0624207314807770e-02  -5.1940873778645396e-04 8.4157266612943760e-02 6.2053634693766638e-02  1.0870924959008330e-03 7.4592267299186832e-02 5.7962236343695302e-02  -1.9020071314927943e-03 9.4971555983804801e-02 6.6021148744017710e-02  2.3192530301087005e-03 8.0050697559752207e-02 6.7351624830240306e-02  3.7409703801038756e-03 6.9755352931923476e-02 6.3659622324137591e-02  9.6224343440597809e-04 9.0844668268127149e-02 7.1567178425082908e-02  -7.0367281056199138e-03 8.6841900760969495e-02 2.5321954955137182e-02  -1.0053606235637570e-02 9.3459579262632250e-02 2.7506196289516501e-02  -7.5630939589262751e-03 8.8396904716910377e-02 3.3406328508203804e-02  -4.6940425047572627e-03 8.1109272096953344e-02 3.1360104711880908e-02  -2.3288017053675640e-03 7.5669087601504384e-02 3.7140718591536406e-02  -5.0794951886249124e-03 8.3467625183253805e-02 3.9066346121974710e-02  -2.5968782513554728e-03 7.8622964277827667e-02 4.4609367665125146e-02  4.3946302391212557e-05 7.0394344408417825e-02 4.2848821744592425e-02  -1.2048570495985661e-04 7.3778478833432193e-02 5.0159414006931441e-02  2.4155089946025611e-03 6.5137210088710790e-02 4.8630901856260518e-02  2.3601809996021150e-03 6.8813229792348107e-02 5.5850781490245791e-02  4.7713450936421580e-03 5.9746249261065261e-02 5.4644710163819638e-02  4.8393657588435557e-03 6.3479588326982056e-02 6.1860723219254683e-02  7.0474389048400393e-03 5.4088937315225558e-02 6.1127825883919983e-02  -1.2721760687721358e-02 1.4284718015558737e-01 5.4927853574022870e-02  -7.8520699642781362e-03 1.2689348238290538e-01 5.2199530773397292e-02  -1.0248751677399255e-02 1.2828835386048296e-01 5.0267658065429564e-02  -7.8309877679785794e-03 1.2447409462050707e-01 5.8102099826289000e-02  -5.5875408245279071e-03 1.2290383640042421e-01 6.0541760865736295e-02  -1.0372099846656300e-02 1.4055816583244995e-01 6.2855886553850701e-02  -5.4639713256645480e-03 1.2068010249854694e-01 6.5468107776278206e-02  -3.3904287859084204e-03 1.1899623185153711e-01 6.8387507439081383e-02  -8.1196460638881217e-03 1.3806176357689978e-01 7.0208626490595546e-02  -3.1368786012681044e-03 1.1677007808332750e-01 7.2642756568347649e-02  -1.2271659663479768e-03 1.1501269572958338e-01 7.6036373032550619e-02  -5.9149870469256292e-03 1.3531173744599032e-01 7.7339214130702966e-02  -8.3304125867041513e-04 1.1267057993115001e-01 7.9863042727589054e-02  9.1589031696744485e-04 1.1086719307390115e-01 8.3726628619674948e-02  -3.7353328313472467e-03 1.3225668998165976e-01 8.4519094347400792e-02  1.4432556963331505e-03 1.0833829421769149e-01 8.7318560333560516e-02  3.0434352000598833e-03 1.0652691289062960e-01 9.1642467651192411e-02  -1.5799455276530431e-03 1.2887866413374174e-01 9.1981653764974622e-02  3.6661767403018334e-03 1.0377437362402014e-01 9.5140561944453764e-02  5.1561031159462149e-03 1.0199371750421195e-01 9.9934979488231754e-02  -7.5625387937410026e-04 4.6347578165616937e-02 1.8297811704715344e-03  1.4396351185582044e-03 3.9415053023511053e-02 5.6098901127099492e-03  3.5830159827208597e-03 3.3234219983493268e-02 9.4169262156446314e-03  5.6742647850335842e-03 2.7473189027627031e-02 1.3422043678248962e-02  7.7110604864303930e-03 2.1893805648265798e-02 1.7747469240541058e-02  9.6791085687369747e-03 1.6315688508908605e-02 2.2497346212769269e-02  1.1546714740363900e-02 1.0600716331288907e-02 2.7771627950466993e-02  1.7888094423581621e-02 2.4051023697216376e-02 5.9850170880945089e-02  1.6745006462320574e-02 3.7485737821008391e-02 7.1060834098102821e-02  -5.2936994329228276e-03 1.0985738532334417e-01 4.5206008128399561e-02  -2.9599380478702569e-03 1.0425380793000165e-01 5.2879678503664547e-02  -6.6127154880871218e-04 9.8947260789028435e-02 6.0237889945450110e-02  1.6114877138023154e-03 9.3702728522323503e-02 6.7495968600137235e-02  3.8614540996749513e-03 8.8408064704222911e-02 7.4825279412038745e-02  6.0857361019333780e-03 8.3005167392570842e-02 8.2360010445927570e-02  8.2849469313154619e-03 7.7487275067044892e-02 9.0200902022304144e-02  1.7945167325128578e-03 7.6656292973813420e-02 2.9353242384851461e-02  1.8551870240614175e-03 8.5512821383537718e-02 3.6036626277272457e-02  4.0360958636879258e-03 7.7846438255010364e-02 4.2608644592537340e-02  3.9567504528761899e-03 6.8811654440493211e-02 3.5184742524080173e-02  6.1485327824125384e-03 7.0686901661511092e-02 4.9091278747221113e-02  6.0831351349336718e-03 6.1531436872027584e-02 4.0999927223229475e-02  8.2187835894376171e-03 6.3823752931352687e-02 5.5615584393930599e-02  8.1997086390709906e-03 5.4576003088734913e-02 4.6933887859693303e-02  1.0267756193524479e-02 5.7093417830377767e-02 6.2292242400560811e-02  1.0308076746724076e-02 4.7774873586854179e-02 5.3077112215695554e-02  1.2308305671076953e-02 5.0379722613537639e-02 6.9202433791116319e-02  1.2413302993664414e-02 4.1001676079758187e-02 5.9495583789073936e-02  1.4350178442429737e-02 4.3593132880766612e-02 7.6399493348675629e-02  1.4516418155053704e-02 3.4157388735580045e-02 6.6223648996570600e-02  -1.0978182761857920e-02 8.9497054470674825e-02 2.9446617733057734e-02  -8.3939012542739513e-03 7.5110837949559278e-02 2.1154522801533394e-02  -1.0408085199693865e-02 8.3146555674985967e-02 2.9090507541297432e-02  -8.3700087324983033e-03 8.4989368630494166e-02 3.4703917582046252e-02  -5.8380884136524690e-03 6.9764402356238750e-02 2.6045644017813171e-02  -7.7490293546066905e-03 7.8462738135023968e-02 3.3798908243611397e-02  -5.8192800677525584e-03 8.0536942328582953e-02 3.9791746171404505e-02  -3.3505916868932857e-03 6.4582181019461560e-02 3.0757359340346565e-02  -5.1967043618132442e-03 7.3790200439273188e-02 3.8351920014627935e-02  -3.3008606621387519e-03 7.6095161282654949e-02 4.4801888461831071e-02  -9.1298901932767185e-04 5.9507197171498959e-02 3.5420534527805338e-02  -2.7160690068466463e-03 6.9129187927080032e-02 4.2851786100843690e-02  -7.8354535797424787e-04 7.1614676265392793e-02 4.9821654405954742e-02  1.4964514817837947e-03 5.4457690765264938e-02 4.0138931412485764e-02  6.1959109572655999e-03 6.1946413647608216e-02 2.2031180601186359e-02  8.2172898517750698e-03 5.3546044629468152e-02 2.6651449447203605e-02  1.0192912736330802e-02 4.5831097143699318e-02 3.1460621601227319e-02  1.2107470859799097e-02 3.8550931341910843e-02 3.6539068469930915e-02  1.3982758420613531e-02 3.1487990303398182e-02 4.1934880214557047e-02  1.5833970332187541e-02 2.4490341443088245e-02 4.7674353986277077e-02  1.7675211312840482e-02 1.7443960149654127e-02 5.3774660988564552e-02  -2.0556987798810910e-03 6.6491227244463338e-02 1.4625694428742078e-02  9.8295444772712401e-05 5.9482128877612249e-02 1.9627615204618670e-02  2.2693539353360196e-03 5.2981180267557958e-02 2.4519331865686396e-02  4.4475691149301081e-03 4.6800617697184965e-02 2.9471662443632862e-02  6.6087642487808749e-03 4.0771817114195710e-02 3.4630606327816844e-02  8.7405557748481289e-03 3.4742986411551977e-02 4.0126607917956275e-02  1.0840234640174638e-02 2.8578493352306712e-02 4.6099141129392576e-02  -1.6955575830344002e-02 1.1919679203933421e-01 4.3356407819937839e-02  -1.4604346142729922e-02 1.0766494038868404e-01 4.0941299344474782e-02  -1.4262775030375846e-02 1.1679242714983451e-01 4.8688092165354246e-02  -1.1928185004413325e-02 1.0462042801280674e-01 4.6029979519848170e-02  -1.1634144256334257e-02 1.1424220074050032e-01 5.3832859849083925e-02  -9.3239568320950261e-03 1.0146037912813588e-01 5.0963306609142271e-02  -9.0285222114582005e-03 1.1154423170530840e-01 5.8877796022962746e-02  -6.7467067699593401e-03 9.8195434535575013e-02 5.5823120886160350e-02  -6.3832389881662618e-03 1.0869864692653866e-01 6.3895802892413756e-02  -4.1379534195744149e-03 9.4833283069833907e-02 6.0662625565778568e-02  -3.6103190555881719e-03 1.0571002122857544e-01 6.8931823171782300e-02  -1.4108106661405333e-03 9.1387049171344562e-02 6.5501649569443474e-02  -5.6792020079265949e-04 1.0262580149823460e-01 7.3940150424319687e-02  1.5537194405270890e-03 8.7917756498532063e-02 7.0342242146333334e-02  4.6743149380333556e-03 1.8186842581578981e-02 -1.3840649330319461e-02  2.7586354338708756e-03 3.0942219843721901e-02 -6.7409558222225876e-03  4.7950473774057032e-03 2.3910834207712030e-02 -5.0913114518011133e-03  6.4917188500206516e-03 1.2033110918849187e-02 -1.4289875429169220e-02  8.2167096195994785e-03 6.6263811645323641e-03 -1.3911128204182032e-02  6.7401647615905865e-03 1.7692492248975608e-02 -3.0155651522063534e-03  9.8470662839489648e-03 1.7010316420957869e-03 -1.2770977897750951e-02  8.6081724257527688e-03 1.1983040608260427e-02 -4.3961574879783464e-04  1.1395077611431629e-02 -2.9944177859941197e-03 -1.0973117403957591e-02  1.0411662521178325e-02 6.5137916670885794e-03 2.6421948075481660e-03  1.2868138033000250e-02 -7.6130529932726988e-03 -8.5706979419136620e-03  1.2144776908290909e-02 1.1151820857835237e-03 6.2559312723312766e-03  1.4263299058112853e-02 -1.2238294133002382e-02 -5.5281906782660420e-03  1.3785982189786146e-02 -4.2808514395930568e-03 1.0458568037659665e-02  3.4525228510328305e-03 8.7927024729908362e-02 3.8371376077295287e-02  5.5823260368472712e-03 8.0411356734550327e-02 4.5343329878112355e-02  7.5552954298183104e-03 7.3445085638768545e-02 5.2203163595062205e-02  9.4579215978235123e-03 6.6756372452292906e-02 5.9085444273793961e-02  1.1324374101227930e-02 6.0180277339061748e-02 6.6115962112156423e-02  1.3175243073510192e-02 5.3600464284868421e-02 7.3386054304186252e-02  1.5016064487260920e-02 4.6952287513001963e-02 8.0956705580433788e-02  4.5857691529390980e-03 3.1291296121585509e-02 -5.2471441371167958e-03  5.6344610898910706e-03 1.9967538434825075e-02 -1.2010855617331931e-02  4.2353642575794805e-03 2.7695197987132499e-02 -7.8045514751795943e-03  6.1501033005148323e-03 2.0727509335437534e-02 -6.8361269247866506e-03  7.4629563138041118e-03 1.3610675951289224e-02 -1.2385505114186899e-02  6.5157445501870439e-03 2.4014745823019951e-02 -4.0346625096988643e-03  7.9853987102533434e-03 1.4578496295242062e-02 -5.2230296604473363e-03  9.1421421478697380e-03 8.0653725623648330e-03 -1.1860004817192051e-02  9