<?xml version="1.0"?>
<VTKFile type="UnstructuredGrid"  version="0.1"  >
<UnstructuredGrid>
<Piece  NumberOfPoints="710" NumberOfCells="2979">
<Points>
<DataArray  type="Float64"  NumberOfComponents="3"  format="ascii">6.136166158715032 3.822571241300565 3.274886713764307  6.222709764726726 3.903240936330124 3.233301474856872  6.159754876272062 3.893551683049547 3.147282827938702  6.124341676795716 3.944699879429323 3.168865309765043  6.185014255098896 3.953153403802282 3.258233508213139  6.105755736591256 3.876258330530458 3.300292664108877  6.075609419627858 3.930134289264108 3.32573086346799  6.147660909661735 4.003454231840695 3.283207162570597  6.089237524357851 3.996198876695072 3.190469208989109  6.045545838065894 3.984212870036775 3.351248995851003  6.110405055972965 4.053934815241482 3.308259444701666  6.054216409314396 4.04792004140217 3.212155883768835  6.0154319766718 4.038395630702425 3.376848665546305  6.073073968944207 4.10450700499042 3.333379983959187  6.019111480349337 4.099765041198624 3.233916986313173  5.983742961802297 4.151664299348034 3.255712749459991  6.035459349720901 4.155098954266355 3.358541155388977  5.98509901820474 4.092702798264269 3.402504169489289  5.947713189505186 4.203452815253006 3.277561785392614  5.997129415149553 4.205497362368132 3.38373999971797  5.954215323704203 4.147139456752471 3.428239807947751  6.033015285135861 3.957036522866772 2.485090290710156  6.005692477651858 3.926858314443983 2.623887975571126  6.112815556335619 4.004067308679018 2.582912431269406  6.077059231394999 4.055807499475136 2.587836388054631  5.971395285136457 3.977868932939475 2.631269583228787  5.999000536452023 4.008912784416517 2.488498219165445  5.937427766078018 4.029320697335232 2.638608184443515  5.965309347618031 4.061246353196456 2.491892539814128  6.041601041523227 4.108002364920687 2.592736643536631  5.903408171802544 4.081026352057269 2.645988212187662  5.931637217254336 4.113833288957746 2.495315822428493  6.006205339646885 4.160430608382407 2.597666101272193  5.869205130155776 4.13288713359384 2.653404401193326  5.897812226331258 4.166510854488606 2.498774558822274  5.970693063381772 4.212922607886663 2.60263233786044  5.863664498807376 4.219155985289006 2.50227033297276  5.834576158437923 4.184812660410462 2.660871594161703  5.934925120226441 4.265309579643115 2.607647934454209  5.828981811865893 4.271613139161663 2.505804412856929  5.799329108731897 4.236589667773156 2.66842964571068  5.898669936146946 4.31743923815168 2.612704219009634  5.733735295330242 4.031395138303977 2.023438990853864  5.657719962393249 4.013329018849689 1.879796099278702  5.778527954554974 4.053002277878773 1.87595975212305  5.678458264204282 3.950848401921297 1.881984508684221  5.757863397661137 3.972066691355431 2.023004902997647  5.756574290363064 4.115039113589663 1.871038938640301  5.709496580552551 4.090938281862366 2.023903721333174  5.63687485596162 4.076058113086777 1.877635368296881  5.734416551590543 4.177160160692333 1.866189116335573  5.684969130886293 4.150628773730016 2.024470152911679  5.61574591094383 4.13903302613814 1.875592713633348  5.711913845365187 4.23930759525157 1.861463614401032  5.659920163350006 4.210397463308258 2.025213336134686  5.594146706867406 4.202213845138335 1.873748808674332  5.503816972730406 3.717745363490922 2.446694785063803  5.608876105370785 3.753622772771769 2.329880235840471  5.475060755578077 3.720138047809851 2.324768893597981  5.46316265760479 3.778037997413046 2.328494914240889  5.591216155660037 3.810208239556239 2.335248452937499  5.492629250691381 3.775703699126632 2.450275699188259  5.48151216689492 3.83387227392096 2.453987056365051  5.573726683345972 3.867168672328784 2.340654975647356  5.451324847591845 3.836300534791802 2.332304486002881  5.470332435309651 3.892379048185086 2.457747531513054  5.556184580138972 3.924445182062482 2.346113330518509  5.439428264594548 3.894896545693953 2.336171609523839  5.538491619331985 3.982020471717504 2.351597708200103  5.459021590550446 3.95127805952368 2.461525646150141  5.427415743970467 3.953902475649028 2.340066515079156  5.520542130513414 4.040031866005188 2.357139304854186  5.447568455190455 4.010649953934611 2.465275325420519  5.415254841554984 4.013385387946191 2.344005843177225  5.502149290133665 4.098618274431161 2.362833189573159  5.436041137504592 4.070716606904687 2.46899353617808  5.402841018197978 4.073551769840385 2.34798261690842  5.955816304409664 3.812396134582933 3.027939686655101  5.994743245626038 3.862953996096322 2.905567548624556  5.875984398046093 3.804916230683712 2.909106148925267  5.851100558697389 3.860999373930781 2.919387908605414  5.963665835130034 3.916096941122914 2.916855671831525  5.929275401211817 3.868270289129236 3.041942431692714  5.902890644539897 3.924369386407581 3.056003953511937  5.932802737370827 3.96962159313811 2.928153402521537  5.826318119382653 3.917399927362311 2.929766630691297  5.876541950230967 3.980701159118842 3.070116072324304  5.901953521222571 4.023384263549272 2.939498381853149  5.801534736075917 3.97403873456064 2.940181960933346  5.850093548341252 4.037215538451929 3.084281561915555  5.870968425970766 4.077334156628556 2.950896140820355  5.77662839005212 4.030911833021201 2.950629523213366  5.823444306969642 4.093945757820519 3.098445621084384  5.839680129815836 4.131457168770607 2.962342058503137  5.75150593587099 4.088104616561759 2.961050930445106  5.807797936915681 4.185674342417721 2.973823407464133  5.796237328913136 4.151067134807614 3.112609752199065  5.725873517385177 4.145868147524881 2.971472667456308  5.907275941645332 3.765583004466432 3.152838751031717  5.831658128152075 3.768521863212402 2.999702724986903  5.811494161657934 3.827340031894322 3.009837606737384  5.886592415784807 3.825406042908241 3.167891319348152  5.791351720356103 3.886376667343137 3.020110608501883  5.865951522939557 3.885343721285208 3.183056322732894  5.771201209676156 3.945635122019731 3.030453300198979  5.845290971821086 3.945459205943873 3.198294062007385  5.750961604329127 4.005113546939129 3.040836725208018  5.824570969300063 4.005770065971142 3.213578319648778  5.730611817838883 4.064901308836649 3.051187391622388  5.803748198952219 4.066394827001088 3.228870462929969  5.710191168680228 4.125231177058276 3.061443867287865  5.782831920421403 4.127635757659182 3.244100145007581  5.988848805943825 4.282066803763691 1.900507104645354  5.928173005631683 4.243627742553975 1.793236940378828  6.047290040468973 4.271335649023044 1.710234757099518  5.950527930260407 4.182132721272498 1.804182341986012  6.013511050077674 4.222528469848848 1.911020279065448  6.02731156843045 4.332478156754011 1.693585538122784  5.963837950846921 4.341404400016172 1.890000941346344  5.905498391559152 4.305040313521369 1.782307834392505  6.280491086515354 4.117740947791112 2.663498268874296  6.296397624963699 4.105411086288909 2.831994576040755  6.365077596748239 4.174020413317361 2.740937593059936  6.327128890187447 4.230689257558859 2.746786595650759  6.256338764132637 4.158095285805604 2.842701128357591  6.24274054661562 4.171912704514685 2.668015685283197  6.289715395711887 4.287549697958701 2.752543517139334  6.216682890509758 4.21113877381593 2.853334023670448  6.205451846345365 4.22635626504315 2.672453405062706  6.252561326600092 4.344418015933704 2.758294252855424  6.17721254944169 4.264329591939813 2.863981484426617  6.168401081669483 4.280904509198016 2.676889838263557  6.21546370304655 4.401173984810493 2.764072637404557  6.137747695182673 4.317491287944208 2.874677857363377  6.13138494054353 4.335406689301482 2.681377099110424  5.650758274975062 3.734831860289661 2.753530940741861  5.75955990230649 3.761440407434661 2.865362909851531  5.769475518690051 3.780374744619796 2.735131183817155  5.746681744242399 3.836121371658344 2.740597160443508  5.739492989062611 3.819191804805048 2.871635574480625  5.635020778536047 3.793012726165429 2.757115195607874  5.724006967870227 3.892179214122858 2.746182590507337  5.719438053977131 3.877255683958189 2.878030905725432  5.619286951362961 3.851473518471013 2.760872380685994  5.701283290005815 3.948507366076147 2.751778517475185  5.699360196848231 3.935574495563808 2.88448283864084  5.603474947114993 3.910208851723247 2.76468280395189  5.67842144894999 4.005122696685859 2.757373251251521  5.679192504346584 3.994158667792446 2.890938184003399  5.587580140287698 3.969244384297457 2.7684713328207  5.655314687153137 4.062118530899368 2.762920974057126  5.658895138899919 4.05308429337381 2.89731930337835  5.571582000642414 4.028643942018262 2.77217207568438  5.631713733235466 4.119638167038427 2.768382653529414  5.63839289926868 4.112534519869802 2.90354270142397  5.555464407182222 4.088630011039942 2.775681235393195  5.432086804788863 3.725551223670982 2.083418426908465  5.373383869337287 3.707325480774589 2.234984843767408  5.510190167420771 3.736054196303498 2.198178329437145  5.49546445240573 3.794031755337168 2.202570758182116  5.364752969996205 3.766177578993104 2.238336198441971  5.41990163934229 3.785182598348436 2.087194526977004  5.480833527520605 3.852444552378924 2.206976319959705  5.356163865390113 3.825293185352383 2.241754889218101  5.407785111783633 3.845148725209032 2.090938757008863  5.466158124133659 3.91122904339598 2.211420438340918  5.347530500223264 3.88481953240729 2.245214002171014  5.395641546148254 3.905490113743769 2.094700314066865  5.451363292160784 3.970393782439534 2.215905839310377  5.338806040483099 3.944752136216885 2.248707234585976  5.383396460404095 3.966222331670606 2.098517855264732  5.436360838448304 4.029977204798141 2.220479948354265  5.329969017448806 4.005144584399792 2.252248339895806  5.370973888055492 4.027397562826971 2.102457293030227  5.420969128663419 4.090046159999485 2.225243960424578  5.321045550244237 4.066087066847752 2.255866553297248  5.358204159925323 4.089157358235858 2.106621516431397  6.075145378582302 3.882265396221322 3.040772027601136  6.041574170566144 3.934710854235421 3.05
[...]
<PointData  Vectors="f_24"> 
<DataArray  type="Float64"  Name="f_24"  NumberOfComponents="3" format="ascii">-2.4077109797664076e-02 1.1571082184657966e-01 5.6272491940316777e-02  -2.5836797684326271e-02 1.1337536408349111e-01 5.6646357309970898e-02  -2.8223847356459740e-02 1.2456286788675726e-01 5.8062491134780722e-02  -2.4622246906291008e-02 1.2521339186408598e-01 6.2192548269274402e-02  -2.2514543133150697e-02 1.1362434903227391e-01 6.0773693995643543e-02  -2.0932435131188268e-02 1.1515214100787817e-01 6.0976921853226326e-02  -1.8531797065669986e-02 1.1497543637193651e-01 6.4370594662292835e-02  -2.0045671857502480e-02 1.1393060432845808e-01 6.4057274488309598e-02  -2.2012325129970828e-02 1.2583473388068875e-01 6.5265639862179564e-02  -1.6303712212685964e-02 1.1485803325454863e-01 6.7644564071564064e-02  -1.7754212326982641e-02 1.1425094127474317e-01 6.7401333036819583e-02  -1.9783081800791025e-02 1.2640535125434091e-01 6.8324487277979046e-02  -1.3908645190635291e-02 1.1465930710270071e-01 7.1211566349855301e-02  -1.4966833942466978e-02 1.1488335680604050e-01 7.0958231971389146e-02  -1.7190763555221748e-02 1.2712455966645772e-01 7.1807006509212470e-02  -1.4708688925367478e-02 1.2654532772581387e-01 7.7774236990344248e-02  -1.2253209365447578e-02 1.1461673522865221e-01 7.6175411528080231e-02  -1.1144914596541090e-02 1.1363326329101989e-01 7.6373099192055538e-02  -1.1163554375026282e-02 1.2730815604475232e-01 8.1652584476979928e-02  -9.2970942666234253e-03 1.1440719998931988e-01 8.1187799702468977e-02  -8.3111864125135649e-03 1.1213113672395293e-01 8.2349612357726185e-02  -3.8632005277971698e-02 1.5545585230344666e-01 5.6646536909916979e-02  -3.9061867998950672e-02 1.6025011913221729e-01 5.8966876248824282e-02  -3.8621427931607256e-02 1.4809141106344847e-01 5.4804620888423403e-02  -3.4604997004748277e-02 1.5125524687566952e-01 5.4927832269849819e-02  -3.5280697512676963e-02 1.6355733636146683e-01 5.9434440731377783e-02  -3.4995961904437961e-02 1.5866314535983547e-01 5.5445361897450210e-02  -3.2256940683763384e-02 1.6606394102856487e-01 6.0079537594497523e-02  -3.2207553895594862e-02 1.6098611619053682e-01 5.5078978420534934e-02  -3.1652403827606285e-02 1.5355637543660897e-01 5.5516053372309207e-02  -3.0079766618214585e-02 1.6813307703102817e-01 6.0832335737555240e-02  -3.0130977048640751e-02 1.6284348824121667e-01 5.5025443903473338e-02  -2.9559438782261242e-02 1.5535684908032366e-01 5.6164431722021860e-02  -2.7954848184961547e-02 1.7021667267405080e-01 6.1631168485360127e-02  -2.7808086008422359e-02 1.6488737306549722e-01 5.4621998969620701e-02  -2.6803159405118161e-02 1.5762826222974646e-01 5.6278343842720430e-02  -2.3874638481802254e-02 1.6748388823078181e-01 5.3108896713917636e-02  -2.4200119593413737e-02 1.7240274190646296e-01 6.2035630110929628e-02  -2.2861688424091378e-02 1.6045295538334009e-01 5.6141576913217993e-02  -1.9397859319590687e-02 1.6971149158082929e-01 5.1482076046215887e-02  -1.9687915028324586e-02 1.7476317267905014e-01 6.2263015957955248e-02  -1.8372805807011634e-02 1.6312397210917748e-01 5.5947315004178856e-02  -1.8093964921099923e-02 1.4001117868740520e-01 4.7432970658732157e-02  -1.1370943277495485e-02 1.2157791814759208e-01 4.6498906194610244e-02  -1.3620219383093860e-02 1.1619729135896519e-01 4.4723765315256757e-02  -1.2817551791394126e-02 1.2077729089889569e-01 5.0146813000091751e-02  -1.9630058448197169e-02 1.3890670706856079e-01 5.0363082247543198e-02  -1.1164927840234968e-02 1.1650818810296790e-01 3.9539975436502908e-02  -1.5981373055797658e-02 1.4091290488022820e-01 4.3109414193031083e-02  -9.3296501450314019e-03 1.2187359035102777e-01 4.0396231898576850e-02  -9.1346595386584354e-03 1.1585990466571887e-01 3.0857117928220365e-02  -1.3533199666852265e-02 1.4128370428423503e-01 3.5379251702737903e-02  -7.3121405920381823e-03 1.2155264556970340e-01 3.1063529731692175e-02  -6.9338000648279359e-03 1.1494756120178035e-01 2.1572876680011351e-02  -1.0926409757822509e-02 1.4116223032656308e-01 2.6890595042135975e-02  -5.3831729796239508e-03 1.2083752310721248e-01 2.0921735447160660e-02  -2.4679458101019149e-02 1.9566892159484353e-01 7.3805038569056527e-02  -2.6678367079320295e-02 1.8317219594105361e-01 7.1702694271575385e-02  -2.0493234225924046e-02 1.8924739423783779e-01 7.4888498416262925e-02  -1.9016800842313403e-02 1.9115310273859215e-01 7.0006744251239886e-02  -2.4703529801193114e-02 1.8541629539933419e-01 6.7153473851830181e-02  -2.2761574556506597e-02 1.9794530344030800e-01 7.0979544533148142e-02  -2.1239534052247124e-02 1.9946090828020202e-01 6.8680777919726932e-02  -2.3239638427007440e-02 1.8703932870692705e-01 6.3842174819910419e-02  -1.8042743841077975e-02 1.9244755429713103e-01 6.6353772381057413e-02  -2.0162922692213779e-02 2.0049264781818871e-01 6.7123832689055959e-02  -2.2146143979843762e-02 1.8834880907646545e-01 6.1732481991546108e-02  -1.7402494976611838e-02 1.9348243356843095e-01 6.3977638976053477e-02  -2.0898751586683147e-02 1.8954068081832487e-01 6.0104652128440600e-02  -1.9013870149547286e-02 2.0138449856029117e-01 6.5924185451535444e-02  -1.6458121285719281e-02 1.9443481195107851e-01 6.2111902919127028e-02  -1.8715336827216156e-02 1.9127061212212762e-01 5.7709513307460929e-02  -1.6696624606705665e-02 2.0271526242114479e-01 6.3588244770745456e-02  -1.4234160503594089e-02 1.9590071033438078e-01 5.9256752944074044e-02  -1.5848435923492200e-02 1.9239415850598562e-01 5.2345651020216849e-02  -1.4666567286385077e-02 2.0305687091232671e-01 6.0968249679837667e-02  -1.2494598089937983e-02 1.9627336200709067e-01 5.3665841158773292e-02  -2.9932204214741253e-02 1.4960394775126890e-01 6.1526638336555139e-02  -3.4600909199433982e-02 1.5419622191709031e-01 6.1229416326169045e-02  -3.2367061868908788e-02 1.6428751534693151e-01 6.3422896457690489e-02  -2.8784465797709810e-02 1.6572436459272505e-01 6.7324226785798372e-02  -3.0699935497695681e-02 1.5619029690135369e-01 6.4656796278977843e-02  -2.6362026419815585e-02 1.5042970563430724e-01 6.6040136358067561e-02  -2.3703956624067081e-02 1.5135472456654592e-01 6.8787160753688917e-02  -2.7730124968213851e-02 1.5794610471071815e-01 6.6820023197614320e-02  -2.5989911807959679e-02 1.6703491107606575e-01 6.9541579023325722e-02  -2.1591236886627587e-02 1.5218920577971831e-01 7.1100830954145960e-02  -2.5522264954240936e-02 1.5947303246369002e-01 6.8744778074990937e-02  -2.3830542700987414e-02 1.6820939737720511e-01 7.1256898279406095e-02  -1.9645317139672328e-02 1.5278953223098279e-01 7.3761995727054247e-02  -2.3338713547784776e-02 1.6099963912288626e-01 7.1129608342686543e-02  -2.2243312157073928e-02 1.6917513522755240e-01 7.3379929704133789e-02  -1.7552680903710517e-02 1.5282531154257215e-01 7.9015065571884105e-02  -2.0320039148505491e-02 1.6148335983286380e-01 7.4811937697446720e-02  -1.9391721774430989e-02 1.6929997062825891e-01 7.6896489235524043e-02  -1.6253526011626492e-02 1.6249317040033229e-01 7.8385693434109380e-02  -1.3892031942139543e-02 1.5281570645565515e-01 8.3879833254400557e-02  -1.5367053939172315e-02 1.6958621250062308e-01 8.1333662795573247e-02  -2.3812882265664352e-02 1.4156202799361225e-01 6.1025875321598456e-02  -2.8206626414469270e-02 1.6079926727548063e-01 6.3314336726518969e-02  -2.4909306155354811e-02 1.6146930517567148e-01 6.8237420302632246e-02  -2.0901837016295183e-02 1.4140555795314269e-01 6.6364558904919213e-02  -2.2475197662113845e-02 1.6222591815414705e-01 7.1054368803025306e-02  -1.8792243905101359e-02 1.4167987288463565e-01 6.9626246062725342e-02  -2.0525603979380233e-02 1.6289332826567710e-01 7.3074670524932356e-02  -1.6961246021077028e-02 1.4199539770198580e-01 7.2348248016342431e-02  -1.9093388027895286e-02 1.6324032283833009e-01 7.5406965702954937e-02  -1.5291078261919062e-02 1.4207721220569122e-01 7.5405697705376376e-02  -1.7375907598821447e-02 1.6361497497682190e-01 7.9644812789536890e-02  -1.3026731336037690e-02 1.4131110367875219e-01 8.0010157952599109e-02  -1.3627026485859093e-02 1.6307824674636626e-01 8.5390236369188896e-02  -1.0136965753398321e-02 1.3951778494501943e-01 8.7778331036375376e-02  -1.3563963601316465e-02 1.0976450372571681e-01 3.1007905324285660e-02  -1.0383547284037451e-02 9.8556050821023533e-02 3.0282253962360839e-02  -1.1132609098097381e-02 8.4096251787754261e-02 3.0829889888243013e-02  -1.2234180676876765e-02 9.9716325061009553e-02 3.8008951453847986e-02  -1.5850479182323150e-02 1.1044492801506027e-01 3.7620751032573875e-02  -9.4396590341598863e-03 8.2140593334365450e-02 2.3325672410220179e-02  -1.0984334982942679e-02 1.0881177005860325e-01 2.4123794633209777e-02  -8.2980588424932337e-03 9.7146049888225325e-02 2.2176895991821519e-02  -3.5121265807798674e-02 1.3023722443239269e-01 5.0990480248568879e-02  -3.3260395756229397e-02 1.2573429462455593e-01 5.2966821651076162e-02  -3.2177756322624831e-02 1.2165906327682774e-01 5.0379012679270974e-02  -2.8597575925932688e-02 1.2326013555677411e-01 5.2260932524004697e-02  -2.9283181169587294e-02 1.2794777844974489e-01 5.5370337080706197e-02  -3.1120642110118855e-02 1.3258422725501051e-01 5.2192540560122361e-02  -2.6172732334298957e-02 1.2441884917139773e-01 5.4001003215257790e-02  -2.6535180007341421e-02 1.2951749199874138e-01 5.7620129245085437e-02  -2.8399693585617555e-02 1.3424321947087864e-01 5.3519327546934350e-02  -2.4306204996881280e-02 1.2541780435688230e-01 5.5400140490381306e-02  -2.4526400697766675e-02 1.3079316525806450e-01 5.9674732738440359e-02  -2.6435829301904266e-02 1.3556725707819994e-01 5.4620777880075549e-02  -2.1171786810191818e-02 1.2739103661102216e-01 5.6626812954302309e-02  -2.1633972187604187e-02 1.3287198463169006e-01 6.1375043913011525e-02  -2.3476154145117729e-02 1.3765397537946159e-01 5.5274941990422988e-02  -3.0575833790114540e-02 1.8845800569096247e-01 6.7276929345129063e-02  -3.1053090946861706e-02 1.7569462059693736e-01 6.4982657871939561e-02  -3.4399224280587656e-02 1.8087953253787362e-01 6.5500061489370764e-02  -3.1162705628408015e-02 1.8314368753745194e-01 6.7671194705575574e-02  -2.7752043746089673e-02 1.7712926393140280e-01 6.8947986900444319e-02  -2.7636772134846992e-02 1.9035642541852937e-01 6.9889401183818645e-02  -2.8290994075377329e-02 1.8483287462083714e-01 6.8944819932321308e-02  -2.5111295199739352e-02 1.7833803032750395e-01 7.1221424316306417e-02  -2.5147096037028426e-02 1.9168924574086499e-01 7.1579215965889731e-02  -2.6088581222418160e-02 1.8618485893915726e-01 6.9703882677996779e-02  -2.3110253759747894e-02 1.7934372565623732e-01 7.2629821132011954e-02  -2.3264182949159433e-02 1.9269768453153532e-01 7.2397947487992650e-02  -2.4377765689312270e-02 1.8735694389164725e-01 7.0486805869789518e-02  -2.1410254254194423e-02 1.8018951469642580e-01 7.4080103413549134e-02  -2.1755960333137651e-02 1.9350791236349646e-01 7.3067087791180929e-02  -2.2350678987207939e-02 1.8911465025816135e-01 7.1481239255877224e-02  -1.8963265575446808e-02 1.8150290462841365e-01 7.5933981845797277e-02  -1.9309361957381335e-02 1.9468753713833675e-01 7.2857149024086396e-02  -1.9068550335712035e-02 1.9011595062057207e-01 7.4301525552266851e-02  -1.6161839571063236e-02 1.8127904395762451e-01 8.1130575008299274e-02  -1.7266628788190616e-02 1.9407595658182858e-01 7.7310278618483094e-02  -1.0812782582727292e-02 1.6304613324519315e-01 7.3443628410612721e-02  -1.2548964743580611e-02 1.8409988539390953e-01 7.6380886336916975e-02  -1.8347689896498452e-02 1.7549331020291581e-01 7.3600733807439880e-02  -1.7196031323384330e-02 1.7689111236678481e-01 6.6880125720548078e-02  -1.1820273303329409e-02 1.8544544581512581e-01 6.9917461921415069e-02  -1.0274376544901893e-02 1.6373853778270772e-01 6.5504261378829462e-02  -1.6551075282527684e-02 1.7804130222120954e-01 6.2452826321024196e-02  -1.1582301151725155e-02 1.8651705894408710e-01 6.5537152701659426e-02  -1.0131096279009369e-02 1.6474786866511537e-01 6.0699655743381910e-02  -1.6074204773186714e-02 1.7915581434602565e-01 5.9507532543645415e-02  -1.1523851401577710e-02 1.8759320946211611e-01 6.2630256565603643e-02  -1.0031990181657584e-02 1.6591851801144822e-01 5.7199937050758473e-02  -1.5142104736807580e-02 1.8024802000731885e-01 5.6960276055900712e-02  -1.1003813856852895e-02 1.8867314734128751e-01 6.0127206786142876e-02  -9.1879657011910386e-03 1.6723143837823015e-01 5.3571408067057534e-02  -1.3102946995924472e-02 1.8183042405421457e-01 5.3850796832503475e-02  -9.4859877267711966e-03 1.8909688026657631e-01 5.7213358446717738e-02  -7.2399353513771577e-03 1.6742161141800588e-01 4.6856087132760793e-02  -1.1268069412484512e-02 1.8196160762729421e-01 4.5550132574562453e-02  -8.1202632477473322e-03 1.8868341120382831e-01 4.8697290165273854e-02  -5.7591149712626034e-03 1.6700578692348902e-01 3.7671186349872890e-02  -3.0658129681524114e-02 1.3875731016375337e-01 6.0154834049663909e-02  -2.7025078771283354e-02 1.4009754257648047e-01 6.4010861706434941e-02  -2.4335113951695860e-02 1.4132849292323313e-01 6.6704689092259267e-02  -2.2148538525914079e-02 1.4241871928405736e-01 6.9316203309137334e-02  -1.9603673303231334e-02 1.4353333346911493e-01 7.2675064289300831e-02  -1.6946940329700760e-02 1.4344636369183944e-01 7.8542560908938852e-02  -1.3086577660877795e-02 1.4454405469104289e-01 8.2118292981876714e-02  -1.6756007687765122e-02 1.2572558523749899e-01 3.9252222864367761e-02  -1.9510175391582105e-02 1.2486882455156995e-01 4.3076898175960776e-02  -1.4203492178844214e-02 1.2566937843035947e-01 3.2361803056369549e-02  -1.1280776664391919e-02 1.2526369001396762e-01 2.5096759315281211e-02  -1.5670788291963132e-02 1.5633797403373109e-01 6.9835358882664303e-02  -2.2304294138025472e-02 1.6766574317489930e-01 6.9862280179276592e-02  -1.9322943797636261e-02 1.4740308880862008e-01 6.6174506666535945e-02  -1.8022700199305533e-02 1.4811133304186277e-01 5.8655316835847175e-02  -2.0874036371296215e-02 1.6919119448992864e-01 6.3263775657958571e-02  -1.4841000123836058e-02 1.5713937269515099e-01 6.2156334792481061e-02  -1.7089602662179907e-02 1.4917351477792573e-01 5.4399503483866178e-02  -1.9974677202690860e-02 1.7050520743297007e-01 5.9134898168684925e-02  -1.4323412189907117e-02 1.5823618037086112e-01 5.7677918343556359e-02  -1.6132423617220070e-02 1.5038412351693262e-01 5.1178387621075475e-02  -1.9206163549248052e-02 1.7181203716455457e-01 5.6324415218898478e-02  -1.3829644594623547e-02 1.5945168240379237e-01 5.4328208478131475e-02  -1.4973885918433769e-02 1.5135350334419165e-01 4.7051409035156935e-02  -1.7908120673497237e-02 1.7322273365328861e-01 5.3857410884206681e-02  -1.2870522618627140e-02 1.6081551185379275e-01 5.0886086889712891e-02  -1.2504948585243987e-02 1.5173974997880374e-01 3.9505397912606578e-02  -1.5440205160939802e-02 1.7423987879079714e-01 5.0624460378808508e-02  -1.0055466611104076e-02 1.6119511455746896e-01 4.6615948309093831e-02  -1.0009812346370555e-02 1.5166789817175977e-01 3.0750766718042936e-02  -1.2726266461268402e-02 1.7487612471712480e-01 4.1619563457917570e-02  -8.3098123682903372e-03 1.6090541241462489e-01 3.4945067087409430e-02  -7.1929853449385133e-03 1.3992097438111145e-01 6.1180201419248501e-02  -1.1198905537852260e-02 1.3112309285401402e-01 5.8083954889078526e-02  -1.0498146564086354e-02 1.3207293276486803e-01 5.3642174263282195e-02  -6.9589047459460473e-03 1.4100641488371901e-01 5.6544277189781680e-02  -9.7290467650125913e-03 1.3312903463690984e-01 4.9857161838652783e-02  -6.6768531508662353e-03 1.4225978214653753e-01 5.2688216346452946e-02  -8.4823270559600834e-03 1.3389317368141823e-01 4.4293755266759341e-02  -5.4732952056913420e-03 1.4345526266066158e-01 4.7458312661695805e-02  -6.4268408572995929e-03 1.3402448795728295e-01 3.5148009252623208e-02  -3.9117810086530206e-03 1.4362618985984202e-01 3.8286966084885132e-02  -4.7102540637213482e-03 1.3365931149239466e-01 2.4802115729483886e-02  -2.6586003365979848e-03 1.4328560232455964e-01 2.7849547490807522e-02  -2.9705837086139011e-02 1.4251218169614327e-01 5.6638072748690926e-02  -2.5371234185686011e-02 1.2315668044714619e-01 5.4314219992927779e-02  -2.6153855279340225e-02 1.3695427779085004e-01 5.7980518928127077e-02  -2.4037891558186163e-02 1.3774941516833097e-01 5.1969591726742093e-02  -2.3292206154145550e-02 1.2339331553469358e-01 4.8755539208635214e-02  -2.7207552762931905e-02 1.4394489095520885e-01 5.1608687370048326e-02  -2.2450298096924861e-02 1.3866872893625065e-01 4.8598419959191487e-02  -2.1589200419272363e-02 1.2401139766261830e-01 4.5662892228523801e-02  -2.5472535440335658e-02 1.4512049119342041e-01 4.8794491921836998e-02  -2.0642368455860049e-02 1.3976290947055811e-01 4.6039742182431717e-02  -2.3595365762899848e-02 1.4634558824487423e-01 4.6728597491582646e-02  -1.8149497650679389e-02 1.4079436002115889e-01 4.2182629054976828e-02  -2.1036290594566607e-02 1.4764240735139186e-01 4.3496370700510836e-02  -1.5486164119675003e-02 1.4129075177764311e-01 3.5225924770373639e-02  -1.7978718277633535e-02 1.4859682004408514e-01 3.7568318352694877e-02  -1.2452650809900023e-02 1.4132771687491141e-01 2.7705423752261850e-02  -1.4500149741862235e-02 1.4911480202108093e-01 3.1211745858717110e-02  -3.5434169889270742e-02 1.6950934599789583e-01 6.3381252187568890e-02  -3.8083119118725035e-02 1.5953337917548863e-01 6.0431952070378978e-02  -3.4118887200165461e-02 1.6240523618564043e-01 6.2437244179336542e-02  -3.1788498186746082e-02 1.7165144896868234e-01 6.6264798261323532e-02  -3.0966956518638501e-02 1.6471728366745320e-01 6.3881789187444318e-02  -2.8798141407238825e-02 1.7343205974012507e-01 6.7908129027276457e-02  -2.8672711205023644e-02 1.6668590187366469e-01 6.5267599815510960e-02  -2.6540162358214520e-02 1.7496948078268348e-01 6.9104010334957347e-02  -2.6592952569149023e-02 1.6860024992765874e-01 6.6602170108648551e-02  -2.4930331119709707e-02 1.7627576886125854e-01 7.0430387280965248e-02  -2.3477553972154723e-02 1.7006281906333884e-01 6.8674533294643153e-02  -2.3165952311889716e-02 1.7713792600720482e-01 7.2640963697459912e-02  -1.9135053952608460e-02 1.7195490193754537e-01 7.0668743345453824e-02  -1.8209461027714258e-02 1.7845418043016006e-01 7.6125958072080960e-02  -2.6287465474470823e-02 1.3171131239701667e-01 5.8864383412015803e-02  -2.2974606507169485e-02 1.3168834035158128e-01 6.3762442434883618e-02  -2.0484846479345353e-02 1.3200551350418047e-01 6.6997117230112577e-02  -1.8371110832629177e-02 1.3232956210214003e-01 6.9865191594812623e-02  -1.6207838979264009e-02 1.3247164059781286e-01 7.3112628823596662e-02  -1.4026745910067213e-02 1.3230923373503561e-01 7.8395269726025105e-02  -1.0848603438368449e-02 1.3155074551784543e-01 8.4347150822179376e-02  -3.1436996492311790e-02 1.2952988907223556e-01 5.7792251576080339e-02  -2.7563084580901186e-02 1.1419407527472564e-01 5.6459363439437971e-02  -2.9712050463070520e-02 1.1817922305629457e-01 5.5615188372188061e-02  -2.5931010173772726e-02 1.1956685646449074e-01 5.9026748304272202e-02  -2.4019762565858662e-02 1.1505611211369961e-01 6.0245095475152770e-02  -2.7591495054100575e-02 1.3123030883511097e-01 6.1245368582352237e-02  -2.3335028926777510e-02 1.2051641352234341e-01 6.2022065070792436e-02  -2.1501725195754415e-02 1.1569942751077290e-01 6.3447788018511184e-02  -2.4869214538248148e-02 1.3255528626688809e-01 6.4026169310118813e-02  -2.1188742969260130e-02 1.2136420867469756e-01 6.4984088786530878e-02  -1.9287530665044815e-02 1.1630843021965435e-01 6.6732286104691188e-02  -2.2665076161129134e-02 1.3371202209017186e-01 6.6807694172397736e-02  -1.8316037079671291e-02 1.2294540411273945e-01 6.7870318294629611e-02  -1.6426212969581029e-02 1.1755227167123149e-01 7.0072852919732767e-02  -2.0010403289429875e-02 1.3524738321237906e-01 6.9735704564171899e-02  -1.5243239126500963e-02 1.2447486226714921e-01 7.1642304684529701e-02  -1.3659120066188650e-02 1.1817335344896379e-01 7.4546250990165555e-02  -1.6920369138459460e-02 1.3630106523614294e-01 7.3752186960923866e-02  -1.1956528982171810e-02 1.2611410828851199e-01 7.5305039218965308e-02  -1.0536330253108616e-02 1.1897334400325063e-01 7.8949013210606683e-02  -1.3152269780481739e-02 1.3775647101603875e-01 7.7711336657822053e-02  -1.583593938