<?xml version="1.0"?>
<VTKFile type="UnstructuredGrid"  version="0.1"  >
<UnstructuredGrid>
<Piece  NumberOfPoints="902" NumberOfCells="3894">
<Points>
<DataArray  type="Float64"  NumberOfComponents="3"  format="ascii">6.295917202692371 3.245075399111341 4.080354225475965  6.405817977821505 3.18736647556823 4.143558021735036  6.419617239215071 3.297253761916869 4.064938660382502  6.405809185813004 3.345403822625002 4.125821365540584  6.394698659229316 3.231275804179999 4.210275096036864  6.28374918258186 3.293445442216659 4.141858601372567  6.392138991369293 3.393474622013472 4.186658778910383  6.383676800464774 3.275101300998423 4.276914758215902  6.271671033661703 3.341690883525617 4.203360914028063  6.259660847282538 3.389865977874946 4.264851461958171  6.372716323003821 3.318858940762757 4.343497715672147  6.378552460465253 3.441468416981439 4.247451182638961  6.24769612769501 3.437997204352941 4.326320335086385  6.361788693089028 3.362546673934545 4.410047727421651  6.365004529759749 3.489401751383726 4.308214180729814  6.351447243964118 3.537269749213937 4.368970931041748  6.350865331109472 3.406156344882827 4.476579846795633  6.235732601403165 3.486084939663082 4.387779396332474  6.339913447568934 3.449681209108572 4.543141306270696  6.337819080634379 3.585059201665868 4.429732127645279  6.463650721461493 3.596470291605579 3.815613815099348  6.514693652701041 3.684607855587582 3.757997395579885  6.412589110386342 3.687830111799737 3.694709784888746  6.384195164126212 3.735559838424223 3.74174519373683  6.487821410903786 3.731465853434069 3.809339739438575  6.439561081444277 3.644455880912332 3.867387979129496  6.415770651763115 3.692470455571341 3.919177265305211  6.461297890976367 3.778380342688427 3.860666796580569  6.356161714658309 3.783369717657451 3.788845542183626  6.39212114824125 3.740454371605659 3.970964829558521  6.434927269426897 3.825278913592571 3.911978230444661  6.328286211916702 3.831194552911334 3.835979600730119  6.368492144241999 3.788391500765839 4.022742098100755  6.408572554260557 3.872123119234173 3.963269010409621  6.300418158706827 3.878996867194937 3.883131903845408  6.344762283102531 3.836259849953751 4.07449772496233  6.382115434285004 3.918874943031298 4.014510098339257  6.272404573011869 3.926747952435702 3.930271804744632  6.320795664815916 3.884006767424091 4.126216691744807  6.355415118810237 3.965450650812361 4.065665078334353  6.244042745678076 3.97437786696588 3.977362752051372  6.341426721009768 3.56899401801585 3.778843029556944  6.317520762134079 3.618956153816961 3.826787240957032  6.293896441686621 3.668924816681831 3.874826314186038  6.270416869278469 3.718877888988204 3.922909580963723  6.2469733826775 3.768828969175752 3.971012227655307  6.223432167198774 3.818799137081181 4.019120782896769  7.286632227865836 3.03274519213382 4.207078988381193  7.197695108995941 3.124988431660427 4.19570795435409  7.189396313753913 2.968405171405308 4.231253797694196  7.201590336437536 2.981442075427543 4.313743653418511  7.205649367047972 3.147810567551592 4.276279123075918  7.29920369902222 3.047042685783688 4.28950747971517  7.213713644126577 2.994555029804258 4.396187570130975  7.2135378064232 3.170719639667588 4.356764801740844  7.311715002371998 3.061414572176883 4.371880546419248  7.22581378567056 3.00767487495595 4.478585374698423  7.221401328214035 3.193641948154074 4.437175939979581  7.324203184368486 3.075789600140675 4.45419482082501  7.237911529162203 3.020760755205141 4.56094337226216  7.229259972247261 3.216525072833408 4.517530541239058  7.336685132302291 3.090123716142268 4.536461114178141  7.250019370335728 3.03378550778124 4.643277609795204  7.23712744044324 3.23933029927319 4.597853748380541  7.349165974553108 3.104380727559842 4.618697233410958  7.262159256667534 3.046705237058347 4.725619679809667  7.245015820755404 3.261997466048173 4.678187211027408  7.361647877226726 3.118529915653846 4.700926350412471  7.241015102650753 3.630563557155715 3.9686634451317  7.154103715495178 3.682094213486081 3.934586398363172  7.180707848430292 3.561229139229259 4.008533997785312  7.178116652159907 3.602291121635381 4.080467238012094  7.149425084700019 3.725481284749084 4.004561471359173  7.241266909988407 3.67288040033066 4.040321632302404  7.241520708790393 3.715144675823743 4.111715260704267  7.144800118737075 3.768798997972659 4.074274341374021  7.175557506954095 3.643328474381529 4.152140549667352  7.241751708589262 3.757330189008667 4.182890524097335  7.140192854181713 3.81201742064311 4.143777791538951  7.172995339249632 3.684304060963987 4.223623806219783  7.241924675538042 3.799449800693462 4.253921018029109  7.135559337780903 3.855143241029925 4.21311870229512  7.170411447421924 3.725206784395156 4.294966073731555  7.16781227566173 3.766023601253286 4.3662063933357  7.130900704287755 3.898188513681663 4.282333952759132  7.242080583292169 3.841461945106333 4.324821324554147  7.165215887602787 3.806650041539065 4.437395143817273  7.126233179707235 3.941073782570524 4.351451590912487  7.24224825623743 3.883293759560249 4.395618599574318  6.434544058385816 3.393733158370333 3.98996855186743  6.462617565992262 3.480251320225566 3.918268871835763  6.349676734903204 3.466827229027058 3.885540406975466  6.330178254033447 3.518428118543942 3.936354924479181  6.442189772941521 3.529017555537673 3.97285107698832  6.417942884403336 3.443728760452442 4.046521150839475  6.310893135909526 3.569972230810783 3.987235045504442  6.422015938835965 3.577748005814942 4.027410341729159  6.401521878382233 3.493668343395965 4.103057303496839  6.291722261216885 3.621462200632529 4.038139891236418  6.401967210359246 3.626429532361361 4.081949009382984  6.38519817451822 3.543545511778607 4.159565945473808  6.272592951476651 3.672928989778399 4.089043671431184  6.381957343148993 3.675058688722974 4.136466041295535  6.368909241284979 3.593364972623315 4.216051709849713  6.253412575380477 3.724378780521115 4.139942148290173  6.36189771444983 3.723621630316889 4.190960690962587  6.352585688508658 3.643117102055236 4.272527060347807  6.23407014727069 3.77581245345546 4.190842758838409  6.341650927108677 3.772070128054211 4.245431037789309  6.336152675098219 3.692800355532536 4.329015679571572  6.284139327652633 3.831149599916885 3.683525246971407  6.218526453794524 3.889837597256622 3.559722379199852  6.254138088569759 3.88012217420488 3.725700179887015  6.306211915524442 3.978398027201646 3.654591203196887  6.284994847798673 3.419161989412504 4.027901196048062  6.270053794315586 3.471294660060435 4.082208618489411  6.255198888052231 3.523364910503342 4.136530015799518  6.240383313139779 3.57541128866273 4.190847013185208  6.225540016639509 3.627447971178571 4.24516134981162  6.210618301665059 3.679497722640626 4.299477584029699  6.317628412536499 3.118399371689295 4.173093207679869  6.307690932586271 3.159980122447353 4.242322252962291  6.29781139609841 3.201449543085846 4.311481736250828  6.287979268715788 3.24284663597257 4.380588098312922  6.278180151926724 3.284186565927563 4.449659809154163  6.268395574142829 3.325467436089535 4.518713220382522  6.258613334383404 3.366680657234195 4.587767526533739  7.078276489861842 3.078160539303382 4.221169090290352  7.085992488744699 3.101627323300701 4.301302532877397  7.093638712190425 3.125161308232561 4.381350920583214  7.101261424114768 3.148704278930195 4.461330562551789  7.108886194183784 3.172209421159515 4.541264720896564  7.116552203968102 3.195652125171572 4.621180270859496  7.124272169566726 3.218960983301321 4.701118654349656  7.468208641950674 3.101794402455512 4.163648726314145  7.418466401535928 3.2064661827626 4.146877102028487  7.332546849990818 3.127800476646134 4.180323271572033  7.343898683905485 3.147598765932012 4.261873454982304  7.429038310457831 3.229478124000213 4.227698242945549  7.483142690069104 3.116036515842793 4.245396732683095  7.355187078403889 3.16748857877525 4.343330027158149  7.439547971259073 3.252582860484845 4.308395747204361  7.498011770874387 3.130345379118904 4.327067347781146  7.366449865451481 3.187383825078495 4.424705381147201  7.450023763433965 3.275686734672242 4.388994400947435  7.512854279725512 3.144649194441611 4.408657886150884  7.377701702424453 3.207230468184825 4.506019410479304  7.460480317331337 3.298732770214455 4.469518242072476  7.527685386039012 3.158902478446129 4.490184000028443  7.388948704274 3.226989915608926 4.587295793459119  7.470919450338905 3.321668756521091 4.549993657160817  7.542514858207786 3.173070010221123 4.571661847954044  7.400193231898595 3.246624525000084 4.668567052794643  7.481350823476999 3.344472089185301 4.630429587176312  7.557349955362561 3.187126931796892 4.653099027908879  7.041044006488645 3.629187858254661 3.955255038508572  7.033123072454226 3.671386930859031 4.02432894380779  7.025266540089595 3.713530386693476 4.093134423666667  7.01744735869122 3.75559899012993 4.16175519686935  7.009657802306965 3.797561814695877 4.230240877104999  7.001866250870495 3.839444108781204 4.298599291660213  6.994041904137061 3.881154703020665 4.366847238870639  6.760434199724414 3.031268088496447 4.252147480820289  6.752566307624556 2.89384017037231 4.285953109104801  6.840672518820599 2.96999643711373 4.268936180764642  6.842858350326619 2.988793270306744 4.350837993878026  6.755055005042832 2.908074922962994 4.368849125033425  6.759057920308705 3.055792431357359 4.33196404375954  6.757672061452213 3.080361563824576 4.411678869446511  6.757500991613427 2.922361799717657 4.451661720964077  6.845005634996367 3.007645543663469 4.432634255400757  6.759947177396054 2.936648003392238 4.534422130908533  6.756298975720928 3.10492534818621 4.491309735007145  6.847157232823135 3.026504011242833 4.514371618914414  6.75496074655226 3.129440848975606 4.570898673448966  6.762418818063145 2.950893714830571 4.617142259217467  6.849338806211382 3.045327560597288 4.59607632422356  6.753662644581636 3.15386115082714 4.650470448912627  6.764936465049373 2.965058666200306 4.6998493069226
[...]
<PointData  Vectors="f_24"> 
<DataArray  type="Float64"  Name="f_24"  NumberOfComponents="3" format="ascii">5.3144296370223143e-04 7.1308392605126461e-03 -4.3370249030962064e-03  7.8999314185476590e-04 4.4683020133405495e-03 -6.3421105026668281e-03  1.5097694016678238e-04 7.5067207551464460e-03 -3.8914789984477068e-03  7.9061380378960423e-04 5.7375680424794160e-03 -2.7703680020613815e-03  1.3818179532899680e-03 2.7378501394000809e-03 -5.5433484938952017e-03  1.1515829327201038e-03 5.3298558200622166e-03 -3.2450964297253892e-03  1.4214556044987968e-03 4.2747540621316414e-03 -1.7162438830546651e-03  1.9684524740558747e-03 1.3316524495642381e-03 -4.7308653932676571e-03  1.7742688453127192e-03 3.8538782768675652e-03 -2.2051538768352503e-03  2.3773284184772539e-03 2.4673718608168318e-03 -1.0943172101698013e-03  2.5366615227252502e-03 7.3972064197897623e-06 -3.8171012900605353e-03  2.0307276479798945e-03 2.9046556497630211e-03 -6.0677589283376064e-04  2.9488321211965244e-03 1.0444304309612958e-03 1.5268680038228312e-04  3.0734234890129513e-03 -1.3465364752656161e-03 -2.7674963539621399e-03  2.6068378424765151e-03 1.5005035921187646e-03 6.2705177322295831e-04  3.1443139132832998e-03 6.4519066722221603e-05 1.9966930538572458e-03  3.5656240378934205e-03 -2.7177303963001075e-03 -1.5723707224713360e-03  3.4780622713250914e-03 -3.9903195156488802e-04 1.5428023037261940e-03  4.0175704101475963e-03 -4.1028708644527808e-03 -2.5274840312174211e-04  3.6445397145500992e-03 -1.4053571631821729e-03 3.4929077981359843e-03  -1.8450758417024430e-03 1.6365562466328025e-02 3.5155659068750733e-03  -2.2362921194444547e-03 1.7940766471764517e-02 5.3053849537080203e-03  -2.7050230280695063e-03 2.0557154839787078e-02 6.3309076593542849e-03  -1.9071102565464675e-03 1.9327014763419414e-02 7.8469913332223275e-03  -1.4570765664712968e-03 1.6574855802593443e-02 6.7088402934403438e-03  -1.0840245864018158e-03 1.4889972804181856e-02 4.9628650733391042e-03  -3.6735031028610785e-04 1.3543397982139759e-02 6.3043809768318264e-03  -7.3701023196649936e-04 1.5292403663139815e-02 8.0304055417812562e-03  -1.1563458690843028e-03 1.8164292419076408e-02 9.2610241560719675e-03  3.2183748963615850e-04 1.2250594675892582e-02 7.6334457966824969e-03  -5.0420353287267701e-05 1.4050519967304581e-02 9.3428437817585416e-03  -4.3346313313312983e-04 1.7033936592555404e-02 1.0650707592380244e-02  9.9369482120784960e-04 1.0934184529293430e-02 9.0193199495867907e-03  6.2334835668487263e-04 1.2798051324304862e-02 1.0692933385437238e-02  2.8303371930484531e-04 1.5887595730315156e-02 1.2070015704098701e-02  1.6461525479285698e-03 9.5329796899643292e-03 1.0486171356450476e-02  1.2860915939370179e-03 1.1461328444522158e-02 1.2110591912265977e-02  9.8400857169251166e-04 1.4632714000718281e-02 1.3566907725351053e-02  2.3162328605866415e-03 8.0692917436387766e-03 1.2011256336816436e-02  1.9842474665693419e-03 1.0093669433162422e-02 1.3548390645193193e-02  1.7293423909986762e-03 1.3348122870590853e-02 1.5083844150225968e-02  -2.0608973315046899e-03 1.8257456478683067e-02 3.8840424883612805e-03  -1.3022624349032842e-03 1.6829135969186369e-02 5.4784144375629876e-03  -5.6772554090036014e-04 1.5534292642275856e-02 6.9408317209111664e-03  1.4856527298477573e-04 1.4295686990161968e-02 8.3749221116001509e-03  8.4843710336167811e-04 1.3026907320286916e-02 9.8645437234815489e-03  1.5263657604307622e-03 1.1661448329805616e-02 1.1454841924353388e-02  -5.1054804708661433e-04 -2.0159370658217744e-03 -1.3896144315458577e-02  -3.8725180461569939e-04 -6.3039985616616121e-04 -1.2051570621034518e-02  -1.8658882372148594e-04 -2.6317760354310840e-03 -1.3962922681048302e-02  2.5179142270514282e-04 -3.4398411106598414e-03 -1.4335401836306289e-02  1.2683442514518597e-04 -1.9335622305688609e-03 -1.2155468221208637e-02  -3.6316276234957416e-05 -2.9895996906927247e-03 -1.4229083569500443e-02  6.9386839536186504e-04 -4.1070665483386396e-03 -1.4456457762743794e-02  6.0874606315218516e-04 -3.0210708660885262e-03 -1.2075369722808425e-02  4.2026437791275090e-04 -3.8021833655141296e-03 -1.4331184101281026e-02  1.1674697672646910e-03 -4.7733375838762736e-03 -1.4394468506738487e-02  1.1095938901304976e-03 -4.0753613567143486e-03 -1.1828865688269083e-02  9.1067783121189590e-04 -4.6057227924001650e-03 -1.4253445246248074e-02  1.6782867793606949e-03 -5.4691795789507183e-03 -1.4191238148302079e-02  1.6534300796776304e-03 -5.1666037413258623e-03 -1.1443091839241299e-02  1.4500860883058587e-03 -5.4388105949576106e-03 -1.4030970488452506e-02  2.2277541285706521e-03 -6.1859138065984047e-03 -1.3835680776942208e-02  2.2305509357989401e-03 -6.2705881379053188e-03 -1.0905390922905390e-02  2.0397303577765705e-03 -6.2911836493529279e-03 -1.3651918312552264e-02  2.8184979729803288e-03 -6.9289110251739908e-03 -1.3356909242731169e-02  2.8431006901961540e-03 -7.4099908193698046e-03 -1.0241560450867739e-02  2.6740939987769433e-03 -7.1819385946692649e-03 -1.3161563502489761e-02  -1.3614689068085564e-03 8.4233872905992366e-03 -1.7608076649328918e-03  -1.3902302745461247e-03 9.8686202862134208e-03 1.3049658944856281e-04  -1.1515779470368036e-03 7.1377062814391105e-03 -3.0294469408534896e-03  -5.6241501153278105e-04 5.1722617160229406e-03 -2.2520063074230995e-03  -8.3770785643661003e-04 7.8784814153169697e-03 1.0533338365956021e-03  -8.2901941096021644e-04 6.3832253683108854e-03 -9.2482906412971820e-04  -3.9815938063033853e-04 4.5421329981849097e-03 -5.6558592718521131e-05  -3.8549263345242406e-04 6.0539691291763573e-03 1.9946245434333304e-03  -7.8426067232781135e-05 3.4218948374988697e-03 -1.4458465698411211e-03  1.2998409657482419e-05 2.7871590108592115e-03 8.9246697864688420e-04  4.0034410754058943e-05 4.3095648827146445e-03 3.0017959718861625e-03  3.8221200780636725e-04 1.7513187399224432e-03 -5.5442010390226583e-04  4.5795819394599962e-04 1.0319973454008984e-03 1.9409133001214412e-03  4.8796591723730351e-04 2.5737181251992824e-03 4.0963541672908999e-03  8.7095817448987081e-04 7.1396350951111792e-05 4.4504080999894352e-04  1.3879721139833220e-03 -1.6386236326990258e-03 1.5528325238304958e-03  9.6288309036611551e-04 8.1328353534782785e-04 5.2812952075984949e-03  9.4083195134500943e-04 -7.5316564556301242e-04 3.0930276964196376e-03  1.9281728534323243e-03 -3.3878448151771507e-03 2.7449615103449735e-03  1.4526051798762927e-03 -9.7129355880612531e-04 6.5321244803448371e-03  1.4503520337271608e-03 -2.5697075499426306e-03 4.3231912162007939e-03  -4.7150647045914376e-04 1.0306589854797316e-02 -1.5876905943643950e-03  -1.0855025278746593e-03 1.2836450210507869e-02 4.8136542208611507e-04  -1.2115676872662450e-03 1.4464452247687368e-02 1.0327047458033728e-03  -4.9964294371977985e-04 1.2854886805755123e-02 2.5862758695039999e-03  -3.6819712915425810e-04 1.1192786678271465e-02 1.8705772164486593e-03  2.0966611568792065e-04 8.6047301398403213e-03 -2.5979396106084557e-04  2.0074681942368799e-04 1.1459701421700011e-02 3.9924828900033084e-03  3.1809294700867034e-04 9.7538312567240510e-03 3.1434138800235873e-03  8.6841618350923396e-04 7.1600744537503678e-03 9.6221476627999689e-04  8.7935537998664432e-04 1.0148518911160250e-02 5.3846260352902265e-03  9.7961126394161555e-04 8.3982181778341075e-03 4.4187051813839862e-03  1.5048946172311907e-03 5.7990978118844187e-03 2.2069625922688197e-03  1.5319983039664515e-03 8.8068811740346503e-03 6.8604994682460981e-03  1.6139472228710444e-03 7.0164373312795372e-03 5.7762265276512618e-03  2.1090854139583664e-03 4.4017824167705581e-03 3.5576606054530586e-03  2.1610610548047906e-03 7.3952205573636198e-03 8.4451001260777200e-03  2.2252854392021660e-03 5.5675727402636765e-03 7.2386211371974832e-03  2.6857735840100415e-03 2.9573959433197724e-03 5.0270578089685741e-03  2.7717476530033499e-03 5.9129412056099923e-03 1.0143233391186545e-02  2.8179476321671406e-03 4.0512239154322678e-03 8.7965551546429262e-03  3.2346735220258223e-03 1.4532148713110467e-03 6.6169844994476016e-03  -1.8071898062941973e-03 2.1992197398692098e-02 1.1192517068284523e-02  -2.5670356801501741e-03 2.6319525708398635e-02 1.3228582519378761e-02  -1.0605476597019190e-03 2.1046716454395646e-02 1.2642660865370237e-02  -1.3399785351662303e-03 2.2839316571054442e-02 1.4115268896402114e-02  3.0942512339021748e-04 9.5806665612192064e-03 1.6851871807823027e-04  9.7240504115429717e-04 8.1294498957740265e-03 1.4839770201370733e-03  1.6187816150120046e-03 6.7651164102111245e-03 2.8182784119942950e-03  2.2320421060611911e-03 5.3584535977329786e-03 4.2695510709265068e-03  2.8177665935392314e-03 3.9100308685250358e-03 5.8476717338646544e-03  3.3663715434493896e-03 2.4088925861163210e-03 7.5631291954161963e-03  1.1972329438129418e-03 3.3729886110016346e-03 -7.2918700943620561e-03  1.7527205582460422e-03 1.6840216779756474e-03 -6.6555658315789875e-03  2.3221706207206564e-03 3.2799243935146931e-04 -5.9497956454104229e-03  2.8729027045891649e-03 -9.5564063428419906e-04 -5.1179850987462016e-03  3.3870317650420731e-03 -2.2709839954200670e-03 -4.1435379941913318e-03  3.8542646694050930e-03 -3.5982501520256563e-03 -3.0186740572214514e-03  4.2861651602919635e-03 -4.9251902339716444e-03 -1.7619062945968228e-03  -9.9786415928783873e-06 -1.0140138408154503e-03 -1.1997845035316472e-02  4.6341686507423536e-04 -2.2388997209432243e-03 -1.2095712575973656e-02  9.3625664056428640e-04 -3.2506532184268470e-03 -1.2008132383701953e-02  1.4265906839299194e-03 -4.2320923266999551e-03 -1.1756018361242498e-02  1.9467071567857103e-03 -5.2476703053406159e-03 -1.1366679171064258e-02  2.4924636642937236e-03 -6.2727793230907642e-03 -1.0829852928071128e-02  3.0739996650709996e-03 -7.3197745563580944e-03 -1.0170695494041647e-02  -1.0742299154506820e-03 -1.2869278134882178e-03 -1.4319095102878102e-02  -1.0284298596969501e-03 1.8267779123312081e-04 -1.2347594782162180e-02  -7.2390399319324967e-04 -8.4934045915253248e-04 -1.2959554762281672e-02  -2.1592944616459682e-04 -2.1051227148964733e-03 -1.3165951300305342e-02  -5.1261226562572841e-04 -1.2693638043026478e-03 -1.2454702839535415e-02  -5.9658674373691512e-04 -2.3971423595483773e-03 -1.4679101896173550e-02  2.5178825443631389e-04 -3.1611061536292273e-03 -1.3151876142319576e-02  -5.8086733690755685e-05 -2.5037302714996886e-03 -1.2351365163621373e-02  -1.6261764934301053e-04 -3.3452520791246981e-03 -1.4794220599948745e-02  7.5066971489912658e-04 -4.1935395737547707e-03 -1.2965592353440355e-02  4.3262279665647085e-04 -3.7012973309025420e-03 -1.2072686174661663e-02  3.1665095426107334e-04 -4.2741612905626732e-03 -1.4722299179243024e-02  1.3095286355912473e-03 -5.2648183735937862e-03 -1.2635245703099767e-02  1.0005390830348159e-03 -4.9418157031983091e-03 -1.1650375093893722e-02  8.7387893256306521e-04 -5.2379820769314096e-03 -1.4502790103821597e-02  1.9210721317609101e-03 -6.3556058231320819e-03 -1.2151273879656496e-02  1.6379169300659380e-03 -6.2108926720417174e-03 -1.1077969112019430e-02  1.5159802527474442e-03 -6.2261042542800420e-03 -1.4124680670200319e-02  2.5834917696675860e-03 -7.4848279670027698e-03 -1.1551306087709651e-02  2.3387752280183845e-03 -7.5268888010192212e-03 -1.0391939836217539e-02  2.2516868590073203e-03 -7.2630620863969189e-03 -1.3635661442263313e-02  -1.2301446372341139e-03 9.4437546018840499e-03 -3.3400181992370245e-04  -6.1469732045734077e-04 7.5295576472012814e-03 5.6516826951726615e-04  -9.4256945847396038e-05 5.7796075576311357e-03 1.4623370183827994e-03  3.9227517576033861e-04 4.1084581513605757e-03 2.4198794185960877e-03  8.8725953599738650e-04 2.4445352081178271e-03 3.4627368499297304e-03  1.4010577307818422e-03 7.5309646597332739e-04 4.6020125941427922e-03  1.9299791739159770e-03 -9.6279948290878270e-04 5.8138679646116418e-03  8.2215814020032241e-04 -7.7031249260793350e-04 -1.1005553074297136e-02  1.0485200846925738e-03 -2.5872595973550137e-03 -1.2614289984488261e-02  7.5322563535153500e-04 -1.9327366538318186e-03 -1.2208527839787632e-02  1.1876050583551530e-03 -2.9351150904028613e-03 -1.2355055291716576e-02  1.4253364948905282e-03 -3.3986770804856803e-03 -1.2861252532185324e-02  1.2952929703118573e-03 -2.0226918751147308e-03 -1.0989784088650888e-02  1.7637056520623004e-03 -3.0527909779915698e-03 -1.0800242190766546e-02  1.8277404550749268e-03 -4.0641002046686095e-03 -1.2863388594703816e-02  1.6219592923331109e-03 -3.7636478254639638e-03 -1.2287004717100092e-02  2.2378145803299936e-03 -4.7198292655884237e-03 -1.2694356711688516e-02  2.2373321139238077e-03 -4.0424826617433103e-03 -1.0455592646310572e-02  2.0752665798846152e-03 -4.5752697866812781e-03 -1.2054232311849251e-02  2.7092144103184643e-03 -5.0482873335429800e-03 -9.9778461061831858e-03  2.6510274524785158e-03 -5.3893446552970986e-03 -1.2391773263280177e-02  2.5347895643097256e-03 -5.4043406600449992e-03 -1.1687930151889349e-02  3.1736889891014219e-03 -6.0528769248117259e-03 -9.3590149713715792e-03  3.0617441049714095e-03 -6.0701819971792168e-03 -1.1945436531083653e-02  2.9971395986367290e-03 -6.2422528648454437e-03 -1.1178532253671684e-02  3.6188751015929399e-03 -7.0823548770131538e-03 -8.6309056824283789e-03  3.4655091967299881e-03 -6.7768872131725661e-03 -1.1392262496730145e-02  3.4511504439506020e-03 -7.1088180986158588e-03 -1.0575967634101350e-02  -7.8329079285549400e-04 -2.2883023398354639e-03 -1.4723746849828637e-02  -3.2629755354461669e-04 -3.1441251565247287e-03 -1.5179171602320549e-02  1.1013757691162391e-04 -3.8697225131912654e-03 -1.5369925597348299e-02  5.8877278914075350e-04 -4.5881412797367941e-03 -1.5363363810108168e-02  1.1310503319277008e-03 -5.3392434050081542e-03 -1.5205914684607478e-02  1.7437335015336919e-03 -6.1140199809506437e-03 -1.4889591874179039e-02  2.4297610676250539e-03 -6.9258060094801264e-03 -1.4452277364777324e-02  1.0282913123592866e-04 1.8066829084288357e-02 1.2840861705687356e-02  8.2794765864919366e-04 1.6856755744774785e-02 1.4493119600119685e-02  -9.2127982769258114e-04 6.7760884575901450e-03 -3.3165092587327666e-03  -3.0024077922206015e-04 4.8870393555016465e-03 -2.5583580781838454e-03  2.2771668611303367e-04 3.2063365724650230e-03 -1.7844637807546764e-03  7.3109175871213209e-04 1.6038063232788795e-03 -9.3505380913163477e-04  1.2503832426526340e-03 -6.0696227835735790e-06 1.8500775548051173e-05  1.7869406391986967e-03 -1.6462853774252563e-03 1.0868941631688887e-03  2.3365870470448396e-03 -3.3278892028194432e-03 2.2492302149072340e-03  1.1005335857085586e-03 -8.4640417431772360e-04 -1.1009490562293226e-02  1.5288321502624788e-03 -2.0731266002771268e-03 -1.1039204295561732e-02  1.9816530734788553e-03 -3.0694089580214352e-03 -1.0876394234599939e-02  2.4374778882868750e-03 -4.0199967236948190e-03 -1.0542913403939699e-02  2.8845890290598777e-03 -4.9867771306734152e-03 -1.0073357851622776e-02  3.3180066866450937e-03 -5.9514654157557540e-03 -9.4597324469727767e-03  3.7334407809324903e-03 -6.9272953991851433e-03 -8.7180838725987621e-03  -3.7513201908601339e-04 1.3459827927180496e-02 2.8007157982519299e-03  -9.9626835463926741e-04 8.4310527477187182e-03 -1.5796257353612561e-03  -3.5085540474554151e-04 6.5752360964350005e-03 -6.9867401714074232e-04  2.0469013239857522e-04 4.9023385332588980e-03 1.6646934931356484e-04  7.3174408667922802e-04 3.3099899433722559e-03 1.0905210033513451e-03  1.2629890901740661e-03 1.7186084872465954e-03 2.1065246098947946e-03  1.8047429353255770e-03 9.4314785632720248e-05 3.2264578511777353e-03  2.3576821652637136e-03 -1.5648305021080172e-03 4.4301199087286120e-03  -1.5484451521010460e-03 1.5466775399317326e-02 2.2654852793785873e-03  -8.0622058836831464e-04 1.3922599034652264e-02 3.7494180004030916e-03  -9.2849260356224771e-05 1.2539556653101505e-02 5.1137277004499109e-03  5.9927593107968668e-04 1.1223837550023767e-02 6.4621118151368274e-03  1.2708398047752275e-03 9.8796460542070735e-03 7.8785351031384482e-03  1.9168301860409155e-03 8.4499541070482201e-03 9.4011997462491621e-03  2.5524877014208303e-03 6.9541759498431190e-03 1.1007897545120606e-02  -1.4707944204326825e-03 1.3862805233469014e-02 1.9630938641920438e-03  -9.9142685685829277e-04 1.1466481674955604e-02 8.2046150274866651e-06  -2.7916212238005683e-04 9.8030780112927877e-03 1.2805303791426296e-03  -7.2715897517951081e-04 1.2257681780815365e-02 3.2874157065560191e-03  3.8416721579195227e-04 8.3396455039646787e-03 2.4639249807521637e-03  -3.7157125492419818e-05 1.0810179373688033e-02 4.5189024182644873e-03  1.0183380465294044e-03 6.9550288325227611e-03 3.6628860544006734e-03  6.1867474737764365e-04 9.4346774041823411e-03 5.7508575505362796e-03  1.6289311146269832e-03 5.5475113550934518e-03 4.9448411735287410e-03  1.2537456946070903e-03 8.0450638301543167e-03 7.0468285955917103e-03  2.2208572233652244e-03 4.0824231082297983e-03 6.3246389771010785e-03  1.8706723002309112e-03 6.5869943303032766e-03 8.4270003896682460e-03  2.8039666212133474e-03 2.5540731493698975e-03 7.7889106776168207e-03  2.4970402080412993e-03 5.0741314576762796e-03 9.8742682726356001e-03  1.5700626168138865e-03 -1.8656047715033977e-03 -1.1816642469509298e-02  1.8574812839049339e-03 -2.3417576248656673e-03 -1.2150300841201389e-02  1.6406197416140493e-03 -3.0918714050231608e-03 -1.2674620972513179e-02  1.9616503811731470e-03 -3.6824139583946087e-03 -1.2999824482554568e-02  2.2181156777482561e-03 -3.1159908525622976e-03 -1.2329228308382144e-02  1.9490771772916679e-03 -2.8127415797101945e-03 -1.1933753042272595e-02  2.2954193496348241e-03 -4.1817967647798503e-03 -1.3050133691291193e-02  2.6029390515809902e-03 -3.7747554468136862e-03 -1.2232928881784903e-02  2.3544935082661402e-03 -3.5855957179227222e-03 -1.1808133849030414e-02  2.6325563025774378e-03 -4.6668681810624309e-03 -1.2915169154063082e-02  2.9716469098690721e-03 -4.4323104622977791e-03 -1.1976459740826050e-02  2.7595143609927082e-03 -4.3512779029276760e-03 -1.1505903263600993e-02  2.9600257711225818e-03 -5.1585190790099707e-03 -1.2642211545096265e-02  3.3161125519493959e-03 -5.1038799348814981e-03 -1.1584941345502557e-02  3.1468793737447496e-03 -5.1430746913465990e-03 -1.1064892936384055e-02  3.2720124284488492e-03 -5.6537700611330385e-03 -1.2222579994268890e-02  3.6287160657039515e-03 -5.7766963445839486e-03 -1.1042442821986820e-02  3.5140472946550367e-03 -5.9374427694236075e-03 -1.0476528257883205e-02  3.5694363355611206e-03 -6.1722495548870143e-03 -1.1702866814253152e-02  3.8988927667434762e-03 -6.4685480415020979e-03 -1.0410796309357258e-02  3.8560100752185011e-03 -6.7229637068608183e-03 -9.7947741747140913e-03  -2.2656675829334141e-03 8.5892342337588450e-03 -5.9515154908905922e-03  -2.0798787501056576e-03 9.6563367051731124e-03 -3.4859807044886472e-03  -1.9256336123425668e-03 6.2777367333719603e-03 -7.0509703023194552e-03  -1.5333841795959614e-03 4.1557987214296318e-03 -6.4477085109721083e-03  -9.4545962857183852e-04 1.5912432370220997e-02 4.4233571080271499e-03  -1.9231912811486275e-03 1.5983560804909602e-02 6.1981784210466441e-03  -2.1847923980002674e-03 1.7936081648068352e-02 7.5034793009634811e-03  -1.7832335844373175e-03 1.4805971351453289e-02 4.6848048924231422e-03  -1.0774649621028490e-03 1.3188951082926481e-02 5.8414284503583739e-03  -1.4743397583748940e-03 1.6509273293230500e-02 8.7191246733559543e-03  -1.2632201823301037e-03 1.4394789168042125e-02 7.3570299674919131e-03  -4.6427980816016558e-04 1.1649291027400624e-02 6.9784984152581921e-03  -8.5977792084191644e-04 1.5108885419815163e-02 9.9360414999358840e-03  -1.8162171460281275e-03 7.8733472780468643e-03 -4.4461928599344048e-03  -1.4291080019589685e-03 5.6947242784149525e-03 -3.6604812837299854e-03  -5.4977586811322894e-04 6.4348481896450435e-03 -3.8848228064412580e-03  -9.0277885697886214e-04 8.6859044358499476e-03 -1.6435583958255891e-03  -4.2393407412287895e-04 6.8300213463916865e-03 -3.6146718899607451e-03  2.1770796766845620e-04 5.0502268200963117e-03 -2.6835612530659758e-03  -2.3751736773439469e-04 6.8501666851384880e-03 -7.1482701154403831e-04  8.0409307221676439e-05 4.6388974443207021e-03 -3.0380356915642045e-03  8.0278911208293065e-04 3.5314315733279869e-03 -1.7814480819741173e-03  3.4861850297162206e-04 5.2162502620269795e-03 1.7940548085345170e-04  6