<?xml version="1.0"?>
<VTKFile type="UnstructuredGrid"  version="0.1"  >
<UnstructuredGrid>
<Piece  NumberOfPoints="672" NumberOfCells="2750">
<Points>
<DataArray  type="Float64"  NumberOfComponents="3"  format="ascii">5.83349320170168 2.396159728010131 4.232392342208047  5.991660867185877 2.365521959297128 4.230851136380902  5.954891390459629 2.511707350870121 4.259667658048257  5.95020889244117 2.501020180564715 4.342121305910991  5.98777254567937 2.342692910521508 4.309751047119654  5.831423365676634 2.377399662591351 4.312785350847534  5.945453596487776 2.490351016458935 4.424467096895794  5.98379693808737 2.31988494324799 4.388564596982912  5.829284845680042 2.358661909129329 4.393067542272558  5.940654760372648 2.479658978804046 4.506715615773973  5.979771038716313 2.297078588953686 4.467313158877489  5.827104997729361 2.339917856308037 4.473258726213913  5.935856781069462 2.468938066314953 4.588895952171259  5.97572777316647 2.274266234873029 4.546012510023073  5.824901982272516 2.321168300894866 4.553383073712863  5.822727596870475 2.302390599700626 4.633447796062099  5.971735443623333 2.251424767141494 4.624662560838557  5.9310951690378 2.45818960494154 4.671001083677912  5.820677696819946 2.283563739265053 4.713433169059269  5.967885816561587 2.228539138217999 4.703251852502311  5.926455940329285 2.447378319462262 4.753046056452628  5.46416211743795 2.745381363019189 4.248333246495232  5.445185818525446 2.583683449095705 4.262065620326183  5.577223024224714 2.615426168780923 4.261161341783235  5.577223809725 2.618916380294633 4.346028667088579  5.444124763210901 2.584099983043564 4.346994615351176  5.462190897623173 2.760343159600615 4.332259774689946  5.460129636970285 2.775265876016151 4.416009361948674  5.44299127908713 2.584521435166526 4.431728621824349  5.577131977078432 2.622407515446983 4.430702311519294  5.458015081390811 2.790116899844765 4.499594853850535  5.4418149906305 2.584902252258735 4.516302721522528  5.576997338517426 2.625859480615969 4.515223540682702  5.455892326288686 2.804895899880462 4.583061817719599  5.440645391814512 2.58523960664923 4.600761864375573  5.576860311569167 2.629265198859982 4.599637843110506  5.576750469346861 2.632640727124401 4.683985206098123  5.439505318622793 2.585547272194503 4.685148156962217  5.453814326464903 2.819622866524005 4.666420285521215  5.576727473489903 2.635957368153128 4.768284752294345  5.438472957667394 2.585788881219743 4.769475529212078  5.451847215506798 2.834269349409657 4.749712374908502  5.722378872659964 3.107795652805364 4.106444899948475  5.79863982263941 2.995814232970353 4.174099350559306  5.864477846385126 3.091669308878448 4.124389254420058  5.857452559412446 3.134562565499746 4.193546930469217  5.794089874372198 3.031431271766081 4.248907441377297  5.718316926310928 3.152131876651065 4.175430051637233  5.850369896715634 3.177297737156629 4.262683067138116  5.789463603701276 3.066916736777118 4.323616321506011  5.714154534770128 3.196324600191301 4.244369525528274  5.784810001277607 3.102312817635271 4.398252117884756  5.709950005455414 3.24042748793696 4.313258840229275  5.825187553386252 2.552362819084582 4.257907061583317  5.823184948766894 2.544374081424752 4.341121959322006  5.821111664225429 2.536414067278554 4.424206755623763  5.818995236746785 2.52842540989354 4.507175252837729  5.816872427849069 2.520398412394227 4.590058127324859  5.814780301186731 2.512333412495304 4.672874071676715  5.812796979067272 2.50421174970361 4.755630374514303  6.086413867481157 2.475006359132313 4.262562629751941  6.071159121211311 2.630892428887544 4.275890171627796  6.06394523144863 2.629643535578632 4.3593267192186  6.079115303729758 2.461112815617712 4.344238955325006  6.071723968094903 2.447236284111971 4.425801725923394  6.056657892166863 2.628391093224914 4.442645127572537  6.064301538298793 2.433349350443791 4.507290017156398  6.049344018286934 2.627106383674715 4.525874489581054  6.056880161494929 2.41944483432572 4.588719629066274  6.04204332928298 2.62578276477809 4.60903396427379  6.034792259111541 2.624413199967669 4.692142971786143  6.049500061736882 2.405511368483915 4.670106936546579  6.042255515237629 2.391507839689495 4.75145997050797  6.027636551227362 2.622986894991021 4.775202665286877  5.705732092058337 2.462307038271123 4.243201985603465  5.705386299590306 2.321131017899588 4.213306549081275  5.708189498396572 2.296874512775601 4.291911977465233  5.708307229524259 2.44807266182679 4.325301315671288  5.710944497936513 2.272655016976296 4.37040992756159  5.71081479725851 2.433873736239555 4.407275673776807  5.713656751682763 2.248447660598237 4.448821736730988  5.713277122672276 2.419667419145756 4.489131599016922  5.716340655605125 2.224244297233244 4.527172584539614  5.7157261333175 2.405439284170674 4.570903395548983  5.719051434179879 2.200013980593963 4.605456473903875  5.718190956976041 2.39118223573068 4.652611454232076  5.721831480228297 2.175724265517427 4.683648880016026  5.720741988334074 2.376865178013689 4.734251643698546  5.675467272242591 2.983793930309471 4.176915741761174  5.670943919108505 3.018842251201408 4.252802499587317  5.666339446905046 3.053768161956801 4.328573674229444  5.661692514095485 3.088606277044362 4.404246646735502  5.657046770689191 3.123376695721359 4.479838027673468  5.780164210863624 3.137642461150788 4.472824045192824  5.705752756214348 3.284468823216232 4.382092547677  5.652448233273357 3.158091490155725 4.555363228163405  5.775551338314112 3.172922798109854 4.547342862225836  5.701609121216259 3.328467649620052 4.450874355320111  5.647970156521394 3.192722923139615 4.630868233559098  5.77105017200531 3.208150564234728 4.621837549266336  5.69760283085914 3.372421925122579 4.519615174664668  5.495686930085207 2.871385154949619 4.211972519723443  5.580040989062365 2.743582529108558 4.249783182123375  5.617350500060201 2.856261426577158 4.216418348948371  5.6145151193838 2.881576734719399 4.296902584363981  5.579644673491091 2.760994636563121 4.333112436484229  5.495486912162651 2.898557152217565 4.29240072305431  5.611589832138272 2.906807182052044 4.377214391083874  5.579143611190605 2.778360140421153 4.416230712894413  5.495155852833186 2.925646343963763 4.372655225671235  5.608610841501392 2.931959931090322 4.457380466276842  5.578587399575322 2.795671111484474 4.499201273932254  5.494765784091516 2.95265228620652 4.452747401867083  5.605620641512166 2.957044979429776 4.537439299901688  5.578011487355667 2.812923409914005 4.582058669381987  5.49436523913506 2.979581546266281 4.532721714326335  5.602666500242322 2.982071911398755 4.617416176845808  5.577477135713767 2.830130616649081 4.664833624601791  5.494002721972451 3.006438976879232 4.612604200491633  5.599814535834389 3.007018492564014 4.697348421921166  5.577052128980649 2.847265478531582 4.747559745718799  5.493768271567489 3.033208284761563 4.692432401068149  5.482880867856126 2.273836424482473 4.206990233923855  5.598433777003343 2.229871557621468 4.185817263257669  5.578246913460776 2.367012180160269 4.234527432049203  5.582147018765236 2.346549311423868 4.315357707352885  5.603125901536502 2.199494639375623 4.261587906859779  5.487487694987641 2.247972228898318 4.285087171377212  5.58599125918619 2.326137589684011 4.39606149826726  5.607771764552164 2.169169613231294 4.337264913652504  5.492045955349369 2.222151910074969 4.363077138424818  5.58979513043366 2.305735901851872 4.476651934016501  5.61237050460841 2.138881791552909 4.412878098887958  5.496570190061258 2.196362820934749 4.440974058193062  5.593582419754182 2.285332856079997 4.55716541497272  5.61695347415758 2.108599652425139 4.488430892807717  5.501074367768951 2.17058480581292 4.518806262644962  5.597391573246561 2.264901227717663 4.637607797484183  5.621561644149765 2.078292200563724 4.563911015207281  5.505602866761306 2.144780416736047 4.596572687952271  5.601259349696541 2.244412677842901 4.717988324985687  5.626221729844074 2.047939711714579 4.639307534213097  5.510195191538734 2.118922249795615 4.674272361065541  5.88140234392457 2.27386061865477 4.19964144145013  5.989711104322975 2.216456810477187 4.173874890693371  5.988025280369053 2.182480949903856 4.246929067630258  5.879743905758459 2.24580577612371 4.276150178019397  5.986212786033881 2.148554254547704 4.319962145385393  5.877996275183475 2.217792058826062 4.352575929788087  5.984340507182563 2.114643050378484 4.392963048028273  5.876189765042967 2.189794378386114 4.428948321207734  5.982469992602424 2.080722076663155 4.465921315137445  5.874369372970791 2.161793075755206 4.505270028646868  5.980660490526089 2.046773102365318 4.538828548273815  5.87259891897795 2.133766438043305 4.581523850333417  5.97898365025157 2.012776311815612 4.611683868387111  5.870945008785099 2.105690852733044 4.657694730498308  5.342906681400597 2.705957692282227 4.248417950274213  5.338360169112073 2.719305194956465 4.332271733977592  5.333737532449724 2.732624074687347 4.415905742797895  5.329075122175617 2.745889991257903 4.499345067793869  5.324413845924468 2.759092679865439 4.582654237875648  5.319793908559769 2.772254228043129 4.665872961948113  5.315273310971669 2.785347122691252 4.74905030299348  6.095185754469647 2.884008425154176 4.245745390361957  6.180412642800878 2.825743753119091 4.274367737311208  6.215970686206376 2.927729045523373 4.24580926322671  6.206267719159817 2.954768263536396 4.323940955588104  6.170690048315978 2.842004771995648 4.356184598674989  6.086127137985667 2.908337822787849 4.325049944975469  6.19657069919783 2.981725770666041 4.401978504630002  6.160944882425664 2.858212617734392 4.437892827664228  6.077049320727226 2.932579601427777 4.404256679533395  6.186898185163645 3.008626185155968 4.47993442715979  6.151206055366087 2.874373300312039 4.519518412807366  6.067978604476185 2.956766073074856 4.483381991947321  6.177257464700886 3.035476241597427 4.557838973600652  6.14149707800838 2.890484758500449 4.601085894842488  6.058933356752437 2.980905039486149 4.562447977074225 
[...]
<PointData  Vectors="f_24"> 
<DataArray  type="Float64"  Name="f_24"  NumberOfComponents="3" format="ascii">1.1814278129360114e-02 -3.1999351255412700e-02 -3.3491001666725723e-02  8.5448794317929070e-03 -3.4483982276270655e-02 -3.3058979728342354e-02  9.1296199316366171e-03 -2.8573882594122833e-02 -3.7162472881845141e-02  9.7677724541835598e-03 -2.8114621746559845e-02 -3.7029960118462525e-02  8.9378287086507736e-03 -3.2904542666803531e-02 -3.2605809852269615e-02  1.2055854321933861e-02 -3.0677700398492040e-02 -3.3350123490257608e-02  1.0484765309146802e-02 -2.7828717218876056e-02 -3.6451041079883756e-02  9.2514507738351258e-03 -3.1655726435045800e-02 -3.1873267943254964e-02  1.2137705779326886e-02 -2.9728707539701062e-02 -3.2874658338764115e-02  1.1017686352735810e-02 -2.7432006610487444e-02 -3.5615504133611253e-02  9.4277468122916878e-03 -2.9886127757760096e-02 -3.0786818986534875e-02  1.2138976736720040e-02 -2.8453946858147953e-02 -3.2076035246214871e-02  1.1451418903086753e-02 -2.6995029369035684e-02 -3.4420848853922756e-02  9.4836889039054545e-03 -2.7831262729446041e-02 -2.9275131207554574e-02  1.2153194877111553e-02 -2.7015402333121413e-02 -3.0866787243101615e-02  1.2185205115948394e-02 -2.5614150583729574e-02 -2.8910563389182010e-02  9.3821193705614387e-03 -2.5762276655574887e-02 -2.7072301782197307e-02  1.1763457866677365e-02 -2.6614325205579159e-02 -3.2482455823168145e-02  1.2236793492593901e-02 -2.4192414301808452e-02 -2.6250254450129941e-02  9.1040560685187680e-03 -2.3628423017630917e-02 -2.4221635034263882e-02  1.1954227743744768e-02 -2.6235386473695124e-02 -2.9892386252347105e-02  2.0716323564599452e-02 -1.5176491351022328e-02 -2.7417319048010806e-02  2.0611141122795277e-02 -2.0311165256814246e-02 -3.2026052891157848e-02  1.8099245076131830e-02 -2.1133243218458237e-02 -3.3541022752547167e-02  1.8462661917135782e-02 -2.2187885485625156e-02 -3.3357511048742745e-02  2.0890862928886585e-02 -2.1468250648667336e-02 -3.2043135478754599e-02  2.1278101407626048e-02 -1.7534564617964241e-02 -2.6671815963882652e-02  2.1742466174247958e-02 -1.9852029361060487e-02 -2.5487622499501809e-02  2.0953531718298366e-02 -2.2638574759054834e-02 -3.1423659473069770e-02  1.8582812433960021e-02 -2.3344826370580454e-02 -3.2663258741137992e-02  2.2318070318207931e-02 -2.2672280030340320e-02 -2.3973118006811789e-02  2.1091242072253238e-02 -2.3997773563690081e-02 -3.0435427043356493e-02  1.8879855689662540e-02 -2.4740198351580145e-02 -3.1628420263373536e-02  2.3053241592082673e-02 -2.5748945406571438e-02 -2.2092499509331492e-02  2.1400318006109996e-02 -2.5488089674129234e-02 -2.9078561622700245e-02  1.9357148130124242e-02 -2.6309546818218447e-02 -3.0216792267468210e-02  2.0101372848573509e-02 -2.7992430830549704e-02 -2.8136888414803666e-02  2.1940415402214589e-02 -2.7077725625817926e-02 -2.7123327696776937e-02  2.4062415874638574e-02 -2.8926709803108859e-02 -1.9580909159912705e-02  2.1230134463162454e-02 -2.9751320484953717e-02 -2.5608200750690230e-02  2.2801186669435296e-02 -2.8747645750143509e-02 -2.4810482429560934e-02  2.5404542003581970e-02 -3.2269736976238438e-02 -1.6725068488348704e-02  1.0402787726007338e-02 6.1872391047705106e-03 -5.5967792374406371e-03  1.0192127559850704e-02 -5.0734123865068554e-03 -1.8335751713225705e-02  6.4056838872682429e-03 2.9237309986228283e-03 -1.0247618222709828e-02  8.2239098282796651e-03 -1.0505065616637083e-03 -7.7676865100540261e-03  1.1520200493640670e-02 -8.5334611419114834e-03 -1.6262528638780652e-02  1.1817322032029514e-02 2.0922155689626749e-03 -2.8409416066589796e-03  1.0288804967137410e-02 -4.0073651923168072e-03 -5.3318103568661627e-03  1.3190156387190713e-02 -1.1356350482421703e-02 -1.4101625451901073e-02  1.3489716244184808e-02 -1.1514627030051983e-03 -1.7048105541342374e-04  1.4779846648181693e-02 -1.5142374233100846e-02 -1.1476596248944740e-02  1.5188257338889960e-02 -5.3297320420595895e-03 3.0726384511506610e-03  1.1705522704309997e-02 -2.6184270588259763e-02 -3.6835202821573099e-02  1.2535203596714615e-02 -2.6179898811885687e-02 -3.6674604511599734e-02  1.3044004989220623e-02 -2.6364914439067286e-02 -3.6101518412525992e-02  1.3462518455238321e-02 -2.6529330463654539e-02 -3.5286307514469713e-02  1.3894146368407108e-02 -2.6741759318566136e-02 -3.4122232196353838e-02  1.4365233386847894e-02 -2.7025523564484979e-02 -3.2222568907220500e-02  1.4967725285272055e-02 -2.7369072509983661e-02 -2.9666696631167801e-02  6.5909278023454808e-03 -3.0815117918745208e-02 -3.6934062468158238e-02  6.3153853919556344e-03 -2.5578783884743498e-02 -3.8251893308430325e-02  7.3833259624179670e-03 -2.5925430869083103e-02 -3.8184789797168030e-02  7.3418300350231768e-03 -2.9816891389976018e-02 -3.6686187138978039e-02  8.0697201603722995e-03 -2.9153683215551354e-02 -3.6124708621844311e-02  8.5690882242256891e-03 -2.6309989364822536e-02 -3.7609224273378310e-02  8.6832060903469580e-03 -2.8241157443830437e-02 -3.5194734769215676e-02  9.5558216011390439e-03 -2.6866067840456836e-02 -3.6711797687406851e-02  9.1204980963295896e-03 -2.7206895268428597e-02 -3.3875653489799304e-02  1.0366624010183807e-02 -2.7509121031204641e-02 -3.5441891100864473e-02  1.0946996107719214e-02 -2.8192646772127614e-02 -3.3429806851534544e-02  9.3167134802577285e-03 -2.6189340904805250e-02 -3.1847198979173770e-02  9.1772665313532720e-03 -2.5138799738217497e-02 -2.9217259642333421e-02  1.1193606727589640e-02 -2.8897130966087998e-02 -3.0779716750595074e-02  1.4654467769377805e-02 -2.8190623810843522e-02 -3.4019751462683864e-02  1.4562722810082916e-02 -3.3522658439295694e-02 -3.0911923061095765e-02  1.4161247897873111e-02 -3.1869543003179672e-02 -3.0486775289266715e-02  1.4704547013200455e-02 -2.7576116850025929e-02 -3.4266117072481582e-02  1.3617687479353904e-02 -3.0724397276600809e-02 -2.9844719635197508e-02  1.4655956035933271e-02 -2.7255486181664398e-02 -3.4064546692191944e-02  1.3173855370704118e-02 -2.9035451857229118e-02 -2.8854157586206557e-02  1.4585157549150241e-02 -2.6777705604053997e-02 -3.3438656551379550e-02  1.2825686783324257e-02 -2.7089063667654761e-02 -2.7423125754644038e-02  1.4635607423676762e-02 -2.6275329073799585e-02 -3.2372821018010318e-02  1.2597601140710867e-02 -2.5161368876937071e-02 -2.5291159841205564e-02  1.4840016936642875e-02 -2.5829734906547795e-02 -3.0579044072255375e-02  1.2575877583899745e-02 -2.3247365681481062e-02 -2.2514102902654647e-02  1.5363570870168944e-02 -2.5442085861002096e-02 -2.8131211922420098e-02  1.3690333233408267e-02 -4.8947445312291097e-03 -1.6854528116543189e-02  1.5046546097419547e-02 -8.2311573682976053e-03 -1.4709910300910312e-02  1.6435630726380726e-02 -1.1281795338371958e-02 -1.2343949843576559e-02  1.7833020609977504e-02 -1.5252746573197799e-02 -9.6094213745425289e-03  1.9242005869630104e-02 -1.9923413690513564e-02 -6.3831916878805120e-03  1.6267899343742332e-02 -1.9691540273881054e-02 -8.3171854663901743e-03  1.6789388697657729e-02 -1.0560567414900404e-02 7.0635479441398799e-03  2.0786903976750773e-02 -2.4757261004565986e-02 -2.4012327520874016e-03  1.7751051185074442e-02 -2.4417244088540149e-02 -4.3776928685885994e-03  1.8438193764106131e-02 -1.6056799808905120e-02 1.1890523998259508e-02  2.2614862491359536e-02 -2.9771201937880423e-02 2.1484855901900998e-03  1.9410549139226265e-02 -2.9259434577272956e-02 2.8141896823566083e-04  2.0274998039046740e-02 -2.1715301149227709e-02 1.7353318880591235e-02  1.9190876318986267e-02 -9.1102216498352793e-03 -1.9931933937206114e-02  1.7857632709546930e-02 -1.6679592932418240e-02 -3.0305672630990321e-02  1.6258352116951230e-02 -1.1106599139704802e-02 -2.3442153180553673e-02  1.7300681167985332e-02 -1.4276671955344053e-02 -2.2690125111761137e-02  1.8549059543016486e-02 -1.8677813337243158e-02 -2.9228463502173833e-02  2.0226413844483183e-02 -1.2531086300905199e-02 -1.8926606971303425e-02  1.8364918577525334e-02 -1.6979260037615660e-02 -2.1361965511465648e-02  1.9187518286538537e-02 -2.0737633468960990e-02 -2.7831239678687371e-02  2.0999954633838084e-02 -1.5546468281302663e-02 -1.7446795762730342e-02  1.9389708923967540e-02 -2.0359370288858317e-02 -1.9530727310849452e-02  1.9852305069616476e-02 -2.3342816521373492e-02 -2.6218957291492370e-02  2.1898294456938347e-02 -1.9254420065503115e-02 -1.5473507542955218e-02  2.0477204281292134e-02 -2.4186500474500182e-02 -1.7220726617857604e-02  2.0652900161217711e-02 -2.6254008392835440e-02 -2.4254729598325066e-02  2.2909227817034680e-02 -2.3415366003862927e-02 -1.3027689550425277e-02  2.1784427126656073e-02 -2.8143785528844164e-02 -1.4191300212233937e-02  2.1742270232041221e-02 -2.9271218060393952e-02 -2.1611794563566732e-02  2.4195121436429580e-02 -2.7706428081954771e-02 -9.8827147922039733e-03  2.3466138724959035e-02 -3.2207787584514543e-02 -1.0558832934259322e-02  2.3298151742112680e-02 -3.2404218970283914e-02 -1.8535419262669509e-02  2.5967250119820841e-02 -3.2133367573779700e-02 -6.2482524150513554e-03  1.7896418534467839e-02 -3.2026209685421407e-02 -2.8284021745232795e-02  1.6136073014887984e-02 -3.6217699981189934e-02 -2.6566510909329794e-02  1.6981484980246771e-02 -2.9367394895007282e-02 -3.2542177495838598e-02  1.6581810926886695e-02 -2.8517611893133413e-02 -3.2363209076973737e-02  1.5295842673825229e-02 -3.4098819856626890e-02 -2.6192110790825947e-02  1.7321618732049928e-02 -3.0231588065136514e-02 -2.8645517503401965e-02  1.6047497412328252e-02 -2.7808149261758237e-02 -3.1686058478499146e-02  1.4420401151164018e-02 -3.2574738039160729e-02 -2.5472072598788763e-02  1.6540440285397702e-02 -2.9072460998029050e-02 -2.8276387261497091e-02  1.5592146304405176e-02 -2.6754488112387783e-02 -3.0680172413618225e-02  1.3587884434039587e-02 -3.0340425726679561e-02 -2.4207432739193211e-02  1.5779276508675451e-02 -2.7397297037160616e-02 -2.7238227573039592e-02  1.5311325794134665e-02 -2.5597191522760479e-02 -2.9277729017653513e-02  1.2885908296779424e-02 -2.7730373497323990e-02 -2.2412967404512381e-02  1.5161098350915980e-02 -2.5522586139727237e-02 -2.5681788239731246e-02  1.5220310143129233e-02 -2.4489447568405608e-02 -2.7211471832384364e-02  1.2322991043937947e-02 -2.5120144107680372e-02 -1.9940538523823003e-02  1.4693295860703002e-02 -2.3686643089246520e-02 -2.3491137808374408e-02  1.5434274509055259e-02 -2.3452328606890980e-02 -2.4688504262421761e-02  1.1923194104124469e-02 -2.2539449605507082e-02 -1.6916092506959867e-02  1.4399097557768199e-02 -2.1904440406337135e-02 -2.0819977058601835e-02  1.0916060259396464e-02 -3.7786184850906360e-02 -2.8859744695317935e-02  8.4717655697671233e-03 -4.2852487592251298e-02 -2.4660367851081711e-02  8.5492788253623952e-03 -4.0113597807851391e-02 -2.3546178267920284e-02  1.0785382070463213e-02 -3.5707241412970735e-02 -2.8009004873880340e-02  8.5881246088197090e-03 -3.8125017199856642e-02 -2.2470086185060075e-02  1.0603088242275231e-02 -3.4074075541514377e-02 -2.7103604136901487e-02  8.3768954690981254e-03 -3.5232477448015505e-02 -2.0863934675635149e-02  1.0349564954124431e-02 -3.1716774332776913e-02 -2.5853514903623861e-02  8.0323963532742890e-03 -3.1736066859825295e-02 -1.8683558577048256e-02  1.0066251398266002e-02 -2.8956547584040537e-02 -2.4137612676553091e-02  7.5627277675713520e-03 -2.8105778875808791e-02 -1.5820385919792596e-02  9.7336218863911753e-03 -2.6157388545628581e-02 -2.1698285369492885e-02  6.9495544745641910e-03 -2.4424569560860632e-02 -1.2332585686025826e-02  9.3298093881968511e-03 -2.3318039583377657e-02 -1.8636917240182273e-02  2.2993176522835834e-02 -1.4624905225191397e-02 -2.5827337964384318e-02  2.3526322763197417e-02 -1.7069175867366469e-02 -2.5609375980130925e-02  2.4003586339958988e-02 -1.9347499107920101e-02 -2.4697470892912781e-02  2.4474702514471251e-02 -2.2035233629753213e-02 -2.3383805311359029e-02  2.5056879221315782e-02 -2.4967464573380702e-02 -2.1669684032098079e-02  2.5842936792667120e-02 -2.8035650401283356e-02 -1.9344550581913780e-02  2.6879895816068065e-02 -3.1264317300892824e-02 -1.6652810955477097e-02  3.6772001368582177e-03 -1.6391810411339244e-02 -3.1419303955317814e-02  2.9278775250639504e-03 -2.0093717205191906e-02 -3.5975674735483937e-02  7.4593227286015389e-04 -1.5028124125526296e-02 -2.9412670594632311e-02  2.7559469160856158e-03 -1.7597598470174870e-02 -2.8755082427250226e-02  4.5703437482420180e-03 -2.1584817160730106e-02 -3.4837575405339334e-02  5.5908630785023276e-03 -1.8429579493738728e-02 -3.0382602453007439e-02  4.8332396843046802e-03 -1.9668743280692954e-02 -2.7411530753506073e-02  6.3297240621513796e-03 -2.3176383146838592e-02 -3.3477702548856764e-02  7.5508200199424086e-03 -2.0370918946252276e-02 -2.8915424800130783e-02  6.6685336555755122e-03 -2.2535928682794238e-02 -2.5496804592364961e-02  7.8779197946151798e-03 -2.5331813349737189e-02 -3.1855738803430782e-02  9.2695566545943631e-03 -2.3075460597307661e-02 -2.7014659239931776e-02  8.1894278249084167e-03 -2.5872294019497165e-02 -2.3085945264911419e-02  9.1508768664423819e-03 -2.7769886685269519e-02 -2.9866814263009991e-02  1.0694670412513114e-02 -2.6239784355207844e-02 -2.4679166248588284e-02  9.3865127624277352e-03 -2.9305910271806328e-02 -1.9962651163867674e-02  1.0114267769513031e-02 -3.0290244065603805e-02 -2.7191007150578400e-02  1.1861763408639767e-02 -2.9516293661020949e-02 -2.1614018880784576e-02  1.0189535736860839e-02 -3.2823480759207005e-02 -1.6279006963384229e-02  1.0642821685161402e-02 -3.2894820665571700e-02 -2.4086159978814973e-02  1.2764512848233914e-02 -3.2823339164586782e-02 -1.7902500101790116e-02  -5.9265964701968939e-04 -2.8932079336597076e-02 -4.0049814811876167e-02  -6.6948688868506277e-04 -2.5534875124948331e-02 -3.8018877200940361e-02  1.6848155173508272e-03 -2.8299493930203059e-02 -3.9559602922460642e-02  2.5547574125414541e-03 -2.8049383681463699e-02 -3.9259537657580064e-02  3.0719372391934177e-04 -2.6098227906283137e-02 -3.8622679245215910e-02  1.8847566393052320e-04 -2.8613128958643475e-02 -3.9598823406950215e-02  1.2099651491953361e-03 -2.8325577704057477e-02 -3.8784838698501495e-02  1.6040393427807543e-03 -2.6664212378916686e-02 -3.8343923954056398e-02  3.7029388962455953e-03 -2.7940811800636334e-02 -3.8549528239672483e-02  2.1637823740779639e-03 -2.7860409481193373e-02 -3.7680218154814975e-02  2.7962241982762287e-03 -2.7324049404845015e-02 -3.7522725181101939e-02  4.6587928156676403e-03 -2.7740182340352620e-02 -3.7503249078566357e-02  2.9561750854831038e-03 -2.7331882032484704e-02 -3.6236942127676801e-02  3.8046170559305659e-03 -2.8034056231641021e-02 -3.6265214112045030e-02  5.3922328125152784e-03 -2.7492403889980786e-02 -3.6089063120927710e-02  3.5618729235618683e-03 -2.6823018718261545e-02 -3.4249518825683632e-02  4.5753179615304670e-03 -2.8781080631618154e-02 -3.4363900265566356e-02  5.8480843890022192e-03 -2.7260465506887765e-02 -3.4066823530832048e-02  3.9356200655826182e-03 -2.6318312750424278e-02 -3.2002936551818253e-02  5.0560773860430230e-03 -2.9551813541316429e-02 -3.1970643881000828e-02  5.9714087792389001e-03 -2.7017766350822849e-02 -3.1732929612184456e-02  2.1943860640919608e-02 -8.2873544405189029e-03 -1.7768595003599615e-02  1.9311240731964281e-02 -3.1700949661401627e-03 -1.2375630693579647e-02  2.1215695090108625e-02 1.1453211220383434e-04 -7.2124716033044496e-03  2.2471618867561275e-02 -4.0050312733967003e-03 -5.0567591144404607e-03  2.0375294696174877e-02 -7.2504410651069804e-03 -1.0887889831417722e-02  2.2920170061257312e-02 -1.1771782139183392e-02 -1.6666416759919343e-02  2.1406828609464544e-02 -1.0738561967098197e-02 -9.0059801393461356e-03  2.3747438328292257e-02 -1.4955523676099354e-02 -1.5091408225851456e-02  2.3615613907895440e-02 -7.6995353132073277e-03 -2.5954953094839157e-03  2.4599615633870552e-02 -1.8790349203029508e-02 -1.3034954770549589e-02  2.2493372738242073e-02 -1.4990394952948837e-02 -6.5449413297331413e-03  2.4781075441538188e-02 -1.2213544585350157e-02 3.8940651664830201e-04  2.5556893501041265e-02 -2.3046169068364934e-02 -1.0541870235173728e-02  2.3654795328849350e-02 -1.9827176374237723e-02 -3.5502853421411139e-03  2.5988829019460619e-02 -1.7365272547981859e-02 3.8969755317340015e-03  2.6752436464825658e-02 -2.7455864837364119e-02 -7.4142501277501471e-03  2.5059760025410265e-02 -2.4838678322338423e-02 1.3317197439751248e-04  2.7392122552657380e-02 -2.2728246578402393e-02 8.0311500762932850e-03  2.8286453148962897e-02 -3.2061339585322222e-02 -3.9042343445650366e-03  2.6905742478389713e-02 -3.0047477735164019e-02 4.2758963540044511e-03  2.9115308072177607e-02 -2.8311818686153310e-02 1.2496301381739201e-02  1.1277757595709820e-03 -3.1855548089005266e-02 -3.7056272548672137e-02  1.8269131834541875e-03 -3.0686670512700340e-02 -3.7193143817661381e-02  2.7160588049108545e-03 -2.9782911247473873e-02 -3.6651531330944988e-02  3.4612619893223421e-03 -2.8529913141573524e-02 -3.5546443565990023e-02  4.0344880639833448e-03 -2.7146531824671773e-02 -3.4005095803619892e-02  4.3821131682001604e-03 -2.5780066136696051e-02 -3.1886058671317316e-02  4.4525761936216124e-03 -2.4401103784924109e-02 -2.9378319673147819e-02  4.0252549837971174e-03 -3.2383264512670269e-02 -1.7063334949934453e-02  4.6006999070450725e-03 -3.6922149213757451e-02 -9.7116915789494732e-03  5.9601019836377483e-03 -2.9339904415181885e-02 -2.4406520146035355e-02  4.0015578729614854e-03 -3.6066455985471826e-02 -1.9941292428519122e-02  5.8972788999851556e-03 -3.2271895569887556e-02 -2.6614475106725519e-02  4.2249741176702488e-03 -3.2447001539794983e-02 -5.9227790970829202e-03  3.8581371922419339e-03 -2.8595599899242524e-02 -1.3564550071930059e-02  5.7717056349825937e-03 -2.6334960725404848e-02 -2.1601021013137222e-02  3.6772546987167134e-03 -2.7890370738524083e-02 -1.5422000812543213e-03  3.4266952320269437e-03 -2.4740116376561802e-02 -9.6121619300074280e-03  5.3395911119385473e-03 -2.3310207871459692e-02 -1.8261536572160487e-02  1.4826590235157120e-02 -2.3694062635017304e-02 -3.6289978808233703e-02  1.2061479868882312e-02 -2.2375663677219094e-02 -3.6441989500620595e-02  1.4660101298860155e-02 -1.8335723362255321e-02 -3.3044378041949138e-02  1.5595679585359181e-02 -2.0205922732105228e-02 -3.2164156971951532e-02  1.3109217845557507e-02 -2.3304206640003489e-02 -3.5881522550970622e-02  1.5293738018771014e-02 -2.4312535945379375e-02 -3.5780543970792451e-02  1.3965859784894702e-02 -2.4312777032915595e-02 -3.5044675519781701e-02  1.5578889752840823e-02 -2.4961688284483259e-02 -3.5067110398307469e-02  1.6427516998958051e-02 -2.1971720021806314e-02 -3.0981376310002019e-02  1.4679495359526496e-02 -2.5599763808517285e-02 -3.3992248159530863e-02  1.5896464847185016e-02 -2.5709000056858330e-02 -3.4133952218354441e-02  1.7220664495270682e-02 -2.4213625168910822e-02 -2.9566851902202436e-02  1.6319964947463735e-02 -2.6571894271541340e-02 -3.2864277044739848e-02  1.5393670305173775e-02 -2.7067958606295954e-02 -3.2593727727150676e-02  1.8061469377440964e-02 -2.6723389861888460e-02 -2.7819892573044430e-02  1.6929728129500426e-02 -2.7522740066178889e-02 -3.0902250677350734e-02  1.6191067031315946e-02 -2.8619959686876546e-02 -3.0460711679292221e-02  1.9108494665963385e-02 -2.9300102361433992e-02 -2.5375943256085182e-02  1.7878938577562210e-02 -2.8506595086953634e-02 -2.8396644170590374e-02  1.7182827398919125e-02 -3.0217953645726006e-02 -2.7734500636055731e-02  2.0541668509372054e-02 -3.1974045886895772e-02 -2.2369618916283099e-02  1.7351739750889637e-02 -3.6397007944300480e-02 -2.4606818412493361e-02  1.6430674494399986e-02 -3.4506735067738194e-02 -2.3656840942700597e-02  1.5389414177748263e-02 -3.2938890518607419e-02 -2.2466607293219410e-02  1.4316210681095407e-02 -3.0493894869636957e-02 -2.0776072242109474e-02  1.3336200551748887e-02 -2.7592086180583494e-02 -1.8552159297217916e-02  1.2460490563174250e-02 -2.4678333190789985e-02 -1.5694975693001181e-02  1.1703437587822661e-02 -2.1771047400369812e-02 -1.2409213546001448e-02  1.9892688383034686e-02 -2.4193630415329934e-02 -3.2780115802744425e-02  1.7456192074633753e-02 -2.5180994391532784e-02 -3.4598811434948258e-02  1.7436044910090490e-02 -2.5267378513968722e-02 -3.4464860598395403e-02  1.9728986292846765e-02 -2.43185755