<?xml version="1.0"?>
<VTKFile type="UnstructuredGrid"  version="0.1"  >
<UnstructuredGrid>
<Piece  NumberOfPoints="718" NumberOfCells="2991">
<Points>
<DataArray  type="Float64"  NumberOfComponents="3"  format="ascii">10.06552139815354 4.208937317655034 2.460435624898474  9.972242923280124 4.203500142649458 2.389095435010698  9.993371518633724 4.166142787080622 2.521888869580193  9.978560644805228 4.215590518788404 2.539418242970495  9.957496185879299 4.254794096028794 2.405266654502211  10.04847156260536 4.258937214260218 2.477564651819143  9.963903576996808 4.265253353706453 2.556925450555786  9.94293793522008 4.306288817212056 2.421375563098602  10.03166980001423 4.309151250777934 2.494633203480846  9.949295436024798 4.315072656904184 2.574465019664328  9.928461827159362 4.357925747170635 2.437477315512843  10.01498004453633 4.359486156269657 2.511688079170728  9.934634447817656 4.364995237459078 2.592062935217701  9.91395824297026 4.409646340341578 2.453618258555241  9.998269512404418 4.409874667952599 2.528767180600064  9.919798983180184 4.414985668374674 2.609759453949234  9.899298226666046 4.461411898273467 2.469849154319107  9.981390950324288 4.460258395222936 2.545906704881471  9.904649060142438 4.465020966142552 2.627596421891976  9.884329333028059 4.513219283260906 2.486234665370487  9.964117660723936 4.510587543223423 2.563165079338934  9.873732927403314 4.148008157836672 2.474690900669974  9.861480362717664 4.198043321843594 2.49192457935491  9.849326280970676 4.248314970390728 2.509143970986769  9.837192361717957 4.298749474892071 2.526401981220737  9.825013768110258 4.349325922937538 2.543732231741408  9.812710836826236 4.400043003851473 2.561181715470424  9.800143338993369 4.450924067701028 2.578829671517043  9.053182690690637 4.120635273835838 2.301583666107857  8.950787244282248 4.130685335992926 2.242382029309165  8.980347016428576 4.091714841892723 2.375714233287916  8.975051382098368 4.146214383095935 2.394052919473817  8.945141437711648 4.188662905339514 2.257824435179705  9.049001200181372 4.176794122593442 2.318609787903795  8.939502003562557 4.246684332721401 2.273089322690033  9.044768207774073 4.233005068870511 2.335484016661751  8.969764813124435 4.200839531260796 2.412220277747406  9.04051514309017 4.289265172446819 2.352306441445103  8.933859403923124 4.304732436669251 2.288292243490713  8.96446901307967 4.255543930274995 2.430360493302131  9.036267266988869 4.345550985242078 2.369156334703782  8.928218024663467 4.362775307818239 2.303520648206931  8.95916172274411 4.310294816496466 2.448551439281559  9.032055921414846 4.401823008938865 2.386091624735961  8.922588280907171 4.42077107865004 2.318828769636111  8.953852461010056 4.365042626306881 2.466862349922159  9.027922123696797 4.45802939327677 2.403161818627037  8.916983929186062 4.478668329132883 2.334257728100245  8.948561937147277 4.419720070300956 2.48534643236031  9.294722774279311 4.208211191337699 1.749695975338284  9.190407154156381 4.200536118044696 1.825006859217305  9.285240252528464 4.206869009084635 1.851247351835382  9.280831517752192 4.272662041233631 1.852754116549778  9.185551913090061 4.267215324975228 1.825296868020789  9.290086918643807 4.275801904637608 1.747284514415678  9.285331017833512 4.343312399112141 1.744801438361978  9.180598734651177 4.333775504233076 1.825507043884235  9.27630094141462 4.338359058256072 1.85416665211464  9.280522914864758 4.410755380721286 1.742277979654409  9.175605530624175 4.400246767374348 1.825674759587194  9.271725251680358 4.404010216025244 1.855533716286833  9.170632614502116 4.466651929073227 1.825827040761286  9.275739584323119 4.478147498293914 1.739737766046788  9.267173117008047 4.469628847215612 1.856886260939346  9.165735165201403 4.532985118509784 1.825983294352904  9.271055473778855 4.545501093481485 1.737197091105098  9.262711946177758 4.535212246161577 1.858251015396938  9.266534787272223 4.612809041077213 1.734669720400547  9.16096704085907 4.599214993854307 1.826162043676963  9.258395468057536 4.6007430341741 1.859648579157984  9.200033266960022 4.335414225812032 1.668770025871608  9.194736875312525 4.404261915251386 1.663117209527739  9.18946234820427 4.473025476573187 1.657450556585163  9.184266957355049 4.541711843981845 1.651772322346439  9.179215840671857 4.610307509364881 1.646079968807679  9.659417655906273 4.171168869832805 2.27968469104405  9.520644181936355 4.144363148256677 2.318700928808441  9.632321392858941 4.13827429021689 2.374955343907686  9.625935841867722 4.190579217832098 2.391933125406688  9.515882443228129 4.198508539283403 2.334136016707644  9.651706425115792 4.22561859648059 2.293951031472103  9.61948789103797 4.243077685720881 2.408880381016572  9.511016287624972 4.252826930282509 2.349510716771683  9.643973522617371 4.280235791115261 2.308151339223454  9.61299493665445 4.295753565076653 2.425850116184705  9.506097216564289 4.307292029994179 2.364886800226506  9.636219818977638 4.335013954471694 2.322347800796494  9.606484364824892 4.348591075445714 2.442892288704626  9.501176846066349 4.36189370141967 2.380322562715947  9.628456240599043 4.389937915909071 2.336602704813784  9.59998313507201 4.401597142613383 2.460066643491204  9.496312731675852 4.416636074190164 2.395880575924383  9.620693654631079 4.445024451497357 2.350982705050542  9.593537501877188 4.45477796502884 2.477448919443453  9.491582907078898 4.471555659886097 2.411629997661823  9.612938183771709 4.500324460968164 2.365551401160177  9.591897593978487 4.178331694211654 2.20008867992287  9.586058037507293 4.234650123585078 2.21276541079363  9.580139992620342 4.291120004488968 2.225358426768164  9.574181893486543 4.347716685034839 2.237925518915727  9.568217574943775 4.404423143200606 2.250527791673186  9.562286365599332 4.461239010180116 2.263224565064882  9.556478080775488 4.518217537996166 2.276101643280207  8.876142600290281 4.089197535295416 2.347588758868751  8.86907845556552 4.144008504589112 2.366283225463278  8.862097548574022 4.198945441365408 2.38477701218976  8.855124256747047 4.253973424973394 2.403238188377883  8.848127170408159 4.309041778139653 2.4217580462646  8.841081318936194 4.364091943626373 2.440403669549137  8.833976724751812 4.41904833798498 2.459225302540055  9.942172703320498 4.118202327839835 2.609749586008327  9.928972611767602 4.166752545430362 2.628038485418664  9.915903441568744 4.215519587761015 2.646305786101788  9.902843226935254 4.264449422474853 2.664637323232657  9.889722543007592 4.313519494417461 2.683041805869503  9.876446421022882 4.362723427179293 2.701555893935364  9.862867828744408 4.412054954331477 2.720243290804004  9.82988938536654 4.265518696504096 1.883244591082174  9.696650413065058 4.244299953148792 1.851032447883822  9.761108246811318 4.244003941388333 1.966469230186049  9.749930304723641 4.30457816913175 1.972421229553955  9.686520353310428 4.307572296726192 1.85355883090693  9.816644918395466 4.327435900718652 1.886192719448414  9.738844015671141 4.365240197860174 1.978251422107041  9.676441577017375 4.370908350777144 1.855965813188521  9.803567786825909 4.389418555965507 1.889029338621665  9.72781124500457 4.425978737408825 1.984022357542194  9.666399620967542 4.434294788835982 1.858310820774559  9.790591768362578 4.451442536522325 1.891802853906838  9.716792511945085 4.486780674009149 1.989789903098682  8.935689530643861 4.051779869986135 2.46846159703289  8.929370370406893 4.104001315166376 2.488190399427086  8.92312198010079 4.156395323358764 2.507745642488703  8.91687075184668 4.208909855851932 2.52729788074818  8.910595498119452 4.261506365902133 2.546924875514747  8.904276821430173 4.31413181394523 2.566699037297301  8.897888961346347 4.366709731791768 2.586701843752079  9.291741111153348 4.125952838180872 2.333367832747216  9.255734456969449 4.149855558591939 2.242812418410329  9.15631706828624 4.128138333935238 2.301404074919237  9.152842309069399 4.184072186734324 2.317893821596572  9.252906017759257 4.206781261893293 2.258119939839974  9.288722866517414 4.180837540022612 2.3497073089387  9.149271310702213 4.240075864500891 2.334253572002109  9.249941443993478 4.263772905828157 2.273304108251889  9.285580642375971 4.235819070265149 2.365949981937695  9.145661136038722 4.296143016124208 2.35056974371981  9.246922626976433 4.320826436995286 2.288452358996405  9.282384905222782 4.290902264048433 2.382170116214321  9.142062105713414 4.352251913721188 2.366915674162251  9.24391934865986 4.377930160534795 2.303629560588179  9.279200993577488 4.34606876187451 2.398434827231057  9.13852257895673 4.408370043854362 2.383348541711274  9.241001853124162 4.435062580791873 2.318888250487035  9.276096267911942 4.40129339181724 2.414798854079472  9.135091378536139 4.464453988631487 2.399918703911369  9.238249602995277 4.492184988691144 2.334268413886361  9.273150013099947 4.456538729419442 2.431313614294262  9.830556882972415 4.101022932493454 2.577747189695471  9.820265245075788 4.15019931443439 2.595290005612278  9.810042997909045 4.199604793490246 2.612824755261606  9.799806786226959 4.249175310956118 2.630422342287006  9.789515107505199 4.298906972125387 2.648101014882582  9.779112838930967 4.348811333285667 2.66589523634604  9.768520603652348 4.398956934089937 2.683869879727113  9.885660093085846 4.269047533070811 1.974659324518593  9.870953115830503 4.328655258796945 1.981117192190877  9.856461486110096 4.388366419323197 1.987460673284119  9.842093029860882 4.448132808925477 1.993745698874639  9.215314702392902 4.093522924170815 2.420696807815971  9.212011420573551 4.146624326994091 2.438862087751501  9.208614800330848 4.199868120657758 2.456922873181557  9.205179637725889 4.253223043529419 2.474969830052657  9.201750636588988 4.306666344675946 2.493071007659473  9.198376713778631 4.360167463394483 2.511285787967346  9.195111298905621 4.413685137283143 2.529678394633866  9.851267204398656 4.250938599681926 2.067660294256702  9.83874072396396 4.309161982981333 2.076490883301568  9.826347742365144 4.367526958700695 2.085
[...]
<PointData  Vectors="f_24"> 
<DataArray  type="Float64"  Name="f_24"  NumberOfComponents="3" format="ascii">-2.7442588961316846e-02 8.0822697222921625e-02 1.4911301624235053e-02  -2.6522644720674646e-02 8.0444592949696234e-02 1.5841464440772439e-02  -2.7462499863866393e-02 8.4199531664779406e-02 1.5440115735673230e-02  -2.6610577583383841e-02 8.5420648535689606e-02 1.4767401684254352e-02  -2.5727092720476529e-02 8.1769853371543161e-02 1.4145088644194547e-02  -2.6592203595025763e-02 8.2130765077431209e-02 1.3772885317213702e-02  -2.5740048277725015e-02 8.6319321224705300e-02 1.4100781160573212e-02  -2.4918399690638655e-02 8.2793098263173034e-02 1.2541640110576230e-02  -2.5711307080087818e-02 8.3131160224528558e-02 1.2680715204239383e-02  -2.4840082245335095e-02 8.6952506936837301e-02 1.3411526192597077e-02  -2.4085499181799849e-02 8.3569206886749625e-02 1.0996469307774578e-02  -2.4798380891256269e-02 8.3876900385520980e-02 1.1605397187814991e-02  -2.3862210471809402e-02 8.7388859890817489e-02 1.2613328653507354e-02  -2.3185570031342681e-02 8.4178135049019387e-02 9.3459097414144571e-03  -2.3799215612177398e-02 8.4448691791111835e-02 1.0437100330435200e-02  -2.2739980747703979e-02 8.7599114438060163e-02 1.1587036401834993e-02  -2.2175407710743306e-02 8.4605959929793889e-02 7.4283316695493654e-03  -2.2673321786292125e-02 8.4837412448190846e-02 9.0269273640388916e-03  -2.1464058086708180e-02 8.7567890505769796e-02 1.0312292605434427e-02  -2.1045845125341790e-02 8.4842792712612219e-02 5.2307146189525403e-03  -2.1391543062635750e-02 8.5011735435555624e-02 7.3627555301261083e-03  -2.6536973731924800e-02 8.5532641386232483e-02 1.6736196512127613e-02  -2.5760588581949968e-02 8.6810356840105657e-02 1.5678959437157008e-02  -2.4969199751618446e-02 8.7773534514169249e-02 1.4662006606561851e-02  -2.4162353599377275e-02 8.8466191813978273e-02 1.3644187411843190e-02  -2.3297750043136473e-02 8.8952996572288015e-02 1.2521331450086406e-02  -2.2318177276967537e-02 8.9191619001043734e-02 1.1144635425533149e-02  -2.1204105724548845e-02 8.9178116706812569e-02 9.4537896960527282e-03  -1.6709816726188563e-02 8.7027584170622563e-02 1.7782292722419445e-02  -1.5559733440326597e-02 8.3777496904192589e-02 1.6879872884746693e-02  -1.5749701550175636e-02 9.1047118138859476e-02 1.8200828626567567e-02  -1.5930034949225513e-02 9.2349560300456476e-02 1.6043137406059293e-02  -1.5667216415928959e-02 8.4903331315469427e-02 1.3642660238293648e-02  -1.6742164213390594e-02 8.8285536340875409e-02 1.4970896849037926e-02  -1.5722854862442678e-02 8.5683218877890086e-02 1.0743383055596587e-02  -1.6748054265756949e-02 8.9164754506853058e-02 1.2418883424811157e-02  -1.6061303627240647e-02 9.3207803777146894e-02 1.4031295769910693e-02  -1.6733476205467161e-02 8.9762053154195789e-02 1.0052934710813441e-02  -1.5772536504318826e-02 8.6224732925869005e-02 8.0224366260510070e-03  -1.6146200161908660e-02 9.3750631609390706e-02 1.2140279192599976e-02  -1.6728044169957951e-02 9.0207307393642272e-02 7.4695733838201798e-03  -1.5823954442178538e-02 8.6643647233611065e-02 5.0592200997155393e-03  -1.6223811305959120e-02 9.4121613732133166e-02 1.0016121767443244e-02  -1.6696372586166783e-02 9.0491348828724005e-02 4.4703735349020677e-03  -1.5848220753028056e-02 8.6925642571341930e-02 1.6969113346998275e-03  -1.6282645241663517e-02 9.4280179237665254e-02 7.4927428230076214e-03  -1.6673236395485527e-02 9.0633963991164079e-02 1.1285787796740934e-03  -1.5864806780143643e-02 8.7107848613605765e-02 -1.9645607166078986e-03  -1.6323170123159092e-02 9.4270922747912933e-02 4.6002322845573743e-03  -1.6226917551533587e-02 4.6997998486784098e-02 1.2852314147477858e-02  -1.6053479981285847e-02 5.3255743681244375e-02 1.3206139557626428e-02  -1.6845442124729874e-02 5.4873738586150002e-02 1.3445760047807951e-02  -1.6579715228387158e-02 5.4721642186576207e-02 8.7863659951939264e-03  -1.5834712688143886e-02 5.2979702441279967e-02 8.4687087912339969e-03  -1.5956581709012121e-02 4.6482784280683483e-02 8.1499581033721083e-03  -1.5697182797724859e-02 4.6077762846558609e-02 3.9567977566949642e-03  -1.5622528718015965e-02 5.2758590564841973e-02 4.2590951707320353e-03  -1.6329259668174761e-02 5.4589285549133774e-02 4.6403011287887708e-03  -1.5426167089298237e-02 4.5715163573094769e-02 -1.7308940984273234e-04  -1.5404578916910331e-02 5.2551946259813492e-02 1.5274131585459331e-04  -1.6071622322994361e-02 5.4457006133138093e-02 6.0040257080144559e-04  -1.5170805863594558e-02 5.2332959256501693e-02 -4.1639228860344043e-03  -1.5134723812809600e-02 4.5362713618859116e-02 -4.5235025044956792e-03  -1.5793272528021814e-02 5.4308472848248142e-02 -3.6571517059048137e-03  -1.4920458241734007e-02 5.2104993628025141e-02 -8.7561220794246854e-03  -1.4826302741615610e-02 4.5025269797245242e-02 -9.1336537456948759e-03  -1.5496589739415442e-02 5.4144886150207072e-02 -8.1985815740930734e-03  -1.4517068236872399e-02 4.4708703354300154e-02 -1.3969198341772937e-02  -1.4673247586763232e-02 5.1878075248392476e-02 -1.3568012444401657e-02  -1.5206378206404570e-02 5.3977098075953682e-02 -1.2966700150275708e-02  -1.4838518458711834e-02 4.0550710586203659e-02 3.7399381265125343e-03  -1.4594461902645356e-02 4.0020738554876249e-02 -4.2630311243296507e-04  -1.4334310962735486e-02 3.9511360215377794e-02 -4.8108405018094050e-03  -1.4059097966843745e-02 3.9033112910632758e-02 -9.4400025665572745e-03  -1.3777432097770152e-02 3.8593018066453710e-02 -1.4286289711961444e-02  -2.3328131160530782e-02 8.0993252926623627e-02 1.7587021828739613e-02  -2.2254955741869760e-02 8.4838630902579176e-02 1.8298317901770826e-02  -2.3828523361987673e-02 8.6096961802101871e-02 1.8248896402193425e-02  -2.3217340788051127e-02 8.7411870055941115e-02 1.6296593714847613e-02  -2.1757530897820655e-02 8.6076643249132945e-02 1.5800225594089810e-02  -2.2740243839281395e-02 8.2184242134390087e-02 1.4901445968814183e-02  -2.2624060266700354e-02 8.8403096173397561e-02 1.4455598880181489e-02  -2.1272264147287254e-02 8.6990211643287532e-02 1.3480002274697523e-02  -2.2153454266890353e-02 8.3083026074090391e-02 1.2410323347633975e-02  -2.2045682949299192e-02 8.9115413527533133e-02 1.2695927567974193e-02  -2.0814792139760039e-02 8.7640717749349020e-02 1.1290893267785367e-02  -2.1585836329009497e-02 8.3751645865870569e-02 1.0052387405947136e-02  -2.1448623242963143e-02 8.9632486387546395e-02 1.0802388552297261e-02  -2.0351897131416188e-02 8.8121985627382493e-02 8.9501953496137678e-03  -2.0989084883413858e-02 8.4273250661667937e-02 7.5437393636854470e-03  -2.0775549717765240e-02 8.9928536455360697e-02 8.6040107049363580e-03  -1.9831978624930580e-02 8.8417291441851106e-02 6.2330723903544806e-03  -2.0335051453847890e-02 8.4629613780170754e-02 4.6834409214515623e-03  -2.0075746443191409e-02 9.0018733013382257e-02 6.0318274115853153e-03  -1.9317455905564360e-02 8.8542891487027403e-02 3.1843650584018734e-03  -1.9643890070636324e-02 8.4835708103327995e-02 1.5121393380424586e-03  -2.2070047803162397e-02 7.7264951828056871e-02 1.7373942548785343e-02  -2.1544856386546098e-02 7.8289188781848387e-02 1.4108763404097687e-02  -2.1064556824118973e-02 7.9087113763771352e-02 1.1139107887548155e-02  -2.0589337922128977e-02 7.9696059724059146e-02 8.3473205605714435e-03  -2.0091605652312397e-02 8.0174191722042931e-02 5.4201150952160838e-03  -1.9542819169592458e-02 8.0515867400595853e-02 2.1299406795792296e-03  -1.8985641511779072e-02 8.0718590170381133e-02 -1.4726785313292927e-03  -1.4475434443587492e-02 8.9718758871131565e-02 1.7835152255322048e-02  -1.4783381040997518e-02 9.1021521642815781e-02 1.5532992508168536e-02  -1.5019533945746478e-02 9.1905600024826256e-02 1.3399405275042979e-02  -1.5199416544097517e-02 9.2476407115486825e-02 1.1389935756343072e-02  -1.5367579955432293e-02 9.2886217326560244e-02 9.1344791575320473e-03  -1.5506168943704532e-02 9.3082966516953761e-02 6.5163324803793497e-03  -1.5605219743603130e-02 9.3131111179981782e-02 3.5002731671203639e-03  -2.7430412253835947e-02 8.6928541641432780e-02 1.5176783084954815e-02  -2.6563235678854453e-02 8.7958586517901574e-02 1.5229497324430647e-02  -2.5683675416526115e-02 8.8686437052762898e-02 1.5226423678183543e-02  -2.4781010466328666e-02 8.9146122703931976e-02 1.5160589856714399e-02  -2.3807959445144175e-02 8.9383086511526322e-02 1.4988913917402235e-02  -2.2689020806991901e-02 8.9315226901914499e-02 1.4649828359922547e-02  -2.1397426610502212e-02 8.8953439179642671e-02 1.4058295719383104e-02  -2.0377550705105621e-02 5.3182294836758619e-02 1.3032893551201716e-02  -1.9377856544595312e-02 5.2164608564314208e-02 1.3403856211487424e-02  -2.0919840846516470e-02 5.9822757599647822e-02 1.4261486797181425e-02  -2.0379091946629211e-02 6.0205063732527368e-02 1.0170922489392420e-02  -1.8896777323592812e-02 5.2155134466712799e-02 9.0491307735936239e-03  -1.9809098795172911e-02 5.3274356862323832e-02 8.8454562746816470e-03  -1.9849034734358974e-02 6.0507296979943261e-02 6.5137282282549140e-03  -1.8429169490313580e-02 5.2164200566820425e-02 5.1656210067486889e-03  -1.9258068357819035e-02 5.3356651701448418e-02 5.1121961479247448e-03  -1.9302569701380997e-02 6.0753032249092745e-02 2.9952354165044609e-03  -1.7946498295272149e-02 5.2161522456536040e-02 1.3781582075310620e-03  -1.8692310776925708e-02 5.3422865370582766e-02 1.4916221609023704e-03  -1.8736427577388078e-02 6.0955899609472071e-02 -7.0243908180267728e-04  -1.4827174708175732e-02 9.4946366114502176e-02 1.8442894057000774e-02  -1.5151131751029957e-02 9.6179671632667066e-02 1.7174033012828480e-02  -1.5396859455201153e-02 9.6981840640963116e-02 1.5950105068701939e-02  -1.5571408357432598e-02 9.7433354762375912e-02 1.4755156357759987e-02  -1.5720304287391629e-02 9.7674898928864898e-02 1.3328602130701030e-02  -1.5860993206145688e-02 9.7622302181222961e-02 1.1576233803912759e-02  -1.5963896965890879e-02 9.7339383440810057e-02 9.3960480080077773e-03  -1.9647232382498648e-02 8.7694122125337018e-02 1.8443964861722475e-02  -1.8873300704642933e-02 8.2771831365067272e-02 1.7495218353343635e-02  -1.7924214943301646e-02 8.6682346046612388e-02 1.7958744031682305e-02  -1.7834090641830749e-02 8.7921770445236191e-02 1.5143294002948105e-02  -1.8661136107212897e-02 8.3921433366291473e-02 1.4293317811526218e-02  -1.9391979021391646e-02 8.8951952244222726e-02 1.5914534911045653e-02  -1.7727434422264467e-02 8.8794777569196237e-02 1.2573429569135215e-02  -1.8458847659329401e-02 8.4767429165012759e-02 1.1406251791671505e-02  -1.9143051106098864e-02 8.9836981105313851e-02 1.3574809527621835e-02  -1.7618372688392784e-02 8.9390398418695810e-02 1.0199629329406759e-02  -1.8261076318110900e-02 8.5381624724237631e-02 8.7205534154586838e-03  -1.8898181153381068e-02 9.0433602612696701e-02 1.1397754204125560e-02  -1.7515912843012040e-02 8.9833476909635460e-02 7.6130807558944585e-03  -1.8060352581270381e-02 8.5861563442685002e-02 5.8301436559196730e-03  -1.8662842733557092e-02 9.0859008298596736e-02 9.0349735754092168e-03  -1.7386599006097462e-02 9.0107116939401918e-02 4.6074765686054901e-03  -1.7829499308543269e-02 8.6192467656979396e-02 2.5415707504122440e-03  -1.8397151533644903e-02 9.1099171546732291e-02 6.2522190386348053e-03  -1.7273427992823540e-02 9.0231441343428143e-02 1.2587861281822266e-03  -1.7620741849312092e-02 8.6393471300350258e-02 -1.0743561174434489e-03  -1.8151663230122669e-02 9.1157162727788107e-02 3.1279736589533784e-03  -2.6618314679090069e-02 8.8852042953352320e-02 1.6404507253343852e-02  -2.5799379412368588e-02 8.9938348071042548e-02 1.6174573372569948e-02  -2.4993280969913143e-02 9.0715361856642127e-02 1.5925956312446449e-02  -2.4176050192758612e-02 9.1211764788279762e-02 1.5621317500687626e-02  -2.3318342837229351e-02 9.1464208467274322e-02 1.5219189771676923e-02  -2.2323321779101069e-02 9.1413479505391110e-02 1.4607073223527512e-02  -2.1200536315635461e-02 9.1024318628482370e-02 1.3722066417716755e-02  -2.1654324023220879e-02 5.8857540511260471e-02 1.3511761242995416e-02  -2.1039330377716964e-02 5.9322594757800592e-02 9.5631483221440463e-03  -2.0436861001528681e-02 5.9707460807752334e-02 6.0424421281750689e-03  -1.9814252427677162e-02 6.0038892296928992e-02 2.6664816076545444e-03  -1.8861333723974045e-02 9.2352053437723611e-02 1.8874942565447944e-02  -1.8711227430376436e-02 9.3658476366582991e-02 1.7069331630046952e-02  -1.8552602098435126e-02 9.4535137854144496e-02 1.5370842378821827e-02  -1.8386385528391929e-02 9.5076040463196579e-02 1.3767770537869217e-02  -1.8229457243124931e-02 9.5418080267856226e-02 1.1971112796636880e-02  -1.8042964192874704e-02 9.5513456587489803e-02 9.7780341884678920e-03  -1.7871953107934078e-02 9.5399305999595271e-02 7.2070356358628898e-03  -2.2492024297987249e-02 6.5479398074936787e-02 1.4528138602812596e-02  -2.1875509720677349e-02 6.6190943223212909e-02 1.0851017149238267e-02  -2.1271717120242038e-02 6.6751104579696754e-02 7.5407975142620532e-03  -2.0638623057778391e-02 6.7208729744402632e-02 4.3765684875243559e-03  -1.9173573168257817e-02 6.0325669308996147e-02 -8.7872252153322651e-04  -1.9975954303347386e-02 6.7599220999804033e-02 1.0444905040219107e-03  -1.8160084383721419e-02 6.1115201195590517e-02 -4.7036085347040013e-03  -1.8530135767900652e-02 6.0560030089163615e-02 -4.7201270388664267e-03  -1.9283179523659814e-02 6.7912253075001677e-02 -2.5905514335170412e-03  -1.7576080654159713e-02 6.1234849915652617e-02 -8.9707907603789275e-03  -1.7863884158322244e-02 6.0755683816124680e-02 -8.8217337567377922e-03  -1.8561097928298010e-02 6.8175109975041004e-02 -6.5009554307007295e-03  -1.3345214090078312e-02 9.4040045238913100e-02 1.8163814518018729e-02  -1.3811127295818385e-02 9.5235991711815224e-02 1.6789282449811097e-02  -1.4761042943371347e-02 9.6718923239613161e-02 1.2671033097368051e-02  -1.4494527026613651e-02 9.6473057095510156e-02 1.4181021407347619e-02  -1.5003268380810040e-02 9.6668156570220126e-02 1.0829501557572261e-02  -1.5196650475508125e-02 9.6380403361787742e-02 8.5750892236281257e-03  -1.7730836998778150e-02 7.8879366507487295e-02 1.6430982937691897e-02  -1.7583933566540845e-02 7.9791573839811905e-02 1.2747208868977634e-02  -1.7440146037172713e-02 8.0467465053578213e-02 9.4920281772836439e-03  -1.7297861859821431e-02 8.0958906568843664e-02 6.4162829217629331e-03  -1.7156054470947809e-02 8.1348748597183371e-02 3.1094660386829995e-03  -1.6984609304503847e-02 8.1618826623971089e-02 -5.8626584940041750e-04  -1.6831651438611751e-02 8.1803559270500370e-02 -4.5550810706768158e-03  -1.7113448571168175e-02 6.1961402171563679e-02 1.3961821230960797e-02  -1.6877110568915461e-02 6.2136807274459541e-02 9.4532855558244859e-03  -1.6656695447842207e-02 6.2257895547671728e-02 5.4354847399002018e-03  -1.6433432203015071e-02 6.2328072452556733e-02 1.5421724953314433e-03  -1.6190264339684596e-02 6.2358241785311297e-02 -2.5787385981213412e-03  -1.5927066283811825e-02 6.2344961322650175e-02 -7.0043049679369062e-03  -1.5673693691225982e-02 6.2305092859056777e-02 -1.1671486820896885e-02  -1.6684323207281866e-02 8.0910356620605139e-02 1.6530645266848665e-02  -1.6652256685214990e-02 8.1909639694663042e-02 1.2981801008047310e-02  -1.6593886018280879e-02 8.2633188077109315e-02 9.8390292700947426e-03  -1.6540497511599830e-02 8.3151402086892742e-02 6.8841900884361300e-03  -1.6492191462157430e-02 8.3562424788702641e-02 3.6886121404995638e-03  -1.6418484336949590e-02 8.3846192844087383e-02 9.6679423833526449e-05  -1.6353552651326132e-02 8.4041062262003835e-02 -3.7803284881451939e-03  -2.3316741981307339e-02 8.9961532679079553e-02 1.8685330167647087e-02  -2.2737959262816399e-02 9.1235669045136150e-02 1.7196753827103554e-02  -2.2185462504940225e-02 9.2156514523089664e-02 1.5787939920687957e-02  -2.1650519708439456e-02 9.2771859730409745e-02 1.4417400067406929e-02  -2.1112037776217708e-02 9.3157334319252966e-02 1.2925462215140149e-02  -2.0499966202153105e-02 9.3280483146874343e-02 1.1098217081028873e-02  -1.9863591136984732e-02 9.3129143283870369e-02 8.9114741659536423e-03  -1.6341590069428015e-02 6.3809290286535231e-02 1.3931158189234162e-02  -1.6172265769023000e-02 6.4007008459683462e-02 9.4218292042572462e-03  -1.6012675232446906e-02 6.4143928168155007e-02 5.4044851626203023e-03  -1.5853593112943123e-02 6.4219426013186323e-02 1.5212019491121979e-03  -1.5682318437520364e-02 6.4247312191223205e-02 -2.5835861985745866e-03  -1.5489217478292778e-02 6.4226110309791543e-02 -7.0025480456207016e-03  -1.5304854973244126e-02 6.4179618820633721e-02 -1.1646733271573890e-02  -2.5723360859883141e-02 8.1954373804616329e-02 1.6782890885990883e-02  -2.5051174129642879e-02 8.4508258492613481e-02 1.7677785777948402e-02  -2.4361531996072116e-02 8.5827808490420224e-02 1.5863546447395023e-02  -2.4991151889307766e-02 8.3278589335469527e-02 1.4920246562671848e-02  -2.3675233504456255e-02 8.6839123477138513e-02 1.4150866642231034e-02  -2.4244417883953817e-02 8.4303647803072437e-02 1.3156344093717154e-02  -2.2990746715441338e-02 8.7586222653398535e-02 1.2495807884050121e-02  -2.3485690263818658e-02 8.5080314828404890e-02 1.1458867403603440e-02  -2.2273139369553246e-02 8.8139105516141333e-02 1.0728813940485235e-02  -2.2673970858882724e-02 8.5687054884074826e-02 9.6410101325484880e-03  -2.1466022315296686e-02 8.8475754586299402e-02 8.6704272298098305e-03  -2.1769672670633206e-02 8.6094902767609185e-02 7.5463524910832237e-03  -2.0585769135885161e-02 8.8588112044675926e-02 6.2607327988228982e-03  -2.0767740858529692e-02 8.6308862547777823e-02 5.1288145487958705e-03  -2.1236002496458784e-02 7.9756272549177554e-02 1.7550475070868075e-02  -2.0779166469262526e-02 8.0852985486049134e-02 1.4356850317597101e-02  -2.0381726798896240e-02 8.1691837182458857e-02 1.1456249138715551e-02  -1.9993039546502629e-02 8.2316630424303872e-02 8.7387250750964093e-03  -1.9589211713343817e-02 8.2805164246830418e-02 5.8509464059764375e-03  -1.9133338530936069e-02 8.3156001294608650e-02 2.5957335055099774e-03  -1.8693850602919962e-02 8.3369607306800875e-02 -9.9435913661229483e-04  -2.5786579513961804e-02 8.8036572358160328e-02 1.7459996911259424e-02  -2.5040628882086337e-02 8.9276073630174202e-02 1.6483053670757360e-02  -2.4302774866458838e-02 9.0188413803339196e-02 1.5536792151865833e-02  -2.3563095151709512e-02 9.0823078402480925e-02 1.4585887131419681e-02  -2.2785185514617889e-02 9.1228642155177064e-02 1.3520272586056512e-02  -2.1900329471028931e-02 9.1363275506476785e-02 1.2193748205417149e-02  -2.0913700245183891e-02 9.1208211890096563e-02 1.0534126474655755e-02  -1.4611400415799855e-02 4.5329667638203786e-02 3.5338920667094599e-03  -1.4416239055898141e-02 4.4908374225522046e-02 -6.6985558148398121e-04  -1.4208024887909322e-02 4.4491512625958761e-02 -5.0963521024140592e-03  -1.3985386596861200e-02 4.4091190751510884e-02 -9.7707944363602944e-03  -1.3756934556810031e-02 4.3711525884817928e-02 -1.4667112146388855e-02  -2.1792630284044687e-02 6.7371402091556731e-02 1.5184235009880174e-02  -2.1256912825473963e-02 6.8085830578630158e-02 1.1430654665984329e-02  -2.0725583321541126e-02 6.8648456727579188e-02 8.0487848185010289e-03  -2.0167150412955331e-02 6.9102192926516925e-02 4.8049423855010933e-03  -1.9577614935609160e-02 6.9486234954184864e-02 1.3695348680990177e-03  -1.8966351171240587e-02 6.9790992764514323e-02 -2.3828603329466066e-03  -1.8329087656447772e-02 7.0029427991809529e-02 -6.4180389090413180e-03  -1.4113990601187371e-02 6.2893155885936414e-02 1.3751410472544969e-02  -1.3295455341802050e-02 6.2100621780190421e-02 1.3984848747075994e-02  -1.4005959069812442e-02 7.0106894990484850e-02 1.4479016339018446e-02  -1.4022524724662455e-02 7.0542491697617005e-02 1.0191258255476503e-02  -1.3276480813560887e-02 6.2094120150217834e-02 9.4108345950271663e-03  -1.4061277657261777e-02 6.2897099624219410e-02 9.1502857912793261e-03  -1.4054268816092202e-02 7.0829990432646428e-02 6.3980508669236966e-03  -1.3274940136271897e-02 6.2045789214137580e-02 5.3554735511173110e-03  -1.4017554239950231e-02 6.2858163110087406e-02 5.0662018217270208e-03  -1.4095490362445664e-02 7.1002076776926118e-02 2.7447733795084826e-03  -2.1935886341891593e-02 9.0921933690490217