<?xml version="1.0"?>
<VTKFile type="UnstructuredGrid"  version="0.1"  >
<UnstructuredGrid>
<Piece  NumberOfPoints="729" NumberOfCells="3029">
<Points>
<DataArray  type="Float64"  NumberOfComponents="3"  format="ascii">9.524486172983208 1.894423738320423 3.072529535859104  9.425936205174128 1.908122245238897 3.127490306487424  9.454040413016964 1.845006067356836 3.006830537930293  9.462117805287527 1.799990561798499 3.031964015958329  9.433697916343521 1.862879790317049 3.152939067086798  9.532767908874277 1.849343625215287 3.097581882597165  9.441535273791397 1.817632619097159 3.178341634670738  9.541148005670079 1.804271914921158 3.122582606493121  9.47028009895376 1.75497564625529 3.057034723062074  9.549569224306838 1.759214274426862 3.147542702486218  9.44940726917504 1.772393200092095 3.203707192620144  9.47847653700012 1.709969501330268 3.082063338136365  9.557986983863577 1.714172279227788 3.172472275655399  9.45727723812381 1.727158900236281 3.229046545381786  9.486666930538741 1.664978140102654 3.107063166583217  9.566356117211036 1.669141222301906 3.197384520402304  9.465106826151798 1.681925791756036 3.254370310073452  9.494813029272098 1.619999946386539 3.132052485767023  9.574610962654242 1.624105167607541 3.222300768635864  9.472854383015324 1.636682019906344 3.279698687553435  9.502865496133451 1.575028018533279 3.157065589901537  9.432785009215388 1.610125665712554 2.600180355191136  9.561615566077061 1.641220067113647 2.65447893951913  9.536711966467877 1.617831103271958 2.547952938444555  9.553213561971107 1.692242699470965 2.639569533554867  9.570035501171018 1.590233652626806 2.66929588324331  9.440870852430967 1.557862730038447 2.61106941567902  9.545017570771412 1.565134472277366 2.55632516033529  9.578444181143873 1.53930262850067 2.684055724145317  9.448951915157117 1.505644631339751 2.621889858043449  9.553312080189311 1.512481249081644 2.564633768560185  9.457019080937155 1.453474743461292 2.632687171475329  9.586837609042124 1.488437148764276 2.698785212298447  9.561594050334447 1.459882916295616 2.572916916339095  9.595209206964054 1.437646002129307 2.713515477497376  9.465056302883493 1.401386510885865 2.643502585752632  9.569866883757101 1.407344929642711 2.581212290080458  9.60353357279309 1.386910975642145 2.728275697480514  10.12187354662648 2.023451590190072 3.113190321454531  10.05827430135474 2.065515669507915 3.195533959213763  9.980611037662829 2.0162215987653 3.141400803845674  9.988370498409887 1.971759910960195 3.168539980758404  10.06600434456413 2.02162620160527 3.22444541938774  10.12847002615854 1.979161503041123 3.140655171703289  9.996150573798641 1.927347483887534 3.19563058799724  10.07372411283473 1.97778436122914 3.253307849381268  10.1350074970474 1.934904716082493 3.168084471699196  10.00393262875889 1.882970244317182 3.222675341051092  10.08142776017558 1.933970432425944 3.282129519465911  10.14150852426371 1.890664219565491 3.195478261015096  10.01170954163524 1.838623739905114 3.249674221574906  10.08912727574698 1.89017566179102 3.310908440231145  10.14800890287883 1.846436468027522 3.222836565778182  10.01947469687073 1.794315355900225 3.276620720292324  10.09683628027408 1.846405892364079 3.339633910360154  10.15454964740501 1.802233145150412 3.25015094053725  10.02720955815926 1.750050411992349 3.303503850016738  10.10454790911452 1.802681232209535 3.368280747747131  10.16116415395965 1.758093633262549 3.277390632281457  9.233938421346204 1.79753018531484 2.987185471033776  9.111794812874162 1.800545649166652 3.025305589106762  9.175653729274483 1.745342640209099 2.911559987685989  9.182778768388836 1.698988943820645 2.935699832281367  9.118352899274024 1.755372836699925 3.051124515579041  9.241150984343594 1.752384815737196 3.012640818449581  9.189921057341014 1.652617583415595 2.959778947801913  9.124918618835913 1.71018032357636 3.076905948707676  9.248397406111616 1.70722012639642 3.038043293825028  9.197069441957751 1.606249229507294 2.98381980090106  9.131488010110468 1.664983138223322 3.102662278232927  9.255658201798616 1.662051289689505 3.063411749588939  9.204209094961694 1.559892028912796 3.007840611697807  9.138051604651805 1.619786723917534 3.128400900774147  9.262913762384699 1.616885575859003 3.088760116736033  9.211324768689726 1.513553486854173 3.031863055760142  9.144599034984356 1.574592527523099 3.154133698832636  9.270144081066581 1.571725968212041 3.11410670587014  9.218409662598631 1.467241118494792 3.055919658157674  9.151123974899932 1.529403629372927 3.179886977472352  9.2773283483534 1.526577134850723 3.139486355892784  10.05156397523807 1.974597703775644 3.047639077427889  10.05817723658448 1.93007154975189 3.073878461769327  10.06476307388691 1.885585550809186 3.100074846986188  10.07133032850467 1.841123387249235 3.12623191894464  10.07789677466032 1.796681034049244 3.152352657845217  10.08448352076774 1.752265632671572 3.178434630702502  10.09110532318362 1.707900888674237 3.204458572132321  10.04026633414281 1.709679861258228 2.418393358256904  9.987577938641103 1.722385719625658 2.494529301737767  9.938043659707755 1.695413937468635 2.376590788778683  9.942655348985683 1.640954270432488 2.382450866959082  9.993022836367262 1.670062497594853 2.507533725106371  10.04577070594899 1.655921042517942 2.4281930857771  9.947051154760715 1.586515068094505 2.388247263837176  9.998321539481406 1.617765609594029 2.520525735666978  10.05108032779657 1.602170531126936 2.437964629223955  9.951358096289303 1.532108548407614 2.394007140034475  10.00355248559587 1.565490855841283 2.533495152939288  10.05630844364171 1.548439213223589 2.447709751062076  9.955658336883801 1.47774785511537 2.399757095528017  10.00877177938712 1.513248580170085 2.546453554644015  10.06154046223057 1.494740011655598 2.457448865884452  9.960034198636817 1.423451998124484 2.405524395905887  10.01403486064783 1.461061492655311 2.559411324239057  10.06686958326793 1.441102704809535 2.467200054657757  9.964623268820157 1.369237084312045 2.411324878249173  10.01945203679638 1.408945418584924 2.572365542167287  10.07243775535158 1.387522075502756 2.476973676774345  9.409877606585853 1.693143319431934 2.705364267881262  9.424701910508393 1.662423639804791 2.589161249319794  9.41830148626337 1.643382968073219 2.723074582575824  9.426759377885492 1.593637514868357 2.740687860703411  9.435227025009036 1.543922334411281 2.758244459305654  9.443678852163966 1.494242886421793 2.775774962700814  9.452094264296669 1.444605793396784 2.793305881439113  9.460455404707185 1.395017150803877 2.810881404730827  9.473062653760827 1.349380402070583 2.654389309961248  9.315301173223533 1.862011725409944 3.078031271501674  9.322764280062762 1.816932538696325 3.103356067005297  9.330285903766857 1.771839484979805 3.128637748085295  9.337833439908536 1.726744190007989 3.153885496710627  9.345378550597824 1.681651370863371 3.179110451187882  9.352892651996189 1.636559904196288 3.204327655262742  9.360341367100661 1.591462404485242 3.229559638042024  9.531450350609168 1.728503791488539 2.735953809879736  9.540594936005231 1.680330778823749 2.756113298766748  9.549828950637805 1.632180973624405 2.776185638097265  9.559085605802967 1.58405514163403 2.796203786879412  9.56832905113186 1.535956636573396 2.81619318251358  9.577523470425488 1.487889862301967 2.836177320320437  9.586606884420551 1.439863350418983 2.856196155826101  9.709407690944154 1.902123005603988 3.02440005285621  9.592225169336851 1.859660044431384 2.985826730414292  9.699504934978968 1.855332441064002 2.942065743638327  9.707623368390083 1.810185002371635 2.966471151552831  9.600697719174043 1.814689324940672 3.010490471712902  9.717510533272618 1.857205742179049 3.049242161670457  9.715815567555602 1.765073341482306 2.990815330725347  9.609272388825071 1.769741949500768 3.035090976674607  9.725697163310304 1.812319390240226 3.074029259630966  9.724039519322716 1.719992018051312 3.01511518702274  9.617887576893594 1.724815545607013 3.059648236992586  9.733918977354479 1.76746181776472 3.098772342408028  9.732256263999231 1.674937076889004 3.03938026471122  9.626498596568622 1.679907857777652 3.08417454606258  9.742137660905197 1.722629460318233 3.12347890378809  9.74042730596223 1.629906780613282 3.063620262559307  9.635059894078843 1.635016177054113 3.108683201465833  9.750312918549753 1.677821612959735 3.148155713284262  9.748515055716656 1.584912079078024 3.08784697398292  9.643499770878918 1.59014119116891 3.133193685269172  9.758388515846658 1.633044231290631 3.172811771673822  9.053451292158375 1.732215234040939 2.92071080190189  9.060612111427776 1.685946618748096 2.945343810742381  9.06779233270996 1.639662530312767 2.969930781990021  9.074979874029337 1.593378562257735 2.994487633875786  9.082159599475677 1.547101132190012 3.019027865850384  9.089314692463189 1.500835381716854 3.043568388832449  9.096429032604737 1.454590155402958 3.068138820613463  9.616973285751035 1.926811391757401 3.099994983667287  9.625444642457371 1.881728438601003 3.125023006237132  9.634022233068773 1.83667260446819 3.149999884197557  9.642644729824832 1.791640151579214 3.17493539704942  9.6512649692463 1.746626901877976 3.199837090335987  9.6598335033314 1.701626763888976 3.224712914883857  9.668276213895815 1.656628950260787 3.249574261361489  9.868762966540569 1.708093938062496 2.494953361660618  9.876263144508554 1.655841797087195 2.506845918700002  9.883726062027138 1.603628867303043 2.51869211690696  9.891143026588438 1.551446951764944 2.530504975637237  9.898549923390467 1.499301765891874 2.542301306027841  9.905987390179849 1.447209927563315 2.55409720378756  9.91345397092762 1.395205801584429 2.565900758577749  9.336868105868648 1.940999841042107 3.212389324949369  9.344326011925144 1.895277658500508 3.238252964933476  9.351845093762471 1.849544186366745 3.264083994258761  9.359391955526275 1.803809205632118 3.289886258228228  9.366937032507758 1.758074128047967 3.315663414337766  9.374450736124908 1.712332204778161 3.341421087
[...]
<PointData  Vectors="f_24"> 
<DataArray  type="Float64"  Name="f_24"  NumberOfComponents="3" format="ascii">-1.0171651022800765e-02 -1.2544886518780568e-01 -5.8343890230762828e-04  -9.0148034496075440e-03 -1.2490112501887279e-01 1.7065422007296355e-04  -9.4032925744550536e-03 -1.2902773698540007e-01 2.8342402842189821e-03  -7.9572457103181168e-03 -1.2822794491364470e-01 4.1141078928720798e-03  -7.4729750085395777e-03 -1.2338111124676364e-01 2.7036910320745113e-03  -8.6803306949750358e-03 -1.2421899711497303e-01 1.4681278617660078e-03  -6.0694384106599634e-03 -1.2149880929945873e-01 4.9656083142794599e-03  -7.3254712162066794e-03 -1.2259972034015057e-01 3.3165340209449995e-03  -6.6409959343966350e-03 -1.2699102686145297e-01 5.2904665435601827e-03  -6.0748191904719858e-03 -1.2064251432030042e-01 4.9806766898703447e-03  -4.7735767816869537e-03 -1.1928015194315475e-01 7.0108530037997895e-03  -5.4235980883698036e-03 -1.2539146587159755e-01 6.3402955035092023e-03  -4.9059738137677564e-03 -1.1836778128216335e-01 6.4669196034307201e-03  -3.5575671323523862e-03 -1.1673207151575964e-01 8.8764037392433000e-03  -4.2842071931006951e-03 -1.2348812269544275e-01 7.2129441761892314e-03  -3.8052387974238521e-03 -1.1576802760777341e-01 7.7645272028550620e-03  -2.4027606963175148e-03 -1.1382309528003520e-01 1.0576367281805735e-02  -3.2108403129929748e-03 -1.2130767215358829e-01 7.8412177027214914e-03  -2.7649183367799207e-03 -1.1280675122641301e-01 8.8554307641044768e-03  -1.2943936671022253e-03 -1.1048931314832834e-01 1.2116892323816027e-02  -2.2028396650648381e-03 -1.1885827598577864e-01 8.1134795934859165e-03  -1.1438296140525231e-02 -1.2539667921573708e-01 -3.6640229496378361e-03  -1.2137977648368515e-02 -1.2590873290441457e-01 -4.5117449973562183e-03  -1.3278078391819739e-02 -1.2315146546386697e-01 -7.2007478752834217e-03  -1.2859062418865504e-02 -1.2626037320039810e-01 -2.9394692940428323e-03  -1.1424974328117081e-02 -1.2543116426904147e-01 -5.8454950185439832e-03  -1.0850534262592849e-02 -1.2480595564761773e-01 -5.3296304323703922e-03  -1.2811557934578326e-02 -1.2247431742922621e-01 -8.9007994188147303e-03  -1.0733457581453471e-02 -1.2484630470147026e-01 -7.1250501475921425e-03  -1.0273039597680779e-02 -1.2417747367463912e-01 -6.9128452720435525e-03  -1.2344034826552608e-02 -1.2179719070554169e-01 -1.0516391742089518e-02  -9.7067585822334726e-03 -1.2353949757611582e-01 -8.5361249384843761e-03  -1.0070697792053643e-02 -1.2419990567859668e-01 -8.4791670779457082e-03  -1.1886324835269682e-02 -1.2114454871578358e-01 -1.2148090345893920e-02  -9.4414125702916712e-03 -1.2355569295815964e-01 -9.9971073764454615e-03  -9.1583485096546277e-03 -1.2292650908201438e-01 -1.0276543480779499e-02  -1.1442222594094206e-02 -1.2053112668401522e-01 -1.3876545796618785e-02  -8.8213790802720224e-03 -1.2302724239968407e-01 -1.1712329671211505e-02  -1.8029798639557219e-02 -1.1080132477269902e-01 -1.7710036867919183e-02  -1.7419025627828114e-02 -1.0564181390796713e-01 -2.0190010510809608e-02  -1.6169268821648153e-02 -1.1174306418509852e-01 -1.5293320433195132e-02  -1.4734007905033280e-02 -1.0951921459875395e-01 -1.2176002776223147e-02  -1.6023798637927800e-02 -1.0281200877723894e-01 -1.6686522746918470e-02  -1.6671150798933224e-02 -1.0866389156706566e-01 -1.4705852434805549e-02  -1.3430552485411374e-02 -1.0708557347474471e-01 -9.3737813115481218e-03  -1.4741611682901019e-02 -9.9858592657599152e-02 -1.3512121825583694e-02  -1.5428885342532121e-02 -1.0632295001772006e-01 -1.1987862989671458e-02  -1.2218459708997775e-02 -1.0442914633054765e-01 -6.7886672408200358e-03  -1.3537738191890972e-02 -9.6744693868605874e-02 -1.0548923891294070e-02  -1.4263360925518699e-02 -1.0376981503196016e-01 -9.4743396693424912e-03  -1.1068796586970344e-02 -1.0151864373491924e-01 -4.3503730336003441e-03  -1.2382940064147646e-02 -9.3416798687093891e-02 -7.7013994353658365e-03  -1.3145385403111168e-02 -1.0098026294650969e-01 -7.1067810932160802e-03  -9.9568106526919976e-03 -9.8308763155710729e-02 -1.9987403791345655e-03  -1.1256785358397126e-02 -8.9809326232572886e-02 -4.8928646374405069e-03  -1.2050788599545070e-02 -9.7913286665553684e-02 -4.8402878349743531e-03  -8.8593159793898188e-03 -9.4788268588986424e-02 3.5286433642264819e-04  -1.0147258534882731e-02 -8.5852640116065235e-02 -2.0802976511794676e-03  -1.0952134356643418e-02 -9.4520396616425514e-02 -2.6121708215978605e-03  -6.9667209549984102e-03 -1.3328725878291658e-01 8.6417770119348626e-03  -5.5831286721112925e-03 -1.3483538261846884e-01 1.1087498549568477e-02  -6.5789960254558771e-03 -1.3473690863156690e-01 1.0374007057936736e-02  -5.2407705053440995e-03 -1.3452063924806967e-01 1.0321428433756488e-02  -4.1121865478788945e-03 -1.3422474949930632e-01 1.2208759967456328e-02  -5.5286265821825930e-03 -1.3276646950928811e-01 9.4515398824055515e-03  -4.0022247333627312e-03 -1.3385749320548226e-01 1.0329541094221352e-02  -2.7646014701643001e-03 -1.3311651302362990e-01 1.3243439047024859e-02  -4.2107817387929264e-03 -1.3176390251882075e-01 1.0227896387008545e-02  -2.8433119573569492e-03 -1.3284599261155486e-01 1.0283936725909642e-02  -1.5113106346242445e-03 -1.3161024921082415e-01 1.4135493294033399e-02  -2.9840669606314724e-03 -1.3038091426962201e-01 1.0899852200441078e-02  -1.7448394037871393e-03 -1.3157140698352471e-01 1.0070598444942323e-02  -3.2915185528113456e-04 -1.2976707030980586e-01 1.4825479202765683e-02  -1.8263076941152489e-03 -1.2868884131008879e-01 1.1392435229876274e-02  -6.9172722956180137e-04 -1.3010868506887618e-01 9.5760415000454846e-03  7.9846514433439160e-04 -1.2762317064516993e-01 1.5231757054060041e-02  -7.2241301477416527e-04 -1.2673800094962026e-01 1.1608966844914186e-02  3.2608757148482005e-04 -1.2855134813945462e-01 8.6841879870199722e-03  1.8809954364178336e-03 -1.2518873668049516e-01 1.5239266269732897e-02  3.3181635409504492e-04 -1.2454874229554805e-01 1.1404616906702927e-02  -1.7054272225360882e-02 -1.1628732718186385e-01 -1.3545124669173011e-02  -1.5692659829758607e-02 -1.1473772279764741e-01 -1.1112885362893144e-02  -1.4452479357452742e-02 -1.1290382829337318e-01 -8.9118822377517466e-03  -1.3297452119748848e-02 -1.1080976424291795e-01 -6.8947399311022868e-03  -1.2197967942497110e-02 -1.0846058987573204e-01 -5.0325538063954690e-03  -1.1130634249200674e-02 -1.0583760858555971e-01 -3.3166268422943840e-03  -1.0080546055136305e-02 -1.0287878480337447e-01 -1.7766671523147771e-03  -2.0417385017396816e-02 -1.1805620005861821e-01 -1.7972637170690448e-02  -1.9106295843101449e-02 -1.2029231335226670e-01 -1.4633378575652946e-02  -1.9894674142784678e-02 -1.1719358718030264e-01 -1.7780251975749905e-02  -1.9685840398025518e-02 -1.1628158241818508e-01 -1.9492853982115824e-02  -1.8675104254990423e-02 -1.1987573252949016e-01 -1.6248240239039573e-02  -2.0150091835339046e-02 -1.1740220179304459e-01 -1.9659498354604531e-02  -1.9448108246698646e-02 -1.1548419829500274e-01 -2.0967190625341407e-02  -1.8217328680486530e-02 -1.1938665930295451e-01 -1.7575836285954421e-02  -1.9836941711941114e-02 -1.1678878077439137e-01 -2.1081495024837651e-02  -1.9194673165801902e-02 -1.1478294889215443e-01 -2.2355092036342165e-02  -1.7754670429239464e-02 -1.1887019856727013e-01 -1.8806649152087955e-02  -1.9511700045089161e-02 -1.1621057230126577e-01 -2.2412453545273176e-02  -1.8941788029274414e-02 -1.1417736414355611e-01 -2.3773651075274228e-02  -1.7299349175130065e-02 -1.1835655381902725e-01 -2.0079691823108307e-02  -1.9191429848380074e-02 -1.1568154266100485e-01 -2.3787114912887538e-02  -1.8700838304270832e-02 -1.1367714561409353e-01 -2.5317762665981580e-02  -1.6861292232256245e-02 -1.1787731460986325e-01 -2.1514777683267504e-02  -1.8889858109614535e-02 -1.1522585265165139e-01 -2.5312844490752304e-02  -1.8482301571521163e-02 -1.1330433473502630e-01 -2.7061619443330121e-02  -1.6445171349821035e-02 -1.1747508742374338e-01 -2.3220789764450196e-02  -1.8620679816421126e-02 -1.1490433606928747e-01 -2.7069024635318739e-02  -1.0677143722399413e-02 -1.2904866120866279e-01 1.8607884521244888e-03  -1.2032634030813930e-02 -1.2593393096269490e-01 -1.7788029614259834e-03  -9.7706513248607511e-03 -1.2885577418431138e-01 4.3927306091439788e-04  -8.8952013385667581e-03 -1.2842414762967294e-01 -7.4425550144297090e-04  -8.0590212916462987e-03 -1.2782952240199122e-01 -1.8685493925394618e-03  -7.2571982494725280e-03 -1.2713383160626962e-01 -3.0663359116508216e-03  -6.4819765363176227e-03 -1.2639951887910958e-01 -4.4459372649840907e-03  -5.7275303230529860e-03 -1.2570642851311142e-01 -6.0923363067759001e-03  -8.6153679871347737e-03 -1.2235494002356752e-01 -1.2195886128172287e-02  -7.7432635772478366e-03 -1.2943364518213385e-01 4.7113902249706898e-03  -6.2268323662281015e-03 -1.2835647056946964e-01 6.6142686802018701e-03  -4.8498450284978718e-03 -1.2684858113261183e-01 8.3209691262245977e-03  -3.5733343044296348e-03 -1.2497219170547971e-01 9.8435896694868772e-03  -2.3748919273377995e-03 -1.2275833686624395e-01 1.1172140475414805e-02  -1.2370364463669019e-03 -1.2020852495314893e-01 1.2277656902123416e-02  -1.5051335738001354e-04 -1.1728045345898092e-01 1.3116904791322081e-02  -1.1819568742243890e-02 -1.2846478438599992e-01 1.7224693850263620e-04  -1.0836704274941315e-02 -1.2836831726047496e-01 -9.1319106647872329e-04  -9.9040930142113865e-03 -1.2794376934912563e-01 -1.7758196407076934e-03  -9.0139939148856756e-03 -1.2730691816837864e-01 -2.5741384866365298e-03  -8.1636716027303855e-03 -1.2653370278935050e-01 -3.4492582810585525e-03  -7.3563861415920544e-03 -1.2569038509931449e-01 -4.5308282189328759e-03  -6.6023559634521634e-03 -1.2484082356423316e-01 -5.9554907243793958e-03  -1.2551291906525441e-02 -1.2381422138925392e-01 -4.1521899351571467e-03  -1.1148084778378396e-02 -1.2712600506781765e-01 -3.5232694128319763e-04  -1.2589874950021146e-02 -1.2637622190973161e-01 -2.4196576731852649e-03  -1.1260492488077936e-02 -1.2574000347198566e-01 -1.4507390237239581e-03  -9.7484428168143292e-03 -1.2635488120204069e-01 8.8513671536507774e-04  -1.1127785073789373e-02 -1.2274068631003193e-01 -2.3542122595755746e-03  -1.0041055919294332e-02 -1.2469688442067368e-01 -5.4019969785193064e-04  -8.4707215247602947e-03 -1.2515839653638891e-01 2.0351557970141381e-03  -9.8317379184210268e-03 -1.2128555997890986e-01 -7.2263946707918985e-04  -8.9102027646119318e-03 -1.2332366864360271e-01 2.7197846443228834e-04  -7.2896693639541606e-03 -1.2361836798811067e-01 3.0634783335507535e-03  -8.6354965272604778e-03 -1.1950900644095547e-01 7.4920993271113557e-04  -7.8519044990212807e-03 -1.2167552015134921e-01 9.3252206371564591e-04  -6.1882492347590055e-03 -1.2178578691872662e-01 3.9293841828478048e-03  -7.5181452318682828e-03 -1.1743963991761411e-01 2.0544611382150788e-03  -6.8547364905110356e-03 -1.1979031096561231e-01 1.3697828741758978e-03  -5.1568236524983900e-03 -1.1968702926820714e-01 4.5718051023671442e-03  -6.4645710243576415e-03 -1.1507969207875413e-01 3.1685954970566551e-03  -5.9097592384132159e-03 -1.1768604066553318e-01 1.4710707549731902e-03  -4.1992639108974772e-03 -1.1731073899819749e-01 4.8902915961386382e-03  -5.4642705632217481e-03 -1.1239691400929906e-01 4.0443485423009139e-03  -5.2991107654190997e-03 -1.3664375752973365e-01 1.3265144275880372e-02  -3.9247187167078656e-03 -1.3648029359197555e-01 1.3175554836099059e-02  -2.6714999205685467e-03 -1.3586057948633334e-01 1.3146439406224635e-02  -1.5023649000006276e-03 -1.3487503518937216e-01 1.3056015249070286e-02  -3.9369646144551257e-04 -1.3361357174357885e-01 1.2789003998607594e-02  6.7330879853772527e-04 -1.3215669033126584e-01 1.2228849698667275e-02  1.7162001751302592e-03 -1.3059665771137577e-01 1.1250720180865778e-02  -1.1332738188911130e-02 -1.2223527939245574e-01 -3.9644559214303543e-03  -9.8300422904053289e-03 -1.2074731408708754e-01 -1.5262200247578193e-03  -8.4686823278920017e-03 -1.1891749866272337e-01 6.5688456578480393e-04  -7.2144778632683175e-03 -1.1677699778514911e-01 2.6349002267334136e-03  -6.0433265109680421e-03 -1.1432972173322294e-01 4.4418286801881611e-03  -4.9386496538524425e-03 -1.1154835330202503e-01 6.0969839243193071e-03  -3.8930414452588136e-03 -1.0837202633249651e-01 7.6088645579156598e-03  -1.7876014457566300e-02 -1.2075532944576685e-01 -1.2703494269981812e-02  -1.7470639252983183e-02 -1.2025668816527728e-01 -1.4421823656563630e-02  -1.7027829778595453e-02 -1.1972142539882591e-01 -1.5859198922383324e-02  -1.6578594217622769e-02 -1.1917499747080229e-01 -1.7199320869762485e-02  -1.6138310043697035e-02 -1.1864072974057807e-01 -1.8576230345985240e-02  -1.5717597814457435e-02 -1.1814939574116909e-01 -2.0101722567693776e-02  -1.5329929440113186e-02 -1.1774712012730176e-01 -2.1874810864154329e-02  -8.1495646768252189e-03 -1.2171380602882750e-01 -1.1132799561667784e-03  -6.5710968215852601e-03 -1.1962511038234327e-01 2.2063134977216774e-03  -5.1348762172215680e-03 -1.1724770297493974e-01 5.1594106124544644e-03  -3.7997866260003270e-03 -1.1457439695945278e-01 7.8577584582221298e-03  -2.5401562509717352e-03 -1.1157215492047041e-01 1.0385180307363838e-02  -1.3358931723435490e-03 -1.0817630861811660e-01 1.2811761092798704e-02  -1.6909618705697967e-04 -1.0429160074727076e-01 1.5193198251017994e-02  -6.6171788897166671e-03 -1.3458591948934914e-01 1.0716950387362029e-02  -5.4310064940624320e-03 -1.3453636383503814e-01 9.6664812733969208e-03  -4.3235378592024589e-03 -1.3415050344851812e-01 8.8119043300026074e-03  -3.2786546754685788e-03 -1.3349255927816131e-01 7.9809730491038917e-03  -2.2785848674206871e-03 -1.3264952452317377e-01 7.0317064422757069e-03  -1.3084633356082970e-03 -1.3169770272224560e-01 5.8457153022616849e-03  -3.5475673963137878e-04 -1.3069431760357997e-01 4.3049903129872167e-03  -7.0146535777353769e-03 -1.2708350372087379e-01 3.6481126512538029e-03  -5.4522612202398167e-03 -1.2547577362854556e-01 6.3886505552750491e-03  -4.0371935444362891e-03 -1.2349175452597122e-01 8.8260660039021360e-03  -2.7195399653248261e-03 -1.2116259733359325e-01 1.1028841786857962e-02  -1.4776597649799308e-03 -1.1848185061977180e-01 1.3041349735056619e-02  -2.9400506683310135e-04 -1.1541044969129788e-01 1.4888161873711357e-02  8.4624680970266173e-04 -1.1190343184646966e-01 1.6583407496919618e-02  -4.1511782414151962e-03 -1.3630733723277152e-01 1.2381523411705047e-02  -3.0310521700718370e-03 -1.3594360753471427e-01 1.1462262676425380e-02  -1.9764097297073888e-03 -1.3529682911492127e-01 1.0557748731122111e-02  -9.7037763520692820e-04 -1.3445871526318404e-01 9.5220600979649336e-03  2.3124565765629287e-06 -1.3350687665990685e-01 8.2352004204269257e-03  -6.6228991905164531e-03 -1.2432673904140773e-01 2.0663788763011508e-03  -5.0607205695743472e-03 -1.2227946016512616e-01 5.4469732442063096e-03  -3.6247725805703787e-03 -1.1992375844625693e-01 8.4463286763450853e-03  -2.2857621669624927e-03 -1.1725706689067983e-01 1.1177342452391876e-02  -1.0183694924248031e-03 -1.1424599232909806e-01 1.3728939893442857e-02  1.9737227733994221e-04 -1.1082582273799720e-01 1.6173336689413224e-02  1.3768550349935072e-03 -1.0689083160308674e-01 1.8564678445896769e-02  -1.7568159686569898e-02 -1.2276172621589251e-01 -1.0930944473437312e-02  -1.6967538069413118e-02 -1.2254303148637256e-01 -1.2276963897363736e-02  -1.6362397183642553e-02 -1.2213413965834057e-01 -1.3417143574286453e-02  -1.5765347289116875e-02 -1.2161500098964967e-01 -1.4485063258443023e-02  -1.5186759041941297e-02 -1.2104050793134381e-01 -1.5601677509275139e-02  -1.4636812204782020e-02 -1.2044783329742204e-01 -1.6867518175389722e-02  -1.4132239093290271e-02 -1.1982385633615299e-01 -1.8381803597190240e-02  -1.6385244092471014e-02 -1.0298278712470686e-01 -2.0853672089858808e-02  -1.4953089877388569e-02 -9.9775990024271927e-02 -1.7070751876388141e-02  -1.3638519606483199e-02 -9.6513937612455719e-02 -1.3628134301584202e-02  -1.2400790020514280e-02 -9.3124166378767206e-02 -1.0407557959182915e-02  -1.1215367509076132e-02 -8.9539966688521308e-02 -7.2927745360842622e-03  -1.0063182217173703e-02 -8.5684904120741437e-02 -4.1841495829816559e-03  -8.9403688251757010e-03 -8.1454578431820135e-02 -9.9141833154286303e-04  -1.6226512887666383e-02 -1.2363456064392360e-01 -8.6864690969819316e-03  -1.5610985467371351e-02 -1.2335530926927542e-01 -1.0162745934782265e-02  -1.4992084657731266e-02 -1.2290621248374375e-01 -1.1407449247505294e-02  -1.4382148377000191e-02 -1.2235832258692425e-01 -1.2573075793754534e-02  -1.3790564362348339e-02 -1.2175996913476464e-01 -1.3787132732412870e-02  -1.3227366290150384e-02 -1.2114949094873748e-01 -1.5150677375389507e-02  -1.2714300209864826e-02 -1.2054268341196531e-01 -1.6756647708980270e-02  -1.0594970820720530e-02 -1.2756285108717536e-01 1.2527366140618825e-03  -9.9226475401186613e-03 -1.2710851471820811e-01 -6.6028065925083932e-04  -9.2565619801309642e-03 -1.2655846894333228e-01 -2.3516652098458583e-03  -8.6071527310296152e-03 -1.2595402183535495e-01 -3.9602609300457984e-03  -7.9737921496886507e-03 -1.2532636731617267e-01 -5.6055635469327248e-03  -7.3534214261464963e-03 -1.2471232558949558e-01 -7.3792875273581910e-03  -6.7429796762729800e-03 -1.2414562728252711e-01 -9.3529796534970334e-03  -1.4765731176823178e-02 -1.0829934637174815e-01 -1.6097564005857705e-02  -1.3279546600217195e-02 -1.0549754577467657e-01 -1.2495276990855861e-02  -1.1927614381810045e-02 -1.0257050822846105e-01 -9.2478898215460192e-03  -1.0668210176499191e-02 -9.9460262489007176e-02 -6.2340967579530369e-03  -9.4733316780335145e-03 -9.6115250733577781e-02 -3.3453539073434644e-03  -8.3215515934384390e-03 -9.2469709715486736e-02 -4.8742061510072531e-04  -7.2051907787121974e-03 -8.8442905223593896e-02 2.4201117401396331e-03  -8.1908731038173570e-03 -1.3154982984678837e-01 6.0554171958157347e-03  -6.7699815258303719e-03 -1.3097707140892989e-01 6.8949062609494410e-03  -5.4647247065059794e-03 -1.2994306515755547e-01 7.7014725025693160e-03  -4.2521024342582429e-03 -1.2853941942014704e-01 8.4128557400674469e-03  -3.1114956759026409e-03 -1.2683436790753974e-01 8.9558245809678531e-03  -2.0290064145760092e-03 -1.2487589044659420e-01 9.2343973821473174e-03  -9.9176907804025003e-04 -1.2268812249364112e-01 9.1028882299487197e-03  -9.0437856590578816e-03 -1.3085976630621599e-01 5.1694366466831553e-03  -9.1843451489964645e-03 -1.2902797792138795e-01 4.1812459971923722e-03  -8.4463333538832754e-03 -1.2860586399833315e-01 2.1652863422569894e-03  -8.0821345350856853e-03 -1.3068964363088978e-01 3.7021453460315810e-03  -7.1637136425822100e-03 -1.3026131555624035e-01 2.4538793454150542e-03  -7.7326109718980499e-03 -1.2809162225575843e-01 3.9539976067366045e-04  -6.2874198028315224e-03 -1.2965850839066867e-01 1.2637769763802159e-03  -7.0392565396958078e-03 -1.2750920734271179e-01 -1.2909983741829717e-03  -5.4443927607555056e-03 -1.2894461524055981e-01 -6.5214794300966425e-06  -6.3631008050499972e-03 -1.2689409698637272e-01 -3.0195940519700316e-03  -4.6270184139969965e-03 -1.2818498220795471e-01 -1.4645061228939350e-03  -5.6967125508989311e-03 -1.2628664124674904e-01 -4.8864774924759794e-03  -3.8250519866627978e-03 -1.2746111701290369e-01 -3.1896658257083033e-03  -5.0334144698116002e-03 -1.2572840253886608e-01 -6.9586399914908573e-03  -7.8241941208376849e-03 -1.3308794133675741e-01 8.1087713597249433e-03  -7.7345779252370626e-03 -1.3229287248261912e-01 7.9411772503582018e-03  -6.7333191709852847e-03 -1.3215003946633164e-01 6.3421773627762978e-03  -6.6553511341702438e-03 -1.3301328625845044e-01 7.2106382433788528e-03  -5.7876721907277554e-03 -1.3176704813239351e-01 4.9892172090334240e-03  -5.5608985460258919e-03 -1.3256090395644235e-01 6.4920225897914683e-03  -4.8843011212429876e-03 -1.3120684956531994e-01 3.6975626946370464e-03  -4.5261070847900618e-03 -1.3184017729221931e-01 5.7915352055674697e-03  -4.0102188733878710e-03 -1.3053256538346195e-01 2.3245840578825653e-03  -3.5381822410134010e-03 -1.3093699136140483e-01 4.9737660950812928e-03  -3.1600477602974886e-03 -1.2980978988775441e-01 7.5994143921502967e-04  -2.5827858735523244e-03 -1.2992650799809724e-01 3.9242760838058346e-03  -2.3139481596102700e-03 -1.29104496778