<?xml version="1.0"?>
<VTKFile type="UnstructuredGrid"  version="0.1"  >
<UnstructuredGrid>
<Piece  NumberOfPoints="929" NumberOfCells="3984">
<Points>
<DataArray  type="Float64"  NumberOfComponents="3"  format="ascii">2.732335376117434 1.66638585452141 1.290071810752866  2.722950465402513 1.820323141355819 1.239402432854118  2.840498700174469 1.747052140861566 1.257027532418624  2.838006570746491 1.727167329260977 1.198873334768759  2.719543608276602 1.800481269578528 1.181166422553479  2.729195632697138 1.64624814321405 1.230829993240138  2.835580694609585 1.707288046412273 1.140678693780197  2.71616071225073 1.780646286974157 1.122890738777097  2.726089635822877 1.626100368369329 1.171540583342557  2.83318058012887 1.687406608899301 1.082457210156879  2.712782907055408 1.76080999128512 1.064592257678306  2.722991246875437 1.605947501501507 1.112217682646655  2.830762850662639 1.667530216772567 1.024211737039129  2.709384556216063 1.740973452585005 1.006273502290385  2.719871850186728 1.585806611846631 1.052859343882602  2.828277939249429 1.647667016352889 0.9659291587650127  2.705938789081356 1.721139543619658 0.9479202003588051  2.716700401368031 1.56569893092354 0.9934447301293239  2.825663071658508 1.627820563046296 0.9075814962504192  2.702416814164366 1.701303766422468 0.8894957279824569  2.713439913092545 1.545643363543238 0.9339231979165886  2.171478137168154 1.309859334646997 1.505424260637562  2.266327400593965 1.416276572378371 1.432023815598247  2.305406424771003 1.304691958039174 1.480703958381454  2.293833213677006 1.272195267170737 1.421047386937245  2.256386709372238 1.387350406335945 1.372224887076698  2.15696502944493 1.275155908974247 1.447731011433955  2.282175595730838 1.239553292974362 1.361440011198881  2.246366343749277 1.358284627696172 1.312459494445362  2.142304003500572 1.240301784247671 1.390157282546023  2.270484304551292 1.206880841079307 1.301829478338095  2.236302120930782 1.329181995054974 1.252694282351362  2.127603588815862 1.205416853463736 1.332618701677491  2.258808674984143 1.17425476931056 1.24217157728487  2.226233869481641 1.30012182086037 1.192893295684815  2.112936064751094 1.170584178000428 1.275050405541261  2.24719007089044 1.141740123203499 1.182422832927253  2.216202292439736 1.271176481351646 1.133019053538971  2.098370405737796 1.135881419076565 1.217393462955147  2.235637388122885 1.109410479614537 1.122548610476684  2.206243149640968 1.242426638974518 1.073013917584397  2.08396381816333 1.101375190776417 1.159577855227305  2.364546205299263 2.068719226109992 1.167084175005611  2.451092077502237 2.182216092197378 1.110734044669502  2.488677200063918 2.032695312667722 1.175186548539333  2.485844062163256 2.008934583906315 1.117808948857671  2.449441214418546 2.154950123677402 1.053289534029942  2.362997380912755 2.043352025486791 1.109986929677849  2.361466665049976 2.01801429527365 1.052872437819488  2.447804067667725 2.127701693210768 0.9958432681704744  2.483008074496295 1.98519793697831 1.06042070814903  2.35993080246027 1.992698878405088 0.9957369509284891  2.44617335071305 2.100464911806218 0.9383924378470571  2.480161652458699 1.961471322232308 1.003024513077387  2.358382171398155 1.967365728763672 0.9385867948010616  2.444524045881999 2.07322326773683 0.8809395090936363  2.477288177126619 1.937745248034914 0.9456245087069159  2.356816375911399 1.941964408472779 0.881426426574328  2.442855690962623 2.045922394464775 0.8234977546541681  2.474386062912941 1.913991921387302 0.8882213142052765  2.355227565946931 1.916457686186253 0.824274762704548  2.441185204937754 2.018520452942468 0.7660837049803439  2.471500021928948 1.890136763405394 0.8308123058552099  2.833823160162062 1.897446599888609 1.20698266505497  2.831007992040145 1.877192144730455 1.149526460129607  2.82824876913051 1.856953244971137 1.092031164120068  2.825514266357088 1.836714536945205 1.034516403069451  2.822764035321357 1.816470131476002 0.9769906491386641  2.819954446840018 1.796213517891558 0.9194463416659968  2.817032387853741 1.775928153957172 0.8618657104663962  2.625838839706284 1.73555469654092 1.273994355985354  2.621794032435346 1.715732915079366 1.214885210231872  2.617748567245513 1.695905056203223 1.155736670965698  2.613691527690761 1.67607184480461 1.096556089487759  2.609608759672883 1.65624649681362 1.03734652319407  2.605487716833109 1.636446541731382 0.9780939407494098  2.601326939903608 1.616689602297162 0.918768547074549  3.060407559513689 1.683775811333512 1.080426360339676  2.962851431645515 1.774280138996774 1.051427497265887  2.940869705617879 1.615661566259725 1.104648998922509  2.942250375965757 1.635931837370934 1.162633551051664  2.961179363357724 1.754407986504537 0.9942720782877388  3.060012897912006 1.663335029257751 1.02349863596226  2.939470691623445 1.595396707840963 1.0466369971189  2.959426701852094 1.73452823455821 0.937095697481701  3.059505397914819 1.642888115956917 0.966556242261807  2.937983288347934 1.575142496253256 0.9885742027782509  2.95750911882058 1.714623260668019 0.8798769438442655  3.058802689914767 1.622449443654072 0.9095518977896991  2.936341160785982 1.554916936056275 0.9304246486889675  2.380656458126288 1.936671835390152 1.219151768206795  2.377695660958337 1.914108721425019 1.161319243119937  2.374744682001644 1.891570797156041 1.103465417280866  2.371774983662018 1.869048589415275 1.045594710164282  2.368770404173579 1.846527822035787 0.9877056416694813  2.365745281212057 1.82395973764327 0.9297922596563676  2.362717081385468 1.80131190828793 0.8718398481372437  2.623452240330737 1.587264587993803 1.322966067156039  2.618956634154294 1.566125973281125 1.262705730673973  2.614447722035387 1.544957150231506 1.202396409207169  2.609926012792548 1.523779556237751 1.142051967292681  2.605380090501109 1.502625029385522 1.081665911346445  2.600800931043038 1.481529238512427 1.021216745397473  2.596193656331598 1.460527233951107 0.9606622189152496  3.041798781232293 1.474494349347579 0.9555483848107443  3.161692524968125 1.54226435562824 0.9415854258363152  3.041609170951467 1.496051599679473 1.01341265292187  1.61909314852576 1.435515961839519 1.555706773152887  1.658817275468362 1.527962793865104 1.469736227497901  1.757723213686891 1.428720073759284 1.530187274580987  1.746550144566283 1.387792208415137 1.479541508619159  1.653837620587346 1.487934359018609 1.419348649526156  1.610309434283778 1.39112834095568 1.508895767031083  1.73540958826739 1.346628006807065 1.429073906846858  1.649094995397051 1.447672878737614 1.369043424639414  1.60166903747482 1.346459834049687 1.462254971353468  1.724337477799191 1.305359373994737 1.378680071166599  1.644475468624703 1.407272805945968 1.318743207522587  1.593142719739779 1.301645929490841 1.415668105951223  1.713310556867832 1.264098431675236 1.328293848853412  1.639874107526476 1.36681177448786 1.268398733504984  1.584668667700083 1.256795656679529 1.369074177336384  1.70230648524157 1.222983805241038 1.277853727116712  1.635190632096216 1.32639305531403 1.217971040804407  1.576181930380668 1.212053742195501 1.322414026825869  1.691382262421497 1.18217506060718 1.227284003844348  1.630358597207758 1.286191560288068 1.167404195580947  2.256563764297882 1.969439712327065 1.211400566057641  2.25491500296849 1.945339055743168 1.153960477216332  2.253293699792547 1.921280852783105 1.09649318753744  2.251670699048877 1.897242636470052 1.038996405177222  2.250040644150641 1.873168039504105 0.9814756052724612  2.24838202734241 1.849027863588309 0.923935761075623  2.246700765203938 1.824794746258084 0.8663832121500123  2.606402779533791 1.999052007076425 1.182892334839154  2.714663345481976 2.068316919879569 1.149199163149893  2.722144626093435 1.948844730736004 1.19420264271706  2.603079886145051 1.976787545368076 1.12527415837647  2.711802489749874 2.045421403285286 1.0916444450193  2.718861785676475 1.927777522754298 1.136562618734658  2.599761233775985 1.954538056286903 1.067637464794835  2.708973327572699 2.022543378125622 1.034074547771511  2.715603676814784 1.906723260290174 1.078888156796295  2.596438892558161 1.932292084117787 1.009988830399614  2.706156600321338 1.999668238775901 0.9765008281605784  2.712352880464966 1.885670033707824 1.02120121183365  2.593093653150435 1.910040696409236 0.9523356899962695  2.703321298780739 1.976782452924662 0.9189314624404255  2.709082514384415 1.864610061922282 0.9635076006117639  2.58970916994183 1.887770550256424 0.8946766604204396  2.523647987307352 1.656262262508522 1.308192601303362  2.518617674030544 1.635498938032518 1.248408172478592  2.513555487071171 1.614714225059268 1.188578133282323  2.508465282632015 1.593921833222377 1.128717416437457  2.503343924127986 1.573147280625865 1.068820955848178  2.498196773841161 1.552420245957247 1.008870274766937  2.49305687754 1.531760303404592 0.9488271911477573  3.041215290365959 1.517655661981659 1.071199791542624  2.14204038315224 1.417556101621828 1.456004956612824  2.129528296951442 1.385474740554079 1.398466761167268  2.116901658418071 1.353242972112036 1.340994148442045  2.104234761321726 1.320961176427026 1.2835424503116  2.091578475754183 1.288715688890131 1.22606871703664  2.078984735664244 1.256583380332997 1.168527978042111  2.066516769537905 1.224654610404891 1.110855783206773  2.611443819060383 1.865667498726733 1.230608230614203  2.607616995595732 1.845277075461303 1.172359437561381  2.603789221090357 1.82489441718825 1.114078692544992  2.599951008828276 1.804511820512277 1.055778185964108  2.596086776238832 1.784128955141231 0.9974621754798501  2.592185878842047 1.763746546988445 0.9391232212953197  2.705765427256114 1.843533875673695 0.9058007629142496  2.588247189229936 1.743363062758458 0.8807375820126175  2.702373650294487 1.822413830754352 0.8480585051543316  2.586285519573413 1.865456064880536 0.836998153228353  2.178644448512966 1.636571798712365 1.347363768307033  2.288853453923155 1.726177109346711 1.302742969058726  2.298315917007149 1.626758915773408 1.338966916617082  2.2924
[...]
<PointData  Vectors="f_24"> 
<DataArray  type="Float64"  Name="f_24"  NumberOfComponents="3" format="ascii">6.9528207034853823e-02 -9.1691401000580069e-02 -1.3049955062631494e-01  7.1427399657728527e-02 -9.5727419178797304e-02 -1.3771851415725617e-01  6.8874835202138746e-02 -9.4331001895597233e-02 -1.3147239406866629e-01  7.0833920324406968e-02 -9.6859499716673222e-02 -1.3080036715114507e-01  7.3163209326910922e-02 -9.7311155154769596e-02 -1.3784417671512869e-01  7.1157488757850454e-02 -9.5358589845806585e-02 -1.2912282703819261e-01  7.2427389934745456e-02 -9.7924021651010260e-02 -1.3014864245803609e-01  7.4721827744699862e-02 -9.7949303858096692e-02 -1.3746404038240481e-01  7.2589164545917781e-02 -9.7156477408277764e-02 -1.2814264285715957e-01  7.3835320111881014e-02 -9.8041503861760554e-02 -1.2966510251557750e-01  7.6126019372035628e-02 -9.7844379223603922e-02 -1.3705131478091426e-01  7.3943472280457043e-02 -9.7793561531639248e-02 -1.2750076131517651e-01  7.5338003501171424e-02 -9.8776786767905578e-02 -1.2880520687963687e-01  7.7575297253453052e-02 -9.8120235478629872e-02 -1.3644411834571374e-01  7.5435924480389077e-02 -9.9316815936163982e-02 -1.2640409839316455e-01  7.7140001559115254e-02 -1.0055117777326171e-01 -1.2680475541284136e-01  7.9226946250664537e-02 -9.8713367694754084e-02 -1.3484393505324138e-01  7.7019999540785741e-02 -1.0228725780122569e-01 -1.2402877513913105e-01  7.8990283792978969e-02 -1.0243241485112541e-01 -1.2383826714847580e-01  8.0954171220642121e-02 -9.9365246696674944e-02 -1.3208444455271548e-01  7.8647634026558472e-02 -1.0555082133488017e-01 -1.2073365289353623e-01  7.2135698258903286e-02 -7.1368530481519782e-02 -9.9444052379656311e-02  7.1932505843232977e-02 -7.8592289818428404e-02 -1.1268327560950898e-01  7.0366751249019269e-02 -7.3609874582437923e-02 -9.8401892574553063e-02  7.0996661243115780e-02 -7.7987290760193284e-02 -9.5305502828453903e-02  7.2655158447546844e-02 -8.3230606652684974e-02 -1.0980071515213337e-01  7.2624820755684813e-02 -7.5365738287798814e-02 -9.6412713687279064e-02  7.1731661192246596e-02 -8.0412881826845445e-02 -9.3819696751340789e-02  7.3622385781034888e-02 -8.5609168702520264e-02 -1.0843456838892819e-01  7.3137821476446999e-02 -7.7485602599752360e-02 -9.4989331241764632e-02  7.2513857369059839e-02 -8.2520089240135416e-02 -9.2485466191728455e-02  7.4569904413058233e-02 -8.7301271135283479e-02 -1.0738843934124882e-01  7.3610602178785622e-02 -7.9299919213106987e-02 -9.3669459782964981e-02  7.3108067350411796e-02 -8.6366600203962723e-02 -8.9753761587525169e-02  7.5226875393954118e-02 -9.0559590869132692e-02 -1.0513152195982682e-01  7.4003194425382154e-02 -8.2875112341114318e-02 -9.0847122226015625e-02  7.3650577060857134e-02 -9.1715510826180680e-02 -8.5912503183440861e-02  7.5755817705753611e-02 -9.5650761851818561e-02 -1.0154553582695951e-01  7.4396328898474473e-02 -8.7895639451228441e-02 -8.6913259644072052e-02  7.4210118115753690e-02 -9.7466026443704848e-02 -8.1833343703548139e-02  7.6292265804780129e-02 -1.0110708450072856e-01 -9.7557691873573965e-02  7.4823125524206752e-02 -9.3342104710839410e-02 -8.2758657391095503e-02  8.3264097795464120e-02 -9.7651918472117322e-02 -1.4101088108189472e-01  8.3054465169518740e-02 -9.5331232046158551e-02 -1.3076345540749532e-01  7.9656078581722925e-02 -9.8077939635640002e-02 -1.4098534026159382e-01  8.0661389354202542e-02 -9.5993116923773297e-02 -1.4279734484904338e-01  8.4050234395833603e-02 -9.0321399737189167e-02 -1.3317584108867131e-01  8.3793857100497318e-02 -9.5002257927515779e-02 -1.4311605333470201e-01  8.4245277938865798e-02 -9.2913251687378212e-02 -1.4412403321341155e-01  8.4812544347370677e-02 -8.7464721110267638e-02 -1.3439033377434759e-01  8.1512140298337935e-02 -9.4326797296628864e-02 -1.4351514291703699e-01  8.4875226540729168e-02 -9.1561618988260138e-02 -1.4447083449480957e-01  8.5666020761912376e-02 -8.5784116597584434e-02 -1.3496934111159697e-01  8.2336056201348720e-02 -9.3225526995755953e-02 -1.4364363467894048e-01  8.5763660187549495e-02 -9.0011187776675092e-02 -1.4474611888436659e-01  8.6946436677218825e-02 -8.3339558538774838e-02 -1.3574311074802300e-01  8.3589914604628557e-02 -9.1969031428945081e-02 -1.4370413643357732e-01  8.6602861267532000e-02 -8.6541664321495071e-02 -1.4471001118172938e-01  8.7988179980538025e-02 -7.7859518267342415e-02 -1.3663755785652842e-01  8.4759182288873081e-02 -8.8923370980721270e-02 -1.4337753527971484e-01  8.7324736990926355e-02 -8.2208955665352371e-02 -1.4357209179816480e-01  8.9145150877699336e-02 -7.1235228315602903e-02 -1.3678393122087001e-01  8.5983875199929463e-02 -8.5198801969243287e-02 -1.4187582007168076e-01  7.0381949954249415e-02 -9.7294787574578115e-02 -1.3460661894063977e-01  7.2451818281336566e-02 -9.7423747224811119e-02 -1.3528384966732673e-01  7.4263640774440004e-02 -9.7137725796305113e-02 -1.3526597574159480e-01  7.5779697796987677e-02 -9.6599486553486533e-02 -1.3501679371342920e-01  7.7313438542830251e-02 -9.6191102652427862e-02 -1.3460131866185188e-01  7.9162401577996977e-02 -9.5437145377765334e-02 -1.3348575279316466e-01  8.1089069733374208e-02 -9.4503281010337919e-02 -1.3124894077585633e-01  7.1841160953921651e-02 -9.3151748038781443e-02 -1.3747762602521735e-01  7.3238532256465830e-02 -9.6150943605682659e-02 -1.3679846647467347e-01  7.4627122770132059e-02 -9.7661118143145917e-02 -1.3609772864061498e-01  7.5977810753019390e-02 -9.8016825794925128e-02 -1.3559259486400338e-01  7.7412362122939685e-02 -9.9016631437674335e-02 -1.3468700758850613e-01  7.8837382092986616e-02 -1.0108982262842961e-01 -1.3262689439413056e-01  8.0301369461981117e-02 -1.0336990498031928e-01 -1.2949342517823709e-01  7.1061290395235926e-02 -9.7405571323146950e-02 -1.2123477846871183e-01  7.3282596826919025e-02 -9.7166093072328111e-02 -1.2873194870617971e-01  7.1704630024933533e-02 -9.7609380731973908e-02 -1.2116631104821447e-01  7.0410347827782716e-02 -9.7228132529024638e-02 -1.2171725995097588e-01  7.4876227626367128e-02 -9.7160245285055985e-02 -1.2817657788817821e-01  7.2632297650393848e-02 -9.8046587226370371e-02 -1.2038686578476654e-01  7.3239084680562921e-02 -9.8809384046951901e-02 -1.2016909634390426e-01  7.6853666533979764e-02 -9.7444186443670186e-02 -1.2673366155558152e-01  7.4655466023097652e-02 -9.9679669453996547e-02 -1.1843257868984533e-01  7.5099776712989424e-02 -1.0146799900021745e-01 -1.1791361975652725e-01  7.8866994345837507e-02 -9.7679541671601450e-02 -1.2429318837077190e-01  7.6661030012204923e-02 -1.0140202317751945e-01 -1.1560774893394569e-01  7.6997410213781509e-02 -1.0432413691057085e-01 -1.1478485001215216e-01  8.0361572634201323e-02 -9.6994186691642864e-02 -1.4569637553064299e-01  8.0834927626118963e-02 -9.6855346778525878e-02 -1.4691549374996424e-01  8.1383939991343385e-02 -9.6319574020501134e-02 -1.4726339909872124e-01  8.2086808541854711e-02 -9.5604096152823295e-02 -1.4722912434735030e-01  8.3194696192561951e-02 -9.5091296310081244e-02 -1.4705207101168000e-01  8.4010419755277177e-02 -9.3777787428082834e-02 -1.4601407068425798e-01  8.4819031426771496e-02 -9.2217518868087336e-02 -1.4368205512971630e-01  6.9812378223040622e-02 -8.8700917869102988e-02 -1.2710794460745883e-01  7.1158334744004750e-02 -9.3142610182783026e-02 -1.2511406383555099e-01  7.2571735671383822e-02 -9.5423362461901057e-02 -1.2394152258841336e-01  7.4011832984387946e-02 -9.6535506293932163e-02 -1.2319598124120319e-01  7.5420047288321454e-02 -9.8840576997610022e-02 -1.2177542051057690e-01  7.6741648793085274e-02 -1.0286498895466487e-01 -1.1903192984475459e-01  7.8109143552666238e-02 -1.0723205444760098e-01 -1.1550883115181086e-01  7.4995264649116627e-02 -1.0531870964057291e-01 -1.0418491665404100e-01  7.4442619744652133e-02 -1.0299991533276913e-01 -1.0618980170456531e-01  7.3096080967692975e-02 -1.0164721668148627e-01 -1.0751639996409736e-01  8.2173267072386119e-02 -6.6314792721692925e-02 -1.1266142589191488e-01  8.3877223794570813e-02 -7.3247975661453593e-02 -1.2180582038280430e-01  7.9474122089009613e-02 -6.9037159983578206e-02 -1.1272686541504999e-01  7.9446349241053676e-02 -7.2246604810162110e-02 -1.0959057970875408e-01  8.3404861343563966e-02 -7.6193598440366037e-02 -1.1929644548463568e-01  8.1865351505746434e-02 -6.9103565867801503e-02 -1.0941097692069256e-01  7.9480525599674820e-02 -7.3734587173678631e-02 -1.0814851845969010e-01  8.3263620444103653e-02 -7.7577313441306889e-02 -1.1814492217786031e-01  8.1648984443041014e-02 -7.0415030340641907e-02 -1.0782538844884725e-01  7.9245027313109714e-02 -7.4616658106860453e-02 -1.0713579986142173e-01  8.2917268323894219e-02 -7.8265010077437566e-02 -1.1748383166413998e-01  8.1192683355827841e-02 -7.1212578880230540e-02 -1.0673205315215072e-01  7.8951407380661962e-02 -7.6505569230051931e-02 -1.0496265207320619e-01  8.2361062205292934e-02 -7.9632939629224617e-02 -1.1604659479142961e-01  8.0506833157972232e-02 -7.2576990051704190e-02 -1.0484115445290827e-01  7.9011138453988480e-02 -8.0110844772391179e-02 -1.0096430319129429e-01  8.2082946670640533e-02 -8.2516806841814380e-02 -1.1270815343560578e-01  8.0440439140471595e-02 -7.5773800786365281e-02 -1.0079829822611387e-01  7.9061163936580747e-02 -8.3894332116607392e-02 -9.6513891667785720e-02  8.1747083098186235e-02 -8.5461974463000398e-02 -1.0876986674419473e-01  8.4131483606750365e-02 -9.6562665886605142e-02 -1.4597933515925804e-01  8.4075468855301885e-02 -9.5948306674766934e-02 -1.4745424399573911e-01  8.4179688701324556e-02 -9.5036149095650890e-02 -1.4806798988224987e-01  8.4638262145127943e-02 -9.4081738471817056e-02 -1.4824118407374720e-01  8.5372395821348909e-02 -9.3201732248324329e-02 -1.4823127530743471e-01  8.5799364896738020e-02 -9.1420538191473930e-02 -1.4750805615715157e-01  8.6062480762730598e-02 -8.9166837595886381e-02 -1.4549339148136087e-01  7.6321570759897595e-02 -9.8151518481870606e-02 -1.3964432420291750e-01  7.5154359766538892e-02 -9.7718193039590728e-02 -1.3293129718628569e-01  7.3149602083156073e-02 -9.7861429528823415e-02 -1.3772278247694220e-01  7.7816596758987722e-02 -9.6591116615000722e-02 -1.4116692812118276e-01  7.7020776916423256e-02 -9.4614047498931625e-02 -1.3461574906373339e-01  7.4960587717080085e-02 -9.7132669706327418e-02 -1.3884057762588206e-01  7.9072206594197336e-02 -9.5305711006277882e-02 -1.4167750818568306e-01  7.8532094403462843e-02 -9.2708576412350654e-02 -1.3525671104353273e-01  7.6568168068173445e-02 -9.6371518399425635e-02 -1.3906512128359910e-01  8.0222486872027862e-02 -9.4437739483731450e-02 -1.4165015942370765e-01  7.9870552763493807e-02 -9.1598574774391178e-02 -1.3534495377506972e-01  7.8003279408884171e-02 -9.5714867492966538e-02 -1.3888895006906610e-01  8.1582248080246195e-02 -9.3376588614608694e-02 -1.4153880666494120e-01  8.1382169597291457e-02 -8.9986327194684412e-02 -1.3550373807978122e-01  7.9444460347766463e-02 -9.4968863016894625e-02 -1.3864310505647906e-01  8.3049305245149543e-02 -9.0840973707452977e-02 -1.4100261098780401e-01  7.2079259678079141e-02 -9.0125936991214892e-02 -1.3476612884093464e-01  7.3158123804554318e-02 -9.4171554558024617e-02 -1.3332771992065734e-01  7.4489755575033373e-02 -9.6242868625042138e-02 -1.3235522037790851e-01  7.5885863921873284e-02 -9.7089249729834057e-02 -1.3173702114529087e-01  7.7234920104190585e-02 -9.8810933295706685e-02 -1.3058364783951210e-01  7.8351910133499847e-02 -1.0202058092131783e-01 -1.2809125362477722e-01  7.9531323820091801e-02 -1.0558235589313723e-01 -1.2465342692163812e-01  7.1170606965000049e-02 -9.8192565113993685e-02 -1.1017760394053094e-01  7.3536009988201506e-02 -7.6440942919541968e-02 -1.1303714629873679e-01  7.4090829052748691e-02 -8.0738085637328025e-02 -1.0994316912709159e-01  7.4841483186982721e-02 -8.2848177372805282e-02 -1.0846434844836762e-01  7.5519967833785492e-02 -8.4281636894796508e-02 -1.0734587748338553e-01  7.5965590347170112e-02 -8.7116242100392247e-02 -1.0506425668582525e-01  7.6296551767298562e-02 -9.1838396791061455e-02 -1.0130223415600698e-01  7.6697147614524924e-02 -9.6882263334315585e-02 -9.7165442016400080e-02  7.4071116044001295e-02 -9.6452307518593031e-02 -1.4153662203411346e-01  7.5468511663738025e-02 -9.7369485915022688e-02 -1.4212877160701826e-01  7.6796622091517427e-02 -9.7638854983039397e-02 -1.4202101452012286e-01  7.8090764905728624e-02 -9.7371729144109478e-02 -1.4171639392970978e-01  7.9485225114133334e-02 -9.7287705362879451e-02 -1.4120791160605967e-01  8.0898467951657616e-02 -9.7172172313151353e-02 -1.3980097638456709e-01  8.1116730035207335e-02 -9.3283290779767852e-02 -1.3779224483060501e-01  8.2429547957209442e-02 -9.6977522155425683e-02 -1.3713590962516531e-01  8.2892680765523419e-02 -9.1286497435672659e-02 -1.3574138251528289e-01  8.4624859851519199e-02 -8.7802991973042643e-02 -1.3924402695195842e-01  7.7134144333259977e-02 -8.6801571289786023e-02 -1.3555785232309156e-01  7.7456255301621424e-02 -9.0932246256365035e-02 -1.4171828322875321e-01  7.4889535338306695e-02 -8.7601289770936980e-02 -1.3465603559712588e-01  7.5351012984675114e-02 -9.1737195475010705e-02 -1.3302200284715676e-01  7.7610345714152817e-02 -9.4142652290456555e-02 -1.4097098933997407e-01  7.7244381934282721e-02 -9.0693810397628000e-02 -1.3400218266712122e-01  7.6453882190266387e-02 -9.3794062426908881e-02 -1.3211181385979581e-01  7.8399620461623951e-02 -9.5644227182159133e-02 -1.4042158783226921e-01  7.8103764990126667e-02 -9.2551389604346931e-02 -1.3323364661210876e-01  7.7631044998776683e-02 -9.4688525249312580e-02 -1.3157609701145775e-01  7.9435499725580477e-02 -9.6035505592712123e-02 -1.4008047162679968e-01  7.9078871359919159e-02 -9.3308021502687383e-02 -1.3283421933717338e-01  7.8607421359950524e-02 -9.6667243185252452e-02 -1.3028382601744720e-01  8.0417805787456970e-02 -9.7206232181170749e-02 -1.3917202466496781e-01  7.9813018944031866e-02 -9.5111133861923644e-02 -1.3161980577501561e-01  7.9159205647867090e-02 -1.0019408887251800e-01 -1.2757268829245130e-01  8.0945329044776942e-02 -9.9424464057600234e-02 -1.3696174539439149e-01  8.0091350883651033e-02 -9.8359489169193140e-02 -1.2899203781657745e-01  7.9723779247213480e-02 -1.0406898150472350e-01 -1.2397043080087196e-01  8.1436546170047558e-02 -1.0192864459439795e-01 -1.3362129454216726e-01  8.0348528244627057e-02 -1.0194959828674079e-01 -1.2544201875909233e-01  7.4993795002969321e-02 -8.2246611607198275e-02 -1.2507393822923268e-01  7.3377196480977083e-02 -8.3756253027423358e-02 -1.2587606012044125e-01  7.4022863051380478e-02 -8.8361220948015864e-02 -1.2354856864433242e-01  7.5486389601274129e-02 -8.6494856103543599e-02 -1.2276057446179220e-01  7.5155629744480812e-02 -9.0671347642553565e-02 -1.2241831441075821e-01  7.6432091757267687e-02 -8.8543530809955251e-02 -1.2169146774219185e-01  7.6307907236041139e-02 -9.1974317964267846e-02 -1.2169755434626388e-01  7.7306817438714398e-02 -8.9674719364390851e-02 -1.2099072105509318e-01  7.7169962170999862e-02 -9.4559700551845399e-02 -1.2003175726438912e-01  7.7908286501278012e-02 -9.2315880895346814e-02 -1.1913762484213716e-01  7.7685731701016739e-02 -9.8991906513771086e-02 -1.1691824592943265e-01  7.8199318605838244e-02 -9.6577636685903967e-02 -1.1589047518179005e-01  7.8229590316528250e-02 -1.0380227696457524e-01 -1.1314622256856906e-01  7.8553485006493937e-02 -1.0124176958545124e-01 -1.1199468495536971e-01  7.9175843479603450e-02 -9.6704281494411112e-02 -1.3197495151974789e-01  8.0697699722101779e-02 -9.2427294726633927e-02 -1.3404246243251700e-01  8.1770722535703000e-02 -8.9998191692353013e-02 -1.3498013297604769e-01  8.2854116809681785e-02 -8.8614010604263882e-02 -1.3531902614540925e-01  8.4245509130231738e-02 -8.6557952181762848e-02 -1.3575332176076557e-01  8.5667015548604120e-02 -8.1660916555891319e-02 -1.3624615624598047e-01  8.7210631384616960e-02 -7.5781923553799077e-02 -1.3584234396277106e-01  7.1867888585928158e-02 -5.2618250450631239e-02 -7.5455392014402975e-02  7.0413676405091566e-02 -5.6574149085101687e-02 -7.4773663725624773e-02  6.9335229060671896e-02 -4.7867241347435870e-02 -6.2435274731288452e-02  6.8825033440449476e-02 -5.0129497686174113e-02 -5.9245074439394356e-02  7.0344587679075657e-02 -5.9554875184625725e-02 -7.1213786161778037e-02  7.1731051818401129e-02 -5.5307405359705825e-02 -7.1882926656169799e-02  6.8245156031213880e-02 -5.1704934307323661e-02 -5.7383748458627003e-02  7.0158233705703510e-02 -6.1314185855324568e-02 -6.9316558606860784e-02  7.1367796173985476e-02 -5.6815537831932647e-02 -7.0042078870699478e-02  6.7852636321430682e-02 -5.3642473669411606e-02 -5.5105631607667419e-02  7.0041343344661736e-02 -6.3222745024983998e-02 -6.7317874229180327e-02  7.1059006639965727e-02 -5.8450657284221712e-02 -6.8152571319415309e-02  6.7733657696851968e-02 -5.6759170059265174e-02 -5.1471204271124338e-02  7.0148327797103976e-02 -6.6516395625595470e-02 -6.3914119384045356e-02  7.0999761801491437e-02 -6.1434450079649566e-02 -6.4797916513501558e-02  6.7636918751733152e-02 -6.0584999301646333e-02 -4.7413660675293165e-02  7.0291700907639823e-02 -7.0911485384565334e-02 -5.9700361218256351e-02  7.1089321182095558e-02 -6.5574282704234932e-02 -6.0575230787202922e-02  6.7464598184654972e-02 -6.4831218155389170e-02 -4.3288150447519776e-02  7.0394514829061408e-02 -7.5728856585665902e-02 -5.5400693160083066e-02  7.1101232139895817e-02 -7.0134723121355838e-02 -5.6277771815064472e-02  7.7328673958034513e-02 -9.7080143954384662e-02 -1.4418415691900957e-01  7.8292222553132493e-02 -9.7242612131851633e-02 -1.4520816549787710e-01  7.9236318802118594e-02 -9.6961201911496722e-02 -1.4538972692909238e-01  8.0288379340217528e-02 -9.6436587303848006e-02 -1.4523563936276304e-01  8.1509761841053172e-02 -9.6055979499493169e-02 -1.4493550234185312e-01  8.2655077389560905e-02 -9.5081703526393349e-02 -1.4379508816155406e-01  8.3879900242568708e-02 -9.3900584873116338e-02 -1.4132343039498999e-01  7.0133098191797832e-02 -8.5603455054971009e-02 -1.2312068868831019e-01  7.1265544229563521e-02 -9.0499285542127147e-02 -1.2074235630361742e-01  7.2661408596549917e-02 -9.3070468381052082e-02 -1.1947961693075830e-01  7.4089622943677519e-02 -9.4537378699068003e-02 -1.1866398884638080e-01  7.5369749318992263e-02 -9.7268189232950386e-02 -1.1706115739222282e-01  7.6403241209739903e-02 -1.0190107685609275e-01 -1.1406464726105020e-01  7.7486086205953014e-02 -1.0692797843365809e-01 -1.1039619655167336e-01  8.0757580592839273e-02 -9.4175693810262778e-02 -1.4621798051382440e-01  8.0714528099096988e-02 -9.5792943516442908e-02 -1.4654380772186784e-01  8.1075881514896267e-02 -9.6325699594243155e-02 -1.4649153892895792e-01  8.1799358403590400e-02 -9.6104453871705395e-02 -1.4636943074874731e-01  8.2677667824661780e-02 -9.6258867920483979e-02 -1.4591404073743863e-01  8.3159533919222109e-02 -9.6696684143299433e-02 -1.4431779166655495e-01  8.3559229631426854e-02 -9.7142552076794453e-02 -1.4139419116700816e-01  7.1434459116833188e-02 -9.7977198510250052e-02 -1.0624633310079794e-01  6.9947215671139512e-02 -9.5537151247877164e-02 -1.0787134949169723e-01  7.3213070759667029e-02 -1.0225456649421842e-01 -1.0327930142159480e-01  7.4981647982480110e-02 -1.0683679053932497e-01 -9.9734879061960990e-02  6.2549282477169260e-02 -7.4499714447777671e-02 -7.9750964654815723e-02  6.2389549953169782e-02 -7.7306578811300819e-02 -8.2238656884711672e-02  5.9777880071460551e-02 -6.9575046785324501e-02 -6.6355765998825561e-02  6.3720917102877916e-02 -7.9125058177261787e-02 -7.6376618971119983e-02  6.3519691001935510e-02 -8.1654510987373460e-02 -7.9044588004972077e-02  6.0902848776274908e-02 -7.3643727499671532e-02 -6.2771063338601260e-02  6.4482972394498780e-02 -8.4155467649886184e-02 -7.7308239604730475e-02  6.4840083228002207e-02 -8.1903165723713256e-02 -7.4510141220170689e-02  6.1936965584624262e-02 -7.6289014927249946e-02 -6.0694181580938283e-02  6.5601318291110627e-02 -8.6444544397450584e-02 -7.5735902119146700e-02  6.6018729720560748e-02 -8.4519280911857494e-02 -7.2784268045497535e-02  6.3067937361815971e-02 -7.9085337016378612e-02 -5.8541074417250170e-02  6.7038239926239876e-02 -9.0435934840582530e-02 -7.2984944763031204e-02  6.7377287371025552e-