<?xml version="1.0"?>
<VTKFile type="UnstructuredGrid"  version="0.1"  >
<UnstructuredGrid>
<Piece  NumberOfPoints="729" NumberOfCells="2994">
<Points>
<DataArray  type="Float64"  NumberOfComponents="3"  format="ascii">3.189058439783921 0.8830925862354735 1.793900082481117  3.3142606313554 0.9372679605161209 1.767013047520003  3.33708198609435 0.8598671919176238 1.897419515054894  3.353860630786617 0.8000490214087879 1.868215688893548  3.326886269243581 0.8835241291884051 1.7273265249627  3.203154926007446 0.8275849301783598 1.752991397171334  3.217541030389753 0.7721337900158458 1.712153367742454  3.339741600199311 0.8299059078524669 1.68768981165186  3.370951653578412 0.7403721863140303 1.83905567629484  3.232006376825464 0.7167242886949898 1.67134206415306  3.352671766728385 0.7763625463078168 1.648084726849494  3.388131965719963 0.6807754363381339 1.809919375971748  3.246419382819593 0.6613442062635939 1.630531488738448  3.365560182820665 0.7228662505158847 1.608494684022497  3.405253650228363 0.6212201302551221 1.780799516093984  3.260657618847829 0.6059732275590226 1.589689605192857  3.378282880652548 0.6693874986227786 1.568900971892679  3.422161950442563 0.5616695285801988 1.751682329920147  3.274556187272446 0.5505614288421506 1.548738680831721  3.390658360093542 0.61588178263312 1.529290622839794  3.438638103037019 0.5020311716079512 1.722527115540903  3.212966949383933 0.8127546833757252 1.911102955931437  3.228864998101136 0.7496922443503884 1.882390415911973  3.245040954781259 0.6867119188633278 1.853697771317747  3.261254768339405 0.6237825431686096 1.825021772900609  3.277385975601128 0.5608715509762954 1.796352527272187  3.293330918047999 0.4979406489773587 1.767665040526241  3.309018620986266 0.4349023566297197 1.738897439696976  3.560434897967375 0.8726145473773337 2.481128775753542  3.594607238501702 0.8469055578849887 2.334883576455969  3.706376856012104 0.8739810427205204 2.433598346042467  3.711560646270068 0.8129018484560275 2.444223756241052  3.603720841959586 0.7838942477983135 2.340490675477463  3.567316497945888 0.8119638868023578 2.495410907469922  3.612825609746781 0.7209633243056661 2.346037668749796  3.574166530644203 0.7513618686579029 2.509657588532186  3.716577878573236 0.7518815353691248 2.454776067031997  3.580983437212224 0.6908012101870372 2.523892416115534  3.621903152389133 0.6581180763371084 2.351567636663879  3.721517206928818 0.6909008376255081 2.465309988041477  3.587767494232271 0.630283399295577 2.538124008672631  3.630941319481108 0.5953421404829822 2.357098876999284  3.726427137596251 0.6299744889264008 2.475843174794886  3.594510383249487 0.5698157095325015 2.552349433278836  3.639908698016319 0.5326575760000566 2.362637206459833  3.731358363973318 0.5691352719973563 2.486384712107461  3.601170731711666 0.5094292339679523 2.566570518575604  3.648736015206932 0.4700853276207325 2.368184946470569  3.736378821358559 0.5084502734845322 2.496946874957011  3.210601879748049 0.835509733660429 2.514573363730032  3.34290255657225 0.839990637507529 2.471713522390202  3.309510379629804 0.8863836409368193 2.616154815527406  3.351598491880748 0.7782257343164107 2.489319065688067  3.220103168007693 0.7739816138681612 2.535717656657603  3.31579258608076 0.8280953931305725 2.639930694748617  3.360370550837416 0.7165227767869893 2.506912655726519  3.229750395807351 0.7125073936418924 2.556870242848818  3.322102618770432 0.7698559053450988 2.663701515376427  3.369159907701099 0.6548694261654322 2.524496668013365  3.239426685671219 0.6510644319093334 2.578021824333119  3.328411795279227 0.7116554172552569 2.687465679565256  3.377913921416762 0.5932542606257767 2.542080416337595  3.249068624167983 0.5896477483208531 2.599179601266837  3.334688177644538 0.6534862464869524 2.711227281879887  3.386569143991177 0.5316727873852849 2.559673668429884  3.258599008465749 0.5282475206830626 2.620353299402292  3.340883402761118 0.5953598670357796 2.734980830220038  3.395030249935756 0.4701132864376824 2.57727185836777  3.267870960946247 0.4668209942185569 2.641540849578023  3.346915821363121 0.5372907205274948 2.758713401790215  3.933047626817647 0.895849284793385 2.125737915126262  4.06250084182857 0.9223124525139431 2.066134820512163  4.061575575361343 0.8891255688278126 2.189115044510169  4.067912079993287 0.8277560609383582 2.18143890907356  4.068343086093254 0.8629225807013235 2.050097921524667  3.937462511350494 0.8348163591037797 2.113591954256724  4.074056202413501 0.766410164002839 2.173691713536623  4.073987806583669 0.8035524905601205 2.034014241771385  3.941577425366857 0.7738097774102561 2.101356002838814  4.080126892420825 0.7051328041924751 2.165934034626506  4.079539444456548 0.7442274543147485 2.017923207631437  3.945560708851831 0.7128563922185733 2.089092501582036  4.086185598815323 0.6439289037202454 2.158193679297687  4.08506555468857 0.6849554315180271 2.001846409272345  3.949504209687744 0.6519625196380148 2.07683602579225  4.092307642106536 0.5827942693824949 2.150490897162344  4.090634922840106 0.6257375380701096 1.985793610388362  3.953507168075809 0.5911497651652579 2.064618899547127  4.09863385366883 0.5216872809342361 2.142848524317408  4.096372978230181 0.566560314549486 1.969782472431092  3.957806666276348 0.530451423102388 2.052473639747666  4.405814869923113 0.9630449992722787 2.070471169148994  4.412349664794169 0.993409535334129 1.941746875988626  4.50200568298384 0.9852331141203209 2.014485676233553  4.507693062662374 0.9252878194705529 2.00315355617152  4.417378693369229 0.934535888593427 1.925148958504704  4.412434593887422 0.9032397482639716 2.059930390042719  4.513309168076181 0.8653774413306861 1.991825905991856  4.422309929419074 0.8756923146709021 1.908561675639185  4.419004396859291 0.8434941204383523 2.049383716645754  4.518890976655906 0.8055022020001731 1.980501032210702  4.427192581385651 0.8168878521360564 1.891980002469841  4.425543638753638 0.7838006359808077 2.038832001215191  4.524468583631729 0.7456687042419188 1.969187871907358  4.432073091104334 0.7581273154369781 1.875411988489405  4.432069210250819 0.7241612529844519 2.028291322798891  4.530073639401902 0.6858852485762809 1.957898798848081  4.43700473600453 0.6994187925264737 1.858870849811244  4.438598960844422 0.6646006922707555 2.017782051324788  4.535756004923448 0.6261660413484598 1.946642341234806  4.442045778408275 0.6407723179805185 1.842359665243736  4.445165446467139 0.6051378882531663 2.007308987111877  3.567212389403531 0.8468532829340146 2.173792412569871  3.703752688286283 0.860336621653393 2.259925771997227  3.711197043699401 0.7974498362232665 2.26106966496767  3.577791528214281 0.782980000829101 2.168664859310205  3.718506394106264 0.7346515157050526 2.262111106242178  3.588370273393346 0.7192022648289765 2.163478420259153  3.725742245370517 0.6719245120726036 2.263124582053847  3.598930601184086 0.6555079172633655 2.158276006416741  3.73293890633341 0.6092627471923049 2.264137990111582  3.609453468787016 0.5918675807583529 2.153082811641032  3.740118018593711 0.5466951278468821 2.265167820081453  3.619903966162963 0.5282770209967778 2.147917491553247  3.747317658546971 0.4842839364629188 2.266246216718224  3.630229438123628 0.4647727360964972 2.142798832071418  3.432360847684567 0.9174235050695879 1.833845900014113  3.44586502283105 0.8607898672496073 1.800679736144347  3.459525313232046 0.8043359635034214 1.767558413931948  3.473235377177798 0.7479837910042191 1.734465558328715  3.486895870078644 0.6917004580366625 1.701401150573461  3.500383523350034 0.6354785230893544 1.668383040785607  3.513529397549797 0.5792819202429877 1.635404497023367  3.931384185579722 0.8788489517845079 2.269277461840837  3.934853732870828 0.8168314077298016 2.268140079409075  3.938025816267789 0.7548270075268482 2.266937152418935  3.941082406749591 0.6928566512806935 2.265709380946921  3.944108591831451 0.6309396982172586 2.264487547064653  3.947199608984421 0.5691007256898047 2.263298493046625  3.950573783023528 0.5073488447974873 2.262157223187465  2.93065352086493 0.8247943280159318 1.831262618645128  2.921926376612179 0.9133926674251349 1.697434630422147  3.035241538756912 0.8770247172566807 1.75853026417137  3.043858941301041 0.8201716506643151 1.714677572612664  2.924395380601674 0.8577545260082281 1.650264186671413  2.931535103110062 0.7600864102815994 1.795747502534988  2.926844259587555 0.8020854213739655 1.603096998712253  2.932338253044263 0.6953363814609047 1.760191545680802  3.052585420823942 0.7632858605491181 1.670826461028029  2.929302500967391 0.7464137566389961 1.555915160915235  2.933118571124005 0.6305694262629702 1.724610439716522  3.061336858880781 0.7064113858770411 1.626971886756694  3.070049002007261 0.6495525130926545 1.583094491767693  2.931745535871728 0.6907582789798392 1.508695038197393  2.933893761228839 0.5657917224946474 1.689002835954934  2.93468289411329 0.5010082319516116 1.65337179002663  2.93417527921818 0.6351264312685495 1.461416457350697  3.078681149604735 0.5926963662297933 1.539159318342241  2.935537603052146 0.4361965775345447 1.617708785844099  2.936636100427033 0.5794895666242965 1.414108550506317  3.087238725841651 0.5358277285502029 1.495145214701933  3.819948262834745 0.8734577393650911 2.205106094064044  3.82632800330147 0.8111121810385511 2.200411335611208  3.83250989979352 0.748858932464317 2.195633756039788  3.838587899094442 0.6866641146215742 2.190828635856456  3.844630002037419 0.6245349906717124 2.186025706221947  3.850705214357459 0.562506963949728 2.18124898685334  3.856872097354826 0.5006742460502327 2.176534966551913  3.450303647483711 0.8352679446143052 2.382397758336924  3.459403545470682 0.772267902818615 2.393958979661715  3.468551631341156 0.709361848492318 2.405486032273005  3.477702085653006 0.6465085322218463 2.417003751342752  3.48681458444205 0.5836999982442213 2.428522892507177  3.495830498293861 0.5209406721036975 2.440045451934605  3.504659789527366 0.4582523616609783 2.451555383615856  4.300099633865966 0.966417824
[...]
<PointData  Vectors="f_24"> 
<DataArray  type="Float64"  Name="f_24"  NumberOfComponents="3" format="ascii">2.5416758257576499e-02 -6.3477457352528674e-02 -4.1877811068943803e-02  2.4744644701539861e-02 -6.5497022985546868e-02 -4.3903753714531646e-02  2.3563497774266754e-02 -6.1369106862577294e-02 -3.1667877108311059e-02  2.3047594241200144e-02 -6.0520450086011486e-02 -2.7689837079080834e-02  2.5004272668583960e-02 -6.6203761162082930e-02 -3.8828996214850378e-02  2.5573310782127896e-02 -6.4229984244215096e-02 -3.6716356002657519e-02  2.5869243946728817e-02 -6.5406526436857154e-02 -3.2346992044261107e-02  2.5362103225149514e-02 -6.7292302673312987e-02 -3.4372769224048368e-02  2.2797843422519597e-02 -6.0405734984074699e-02 -2.4240637666320432e-02  2.6317061722964833e-02 -6.7012215566907979e-02 -2.8364974818041764e-02  2.5861066775122891e-02 -6.8752080549377495e-02 -3.0321646468153617e-02  2.2735981708283112e-02 -6.0850262597332845e-02 -2.1094157598131463e-02  2.6910489657518077e-02 -6.9013922669335731e-02 -2.4590529412928327e-02  2.6498877510781636e-02 -7.0577151142304839e-02 -2.6500884902342269e-02  2.2849956281823843e-02 -6.1746341130171065e-02 -1.8133635879762480e-02  2.7667592421430645e-02 -7.1378650040880801e-02 -2.0913556118417477e-02  2.7288732950472738e-02 -7.2764022919185378e-02 -2.2796243914103519e-02  2.3154295838785366e-02 -6.3027169996437579e-02 -1.5291349401909465e-02  2.8628077974114704e-02 -7.4080492864392111e-02 -1.7273088347202058e-02  2.8261286872468643e-02 -7.5333676883407211e-02 -1.9138262720149041e-02  2.3699498776776608e-02 -6.4646617161093420e-02 -1.2525031350039925e-02  2.4176177302046950e-02 -5.9530714162602333e-02 -3.0864950322143224e-02  2.3634926288840188e-02 -5.8690316803276986e-02 -2.6847035869903245e-02  2.3397943502393638e-02 -5.8760734656558691e-02 -2.3426650343750459e-02  2.3337078986807931e-02 -5.9410905894336639e-02 -2.0259293014809079e-02  2.3444622462426026e-02 -6.0504510989675263e-02 -1.7248019879005549e-02  2.3739090281110004e-02 -6.1949657128559474e-02 -1.4333998735970771e-02  2.4231227811398210e-02 -6.3617436498933713e-02 -1.1454446364018378e-02  2.0586317578059541e-02 -6.7711048915646277e-02 3.6682843505335791e-03  2.0211408731222007e-02 -6.4966919535615605e-02 -2.8747946934198948e-03  1.9607835800399098e-02 -7.0009949006816910e-02 3.3148376544327668e-03  1.7901620641272854e-02 -6.8810571874155957e-02 1.2787228499839037e-03  1.8565557505383589e-02 -6.3340147275131056e-02 -4.2067588593299021e-03  1.8743838102169775e-02 -6.6833980398273277e-02 1.5816994802787976e-03  1.7024402921977003e-02 -6.2192700161446644e-02 -5.1658548874921753e-03  1.6936270891421735e-02 -6.6127187030959822e-02 -6.8197165136015537e-05  1.6212803241973026e-02 -6.7905743943248997e-02 -3.3486379070782086e-04  1.5169129497231308e-02 -6.5624691615089215e-02 -1.4851992710796275e-03  1.5554975601178137e-02 -6.1457674813204619e-02 -5.9689294368550014e-03  1.4581316265838824e-02 -6.7257587169660640e-02 -1.7663211287090937e-03  1.3447255146274113e-02 -6.5325579715912865e-02 -2.8896231859984346e-03  1.4154324259882880e-02 -6.1068958911738143e-02 -6.7817986170137902e-03  1.2982024277924468e-02 -6.6860269416824464e-02 -3.1936901455678853e-03  1.1767217278683222e-02 -6.5259603244895853e-02 -4.4232148570883204e-03  1.2828258133628615e-02 -6.1014971726496260e-02 -7.7204257912747657e-03  1.1415842318650265e-02 -6.6729787769382667e-02 -4.7577185373816272e-03  1.0129357101148416e-02 -6.5446959018015921e-02 -6.2209326067419147e-03  1.1583619794875887e-02 -6.1305505111206381e-02 -8.8740819600194761e-03  9.8807978328315765e-03 -6.6909831480542040e-02 -6.5706984124294021e-03  2.2064075803291314e-02 -5.8832719934817770e-02 -4.5578262144169873e-04  2.1534219419084108e-02 -6.1641963007249279e-02 2.2003945523554664e-07  2.1937459507773580e-02 -6.3938514678317057e-02 5.3637671304699640e-03  1.9559514130209600e-02 -6.0846337589587865e-02 -1.8246177167942691e-03  1.9922429756289092e-02 -5.8259837546292569e-02 -2.2559567773405083e-03  1.9750242508474593e-02 -6.3807001805572042e-02 3.3900285044037200e-03  1.7639811409321179e-02 -6.0223146784112239e-02 -3.1645647529517295e-03  1.7854815018238015e-02 -5.7787405402965550e-02 -3.5364000335853917e-03  1.7603704473760876e-02 -6.3556299855771659e-02 1.8648836476407589e-03  1.5779384667890844e-02 -5.9796429200104764e-02 -4.2780530764251774e-03  1.5842312740965370e-02 -5.7462261501820357e-02 -4.5799987119567835e-03  1.5497242124342689e-02 -6.3298607105096480e-02 5.3499032474974169e-04  1.3970923683539208e-02 -5.9587755789009218e-02 -5.3640452967328315e-03  1.3870104491969786e-02 -5.7322631670008735e-02 -5.5982771038751841e-03  1.3415561386888035e-02 -6.3109428664589698e-02 -8.0296963395047453e-04  1.2210337778936433e-02 -5.9625741676576589e-02 -6.5805694912316861e-03  1.1925334631815467e-02 -5.7410163437029281e-02 -6.7509676000176624e-03  1.1340176105820433e-02 -6.3062005378051220e-02 -2.3210795487406889e-03  1.0504003761447202e-02 -5.9949663091768399e-02 -8.0594961913388642e-03  9.9966490403104475e-03 -5.7761318921179736e-02 -8.1548307928120661e-03  9.2564631202262625e-03 -6.3229901242635278e-02 -4.1728969812620731e-03  1.8231998730824706e-02 -6.8332648383697653e-02 -8.8927244684074789e-03  1.7679572996431372e-02 -7.0043507054967133e-02 -9.7240494966888465e-03  1.7294372056851488e-02 -7.1651495473214755e-02 -3.4673761235023120e-03  1.6022852729274853e-02 -6.9560645196039619e-02 -3.9369663698419176e-03  1.6786900756420430e-02 -6.8069086220005043e-02 -9.0351326828801877e-03  1.7246861209060067e-02 -6.6218650454255817e-02 -8.5784825908251788e-03  1.4843037117819003e-02 -6.8185397978790196e-02 -4.4710354499903678e-03  1.5972755181670847e-02 -6.6594255224590240e-02 -8.5759480552626589e-03  1.6328142879220759e-02 -6.4681939262846253e-02 -8.3965340214200504e-03  1.3743150514826453e-02 -6.7277656948264139e-02 -5.0316491821421625e-03  1.5252285773750974e-02 -6.5608102074168603e-02 -8.2099583284237290e-03  1.5476613922585220e-02 -6.3649895795205053e-02 -8.2648731363246415e-03  1.2684739515299553e-02 -6.6741816551580763e-02 -5.6494387156909758e-03  1.4590662531227913e-02 -6.5062033687469739e-02 -7.9300705041440833e-03  1.4674633342019096e-02 -6.3057782640377535e-02 -8.1997848280864569e-03  1.1629765497204396e-02 -6.6540710278994580e-02 -6.3661745194446527e-03  1.3949039427240092e-02 -6.4902501243165378e-02 -7.7438611865913677e-03  1.3891247712119911e-02 -6.2864250125463622e-02 -8.2328997061924744e-03  1.0534024047929760e-02 -6.6648095630307408e-02 -7.2129887267340315e-03  1.3282064629194694e-02 -6.5092030356529121e-02 -7.6618120033368859e-03  1.3077366083920518e-02 -6.3059409372242178e-02 -8.3999960435189730e-03  1.5937903572661994e-02 -7.7101877298966642e-02 -2.0165407077855999e-03  1.5931753863130275e-02 -7.4868144483249771e-02 -7.8850728324379935e-03  1.5379278875731948e-02 -7.7767056372543372e-02 -2.4751476174446388e-03  1.4455059549987005e-02 -7.5801000968240106e-02 -2.7105926661702192e-03  1.5254281182559372e-02 -7.2947924564426447e-02 -7.3077426513397528e-03  1.4847040374965549e-02 -7.5156172812692865e-02 -2.3865398929369419e-03  1.3630968589014417e-02 -7.4313067237234201e-02 -2.8634519439183020e-03  1.4683109988095475e-02 -7.1538248265050480e-02 -6.7646517469623843e-03  1.3879953829804663e-02 -7.3658042333423476e-02 -2.7314331328114195e-03  1.2861067227605846e-02 -7.3226490632880753e-02 -3.0580041890148619e-03  1.4175187430999150e-02 -7.0569680974603505e-02 -6.3003464400171018e-03  1.2984149162885631e-02 -7.2558538255991234e-02 -3.1015271826661315e-03  1.2112753918296280e-02 -7.2491059737683272e-02 -3.3469964383315951e-03  1.3693900705038351e-02 -6.9983263269027207e-02 -5.9443584923257508e-03  1.2123363914103088e-02 -7.1815738498217818e-02 -3.5473005614805979e-03  1.1355428622901070e-02 -7.2068365355922009e-02 -3.7692565755546993e-03  1.3207686592169652e-02 -6.9736538973325532e-02 -5.7187346827717381e-03  1.1261692775478033e-02 -7.1394687076871938e-02 -4.1072403432569748e-03  1.0561921325048643e-02 -7.1928648382559759e-02 -4.3621577921435341e-03  1.2684140700862684e-02 -6.9802536415615790e-02 -5.6447590810537957e-03  1.0358458289092081e-02 -7.1259741058327608e-02 -4.8120409713224678e-03  2.0774309931699000e-02 -6.2383592220264746e-02 -1.1460542698538695e-02  1.9671132492487253e-02 -6.5970452592851489e-02 -4.9484042449595787e-03  1.8212063134671497e-02 -6.4057673416407820e-02 -5.8455670035567715e-03  1.9417941890541423e-02 -6.0312776660544555e-02 -1.1268726667211458e-02  1.6859625854161710e-02 -6.2714846373966140e-02 -6.4127650038157714e-03  1.8215852982746854e-02 -5.8880805607404024e-02 -1.0927030403459461e-02  1.5579188583569060e-02 -6.1822813503229018e-02 -6.8906871757201549e-03  1.7135897743653667e-02 -5.7985859758987263e-02 -1.0551169401933666e-02  1.4359996756396171e-02 -6.1327967877421716e-02 -7.4078840289598770e-03  1.6171694593879758e-02 -5.7552909764267378e-02 -1.0222664701997050e-02  1.3193796249448069e-02 -6.1203044404526022e-02 -8.0573981694137039e-03  1.5315906481510161e-02 -5.7533193396546098e-02 -1.0006762872721736e-02  1.2072722720620488e-02 -6.1439412990985182e-02 -8.9148999364581406e-03  1.4571275064004690e-02 -5.7926663682652257e-02 -9.9644380126536741e-03  2.3259429438417425e-02 -6.3966535683547349e-02 -3.5938949082462840e-02  2.3156887852252350e-02 -6.3629791963868851e-02 -3.1629832225677897e-02  2.3205847596737970e-02 -6.3874459913607476e-02 -2.7838066932437143e-02  2.3416243962716268e-02 -6.4577856952916138e-02 -2.4375893771650468e-02  2.3769198100119321e-02 -6.5696390022548845e-02 -2.1123040428642520e-02  2.4277130419122724e-02 -6.7206360938353138e-02 -1.7998323639156991e-02  2.4961761959321507e-02 -6.9073701949978139e-02 -1.4922836661354039e-02  1.8115145835610705e-02 -7.0869409598643490e-02 -1.5876069046632886e-03  1.6730551883325773e-02 -6.8900969767851331e-02 -2.6668122515926436e-03  1.5405550051309232e-02 -6.7478488149669849e-02 -3.6069184744814556e-03  1.4129237962431084e-02 -6.6499540644431948e-02 -4.4891909257551059e-03  1.2891351758380952e-02 -6.5892718845827064e-02 -5.4073747009723639e-03  1.1667005420996432e-02 -6.5625001350399947e-02 -6.4326682121661127e-03  1.0419579218259346e-02 -6.5690757641057890e-02 -7.6206026858543904e-03  2.6445054528485109e-02 -6.1085472052805116e-02 -4.1289727081672098e-02  2.8047860677507044e-02 -6.7493412627754559e-02 -5.3787622181076994e-02  2.6654899943263883e-02 -6.4422631056334043e-02 -4.6179996967668425e-02  2.7162628972829825e-02 -6.5668479568139398e-02 -4.0716017498707062e-02  2.8836696725978508e-02 -6.9500914829276367e-02 -4.8056024913823055e-02  2.6869370169348660e-02 -6.1162995380309837e-02 -3.6215835197360442e-02  2.9643197572267382e-02 -7.1884804777818848e-02 -4.2966963211392505e-02  2.7211079496344336e-02 -6.1961678012731128e-02 -3.1754763155625400e-02  2.7711707175092814e-02 -6.7382799018443268e-02 -3.5998159577882681e-02  3.0459175169768433e-02 -7.4587113593904963e-02 -3.8276786668444425e-02  2.7550040455738604e-02 -6.3319536298850176e-02 -2.7632361303861236e-02  2.8332063693524499e-02 -6.9499796625242596e-02 -3.1671979121248479e-02  2.9040630128319391e-02 -7.1989378059446829e-02 -2.7552616492510933e-02  3.1310931113942737e-02 -7.7606028357343301e-02 -3.3796853961240811e-02  2.7924642242424649e-02 -6.5116312695269601e-02 -2.3700821241813989e-02  2.8354873066787370e-02 -6.7276645102094218e-02 -1.9874557489254305e-02  3.2222195423613258e-02 -8.0959945234807651e-02 -2.9407978698947446e-02  2.9850819681143448e-02 -7.4828407533434227e-02 -2.3527998885152702e-02  2.8836464037507750e-02 -6.9762205497489210e-02 -1.6104668925084588e-02  3.3195727885752979e-02 -8.4639529159458715e-02 -2.5033234793962723e-02  3.0782982733814506e-02 -7.7988179705008959e-02 -1.9522349103288848e-02  1.8908581751423036e-02 -6.7303755355346287e-02 -6.3279163110928523e-03  1.7610288186235532e-02 -6.5212599813677011e-02 -6.7363812012049863e-03  1.6439733906123775e-02 -6.3768822877742326e-02 -7.0136624991065750e-03  1.5332473408931286e-02 -6.2803180844515555e-02 -7.2766566302809744e-03  1.4273228958920978e-02 -6.2249252961910188e-02 -7.5977260742626221e-03  1.3247522915292728e-02 -6.2076319665195855e-02 -8.0383822328169725e-03  1.2254339937792560e-02 -6.2288938125047925e-02 -8.6513428127351216e-03  2.1055359700889637e-02 -6.2594903800812188e-02 -2.3744967234527298e-03  1.9275502703086218e-02 -6.1303224355600039e-02 -3.9397535672832202e-03  1.7562682186322641e-02 -6.0375209732528128e-02 -5.0180861668268689e-03  1.5918875635863847e-02 -5.9769670104929715e-02 -5.8971078342207502e-03  1.4348438636588806e-02 -5.9470265357407209e-02 -6.7595186680443810e-03  1.2852032684112395e-02 -5.9477800732977155e-02 -7.7437348511786453e-03  1.1428021671104328e-02 -5.9802273247635297e-02 -8.9612252354466949e-03  1.6598168117844224e-02 -7.3900318093073153e-02 -7.2284117039573314e-03  1.5694900236148206e-02 -7.1958167745656207e-02 -6.8565071482275947e-03  1.4926587748919530e-02 -7.0515783094345669e-02 -6.4923956029545237e-03  1.4236317673889278e-02 -6.9511688366216337e-02 -6.1996909401765728e-03  1.3586546083056648e-02 -6.8894004709598070e-02 -6.0125497159343047e-03  1.2942316926508973e-02 -6.8621589886324219e-02 -5.9545005055853927e-03  1.2273543012080895e-02 -6.8673801765679318e-02 -6.0540678246686266e-03  2.1184959963983653e-02 -6.0402080740116673e-02 -9.2552495496468559e-03  1.9575544605721820e-02 -5.8543485808413752e-02 -9.6608907088766485e-03  1.8143686285235272e-02 -5.7341551576604026e-02 -9.7724888012542636e-03  1.6838412867725961e-02 -5.6621884471411782e-02 -9.7669509439716438e-03  1.5650384250128831e-02 -5.6312225822772316e-02 -9.7765038313390486e-03  1.4590123572323473e-02 -5.6379140670147487e-02 -9.8987729506044685e-03  1.3675082191437827e-02 -5.6805795248796996e-02 -1.0205946144109052e-02  2.4383066659943380e-02 -5.2825069965774872e-02 -2.5590244331923393e-02  2.5388530615536916e-02 -5.5760785169364030e-02 -3.2141958017333487e-02  2.3872706352498062e-02 -5.4653975051096100e-02 -2.4327625916701547e-02  2.3208550093409663e-02 -5.2610800851302077e-02 -2.2145208687256397e-02  2.5281151704392522e-02 -5.4314933222400330e-02 -2.8602061930640462e-02  2.3796413972146616e-02 -5.0790017848614984e-02 -2.3426939726238206e-02  2.2499853885180037e-02 -5.1573662615129010e-02 -1.9866175022372264e-02  2.5064171508272039e-02 -5.3757010270275296e-02 -2.5253978349529690e-02  2.3108750841666373e-02 -4.9683410490420264e-02 -2.1184098928763811e-02  2.1816862017168020e-02 -5.1224986817847075e-02 -1.7618591137700815e-02  2.4812961174097654e-02 -5.3870056170698538e-02 -2.2065987317219243e-02  2.2401879108269539e-02 -4.9217500140300199e-02 -1.8940881856599385e-02  2.1186310921035047e-02 -5.1364927769889906e-02 -1.5448945765285542e-02  3.0451519783078800e-02 -7.1423424223603718e-02 -3.0233996326593536e-02  2.3878744971765200e-02 -5.6919302202615020e-02 -2.6453938629075548e-02  2.5316360145578719e-02 -6.0602571631456228e-02 -3.6522602814646463e-02  2.5307174680526373e-02 -6.0414810081624776e-02 -3.1749777639314941e-02  2.3225505238775583e-02 -5.5299728900202488e-02 -2.3464806153441483e-02  2.5414966140617411e-02 -6.0996995743841147e-02 -2.7703121430697374e-02  2.2711527780695275e-02 -5.4757169465858575e-02 -2.0645270296090083e-02  2.5632572084884047e-02 -6.2151123341938300e-02 -2.3986657591580907e-02  2.2314341942640408e-02 -5.4889207831147133e-02 -1.7975675940021890e-02  2.5970106135689997e-02 -6.3744971585893567e-02 -2.0447061469723020e-02  2.2041740925996756e-02 -5.5493396209193017e-02 -1.5422655520267167e-02  2.6428288588214190e-02 -6.5693143999803555e-02 -1.7003619746753507e-02  2.1901914474964812e-02 -5.6446602899808740e-02 -1.2960394731690014e-02  2.7013083569753155e-02 -6.7935188818549444e-02 -1.3611061724072606e-02  2.1901682862593835e-02 -5.7659651165673301e-02 -1.0565762728986041e-02  1.9287721012430630e-02 -6.5821048440311558e-02 -1.3176091449364548e-02  1.8319300608458166e-02 -6.3796122596961755e-02 -1.2272545060153326e-02  1.7494033873284503e-02 -6.2335628782122426e-02 -1.1481083402611725e-02  1.6756864933161777e-02 -6.1414411597399743e-02 -1.0769287230159076e-02  1.6086805832927591e-02 -6.0961571913558936e-02 -1.0151254113091521e-02  1.5464344424670585e-02 -6.0930436612273361e-02 -9.6498361679481035e-03  1.4874649702946371e-02 -6.1316677962728987e-02 -9.2934682994950304e-03  2.2154495581670017e-02 -6.2316498156997781e-02 -2.7177166952739088e-02  2.1085930622046035e-02 -6.3790908458661172e-02 -2.6154427809908194e-02  2.0472055940022448e-02 -6.3132084141164058e-02 -1.7979006641458788e-02  1.9606421730097953e-02 -6.1139655758019718e-02 -1.6420500116817158e-02  2.0685304220950374e-02 -6.2441907864424551e-02 -2.3186080258588933e-02  2.1540314121913842e-02 -6.0938460345350422e-02 -2.4056876548837314e-02  1.8871100236593455e-02 -5.9870465659324017e-02 -1.4929097804072528e-02  2.0424635427237915e-02 -6.1768311768662126e-02 -2.0548751483229488e-02  2.1133294704411092e-02 -6.0247899005938653e-02 -2.1237179891570424e-02  1.8252362502292480e-02 -5.9173839609807127e-02 -1.3554246269970703e-02  2.0284437877401196e-02 -6.1618309922282621e-02 -1.8136310860297454e-02  2.0888861789961122e-02 -6.0118901496570357e-02 -1.8654212768544447e-02  1.7739864304027589e-02 -5.8956723967294095e-02 -1.2306087065564020e-02  2.0254181479748491e-02 -6.1926466871909863e-02 -1.5891216306895765e-02  2.0791390309813359e-02 -6.0460036840892843e-02 -1.6248438577309673e-02  1.7328834213816743e-02 -5.9169829211879743e-02 -1.1195640914274869e-02  2.0329531393060322e-02 -6.2661560234372360e-02 -1.3780608061633589e-02  2.0842141177878838e-02 -6.1220990538840760e-02 -1.3981385422994624e-02  1.7022660635770022e-02 -5.9793483962246666e-02 -1.0237009007062084e-02  2.0501569000189002e-02 -6.3789598046107024e-02 -1.1780417696279024e-02  2.1059570141395367e-02 -6.2407181063133317e-02 -1.1830559156300843e-02  2.1437431300343843e-02 -6.1146693219715546e-02 -1.8554180411930399e-02  2.0295807776222280e-02 -5.9145210666163635e-02 -1.6974981385118347e-02  1.9424516355741724e-02 -5.7973416258937614e-02 -1.5425414280189105e-02  1.8709734816868821e-02 -5.7372505485246472e-02 -1.3972008062684707e-02  1.8136100165868599e-02 -5.7249223376296302e-02 -1.2632927307579115e-02  1.7707337861129262e-02 -5.7552896536089970e-02 -1.1426468142908021e-02  1.7445536855869918e-02 -5.8247237090774714e-02 -1.0364303532364075e-02  1.6758517853670437e-02 -7.6610686751434301e-02 -3.5247454641335404e-04  1.5327113731419506e-02 -7.4712713579792173e-02 -1.1157695518560699e-03  1.4108864277117735e-02 -7.3255571808049730e-02 -1.8149884823471939e-03  1.2993348356028793e-02 -7.2195937697158513e-02 -2.5185048476047455e-03  1.1934318572638611e-02 -7.1492024208695021e-02 -3.2714654112795181e-03  1.0890161239873080e-02 -7.1106369042789885e-02 -4.1190829473123176e-03  9.8284697140287799e-03 -7.1022619102288922e-02 -5.0987643305478005e-03  2.3973070539731821e-02 -6.7154541058531136e-02 -4.5297638982599524e-02  2.2964062809524025e-02 -6.8728126867510009e-02 -4.6408922459797795e-02  2.2141231401553059e-02 -6.5347911252623694e-02 -3.5633092649363790e-02  2.2237592561700832e-02 -6.4957621693208373e-02 -3.1446925431520015e-02  2.3602723670040782e-02 -6.9523697250559596e-02 -4.1549441862293875e-02  2.4407676462422607e-02 -6.7989836652945279e-02 -4.0299238365857797e-02  2.2421415818699140e-02 -6.5045043242071970e-02 -2.7789964581597656e-02  2.4958217162750890e-02 -5.7649624968489806e-02 -3.1834609922510061e-02  2.4859731533594418e-02 -5.6408057385376166e-02 -2.7918247161997051e-02  2.4710685692141413e-02 -5.6285758442519804e-02 -2.4411734479871189e-02  2.4603280915807615e-02 -5.6798303267225153e-02 -2.1125436605634606e-02  2.4562876169494808e-02 -5.7773202106705321e-02 -1.7974462254813084e-02  2.4589685091372666e-02 -5.9111076700231836e-02 -1.4920218892655893e-02  2.4667926747205953e-02 -6.0733707522595694e-02 -1.1936678885236104e-02  1.7392210768130571e-02 -7.6160821166406531e-02 3.7263318500547972e-03  1.5706861546375149e-02 -7.4602804209894680e-02 1.9319001529667721e-03  1.4163595232655037e-02 -7.3469511968523638e-02 4.4166215761599187e-04  1.2699169685223125e-02 -7.270870