<?xml version="1.0"?>
<VTKFile type="UnstructuredGrid"  version="0.1"  >
<UnstructuredGrid>
<Piece  NumberOfPoints="722" NumberOfCells="3050">
<Points>
<DataArray  type="Float64"  NumberOfComponents="3"  format="ascii">2.957001636327565 3.331464299290024 0.8767269349677969  3.000783051010208 3.203750655107275 0.8586236765208732  2.848678121822029 3.232114494871337 0.8452472430537005  2.857653399636142 3.246843115139344 0.7637935884590156  3.008495329447965 3.217730855008415 0.7779449422406489  2.966693089353639 3.357122527119087 0.7969178277083777  3.016318687133043 3.231583663261269 0.697305292967204  2.97646910383617 3.382677897146618 0.7171308110907721  2.86674365385331 3.261471793296028 0.6823814850302772  3.024186229212587 3.245349515690334 0.616716279312635  2.986264668262604 3.408172793999967 0.6373837911253138  2.875863346783012 3.276039587134662 0.6009982413899518  3.032032370221103 3.259059408714159 0.5361692109227219  2.996025743456513 3.433630544943798 0.5576667999905613  2.884955814270927 3.290574848554593 0.5196398368130033  2.893988823529623 3.305078871276485 0.4382831891948534  3.039802890805909 3.272749808800531 0.4556526946537864  3.005731862640629 3.459059125448225 0.477956497781009  2.902965431132187 3.319562493550493 0.356894677791182  3.047469798035703 3.286451828473374 0.3751288311689135  3.015389660924009 3.484455570802974 0.3982183808653313  3.255515279679896 3.253211069252856 0.3820969109535029  3.1791532223454 3.054785109149623 0.3794269044351742  3.266273750766088 3.075467507039201 0.3708576807786728  3.179265274461393 3.051756441736649 0.458180046726125  2.118907520557077 2.67724748322519 0.8470006506761207  2.19583443823808 2.573452765945556 0.8991103911558596  2.070273019548794 2.52343715427923 0.9166980903556573  2.077208127614695 2.491681784506147 0.8542569484135906  2.199429290588021 2.542699787354559 0.8345041951557164  2.125450536385045 2.650552308857423 0.7783874443569118  2.084228372063889 2.459929441115712 0.7918101052519506  2.203073756797999 2.511930167632984 0.7699022569415455  2.132047484966462 2.623860374521235 0.7097680158711294  2.091309696443829 2.42817191462057 0.7293444567480498  2.206762393153269 2.481146284019566 0.7052953530345101  2.138688240551299 2.597153223454984 0.6411420388328762  2.098405878253355 2.396382824226297 0.666863726493951  2.210460526711067 2.450332908175924 0.6406866359196753  2.145338057588504 2.570416921211812 0.5725093020396307  2.2141432702173 2.41947260597458 0.5760881894727927  2.151975161561757 2.54363072963142 0.5038786083698077  2.105480523071096 2.364531772707808 0.6043832905397021  2.217814273094299 2.388573858465132 0.511499864372764  2.158591598856997 2.516787160055554 0.4352473389606409  2.112496061153375 2.332621344659554 0.5419222933460909  1.967923772750005 2.765259219687525 0.8005168680356354  2.088494630778945 2.838099868570146 0.7939117251041017  2.095955383625021 2.820162101872163 0.719507816543224  1.976665887136422 2.742878418031831 0.7289333607915079  2.103441356502187 2.802237931292414 0.645075726115541  1.98542861779578 2.720535438997742 0.6573152808281676  2.110953053519659 2.78430287852431 0.570628280322389  1.994218609883174 2.69819201673198 0.5856795647068795  2.118481190863415 2.766331090302081 0.4961738402504334  2.003022165301376 2.675815681469836 0.5140398854337139  2.126009185574161 2.748307128374866 0.4217093191176032  2.011830125236649 2.653378704013409 0.442406411488836  2.133527311181422 2.730214363815299 0.3472312025938356  2.020639779157163 2.630865880494651 0.3707713310798063  2.542116427993332 3.005293433471897 0.804925745310703  2.686165934355897 2.95470857258614 0.8194821543002921  2.592735726966057 2.868687383456193 0.820172682528268  2.597082943383878 2.855099358098035 0.7434900698070946  2.691612761764322 2.948955439519786 0.7406696470838889  2.548109162980375 3.0001671555838 0.7250488582192478  2.554201336598476 2.995002801738392 0.6451685897403886  2.697192253813117 2.943151885448774 0.6618666623993925  2.601539341657705 2.841474196076519 0.6668132593609976  2.560337392716307 2.989818087714738 0.5652817527595129  2.702829498106638 2.937316647511996 0.5830730705873266  2.606038012705068 2.827825086667584 0.5901465285543023  2.566475826221459 2.984609672695038 0.4853864211059324  2.70846170622523 2.931467615583265 0.5042867848359569  2.610529708704795 2.814157887503261 0.5134855717446914  2.614981241621973 2.800458161733081 0.4368224269558254  2.714046827421115 2.925599325863438 0.4254979723462211  2.572586771782732 2.979367562140797 0.4054688856554479  2.61936227896052 2.786716924298234 0.3601404431295215  2.719547442187174 2.919696136804033 0.3466855159553062  2.578637439656131 2.97407792433878 0.3255179385113581  2.012952364254797 2.530234923718383 0.6589712844477592  2.021670651642575 2.50107314087028 0.592874441712404  2.030372460250682 2.471850019459769 0.5267842947139179  2.03903991811308 2.442557603954822 0.4607045692196943  2.93422248174319 2.8144810387701 0.8552243223230117  2.948279754414577 2.962251065999844 0.8390889022246154  3.056526270064895 2.849641053571059 0.8571012579842974  3.058986503275746 2.837731452774838 0.7821090956679305  2.954450067213738 2.956944039560175 0.761007523744898  2.939303657046851 2.79979263557812 0.78107654382325  3.06159654502813 2.825753367358871 0.7071908537896656  2.960757608837134 2.951526522388404 0.6829833238174864  2.94455580559154 2.785033124340665 0.7069876609718385  3.064309962648716 2.813710741698061 0.6323388796569789  2.967157939943943 2.946055316548467 0.6050024635543629  2.949894918304975 2.770227197795933 0.6329537609843983  3.067043546528907 2.801636058739057 0.5575478262983415  2.973570457453079 2.94055524131775 0.5270605737482754  2.955235830106217 2.755397759213162 0.5589725420375198  3.069704949598969 2.789557703827653 0.4828150615063349  2.979912144986157 2.935047000425173 0.4491524548075777  2.960488457063422 2.740564243864346 0.4850409786942974  3.072169171354697 2.777509266668471 0.4081280080624444  2.986086255977259 2.929562167490126 0.3712539220466072  2.96553794227571 2.725744018273608 0.411136471447327  2.790926747716047 3.013373282546496 0.8231970363329231  2.749370161336677 3.153482695727184 0.8240250057995123  2.899884046913705 3.108676198226945 0.8306121618723653  2.907415026942874 3.114539928295125 0.7497446568307314  2.757031438255296 3.161546904420678 0.7423481226390695  2.797569373580768 3.011375672372215 0.7434478477108369  2.915069933628118 3.12029213298369 0.6689331811194339  2.764802503208641 3.169526142845442 0.6606959627885  2.804337620421698 3.00928863290666 0.6637426851388516  2.92276579761273 3.125975265488651 0.5881670615812515  2.772610504854423 3.177457597555486 0.5790684418668359  2.811171168086423 3.007160161323738 0.584060574411752  2.930443762081603 3.13162301536264 0.5074286223238713  2.780393945509186 3.185360128746586 0.4974552133635891  2.818005569503782 3.005013600377315 0.5043942692899374  2.938061528463442 3.137270703473311 0.4267051763623613  2.788133561900647 3.193239348765506 0.4158354873479624  2.824779231435084 3.002860865276143 0.4247343450378809  2.945573598461923 3.142918792011202 0.345975729293585  2.795815970419378 3.20109231566196 0.3341898009620735  2.831443174914871 3.000695319839487 0.3450566316451056  2.945813963315397 2.508144605683517 0.9545868036382249  3.068609572766618 2.58716248999641 0.925847588420993  3.050616718296668 2.441083396685614 0.9815416073398102  3.051247893824512 2.415125278033596 0.9198613242402632  3.06920265805046 2.563502895274975 0.8598128992406215  2.947481464342433 2.482594018331299 0.8907842811708718  3.052029679409712 2.38918681076533 0.8582396815134375  3.069936199211709 2.539829914776534 0.7938488387127899  2.949309933719829 2.45703567474782 0.8270325372609372  3.052879959667239 2.363247008069478 0.7966837811011951  3.070752962043848 2.516134246876488 0.7279680363186785  2.951208744454076 2.431462994249802 0.7633379278151226  3.053719011560305 2.337300758216331 0.7351902549636242  3.071569141442563 2.492425200713045 0.6621593881376506  2.953095919308924 2.405878431657643 0.6996968713177082  3.054461381248319 2.311344573609191 0.6737681391638866  3.072295259139741 2.468715296504022 0.5964244706061711  2.954888069492155 2.38027871219843 0.6361086000286719  3.054987225268476 2.285368128401089 0.6124262127542267  3.072816511995593 2.445022440519526 0.5307709138638355  2.95646935382281 2.354660679764216 0.5725731309858041  2.802931475036309 3.350017311218497 0.8661165391699234  2.811694316855128 3.378584919351408 0.7865610980989155  2.820547625696001 3.407082528230382 0.7070307614651639  2.829414494376054 3.435545108037739 0.6275231943485352  2.838260688803335 3.463976275541941 0.5480230834590482  2.847072617622363 3.492369869112246 0.4685051527922555  2.855833770822368 3.520717776795963 0.3889548789974635  3.161394881483113 3.248717596349797 0.3777879388355356  3.157322423823767 3.23603679064496 0.4579790727244445  3.035813306468734 2.722149859565328 0.884573205745471  3.03816080512545 2.703644923741594 0.8137115941038704  3.040657801024392 2.68510135499008 0.742939350453118  3.043249268967592 2.66651078918751 0.6722368593942244  3.045853683115141 2.647895266445072 0.601600344818324  3.048382262678484 2.629275989390866 0.5310275008573937  3.05070770543246 2.610690576510792 0.4605329631930674  3.041430658581283 3.072410431112931 0.8425596600008711  3.047752466713514 3.076223677988986 0.7626061559896806  3.054202226958476 3.079898429724063 0.6827447548049258  3.060701598629023 3.08347822670396 0.6029376709568939  3.067208979765839 3.08701711943869 0.5231735271052153  3.073658247759944 3.090553537163716 0.4434489935203938  3.079951147661846 3.094110447762663 0.3637372596911372  2.93404360585803 2.284923708610853 0.9089593426763549  2.789815496665728 2.258435538669014 0.9199171254971977  2.834379098853268 2.147825860753317 0.9735850551530009  2.790045732965662 2.28587090427913 0.9790599050564061  2.93465979793192 2.258318078335722 0.8496024521346129  2.78
[...]
<PointData  Vectors="f_24"> 
<DataArray  type="Float64"  Name="f_24"  NumberOfComponents="3" format="ascii">3.1703211951665353e-02 -2.7361556374511414e-02 2.9001662651208536e-02  3.2316739594845385e-02 -2.8946682782146366e-02 2.2388751370666853e-02  3.3173216491922196e-02 -2.8349231124571651e-02 2.1161775824965132e-02  3.4336761529473132e-02 -2.5851910045708800e-02 2.2544370694008879e-02  3.3422850790377601e-02 -2.6381625500700962e-02 2.3881001014774594e-02  3.2666184083384758e-02 -2.5803964035648764e-02 2.9828228821003881e-02  3.4428675503908671e-02 -2.4109704668817355e-02 2.4702381081644055e-02  3.3650621951523796e-02 -2.4165518695407059e-02 3.0239898162811911e-02  3.5515801781275183e-02 -2.3508661257651556e-02 2.3298978518743029e-02  3.5566616409096620e-02 -2.1446162254116222e-02 2.5193598444443157e-02  3.4688947256595729e-02 -2.2295568630162240e-02 3.0440170673202326e-02  3.6695960737085406e-02 -2.0814971759123509e-02 2.3710158116231790e-02  3.6764820640364300e-02 -1.8502362257537989e-02 2.5360919308567379e-02  3.5809970934799762e-02 -2.0271195590402545e-02 3.0365723336775438e-02  3.7937160988896317e-02 -1.7859462497273382e-02 2.3810167316762606e-02  3.9351346342696991e-02 -1.4686107199140878e-02 2.3452771010355554e-02  3.8139210849062147e-02 -1.5330703527504527e-02 2.5017949030725704e-02  3.7110946672152513e-02 -1.8063431276093059e-02 2.9805612155055776e-02  4.1001846786822727e-02 -1.1315734826608118e-02 2.2737661887572796e-02  3.9807771784583453e-02 -1.1941531893779720e-02 2.4204981748178075e-02  3.8667242286166255e-02 -1.5755915485500361e-02 2.8921542257210390e-02  3.7692505210095859e-02 -1.2122064676024856e-02 2.6687761607206609e-02  3.9910976576759939e-02 -8.8208139885946005e-03 1.5614320268644084e-02  3.8943838680837846e-02 -8.8260560051964723e-03 1.8400024229870353e-02  3.8412389759093939e-02 -1.3344836964826502e-02 1.6633803084526277e-02  4.1980225720383298e-02 -4.3221299219330135e-02 -3.9309701768281621e-02  4.1360740154770856e-02 -4.9929379877552173e-02 -4.9750382447816460e-02  4.2831132566273050e-02 -5.2615597340393810e-02 -5.5972850532009497e-02  4.3325579673904761e-02 -4.6944604731116134e-02 -5.8124381835263396e-02  4.2185764336922157e-02 -4.4193278922681843e-02 -5.1687756952353676e-02  4.2739449160870954e-02 -3.7565283817738999e-02 -4.0676199554118740e-02  4.3807294560338571e-02 -4.2841100198000456e-02 -5.9725049640902507e-02  4.2927617015303766e-02 -4.0048856847843255e-02 -5.3190736130195565e-02  4.3415918912838844e-02 -3.3335617322103592e-02 -4.1819558164923054e-02  4.4229305830700318e-02 -3.9018501876641069e-02 -6.1170971035650668e-02  4.3626803126210957e-02 -3.6001536915087284e-02 -5.4611011187480546e-02  4.4058197675774777e-02 -2.8959065255963350e-02 -4.2986590380842161e-02  4.4640468286768056e-02 -3.4307546086526391e-02 -6.2814101890398419e-02  4.4285794874548617e-02 -3.0881830134638456e-02 -5.6303433871254076e-02  4.4718248377756752e-02 -2.3596158975416389e-02 -4.4409516373704619e-02  4.4949893923884376e-02 -2.4771764198277903e-02 -5.8296438471556432e-02  4.5430944104644572e-02 -1.7429480693895924e-02 -4.6129275920576293e-02  4.5066043381037826e-02 -2.8482440923590827e-02 -6.4745366804897009e-02  4.5661449319764277e-02 -1.8087256294793616e-02 -6.0523197142692199e-02  4.6191206817851042e-02 -1.0795771085105524e-02 -4.8121312600165174e-02  4.5487628134320751e-02 -2.2026087600548763e-02 -6.6862416358110840e-02  4.3378779601056870e-02 -3.7612508382262648e-02 -3.1558976916540672e-02  4.2042042963577657e-02 -3.5341682846448799e-02 -2.3141382131155980e-02  4.2743622802662216e-02 -3.0039140696110096e-02 -2.3551881402138861e-02  4.3872694940669241e-02 -3.2138428119787316e-02 -3.2361707264522803e-02  4.3400286229759569e-02 -2.5892469554008909e-02 -2.4076892764171874e-02  4.4328786649258212e-02 -2.7949864525013822e-02 -3.3143106780870089e-02  4.4086751083154310e-02 -2.1391209869460637e-02 -2.4723837289749827e-02  4.4796925041013097e-02 -2.3534882687472558e-02 -3.4034290499730405e-02  4.4848945030313357e-02 -1.6110042524940252e-02 -2.5584703109123599e-02  4.5368357445764680e-02 -1.8272104708746760e-02 -3.5151245454710850e-02  4.5700203260468773e-02 -1.0256853066006367e-02 -2.6741792931948779e-02  4.6035135662403588e-02 -1.2346947533543394e-02 -3.6565177134363143e-02  4.6614729724080123e-02 -4.0388089505462785e-03 -2.8191242443349526e-02  4.6738062063615714e-02 -6.0234798349045613e-03 -3.8256709837985889e-02  3.6927186263275333e-02 -3.1728194146372762e-02 -9.4314771791854555e-04  3.5984622587430050e-02 -3.3124484252480602e-02 -2.5439200474962932e-03  3.7150204631155620e-02 -3.5205110602351576e-02 -1.1872347729224641e-02  3.8527987761215236e-02 -3.0252040353084254e-02 -1.2013480370966414e-02  3.7360438744010162e-02 -2.8454955606394189e-02 -1.8170459261021555e-03  3.8301860973298879e-02 -2.7207241178864368e-02 -3.2173842534927009e-04  3.9557045918087744e-02 -2.3475356220159230e-02 -1.1507747552893479e-04  3.8650634931937683e-02 -2.4664817001206128e-02 -1.5226581319806862e-03  3.9810507929233171e-02 -2.6215756748263416e-02 -1.2345622165076208e-02  4.0797490582815447e-02 -1.9300143258188195e-02 -1.3787304596166384e-04  3.9949599325705853e-02 -2.0412847327309250e-02 -1.4980066531558572e-03  4.1087414989876406e-02 -2.1675693958888787e-02 -1.2832554637085103e-02  4.2065671874690271e-02 -1.4555709911177359e-02 -3.9044896115752716e-04  4.1294823490840106e-02 -1.5547244151118758e-02 -1.7198230086712481e-03  4.2377395295265061e-02 -1.6341884575513194e-02 -1.3545108288840936e-02  4.3736354648008548e-02 -1.0523034758209265e-02 -1.4586960252559423e-02  4.2726786726817269e-02 -1.0292421770660557e-02 -2.3174702177456148e-03  4.3394760492772994e-02 -9.4631115214014964e-03 -1.0031639665009251e-03  4.5229559132139913e-02 -4.3596502251008378e-03 -1.5918866689792921e-02  4.4326535861229539e-02 -4.7328363582999911e-03 -3.2792290657268444e-03  4.4851401154600332e-02 -4.0820968025719728e-03 -1.9545419130164994e-03  4.4751692659732431e-02 -3.1572353919712165e-02 -5.0755247889261737e-02  4.5162387633953353e-02 -2.6441760928590768e-02 -5.2322459241355555e-02  4.5649164690989730e-02 -2.0456706022300510e-02 -5.4167937576521309e-02  4.6137619417767901e-02 -1.3956889681211313e-02 -5.6259066401118052e-02  3.4671543226813893e-02 -3.7226928782564228e-02 -9.7954613298273981e-03  3.4073240185532462e-02 -3.3097643801223459e-02 4.1073463444313172e-03  3.3650067124594493e-02 -3.6141032407971077e-02 -3.5007512842647232e-03  3.4830371993058100e-02 -3.1559309468689144e-02 -3.5205043634370949e-03  3.5307312900273391e-02 -2.8834283975032786e-02 4.7932229357608314e-03  3.5869505017319760e-02 -3.2466439065725154e-02 -9.9680613629835099e-03  3.6048575456578212e-02 -2.7897832514043926e-02 -3.7484586386257019e-03  3.6506589239981610e-02 -2.5358605063637827e-02 5.0073147523001004e-03  3.7106179041355179e-02 -2.8694292342658009e-02 -1.0314023042768673e-02  3.7423261019084074e-02 -2.3756704826495518e-02 -4.1088410945509593e-03  3.7817384365148241e-02 -2.1373988909810255e-02 4.9974952197271213e-03  3.8454514295956720e-02 -2.4412709110866907e-02 -1.0799178918039561e-02  3.8868800076312507e-02 -1.8798269024915385e-02 -4.6932879282172513e-03  3.9213361483375946e-02 -1.6764445656291364e-02 4.7525904133551705e-03  3.9877288670510644e-02 -1.9223170179793900e-02 -1.1518142590431088e-02  4.0418733352593085e-02 -1.3288506684079099e-02 -5.6694246286070702e-03  4.0736640957403127e-02 -1.1757813285071556e-02 4.0907549508275914e-03  4.1431073056051503e-02 -1.3442160025581205e-02 -1.2603910178518994e-02  4.2146268765963099e-02 -7.3943195713013768e-03 -7.0633569140418932e-03  4.2530123809285440e-02 -6.4175838129983684e-03 3.0321761917362950e-03  4.3174180379177536e-02 -7.2714287184286620e-03 -1.4044850030872904e-02  3.4863014263232725e-02 -3.1716489027505353e-02 4.8986762362066786e-03  3.4418716736983476e-02 -2.9210779096407569e-02 1.4531773664768601e-02  3.3678432966722981e-02 -2.9913493497496918e-02 1.5044927087919765e-02  3.4911336388603227e-02 -2.6618717080313006e-02 1.5992074048956775e-02  3.5696067471173501e-02 -2.5948729251056533e-02 1.5724225816266695e-02  3.6244787813216849e-02 -2.7589920926164347e-02 5.7439998085117225e-03  3.6108412582540099e-02 -2.3625342536652678e-02 1.6447675645001554e-02  3.6986729554115076e-02 -2.3051937504867722e-02 1.6348467185625468e-02  3.7530772361731676e-02 -2.4085727480563611e-02 6.1174401861941140e-03  3.7367715646784726e-02 -2.0189431411863683e-02 1.6710638013453218e-02  3.8255000566195352e-02 -1.9741528260867537e-02 1.6694527439267637e-02  3.8843919713500541e-02 -2.0122581663850336e-02 6.2454730552809140e-03  3.8692939766713605e-02 -1.6377357287493621e-02 1.6727986662863448e-02  3.9552482931739900e-02 -1.6095647296079860e-02 1.6761179572004688e-02  4.0208978795166120e-02 -1.5625445917209255e-02 6.1204706753055747e-03  4.0198030173059687e-02 -1.2307298848063825e-02 1.6308628519464453e-02  4.0996242976855897e-02 -1.2205467458838267e-02 1.6408870375037875e-02  4.1706009573515411e-02 -1.0796552822054675e-02 5.5964556953328921e-03  4.1947133522433164e-02 -7.9850314204599187e-03 1.5549276545842705e-02  4.2623385017361730e-02 -8.0819538917628417e-03 1.5740420218698408e-02  4.3405472582266798e-02 -5.6719220364431404e-03 4.7235673083549333e-03  3.3765654341119722e-02 -5.2706850312867808e-02 -4.2947588680425315e-02  3.2600515631082343e-02 -4.7947694916328304e-02 -3.1174320362059957e-02  3.1983443528832672e-02 -5.5924350036443485e-02 -4.7439940658076225e-02  3.3523459241399788e-02 -5.0650057509585018e-02 -4.9035854443450190e-02  3.4140953762404322e-02 -4.2585167562153393e-02 -3.2383917746171602e-02  3.5117411582846814e-02 -4.7250528803302431e-02 -4.4380832688455898e-02  3.4948295517792639e-02 -4.7083003819727229e-02 -5.0175284984448933e-02  3.5524934757706239e-02 -3.8855259000719476e-02 -3.3335788036190278e-02  3.6382525768169763e-02 -4.3539708354220129e-02 -4.5426621827142653e-02  3.6399163736266150e-02 -4.3791615493670964e-02 -5.1162269515059540e-02  3.6978297152683810e-02 -3.5045195668484436e-02 -3.4285576512259906e-02  3.7751347309865284e-02 -3.9966115794403706e-02 -4.6398149894568953e-02  3.7910068394079642e-02 -3.9399900050003614e-02 -5.2347034446361643e-02  3.8507024713235506e-02 -3.0052203048849431e-02 -3.5489359351240528e-02  3.9185923914718694e-02 -3.5230279208363323e-02 -4.7617761999888687e-02  3.9510696049343652e-02 -3.3611367528586789e-02 -5.3798229340130642e-02  4.0107118682902919e-02 -2.3993607575604491e-02 -3.7043477974248298e-02  4.0690871301295999e-02 -2.9144433734613354e-02 -4.9155840877605952e-02  4.1142715916671464e-02 -2.7146494759032004e-02 -5.5374863437979038e-02  4.1784365804223830e-02 -1.7392417559160087e-02 -3.8893882398061540e-02  4.2250823964164290e-02 -2.2481919927345679e-02 -5.0899505608088952e-02  3.2851326444202751e-02 -2.6947272529816046e-02 2.6795924859023892e-02  3.3889045014885370e-02 -2.5339873641953441e-02 2.7856922773268136e-02  3.4932281017958366e-02 -2.3704540841365158e-02 2.8370508854154791e-02  3.5998263720705137e-02 -2.1855730014058387e-02 2.8619477810025992e-02  3.7132080192242796e-02 -1.9853798449260607e-02 2.8576390297974000e-02  3.8414810411698037e-02 -1.7674084821194352e-02 2.8076848088102166e-02  3.9859536575297012e-02 -1.5361743451700509e-02 2.7294638213664728e-02  3.8927065274156313e-02 -1.1691138990662035e-02 2.4817140788220941e-02  3.7400541273651236e-02 -1.5188133034231470e-02 2.5741359368750723e-02  3.3630250181731498e-02 -4.1339059360149207e-02 -1.7256614293974466e-02  3.4904832425485061e-02 -3.6184626232055657e-02 -1.7815011713152341e-02  3.6183390883483706e-02 -3.2408063638459203e-02 -1.8359908423932647e-02  3.7589694151988554e-02 -2.8273057107299378e-02 -1.9016266962966447e-02  3.9064345010105590e-02 -2.3099613632232677e-02 -1.9909555583300084e-02  4.0629781803547468e-02 -1.7140163120580768e-02 -2.1185073616731290e-02  4.2331311298400495e-02 -1.0737868447220964e-02 -2.2852218466309276e-02  3.2834564974622872e-02 -3.0724878583892695e-02 1.5486102617681836e-02  3.4046097926112434e-02 -2.7317235987609802e-02 1.6303373758405203e-02  3.5188239865887198e-02 -2.4300929185859313e-02 1.6735195788959056e-02  3.6445819932992375e-02 -2.0861098621808873e-02 1.6997236129413871e-02  3.7754958663188634e-02 -1.6984821736761437e-02 1.7016039916992114e-02  3.9213579776008090e-02 -1.2815583324672123e-02 1.6555934866619534e-02  4.0986109713777967e-02 -8.3666831399172876e-03 1.5714848673057339e-02  3.5516532479178485e-02 -5.3552597699519609e-02 -6.3923183773292661e-02  3.6880332147834177e-02 -5.5454139943447417e-02 -6.9946911757442914e-02  3.5632914709495936e-02 -6.0902143227528828e-02 -7.8366297600557619e-02  3.5640548174896841e-02 -5.8819985931081759e-02 -6.8682130991147894e-02  3.6884447598834420e-02 -5.0685118300026588e-02 -6.4846718302443873e-02  3.8131623317815069e-02 -5.2658646499368078e-02 -7.0882952886285100e-02  3.6926809683928724e-02 -5.8580700397226626e-02 -7.9036712301908965e-02  3.8300456259550530e-02 -4.6984779409853461e-02 -6.5863202299755494e-02  3.9464574388882789e-02 -4.9052317489862718e-02 -7.1904938606742977e-02  3.8254107139782445e-02 -5.5812966522808399e-02 -7.9651159936541829e-02  3.9773314019691364e-02 -4.1673641937363511e-02 -6.7026507216338446e-02  4.0758966404581466e-02 -4.3828134296411997e-02 -7.3058936839520569e-02  3.9615883766299556e-02 -5.1531168535542918e-02 -8.0165366391519277e-02  4.1271174980093521e-02 -3.5595115304071022e-02 -6.8136675924634113e-02  4.2118971317386254e-02 -3.7810361172997541e-02 -7.4131165651276809e-02  4.1016269601494681e-02 -4.6470953465411968e-02 -8.0353171883967303e-02  3.6004040826819281e-02 -1.6531839868153722e-02 3.2006041913058898e-02  3.5703800412638202e-02 -3.0181965282122216e-02 6.9078818006491080e-03  3.5461706272392479e-02 -2.8049846157402577e-02 1.5368185832738945e-02  3.6742845878028681e-02 -2.5058474169532066e-02 1.6558856488477221e-02  3.7070965052870344e-02 -2.6326203626100785e-02 7.6520914222388443e-03  3.7974489143992166e-02 -2.2336235437334505e-02 1.7149284899327363e-02  3.8395116086949774e-02 -2.2906624902533323e-02 7.9801997595093307e-03  3.9195395394314513e-02 -1.9230594545796679e-02 1.7473883463615940e-02  3.9687998641810301e-02 -1.9041743355406506e-02 8.1064749694911478e-03  4.0425616156504564e-02 -1.5833903569081490e-02 1.7537860720314435e-02  4.1000810212297845e-02 -1.4730299035973489e-02 8.0044566780498681e-03  4.1755172843340176e-02 -1.2193026230967104e-02 1.7205787644070106e-02  4.2424872455935812e-02 -1.0129181427102448e-02 7.5225419620158357e-03  4.3207892325716903e-02 -8.3160477217003419e-03 1.6563522026662583e-02  4.4007232189457700e-02 -5.2641607900854913e-03 6.7499539900439465e-03  3.3165442585069649e-02 -3.3161314572656447e-02 6.8681712508130094e-03  3.4302002085600823e-02 -2.9038642773399272e-02 7.5020888800841267e-03  3.5514812900763117e-02 -2.5643725127187253e-02 7.8017494996653241e-03  3.6830462402854418e-02 -2.1787504745682612e-02 7.8972301817989594e-03  3.8217848460999390e-02 -1.7320354570482338e-02 7.7511113348944349e-03  3.9692248829016362e-02 -1.2458412668050521e-02 7.1617950984258416e-03  4.1402504758158119e-02 -7.2412165461522180e-03 6.1163041517719010e-03  3.5233864667544267e-02 -3.4375877519557341e-02 -4.2856664540011705e-03  3.6596351435323783e-02 -2.9773559120181519e-02 -4.0773951186369277e-03  3.7895752313821328e-02 -2.5976672737547130e-02 -4.1215206839084976e-03  3.9221809370149109e-02 -2.1651493187589108e-02 -4.3480107657730520e-03  4.0623758379742997e-02 -1.6593281842610514e-02 -4.8033255371929436e-03  4.2146907857122773e-02 -1.1087012609291701e-02 -5.6267247957465681e-03  4.3878730585985799e-02 -5.2387210082992979e-03 -6.7500423988731077e-03  3.7389600551573372e-02 -5.4626874705151360e-02 -5.2601579854348067e-02  3.5950924978769616e-02 -5.9493429142599440e-02 -6.0042616295175065e-02  3.7123785247546844e-02 -6.2119313617054819e-02 -6.5943350130824502e-02  3.8305071983134813e-02 -5.6869987342077787e-02 -6.8139769516615545e-02  3.7272968658844663e-02 -5.4117872528035280e-02 -6.1938579948202198e-02  3.8664445580481384e-02 -4.8989718038656468e-02 -5.4491728468585958e-02  3.9349141880755847e-02 -5.3234173829488259e-02 -6.9659191252100641e-02  3.8424582533278621e-02 -5.0484309843304626e-02 -6.3257337831603047e-02  3.9816309985823348e-02 -4.5152951642389978e-02 -5.5912204793955533e-02  4.0418898842645941e-02 -5.0155341973266758e-02 -7.0860418677858514e-02  3.9626913794135958e-02 -4.7277096322952447e-02 -6.4349341649193481e-02  4.1006351000766189e-02 -4.1544963485321357e-02 -5.7212508717428633e-02  4.1538921403061986e-02 -4.6173731644356709e-02 -7.2195227522297706e-02  4.0885014515896288e-02 -4.3003646578220055e-02 -6.5648640399578809e-02  4.2166341981476771e-02 -3.6751545818155061e-02 -5.8785293110997797e-02  4.2530886696004598e-02 -4.0612820690359985e-02 -7.3749928636648740e-02  4.2074916958554399e-02 -3.7171380017207073e-02 -6.7205164444128732e-02  4.3247491343851252e-02 -3.0630914663342994e-02 -6.0693351215986298e-02  4.3644305232259539e-02 -3.4221409812152465e-02 -7.5339120108823945e-02  4.3350424188059004e-02 -3.0615553767756452e-02 -6.8836019235749973e-02  4.4456196369673170e-02 -2.3876488599773794e-02 -6.2807149616558339e-02  3.8210969775641916e-02 -3.3170480986442444e-02 -8.1154476109356489e-03  3.9461412453657183e-02 -2.8247135750942485e-02 -7.8056576896908102e-03  4.0651203273276988e-02 -2.4248428844069768e-02 -7.7865111034972363e-03  4.1800206217501842e-02 -1.9839845987429407e-02 -7.9746411844964418e-03  4.2974703773089276e-02 -1.4787889981024630e-02 -8.3885610029271820e-03  4.4195307485837269e-02 -9.3169104870708883e-03 -9.1411719822645961e-03  4.5526675653850213e-02 -3.5406322144504558e-03 -1.0217048769912923e-02  3.5881861282977691e-02 -2.1399075556404638e-02 9.5823163784485264e-03  3.5723009245254525e-02 -2.1420151556300237e-02 1.7070024924514239e-02  3.6632368450387885e-02 -2.2574664198171581e-02 2.9106360088553876e-03  3.4438451410570094e-02 -2.4829817696752462e-02 1.6778694857315327e-02  3.5206882439871523e-02 -2.6592138918217004e-02 3.2072798312551454e-03  3.7309376891995698e-02 -1.6912262347140553e-02 9.0758871173078053e-03  3.7034464483217101e-02 -1.7542888111337286e-02 1.7089574330438118e-02  3.8093727526429040e-02 -1.7820032526195569e-02 2.4042885287860064e-03  3.8734007159469203e-02 -1.2041577213368125e-02 8.1237475298821821e-03  3.9598229002291638e-02 -1.2611350092894750e-02 1.4674573229306359e-03  4.0186188589169239e-02 -6.8249010797341390e-03 6.7556428326765510e-03  4.1206736715442158e-02 -7.0234996400282699e-03 9.2767058575220671e-05  3.6059223478506798e-02 -2.4992610709193498e-02 -5.2148028916598511e-03  3.7591389980169851e-02 -2.0091799832217375e-02 -6.0391736110416731e-03  3.9134581786735921e-02 -1.4580357260082796e-02 -7.2679397299321730e-03  4.0734267023667788e-02 -8.6858395814870745e-03 -8.9371163816472868e-03  3.6478351320771665e-02 -5.2172915338488807e-02 -4.6380228319046909e-02  3.4643686729306573e-02 -5.6665433907349003e-02 -5.2718542354901081e-02  3.5989698412685803e-02 -5.1292300846232916e-02 -5.4391049965662200e-02  3.7778426374838150e-02 -4.6534343019924415e-02 -4.8010327611282648e-02  3.7203463633231383e-02 -4.7683784577846916e-02 -5.5599165370416967e-02  3.8954841059867032e-02 -4.2724820822344078e-02 -4.9290212642321647e-02  3.8508528333691172e-02 -4.4367611014109042e-02 -5.6650419202303473e-02  4.0229062546169217e-02 -3.9045926879917328e-02 -5.0525718080422020e-02  3.9864842683419013e-02 -3.9904158549147875e-02 -5.7940172039547648e-02  4.1500233429544134e-02 -3.4133749800882650e-02 -5.2059838992413746e-02  4.1241996697095808e-02 -3.3965662035385487e-02 -5.9505757404314609e-02  4.2731254270668921e-02 -2.7935554188503121e-02 -5.3923949750595029e-02  4.2673472111157407e-02 -2.7328418444339902e-02 -6.1197401737647664e-02  4.4086951230255730e-02 -2.1148959965329582e-02 -5.6018063421732725e-02  4.1424483893791900e-02 -2.6657080794225570e-02 3.6705733617568986e-03  4.0285386303649105e-02 -2.5825555116272811e-02 1.1336981557748742e-02  3.9647770153786212e-02 -2.7898013393973329e-02 5.3279952705459540e-03  4.0559934915318424e-02 -2.4219839671356064e-02 6.17499