<?xml version="1.0"?>
<VTKFile type="UnstructuredGrid"  version="0.1"  >
<UnstructuredGrid>
<Piece  NumberOfPoints="728" NumberOfCells="3071">
<Points>
<DataArray  type="Float64"  NumberOfComponents="3"  format="ascii">6.949025300832863 2.148934704219669 4.009460308013538  6.953242297392698 2.230818648089161 4.079134276677272  6.840548603505403 2.195966651224284 4.078369188363792  6.853797107646364 2.144614141909101 4.13616913794137  6.968440595340857 2.181696133461791 4.138666373911964  6.962459193140765 2.095847160035122 4.063408912862005  6.975892824984577 2.042740538375712 4.1173295978896  6.983647911386505 2.1325566036195 4.198187324176396  6.86704166919098 2.093251487005111 4.193967545714151  6.989328669135735 1.989622626886168 4.171225446339082  6.998859700580828 2.083404744363202 4.25769162696457  6.88028558151756 2.041878787024033 4.251748328678534  7.014076114083156 2.03423709849119 4.317173412077135  7.002766635179873 1.936492792709076 4.22509318562829  6.893533462701373 1.990491779094387 4.309503623882001  7.029295865758338 1.985046233184347 4.376629330066704  7.016205609519839 1.883349412916085 4.278928483159283  6.906787486342266 1.939083646017428 4.367228829953139  7.029636053218448 1.830191710544305 4.332734792544878  7.044506450149917 1.935824541590048 4.436068143588789  6.920050105230691 1.887652559784698 4.424927471909819  6.842992358081182 2.101419571757881 3.983187784407237  6.855767069224882 2.046652543483451 4.034164784633528  6.868544650698927 1.991864473932881 4.085115212216051  6.881324401233124 1.937065867891651 4.136042879022313  6.894107054609428 1.882255869079407 4.186942263584239  6.906892961973583 1.827430614749864 4.237808195199427  6.919674054496015 1.772582796932619 4.288637030372534  6.974422049318843 2.311847365581785 4.138837512747422  6.861931626456389 2.303505451026112 4.161317445545106  6.874893605471212 2.259532518812024 4.227848805036245  6.989933922203209 2.266194648489034 4.203181134517604  6.887830605280613 2.215551823896556 4.294386918682208  7.005447117551583 2.220529883223086 4.267522939638055  6.900761877239828 2.171560835828382 4.360909867773421  7.020962131704501 2.174854850874634 4.331851263240247  6.913701777363236 2.127551843494108 4.427409047761855  7.036483138416687 2.129163024216585 4.396159052618339  6.926660607186028 2.083516137628316 4.493881239585398  7.052009879637695 2.083446307984471 4.460444946317564  6.93964743316061 2.039444363060093 4.560327837488043  7.067517127657468 2.037684754994776 4.524701684151787  7.686916804285789 2.129964433137649 3.799462359446247  7.550445519329314 2.077109004268988 3.774878146956058  7.647583121758853 2.057936230471978 3.727687679096481  7.658203149323453 2.006027653829419 3.77210058849575  7.562504544736325 2.024856389312909 3.821388351384929  7.698333319531908 2.081358707112964 3.849206249880934  7.668859460050929 1.954119399719053 3.816465264624357  7.574607389939469 1.97259703899786 3.867845753109961  7.709789754609751 2.032754517218994 3.898897439611975  7.679518070777594 1.902211753787861 3.860788518465631  7.586715808499137 1.920334329063835 3.914262340116348  7.721250097088531 1.984149816350979 3.948541714347077  7.690147941979085 1.850301177341688 3.905076821599753  7.598801016640519 1.868066887192658 3.960644349339601  7.732677634166936 1.935541670170941 3.998147946055178  7.700717863536938 1.798380427998504 3.949337809279529  7.61083310386419 1.815789498955642 4.006998579748131  7.744034978089638 1.886926127951736 4.047723614809275  7.71119559409227 1.746439996323771 3.993575842617213  7.622766027780889 1.763493234403903 4.053331033045906  7.75529167992393 1.838300595247458 4.097274699153575  7.665599400010707 1.770748197618117 3.677297455831034  7.693217170877008 1.694690348542483 3.543295943786206  7.585707018961812 1.717811947558596 3.617819352238647  7.655733614963444 1.824188977875972 3.640419580473355  7.59524298294725 1.664199856018943 3.653257739195186  7.675437802602953 1.717309860962769 3.714142738604407  7.702276343657399 1.641982251024489 3.576748170453147  7.604735667133558 1.610579370211089 3.688667338678492  7.581747488311321 2.15673203039996 3.8467537865818  7.594501520067229 2.108630960862225 3.899610374728931  7.607299315668691 2.060523745140935 3.952416161784603  7.620105804888533 2.012408468313912 4.005179602428227  7.632887315496617 1.964284019762699 4.057908835423797  7.645610720888695 1.916144902268631 4.11061256142823  7.658239061010598 1.867989495722123 4.16330356512832  6.747403369618056 2.231719763465835 4.125912884635836  6.757621306129385 2.18409583479949 4.188795932022477  6.767796578393113 2.136465692750692 4.251686083489747  6.777960373699574 2.08882387181601 4.314564225261575  6.788131033022895 2.041164411115238 4.377417586182595  6.798323450539172 1.993479841210207 4.440241154979073  6.808557416967874 1.945767766989011 4.503036954281829  7.796429304382096 2.056519647023861 3.798484725677115  7.807407731361856 2.007533241943816 3.844894708787397  7.818390565240366 1.958554696360964 3.891254721310311  7.829336072686844 1.909579785600219 3.937572815890502  7.840201988000611 1.860602458595126 3.983858332803808  7.850952796628427 1.811606872343928 4.030121606751155  7.385211990638379 2.20940288976362 3.946381064226127  7.252211741336693 2.14270653200757 3.920745045461095  7.354530629732052 2.124468936645216 3.877529221480833  7.368170309584267 2.072773230026579 3.929449227936057  7.26664373255903 2.090333293999494 3.973376599829871  7.401513946700385 2.160035115563812 4.00218305547591  7.381844632788281 2.021060240468727 3.981323176007167  7.28110654976657 2.037935596922487 4.025969604926927  7.41787229049294 2.110642648070039 4.057934986683434  7.395527184145911 1.969338030040412 4.033160074034034  7.295579022862413 1.98552463481307 4.078530559362044  7.434247652985766 2.061239758749535 4.113651969114113  7.409197166501196 1.917606543723675 4.084966152041591  7.310045487867193 1.933103194034941 4.131062652165639  7.450611562986787 2.011826921772009 4.169340624387567  7.422833456768292 1.865860100829508 4.136747295221121  7.324491776432088 1.880665297275306 4.18357227414822  7.466934288913347 1.962399451084347 4.225008973900704  7.436401359624425 1.814088223098608 4.188512458489217  7.338908655320088 1.82819874620572 4.23606925835109  7.483165590811835 1.912943763107773 4.280678290511601  7.278191989759084 2.226860502184026 3.996528698929245  7.294493995333185 2.177830389987542 4.054653586826933  7.310829853010088 2.128775565513636 4.112737687386315  7.327175537615497 2.079709283994279 4.170788737510487  7.343513859878979 2.030632304538857 4.228812810795446  7.359828243750631 1.981541918390185 4.286816029705667  7.376111288461449 1.93242670976393 4.344815287698261  7.636034779419287 1.931083200563851 3.56654747501805  7.540567233102323 1.94881903137687 3.617643431226536  7.557045496458914 1.878659330945939 3.511291875171724  7.550706427200858 1.894766274355291 3.656513608246196  7.64586754498023 1.877634803100795 3.603504707081264  7.566584400664356 1.825042601119275 3.546842591869332  7.560872721272954 1.840708441344163 3.695339713145864  7.576147269605931 1.77142525756093 3.582349313785461  7.571038677481385 1.78665202714336 3.734127601352811  7.581182109459861 1.732594936038557 3.772882673364951  7.591281727691253 1.678528496521146 3.811609313284418  7.685221410192434 1.663866615091115 3.750958821035821  7.6013179715759 1.624441279432484 3.850307673715176  7.694918120039408 1.610403296444545 3.787747297520468  7.614171672172728 1.55694042112861 3.72404716800198  7.487569367647212 2.187101074942427 3.895656714560541  7.455218594642094 2.101692929622013 3.830038150766176  7.468217545727407 2.04993637676537 3.879721439113915  7.502287371055001 2.138912066429563 3.950237962420356  7.481258911890092 1.998168105444132 3.929350591215602  7.51706124122911 2.090705713348395 4.004766254368664  7.49430468766745 1.946395134490053 3.978937868881881  7.531849830960593 2.042488161413114 4.059256755306557  7.507330382068061 1.894615873123469 4.028490846116509  7.546621982844822 1.994259106531529 4.113716982163257  7.52030807384183 1.842826239794415 4.078014774348716  7.561346709380648 1.946011817723488 4.168157568177829  7.533195881778866 1.791021087132306 4.127522789128189  7.575975540285667 1.897736653187693 4.222597376666569  7.062550315128016 2.280232688922951 4.089958184997568  7.057735034468024 2.203284870941612 4.030288606772203  7.072480854270449 2.153253744374187 4.087817147001086  7.077978343007786 2.232375888800925 4.151168002014797  7.087236600551647 2.103198934238815 4.145319577170381  7.093414647462736 2.184497112543999 4.212365427404048  7.101997205026159 2.053129482788823 4.202799942528669  7.108856733857139 2.136603985587055 4.273546633680767  7.116759914305396 2.003045198493246 4.260256121927107  7.124301819368844 2.088695262559432 4.334707367850503  7.131521181265358 1.952942814814056 4.317687066714892  7.139746813661836 2.04076443973356 4.395846658386355  7.146271685457296 1.902824906141422 4.375095837895208  7.155186556536655 1.992802572984746 4.456966191146498  7.45278407537144 1.901623338704803 3.571458533002678  7.462402674821893 1.847027798249892 3.608694878896656  7.472035066490893 1.792423815998475 3.645886557988377  7.481665887005849 1.737817923261578 3.683042045372655  7.491279562567857 1.683208943241011 3.720166584504475  7.500859971391842 1.628591420326618 3.757262355479249  7.510386817171111 1.573955315084564 3.794329714251054  7.14260403647976 2.028273821518555 3.821463209635967  7.147797293994786 2.100886092349065 3.907144612244963  7.046696335708294 2.047977221775563 3.871037847765338  7.058755332179745 1.992414248704432 3.917761743151712  7.160909411338351 2.046460985379438 3.956863361776493  7.154563223919554 1.972477952627812 3.86659591892354  7.070817849769536 1.936832216981648 3.96444424656519  7.174033291130974 1.992015330432255 4.006543182717166  7.166531610561341 1.916663569207439 3.911685055528451  7.082884027029492 1.881239424914157 4.011094
[...]
<PointData  Vectors="f_24"> 
<DataArray  type="Float64"  Name="f_24"  NumberOfComponents="3" format="ascii">1.1601283933847931e-04 -6.5613385420121961e-02 -6.5647426513240096e-03  -2.3569029528467803e-03 -5.5676292630902381e-02 -1.5261226057915302e-02  -7.9139098521576780e-04 -5.7818401057785213e-02 -1.2537460807588090e-02  -1.5179187822298798e-04 -5.3921426035300563e-02 -1.0379036936588959e-02  -1.6966739600582908e-03 -5.1547832077370466e-02 -1.3417702625025400e-02  6.7887860109955734e-04 -6.1593588040753003e-02 -3.9844695143670377e-03  1.2914793711783026e-03 -5.8849324930184778e-02 -2.0310480006820180e-03  -9.5131522971835252e-04 -4.8776576930403617e-02 -1.1870981489443337e-02  4.8692605739447995e-04 -5.1248068584503217e-02 -8.5268387340651820e-03  1.8547518783377018e-03 -5.5260930841853434e-02 6.2725896158686602e-04  -2.8145708198796865e-04 -4.5109815921378006e-02 -9.5109769929694193e-03  1.0114696116303964e-03 -4.7669208953547086e-02 -5.8893508032273672e-03  3.8858139092763422e-04 -4.0394938034422692e-02 -6.1799355894241806e-03  2.4100043088153356e-03 -5.0285716855675552e-02 4.5253683996191773e-03  1.5110477884403316e-03 -4.2963361474285193e-02 -2.2446291078501157e-03  1.1341943514749538e-03 -3.5317484486262193e-02 -2.1034040754530493e-03  3.0349787166578201e-03 -4.4729141776094009e-02 9.2817750963240294e-03  2.0212897733196265e-03 -3.7849290394623501e-02 2.1664082617447208e-03  3.7396344735670228e-03 -3.8958512733921466e-02 1.4627885101831262e-02  1.9860656613092491e-03 -3.0132791261265415e-02 2.5852274698715282e-03  2.5485472680079600e-03 -3.2587362540532690e-02 7.1553475697639802e-03  2.0464083542315425e-03 -7.1966523773560387e-02 -1.3209373070242718e-03  2.4443755922935362e-03 -6.7499678283847356e-02 1.5822532513859856e-03  2.9250321940631737e-03 -6.4770752586061964e-02 3.5557640321940693e-03  3.3493433737092648e-03 -6.1348100717478288e-02 6.2387205979781224e-03  3.7348558853125503e-03 -5.6455920770364494e-02 1.0269432844195266e-02  4.1182631714778480e-03 -5.0805954097733107e-02 1.5302950804711200e-02  4.5194154038405068e-03 -4.4942422013352586e-02 2.0939012391984632e-02  -5.0400326755109656e-03 -4.6352123867368131e-02 -2.3867202134589843e-02  -3.5466205013562793e-03 -4.5180156181903554e-02 -2.4034469981842492e-02  -2.7324996151991631e-03 -4.2405284063810784e-02 -2.2446967380554156e-02  -3.9242633447134851e-03 -4.3235685885972062e-02 -2.2315977981803174e-02  -1.8766156646825591e-03 -3.9967964231042478e-02 -2.0756673231636914e-02  -2.9352905312362270e-03 -4.0784250464541108e-02 -2.0715839631818073e-02  -1.1400544327327569e-03 -3.6537466430913663e-02 -1.8470847035920515e-02  -2.0691134144626006e-03 -3.7351670704741616e-02 -1.8428374368410227e-02  -4.3703279471602569e-04 -3.2399390246024284e-02 -1.5544826466416526e-02  -1.2193847746661008e-03 -3.3133962952873387e-02 -1.5422554512457210e-02  2.7458971076799903e-04 -2.8093057024144347e-02 -1.2014164201719531e-02  -2.8860366069352237e-04 -2.8698773985596424e-02 -1.1793654366923513e-02  9.9672523290852467e-04 -2.3644902468832628e-02 -8.0190699035854740e-03  7.3093566955926767e-04 -2.4135174645571102e-02 -7.6462357567038093e-03  -3.2555078094243413e-03 -7.2327647730262151e-02 -5.1013816604140172e-03  1.8321687284409902e-04 -8.1111858433944667e-02 2.3835337316155084e-03  -5.5787215045557675e-05 -8.5689106127293760e-02 4.9849497781231421e-03  3.4935277540287709e-04 -8.1793707038675209e-02 8.0313326136859913e-03  5.2600034111654288e-04 -7.7333222686465933e-02 5.3448430431270828e-03  -2.8839269142220915e-03 -6.8855670264463681e-02 -2.5343538965152479e-03  6.5399828173514079e-04 -7.9803272478002771e-02 9.8757090415562011e-03  8.2061945395629299e-04 -7.5226215089776977e-02 7.2529917321189404e-03  -2.5951324282202986e-03 -6.6746475923776402e-02 -7.2552610178548184e-04  1.1211748234860204e-03 -7.7219554958804379e-02 1.2272472614996088e-02  1.2887276410216949e-03 -7.2397696533376604e-02 9.7367557492848717e-03  -2.1317031050626920e-03 -6.3698078342495676e-02 1.7250778115586892e-03  1.7855667186754819e-03 -7.2718713863693010e-02 1.6355885083857050e-02  1.9757852182694866e-03 -6.7645705644420157e-02 1.3860516730828215e-02  -1.4086362352176169e-03 -5.8715687719088507e-02 5.6506214176384982e-03  2.7137995011854801e-03 -6.6735318403873423e-02 2.1913631422525320e-02  2.9621257714136135e-03 -6.1583061391815720e-02 1.9310425958988547e-02  -3.8184347863192070e-04 -5.2632957991932940e-02 1.0738782494247855e-02  3.8859544726013869e-03 -6.0497683818695004e-02 2.7958599724569159e-02  4.2390526008804982e-03 -5.5283565656330941e-02 2.5277113512054264e-02  9.2138423730916432e-04 -4.6347251143439468e-02 1.6358823326749112e-02  5.8369437530299264e-03 -1.0386346913572077e-01 2.8925226730177354e-02  7.8643263854637230e-03 -1.2123180578108944e-01 3.7290009005603843e-02  8.2379646775878109e-03 -1.1383308289840388e-01 3.4825767442913075e-02  5.2893942222838677e-03 -1.0582455876152781e-01 2.6956549299090839e-02  8.8633218850407182e-03 -1.1056939795107494e-01 3.8090596437737385e-02  6.4698946714116055e-03 -1.0032434254343391e-01 3.2564426871459842e-02  8.5517788646097635e-03 -1.1834027139675750e-01 4.0277183976517840e-02  9.4695639710380211e-03 -1.0541565892957473e-01 4.3303385891343964e-02  -3.0493654658210485e-03 -6.8834047036726423e-02 -7.7051078792174125e-03  -2.7179105964671639e-03 -6.4805242475497529e-02 -5.4582521050781235e-03  -2.4599463603623712e-03 -6.2329295972318628e-02 -3.8835108021905876e-03  -2.0134634280720965e-03 -5.8965424216698037e-02 -1.5923166027951505e-03  -1.2834059178720139e-03 -5.3837477731693360e-02 2.0792118896659595e-03  -2.1100638603485972e-04 -4.7747974052844318e-02 6.8246647852562041e-03  1.1738079054544289e-03 -4.1472041711111962e-02 1.2157690665182378e-02  -6.8234318808312977e-04 -5.1987977794011514e-02 -1.7121464379148084e-02  -3.2160328411194811e-04 -4.8390250461186009e-02 -1.5353856757747041e-02  2.8759907887124529e-04 -4.5748378967473337e-02 -1.3748973644414740e-02  7.4393336809569011e-04 -4.2166110414601846e-02 -1.1370645124390136e-02  1.1439427677206186e-03 -3.7689025782829892e-02 -8.1475582459208384e-03  1.5303376313019399e-03 -3.2943420092224257e-02 -4.2516551729483388e-03  1.8401323478009694e-03 -2.8072690428475541e-02 2.1415854319497993e-04  -3.2541819537824333e-03 -7.3632343144712120e-02 7.7388026779333862e-04  -2.9009196432596006e-03 -7.1812137247675989e-02 2.6795758698968789e-03  -2.3763489098014476e-03 -6.9090799750791118e-02 5.1618264121164039e-03  -1.6703786744487103e-03 -6.4310962898785420e-02 9.2607053412845329e-03  -6.9329032842575995e-04 -5.8305613912381135e-02 1.4586578860061971e-02  5.0185339939575434e-04 -5.2062980132763517e-02 2.0430127688450483e-02  -4.0003472819903230e-03 -6.1394044966150092e-02 -1.2962474556828831e-02  -1.0342947508898187e-03 -7.0194148962707842e-02 -4.7223306132763232e-03  -6.6792292430338334e-04 -7.2479752042933471e-02 -3.1444231299853766e-03  -1.0907416888722778e-04 -6.8356563111019022e-02 -6.2499930531596869e-04  -2.6834842033244421e-04 -6.5626644334775178e-02 -2.3396762284950126e-03  -3.3464418033485894e-03 -5.7236742464372554e-02 -1.0989991074715124e-02  3.8162985727529923e-04 -6.5713767246525875e-02 1.1427754721512150e-03  3.6042478843225457e-04 -6.2849193165970291e-02 -6.5064870886274680e-04  -2.7561908974012990e-03 -5.4553862512636352e-02 -9.4175906563711519e-03  9.5664255540493066e-04 -6.2237220260721544e-02 3.6260554330863832e-03  9.8966656255955053e-04 -5.9297352395432282e-02 1.8533419339782113e-03  -2.0708991615332470e-03 -5.0933405004974397e-02 -7.0291968093536940e-03  1.7215133494860846e-03 -5.7028548348362719e-02 7.5806881721216185e-03  1.7656718024968380e-03 -5.4160710816517063e-02 5.7520438337423201e-03  -1.1839587997766936e-03 -4.5860620968411404e-02 -3.4457150170910471e-03  2.7387025656141462e-03 -5.0931412947467843e-02 1.2580789215000185e-02  2.7503218867948238e-03 -4.8226047852284758e-02 1.0652383899800076e-02  -6.8984116431956179e-06 -4.0134514300809686e-02 1.0531191144898166e-03  4.0504085142314891e-03 -4.4615302657507662e-02 1.8134210528472566e-02  3.9789842265949039e-03 -4.2075456928693709e-02 1.6133246310122841e-02  1.4972880656623929e-03 -3.4223191953430231e-02 6.1269679630479197e-03  -4.4215884433408065e-03 -5.7724969388956673e-02 -1.5127949055409888e-02  -3.5318002149150179e-03 -5.3954317790195196e-02 -1.3214056641860443e-02  -2.7169590898388171e-03 -5.1185654205796821e-02 -1.1534687712187977e-02  -1.9239208618767390e-03 -4.7402690202866728e-02 -9.0814885038991416e-03  -9.8285666204870801e-04 -4.2334599910900252e-02 -5.5500261794307476e-03  1.7482882786223184e-04 -3.6794075102351630e-02 -1.2186037284304327e-03  1.5688761512036458e-03 -3.1037184905598165e-02 3.6659361815254451e-03  4.3738591379895927e-03 -1.1141674421450498e-01 2.1523827086627877e-02  4.8583844907742436e-03 -1.0623121652431151e-01 1.9300064573936637e-02  6.7225159235041994e-03 -1.2134884212868501e-01 2.7806331007396941e-02  5.3263805804613902e-03 -1.0237120874403328e-01 2.2803382836084379e-02  4.9052845986853211e-03 -1.0761470982267529e-01 2.5150268859821238e-02  7.3328368444407557e-03 -1.1757399865095490e-01 3.1435074225668685e-02  5.6446119504733735e-03 -1.0046879573083295e-01 2.4646233755989181e-02  7.7066052895897403e-03 -1.1572555297948027e-01 3.3122737151080779e-02  6.1059195813290253e-03 -9.8304399349164490e-02 2.6730561180460376e-02  6.7068344603600843e-03 -9.4447240525470974e-02 3.0544087134182225e-02  7.4621374536819858e-03 -8.8787525914499676e-02 3.6182032228120546e-02  7.1745441985051122e-03 -9.4951283488585447e-02 3.8096725068604516e-02  8.4120859979899838e-03 -8.2743317902121943e-02 4.2184885041915497e-02  8.0158163066729390e-03 -8.9126255042387567e-02 4.3955649265058100e-02  1.0210378902057558e-02 -9.9786532175777695e-02 4.8770988338101312e-02  -3.4236558225929727e-03 -6.5245165684725076e-02 -1.0419830678247703e-02  -2.3674807070343530e-04 -7.5628517045695023e-02 -9.2833453984445555e-04  1.5007718115983912e-04 -7.1968655853000260e-02 1.8213200980304353e-03  -3.0073857200363413e-03 -6.0784506904106785e-02 -8.5102723459856647e-03  5.2896771577222175e-04 -6.9660771717787909e-02 3.7330063588185114e-03  -2.6924144479867364e-03 -5.8100880439170291e-02 -7.1149720120983377e-03  1.0525791308896441e-03 -6.6444817789225896e-02 6.2748014658965444e-03  -2.1784603241197104e-03 -5.4584285831114195e-02 -4.9011087572198714e-03  1.7973982894414257e-03 -6.1334540722195921e-02 1.0360931228799398e-02  -1.3979240444157302e-03 -4.9496362200448465e-02 -1.4052565974867681e-03  2.8210404087985483e-03 -5.5200233784881945e-02 1.5595851993412839e-02  -2.8064834199181089e-04 -4.3571326601338729e-02 3.1029081175092364e-03  4.1592349754739034e-03 -4.8838111527822636e-02 2.1353412396509005e-02  1.1743256414320316e-03 -3.7483758026534073e-02 8.2174151376815819e-03  -4.6513975169771389e-03 -5.1555946633375954e-02 -1.9740734523926003e-02  -2.3332284665579829e-03 -5.9939386081145185e-02 -1.2094763427022388e-02  -1.5068275080290198e-03 -5.5781393395500124e-02 -9.9899019150353398e-03  -3.6834503007123869e-03 -4.7546930754492456e-02 -1.8281090187671996e-02  -7.4054319923273456e-04 -5.2934263321266072e-02 -8.3856136739817663e-03  -2.7803446185960951e-03 -4.4879579741806300e-02 -1.6872378256914015e-02  -5.2204365280576007e-05 -4.9190733341801872e-02 -5.9992368170822836e-03  -1.9356380398634122e-03 -4.1306385615361443e-02 -1.4606113610397438e-02  6.8134674589873611e-04 -4.4231077273437232e-02 -2.5241194088989252e-03  -1.0706756668214866e-03 -3.6774496946095178e-02 -1.1446905833784330e-02  1.5231292760841066e-03 -3.8814328272618763e-02 1.7603321109726142e-03  -7.7938277308411895e-05 -3.1936372089191943e-02 -7.5849854595847312e-03  2.5123554498355724e-03 -3.3213215741599730e-02 6.6577402259625686e-03  1.0455604301350273e-03 -2.6990440164958152e-02 -3.1127128349497453e-03  7.1262089373789706e-03 -1.1569157851632735e-01 2.5337616179461647e-02  7.6660362481238481e-03 -1.1168253888868443e-01 2.8959085646606160e-02  7.9602991488707218e-03 -1.0967872021124990e-01 3.0721985272930328e-02  8.4048200156778448e-03 -1.0759177687025109e-01 3.2580670368944152e-02  8.9653593313869864e-03 -1.0404368159710857e-01 3.6041850590263380e-02  9.6505225887944732e-03 -9.8596810165475210e-02 4.1482852224913908e-02  1.0509189978496062e-02 -9.2713079400694565e-02 4.7201170614570936e-02  3.8745827795018646e-03 -8.8864601689418593e-02 9.4963636402544942e-03  9.2265851987816203e-04 -7.5500749834792824e-02 9.6509601780388684e-05  3.3927194721835030e-03 -8.4228918051276511e-02 6.6552905262615390e-03  3.9215860097544970e-03 -7.9608748541092261e-02 9.9333949679434822e-03  1.6642729482673375e-03 -7.1206831509008181e-02 2.9973354681716033e-03  4.4668145756139544e-03 -8.4239267331077936e-02 1.2844037031956195e-02  4.3972982276224053e-03 -7.6867165331031856e-02 1.1939004596279293e-02  2.2722382349469046e-03 -6.8548871716511917e-02 4.9501631297453790e-03  4.9363002104433245e-03 -8.1590099387504181e-02 1.4840270065373362e-02  4.9037675532339498e-03 -7.3657976613855078e-02 1.4469905080819251e-02  2.8770222886430694e-03 -6.5171029088339202e-02 7.5754695467849563e-03  5.4414721691078277e-03 -7.8554872958282868e-02 1.7308470975761707e-02  5.4374511420988269e-03 -6.8810841325012348e-02 1.8561946485398648e-02  3.5573135386281524e-03 -6.0134465862247487e-02 1.1688723424509415e-02  6.0178331870610587e-03 -7.3816699936275473e-02 2.1413144348869397e-02  6.0470246408197963e-03 -6.2812093749250800e-02 2.3923357667394726e-02  4.3830231390622736e-03 -5.4199695335226630e-02 1.6857549743522264e-02  6.7384116192897633e-03 -6.7770743303306222e-02 2.6898985028391560e-02  6.8284141170470531e-03 -5.6524955097766449e-02 2.9823370567781379e-02  5.4270796102571803e-03 -4.8000094297407585e-02 2.2603659557470488e-02  7.6829287617305063e-03 -6.1417238048374310e-02 3.2890322381715562e-02  -2.4267445698768052e-03 -4.2043692478085301e-02 -2.6751039258086716e-02  1.3183879056874107e-04 -4.6896730382141226e-02 -2.1605747462867558e-02  2.4172531125990848e-04 -4.3336749911953097e-02 -2.0368026650117228e-02  -1.8217185741247457e-03 -3.9331132624305196e-02 -2.5577912758956916e-02  -1.1605193833951468e-03 -3.6957034226609523e-02 -2.4253956822288533e-02  6.8496926342984641e-04 -4.0796669817592397e-02 -1.9181576877817054e-02  -5.4970938154444285e-04 -3.3729661161607999e-02 -2.2406209884991271e-02  1.0450272947685119e-03 -3.7439890533687473e-02 -1.7222905893951899e-02  2.9486841882089041e-05 -2.9987197620384296e-02 -2.0000144877593322e-02  1.3404141057967935e-03 -3.3407885913188898e-02 -1.4540001016000854e-02  5.6441036115535714e-04 -2.6167565045708368e-02 -1.7000321250919135e-02  1.5878134589867479e-03 -2.9233822770009563e-02 -1.1200102680076339e-02  9.8340800483597522e-04 -2.2227438891040476e-02 -1.3548753834305413e-02  1.7263278473966474e-03 -2.5011016525898350e-02 -7.2496373623769476e-03  -4.8203411014919690e-03 -5.4304092205034724e-02 -1.7848827501658546e-02  -1.8626272820288579e-03 -6.4722577132069109e-02 -8.5887696266370144e-03  -1.0082893061690204e-03 -6.0472166844765515e-02 -6.2532166817117745e-03  -3.8024000897260543e-03 -5.0217614716384563e-02 -1.6251462667706697e-02  -2.9366988316945689e-03 -4.7412528301237856e-02 -1.4800033162564011e-02  -2.7190952425080626e-04 -5.7712000044075840e-02 -4.5386947010099656e-03  -2.0955861242229895e-03 -4.3690452587052890e-02 -1.2514136920689228e-02  4.2043276633450485e-04 -5.4069851633467066e-02 -2.0166521504309293e-03  -1.1785632105451684e-03 -3.8900988754254871e-02 -9.2695975821433848e-03  1.2069419175155449e-03 -4.9024420360239497e-02 1.7313158194234234e-03  -1.0175553909905381e-04 -3.3730252443320730e-02 -5.2688636829021302e-03  2.1471838212603982e-03 -4.3333431325657056e-02 6.3850875175080792e-03  1.1477589995648066e-03 -2.8413674244139368e-02 -6.4901201021720254e-04  3.2771759143727366e-03 -3.7437761260436894e-02 1.1634802970145004e-02  4.7187098490103340e-03 -8.6224584232929016e-02 9.2178119075518386e-03  3.8137561810032781e-03 -7.8739249827132887e-02 4.1709697294929991e-03  4.0163742767884980e-03 -7.4119667716570789e-02 7.3363747580623782e-03  5.0081455541360360e-03 -8.1684775709451707e-02 1.2584699456079738e-02  4.4204917620928787e-03 -7.1343970795397435e-02 9.3490588716020218e-03  5.4152584621999685e-03 -7.8908511367155890e-02 1.4624798307646595e-02  4.7389252706083740e-03 -6.8026961827134302e-02 1.1985386227033731e-02  5.7747467247994157e-03 -7.5670666287393440e-02 1.7161024857751558e-02  4.9600594134034497e-03 -6.3150162395026729e-02 1.6113954911853919e-02  6.0748113764617509e-03 -7.0785597770090442e-02 2.1312757364728201e-02  5.1167822869451545e-03 -5.7373212914515949e-02 2.1352307199362999e-02  6.3594162450104907e-03 -6.4781586592928223e-02 2.6707545353454598e-02  5.2422713161435572e-03 -5.1366665360107672e-02 2.7187227790882493e-02  6.6715556443597271e-03 -5.8512836886067517e-02 3.2654383161203275e-02  6.3628675831294210e-03 -9.3500742753445901e-02 1.4487637773712363e-02  5.1754462166857772e-03 -8.4505278404888362e-02 9.1766565041412913e-03  6.5212938195536889e-03 -8.8848773363058561e-02 1.8119242969889877e-02  5.3801061562918162e-03 -8.0128166029034387e-02 1.2518373843889813e-02  6.8316848428819415e-03 -8.6134956429102905e-02 2.0192324829389992e-02  5.7120377104920347e-03 -7.7527767862398581e-02 1.4643040208088699e-02  7.0927585194754655e-03 -8.3106253022654397e-02 2.2664753317677380e-02  5.9418397894576772e-03 -7.4401050274624167e-02 1.7334804553759242e-02  7.2519433782205151e-03 -7.8476684046781653e-02 2.6767649777085265e-02  6.0073200807398940e-03 -6.9607120129593664e-02 2.1658338217933153e-02  7.3553146068506331e-03 -7.2512031774584471e-02 3.2330101171979514e-02  5.9898701310009796e-03 -6.3780387766630170e-02 2.7162564126969026e-02  7.4091799739452839e-03 -6.6254777735474835e-02 3.8408728822216673e-02  5.8787387277446403e-03 -5.7707043856026895e-02 3.3251877192832686e-02  1.6369299119895304e-03 -8.0376911358097422e-02 3.3409478382631108e-03  2.3164566772730412e-03 -7.6120565538914220e-02 6.3403039707688675e-03  2.8578846614867905e-03 -7.3577105014483515e-02 8.3275115658201868e-03  3.4284788178332751e-03 -7.0390916559720518e-02 1.0944921080039943e-02  4.1274654954004649e-03 -6.5425998789023290e-02 1.5167652164835956e-02  5.0373248465120524e-03 -5.9382606487995503e-02 2.0578157915472611e-02  6.1950942233025708e-03 -5.3069338500055359e-02 2.6529354672839758e-02  5.3557916299205790e-04 -7.1285841207062786e-02 -2.8314323103700175e-03  1.1949279900426942e-03 -6.6979367859146016e-02 -1.0630162279449420e-05  1.8313499074816750e-03 -6.4238066758577322e-02 1.9252966508032105e-03  2.4193961148040702e-03 -6.0764553465825058e-02 4.5506374017316225e-03  3.0472915542159454e-03 -5.5758545529844793e-02 8.5448012876188952e-03  3.7842233681911995e-03 -4.9981458358064570e-02 1.3524401701872872e-02  4.6728609557049709e-03 -4.3957989587795336e-02 1.9094727083187699e-02  -7.3203172157689572e-03 -5.0629044113004555e-02 -2.2935109917461446e-02  -1.0713976273023097e-02 -4.0532808278511211e-02 -3.3124615705623583e-02  -7.6196639619684941e-03 -4.7721461527605612e-02 -2.4919477367358348e-02  -6.5852424566943419e-03 -4.3952426621639257e-02 -2.3832842902398649e-02  -9.4777030446494652e-03 -3.7679528985115611e-02 -3.2305384935736647e-02  -6.4543499066069751e-03 -4.6745216294333598e-02 -2.1721977179247457e-02  -5.6184543873973817e-03 -4.1268525161089906e-02 -2.2623874223303277e-02  -8.4131884085876362e-03 -3.5221945471575575e-02 -3.1128573566631953e-02  -5.6761347725783895e-03 -4.4016762519588110e-02 -2.0440808071810600e-02  -4.6638627349672810e-03 -3.7620345476175057e-02 -2.0564360523510936e-02  -7.3270667226726918e-03 -3.1790609944600055e-02 -2.9291813898508694e-02  -4.8244604974524213e-03 -4.0298616490763925e-02 -1.8308465893154120e-02  -3.5824394808921297e-03 -3.3090798104124783e-02 -1.7675650900981794e-02  -6.0569298581050444e-03 -2.7708668042666848e-02 -2.6834035594398360e-02  -3.7932793969176846e-03 -3.5533977680059968e-02 -1.5266168601936608e-02  -2.2669708928502218e-03 -2.8288584924622408e-02 -1.4113167729168425e-02  -4.5272938565410837e-03 -2.3484332407713193e-02 -2.3764011565943932e-02  -2.461