<?xml version="1.0"?>
<VTKFile type="UnstructuredGrid"  version="0.1"  >
<UnstructuredGrid>
<Piece  NumberOfPoints="906" NumberOfCells="3833">
<Points>
<DataArray  type="Float64"  NumberOfComponents="3"  format="ascii">9.266978080709009 4.166478734772276 1.461046206063056  9.181768326342784 4.153615163234046 1.421440012136226  9.229812892498522 4.183596148910432 1.545720100192326  9.225001213600809 4.254451996702117 1.5337098141396  9.998269512404418 4.409874667952599 2.528767180600064  9.91395824297026 4.409646340341578 2.453618258555241  9.934634447817656 4.364995237459078 2.592062935217701  9.919798983180184 4.414985668374674 2.609759453949234  9.899298226666046 4.461411898273467 2.469849154319107  9.981390950324288 4.460258395222936 2.545906704881471  9.904649060142438 4.465020966142552 2.627596421891976  9.884329333028059 4.513219283260906 2.486234665370487  9.964117660723936 4.510587543223423 2.563165079338934  8.973520021082338 3.942939582164623 2.761174704851625  8.919437161971761 3.973172598385624 2.664763798342906  8.850000488309339 3.924430951421513 2.77700045749684  8.845558936027526 3.974246134588466 2.794653993755094  8.914166478567155 4.023139872836157 2.683635033795931  8.968496262255448 3.992509072475547 2.779410391332544  8.963549666110868 4.042255946091477 2.79758731486911  8.908980749828478 4.073339856758101 2.70239775104662  8.841212600020709 4.024305650680372 2.812261683004634  8.958618594348721 4.092194028826115 2.815810582417105  8.903804985710346 4.123712351629403 2.721188720606563  8.836894168489238 4.074569616046895 2.829906045595228  8.953672894035131 4.142305310517072 2.83412099183176  8.898603822019675 4.174241179737948 2.74008187731194  8.832556856507283 4.125039009432236 2.847645875211998  8.828154626954319 4.17570064699957 2.865540116899665  8.893343848974583 4.224892920708889 2.759144583969554  8.948665184007591 4.192616678837588 2.852583469980953  8.887972614817221 4.27563985573046 2.778454943097415  8.943545650576706 4.243084699946415 2.871261481109642  8.823619076358034 4.226636111743328 2.883700043952831  8.91969193935979 3.903739148817139 2.853349498971146  8.91514730212038 3.953532003266118 2.870435668089378  8.910680143292728 4.003566914142301 2.887523943345037  8.906236428437648 4.05380924853706 2.904661833501768  8.901776005392803 4.10425729769339 2.921880057969638  8.897260402694561 4.154914808381353 2.939207644853848  8.892628173690408 4.205789038705409 2.956705871656081  9.078913286895306 4.16165421612941 1.489446513310811  9.07010785135207 4.232318779340733 1.470506054456137  9.825013768110258 4.349325922937538 2.543732231741408  9.837192361717957 4.298749474892071 2.526401981220737  9.812710836826236 4.400043003851473 2.561181715470424  9.800143338993369 4.450924067701028 2.578829671517043  9.053182690690637 4.120635273835838 2.301583666107857  8.950787244282248 4.130685335992926 2.242382029309165  8.980347016428576 4.091714841892723 2.375714233287916  8.975051382098368 4.146214383095935 2.394052919473817  8.945141437711648 4.188662905339514 2.257824435179705  9.049001200181372 4.176794122593442 2.318609787903795  8.939502003562557 4.246684332721401 2.273089322690033  9.044768207774073 4.233005068870511 2.335484016661751  8.969764813124435 4.200839531260796 2.412220277747406  9.04051514309017 4.289265172446819 2.352306441445103  8.933859403923124 4.304732436669251 2.288292243490713  8.96446901307967 4.255543930274995 2.430360493302131  9.036267266988869 4.345550985242078 2.369156334703782  8.928218024663467 4.362775307818239 2.303520648206931  8.95916172274411 4.310294816496466 2.448551439281559  9.032055921414846 4.401823008938865 2.386091624735961  8.922588280907171 4.42077107865004 2.318828769636111  8.953852461010056 4.365042626306881 2.466862349922159  9.027922123696797 4.45802939327677 2.403161818627037  8.916983929186062 4.478668329132883 2.334257728100245  8.948561937147277 4.419720070300956 2.48534643236031  9.294722774279311 4.208211191337699 1.749695975338284  9.190407154156381 4.200536118044696 1.825006859217305  9.285240252528464 4.206869009084635 1.851247351835382  9.280831517752192 4.272662041233631 1.852754116549778  9.185551913090061 4.267215324975228 1.825296868020789  9.290086918643807 4.275801904637608 1.747284514415678  9.285331017833512 4.343312399112141 1.744801438361978  9.180598734651177 4.333775504233076 1.825507043884235  9.27630094141462 4.338359058256072 1.85416665211464  9.280522914864758 4.410755380721286 1.742277979654409  9.175605530624175 4.400246767374348 1.825674759587194  9.271725251680358 4.404010216025244 1.855533716286833  9.170632614502116 4.466651929073227 1.825827040761286  9.275739584323119 4.478147498293914 1.739737766046788  9.267173117008047 4.469628847215612 1.856886260939346  9.165735165201403 4.532985118509784 1.825983294352904  9.271055473778855 4.545501093481485 1.737197091105098  9.262711946177758 4.535212246161577 1.858251015396938  9.266534787272223 4.612809041077213 1.734669720400547  9.16096704085907 4.599214993854307 1.826162043676963  9.258395468057536 4.6007430341741 1.859648579157984  9.2104481692815 4.197333567121889 1.679975920714307  9.205290287195359 4.266454280784588 1.674398354426392  9.200033266960022 4.335414225812032 1.668770025871608  9.194736875312525 4.404261915251386 1.663117209527739  9.18946234820427 4.473025476573187 1.657450556585163  9.184266957355049 4.541711843981845 1.651772322346439  9.179215840671857 4.610307509364881 1.646079968807679  9.659417655906273 4.171168869832805 2.27968469104405  9.520644181936355 4.144363148256677 2.318700928808441  9.632321392858941 4.13827429021689 2.374955343907686  9.625935841867722 4.190579217832098 2.391933125406688  9.515882443228129 4.198508539283403 2.334136016707644  9.651706425115792 4.22561859648059 2.293951031472103  9.61948789103797 4.243077685720881 2.408880381016572  9.511016287624972 4.252826930282509 2.349510716771683  9.643973522617371 4.280235791115261 2.308151339223454  9.61299493665445 4.295753565076653 2.425850116184705  9.506097216564289 4.307292029994179 2.364886800226506  9.636219818977638 4.335013954471694 2.322347800796494  9.606484364824892 4.348591075445714 2.442892288704626  9.501176846066349 4.36189370141967 2.380322562715947  9.628456240599043 4.389937915909071 2.336602704813784  9.59998313507201 4.401597142613383 2.460066643491204  9.496312731675852 4.416636074190164 2.395880575924383  9.620693654631079 4.445024451497357 2.350982705050542  9.593537501877188 4.45477796502884 2.477448919443453  9.491582907078898 4.471555659886097 2.411629997661823  9.612938183771709 4.500324460968164 2.365551401160177  9.591897593978487 4.178331694211654 2.20008867992287  9.586058037507293 4.234650123585078 2.21276541079363  9.580139992620342 4.291120004488968 2.225358426768164  9.574181893486543 4.347716685034839 2.237925518915727  9.568217574943775 4.404423143200606 2.250527791673186  9.562286365599332 4.461239010180116 2.263224565064882  9.556478080775488 4.518217537996166 2.276101643280207  8.876142600290281 4.089197535295416 2.347588758868751  8.86907845556552 4.144008504589112 2.366283225463278  8.855124256747047 4.253973424973394 2.403238188377883  8.848127170408159 4.309041778139653 2.4217580462646  8.841081318936194 4.364091943626373 2.440403669549137  8.833976724751812 4.41904833798498 2.459225302540055  9.889722543007592 4.313519494417461 2.683041805869503  9.876446421022882 4.362723427179293 2.701555893935364  9.862867828744408 4.412054954331477 2.720243290804004  8.828488394984484 3.97702182795335 2.949809705238122  8.824858430285433 4.027933460796423 2.966012486417316  8.821222460450592 4.07908275470528 2.982288292506203  8.817530937503598 4.130487904321829 2.998653197739202  8.813725757204644 4.182173485071072 3.0151302116418  9.82988938536654 4.265518696504096 1.883244591082174  9.696650413065058 4.244299953148792 1.851032447883822  9.761108246811318 4.244003941388333 1.966469230186049  9.749930304723641 4.30457816913175 1.972421229553955  9.686520353310428 4.307572296726192 1.85355883090693  9.816644918395466 4.327435900718652 1.886192719448414  9.738844015671141 4.365240197860174 1.978251422107041  9.676441577017375 4.370908350777144 1.855965813188521  8.935689530643861 4.051779869986135 2.46846159703289  8.929370370406893 4.104001315166376 2.488190399427086  8.91687075184668 4.208909855851932 2.52729788074818  8.910595498119452 4.261506365902133 2.546924875514747  8.904276821430173 4.31413181394523 2.566699037297301  8.897888961346347 4.366709731791768 2.586701843752079  9.291741111153348 4.125952838180872 2.333367832747216  9.255734456969449 4.149855558591939 2.242812418410329  9.15631706828624 4.128138333935238 2.301404074919237  9.152842309069399 4.184072186734324 2.317893821596572  9.252906017759257 4.206781261893293 2.258119939839974  9.288722866517414 4.180837540022612 2.3497073089387  9.149271310702213 4.240075864500891 2.334253572002109  9.249941443993478 4.263772905828157 2.273304108251889  9.285580642375971 4.235819070265149 2.365949981937695  9.145661136038722 4.296143016124208 2.35056974371981  9.246922626976433 4.320826436995286 2.288452358996405  9.282384905222782 4.290902264048433 2.382170116214321  9.142062105713414 4.352251913721188 2.366915674162251  9.24391934865986 4.377930160534795 2.303629560588179  9.279200993577488 4.34606876187451 2.398434827231057  9.13852257895673 4.408370043854362 2.383348541711274  9.241001853124162 4.435062580791873 2.318888250487035  9.276096267911942 4.40129339181724 2.414798854079472  9.135091378536139 4.464453988631487 2.399918703911369  9.238249602995277 4.492184988691144 2.334268413886361  9.273150013099947 4.456538729419442 2.431313614294262  9.789515107505199 4.298906972125387 2.648101014882582  9.799806786226959 4.249175310956118 2.630422342287006  9.779112838930967 4.348811333285667 2.66589523634604  9.768520603652348 4.398956934089937 2.683869879727113  9.885660093085846 4.269047533070811 1.974659324518593  9.870953115830503 4.328655258796945 1.981117192190877  
[...]
<PointData  Vectors="f_24"> 
<DataArray  type="Float64"  Name="f_24"  NumberOfComponents="3" format="ascii">-1.7696001014894585e-02 2.6715968725002117e-02 1.4463031624314726e-02  -1.6887279013847897e-02 2.3447541028371998e-02 1.4476301970323575e-02  -1.7958633688551790e-02 3.3805588436194051e-02 1.3789030413281656e-02  -1.7670678191200748e-02 3.2511034803068474e-02 8.9471911964467445e-03  -2.8742478543900944e-02 9.3155284431539379e-02 1.1606061995221750e-02  -2.7986626418220206e-02 9.2773601919550447e-02 1.0383155484077439e-02  -2.8757385257265913e-02 9.6472362681870247e-02 1.4049076120142010e-02  -2.7538538170284236e-02 9.6737642560858067e-02 1.2883064716451459e-02  -2.6896294944248382e-02 9.3273837551051633e-02 8.2244764671539437e-03  -2.7522376704795945e-02 9.3615373484231379e-02 1.0012342892186228e-02  -2.6150434767129131e-02 9.6725713308186911e-02 1.1436776396388671e-02  -2.5675340323019571e-02 9.3557192888367988e-02 5.7531998604471255e-03  -2.6130695618823269e-02 9.3831679596667994e-02 8.1340219404875593e-03  -1.6878162449689031e-02 1.0845640430174305e-01 1.7205601845313986e-02  -1.6486840200990952e-02 1.0886245928602348e-01 1.8899354429824187e-02  -1.4261673847732390e-02 1.0750406842245201e-01 1.6124398782547240e-02  -1.4870425547585955e-02 1.0799649561782798e-01 1.7852111485541184e-02  -1.6947727972304861e-02 1.0979232939336858e-01 1.9484246176781152e-02  -1.7253610358308701e-02 1.0904564369664527e-01 1.8729819087046507e-02  -1.7529907844606795e-02 1.0923602035116887e-01 2.0033594449124739e-02  -1.7313729860702426e-02 1.1028328242053698e-01 1.9942972630420649e-02  -1.5368494562750617e-02 1.0812946043522685e-01 1.9346831240979290e-02  -1.7734101508895865e-02 1.0907232199810490e-01 2.1131594816296975e-02  -1.7592510104486658e-02 1.1038395591798768e-01 2.0270016676987152e-02  -1.5766386477382693e-02 1.0793770824392790e-01 2.0613675372546048e-02  -1.7846003330548785e-02 1.0863937511223956e-01 2.1966135126130094e-02  -1.7790198872172924e-02 1.1021783245664195e-01 2.0321936167020098e-02  -1.6091034987774894e-02 1.0747175086554603e-01 2.1639554403241567e-02  -1.6456035791159281e-02 1.0637429390183033e-01 2.2706201494551964e-02  -1.8004838729975336e-02 1.0951393853903364e-01 2.0206124941307756e-02  -1.7990028421672737e-02 1.0757447738936077e-01 2.2802149923017847e-02  -1.8179227278765534e-02 1.0830645037340683e-01 1.9693423373273747e-02  -1.8082619012936167e-02 1.0594229467753415e-01 2.3348318313351397e-02  -1.6811708611550225e-02 1.0467296699624944e-01 2.3533158593276836e-02  -1.5103774602567612e-02 1.0578847317744687e-01 1.4454177095866143e-02  -1.5578606026215511e-02 1.0600252575635945e-01 1.6862422618278628e-02  -1.5949357879243189e-02 1.0589369382290800e-01 1.8978944960171409e-02  -1.6225899766090533e-02 1.0549829059074317e-01 2.0811361710300343e-02  -1.6420994191729384e-02 1.0483389834850723e-01 2.2405016619979498e-02  -1.6671505884680228e-02 1.0350452575353380e-01 2.4193947845093332e-02  -1.6893446133308516e-02 1.0154380228793138e-01 2.5853140819008767e-02  -1.6630481729496376e-02 2.9376927644061461e-02 1.3932931284323274e-02  -1.6364044292345677e-02 2.7749818281164323e-02 9.4055104404104483e-03  -2.8034539933752364e-02 9.8141882424762961e-02 1.3942574969747476e-02  -2.8956489539863739e-02 9.7587684944758279e-02 1.5179549778797690e-02  -2.6975849811335856e-02 9.8435495471940429e-02 1.2385081605059221e-02  -2.5769774662716623e-02 9.8443193667654458e-02 1.0472734526271366e-02  -2.0099527210983421e-02 9.5460208848414718e-02 1.9615110695643256e-02  -1.8784284224527860e-02 9.1844372969114116e-02 1.8549677574739014e-02  -1.9001716339372903e-02 9.9995591951129434e-02 2.0160635470748142e-02  -1.9188999214655056e-02 1.0149484619364203e-01 1.7721653218481920e-02  -1.8877984451926792e-02 9.3105173509820102e-02 1.4923678360028871e-02  -2.0130734333203934e-02 9.6876987377725529e-02 1.6449197731584722e-02  -1.8912522822201575e-02 9.3979535828189464e-02 1.1759254310729937e-02  -2.0123513373252015e-02 9.7864858458013751e-02 1.3644803370894000e-02  -1.9312857012958512e-02 1.0247607683040692e-01 1.5486085156018698e-02  -2.0097646059180848e-02 9.8531626820435939e-02 1.1113441613593216e-02  -1.8947351535249353e-02 9.4586408279295292e-02 8.8454381080411218e-03  -1.9384051198383330e-02 1.0308910377063625e-01 1.3453811508968034e-02  -2.0089436553017585e-02 9.9039981040456776e-02 8.2911795079909784e-03  -1.8990805049696208e-02 9.5066360396812072e-02 5.5975589741274990e-03  -1.9454048144282133e-02 1.0352297378131023e-01 1.1114207775235104e-02  -2.0046001598923044e-02 9.9409438231207167e-02 4.9212868761861249e-03  -1.9003507935467769e-02 9.5429574326587815e-02 1.8313047818639587e-03  -1.9506951191003985e-02 1.0375819022573161e-01 8.2677777882543095e-03  -2.0011302481306795e-02 9.9619765303918514e-02 1.1834965126939513e-03  -1.9004401095783566e-02 9.5680398781969239e-02 -2.2542530490882902e-03  -1.9535094081351231e-02 1.0380331084882172e-01 5.0165498013639374e-03  -1.9706796906132296e-02 5.0978260716076459e-02 1.3884118976359154e-02  -1.9441935360097341e-02 5.7901566483230291e-02 1.4260447805926883e-02  -2.0374374589333853e-02 5.9716137340814872e-02 1.4536978188418684e-02  -2.0107317160954607e-02 5.9547971168743406e-02 9.4496313123851733e-03  -1.9220831195488713e-02 5.7599176054690240e-02 9.0911455595163951e-03  -1.9435446291527502e-02 5.0420603565930672e-02 8.7689088925839466e-03  -1.9174911891306073e-02 5.0006204840028559e-02 4.2796430306438100e-03  -1.9007598596912534e-02 5.7379458593855494e-02 4.5791078834151663e-03  -1.9860172227380200e-02 5.9420679060661390e-02 5.0058861234174631e-03  -1.8894252281597933e-02 4.9635679947145267e-02 -1.6541531070087407e-04  -1.8782985941425370e-02 5.7176793191015332e-02 1.6718801753204751e-04  -1.9599147536815735e-02 5.9294856573074421e-02 6.6980889011007596e-04  -1.8531302811334777e-02 5.6950836637824853e-02 -4.5473984109775526e-03  -1.8580548183615354e-02 4.9265926232081141e-02 -4.9234149160516183e-03  -1.9302206081158270e-02 5.9143343171532088e-02 -3.9808979352335440e-03  -1.8253994232814458e-02 5.6721427482675175e-02 -9.6191925419371604e-03  -1.8242373726276660e-02 4.8916658013684743e-02 -1.0011268250433457e-02  -1.8976018035990739e-02 5.8983554900962763e-02 -8.9987598216464612e-03  -1.7905155383652983e-02 4.8591172040895456e-02 -1.5346842527691140e-02  -1.7983579619282229e-02 5.6496238095958669e-02 -1.4928902928914403e-02  -1.8660839721279680e-02 5.8821368057569136e-02 -1.4262751571907999e-02  -1.8670909998863550e-02 4.5363634879233429e-02 1.3692689723613512e-02  -1.8406830531175058e-02 4.4508556935327681e-02 8.5563506069474635e-03  -1.8163202673189389e-02 4.3884413114052244e-02 4.0513240998304540e-03  -1.7906627395112309e-02 4.3338011783340180e-02 -4.4123286321992523e-04  -1.7624759120702292e-02 4.2801045729373530e-02 -5.2404655554821045e-03  -1.7322492470336071e-02 4.2299514283002979e-02 -1.0347170329432645e-02  -1.7013245575487654e-02 4.1840706616240224e-02 -1.5693977857823904e-02  -2.7751013792922892e-02 8.8977309841231519e-02 1.9422804688899113e-02  -2.6474374763205608e-02 9.3181449743695480e-02 2.0236281321084452e-02  -2.8298036034156641e-02 9.4666184328548827e-02 2.0237546444962968e-02  -2.7654876278863014e-02 9.6177137042794764e-02 1.8046326099481886e-02  -2.5956898353122038e-02 9.4586774021550510e-02 1.7434560282451928e-02  -2.7133762806033055e-02 9.0322406947758574e-02 1.6413753478748072e-02  -2.7029998460646999e-02 9.7306372161673316e-02 1.5999178081328641e-02  -2.5455511749430070e-02 9.5615029194728071e-02 1.4870723156971896e-02  -2.6527617805191035e-02 9.1327555490157475e-02 1.3672110265857008e-02  -2.6433164712310681e-02 9.8106212765956408e-02 1.4092812708107194e-02  -2.4991940765219142e-02 9.6338940136260376e-02 1.2511913289035358e-02  -2.5947191711728462e-02 9.2066861468452957e-02 1.1128208992129747e-02  -2.5811357095026008e-02 9.8687576113593592e-02 1.2018426237276003e-02  -2.4519454201521115e-02 9.6877115054537888e-02 9.9582079017052211e-03  -2.5324622061077107e-02 9.2644723313387328e-02 8.3834529711139649e-03  -2.5088234739015017e-02 9.9049907229349018e-02 9.5436497828659903e-03  -2.3960660907401590e-02 9.7238918848659622e-02 6.9059676033719677e-03  -2.4624571836126086e-02 9.3065010613970364e-02 5.1769822375839145e-03  -2.4341993761026207e-02 9.9179876231162187e-02 6.6544080130074568e-03  -2.3416728730379657e-02 9.7410918597525237e-02 3.4905774362615112e-03  -2.3889102256006892e-02 9.3316150479216181e-02 1.6269529714431398e-03  -2.6296822484926666e-02 8.4775061913160463e-02 1.9108965996248353e-02  -2.5749306645560337e-02 8.5913502474787240e-02 1.5464969636051484e-02  -2.5273654569768336e-02 8.6795961374037514e-02 1.2219319205433671e-02  -2.4797727305875861e-02 8.7465610092912885e-02 9.2163889948874561e-03  -2.4286233103886064e-02 8.7989013623077247e-02 6.0297594973035933e-03  -2.3698886617573946e-02 8.8385718229191501e-02 2.3535066790632058e-03  -2.3108288171760815e-02 8.8634257119379070e-02 -1.6623523718419088e-03  -1.7541705093956167e-02 9.8557594632074363e-02 1.9738320223849668e-02  -1.7860812458507427e-02 1.0005808619418981e-01 1.7135694124579756e-02  -1.8253158075442210e-02 1.0171655371429301e-01 1.2609940342568968e-02  -1.8414575154379970e-02 1.0219497941073083e-01 1.0119647387988881e-02  -1.8547904690427285e-02 1.0247096953199053e-01 7.1661120556578434e-03  -1.8632484230454025e-02 1.0257867656303438e-01 3.7779214915869383e-03  -2.8640759271464790e-02 9.8758399196866437e-02 1.6722965116821947e-02  -2.7423940415600839e-02 9.8713597231607608e-02 1.6326541375440162e-02  -2.6016474914040331e-02 9.8332050635951351e-02 1.5645448936173926e-02  -1.4110232534560400e-02 1.0203410844383538e-01 1.7723685709145166e-02  -1.4499650818327171e-02 1.0149364829660855e-01 2.0008999568924442e-02  -1.4817102190244727e-02 1.0069266072884538e-01 2.2115481025210562e-02  -1.5228260336376497e-02 9.9233340885087964e-02 2.4535660097489032e-02  -1.5644030130474714e-02 9.7137581363614417e-02 2.6963428700597782e-02  -2.4594057133681152e-02 5.8059344227862020e-02 1.4132167589352292e-02  -2.3413779672075880e-02 5.6868703710893927e-02 1.4532369446078454e-02  -2.5152847559264918e-02 6.5427437276704220e-02 1.5510661693694999e-02  -2.4590388528721061e-02 6.5839433898288113e-02 1.1012887980596553e-02  -2.2921910580159355e-02 5.6850372867081216e-02 9.7710003327266502e-03  -2.4004530352742460e-02 5.8148506910173064e-02 9.5432584535233515e-03  -2.4047676796230384e-02 6.6168599066818476e-02 7.0708897636715491e-03  -2.2445409993773539e-02 5.6867937121397004e-02 5.6046508368694809e-03  -1.7952083875469177e-02 1.0443754622064562e-01 2.0532563375582315e-02  -1.8293605518391997e-02 1.0589080975676331e-01 1.9083129662937355e-02  -1.8714712900536151e-02 1.0736009865808875e-01 1.6406044802423185e-02  -1.8854208810472412e-02 1.0766086776568734e-01 1.4817658676693017e-02  -1.8993255902043933e-02 1.0766413110893522e-01 1.2824504179816495e-02  -1.9086550622727870e-02 1.0740715384790998e-01 1.0356623546358646e-02  -2.3460336450050964e-02 9.6244169751594791e-02 2.0389558281122832e-02  -2.2582104900336790e-02 9.0726547993345466e-02 1.9237653002718621e-02  -2.1489758155888203e-02 9.5074289069281601e-02 1.9810817757143266e-02  -2.1396542744632562e-02 9.6467502454119045e-02 1.6640800543665232e-02  -2.2365705213808987e-02 9.2003045861720256e-02 1.5651224223023650e-02  -2.3196724747916130e-02 9.7670376507305270e-02 1.7545447028966068e-02  -2.1281294778026687e-02 9.7444263157257155e-02 1.3819650692395543e-02  -2.2165263604683662e-02 9.2944120136114902e-02 1.2507054449072160e-02  -2.2941804025828991e-02 9.8665825902808799e-02 1.4960436755400059e-02  -2.1167645465435314e-02 9.8106826309749734e-02 1.1282545660614584e-02  -2.1971778336130871e-02 9.3625307322245332e-02 9.6373576810276432e-03  -2.2692924372025303e-02 9.9330856569871964e-02 1.2625889241230842e-02  -2.1062881039184855e-02 9.8609175527957074e-02 8.4616473477294504e-03  -2.1769283839988791e-02 9.4164744846820858e-02 6.4885396578708661e-03  -2.2455341771369135e-02 9.9811973424894646e-02 1.0050211015374143e-02  -2.0917196263990755e-02 9.8963377644510131e-02 5.0863291416853220e-03  -2.1516533724979345e-02 9.4573993704307233e-02 2.8079820509022547e-03  -2.2168350954862411e-02 1.0012614863539798e-01 6.9219620645650593e-03  -2.0792186837907862e-02 9.9150644996774243e-02 1.3435017755063301e-03  -2.1293376220856856e-02 9.4838595961980438e-02 -1.2225481200524848e-03  -2.1909514257638259e-02 1.0023520328268366e-01 3.4235544666183864e-03  -2.8015314684834487e-02 1.0101626747794587e-01 1.6981475831151217e-02  -2.8926234091132211e-02 1.0071519819801730e-01 1.7428920806765433e-02  -2.6934514390361659e-02 1.0099078736907029e-01 1.6276465687895262e-02  -2.5715898632379226e-02 1.0058194891638325e-01 1.5264601698028596e-02  -2.6047244067296478e-02 6.4406299279695281e-02 1.4692461644752733e-02  -2.5399447980021621e-02 6.4909597343087946e-02 1.0343183685234340e-02  -2.2554733731148382e-02 1.0144998410915711e-01 2.0949106874034805e-02  -2.2399261761465460e-02 1.0295878405727352e-01 1.8909919199653673e-02  -2.2230964324358532e-02 1.0396364740590595e-01 1.7010719411809743e-02  -2.2054044653764777e-02 1.0457506321433296e-01 1.5285355511871461e-02  -2.1891980551112585e-02 1.0497383975582648e-01 1.3315874606086485e-02  -2.1688085417289390e-02 1.0513505873046576e-01 1.0839015783564743e-02  -2.1504093088606669e-02 1.0506065755971813e-01 7.9451806703804799e-03  -2.6945410751149763e-02 7.1772053571352148e-02 1.5864639556113721e-02  -2.6305049191927606e-02 7.2551639473298957e-02 1.1796442594933641e-02  -1.7951310692635544e-02 1.0666752286106464e-01 1.1982315843732149e-02  -1.7708010938732265e-02 1.0666618945328565e-01 1.4075653004147934e-02  -1.8136389882464500e-02 1.0640129333886829e-01 9.4289822308488425e-03  -2.2010293223388072e-02 4.5019127999397696e-02 1.3802622971828962e-02  -2.1875264404000130e-02 4.9840520133824819e-02 1.4337481903908782e-02  -2.1446371105955583e-02 4.9438090444967081e-02 9.4056327272542366e-03  -2.1550700399742231e-02 4.4463323982274199e-02 8.9754330759576652e-03  -2.1096490843141285e-02 4.4094713851765555e-02 4.7725502635096060e-03  -2.1039399840846362e-02 4.9162538704198511e-02 5.1011398249601958e-03  -2.1942050270484577e-02 5.6872726881985997e-02 1.5362111080582238e-03  -2.0619194376711444e-02 4.3788992844562821e-02 6.0997797678472455e-04  -2.0609327495022364e-02 4.8926853921089371e-02 8.6730339462942228e-04  -2.1415718351483762e-02 5.6856577468632610e-02 -2.8411246042780837e-03  -2.0140772227339405e-02 4.3491037716173048e-02 -3.8578010329837821e-03  -2.0154882627563788e-02 4.8691208411698966e-02 -3.6699841891996744e-03  -2.0890994177780141e-02 5.6842783486615006e-02 -7.5748667730049487e-03  -1.9698478253871644e-02 4.8487150028015132e-02 -8.5485706493924861e-03  -1.6049621748654076e-02 1.9966902937050203e-02 1.6062939400034466e-02  -1.5762555065321395e-02 1.7554186619488769e-02 1.2385866684369985e-02  -2.1275228739455622e-02 8.6355130255558632e-02 1.7971296549675015e-02  -2.1128207214359266e-02 8.7358975490682195e-02 1.3883404721335108e-02  -2.0983276100724282e-02 8.8108823333742675e-02 1.0362035797691576e-02  -2.0842232392391344e-02 8.8654691002175795e-02 7.0772192827492563e-03  -2.0698317398350579e-02 8.9095357500826922e-02 3.4704110421931523e-03  -2.0505245131976532e-02 8.9433917936914395e-02 -6.5290725950708074e-04  -2.0337150174178836e-02 8.9677823979705626e-02 -5.0638952793667464e-03  -2.0639727212367124e-02 6.7564109682879722e-02 1.5119153792821039e-02  -2.0400627336112791e-02 6.7754790612114688e-02 1.0182951810414677e-02  -2.0184528467469220e-02 6.7899673562625357e-02 5.8705110119485291e-03  -1.9962305125830575e-02 6.7990938639510834e-02 1.6988331987121419e-03  -1.9704408181464194e-02 6.8034171684002623e-02 -2.8014075867715447e-03  -1.9413122736537568e-02 6.8042066058205619e-02 -7.7001248785702834e-03  -1.9136869881359913e-02 6.8022700791073212e-02 -1.2857354650044927e-02  -1.5683431920535427e-02 2.4656971902179536e-02 1.5335711205772319e-02  -1.5453756036909443e-02 2.2494165961482255e-02 1.1250031309584419e-02  -1.5273547550194120e-02 2.0767100218097842e-02 7.4484454250066312e-03  -2.0074995193294202e-02 8.8615210986406026e-02 1.8108555039196342e-02  -2.0029647240835141e-02 8.9718385398893735e-02 1.4153457322370144e-02  -1.9961066752291666e-02 9.0524292681815430e-02 1.0745514631722622e-02  -1.9900386221105012e-02 9.1101363418298498e-02 7.5899152895006310e-03  -1.9847349730687754e-02 9.1569288270203358e-02 4.0986471408717296e-03  -1.9757500406072340e-02 9.1929075661857262e-02 8.4965928893871622e-05  -1.9678364664364855e-02 9.2189362526052393e-02 -4.2302491532650475e-03  -2.7679959256317662e-02 9.8948423355566834e-02 2.0771572609800532e-02  -2.7069525330541116e-02 1.0042892415130591e-01 1.9095239123328087e-02  -2.6486503814710231e-02 1.0149254986259787e-01 1.7521679587512200e-02  -2.5928600064557317e-02 1.0219263575133057e-01 1.6030175116321026e-02  -2.5369455480676047e-02 1.0263151616824655e-01 1.4399359817035854e-02  -2.4710307396129016e-02 1.0280727159745559e-01 1.2332152072323169e-02  -2.4029892318450756e-02 1.0267301752869128e-01 9.8667937465803691e-03  -1.9719252285560190e-02 6.9591203210656802e-02 1.5080326357068290e-02  -1.9542613153680357e-02 6.9806838649334221e-02 1.0139354486132427e-02  -1.9381133188011278e-02 6.9970481667721227e-02 5.8227744504336766e-03  -1.9219174740437068e-02 7.0069791967087708e-02 1.6614721367315002e-03  -1.9035194812677746e-02 7.0112621549552195e-02 -2.8192260202814490e-03  -1.8817224650247443e-02 7.0114541447164724e-02 -7.7133056864010013e-03  -1.8611533098445262e-02 7.0091339303097980e-02 -1.2846799845507519e-02  -3.1480754238904042e-02 9.4201001591114664e-02 1.8622241451311403e-02  -3.0567004107937688e-02 9.0176283349464648e-02 1.8603854590307601e-02  -2.9741268230169711e-02 9.2970998416566072e-02 1.9614977891869011e-02  -2.9011638630450164e-02 9.4488268179744345e-02 1.7578344007206904e-02  -2.9789694900068490e-02 9.1693119245049401e-02 1.6514496049851751e-02  -3.0655708613245104e-02 9.5686454763966422e-02 1.7432103645652865e-02  -2.8283936239617745e-02 9.5640077637416554e-02 1.5670647673809015e-02  -2.8995512508785567e-02 9.2855922792937723e-02 1.4554438512376861e-02  -2.9811920135784403e-02 9.6798465610547391e-02 1.6295763236233694e-02  -2.7568324941727989e-02 9.6479715010592590e-02 1.3869279783388817e-02  -2.8198496032228477e-02 9.3724244360317871e-02 1.2709451552257492e-02  -2.6812192842100142e-02 9.7099457505837913e-02 1.1932185075965945e-02  -2.7334550120271490e-02 9.4403170987861787e-02 1.0713333131891377e-02  -2.5944104586768369e-02 9.7500644586409377e-02 9.6145137197045059e-03  -2.6361858520660950e-02 9.4881499288312326e-02 8.3571872565365857e-03  -2.4998525980939722e-02 9.7649929634133062e-02 6.9053036130684014e-03  -2.5282873597011171e-02 9.5139137491414325e-02 5.6412183857018662e-03  -1.6299781176587178e-02 3.5360731007839506e-02 1.3919748986623719e-02  -1.7583285276239872e-02 3.8586088285202075e-02 1.3759609133642901e-02  -1.7318767324513051e-02 3.7486662873014123e-02 8.7010586644218346e-03  -1.6069700002316868e-02 3.4008160747160121e-02 9.0588466731435363e-03  -1.7094066176659317e-02 3.6697658227803208e-02 4.2590126185917416e-03  -1.5904435938282280e-02 3.3025351119319195e-02 4.7051811330300264e-03  -1.6148831106174918e-02 2.6516361650020821e-02 5.2515755792597492e-03  -1.6868336251610952e-02 3.6015932681129376e-02 -2.2880347933928240e-04  -1.5744218665508423e-02 3.2131192249244489e-02 2.4754034162227689e-04  -1.5934724412926926e-02 2.5364907367728656e-02 9.5100149301003615e-04  -1.6628968523682820e-02 3.5348539277891000e-02 -5.0221290243467696e-03  -1.5572165097830404e-02 3.1231434768783876e-02 -4.5194100311995045e-03  -1.7329293001843885e-02 4.4694486040902794e-02 1.3687680032619928e-02  -1.7086554618912640e-02 4.3710966076640018e-02 8.5128585649857091e-03  -1.6885901700754338e-02 4.2984944118852106e-02 3.9683351782686055e-03  -1.6698994099152563e-02 4.2342800197926835e-02 -5.6598031476000755e-04  -1.6502860381187957e-02 4.1706079390921968e-02 -5.3981363828040554e-03  -1.6288676785107672e-02 4.1099627096988910e-02 