<?xml version="1.0"?>
<VTKFile type="UnstructuredGrid"  version="0.1"  >
<UnstructuredGrid>
<Piece  NumberOfPoints="714" NumberOfCells="2958">
<Points>
<DataArray  type="Float64"  NumberOfComponents="3"  format="ascii">2.171478137168154 1.309859334646997 1.505424260637562  2.266327400593965 1.416276572378371 1.432023815598247  2.305406424771003 1.304691958039174 1.480703958381454  2.293833213677006 1.272195267170737 1.421047386937245  2.256386709372238 1.387350406335945 1.372224887076698  2.15696502944493 1.275155908974247 1.447731011433955  2.282175595730838 1.239553292974362 1.361440011198881  2.246366343749277 1.358284627696172 1.312459494445362  2.142304003500572 1.240301784247671 1.390157282546023  2.270484304551292 1.206880841079307 1.301829478338095  2.236302120930782 1.329181995054974 1.252694282351362  2.127603588815862 1.205416853463736 1.332618701677491  2.258808674984143 1.17425476931056 1.24217157728487  2.226233869481641 1.30012182086037 1.192893295684815  2.112936064751094 1.170584178000428 1.275050405541261  2.24719007089044 1.141740123203499 1.182422832927253  2.216202292439736 1.271176481351646 1.133019053538971  2.098370405737796 1.135881419076565 1.217393462955147  2.235637388122885 1.109410479614537 1.122548610476684  2.206243149640968 1.242426638974518 1.073013917584397  2.08396381816333 1.101375190776417 1.159577855227305  2.858125694931744 0.7787426506851316 2.442961464369869  2.819532983981846 0.7510203846784462 2.299045264024552  2.958693894990739 0.7542017644347682 2.318349479270927  2.961964991001333 0.6840963499821017 2.330439206047895  2.818418269824494 0.6791470616055365 2.307078962651036  2.859381255298157 0.7105910858601894 2.46050292131041  2.860537065208665 0.642423536701038 2.47804200681329  2.817152555007538 0.6072406644665352 2.315074573814912  2.965161591142708 0.613949258803663 2.342517032403511  2.861648255750915 0.5742494329518331 2.495591008799811  2.815828821541729 0.5353223777714784 2.323075486925185  2.968329553912004 0.5437987927431049 2.354604234766437  2.862740431176698 0.5060776496117693 2.513172600847997  2.814498335004849 0.4633973039350237 2.331110129220263  2.97147421830445 0.4736492078505039 2.366723493462759  2.86384239111935 0.4379107262353293 2.530808274720405  2.813212679877937 0.3914617913296445 2.339199547991799  2.974609812471653 0.4034923637874118 2.378894879175665  2.86500305820783 0.3697418230613608 2.548504498762467  2.812033664285642 0.3195117926540835 2.3473582023388  2.977790247030474 0.3332992434556866 2.391135831120317  2.717672778169885 0.8468239850122303 1.812359868147136  2.813931084736506 0.8024155756251172 1.873159725957  2.7173950388668 0.7840785830204342 1.951957955041838  2.7099224132058 0.71251054370642 1.930090932536533  2.810194120925464 0.7345137931002147 1.841801268579219  2.709586898599095 0.7814827600566094 1.776657245622399  2.702217735795317 0.640986418232516 1.908201588400322  2.806267147253084 0.6666368052751563 1.810422517012704  2.701256366891849 0.7161722913268145 1.740961244265611  2.694438346563758 0.5694773521090389 1.88630427374108  2.802281770723967 0.5987721423441332 1.779023010799753  2.692856107060877 0.6508741592661382 1.70525078335433  2.686674703722257 0.4979696335958204 1.864415248274364  2.798309363792912 0.530907752540406 1.747614711451435  2.684470183386585 0.5855805044996142 1.669521378167941  2.679000083139988 0.42645135762756 1.842549622271566  2.794410830885222 0.4630392700789054 1.716206593090401  2.676163855159319 0.5202858265234001 1.633770873659907  2.671496940395584 0.3549009183220636 1.820724774325811  2.790630173248034 0.3951698812900066 1.684792090756558  2.668020093840463 0.4549770658280635 1.598013176772473  2.954751162129228 0.7433431712537902 2.199231328866082  2.956839107014181 0.6709755048855416 2.201788887835689  2.95883020632018 0.5985538194381884 2.204298059466088  2.96078287107953 0.5261186823957009 2.206807888052017  2.962720771417548 0.4536719450725153 2.209349059065049  2.964673434453742 0.3812003792366415 2.211945278352128  2.966702342841288 0.3086754200457223 2.214608651190888  2.578068878657831 0.7653637302979251 2.272280012526093  2.545041159516503 0.7704319193362303 2.13549943142252  2.690543680123414 0.751379464624742 2.220485439503201  2.68438617355765 0.6777479170148142 2.221971434895048  2.535738627302239 0.6963808867523928 2.128578211821793  2.571103901049074 0.6919748825488947 2.27542084112469  2.563965092374952 0.6186101243197799 2.278494147645601  2.526254023622432 0.6223935120596634 2.121562383891432  2.678004256569701 0.6041347229932912 2.223382545576922  2.556751166676162 0.5452596105283742 2.281561672054019  2.516691806370852 0.5484384594010151 2.114535966450509  2.671547671771755 0.5305324346187632 2.224794477627696  2.54954229764046 0.4719142413908887 2.284659147025101  2.50714325615682 0.4744960803639795 2.107535084455835  2.665096884138012 0.4569316800611621 2.226237704909433  2.542411360041752 0.3985668802990283 2.287812065500259  2.497683421004962 0.4005488591515508 2.100588168935052  2.658725246226992 0.3833268475948926 2.227734537280566  2.535414214593139 0.3252155952497807 2.291048173673547  2.488365233379551 0.3265823968796098 2.093719433429616  2.65251916390095 0.3097071014381244 2.229306849606669  2.713987823013236 0.761102864562379 2.360782238382954  2.71100455864695 0.6894766234030743 2.371454695653461  2.707870040953207 0.61782906194317 2.382096896330188  2.704673109908128 0.5461811889351305 2.392746466114025  2.701475212454823 0.4745390778714179 2.403431483117927  2.698328789678302 0.4028986928448552 2.414168291759077  2.69527088674225 0.3312532996552502 2.424971303970516  2.811161103711802 0.7439361843625241 2.181323387300869  2.807456911324833 0.6705341749737489 2.179729931707586  2.803562937563829 0.5971121570226383 2.178082750680631  2.799605928418428 0.5236818208146747 2.17643568560469  2.795651836900694 0.4502427812008391 2.174818102123891  2.791758058124719 0.3767867333500109 2.17325205961593  2.788006191466009 0.3033090613364086 2.171747950329836  2.875444001977536 0.4824069519816077 1.896551408978217  2.885032766181998 0.4504024959709856 2.055377232337063  3.028222565697863 0.4591015796417962 2.024041408530013  2.887621898492739 0.5238091373013294 2.063528118950529  2.878292650023478 0.5539766594534183 1.916224903199504  3.031135554792422 0.386482316407059 2.015252865737576  2.872667483520483 0.4108032215830074 1.876904962114136  2.88250861520036 0.376976259944957 2.04727219296223  3.034101975318667 0.3137995965031407 2.006522033946526  2.870043853980815 0.3391581338405074 1.857295391728976  2.880144986395029 0.30350927209585 2.039226206477966  2.33590448837503 0.9604839351643033 1.740660739974369  2.461855547271008 0.9700788749620965 1.699680229372172  2.48627689698657 0.8857144008169325 1.80108134205767  2.473686796898274 0.8217625480624073 1.763039981005834  2.448830595051267 0.9156278248380529 1.650814446854448  2.320487812575565 0.9035807795257962 1.694834756056418  2.460926704538641 0.7578994884905014 1.725081194198362  2.435668810563547 0.8611600426293091 1.602078338569979  2.304957572118641 0.846714417061925 1.649144766918542  2.448114005186619 0.6940766343620598 1.687133754851158  2.422454628505331 0.8067037657975138 1.553348485542329  2.289391459059754 0.7898865222407156 1.603481442172134  2.435322699980639 0.6302766219881136 1.649174044589062  2.409267090580716 0.752274803790524 1.504576295275392  2.273861928027557 0.7331021066563024 1.557789386129023  2.422618641430378 0.566499266517809 1.611195381287661  2.396166148826799 0.6978845912330913 1.455741182053092  2.25842149723816 0.676374820155164 1.512042768696698  2.410087825372738 0.5027461420642763 1.573193490938084  2.383184040809888 0.6435520817059572 1.406838146642202  2.243079722934084 0.6197108894132221 1.466252852929412  2.603031066029796 0.8335596592085017 1.866884968072232  2.592802935308434 0.7656921517657442 1.83549290287804  2.582360876381911 0.6979112036779772 1.804133299146501  2.571846805834212 0.6301651817915128 1.772768265016158  2.561350387255858 0.562429289586419 1.741399323090591  2.550946027394599 0.49469353514639 1.710034215734221  2.5407077906571 0.4269548139187634 1.678673919441418  2.372789145647602 0.8842174386420276 1.854695562297914  2.359058982038848 0.818524483520743 1.820550416060094  2.345206293986332 0.7529426409157913 1.786479253650332  2.33129606553321 0.6874171935705911 1.752422024493848  2.317402326550074 0.6219171759534645 1.718361629656293  2.303584331512246 0.556430113580151 1.68429314781762  2.289901549095875 0.4909466253761087 1.650220757115809  2.82536131829176 0.870305237417161 1.761406863440421  2.921926376612179 0.9133926674251349 1.697434630422147  2.93065352086493 0.8247943280159318 1.831262618645128  2.823378433299246 0.8092093352091696 1.719743515518173  2.924395380601674 0.8577545260082281 1.650264186671413  2.931535103110062 0.7600864102815994 1.795747502534988  2.926844259587555 0.8020854213739655 1.603096998712253  2.821270247830196 0.748051200941535 1.678083408521539  2.932338253044263 0.6953363814609047 1.760191545680802  2.929302500967391 0.7464137566389961 1.555915160915235  2.819126542722151 0.6868835256823485 1.636396095486004  2.933118571124005 0.6305694262629702 1.724610439716522  2.931745535871728 0.6907582789798392 1.508695038197393  2.816983816434337 0.6257155953395056 1.594676741423444  2.93417527921818 0.6351264312685495 1.461416457350697  2.814875800768887 0.5645399760663825 1.552918517298347  2.93468289411329 0.5010082319516116 1.65337179002663  2.935537603052146 0.4361965775345447 1.617708785844099  2.936636100427033 0.5794895666242965 1.414108550506317  2.812859595491464 0.5033425750079601 1.511120870480287  1.61909314852576 1.435515961839519 1.555706773152887  1.658817275468362 1.527962793865104 1.469736227497901  1.757723213686891 1.428720073759284 1.530187274580987  1.746550144566283 1.387792208415137 1.479541508619159  1.653837620587346 1.487934359018609 1.419348649526156  1.610309434283778 1.391128340
[...]
<PointData  Vectors="f_24"> 
<DataArray  type="Float64"  Name="f_24"  NumberOfComponents="3" format="ascii">3.5226132425452424e-02 -8.5758011160304293e-02 -1.1104592637937467e-01  3.5650422617601180e-02 -9.1404143595195927e-02 -1.2118327435111570e-01  3.4412736558347444e-02 -8.6483164144282504e-02 -1.1003760545334480e-01  3.5132924602265241e-02 -9.1779485693117682e-02 -1.0646443222620594e-01  3.6134581598656720e-02 -9.6435591220317002e-02 -1.1865033202135740e-01  3.5751315643279068e-02 -9.0755987635306540e-02 -1.0738712333215676e-01  3.5848696724450929e-02 -9.6419274976589864e-02 -1.0302332973156335e-01  3.6652488531047578e-02 -1.0069001930570910e-01 -1.1600492555809251e-01  3.6266679253900584e-02 -9.5121957760344808e-02 -1.0384985442457921e-01  3.6573164400354789e-02 -1.0073805292047033e-01 -9.9514268739964606e-02  3.7217592946766638e-02 -1.0454074542261689e-01 -1.1310988790717905e-01  3.6796912755110184e-02 -9.9172511497102697e-02 -1.0023752192066154e-01  3.7335550975450202e-02 -1.0501853858915734e-01 -9.5793356388410189e-02  3.7838566011933882e-02 -1.0829451988267524e-01 -1.0985518901424078e-01  3.7377422328115334e-02 -1.0317119324389142e-01 -9.6407500391805526e-02  3.8161552597327793e-02 -1.0951135103919922e-01 -9.1762951748695740e-02  3.8530826659703150e-02 -1.1222586393334862e-01 -1.0615576102235080e-01  3.8054156325265709e-02 -1.0736081754411265e-01 -9.2261536324242333e-02  3.9065139496849248e-02 -1.1444814524842754e-01 -8.7378098571111007e-02  3.9314267118272794e-02 -1.1657487400287764e-01 -1.0194035537551012e-01  3.8868322655844931e-02 -1.1201970650012909e-01 -8.7813026823227169e-02  2.3262264608736503e-02 -4.8950591309566152e-02 -1.1388538361041509e-02  2.3781460131165690e-02 -4.8752924189208492e-02 -1.8035899518808296e-02  2.2910495222633786e-02 -5.1118413801865409e-02 -1.3930564941029037e-02  2.1288434177499989e-02 -4.9310595092271224e-02 -1.4184003270212298e-02  2.2344481437089166e-02 -4.6696638662020236e-02 -1.7794263631012108e-02  2.1256946042101977e-02 -4.7412773751837327e-02 -1.2203476150108267e-02  1.9304862423378873e-02 -4.6232354868737432e-02 -1.2587319624537602e-02  2.0903555992569319e-02 -4.5271862065755265e-02 -1.7160624947756869e-02  1.9681221307475943e-02 -4.8063534515384469e-02 -1.4013157963315627e-02  1.7381319830863658e-02 -4.5378489348980582e-02 -1.2748274442256926e-02  1.9454429201485195e-02 -4.4329415520353209e-02 -1.6358092646724436e-02  1.8100507670185222e-02 -4.7263824694368205e-02 -1.3662347964027072e-02  1.5466489752083297e-02 -4.4842251523586202e-02 -1.2832053288217706e-02  1.7999901060480963e-02 -4.3793738184082588e-02 -1.5509928264781363e-02  1.6541507700207160e-02 -4.6847182661959891e-02 -1.3279234784246917e-02  1.3541924939230676e-02 -4.4600317585720771e-02 -1.2971594190250934e-02  1.6543519539882100e-02 -4.3609628798125903e-02 -1.4700318904601372e-02  1.5006960914870592e-02 -4.6768290748527334e-02 -1.2961379567417922e-02  1.1603001246263048e-02 -4.4648401300500448e-02 -1.3246960305027207e-02  1.5091200140957833e-02 -4.3740249646929907e-02 -1.3991464098865170e-02  1.3499271165908948e-02 -4.6987496679179327e-02 -1.2779156905806069e-02  2.8012106307723144e-02 -6.1650924869870692e-02 -4.7986004105776213e-02  2.6806378739168406e-02 -5.8890011890417614e-02 -4.0153036263993615e-02  2.6722944233685375e-02 -5.5548826003923982e-02 -3.7659210521159829e-02  2.6843188235748633e-02 -5.4382727308697712e-02 -3.3535320811725937e-02  2.7173753765054445e-02 -5.8550479727098037e-02 -3.5460824741449674e-02  2.8684887161638931e-02 -6.2008730435499586e-02 -4.2646804495857983e-02  2.6835844169480923e-02 -5.4069736482569568e-02 -2.9675675220573763e-02  2.7406884841752816e-02 -5.9025460506637886e-02 -3.1213938071090172e-02  2.9202310600503791e-02 -6.3008204234293361e-02 -3.7798753765322761e-02  2.6733371841675443e-02 -5.4372181723655932e-02 -2.6003395736977169e-02  2.7600835496183224e-02 -6.0077966975798723e-02 -2.7215706816283228e-02  2.9634296302206653e-02 -6.4521305935459683e-02 -3.3281308792642475e-02  2.6588668675915715e-02 -5.5149808404523874e-02 -2.2463091639727494e-02  2.7788859585662240e-02 -6.1580836790076261e-02 -2.3367675862166763e-02  3.0029651915686812e-02 -6.6454243128857948e-02 -2.8962154511276525e-02  2.6433483411769709e-02 -5.6313000736756269e-02 -1.9015745593451549e-02  2.7999593407666182e-02 -6.3460821888258995e-02 -1.9607280001684661e-02  3.0416319150070318e-02 -6.8746076009262275e-02 -2.4750946637829653e-02  2.6291141174213280e-02 -5.7798671512638684e-02 -1.5630429373713256e-02  2.8261004347664508e-02 -6.5647250707156199e-02 -1.5886943402084491e-02  3.0800571353735300e-02 -7.1370259971554592e-02 -2.0594894388441823e-02  2.3398621470128039e-02 -5.1901442329111494e-02 -1.9050971246173311e-02  2.2233085146809658e-02 -4.9776070768680979e-02 -1.8285313871156405e-02  2.1058419894908229e-02 -4.8431594207530758e-02 -1.7191535221784588e-02  1.9891922776475605e-02 -4.7669958876454026e-02 -1.5974537398891916e-02  1.8751414524298435e-02 -4.7364869526783149e-02 -1.4750531290144064e-02  1.7647427796828260e-02 -4.7431486477741786e-02 -1.3586422850521364e-02  1.6588330546604725e-02 -4.7824658400103262e-02 -1.2520362669402946e-02  2.5606246302718797e-02 -4.5255790078660978e-02 -2.5825073079026956e-02  2.6589979890930808e-02 -4.8166658797546551e-02 -3.2722273666358728e-02  2.4987079015235718e-02 -4.7835912233081909e-02 -2.4726336085200633e-02  2.4022559068481684e-02 -4.5610278232186621e-02 -2.3366258201948920e-02  2.6124992143745994e-02 -4.6099878941916451e-02 -3.0104882396246126e-02  2.4511923683176829e-02 -4.3002007992768487e-02 -2.4524992843977349e-02  2.3343300831284251e-02 -4.1392161927338050e-02 -2.3001659553428186e-02  2.5507324574535493e-02 -4.4831755849708270e-02 -2.7380350312549321e-02  2.2957458668444071e-02 -4.4101342212686301e-02 -2.1760947479079334e-02  2.2114299078623709e-02 -4.0317637297310881e-02 -2.1377066780458750e-02  2.4795146134420028e-02 -4.4152065225377485e-02 -2.4673101614159556e-02  2.1845001350590056e-02 -4.3155034426065858e-02 -2.0069680788135747e-02  2.0842094023104243e-02 -3.9684069408325237e-02 -1.9729561332748537e-02  2.4016657601651645e-02 -4.3942506094148064e-02 -2.2011678566495378e-02  2.0698240165402441e-02 -4.2662235015030921e-02 -1.8371089058138130e-02  1.9535208867311107e-02 -3.9423688704314772e-02 -1.8115914674407752e-02  2.3194015462860870e-02 -4.4118966056616499e-02 -1.9415235672547871e-02  1.9530220940097529e-02 -4.2548100731678029e-02 -1.6718461609480123e-02  1.8207791886374270e-02 -3.9503393306505742e-02 -1.6572043703043965e-02  2.2355636992293253e-02 -4.4625730273594948e-02 -1.6891895017869186e-02  1.8346003723934773e-02 -4.2754100839259825e-02 -1.5146193724652703e-02  2.4228736511825427e-02 -4.6183989626746767e-02 -1.8409375057101437e-02  2.2623635003000429e-02 -4.4140197546645846e-02 -1.8254491371278828e-02  2.1014623028958040e-02 -4.2654114091395898e-02 -1.7766301443264611e-02  1.9400107867705706e-02 -4.1622960657156420e-02 -1.7083959088013981e-02  1.7768697717702713e-02 -4.0968294992400449e-02 -1.6354716308023674e-02  1.6114759472352629e-02 -4.0651310736659646e-02 -1.5656519777522956e-02  1.4440098927662523e-02 -4.0635982932891897e-02 -1.5049472600509381e-02  2.4354141553662102e-02 -5.0179471289070951e-02 -2.3308378375042502e-02  2.3459193371556535e-02 -4.7996739594944125e-02 -2.1954588930330639e-02  2.2488853211049899e-02 -4.6619866182968872e-02 -2.0361238983694897e-02  2.1485092339405223e-02 -4.5832437340381671e-02 -1.8678257950468402e-02  2.0471897019072594e-02 -4.5510475075353760e-02 -1.6983779754716776e-02  1.9463281536291979e-02 -4.5569936257508790e-02 -1.5331267010292067e-02  1.8465623867135239e-02 -4.5952686637867210e-02 -1.3759592140364225e-02  2.4573036516116316e-02 -5.4478482897013875e-02 -1.8990315788653733e-02  2.1704606332934979e-02 -4.9238776089797959e-02 -1.6742287560858528e-02  2.1186310921035047e-02 -5.1364927769889906e-02 -1.5448945765285542e-02  2.2401879108269539e-02 -4.9217500140300199e-02 -1.8940881856599385e-02  2.4812961174097654e-02 -5.3870056170698538e-02 -2.2065987317219243e-02  2.0615030741051442e-02 -5.1876442185151327e-02 -1.3368311575113133e-02  2.4361917975837200e-02 -5.5473995501976736e-02 -1.6000756227300426e-02  2.1028136145015648e-02 -4.9644841367960893e-02 -1.4614033020158785e-02  2.0105733933533827e-02 -5.2692461064697993e-02 -1.1375382763021510e-02  2.4175349814914864e-02 -5.6821916290814629e-02 -1.3082066125403606e-02  2.0364502448858169e-02 -5.0344174655915078e-02 -1.2571331625661774e-02  3.1364109437724517e-02 -6.5879876780443103e-02 -6.7824445975039033e-02  3.0821881057272484e-02 -6.8155411349729231e-02 -6.8289347769995110e-02  2.9683118841350890e-02 -6.2024396635825471e-02 -5.6183802693908567e-02  3.0542822858303623e-02 -6.2933162784807081e-02 -5.0421834690342088e-02  3.1923232475760482e-02 -7.0919911236652311e-02 -6.2326074264173532e-02  3.2350454326030342e-02 -6.8195025371104695e-02 -6.1902327881887396e-02  3.1161460528689771e-02 -6.4382114498797063e-02 -4.5248797120881389e-02  3.2807105339379132e-02 -7.3836723361556833e-02 -5.7079975640479341e-02  3.3122813183293312e-02 -7.0778019037893561e-02 -5.6626503961613013e-02  3.1655807797286356e-02 -6.6258358160218286e-02 -4.0403774341784326e-02  3.3583196687632592e-02 -7.6979124946547475e-02 -5.2194557082453123e-02  3.3766531309528842e-02 -7.3607294370678131e-02 -5.1686928105729515e-02  3.2083217226880061e-02 -6.8502700110689416e-02 -3.5740074904770790e-02  3.4308352249413587e-02 -8.0389718586757281e-02 -4.7464236255968253e-02  3.4352024965198208e-02 -7.6714519520032998e-02 -4.6888087918471405e-02  3.2483126665828511e-02 -7.1090883757679607e-02 -3.1163178351155073e-02  3.5023409606040744e-02 -8.4109914205568959e-02 -4.2768880897972879e-02  3.4922766028969217e-02 -8.0136250870792125e-02 -4.2119069237171784e-02  3.2878121122523696e-02 -7.4002287087380311e-02 -2.6613669872193928e-02  3.5765341461768102e-02 -8.8178299721441367e-02 -3.8042103375640554e-02  3.5503887111581145e-02 -8.3894722710290581e-02 -3.7320525429226280e-02  2.8263951153324907e-02 -5.8793388689784475e-02 -4.7113598425259022e-02  2.8823513947621237e-02 -5.8680219549392489e-02 -4.1997286477612590e-02  2.9224276629655748e-02 -5.9253164671307347e-02 -3.7312358601637632e-02  2.9497781808081124e-02 -6.0354694141965648e-02 -3.2906911826489117e-02  2.9708189821804332e-02 -6.1892228420795323e-02 -2.8670639424739935e-02  2.9890789492048073e-02 -6.3800368577480129e-02 -2.4532954091507016e-02  3.0067999079725179e-02 -6.6041878665768550e-02 -2.0443788657718936e-02  3.0038302186743419e-02 -5.9129817735823660e-02 -5.6169940922763117e-02  3.0753599364281570e-02 -5.9564044349700654e-02 -5.0577225309086649e-02  3.1267740698020824e-02 -6.0565866517491136e-02 -4.5459644133699399e-02  3.1631840189840207e-02 -6.2029823218062517e-02 -4.0652485794412219e-02  3.1910613504709445e-02 -6.3877317178458140e-02 -3.6020302363210396e-02  3.2150131876696075e-02 -6.6068634979961308e-02 -3.1476066312887178e-02  3.2381900219768812e-02 -6.8594071964577952e-02 -2.6964687350080521e-02  2.7909192311779761e-02 -6.4159009744737483e-02 -4.9845306090085424e-02  2.8047860677507044e-02 -6.7493412627754559e-02 -5.3787622181076994e-02  2.6445054528485109e-02 -6.1085472052805116e-02 -4.1289727081672098e-02  2.8602752762201315e-02 -6.5280074241741884e-02 -4.4253427425044588e-02  2.8836696725978508e-02 -6.9500914829276367e-02 -4.8056024913823055e-02  2.6869370169348660e-02 -6.1162995380309837e-02 -3.6215835197360442e-02  2.9643197572267382e-02 -7.1884804777818848e-02 -4.2966963211392505e-02  2.9236594966732286e-02 -6.6906311091040491e-02 -3.9240989539963154e-02  2.7211079496344336e-02 -6.1961678012731128e-02 -3.1754763155625400e-02  3.0459175169768433e-02 -7.4587113593904963e-02 -3.8276786668444425e-02  2.9842349618524930e-02 -6.8972492344639383e-02 -3.4629920772903167e-02  2.7550040455738604e-02 -6.3319536298850176e-02 -2.7632361303861236e-02  3.1310931113942737e-02 -7.7606028357343301e-02 -3.3796853961240811e-02  3.0451519783078800e-02 -7.1423424223603718e-02 -3.0233996326593536e-02  3.2222195423613258e-02 -8.0959945234807651e-02 -2.9407978698947446e-02  3.1090962233834354e-02 -7.4224633026163819e-02 -2.5939902086788220e-02  2.8354873066787370e-02 -6.7276645102094218e-02 -1.9874557489254305e-02  2.8836464037507750e-02 -6.9762205497489210e-02 -1.6104668925084588e-02  3.3195727885752979e-02 -8.4639529159458715e-02 -2.5033234793962723e-02  3.1786862638386919e-02 -7.7372800723330706e-02 -2.1685781328789178e-02  4.1199283223868316e-02 -8.5706391533193121e-02 -1.2060345116651704e-01  4.2646449171950089e-02 -9.1832878458447120e-02 -1.2764535045598158e-01  3.9781972705703023e-02 -8.7295860625458951e-02 -1.2122969395023764e-01  3.9483276080930212e-02 -9.0994165878195629e-02 -1.1795267497056867e-01  4.1972159724330577e-02 -9.4970487721032990e-02 -1.2535456800597927e-01  4.0723226879433146e-02 -8.8984979621798091e-02 -1.1719734642470657e-01  3.9236244324270739e-02 -9.4121697416831712e-02 -1.1465267476714934e-01  4.1387103476549836e-02 -9.7543881582867281e-02 -1.2291893269512355e-01  4.0292462280126153e-02 -9.1740451385704164e-02 -1.1377973452567199e-01  3.9038058555568855e-02 -9.6884335899222088e-02 -1.1119646660334441e-01  4.0868650734950253e-02 -9.9718445118390536e-02 -1.2024207255623172e-01  3.9909495658773088e-02 -9.4153263314751282e-02 -1.1022653521365945e-01  3.8907060908281679e-02 -9.9463485906395491e-02 -1.0745346946739485e-01  4.0403446727715585e-02 -1.0163227918018534e-01 -1.1721714004052596e-01  3.9587697344730173e-02 -9.6372568697087699e-02 -1.0641952765870524e-01  3.8887253834997318e-02 -1.0203764831914294e-01 -1.0329169609786309e-01  3.9999607845599292e-02 -1.0341389381992119e-01 -1.1371055564180599e-01  3.9362908618102224e-02 -9.8526274545493342e-02 -1.0223833141021818e-01  3.9050943825316604e-02 -1.0481445955449976e-01 -9.8599062002282439e-02  3.9695034708988178e-02 -1.0526571650229299e-01 -1.0955490396178852e-01  3.9298550338056105e-02 -1.0066071175063464e-01 -9.7552964423062397e-02  2.6973065791125867e-02 -4.5063531580863334e-02 -3.2859427274018624e-02  2.6342605689947712e-02 -4.2956019582080646e-02 -3.0482223159346622e-02  2.5582346010936660e-02 -4.1596917845028676e-02 -2.8006194961619737e-02  2.4731893113260975e-02 -4.0786210512958193e-02 -2.5498192902042700e-02  2.3814877633856684e-02 -4.0426229957545301e-02 -2.3003457806336121e-02  2.2846495208966325e-02 -4.0448911381366311e-02 -2.0552137970915853e-02  2.1829972394864179e-02 -4.0789119470395124e-02 -1.8165750726926257e-02  2.5388530615536916e-02 -5.5760785169364030e-02 -3.2141958017333487e-02  2.5281151704392522e-02 -5.4314933222400330e-02 -2.8602061930640462e-02  2.5064171508272039e-02 -5.3757010270275296e-02 -2.5253978349529690e-02  2.5381695510796436e-02 -5.2702847290279756e-02 -2.9997929945388770e-02  2.5038748969849995e-02 -5.0869715897597680e-02 -2.7247419993842874e-02  2.4570574760956584e-02 -4.9821999489343773e-02 -2.4479493695652759e-02  2.4044039096344977e-02 -4.9432801913337036e-02 -2.1754991884937548e-02  2.3493984306272687e-02 -4.9543032934712225e-02 -1.9091668913615172e-02  2.2941493002409760e-02 -5.0048371921856454e-02 -1.6496775937520029e-02  2.2395509724072428e-02 -5.0899678589703429e-02 -1.3983376121977470e-02  3.0684297780491705e-02 -7.1118217594549921e-02 -6.9634165244469332e-02  3.0347431205627839e-02 -7.3187838715413248e-02 -7.1091885080912659e-02  2.9311652781531420e-02 -6.7964999667433301e-02 -5.8345959610937768e-02  3.0286725309844310e-02 -7.0010445275337757e-02 -5.2375638883647227e-02  3.1539641965501554e-02 -7.7011746155483479e-02 -6.5302023644714727e-02  3.1869428095174610e-02 -7.4407601850218844e-02 -6.3773951028394296e-02  3.1133757671267935e-02 -7.2521303636401399e-02 -4.7113959705834936e-02  3.2623363219769760e-02 -8.0787471036710454e-02 -6.0259337084478101e-02  3.2854835802235069e-02 -7.7782797083183600e-02 -5.8652490170892364e-02  3.1925212682958636e-02 -7.5345867525080740e-02 -4.2234663612823742e-02  3.3657892581756062e-02 -8.4674133991698153e-02 -5.5574798695149960e-02  3.3756558822222518e-02 -8.1331337256066755e-02 -5.3863668522927011e-02  3.2699758541184232e-02 -7.8481420214457684e-02 -3.7544965574057829e-02  3.4679871891950743e-02 -8.8776454754661116e-02 -5.1028145414667214e-02  3.4624990621249817e-02 -8.5120282389666332e-02 -4.9212419419770149e-02  3.3486261922007036e-02 -8.1940069177375660e-02 -3.2933155429517524e-02  3.5715723981477758e-02 -9.3174122140550736e-02 -4.6496470905024047e-02  3.5490703744272559e-02 -8.9210985483430344e-02 -4.4583208125197740e-02  3.4312821800573629e-02 -8.5717361752816593e-02 -2.8329474385016012e-02  3.6783253383633183e-02 -9.7925649548642552e-02 -4.1913461800815469e-02  3.6365703087918512e-02 -9.3648141709493621e-02 -3.9912928974365935e-02  2.9444632406765456e-02 -6.5137820028650498e-02 -5.7684213775243666e-02  3.0389783457169396e-02 -6.6581260990001459e-02 -5.1834752681894636e-02  3.1143244953962968e-02 -6.8481677269982902e-02 -4.6549891817168815e-02  3.1789766358640351e-02 -7.0758359278057861e-02 -4.1642736920218533e-02  3.2384202430443654e-02 -7.3374231695811448e-02 -3.6939655493795139e-02  3.2960812652636673e-02 -7.6312977892033604e-02 -3.2331626359226873e-02  3.3537166716259462e-02 -7.9571138116547327e-02 -2.7751155227372783e-02  3.6541653458135252e-02 -9.0589417464597061e-02 -1.2158695196950385e-01  3.6796933798232234e-02 -9.5326237740931907e-02 -1.1880979051251168e-01  3.7107646768831971e-02 -9.9345137846279907e-02 -1.1594474484570773e-01  3.7468283276573151e-02 -1.0296804966515877e-01 -1.1285726066816315e-01  3.7892417693280708e-02 -1.0647595295195221e-01 -1.0943797886084267e-01  3.8414256810673099e-02 -1.1011485344017147e-01 -1.0560221517346365e-01  3.9102910424546500e-02 -1.1408365045422578e-01 -1.0124271632759835e-01  2.4383066659943380e-02 -5.2825069965774872e-02 -2.5590244331923393e-02  2.3796413972146616e-02 -5.0790017848614984e-02 -2.3426939726238206e-02  2.3108750841666373e-02 -4.9683410490420264e-02 -2.1184098928763811e-02  3.1491044159826356e-02 -6.1843993179404311e-02 -6.5251287280317358e-02  3.2386104918957478e-02 -6.3519111928383165e-02 -5.9426715972540650e-02  3.3045963498561509e-02 -6.5548179513239324e-02 -5.4234095462166489e-02  3.3552126118290497e-02 -6.7883441825727711e-02 -4.9354720633589810e-02  3.3985528653395707e-02 -7.0526599858261332e-02 -4.4607742889394619e-02  3.4393366213728516e-02 -7.3490397646853195e-02 -3.9888851256532486e-02  3.4806219888052173e-02 -7.6776343971835581e-02 -3.5141131889556136e-02  2.7773460249731409e-02 -5.0544640600536518e-02 -3.9621987612347830e-02  2.7745116961816207e-02 -4.8996357821282262e-02 -3.5900721575000731e-02  2.7543744691487557e-02 -4.8199962253378928e-02 -3.2298280502281174e-02  2.7223841067445877e-02 -4.8001501950099473e-02 -2.8802309642368643e-02  2.6827596275010055e-02 -4.8274141881865310e-02 -2.5390923560777358e-02  2.6382936164242091e-02 -4.8935231506849829e-02 -2.2049663447786305e-02  2.5895029819919417e-02 -4.9938364998979801e-02 -1.8771621361081577e-02  2.9259717509571230e-02 -7.1125303358476652e-02 -6.3327065375411759e-02  3.0278612933392710e-02 -7.4170452490792252e-02 -5.7442957364508496e-02  3.1275569045334829e-02 -7.7329997710971002e-02 -5.2222835157796639e-02  3.2261336421642216e-02 -8.0692736801588158e-02 -4.7402306756233158e-02  3.3256829566756387e-02 -8.4315528840944315e-02 -4.2769326838286277e-02  3.4280960402458635e-02 -8.8242431083022141e-02 -3.8201121469475303e-02  3.5342583614365666e-02 -9.2508918533050724e-02 -3.3633602118536568e-02  3.3953649854233173e-02 -7.0724267421469394e-02 -8.9607966922659738e-02  3.3423039672532684e-02 -7.3230215938091064e-02 -8.9279263568897024e-02  3.2709614248393921e-02 -6.6703606717200534e-02 -7.7597485208450376e-02  3.3671035062394564e-02 -6.9797864670841231e-02 -7.1861339972799781e-02  3.4315141017427192e-02 -7.7388554345995064e-02 -8.3958856724934194e-02  3.4750625732698964e-02 -7.4580488492387867e-02 -8.4252732137815950e-02  3.4399312889449259e-02 -7.2823317391882983e-02 -6.6794247954687996e-02  3.5033223457586408e-02 -8.1194646365275167e-02 -7.9149005140236275e-02  3.5365179130465586e-