<?xml version="1.0"?>
<VTKFile type="UnstructuredGrid"  version="0.1"  >
<UnstructuredGrid>
<Piece  NumberOfPoints="714" NumberOfCells="2960">
<Points>
<DataArray  type="Float64"  NumberOfComponents="3"  format="ascii">11.46918238537791 3.73144422164939 3.690194489027493  11.34371061177841 3.833511991213953 3.624466178810795  11.35291028153968 3.700808976165242 3.712626405680792  11.35681082491192 3.740928279920273 3.781021273376167  11.34473509392808 3.881579040355123 3.687341419570479  11.47180675023099 3.772836754733573 3.76066206336606  11.34547945836829 3.930155655795188 3.750051684343204  11.47404260221692 3.814443242983587 3.831407470748881  11.36022369092216 3.781632713248555 3.849542419029982  11.34618252976586 3.978959755774821 3.81278426391396  11.47599470384265 3.856380046820278 3.902415013121464  11.36348271973778 3.822643717379771 3.91824786588638  11.34684031348935 4.027945674179016 3.875607689522013  11.47789784378288 3.898645463317317 3.973709511716842  11.36675242175493 3.863833160843714 3.98721199949969  11.47965987768687 3.941261307144691 4.045192685947126  11.34740185876545 4.077055397616475 3.938712801316399  11.37004611918152 3.905134767778785 4.056456018808102  11.48088569169225 3.984144492222966 4.117032307301804  11.34791824705297 4.126127915275148 4.002179110151451  11.37316019227145 3.946266847151567 4.126251059751003  11.2460374211805 3.753234248156851 3.688371533731913  11.246950230679 3.796984388653835 3.752457297276558  11.24739810228192 3.841478305703868 3.816401638955701  11.24782373449721 3.886212732215935 3.880458645456128  11.24837716116403 3.931070738069276 3.944705613065913  11.24901263347475 3.975936109096617 4.009241594164979  11.24965736812706 4.020500473484151 4.074327679052863  11.23846742649318 3.883940717901376 4.152075690308184  11.36543766038788 3.82463596333 4.193943880873625  11.26922531575589 3.698012872189707 4.251240888311938  11.36085872654446 3.788151871485925 4.121336943976075  11.23641587419255 3.845196745526386 4.083531442332861  11.57968909449776 4.172444903414744 3.286354144223992  11.47327957716026 4.244717834837856 3.179852870983885  11.46584009184255 4.163270913514527 3.291987766139888  11.46317770359644 4.229539496590458 3.340264354185062  11.46934693599292 4.314103965455496 3.224379609932178  11.57908063311549 4.240619149141441 3.337602613167407  11.46054360440962 4.295488106048953 3.388316862944234  11.46555447264765 4.383019063671678 3.268562266154215  11.5785674460741 4.308120060166974 3.389109041573052  11.45791801962162 4.36118489969384 3.436130901575895  11.46194847995987 4.451489953576115 3.312542699906551  11.57798354237897 4.375198144175794 3.44068194378512  11.45533848784068 4.426758430327775 3.483776139729026  11.45843164688996 4.519499320124066 3.356350664435209  11.57732431644398 4.441961382013037 3.492246276241959  11.45272455923953 4.4922964873907 3.531298957290003  11.45502647685232 4.58718796939961 3.399837396372932  11.57660232512435 4.508691637170283 3.543483054410919  11.45017844204175 4.557983434261133 3.578467432114208  11.4517183022992 4.654786114661494 3.442900688990457  11.57586582324338 4.576052041155287 3.593683876800158  11.57560341328602 3.623611096511887 3.74032435429673  11.46053080574224 3.60442977943654 3.752723139388646  11.46521089429913 3.639113709069086 3.825782951058664  11.57754836957126 3.65835140127593 3.816060166775535  11.46940283176125 3.674107793033036 3.899300688285966  11.57923822408618 3.69278056990432 3.892789358458775  11.47334485546836 3.709417282003345 3.973268000491342  11.58068453135653 3.727653789448863 3.970136565169192  11.47718684019248 3.744969651630327 4.047691385678826  11.58206615558927 3.76299075068261 4.047965327014644  11.48092353612918 3.780615900356338 4.12251797651202  11.58336019988784 3.798598793411903 4.126193879293938  11.48440699066859 3.816295637872277 4.197718874744734  11.58382818509983 3.834415300439505 4.204565577104862  11.57844677526365 3.738464690540761 3.680530632893011  11.46756865742937 3.839192408386794 3.616266686658406  11.46790129647586 3.886626270016854 3.682755175203503  11.57963344632785 3.779629462590098 3.753442688168564  11.46815883098545 3.934208405131616 3.749341017761532  11.58015882074234 3.820648497250886 3.827223227291856  11.46830133397914 3.982068404243278 3.816029476549775  11.58035188373766 3.862033595349988 3.901652916360987  11.46833385886567 4.030180495606142 3.88289017447571  11.58057290884819 3.903947376338153 3.976455992639976  11.46816321216406 4.078581111986967 3.949956011690437  11.58073753429909 3.946495676033158 4.051524609312201  11.4676282804125 4.127387415435318 4.017089054203049  11.57972359637428 3.989548231932167 4.126444808365652  11.3707703739265 4.225218161081278 3.19769369704985  11.36542526449432 4.2919953512064 3.240409874250699  11.36014028522537 4.358600187732889 3.282518547554118  11.35507837542638 4.424881731493211 3.324321016947902  11.35014768472766 4.490872197406844 3.365923677020922  11.34536930485709 4.556630990534407 3.407403313984672  11.34063002258987 4.622143592453204 3.448840209319417  11.22967829200146 3.68924190319141 3.812944655494883  11.34341226225927 3.642117170971847 3.8360626872306  11.2313585020569 3.727969754621862 3.88019942862092  11.3479480184488 3.678338840373875 3.906863352158182  11.2328706258029 3.767034542358842 3.947660464179648  11.3522103071009 3.714888153531346 3.977921198182944  11.23452846260831 3.806143300636851 4.015450352149493  11.3564973264638 3.751515802618091 4.049388909058175  11.69600000000055 3.630763806468095 3.737036453586096  11.69600000000063 3.666462970571423 3.815495461990891  11.69600000000071 3.701766289017011 3.895151097302006  11.69600000000079 3.737606117120238 3.975480932164208  11.69600000000087 3.77402940098655 4.056298682187216  11.69600000000095 3.811008535305656 4.137292153675294  11.69600000000103 3.848418284394836 4.217915467478905  11.22737042915379 3.651319631365714 3.745762915125434  11.69600000000087 4.018735309475316 3.464609420607696  11.58196708963266 4.102034283587769 3.37928578594647  11.58051946314716 4.017309224635291 3.465943890672246  11.5806375834429 4.076151144696746 3.527136597119302  11.58178568710586 4.16647950057361 3.435025634113892  11.69600000000093 4.079893050619881 3.527921406033551  11.58055641204112 4.134254399268258 3.589210212983818  11.58117639303048 4.230421745189482 3.491246727949935  11.69600000000076 4.139887982183489 3.592620020421385  11.58037113442438 4.192256100092409 3.651462347335186  11.58063276455888 4.294295045869469 3.547464320721534  11.6960000000008 4.199752515038924 3.657591164052785  11.58007826116832 4.250388893647565 3.713586194412517  11.58009671924524 4.358265621886211 3.603747075856518  11.69600000000085 4.260036603646779 3.722398394340008  11.57967744824094 4.308758979158347 3.775320832462877  11.57949881822993 4.422621104451885 3.659814599497672  11.69600000000089 4.321142710593269 3.786549646680891  11.57862983818231 4.366890074648653 3.836547823028868  11.57803280919568 4.488074230085314 3.714733303570161  11.69600000000121 4.381963756637338 3.850263328868871  11.21546257710289 3.847489500414545 3.61422942382992  11.21310477841455 3.897500707345594 3.672104546356432  11.21039792946112 3.948209120775739 3.729660872553662  11.20772447607908 3.999152622478721 3.787222571775391  11.20514359176058 4.050199566212099 3.844880014747615  11.20259900614678 4.101203599616079 3.902748118141715  11.19993904297348 4.151827841116187 3.961017278269314  11.58444337248377 4.240799244102333 3.18736462675164  11.58421324029966 4.311599631536141 3.235849600660918  11.58395735772116 4.38146003357384 3.284641436134823  11.58380551744355 4.4506756629657 3.333455604256558  11.58372921315986 4.519381046978777 3.382114341609127  11.58375197556483 4.587794504007434 3.430332807354123  11.58372198302297 4.656435370202066 3.477597598084584  10.47860723698679 3.928558189886968 3.308431541787129  10.36118986532486 3.907990475051471 3.302475159805783  10.46673425603013 3.868380203218329 3.3966738197255  10.45477491629049 3.917869537387629 3.431905474906636  10.35077702211417 3.958105093484964 3.333568754948414  10.46588437028027 3.97833449585129 3.340553396755782  10.44294662763792 3.967587654677268 3.467084785659241  10.3404692191186 4.008393813366372 3.364617409851433  10.45329561632337 4.028326241482811 3.372612729338906  10.43109934099477 4.017438633170357 3.502342728683554  10.33015162441887 4.058814231481336 3.395744040456969  10.44071244940665 4.078440879971421 3.404722468251649  10.41919553852063 4.067393708980203 3.537695131651466  10.31978989567081 4.109345267552897 3.426958180700399  10.42808476972245 4.12863635152249 3.436906373823825  10.40717316136161 4.117433878735234 3.573172357644894  10.3093413100273 4.15998571923384 3.458286452962535  10.41534486814403 4.178881574274385 3.469200856536849  10.39497834622502 4.16755774041655 3.60881216141247  10.29876956796837 4.210746902126964 3.489759883616857  10.40240567842289 4.229182199372072 3.501677048075291  11.46580652736781 4.094561953278747 3.382878526848265  11.35029030409351 4.095729317781872 3.377571696131348  11.34573011013955 4.157411457740709 3.426939963617716  11.46404154757028 4.156529248525016 3.436697622966185  11.34110950810685 4.219191026369195 3.475825699243452  11.46214960871955 4.218326003288025 3.490420345417471  11.33660344227252 4.280893650867897 3.524454905198434  11.46026311645474 4.280045152112219 3.543937204754859  11.33223904693407 4.342535387367573 3.57290775462985  11.45851720688846 4.341784223617501 3.597220027672185  11.32787483280243 4.404062928964988 3.621287328610113  11.45660180477544 4.403514250348969 3.650342041073701  11.32336082585402 4.465351103891424 3.669778377588241  11.45434971101007 4.465364625626904 3.703137384770769  11.6960000000008 3.931608088963499 3.545714238976104  11.58107721521189 3.929298303563502 3.546901694371959  11.58204026917351 3.983717303812641 3.611630325235435  11.69600000000086 3.987225528254204 3.61312993926572
[...]
<PointData  Vectors="f_24"> 
<DataArray  type="Float64"  Name="f_24"  NumberOfComponents="3" format="ascii">-4.6652015483968183e-02 6.5165570936639119e-02 -5.7538382417184432e-02  -4.6018317740163808e-02 7.5832928594959950e-02 -4.5177470386966935e-02  -4.4902277816649835e-02 6.2610043380095057e-02 -5.7303217960845206e-02  -4.3025469405194736e-02 5.4993878663177093e-02 -5.5332537230630523e-02  -4.4105000040169005e-02 6.8240220619224634e-02 -4.1653050318615437e-02  -4.4453363109774685e-02 5.7314958164519390e-02 -5.5260735638006500e-02  -4.2117674586385039e-02 6.1203984645570170e-02 -3.8064640689560565e-02  -4.2164800518862976e-02 4.9992404783840129e-02 -5.2821940483699155e-02  -4.0989838090500205e-02 4.7946868529894569e-02 -5.3073586994110161e-02  -4.0127023748911111e-02 5.4431514048254102e-02 -3.4360571164145821e-02  -3.9848991796951283e-02 4.2963713185175542e-02 -5.0146326878381789e-02  -3.8900452142360271e-02 4.1208071998178039e-02 -5.0536180481648506e-02  -3.8163759274561240e-02 4.7741511768731808e-02 -3.0474637257284175e-02  -3.7548062360382113e-02 3.6024789984452722e-02 -4.7190910679693783e-02  -3.6816999916539778e-02 3.4571526395613242e-02 -4.7700853037844708e-02  -3.5304167305833779e-02 2.9007627230007795e-02 -4.3910093628121163e-02  -3.6245638688961274e-02 4.0952232665468491e-02 -2.6366260312559273e-02  -3.4787226088593047e-02 2.7866188157970907e-02 -4.4568884105358739e-02  -3.3138376340806741e-02 2.1753858539707530e-02 -4.0290479356175253e-02  -3.4397504466712074e-02 3.3944475436955869e-02 -2.2024630892782029e-02  -3.2856026321574174e-02 2.0930630070534785e-02 -4.1137341821401267e-02  -4.4031638172288445e-02 6.7262671681531785e-02 -5.0431309304547915e-02  -4.2277322608472438e-02 5.9729670271156936e-02 -4.7735176072037318e-02  -4.0396757203641123e-02 5.2754367173828184e-02 -4.4750072327907307e-02  -3.8481028808340534e-02 4.6067154595456523e-02 -4.1542474870365810e-02  -3.6591454368426181e-02 3.9469109219759400e-02 -3.8084263822952304e-02  -3.4772086791034031e-02 3.2796315305220154e-02 -3.4352436099643884e-02  -3.3056104642633082e-02 2.5905533562705984e-02 -3.0355272189669286e-02  -3.2265640549760610e-02 1.8265464628795976e-02 -4.3923526947644662e-02  -3.1935324394680255e-02 1.5035125584634433e-02 -5.2711801919520372e-02  -3.1137405232525010e-02 1.0804702873123665e-02 -6.1631323986214452e-02  -3.3868215095297957e-02 2.1537055273229577e-02 -5.5578786158893327e-02  -3.3909348077148710e-02 2.4822905312882879e-02 -4.7220944213321271e-02  -4.9564454632431948e-02 1.1213251755803137e-01 -1.6893879055796899e-02  -5.0720953427811612e-02 1.2130723903748876e-01 -8.2293503553301731e-03  -5.0036510400085339e-02 1.1262284476127021e-01 -1.5651972280948064e-02  -4.8374259499288579e-02 1.0777361919994723e-01 -1.0224497843407251e-02  -4.9226751845332165e-02 1.1766796448071155e-01 -3.3326134697963935e-03  -4.8272114946746436e-02 1.0705408250571108e-01 -1.1367705900961365e-02  -4.6833877926627521e-02 1.0307698386973381e-01 -5.3078548367739226e-03  -4.7860321539233780e-02 1.1400032794524578e-01 1.0506433656632002e-03  -4.7059813516057966e-02 1.0212504928640083e-01 -6.4612648975575226e-03  -4.5361267519708169e-02 9.8406943298963309e-02 -6.7387840944651948e-04  -4.6559822085780016e-02 1.1022616822998518e-01 5.1218253246718606e-03  -4.5896760911011115e-02 9.7201913074222837e-02 -1.8676514117830173e-03  -4.3918861966651422e-02 9.3653248973717365e-02 3.8561109841585019e-03  -4.5282786637672066e-02 1.0628833319253438e-01 9.0445053957474014e-03  -4.4757382415833442e-02 9.2157037521935270e-02 2.6377381892161624e-03  -4.2479476256083747e-02 8.8725791988808381e-02 8.4258900185684247e-03  -4.3995478094223911e-02 1.0215610532951171e-01 1.2947272185723394e-02  -4.3632911264994120e-02 8.6905079964148202e-02 7.2396256654656162e-03  -4.1019485481189596e-02 8.3546414982620484e-02 1.3138438505080513e-02  -4.2672842618301399e-02 9.7844301267757783e-02 1.6920172934259532e-02  -4.2540524860973990e-02 8.1388202298353918e-02 1.2132526286691484e-02  -4.8086018165478785e-02 5.5940970303602157e-02 -6.9627192974754795e-02  -4.6150189160664226e-02 5.4730674309330860e-02 -6.7695096835565086e-02  -4.3903776802757963e-02 4.7449976673349811e-02 -6.6734185686880249e-02  -4.5361912512230297e-02 4.8280231840212691e-02 -6.8450371290467216e-02  -4.1526320878034761e-02 4.0701873181988063e-02 -6.5450287051351322e-02  -4.2579003101215950e-02 4.1180196098341636e-02 -6.7086044538118159e-02  -3.9080637014648027e-02 3.4260517757024531e-02 -6.3801037389371332e-02  -3.9760878273514440e-02 3.4424726538005587e-02 -6.5384281731492896e-02  -3.6629459439763194e-02 2.7909903879511196e-02 -6.1780169965058092e-02  -3.6958084279499204e-02 2.7767268596958824e-02 -6.3312938831936366e-02  -3.4227627526010440e-02 2.1479099775915094e-02 -5.9400683127736609e-02  -3.4212673647292288e-02 2.1003314808851238e-02 -6.0869465959039318e-02  -3.1918587497175306e-02 1.4823291851711242e-02 -5.6669017420586595e-02  -3.1550349966014364e-02 1.3975704850416115e-02 -5.8026809676859609e-02  -4.8169301766339045e-02 6.5654226753852227e-02 -5.9930129179389897e-02  -4.7260509784634988e-02 7.5940139244968272e-02 -4.7638006054522682e-02  -4.5153056076074505e-02 6.8085669058181447e-02 -4.4165547476154692e-02  -4.5648521045252057e-02 5.7531342045470994e-02 -5.7555641065270106e-02  -4.3021122621085428e-02 6.0717898793184406e-02 -4.0720050707669743e-02  -4.3087786673560141e-02 4.9931926050197174e-02 -5.5134054895899988e-02  -4.0890058411505850e-02 5.3634670999871500e-02 -3.7174437620698504e-02  -4.0515416300330169e-02 4.2651986512487985e-02 -5.2506114461118469e-02  -3.8780134951131577e-02 4.6625451505459006e-02 -3.3448258133000459e-02  -3.7961942316488792e-02 3.5457696759744729e-02 -4.9591106512028228e-02  -3.6712644993532481e-02 3.9524427280533930e-02 -2.9471525865122285e-02  -3.5455653614375020e-02 2.8150949305868419e-02 -4.6320318057401166e-02  -3.4704747232679745e-02 3.2222983914018614e-02 -2.5194629656211255e-02  -3.3014119804469021e-02 2.0603502922780032e-02 -4.2640097272282095e-02  -5.1194827502098118e-02 1.2129222641908199e-01 -7.8625241055564794e-03  -4.9333592883449941e-02 1.1769056319111958e-01 -2.9397739081466895e-03  -4.7620332953137855e-02 1.1406165403382570e-01 1.5224259483391999e-03  -4.5984699984388769e-02 1.1034400726101493e-01 5.6771318624307772e-03  -4.4371725458274593e-02 1.0647812234126912e-01 9.6786489666448976e-03  -4.2739242424624541e-02 1.0241059606854300e-01 1.3650589607475295e-02  -4.1056719607855126e-02 9.8098399136236553e-02 1.7704409278155323e-02  -4.1208554973580933e-02 5.0725613438340124e-02 -5.7143742469898708e-02  -4.2141000818328472e-02 4.6812700138109530e-02 -6.3603836934651076e-02  -3.9422779678930341e-02 4.3967504833732692e-02 -5.5204021299252330e-02  -4.0126550097081708e-02 4.0267569373734595e-02 -6.2172565798645954e-02  -3.7552831018692612e-02 3.7530888465825474e-02 -5.2882273902812867e-02  -3.8023734954131201e-02 3.4005210954081294e-02 -6.0337465687016013e-02  -3.5690728492626986e-02 3.1200035451004134e-02 -5.0214781758359875e-02  -3.5915106093407957e-02 2.7814896107487917e-02 -5.8133067071562072e-02  -4.9944095280105898e-02 5.5221442825719419e-02 -7.3181825866871830e-02  -4.6663798057730757e-02 4.7360686173987275e-02 -7.1816228497579015e-02  -4.3425217598302139e-02 4.0199699877957767e-02 -7.0311156341925890e-02  -4.0195097652303197e-02 3.3379603268573248e-02 -6.8473735659827048e-02  -3.7005073981701685e-02 2.6617391185323962e-02 -6.6242234529031108e-02  -3.3884030333811245e-02 1.9696613783778398e-02 -6.3595436922594520e-02  -3.0839431029186605e-02 1.2425337534897470e-02 -6.0523459145407528e-02  -4.2806938486783026e-02 5.8057628677371312e-02 -5.8687232880919364e-02  -4.8943852245238471e-02 9.3227912873568589e-02 -3.4721326549062910e-02  -4.9088453944442938e-02 1.0341173397153962e-01 -2.4025876227850452e-02  -4.8778086935456280e-02 9.4108614333494295e-02 -3.2677087018136534e-02  -4.6982414295282535e-02 8.6903690138906572e-02 -2.7569362497763952e-02  -4.7572519306441678e-02 9.7245918843889584e-02 -1.8498577580866184e-02  -4.7266275742536681e-02 8.5824856355884674e-02 -2.9397220639238643e-02  -4.5216092547560850e-02 8.0069215830962132e-02 -2.2920055761261580e-02  -4.6106355914668586e-02 9.1378307018579547e-02 -1.3500465984241927e-02  -4.5601959716309703e-02 7.8910467438954274e-02 -2.4730100970966538e-02  -4.3471609324229922e-02 7.3422705678627881e-02 -1.8429624564000161e-02  -4.4678606383726061e-02 8.5615160694749934e-02 -8.7365806869793665e-03  -4.3944729327644670e-02 7.2176665779449589e-02 -2.0229939685000170e-02  -4.1747741753920660e-02 6.6783715988509421e-02 -1.3892406401850131e-02  -4.3267599430412293e-02 7.9769489246349912e-02 -3.9893520018291877e-03  -4.2301242148100930e-02 6.5412500846940794e-02 -1.5627671569797393e-02  -4.0047053046087196e-02 6.0025338410388290e-02 -9.1702399157839402e-03  -4.1863074854959860e-02 7.3731940648350258e-02 9.2537793945597039e-04  -4.0672907052148696e-02 5.8509382067618979e-02 -1.0739053892930320e-02  -3.8368148134102047e-02 5.3060475834928580e-02 -4.2143511037972493e-03  -4.0470071571782867e-02 6.7521687120358928e-02 6.2306544898971918e-03  -3.9051855889210695e-02 5.1252540193283243e-02 -5.5467080495413658e-03  -4.5131146162072699e-02 7.8388798760166453e-02 -4.0999079287197850e-02  -4.3284638301252225e-02 7.1122588455612840e-02 -3.6941820398583715e-02  -4.1388896201034177e-02 6.4423609756264821e-02 -3.2888800256106923e-02  -3.9492743476292155e-02 5.7992980962870352e-02 -2.8730554037606180e-02  -3.7624737360039531e-02 5.1630095689085144e-02 -2.4411437538664326e-02  -3.5813631601991545e-02 4.5173274255554445e-02 -1.9891756673742982e-02  -3.4080930118495306e-02 3.8473497882646458e-02 -1.5157513428215088e-02  -4.9954148023620831e-02 1.1988277164329306e-01 -1.0360552518282511e-02  -4.8886117506731525e-02 1.1581986548235397e-01 -5.3031951754413950e-03  -4.7911882982249625e-02 1.1173512714188344e-01 -8.7967232091720532e-04  -4.6994336443302753e-02 1.0754672765080493e-01 3.2144890433826552e-03  -4.6103214597920064e-02 1.0318976568624555e-01 7.1970266807263039e-03  -4.5225858795063190e-02 9.8626606458268165e-02 1.1223890105502333e-02  -4.4373866116534301e-02 9.3846408724474542e-02 1.5387636160498170e-02  -4.9406488626981368e-02 1.3163014597428008e-01 -1.0115602829954339e-02  -4.8644872564833803e-02 1.3544808266306116e-01 -8.3202408440161586e-03  -4.6564383197890934e-02 1.1890118059576181e-01 -1.7713491777027905e-02  -4.4225739148767387e-02 1.1310029176923059e-01 -1.1119435515017822e-02  -4.6134781630777486e-02 1.3061069139518788e-01 -1.3487137672410490e-03  -4.6923278358830506e-02 1.2693356790390142e-01 -3.3929823126115678e-03  -4.1923223444102264e-02 1.0763721909718935e-01 -4.9138765476175383e-03  -4.3685990437560933e-02 1.2595637717871291e-01 5.1148509431974878e-03  -4.4481354873197404e-02 1.2241063684438729e-01 2.8231752758395520e-03  -3.9630708580962931e-02 1.0230061207221974e-01 1.1281286628947484e-03  -4.1242654111193447e-02 1.2128480647709720e-01 1.1309951877513448e-02  -4.2043320315796100e-02 1.1788775793503527e-01 8.7687538751118968e-03  -3.7342769707039827e-02 9.6897076718094860e-02 7.1973162782913002e-03  -3.8775490313765065e-02 1.1643488716585168e-01 1.7450301727973887e-02  -3.9579147739267247e-02 1.1321239732954175e-01 1.4639097061820133e-02  -3.5058358847824198e-02 9.1247742795775341e-02 1.3484494913681991e-02  -3.6262013602670090e-02 1.1124251525567838e-01 2.3743377388355847e-02  -3.7063086886355803e-02 1.0822997942520844e-01 2.0624443096553067e-02  -3.2790560541868657e-02 8.5178044470813258e-02 2.0197478111059430e-02  -3.3692785082107136e-02 1.0554000452130201e-01 3.0418521133635933e-02  -3.4468322507650147e-02 1.0274461051265443e-01 2.6902166239329717e-02  -4.9228481152676251e-02 1.0397541712025848e-01 -2.2412690894693731e-02  -4.9283599878486378e-02 1.0567660260281311e-01 -1.9680994208116122e-02  -4.7326312821408971e-02 1.0019120551310343e-01 -1.4258042676497929e-02  -4.7450665679937942e-02 9.7998534815871563e-02 -1.7071508252563632e-02  -4.5468387510697296e-02 9.4967110847425720e-02 -9.2062062666294318e-03  -4.5754509178790211e-02 9.2282100271754708e-02 -1.2138697411570440e-02  -4.3669537632534519e-02 8.9822211844011401e-02 -4.3696790648881847e-03  -4.4114813064498666e-02 8.6669344813936358e-02 -7.4130100191024933e-03  -4.1898815407732874e-02 8.4629201739115353e-02 3.9882811053597420e-04  -4.2508462322025355e-02 8.1020573996997053e-02 -2.7270715572110110e-03  -4.0130528072150118e-02 7.9295869746166231e-02 5.2119334045206047e-03  -4.0916095267720366e-02 7.5222430724583025e-02 2.0503954036551501e-03  -3.8352745049477451e-02 7.3764186864933134e-02 1.0157229910357840e-02  -3.9325858076279425e-02 6.9229822130938118e-02 7.0393871218887918e-03  -4.9043123595511301e-02 8.3341622620905859e-02 -4.4049961638063448e-02  -4.8478166979154663e-02 8.4360621321822440e-02 -4.1678729662105868e-02  -4.6422608304908942e-02 7.6562700093088798e-02 -3.7182147474458735e-02  -4.6956270687322797e-02 7.5295906255239339e-02 -3.9409106568671623e-02  -4.4396817158680060e-02 6.9275180285631968e-02 -3.3005558193044071e-02  -4.4880355097356009e-02 6.7831837206417639e-02 -3.5322339060581069e-02  -4.2390383247057219e-02 6.2243311067491203e-02 -2.8899551911424855e-02  -4.2813278353267752e-02 6.0650293739857537e-02 -3.1278959086466038e-02  -4.0411206225851766e-02 5.5267001971629828e-02 -2.4696399968613517e-02  -4.0770152687587352e-02 5.3503467921560174e-02 -2.7096813951302402e-02  -3.8467220598168345e-02 4.8188754942020025e-02 -2.0275757968417154e-02  -3.8772319772945214e-02 4.6223123450054117e-02 -2.2650343554851647e-02  -3.6565518205223364e-02 4.0851647681258700e-02 -1.5513106591722694e-02  -3.6811768379066669e-02 3.8628949856520683e-02 -1.7717531662668616e-02  -4.8606413321341330e-02 1.2006670815048685e-01 3.4379350469780010e-03  -4.8013921583485539e-02 1.1108127208423568e-01 -1.6888567307179858e-03  -4.8533689344524039e-02 1.1523419551547986e-01 -6.1364044734934838e-03  -4.7862325475906776e-02 1.1687486845667265e-01 6.8904703789948495e-03  -4.7513541006963457e-02 1.0681922641679240e-01 2.4176122659160778e-03  -4.7142343407183707e-02 1.1347943345385224e-01 1.0201934666954795e-02  -4.7022942430655065e-02 1.0238211871151361e-01 6.4491058724943954e-03  -4.6423658674687861e-02 1.0983895511816935e-01 1.3507555722375188e-02  -4.6551685554989841e-02 9.7716634998833499e-02 1.0589290999732319e-02  -4.5718214771340374e-02 1.0597598687373425e-01 1.6922588179185186e-02  -4.6125984903082243e-02 9.2780712512974678e-02 1.4936661740989210e-02  -4.8958533115886819e-02 1.1148852348785285e-01 -1.8160835621667353e-02  -4.8075358625928377e-02 1.0620238021504255e-01 -1.2491799829482564e-02  -4.7218549076235398e-02 1.0105193172145477e-01 -7.6607790127830068e-03  -4.6370959985476065e-02 9.5871939789772015e-02 -3.1587575236217092e-03  -4.5526775873428654e-02 9.0549721426137278e-02 1.2991841187320963e-03  -4.4693064734613097e-02 8.5000950107178244e-02 5.9250603462642267e-03  -4.3908155227721443e-02 7.9221315209959703e-02 1.0991920566785010e-02  -4.8156437444007487e-02 7.4868494666133142e-02 -5.0298032922448853e-02  -4.5872035445766235e-02 6.6778923150089958e-02 -4.6740719780777429e-02  -4.3576817070582183e-02 5.9262106762525212e-02 -4.3241861153641259e-02  -4.1289474500735342e-02 5.2010272138683901e-02 -3.9660685371749153e-02  -3.9029060141441307e-02 4.4803571217959165e-02 -3.5896075705270272e-02  -3.6814231135486424e-02 3.7477862418282722e-02 -3.1838967386300224e-02  -3.4657441994642289e-02 2.9941283790914219e-02 -2.7347065025301386e-02  -5.0403501018545502e-02 4.6953432416227237e-02 -8.2057458885747336e-02  -4.6820965326987915e-02 4.0006729909389388e-02 -8.1706664655756406e-02  -4.3240046038938711e-02 3.3753380100038949e-02 -8.1034960375171119e-02  -3.9690006717600958e-02 2.7804728706726668e-02 -7.9907834541702430e-02  -3.6197487767446281e-02 2.1870479936808056e-02 -7.8327004249725551e-02  -3.2783789035428612e-02 1.5712830200797188e-02 -7.6334242426452995e-02  -2.9485107198293566e-02 9.2870048065565973e-03 -7.3902038281055960e-02  -4.8956022225027505e-02 1.1997707039093558e-01 -1.4339897221889268e-02  -5.1476154135456101e-02 1.3255206541742540e-01 -6.4062648926161087e-03  -4.9186717731420630e-02 1.2581690641675022e-01 -1.2347353863123557e-02  -4.6749723274722564e-02 1.2105615698399851e-01 -5.7977661131889385e-03  -4.8896465120410001e-02 1.2868368369220382e-01 -2.5472032783017701e-04  -4.6540477277364767e-02 1.1508305114765310e-01 -8.0199193783673534e-03  -4.4345179233214682e-02 1.1648917315186576e-01 2.7375984121619050e-04  -4.6368780998981549e-02 1.2483558449610049e-01 5.4008755415941726e-03  -4.4171371906029204e-02 1.1039704569696011e-01 -2.1444819534169090e-03  -4.1945154680971049e-02 1.1194636545083891e-01 6.0959620616746861e-03  -4.3842774337051561e-02 1.2090589788206542e-01 1.0755685121459670e-02  -4.1814885098103431e-02 1.0575508379596361e-01 3.4999832903245000e-03  -3.9522025591726836e-02 1.0727418587218224e-01 1.1855758435005682e-02  -4.1268553476737288e-02 1.1678737853284626e-01 1.5979922441085082e-02  -3.9441590108635613e-02 1.0100711525688266e-01 9.0894592744353211e-03  -3.7049547158371866e-02 1.0231721888906177e-01 1.7726965996588826e-02  -3.8592567181138987e-02 1.1236728301455240e-01 2.1224465577896551e-02  -3.7024087817558678e-02 9.6007224871565905e-02 1.4781628645665144e-02  -3.4500607076283121e-02 9.6901180567305470e-02 2.3875026461797580e-02  -3.5754445949007403e-02 1.0751900221705107e-01 2.6626413490411248e-02  -3.4536367377695013e-02 9.0614204900729550e-02 2.0719870655970331e-02  -4.8928810803279675e-02 1.0285587546838947e-01 -2.6161716590650603e-02  -4.7688471407050743e-02 9.6483944786200385e-02 -2.0405210081926865e-02  -4.6448266048246395e-02 9.0439505608925580e-02 -1.5431866704836700e-02  -4.5212378963972615e-02 8.4465878860111615e-02 -1.0735076897165291e-02  -4.3968685563986511e-02 7.8373247337216748e-02 -6.0258064752512427e-03  -4.2708193826778214e-02 7.2036721830860226e-02 -1.0495815996186845e-03  -4.1463384667486121e-02 6.5489943712549334e-02 4.4592499671207040e-03  -5.1565127665085586e-02 1.5165636018391723e-01 8.1417253346451036e-04  -4.8518194902422394e-02 1.4300086995575251e-01 -4.7514898975478358e-03  -4.8937679904528769e-02 1.4818594752002834e-01 7.6033601621443170e-03  -4.5997843490171393e-02 1.3842012591972536e-01 2.5241283860392896e-03  -4.9267157829497109e-02 7.3505070294874492e-02 -5.3742300760126760e-02  -4.6730950507697482e-02 6.4963768666956051e-02 -5.0308523253099209e-02  -4.4213440001688059e-02 5.7112890678601716e-02 -4.7114795851325095e-02  -4.1703644887196481e-02 4.9549141968288142e-02 -4.3889463993679059e-02  -3.9206501796770044e-02 4.2014312080888780e-02 -4.0437308623653377e-02  -3.6728800259098207e-02 3.4294143099786553e-02 -3.6619287742622540e-02  -3.4300967865364525e-02 2.6356347650919904e-02 -3.2161787468484998e-02  -4.3073483044392069e-02 6.8866036089684834e-02 -4.7677518897833081e-02  -4.1401954946983649e-02 6.1378328642521227e-02 -4.4551426196894499e-02  -3.9617510161643207e-02 5.4516047300964106e-02 -4.1211153531314611e-02  -3.7798928872712280e-02 4.7969570145276516e-02 -3.7650450969402033e-02  -3.6016296719163163e-02 4.1516223525971174e-02 -3.3839220336524999e-02  -3.4324008189809074e-02 3.4992626526491308e-02 -2.9758851116415564e-02  -3.2769734144570448e-02 2.8246745441662596e-02 -2.5417521555505838e-02  -2.7913186440779187e-02 8.0557068607091959e-03 -8.6904059692609073e-02  -3.0228975757854784e-02 1.0125463472369419e-02 -7.0914711704933242e-02  -4.2129158073220097e-02 3.4215957306382411e-02 -7.7263755672730666e-02  -3.9078278680160478e-02 2.8293838849448423e-02 -7.6307702160781990e-02  -3.6051989340294494e-02 2.2430274752992092e-02 -7.4918757608303854e-02  -3.3092963406341810e-02 1.6426190979129875e-02 -7.3121818823957491e-02  -4.8489388130704560e-02 1.1655070052276392e-01 6.2798412148945704e-03  -4.8295394382139360e-02 1.1306212701004634e-01 9.5908824576273945e-03  -4.8096311432336752e-02 1.0930467706459264e-01 1.2945788708039235e-02  -4.7905718707759934e-02 1.0534563720686083e-01 1.6525475913663379e-02  -4.1510807178084121e-02