<?xml version="1.0"?>
<VTKFile type="UnstructuredGrid"  version="0.1"  >
<UnstructuredGrid>
<Piece  NumberOfPoints="728" NumberOfCells="3071">
<Points>
<DataArray  type="Float64"  NumberOfComponents="3"  format="ascii">6.949025300832863 2.148934704219669 4.009460308013538  6.953242297392698 2.230818648089161 4.079134276677272  6.840548603505403 2.195966651224284 4.078369188363792  6.853797107646364 2.144614141909101 4.13616913794137  6.968440595340857 2.181696133461791 4.138666373911964  6.962459193140765 2.095847160035122 4.063408912862005  6.975892824984577 2.042740538375712 4.1173295978896  6.983647911386505 2.1325566036195 4.198187324176396  6.86704166919098 2.093251487005111 4.193967545714151  6.989328669135735 1.989622626886168 4.171225446339082  6.998859700580828 2.083404744363202 4.25769162696457  6.88028558151756 2.041878787024033 4.251748328678534  7.014076114083156 2.03423709849119 4.317173412077135  7.002766635179873 1.936492792709076 4.22509318562829  6.893533462701373 1.990491779094387 4.309503623882001  7.029295865758338 1.985046233184347 4.376629330066704  7.016205609519839 1.883349412916085 4.278928483159283  6.906787486342266 1.939083646017428 4.367228829953139  7.029636053218448 1.830191710544305 4.332734792544878  7.044506450149917 1.935824541590048 4.436068143588789  6.920050105230691 1.887652559784698 4.424927471909819  6.842992358081182 2.101419571757881 3.983187784407237  6.855767069224882 2.046652543483451 4.034164784633528  6.868544650698927 1.991864473932881 4.085115212216051  6.881324401233124 1.937065867891651 4.136042879022313  6.894107054609428 1.882255869079407 4.186942263584239  6.906892961973583 1.827430614749864 4.237808195199427  6.919674054496015 1.772582796932619 4.288637030372534  6.974422049318843 2.311847365581785 4.138837512747422  6.861931626456389 2.303505451026112 4.161317445545106  6.874893605471212 2.259532518812024 4.227848805036245  6.989933922203209 2.266194648489034 4.203181134517604  6.887830605280613 2.215551823896556 4.294386918682208  7.005447117551583 2.220529883223086 4.267522939638055  6.900761877239828 2.171560835828382 4.360909867773421  7.020962131704501 2.174854850874634 4.331851263240247  6.913701777363236 2.127551843494108 4.427409047761855  7.036483138416687 2.129163024216585 4.396159052618339  6.926660607186028 2.083516137628316 4.493881239585398  7.052009879637695 2.083446307984471 4.460444946317564  6.93964743316061 2.039444363060093 4.560327837488043  7.067517127657468 2.037684754994776 4.524701684151787  7.686916804285789 2.129964433137649 3.799462359446247  7.550445519329314 2.077109004268988 3.774878146956058  7.647583121758853 2.057936230471978 3.727687679096481  7.658203149323453 2.006027653829419 3.77210058849575  7.562504544736325 2.024856389312909 3.821388351384929  7.698333319531908 2.081358707112964 3.849206249880934  7.668859460050929 1.954119399719053 3.816465264624357  7.574607389939469 1.97259703899786 3.867845753109961  7.709789754609751 2.032754517218994 3.898897439611975  7.679518070777594 1.902211753787861 3.860788518465631  7.586715808499137 1.920334329063835 3.914262340116348  7.721250097088531 1.984149816350979 3.948541714347077  7.690147941979085 1.850301177341688 3.905076821599753  7.598801016640519 1.868066887192658 3.960644349339601  7.732677634166936 1.935541670170941 3.998147946055178  7.700717863536938 1.798380427998504 3.949337809279529  7.61083310386419 1.815789498955642 4.006998579748131  7.744034978089638 1.886926127951736 4.047723614809275  7.71119559409227 1.746439996323771 3.993575842617213  7.622766027780889 1.763493234403903 4.053331033045906  7.75529167992393 1.838300595247458 4.097274699153575  7.665599400010707 1.770748197618117 3.677297455831034  7.693217170877008 1.694690348542483 3.543295943786206  7.585707018961812 1.717811947558596 3.617819352238647  7.655733614963444 1.824188977875972 3.640419580473355  7.59524298294725 1.664199856018943 3.653257739195186  7.675437802602953 1.717309860962769 3.714142738604407  7.702276343657399 1.641982251024489 3.576748170453147  7.604735667133558 1.610579370211089 3.688667338678492  7.581747488311321 2.15673203039996 3.8467537865818  7.594501520067229 2.108630960862225 3.899610374728931  7.607299315668691 2.060523745140935 3.952416161784603  7.620105804888533 2.012408468313912 4.005179602428227  7.632887315496617 1.964284019762699 4.057908835423797  7.645610720888695 1.916144902268631 4.11061256142823  7.658239061010598 1.867989495722123 4.16330356512832  6.747403369618056 2.231719763465835 4.125912884635836  6.757621306129385 2.18409583479949 4.188795932022477  6.767796578393113 2.136465692750692 4.251686083489747  6.777960373699574 2.08882387181601 4.314564225261575  6.788131033022895 2.041164411115238 4.377417586182595  6.798323450539172 1.993479841210207 4.440241154979073  6.808557416967874 1.945767766989011 4.503036954281829  7.796429304382096 2.056519647023861 3.798484725677115  7.807407731361856 2.007533241943816 3.844894708787397  7.818390565240366 1.958554696360964 3.891254721310311  7.829336072686844 1.909579785600219 3.937572815890502  7.840201988000611 1.860602458595126 3.983858332803808  7.850952796628427 1.811606872343928 4.030121606751155  7.385211990638379 2.20940288976362 3.946381064226127  7.252211741336693 2.14270653200757 3.920745045461095  7.354530629732052 2.124468936645216 3.877529221480833  7.368170309584267 2.072773230026579 3.929449227936057  7.26664373255903 2.090333293999494 3.973376599829871  7.401513946700385 2.160035115563812 4.00218305547591  7.381844632788281 2.021060240468727 3.981323176007167  7.28110654976657 2.037935596922487 4.025969604926927  7.41787229049294 2.110642648070039 4.057934986683434  7.395527184145911 1.969338030040412 4.033160074034034  7.295579022862413 1.98552463481307 4.078530559362044  7.434247652985766 2.061239758749535 4.113651969114113  7.409197166501196 1.917606543723675 4.084966152041591  7.310045487867193 1.933103194034941 4.131062652165639  7.450611562986787 2.011826921772009 4.169340624387567  7.422833456768292 1.865860100829508 4.136747295221121  7.324491776432088 1.880665297275306 4.18357227414822  7.466934288913347 1.962399451084347 4.225008973900704  7.436401359624425 1.814088223098608 4.188512458489217  7.338908655320088 1.82819874620572 4.23606925835109  7.483165590811835 1.912943763107773 4.280678290511601  7.278191989759084 2.226860502184026 3.996528698929245  7.294493995333185 2.177830389987542 4.054653586826933  7.310829853010088 2.128775565513636 4.112737687386315  7.327175537615497 2.079709283994279 4.170788737510487  7.343513859878979 2.030632304538857 4.228812810795446  7.359828243750631 1.981541918390185 4.286816029705667  7.376111288461449 1.93242670976393 4.344815287698261  7.636034779419287 1.931083200563851 3.56654747501805  7.540567233102323 1.94881903137687 3.617643431226536  7.557045496458914 1.878659330945939 3.511291875171724  7.550706427200858 1.894766274355291 3.656513608246196  7.64586754498023 1.877634803100795 3.603504707081264  7.566584400664356 1.825042601119275 3.546842591869332  7.560872721272954 1.840708441344163 3.695339713145864  7.576147269605931 1.77142525756093 3.582349313785461  7.571038677481385 1.78665202714336 3.734127601352811  7.581182109459861 1.732594936038557 3.772882673364951  7.591281727691253 1.678528496521146 3.811609313284418  7.685221410192434 1.663866615091115 3.750958821035821  7.6013179715759 1.624441279432484 3.850307673715176  7.694918120039408 1.610403296444545 3.787747297520468  7.614171672172728 1.55694042112861 3.72404716800198  7.487569367647212 2.187101074942427 3.895656714560541  7.455218594642094 2.101692929622013 3.830038150766176  7.468217545727407 2.04993637676537 3.879721439113915  7.502287371055001 2.138912066429563 3.950237962420356  7.481258911890092 1.998168105444132 3.929350591215602  7.51706124122911 2.090705713348395 4.004766254368664  7.49430468766745 1.946395134490053 3.978937868881881  7.531849830960593 2.042488161413114 4.059256755306557  7.507330382068061 1.894615873123469 4.028490846116509  7.546621982844822 1.994259106531529 4.113716982163257  7.52030807384183 1.842826239794415 4.078014774348716  7.561346709380648 1.946011817723488 4.168157568177829  7.533195881778866 1.791021087132306 4.127522789128189  7.575975540285667 1.897736653187693 4.222597376666569  7.062550315128016 2.280232688922951 4.089958184997568  7.057735034468024 2.203284870941612 4.030288606772203  7.072480854270449 2.153253744374187 4.087817147001086  7.077978343007786 2.232375888800925 4.151168002014797  7.087236600551647 2.103198934238815 4.145319577170381  7.093414647462736 2.184497112543999 4.212365427404048  7.101997205026159 2.053129482788823 4.202799942528669  7.108856733857139 2.136603985587055 4.273546633680767  7.116759914305396 2.003045198493246 4.260256121927107  7.124301819368844 2.088695262559432 4.334707367850503  7.131521181265358 1.952942814814056 4.317687066714892  7.139746813661836 2.04076443973356 4.395846658386355  7.146271685457296 1.902824906141422 4.375095837895208  7.155186556536655 1.992802572984746 4.456966191146498  7.45278407537144 1.901623338704803 3.571458533002678  7.462402674821893 1.847027798249892 3.608694878896656  7.472035066490893 1.792423815998475 3.645886557988377  7.481665887005849 1.737817923261578 3.683042045372655  7.491279562567857 1.683208943241011 3.720166584504475  7.500859971391842 1.628591420326618 3.757262355479249  7.510386817171111 1.573955315084564 3.794329714251054  7.14260403647976 2.028273821518555 3.821463209635967  7.147797293994786 2.100886092349065 3.907144612244963  7.046696335708294 2.047977221775563 3.871037847765338  7.058755332179745 1.992414248704432 3.917761743151712  7.160909411338351 2.046460985379438 3.956863361776493  7.154563223919554 1.972477952627812 3.86659591892354  7.070817849769536 1.936832216981648 3.96444424656519  7.174033291130974 1.992015330432255 4.006543182717166  7.166531610561341 1.916663569207439 3.911685055528451  7.082884027029492 1.881239424914157 4.011094
[...]
<PointData  Vectors="f_24"> 
<DataArray  type="Float64"  Name="f_24"  NumberOfComponents="3" format="ascii">2.1954538833382129e-03 -4.3455302485530319e-02 -1.0998759540661188e-02  8.9365004757026420e-04 -3.6475852049417216e-02 -1.6401542966338768e-02  1.6619343373131957e-03 -3.7775254807690409e-02 -1.4526242086406103e-02  1.8948231056201905e-03 -3.4196969303260022e-02 -1.2588086582022266e-02  1.1840953009190484e-03 -3.2769235731785126e-02 -1.4710471518890102e-02  2.4290781754627904e-03 -3.9714640031048992e-02 -8.6471027248777588e-03  2.7304494524625252e-03 -3.6792370535210915e-02 -6.6253463178942472e-03  1.5772549634209625e-03 -2.9921706941578068e-02 -1.3151428048495471e-02  2.1929951566735965e-03 -3.1407098159868849e-02 -1.0788559209497808e-02  3.0521166862380947e-03 -3.3661582418345527e-02 -4.2541070582725986e-03  1.9812318898617155e-03 -2.6894290152599830e-02 -1.1174539685190879e-02  2.4814912727679837e-03 -2.8420858152487901e-02 -8.5927865613366974e-03  2.3999607155321947e-03 -2.3571508574166500e-02 -8.7291978567915485e-03  3.4007533068596044e-03 -3.0133893943405828e-02 -1.3482004204645745e-03  2.7644793210337992e-03 -2.5112613950013036e-02 -5.9236287473734914e-03  2.8910000272059679e-03 -2.0152201872419759e-02 -5.8920938429643270e-03  3.7935385099910649e-03 -2.6399431888390223e-02 1.9953516547715679e-03  3.0791067132456512e-03 -2.1677447278130750e-02 -2.8509769396205887e-03  4.2400098826915426e-03 -2.2561303897565672e-02 5.7239445789305328e-03  3.4437476737510602e-03 -1.6709438333385687e-02 -2.6723131453402719e-03  3.4085624085018330e-03 -1.8188575490434768e-02 5.8504985935012776e-04  3.1767964011580013e-03 -4.7597423541002389e-02 -7.6782179415728312e-03  3.2812628761981944e-03 -4.3667511203255897e-02 -5.0176274117344835e-03  3.4658651161378817e-03 -4.0733321608973173e-02 -2.8635145773841277e-03  3.6678937728919720e-03 -3.7645358345338692e-02 -3.6728603215433028e-04  3.8844198141636094e-03 -3.4129730391643652e-02 2.7035705828722242e-03  4.1042191678104479e-03 -3.0345442824842445e-02 6.2530082752223848e-03  4.3442148370950607e-03 -2.6446134683969762e-02 1.0205149437882935e-02  -4.7610999966803602e-04 -3.0123169933974629e-02 -2.1519230719790332e-02  2.6010810346134149e-04 -2.9152496908556251e-02 -2.1359375374429546e-02  6.1363560220181149e-04 -2.6271011077466131e-02 -2.0138606192910059e-02  5.5474223754179008e-05 -2.7048817852974191e-02 -2.0276031039197777e-02  1.0731229167793936e-03 -2.3820131297907839e-02 -1.8776365282858896e-02  6.1126888066923750e-04 -2.4548379945528439e-02 -1.8923935680973378e-02  1.5042589601351681e-03 -2.1136358374999907e-02 -1.7069736805293539e-02  1.1439388519926554e-03 -2.1821715340961684e-02 -1.7179135080687160e-02  1.9479170925995168e-03 -1.8243797352163624e-02 -1.5012755827753403e-02  1.7024348075389483e-03 -1.8861233552868346e-02 -1.5050352951600269e-02  2.3988905711443739e-03 -1.5324249239472945e-02 -1.2604837398307693e-02  2.3067686968154173e-03 -1.5854211445903637e-02 -1.2564105141033037e-02  2.8675928377356417e-03 -1.2356473103050217e-02 -9.9157682903287941e-03  2.9716268308260978e-03 -1.2810245318744912e-02 -9.7664146342778015e-03  1.2219472727821913e-03 -4.9960987623411016e-02 -1.0415257842894154e-02  2.9200575318826436e-03 -5.6022532538766025e-02 -5.4770756817199839e-03  2.9785545467445442e-03 -5.9385496152993177e-02 -3.8267831483444863e-03  3.3496855597601755e-03 -5.5572607752725198e-02 -8.8493569057238855e-04  3.2401151669857373e-03 -5.2228107541129991e-02 -2.6590692412325591e-03  1.5526967683509476e-03 -4.6285440620741414e-02 -8.0066816981265217e-03  3.5826596911635138e-03 -5.2904624914815450e-02 1.3234229528732830e-03  3.4634468806428211e-03 -4.9480035480090452e-02 -4.6417396598193329e-04  1.7714692658999701e-03 -4.3528909120266038e-02 -6.0275596577723974e-03  3.9044449896108806e-03 -5.0067189887146445e-02 3.7921373839593280e-03  3.7963215355443372e-03 -4.6507125764370279e-02 2.0194383543982908e-03  2.1208272557943202e-03 -4.0435314658195394e-02 -3.7002329918468550e-03  4.3800882527572976e-03 -4.6465042423571780e-02 7.0392753333810981e-03  4.3002913915411705e-03 -4.2807337178076617e-02 5.2478223752239492e-03  2.6560190561708656e-03 -3.6634484008805944e-02 -6.9131414322024301e-04  5.0109379917120580e-03 -4.2286874077463059e-02 1.0936348024420469e-02  4.9691889874049428e-03 -3.8609956339852626e-02 9.0783176468135305e-03  3.3652663111788965e-03 -3.2412760850989715e-02 2.8784784999937750e-03  5.7859097799515006e-03 -3.7923219052282617e-02 1.5235323304098837e-02  5.8106908633579740e-03 -3.4241802255701247e-02 1.3315801162274946e-02  4.2436249551094218e-03 -2.8043667297573634e-02 6.8514404675686126e-03  6.6695841398985304e-03 -6.9443677784761543e-02 1.5661793046774408e-02  8.0034823162758260e-03 -8.2356492078675680e-02 2.1735109468147013e-02  7.9189169280620159e-03 -7.6725481895668038e-02 1.9937161985672323e-02  6.3175768196699986e-03 -7.1792859331676909e-02 1.3333255437435356e-02  8.2969625614674469e-03 -7.3836321572293473e-02 2.2806992734271590e-02  7.0728464949786326e-03 -6.6368380590599227e-02 1.8757766199205619e-02  8.4182924124523353e-03 -7.9739267169815928e-02 2.4374901878979362e-02  8.6890402165393510e-03 -7.0036873360582300e-02 2.6509987942681328e-02  1.0806016581138627e-03 -4.7215049043325089e-02 -1.2168647127442615e-02  1.4069001574146813e-03 -4.3265120273612692e-02 -1.0013757914830293e-02  1.6215154355818601e-03 -4.0296012009140750e-02 -8.2219684846027794e-03  1.9782916140547897e-03 -3.7045542378549789e-02 -6.0496238599994853e-03  2.5292644195715349e-03 -3.3196287173740312e-02 -3.2423763923763462e-03  3.2700781196859630e-03 -2.8990211884877742e-02 1.0155494489641362e-04  4.2046720201480252e-03 -2.4665517176860843e-02 3.8634674301307602e-03  1.6629881366767914e-03 -3.3619414299155784e-02 -1.7118028318428503e-02  1.7542063453605287e-03 -3.0237818557730441e-02 -1.5591735336137225e-02  2.0158458070287468e-03 -2.7549024692068880e-02 -1.4096518105104662e-02  2.2457546727638273e-03 -2.4657028628404014e-02 -1.2197885872298279e-02  2.4660940593242120e-03 -2.1516944415761165e-02 -9.8709368072784839e-03  2.6858609630874605e-03 -1.8313731656338331e-02 -7.1732725490242085e-03  2.8723798896872466e-03 -1.5068255399131331e-02 -4.1221385435988222e-03  1.5703248559705779e-03 -4.9827975966379008e-02 -5.8060657864660954e-03  1.8210405419548019e-03 -4.7238511784263436e-02 -3.7095023194566642e-03  2.1837979335205173e-03 -4.4319039763836811e-02 -1.2998016234852371e-03  2.7029646409185721e-03 -4.0602542079951988e-02 1.8544775869377991e-03  3.3724053831032425e-03 -3.6408021569320131e-02 5.5898368881969855e-03  4.1766981853310434e-03 -3.2039971030610272e-02 9.7308448185938635e-03  2.6499678487771499e-04 -4.1472727502940607e-02 -1.5511900164555182e-02  1.7988574314324818e-03 -4.7365351349134985e-02 -1.0196538592904310e-02  2.1025987282419739e-03 -4.9378524968580757e-02 -9.1054727205554329e-03  2.5104440877210016e-03 -4.5402960594769955e-02 -6.6680891514206480e-03  2.2642799863733304e-03 -4.3240581392644493e-02 -7.8437583872200938e-03  7.0799720479775149e-04 -3.7544041009359257e-02 -1.3608572232594575e-02  2.8256894654199310e-03 -4.2365587874071284e-02 -4.6572073522004390e-03  2.6417354743379206e-03 -4.0174807960703787e-02 -5.8925275518576748e-03  1.1140848479296807e-03 -3.4559715122755075e-02 -1.1918133733989058e-02  3.2270859986609167e-03 -3.9083956511832711e-02 -2.2880059642291103e-03  3.0671596389798359e-03 -3.6911916919870516e-02 -3.5415856905081779e-03  1.6156438273101867e-03 -3.1323071319106922e-02 -9.7968061411097020e-03  3.7717384092450638e-03 -3.5241088161748022e-02 7.2369137447123315e-04  3.6088562150726057e-03 -3.3164055648385142e-02 -5.8002822427605195e-04  2.2516467502193696e-03 -2.7635865427028318e-02 -7.1134365279466394e-03  4.4634353816747916e-03 -3.1071508667941110e-02 4.2457762785981503e-03  4.2696376928394834e-03 -2.9126238005067331e-02 2.8771779581561931e-03  3.0636056356460901e-03 -2.3719056932101960e-02 -3.9533410355011220e-03  5.3272711208931824e-03 -2.6772218989109219e-02 8.1667186840110838e-03  5.0803877034871483e-03 -2.4971560822812319e-02 6.7343923615665307e-03  4.0805254368617315e-03 -1.9713440968954693e-02 -4.0494986556607638e-04  -3.7731656849984813e-05 -3.8700809634342928e-02 -1.6695718159071123e-02  4.8293078222705197e-04 -3.5000137905662976e-02 -1.4893004073213511e-02  9.9561077954565098e-04 -3.2036045109734436e-02 -1.3207360396947452e-02  1.5469413999281310e-03 -2.8805388942686406e-02 -1.1120216588352945e-02  2.1939425221653491e-03 -2.5190172063163142e-02 -8.5209356944591971e-03  2.9923773227232883e-03 -2.1417259779421195e-02 -5.4919793961561800e-03  3.9381845445588528e-03 -1.7543855152479845e-02 -2.1016177774689335e-03  5.5215460473492682e-03 -7.7726884741311023e-02 7.4412336083360250e-03  5.5777305540655993e-03 -7.3916171317989152e-02 5.8947224026938364e-03  6.6929351707489364e-03 -8.4704698060132949e-02 1.1917791910475230e-02  6.0163048852166345e-03 -7.0268389140931364e-02 9.2968184901585788e-03  5.9979840126039687e-03 -7.4198285087468951e-02 1.0931845301430021e-02  7.2278505906533874e-03 -8.1330173060580629e-02 1.5415589880036678e-02  6.2803567341960355e-03 -6.7748170983411501e-02 1.1701241236891953e-02  7.5670093884377537e-03 -7.8966097283383191e-02 1.7775364334932868e-02  6.5800339304835000e-03 -6.5230406812725017e-02 1.4110340495468679e-02  6.9737600185253946e-03 -6.1963613792589176e-02 1.7316231163036773e-02  7.4710748318022541e-03 -5.7921070100588279e-02 2.1285957750305957e-02  7.5328431182348343e-03 -6.2467783577681034e-02 2.2665989039834650e-02  8.0744453766225903e-03 -5.3598456470704200e-02 2.5616400849775997e-02  8.0628177844763345e-03 -5.8248837463620258e-02 2.6904214690838642e-02  9.1421453467464223e-03 -6.5893270325519102e-02 3.0499235436407580e-02  6.8445160002866118e-04 -4.4384691597962399e-02 -1.4009457132007670e-02  2.5115969731964046e-03 -5.1972588691759726e-02 -7.5765012066291012e-03  2.8345940771075866e-03 -4.8197644278321281e-02 -4.9740395514752418e-03  1.0473974455489042e-03 -4.0263191699822405e-02 -1.2087357935001961e-02  3.1001521638538408e-03 -4.5325482680127475e-02 -2.8482217397026795e-03  1.3086323443123472e-03 -3.7214133012483178e-02 -1.0449879237454038e-02  3.4732540949213324e-03 -4.2153172611384820e-02 -4.0035409974575214e-04  1.7145868628568488e-03 -3.3939948778795942e-02 -8.3808894618868281e-03  4.0113239217155691e-03 -3.8319628178136583e-02 2.7319646501316095e-03  2.2986170589676231e-03 -3.0165362371524541e-02 -5.7156532698451187e-03  4.7105813342022199e-03 -3.4098924955566622e-02 6.4094302439849562e-03  3.0709210660722691e-03 -2.6090234146483978e-02 -2.5358511431994558e-03  5.5929722057725135e-03 -2.9724990675449432e-02 1.0486895048690560e-02  4.0578975797064699e-03 -2.1930381383704161e-02 1.0622252547073320e-03  -2.6851710183061346e-04 -3.3808025531900585e-02 -1.9337803196818829e-02  9.5998828177799704e-04 -3.9716679773335942e-02 -1.4596387112604093e-02  1.3721782501417657e-03 -3.5905682328947093e-02 -1.2651207547816429e-02  2.2128042554655155e-04 -3.0203168117126936e-02 -1.7957487995738323e-02  1.7885461657798825e-03 -3.2931636703953285e-02 -1.0955491971560656e-02  7.3830514233024956e-04 -2.7454133978412686e-02 -1.6570613361303565e-02  2.2229523308447646e-03 -2.9754892907850793e-02 -8.8731824448710240e-03  1.2740797778612398e-03 -2.4527291285357963e-02 -1.4728843121865402e-02  2.6997154725829941e-03 -2.6243787306131409e-02 -6.2915401973725306e-03  1.8450390508079637e-03 -2.1324748272307480e-02 -1.2433494670005256e-02  3.2612057398206202e-03 -2.2579688299696893e-02 -3.2890120991929412e-03  2.5035512963508732e-03 -1.8045992619092417e-02 -9.7533359828782251e-03  3.9119472589379334e-03 -1.8843998564264754e-02 1.0448472570946608e-04  3.2478549263080855e-03 -1.4745332956472072e-02 -6.6994293306202237e-03  6.6831453250256641e-03 -8.0455055867950293e-02 1.0028114964211214e-02  7.1723661333034051e-03 -7.6867526719166065e-02 1.3540973282464598e-02  7.4457768978002598e-03 -7.4360179660762818e-02 1.5964384260634679e-02  7.7391382212519495e-03 -7.1947679502287892e-02 1.8265775157361362e-02  8.0911405804289013e-03 -6.8864741807700108e-02 2.1290149943497341e-02  8.5279650688042819e-03 -6.4922484166458919e-02 2.5152639479918720e-02  9.0519471261939419e-03 -6.0663360424413004e-02 2.9313079365302631e-02  4.3988737333938129e-03 -6.0274476773357330e-02 -9.7727617208571982e-04  2.7929223454576171e-03 -5.0901124785800334e-02 -7.0077250166921132e-03  4.0371206758251605e-03 -5.6702490702553350e-02 -2.8006400885893959e-03  4.3201048601666705e-03 -5.2643388903748964e-02 2.6620145539344104e-04  3.1969278391808490e-03 -4.6939136516687033e-02 -4.2736708424539627e-03  4.7602544307070649e-03 -5.6198858776337693e-02 2.2003332054579454e-03  4.5575975631240318e-03 -4.9636537739558270e-02 2.6227414963892457e-03  3.5339693476146433e-03 -4.3957323441356562e-02 -2.0750565481434898e-03  5.0198850672976015e-03 -5.3229453607436465e-02 4.6056557860192499e-03  4.8310685282626246e-03 -4.6539258318261459e-02 5.2105261160548238e-03  3.9079609873291900e-03 -4.0788819866200275e-02 4.4734494050678169e-04  5.3108680277676673e-03 -5.0196080882325175e-02 7.2067766045450571e-03  5.1682623616911691e-03 -4.2893048734076872e-02 8.4580953231845387e-03  4.3654232884982038e-03 -3.7099208398651946e-02 3.6027242563571064e-03  5.6860249309705494e-03 -4.6551259169011414e-02 1.0510236621584035e-02  5.5644353879654518e-03 -3.8836415844544288e-02 1.2249440792882944e-02  4.9103289864738352e-03 -3.3078266502968502e-02 7.2596198449628186e-03  6.1549570095984184e-03 -4.2429489620316112e-02 1.4392657066902329e-02  6.0559705754900175e-03 -3.4596689888704298e-02 1.6448369860389937e-02  5.5845606439972623e-03 -2.8903915232975339e-02 1.1322475001774737e-02  6.7522529466587733e-03 -3.8103882882504304e-02 1.8679213269929565e-02  7.9115486563084074e-04 -2.6706009761173967e-02 -2.2824910840611622e-02  2.0411202663818198e-03 -2.9795646581768566e-02 -1.9657990432979118e-02  1.9700147764878792e-03 -2.6584397410675264e-02 -1.8628409608009242e-02  1.0311150572555872e-03 -2.3982373859464681e-02 -2.1981929377780346e-02  1.3737440681466288e-03 -2.1671304040958270e-02 -2.0953087511498651e-02  2.1262950598293670e-03 -2.4069248793886496e-02 -1.7550487044181565e-02  1.7183334367013110e-03 -1.9178357796538936e-02 -1.9606282701002738e-02  2.2818694098148875e-03 -2.1408362644833919e-02 -1.6032817810878550e-02  2.0647858860067211e-03 -1.6557837877736573e-02 -1.7934940437490606e-02  2.4280072421576462e-03 -1.8574159876940766e-02 -1.4116079549501488e-02  2.3948227523970405e-03 -1.3954199778163919e-02 -1.5909899487295629e-02  2.5491516867143238e-03 -1.5740098846197020e-02 -1.1824227849931692e-02  2.6631361340622361e-03 -1.1312418425636130e-02 -1.3606957718234664e-02  2.6163851394787985e-03 -1.2912021225803389e-02 -9.1560789160939314e-03  -3.2883560212571006e-04 -3.5969056484264766e-02 -1.8331610573321673e-02  1.2773894080691623e-03 -4.3333466799817956e-02 -1.2531915561943444e-02  1.7393359590099544e-03 -3.9412983087698084e-02 -1.0327907533230408e-02  2.2801018347200507e-04 -3.2230994928774993e-02 -1.6794299828998469e-02  7.5006870965226837e-04 -2.9323654620409759e-02 -1.5314109098530043e-02  2.1624649525833709e-03 -3.6409665235488206e-02 -8.4620001865382058e-03  1.3075251512621835e-03 -2.6225130525548711e-02 -1.3406289885461537e-02  2.6146651075815716e-03 -3.3194673638898400e-02 -6.1975381043324748e-03  1.9220760703814648e-03 -2.2821313252807764e-02 -1.1024305060775199e-02  3.1457499878034022e-03 -2.9569899381266841e-02 -3.3838697445051705e-03  2.6569133898742044e-03 -1.9308349623250291e-02 -8.2366879368156627e-03  3.7720474957126061e-03 -2.5713922226820150e-02 -1.0787178490108862e-04  3.5007345810477387e-03 -1.5748928069580712e-02 -5.0594020635905358e-03  4.5187455255862180e-03 -2.1756688787797667e-02 3.5625219665195757e-03  4.6491755018282935e-03 -5.7641372313317445e-02 -9.9329072254111632e-04  4.0884764633312264e-03 -5.2140116116795247e-02 -4.1132825941842446e-03  4.0477970667569425e-03 -4.8139024505078808e-02 -1.1992283513792893e-03  4.7107470831365414e-03 -5.3651590544149204e-02 2.1453906262911995e-03  4.1474694690218179e-03 -4.5169410574142727e-02 1.0807067560247782e-03  4.8377395847500086e-03 -5.0653916573071021e-02 4.5437665411565556e-03  4.2466340123331310e-03 -4.2092144000777737e-02 3.6531344163204674e-03  4.9745363876468641e-03 -4.7561254979160424e-02 7.1574795181400964e-03  4.3390368769058024e-03 -3.8543353984547210e-02 6.8480964647549330e-03  5.1255844822055245e-03 -4.3925295288036063e-02 1.0439547867849069e-02  4.4078225142049577e-03 -3.4676798099068831e-02 1.0547238007441716e-02  5.2839710922546589e-03 -3.9889463105342617e-02 1.4253995679056719e-02  4.4620040001765631e-03 -3.0676051155517518e-02 1.4660925969147519e-02  5.4578888976173946e-03 -3.5681395323426963e-02 1.8486295056882450e-02  5.5109163325408900e-03 -6.2539721773028578e-02 2.4814729237671268e-03  4.7948626628572921e-03 -5.6097100586732944e-02 -7.6970941541274060e-04  5.4550060416469646e-03 -5.8559419705445315e-02 5.8608762995468137e-03  4.6964851737900564e-03 -5.2221137267757560e-02 2.3452168088847624e-03  5.4957529937264575e-03 -5.5620737295872531e-02 8.3673473439930292e-03  4.7241819121515670e-03 -4.9352508608467738e-02 4.7722889635507214e-03  5.5404863396855963e-03 -5.2647734233150043e-02 1.1018819014943610e-02  4.7377493880477791e-03 -4.6363971553847520e-02 7.4588604565104730e-03  5.5745251001079552e-03 -4.9109302062148454e-02 1.4356412660948812e-02  4.7130613842684367e-03 -4.2837174662092130e-02 1.0820196643366324e-02  5.5937771388287552e-03 -4.5087659163767876e-02 1.8285104925174649e-02  4.6493450698195096e-03 -3.8939293422073681e-02 1.4704198685726214e-02  5.5871681264534128e-03 -4.0866441754420217e-02 2.2627338819236387e-02  4.5337040438285063e-03 -3.4882496897242113e-02 1.9012905448632704e-02  3.2824423731600866e-03 -5.4642661381514107e-02 -4.9452713384024989e-03  3.7044651162093313e-03 -5.0671805933060483e-02 -2.0600221179166689e-03  4.0210516522206875e-03 -4.7722866959885368e-02 2.3126396068838127e-04  4.3863679076611133e-03 -4.4607203437159008e-02 2.8203988520250369e-03  4.8644642475708004e-03 -4.0886483025826828e-02 6.1019963285084758e-03  5.4633604537571096e-03 -3.6768990959119445e-02 9.9201438044201826e-03  6.2101092066243228e-03 -3.2478459170644056e-02 1.4146385584861807e-02  2.4967257915335505e-03 -4.7655929651109694e-02 -8.8110073147910882e-03  2.8192044672282475e-03 -4.3736634121033735e-02 -6.2079969480362384e-03  3.1505338533502772e-03 -4.0749107244805599e-02 -4.0894955041138109e-03  3.5036332146804257e-03 -3.7589182872263052e-02 -1.6365517812435332e-03  3.9175649747494011e-03 -3.3974084161394247e-02 1.4011365129879148e-03  4.3929511487822486e-03 -3.0077264232505754e-02 4.9191228102332431e-03  4.9635259692019720e-03 -2.6048013769495164e-02 8.8355865653599076e-03  -1.6203830955114633e-03 -3.3743429817548763e-02 -2.1804273740494273e-02  -3.4745692813798871e-03 -2.6580227073771032e-02 -2.7984484270109477e-02  -1.8134943879400723e-03 -3.1522090322939816e-02 -2.2838284065289777e-02  -1.2031381646410084e-03 -2.8007758998820655e-02 -2.1792272769212851e-02  -2.7028436719130147e-03 -2.3657278956684760e-02 -2.7338461652920608e-02  -1.0403399471004477e-03 -3.0086907406625712e-02 -2.0605489641355175e-02  -5.6781206815275775e-04 -2.5255016408241227e-02 -2.0636412455373929e-02  -1.9682916101215913e-03 -2.1196600978215831e-02 -2.6411084051038321e-02  -5.0653223715082011e-04 -2.7220381899181256e-02 -1.9335668584425748e-02  9.5493576580727392e-05 -2.2293518025138664e-02 -1.9007950248065082e-02  -1.1958127979376188e-03 -1.8495839975054346e-02 -2.5076096624036856e-02  1.0707274695093137e-04 -2.4124630667529030e-02 -1.7597907392012422e-02  8.5880911260401106e-04 -1.9074014024599739e-02 -1.6933645251720624e-02  -2.8766669060171710e-04 -1.5600272898964601e-02 -2.3371399248432071e-02  8.4388094770991302e-04 -2.0716019997373023e-02 -1.5386829681416662e-02  1.7630144209469989e-03 -1.5787823757617135e-02 -1.4473119969334900e-02  7.8054801650638474e-04 -1.2687880698451021e-02 -2.1298300321048642e-02  1.7765360095606693e-03 -1.7209788632269164e-