<?xml version="1.0"?>
<VTKFile type="UnstructuredGrid"  version="0.1"  >
<UnstructuredGrid>
<Piece  NumberOfPoints="722" NumberOfCells="3050">
<Points>
<DataArray  type="Float64"  NumberOfComponents="3"  format="ascii">2.957001636327565 3.331464299290024 0.8767269349677969  3.000783051010208 3.203750655107275 0.8586236765208732  2.848678121822029 3.232114494871337 0.8452472430537005  2.857653399636142 3.246843115139344 0.7637935884590156  3.008495329447965 3.217730855008415 0.7779449422406489  2.966693089353639 3.357122527119087 0.7969178277083777  3.016318687133043 3.231583663261269 0.697305292967204  2.97646910383617 3.382677897146618 0.7171308110907721  2.86674365385331 3.261471793296028 0.6823814850302772  3.024186229212587 3.245349515690334 0.616716279312635  2.986264668262604 3.408172793999967 0.6373837911253138  2.875863346783012 3.276039587134662 0.6009982413899518  3.032032370221103 3.259059408714159 0.5361692109227219  2.996025743456513 3.433630544943798 0.5576667999905613  2.884955814270927 3.290574848554593 0.5196398368130033  2.893988823529623 3.305078871276485 0.4382831891948534  3.039802890805909 3.272749808800531 0.4556526946537864  3.005731862640629 3.459059125448225 0.477956497781009  2.902965431132187 3.319562493550493 0.356894677791182  3.047469798035703 3.286451828473374 0.3751288311689135  3.015389660924009 3.484455570802974 0.3982183808653313  3.255515279679896 3.253211069252856 0.3820969109535029  3.1791532223454 3.054785109149623 0.3794269044351742  3.266273750766088 3.075467507039201 0.3708576807786728  3.179265274461393 3.051756441736649 0.458180046726125  2.118907520557077 2.67724748322519 0.8470006506761207  2.19583443823808 2.573452765945556 0.8991103911558596  2.070273019548794 2.52343715427923 0.9166980903556573  2.077208127614695 2.491681784506147 0.8542569484135906  2.199429290588021 2.542699787354559 0.8345041951557164  2.125450536385045 2.650552308857423 0.7783874443569118  2.084228372063889 2.459929441115712 0.7918101052519506  2.203073756797999 2.511930167632984 0.7699022569415455  2.132047484966462 2.623860374521235 0.7097680158711294  2.091309696443829 2.42817191462057 0.7293444567480498  2.206762393153269 2.481146284019566 0.7052953530345101  2.138688240551299 2.597153223454984 0.6411420388328762  2.098405878253355 2.396382824226297 0.666863726493951  2.210460526711067 2.450332908175924 0.6406866359196753  2.145338057588504 2.570416921211812 0.5725093020396307  2.2141432702173 2.41947260597458 0.5760881894727927  2.151975161561757 2.54363072963142 0.5038786083698077  2.105480523071096 2.364531772707808 0.6043832905397021  2.217814273094299 2.388573858465132 0.511499864372764  2.158591598856997 2.516787160055554 0.4352473389606409  2.112496061153375 2.332621344659554 0.5419222933460909  1.967923772750005 2.765259219687525 0.8005168680356354  2.088494630778945 2.838099868570146 0.7939117251041017  2.095955383625021 2.820162101872163 0.719507816543224  1.976665887136422 2.742878418031831 0.7289333607915079  2.103441356502187 2.802237931292414 0.645075726115541  1.98542861779578 2.720535438997742 0.6573152808281676  2.110953053519659 2.78430287852431 0.570628280322389  1.994218609883174 2.69819201673198 0.5856795647068795  2.118481190863415 2.766331090302081 0.4961738402504334  2.003022165301376 2.675815681469836 0.5140398854337139  2.126009185574161 2.748307128374866 0.4217093191176032  2.011830125236649 2.653378704013409 0.442406411488836  2.133527311181422 2.730214363815299 0.3472312025938356  2.020639779157163 2.630865880494651 0.3707713310798063  2.542116427993332 3.005293433471897 0.804925745310703  2.686165934355897 2.95470857258614 0.8194821543002921  2.592735726966057 2.868687383456193 0.820172682528268  2.597082943383878 2.855099358098035 0.7434900698070946  2.691612761764322 2.948955439519786 0.7406696470838889  2.548109162980375 3.0001671555838 0.7250488582192478  2.554201336598476 2.995002801738392 0.6451685897403886  2.697192253813117 2.943151885448774 0.6618666623993925  2.601539341657705 2.841474196076519 0.6668132593609976  2.560337392716307 2.989818087714738 0.5652817527595129  2.702829498106638 2.937316647511996 0.5830730705873266  2.606038012705068 2.827825086667584 0.5901465285543023  2.566475826221459 2.984609672695038 0.4853864211059324  2.70846170622523 2.931467615583265 0.5042867848359569  2.610529708704795 2.814157887503261 0.5134855717446914  2.614981241621973 2.800458161733081 0.4368224269558254  2.714046827421115 2.925599325863438 0.4254979723462211  2.572586771782732 2.979367562140797 0.4054688856554479  2.61936227896052 2.786716924298234 0.3601404431295215  2.719547442187174 2.919696136804033 0.3466855159553062  2.578637439656131 2.97407792433878 0.3255179385113581  2.012952364254797 2.530234923718383 0.6589712844477592  2.021670651642575 2.50107314087028 0.592874441712404  2.030372460250682 2.471850019459769 0.5267842947139179  2.03903991811308 2.442557603954822 0.4607045692196943  2.93422248174319 2.8144810387701 0.8552243223230117  2.948279754414577 2.962251065999844 0.8390889022246154  3.056526270064895 2.849641053571059 0.8571012579842974  3.058986503275746 2.837731452774838 0.7821090956679305  2.954450067213738 2.956944039560175 0.761007523744898  2.939303657046851 2.79979263557812 0.78107654382325  3.06159654502813 2.825753367358871 0.7071908537896656  2.960757608837134 2.951526522388404 0.6829833238174864  2.94455580559154 2.785033124340665 0.7069876609718385  3.064309962648716 2.813710741698061 0.6323388796569789  2.967157939943943 2.946055316548467 0.6050024635543629  2.949894918304975 2.770227197795933 0.6329537609843983  3.067043546528907 2.801636058739057 0.5575478262983415  2.973570457453079 2.94055524131775 0.5270605737482754  2.955235830106217 2.755397759213162 0.5589725420375198  3.069704949598969 2.789557703827653 0.4828150615063349  2.979912144986157 2.935047000425173 0.4491524548075777  2.960488457063422 2.740564243864346 0.4850409786942974  3.072169171354697 2.777509266668471 0.4081280080624444  2.986086255977259 2.929562167490126 0.3712539220466072  2.96553794227571 2.725744018273608 0.411136471447327  2.790926747716047 3.013373282546496 0.8231970363329231  2.749370161336677 3.153482695727184 0.8240250057995123  2.899884046913705 3.108676198226945 0.8306121618723653  2.907415026942874 3.114539928295125 0.7497446568307314  2.757031438255296 3.161546904420678 0.7423481226390695  2.797569373580768 3.011375672372215 0.7434478477108369  2.915069933628118 3.12029213298369 0.6689331811194339  2.764802503208641 3.169526142845442 0.6606959627885  2.804337620421698 3.00928863290666 0.6637426851388516  2.92276579761273 3.125975265488651 0.5881670615812515  2.772610504854423 3.177457597555486 0.5790684418668359  2.811171168086423 3.007160161323738 0.584060574411752  2.930443762081603 3.13162301536264 0.5074286223238713  2.780393945509186 3.185360128746586 0.4974552133635891  2.818005569503782 3.005013600377315 0.5043942692899374  2.938061528463442 3.137270703473311 0.4267051763623613  2.788133561900647 3.193239348765506 0.4158354873479624  2.824779231435084 3.002860865276143 0.4247343450378809  2.945573598461923 3.142918792011202 0.345975729293585  2.795815970419378 3.20109231566196 0.3341898009620735  2.831443174914871 3.000695319839487 0.3450566316451056  2.945813963315397 2.508144605683517 0.9545868036382249  3.068609572766618 2.58716248999641 0.925847588420993  3.050616718296668 2.441083396685614 0.9815416073398102  3.051247893824512 2.415125278033596 0.9198613242402632  3.06920265805046 2.563502895274975 0.8598128992406215  2.947481464342433 2.482594018331299 0.8907842811708718  3.052029679409712 2.38918681076533 0.8582396815134375  3.069936199211709 2.539829914776534 0.7938488387127899  2.949309933719829 2.45703567474782 0.8270325372609372  3.052879959667239 2.363247008069478 0.7966837811011951  3.070752962043848 2.516134246876488 0.7279680363186785  2.951208744454076 2.431462994249802 0.7633379278151226  3.053719011560305 2.337300758216331 0.7351902549636242  3.071569141442563 2.492425200713045 0.6621593881376506  2.953095919308924 2.405878431657643 0.6996968713177082  3.054461381248319 2.311344573609191 0.6737681391638866  3.072295259139741 2.468715296504022 0.5964244706061711  2.954888069492155 2.38027871219843 0.6361086000286719  3.054987225268476 2.285368128401089 0.6124262127542267  3.072816511995593 2.445022440519526 0.5307709138638355  2.95646935382281 2.354660679764216 0.5725731309858041  2.802931475036309 3.350017311218497 0.8661165391699234  2.811694316855128 3.378584919351408 0.7865610980989155  2.820547625696001 3.407082528230382 0.7070307614651639  2.829414494376054 3.435545108037739 0.6275231943485352  2.838260688803335 3.463976275541941 0.5480230834590482  2.847072617622363 3.492369869112246 0.4685051527922555  2.855833770822368 3.520717776795963 0.3889548789974635  3.161394881483113 3.248717596349797 0.3777879388355356  3.157322423823767 3.23603679064496 0.4579790727244445  3.035813306468734 2.722149859565328 0.884573205745471  3.03816080512545 2.703644923741594 0.8137115941038704  3.040657801024392 2.68510135499008 0.742939350453118  3.043249268967592 2.66651078918751 0.6722368593942244  3.045853683115141 2.647895266445072 0.601600344818324  3.048382262678484 2.629275989390866 0.5310275008573937  3.05070770543246 2.610690576510792 0.4605329631930674  3.041430658581283 3.072410431112931 0.8425596600008711  3.047752466713514 3.076223677988986 0.7626061559896806  3.054202226958476 3.079898429724063 0.6827447548049258  3.060701598629023 3.08347822670396 0.6029376709568939  3.067208979765839 3.08701711943869 0.5231735271052153  3.073658247759944 3.090553537163716 0.4434489935203938  3.079951147661846 3.094110447762663 0.3637372596911372  2.93404360585803 2.284923708610853 0.9089593426763549  2.789815496665728 2.258435538669014 0.9199171254971977  2.834379098853268 2.147825860753317 0.9735850551530009  2.790045732965662 2.28587090427913 0.9790599050564061  2.93465979793192 2.258318078335722 0.8496024521346129  2.78
[...]
<PointData  Vectors="f_24"> 
<DataArray  type="Float64"  Name="f_24"  NumberOfComponents="3" format="ascii">5.1026358200116799e-02 -3.3425866417051496e-02 3.5614083602894829e-02  5.1474510840482934e-02 -3.5063302116652637e-02 2.7043951207544676e-02  5.2944057587751579e-02 -3.3940179099389206e-02 2.5492655062129603e-02  5.4509481637430718e-02 -3.1156879046990944e-02 2.6902493321487708e-02  5.2923167014078412e-02 -3.2160680653313560e-02 2.8630404635792174e-02  5.2349943792498674e-02 -3.1600765579351028e-02 3.6222210866394038e-02  5.4250049974340742e-02 -2.9646245354967810e-02 2.9429866509448822e-02  5.3693631916348301e-02 -2.9656430714139963e-02 3.6471388025026773e-02  5.6106056850335900e-02 -2.8531359992263399e-02 2.7613714711276174e-02  5.5737028739990896e-02 -2.6483129440522633e-02 2.9922249453780411e-02  5.5095835370778987e-02 -2.7359568797291879e-02 3.6552623964821958e-02  5.7667251521809348e-02 -2.5323369738184671e-02 2.7994923439901002e-02  5.7291989899976158e-02 -2.2887888417656883e-02 3.0049870308367511e-02  5.6605558727199176e-02 -2.4850014114227818e-02 3.6328698893672268e-02  5.9299281516384313e-02 -2.1716473165406036e-02 2.8024117416037404e-02  6.1174762000547257e-02 -1.7797915598414114e-02 2.7467279610494874e-02  5.9092897751641761e-02 -1.8960514085481408e-02 2.9511581689235445e-02  5.8368549483926557e-02 -2.2086647369792531e-02 3.5481077803839356e-02  6.3379975888914059e-02 -1.3602153597932440e-02 2.6474733766329125e-02  6.1307547293261003e-02 -1.4725130726606622e-02 2.8376430046140717e-02  6.0489580173691500e-02 -1.9186510683564681e-02 3.4235495801810234e-02  5.7779244041617675e-02 -1.5383223021115304e-02 3.1564062487436123e-02  6.0421791267695757e-02 -1.1338638446103052e-02 1.7745276359587579e-02  5.8920893335749916e-02 -1.1468667617100444e-02 2.1223776545715851e-02  5.8506443103094947e-02 -1.6998557666054407e-02 1.9104885079607527e-02  6.4488233488136884e-02 -4.8734948199279239e-02 -5.1284847257928465e-02  6.3143484624517979e-02 -5.7177299945617384e-02 -6.4506743894102436e-02  6.5045536514410987e-02 -6.0182907788070797e-02 -7.2287493721861606e-02  6.5639471181969458e-02 -5.3712257298769377e-02 -7.4658785519998189e-02  6.4159962474806681e-02 -5.0765616759240323e-02 -6.6649423288894741e-02  6.5402882039750546e-02 -4.2526141579689973e-02 -5.2854500455150728e-02  6.6183559897883021e-02 -4.9587613405889394e-02 -7.6316203704490146e-02  6.5047561512427077e-02 -4.6647367174576869e-02 -6.8229590441602747e-02  6.6201667785235174e-02 -3.8319790178836424e-02 -5.4101631905049470e-02  6.6637853231748145e-02 -4.5807624883405590e-02 -7.7799082781694506e-02  6.5889434113437534e-02 -4.2613320140483163e-02 -6.9695729190126482e-02  6.6963766932979285e-02 -3.3808065207299301e-02 -5.5333834611651818e-02  6.7082460076694952e-02 -4.0540764909360399e-02 -7.9609163756318602e-02  6.6667449241313639e-02 -3.6723841021190556e-02 -7.1589202607149183e-02  6.7735362914811928e-02 -2.7521980812243590e-02 -5.6917866757106514e-02  6.7445344621078485e-02 -2.9133743756339741e-02 -7.4007994667617788e-02  6.8590075200802916e-02 -1.9869627294019351e-02 -5.8966553698863923e-02  6.7572462406219072e-02 -3.3339789393229069e-02 -8.1966036987139085e-02  6.8276206268738329e-02 -2.0870293242785491e-02 -7.6685163609968618e-02  6.9498948069512775e-02 -1.1664783516263554e-02 -6.1345869620487922e-02  6.8035908605993567e-02 -2.5397231644427452e-02 -8.4518785800694954e-02  6.7007829785170156e-02 -4.1450696967730363e-02 -4.1435520026018705e-02  6.5254771703588357e-02 -3.9140576379583118e-02 -3.0761832639009043e-02  6.6075421550107802e-02 -3.3379329680382069e-02 -3.1333069784286419e-02  6.7523912259387225e-02 -3.5479123261935440e-02 -4.2378520909364975e-02  6.6859417006801508e-02 -2.9194006110480227e-02 -3.1989949377569570e-02  6.8000912588529208e-02 -3.1276418353346568e-02 -4.3261315794446718e-02  6.7686352865528238e-02 -2.4336992102236561e-02 -3.2708603152460700e-02  6.8495789408605567e-02 -2.6612158350169692e-02 -4.4234504543212858e-02  6.8608693643376392e-02 -1.8039713920091571e-02 -3.3654177373185976e-02  6.9151502559312725e-02 -2.0408729500287368e-02 -4.5478521426447226e-02  6.9664065748147069e-02 -1.0829165519102572e-02 -3.5011336752751837e-02  6.9986035464088450e-02 -1.3095709006766444e-02 -4.7151147608585998e-02  7.0796356603628957e-02 -3.1560322737998374e-03 -3.6747344325742108e-02  7.0844493637160999e-02 -5.2967255884645778e-03 -4.9177203274690849e-02  5.7969184688910699e-02 -3.6532372977838318e-02 -2.6659127386235411e-03  5.6334267675458523e-02 -3.8516927830473432e-02 -4.6951858018324357e-03  5.7834076870617930e-02 -4.0587131452607297e-02 -1.6411626981505306e-02  5.9615982853883601e-02 -3.5274105246015514e-02 -1.6723202083624881e-02  5.8121453643408080e-02 -3.3419756900867778e-02 -3.9293814191579202e-03  5.9796016011042626e-02 -3.1566949290720382e-02 -2.0928785389167249e-03  6.1465931470344175e-02 -2.7640861581837664e-02 -1.9813243305999346e-03  5.9815699390933043e-02 -2.9474703314419041e-02 -3.6759546163792787e-03  6.1288692642871297e-02 -3.1157396934989975e-02 -1.7206506336725571e-02  6.3074205158769228e-02 -2.2898945919123566e-02 -2.0479937057791492e-03  6.1495611306468044e-02 -2.4680050106452807e-02 -3.6705628199730366e-03  6.2943648742714242e-02 -2.6143043386394324e-02 -1.7786471824244039e-02  6.4694159910474988e-02 -1.7177605226659998e-02 -2.3416735649886152e-03  6.3197525098459315e-02 -1.8817918948958814e-02 -3.9219920299704263e-03  6.4544226651064046e-02 -1.9710356369027043e-02 -1.8610671422034156e-02  6.6236285405808837e-02 -1.2507270274072014e-02 -1.9867191947118064e-02  6.5017463823053706e-02 -1.2335288312913533e-02 -4.6577347114216015e-03  6.6385783928398820e-02 -1.0908650109642990e-02 -3.0963180539825123e-03  6.8112625238043775e-02 -4.8704907203590050e-03 -2.1484141643030551e-02  6.7067350896052078e-02 -5.4473511044272876e-03 -5.8442103202426847e-03  6.8255983405547685e-02 -4.2524137055254463e-03 -4.2709908552543384e-03  6.7806464704375485e-02 -3.6556524923741555e-02 -6.4891729411161309e-02  6.8229509179303399e-02 -3.0617358072674680e-02 -6.6663595563938124e-02  6.8825795240777005e-02 -2.3219742943098698e-02 -6.8890108515771709e-02  6.9386469094516595e-02 -1.5210261180840245e-02 -7.1403838458411931e-02  5.3956240716941141e-02 -4.3832147669171484e-02 -1.3742957097425873e-02  5.3396796892358100e-02 -3.9249132513645119e-02 3.8542840773839434e-03  5.2528271294450132e-02 -4.2953368665731170e-02 -5.8021472771116181e-03  5.3881422656701483e-02 -3.8015241462758816e-02 -6.0154570457943094e-03  5.4917322445134413e-02 -3.4607040181189257e-02 4.5027669097384860e-03  5.5372525273222360e-02 -3.8775681091382998e-02 -1.4099504869129373e-02  5.5351755841093468e-02 -3.4304962339280202e-02 -6.4141607468949195e-03  5.6435101235014572e-02 -3.1001172787064636e-02 4.6009361233879491e-03  5.6883500651981361e-02 -3.5011375909674777e-02 -1.4613608994836108e-02  5.7062629553641872e-02 -2.9764029655924541e-02 -6.8756510383068134e-03  5.8095838094089122e-02 -2.6492381616954438e-02 4.5314809631617978e-03  5.8562760386256581e-02 -3.0376433139936942e-02 -1.5206115083029648e-02  5.8844932899728024e-02 -2.3797840839166830e-02 -7.5521494977280005e-03  5.9844351923845712e-02 -2.0917514339632917e-02 4.2315276094984609e-03  6.0319671690524435e-02 -2.4132684409543050e-02 -1.6043475205392749e-02  6.0780593106732672e-02 -1.6947306742797198e-02 -8.7445517198228608e-03  6.1770784844031583e-02 -1.4731844407950556e-02 3.3943615401634680e-03  6.2247126673232213e-02 -1.6958211659040986e-02 -1.7364346359379033e-02  6.2953420988146047e-02 -9.5951078666520820e-03 -1.0475041880373827e-02  6.4068209034953416e-02 -8.0919164304326784e-03 2.0535004494686578e-03  6.4435595079182437e-02 -9.2823423845057717e-03 -1.9132627532021693e-02  5.4768480249453633e-02 -3.7242313906853612e-02 4.8392017933181009e-03  5.4568764512756218e-02 -3.4454574958713458e-02 1.7072403893525413e-02  5.3217698273715155e-02 -3.5657672497375108e-02 1.7821902822274419e-02  5.4835307208637850e-02 -3.2073077941164874e-02 1.8661416127301642e-02  5.6297910515856878e-02 -3.0856947005326787e-02 1.8250281276436311e-02  5.6579466486909723e-02 -3.2760641303918696e-02 5.6529834535264901e-03  5.6412994997862058e-02 -2.8810517957189311e-02 1.8991994482158329e-02  5.8044090146416254e-02 -2.7692781388148444e-02 1.8801460654496858e-02  5.8266373041772374e-02 -2.9057885400091112e-02 5.9435491222554811e-03  5.8043717627291019e-02 -2.4779960895286446e-02 1.9207472349000259e-02  5.9712799444805627e-02 -2.3807859602602042e-02 1.9120366096417298e-02  5.9956344747725258e-02 -2.4523321403498645e-02 6.0406822545308924e-03  5.9749200500138440e-02 -2.0141595747655307e-02 1.9171081045697102e-02  6.1404210899258439e-02 -1.9379145282204167e-02 1.9139526225725522e-02  6.1699718709839688e-02 -1.9083815803531249e-02 5.8799436413068378e-03  6.1701659978605827e-02 -1.5120501831210578e-02 1.8574599282019381e-02  6.3296720174994950e-02 -1.4590942159255839e-02 1.8625669616379549e-02  6.3614578248507095e-02 -1.3132162882736279e-02 5.2037656087566475e-03  6.3993433769441443e-02 -9.7451991507560478e-03 1.7559098114986755e-02  6.5439386963618840e-02 -9.4706397640588764e-03 1.7728774557106475e-02  6.5811728803048211e-02 -6.7798898880918577e-03 4.0972201629007341e-03  5.2481981350053636e-02 -6.2372978371289176e-02 -5.5840853629528259e-02  5.0759357251796124e-02 -5.6941954493332725e-02 -4.1111241090065802e-02  4.9871846852978519e-02 -6.6652814666531696e-02 -6.1559788596777729e-02  5.1609263387863653e-02 -6.0786105145444677e-02 -6.3316212447168604e-02  5.2561209251455097e-02 -5.1099545944493320e-02 -4.2513311883524842e-02  5.3938137380418388e-02 -5.6379400432163565e-02 -5.7425098616351242e-02  5.3214353727756750e-02 -5.7379813470665730e-02 -6.4499315031411222e-02  5.4145768977162341e-02 -4.7517139882001465e-02 -4.3570462919225651e-02  5.5330748679846657e-02 -5.2853015410789538e-02 -5.8515045087306351e-02  5.4860336808057256e-02 -5.4280397649138216e-02 -6.5510855313041808e-02  5.5835289362279460e-02 -4.3746437477780828e-02 -4.4598759946979975e-02  5.6893845734205334e-02 -4.9436675346151780e-02 -5.9518057929304313e-02  5.6626076182759118e-02 -4.9446601040662702e-02 -6.6844096675804099e-02  5.7673092014096941e-02 -3.8011836730257695e-02 -4.5971347655408307e-02  5.8601153288547127e-02 -4.4150655305057893e-02 -6.0898660940512751e-02  5.8583949430750813e-02 -4.2251685057752196e-02 -6.8666450410333951e-02  5.9653609022071279e-02 -3.0429595833797986e-02 -4.7877525572822481e-02  6.0438349171261542e-02 -3.6565392555303854e-02 -6.2817913648289384e-02  6.0556858052447177e-02 -3.4277198837215590e-02 -7.0577592478049317e-02  6.1707789041380301e-02 -2.2205898170928662e-02 -5.0118098237014568e-02  6.2330623066119806e-02 -2.8314627315104958e-02 -6.4933838235571389e-02  5.2900680582176673e-02 -3.2473903031908703e-02 3.2726889534126467e-02  5.4373448798446695e-02 -3.0591279043403800e-02 3.3668333057428168e-02  5.5829123058515367e-02 -2.8663316188512127e-02 3.4051192193615173e-02  5.7296585992255011e-02 -2.6405330141592496e-02 3.4194484708821138e-02  5.8849115162878260e-02 -2.3929379430988090e-02 3.4007021311384840e-02  6.0608042571357525e-02 -2.1206149082472831e-02 3.3238861812842788e-02  6.2586982753569970e-02 -1.8302779171224162e-02 3.2131856833265027e-02  5.9697024286959492e-02 -1.4677525521179270e-02 2.9192804956163502e-02  5.7696038119434474e-02 -1.9066705668564214e-02 3.0480120341471021e-02  5.2351565073136958e-02 -4.8942421013808961e-02 -2.3369177875436832e-02  5.3799352961359855e-02 -4.3364825894260460e-02 -2.4096856460519206e-02  5.5298620917043802e-02 -3.9674572520892092e-02 -2.4775601441347092e-02  5.6994775558730885e-02 -3.5367364378499758e-02 -2.5530945533046343e-02  5.8806333857189266e-02 -2.9253462276193330e-02 -2.6543570543038415e-02  6.0740258771933169e-02 -2.1812122491739389e-02 -2.8086119232366192e-02  6.2847323213711795e-02 -1.3821029176728002e-02 -3.0124900840485448e-02  5.1802677654374754e-02 -3.6971266638512149e-02 1.8415734652489843e-02  5.3330279451878466e-02 -3.3231047325536424e-02 1.9079905572819481e-02  5.4796351567223282e-02 -2.9970908959647817e-02 1.9383970956201702e-02  5.6400965792640305e-02 -2.5961413864735172e-02 1.9609558260569395e-02  5.8062173911329812e-02 -2.1245849894942003e-02 1.9592525815471468e-02  5.9927775097021338e-02 -1.6089926056637373e-02 1.8951871173265675e-02  6.2239759730109812e-02 -1.0547740276935611e-02 1.7829318686140874e-02  5.3964104289732168e-02 -6.4850261116432953e-02 -8.1371011925382514e-02  5.5830421685278110e-02 -6.6779249649341968e-02 -8.8708142990583438e-02  5.3952160390121018e-02 -7.3498986591623544e-02 -9.8955224614702866e-02  5.4500754836819001e-02 -7.0030186475817324e-02 -8.7482477789592047e-02  5.5491795931380997e-02 -6.2234205120056674e-02 -8.2266447852356567e-02  5.7217983942612051e-02 -6.4255714985273896e-02 -8.9591017377131002e-02  5.5396305787385205e-02 -7.1396426307515887e-02 -9.9527913295266959e-02  5.7123599151159693e-02 -5.8332339956628412e-02 -8.3380361243138426e-02  5.8792881218697982e-02 -6.0449762433951164e-02 -9.0715111846635374e-02  5.6914683976891485e-02 -6.8586061272658622e-02 -1.0017520237779949e-01  5.8898972693728804e-02 -5.1814196664825507e-02 -8.4876976203020149e-02  6.0332583753879912e-02 -5.4060332643287079e-02 -9.2203996092860827e-02  5.8549083085919530e-02 -6.3432052318443122e-02 -1.0088985336657792e-01  6.0692006605575853e-02 -4.4407760174312437e-02 -8.6233909312057738e-02  6.1956997124243823e-02 -4.6746704880540883e-02 -9.3520776746625664e-02  6.0221511667429832e-02 -5.7373152054090999e-02 -1.0114429940121257e-01  5.6173355926300787e-02 -2.0662154476973095e-02 3.8215347254282619e-02  5.6272273190227498e-02 -3.5116167185807116e-02 7.4023913828355223e-03  5.6428091113031077e-02 -3.2723022357226482e-02 1.8136725397167902e-02  5.8205690351619065e-02 -2.9399365344827670e-02 1.9282506222864777e-02  5.8114565349795207e-02 -3.0933936615998376e-02 8.0215882998527013e-03  5.9883503329524239e-02 -2.6386209060827850e-02 1.9771666021445727e-02  5.9889683909963937e-02 -2.7253830407486634e-02 8.2274085321713195e-03  6.1514697125529344e-02 -2.2724621650742481e-02 2.0046796444740011e-02  6.1577301577644433e-02 -2.2777855102678705e-02 8.3029747739486962e-03  6.3137952025440730e-02 -1.8600513744771924e-02 2.0047337262559153e-02  6.3270107470604131e-02 -1.7559035486932897e-02 8.1551421571649223e-03  6.4895746246069252e-02 -1.4123405824531095e-02 1.9547905352561221e-02  6.5107527765190687e-02 -1.1898120778453739e-02 7.5246507467303450e-03  6.6820879464618593e-02 -9.3124324634778852e-03 1.8676024664678374e-02  6.7164130711587097e-02 -5.8722148121056585e-03 6.5412403387040928e-03  5.1994894209492958e-02 -3.9699790639469740e-02 7.3422798061944083e-03  5.3347540696896234e-02 -3.5188865903118816e-02 7.9043112257918789e-03  5.4864403246797533e-02 -3.1642465713857711e-02 8.1144487045167052e-03  5.6523780948468987e-02 -2.7274850784683436e-02 8.1768700501256633e-03  5.8259718413515627e-02 -2.1865651892892395e-02 8.0036572429628364e-03  6.0112983517743829e-02 -1.5842703084082553e-02 7.2514041016562116e-03  6.2294566952520926e-02 -9.3355662629563407e-03 5.9089268713799744e-03  5.4987552369495762e-02 -4.0255085428627185e-02 -6.7410936860325451e-03  5.6710534109617301e-02 -3.5341284248272944e-02 -6.6755047774318416e-03  5.8372975091110620e-02 -3.1450588074479584e-02 -6.8519182543288031e-03  6.0058498574257005e-02 -2.6617306589799789e-02 -7.1548432257643770e-03  6.1802075288958251e-02 -2.0507985232720433e-02 -7.6916122514449460e-03  6.3723566254455272e-02 -1.3698514752566069e-02 -8.7052418909691811e-03  6.5930229920769010e-02 -6.4402751031435368e-03 -1.0090008235747872e-02  5.7385323109125308e-02 -6.3806058445330327e-02 -6.7966441778754300e-02  5.5386410076157772e-02 -7.0043659909902703e-02 -7.7187827018010122e-02  5.6816041871000554e-02 -7.3137581217558090e-02 -8.4602212047529421e-02  5.8182399980346550e-02 -6.7070773612458764e-02 -8.6938166404506009e-02  5.6851858310055250e-02 -6.4010411812375850e-02 -7.9179076145634492e-02  5.8899449732270674e-02 -5.7541294196388537e-02 -6.9979020915556481e-02  5.9342390660657933e-02 -6.3516917401199205e-02 -8.8440445249350214e-02  5.8109455116629030e-02 -6.0550722490708482e-02 -8.0474634806622231e-02  6.0244677530493090e-02 -5.3869296820360887e-02 -7.1421993996355113e-02  6.0573125511342446e-02 -6.0685648167659638e-02 -8.9610304567248888e-02  5.9481557273276919e-02 -5.7597880070820569e-02 -8.1543299560699084e-02  6.1679380388955603e-02 -5.0435169450984633e-02 -7.2749692961498150e-02  6.1946618168093361e-02 -5.6421394673922078e-02 -9.1071849159492443e-02  6.1002886323165841e-02 -5.2943869681826100e-02 -8.2993742630156464e-02  6.3114579022795436e-02 -4.5063894733192014e-02 -7.4530074331564986e-02  6.3106599619182580e-02 -4.9562592433706629e-02 -9.3042977447747727e-02  6.2415896972283606e-02 -4.5737559753524178e-02 -8.4964965660166897e-02  6.4376740848833575e-02 -3.7458734622338577e-02 -7.6902476786177676e-02  6.4432500471166901e-02 -4.1738995612810297e-02 -9.4979618888213227e-02  6.3941512552069660e-02 -3.7696754006987042e-02 -8.6954155019678875e-02  6.5823373199976776e-02 -2.9121321114956241e-02 -7.9469231187754313e-02  5.9737655332042824e-02 -3.7842994841596179e-02 -1.1787497228078788e-02  6.1386710392909272e-02 -3.2436130766753717e-02 -1.1544752702179917e-02  6.2965530286592727e-02 -2.8280764480235223e-02 -1.1611795222554407e-02  6.4458817488698264e-02 -2.3351437180321948e-02 -1.1842029171852444e-02  6.5927161427272854e-02 -1.7277328174832136e-02 -1.2305352958000048e-02  6.7468688457355486e-02 -1.0526608188422158e-02 -1.3207164261810584e-02  6.9158118166123161e-02 -3.3786947885975638e-03 -1.4512164160893118e-02  5.4792612976138681e-02 -2.7216794684575326e-02 1.0302427809497085e-02  5.5102034017240523e-02 -2.6917853013309141e-02 1.9718468752246848e-02  5.5911304469154467e-02 -2.8494101092375844e-02 1.9156652649345558e-03  5.3467507298503948e-02 -3.0859182379198283e-02 1.9437283199380265e-02  5.4123792406507748e-02 -3.2997641647354220e-02 2.3231406729748122e-03  5.6569591897770000e-02 -2.1727072791602547e-02 9.6783082009472519e-03  5.6763769020979765e-02 -2.2202882640867110e-02 1.9723091082365782e-02  5.7725681244946002e-02 -2.2720611376620854e-02 1.3189704512217995e-03  5.8338159681893570e-02 -1.5657415974436227e-02 8.4649572234252856e-03  5.9602041084238937e-02 -1.6239356865770545e-02 1.5500325687212111e-04  6.0139661554426210e-02 -9.1092160341048681e-03 6.7088999881428661e-03  6.1615418397619755e-02 -9.2512301482698834e-03 -1.5829423329299917e-03  5.4758667772707985e-02 -3.1710505482339842e-02 -8.3547124223133148e-03  5.6647148139782035e-02 -2.5811530497017551e-02 -9.3042412368575713e-03  5.8546539094323814e-02 -1.8923719880357823e-02 -1.0798984032206247e-02  6.0515192138166668e-02 -1.1530970599653691e-02 -1.2862756070837410e-02  5.6257978199295032e-02 -6.1060337897000251e-02 -6.0123553442067275e-02  5.3697964397541424e-02 -6.6904755837596377e-02 -6.8021704063283839e-02  5.5128163187088255e-02 -6.0976803145639809e-02 -6.9811497408066275e-02  5.7733186605716136e-02 -5.4863290621840741e-02 -6.1855161526886783e-02  5.6432535909530290e-02 -5.7573754142981610e-02 -7.1035764459169648e-02  5.9067120036088702e-02 -5.1245811786391184e-02 -6.3178353217423031e-02  5.7910917604785221e-02 -5.4488347580834574e-02 -7.2094822882260393e-02  6.0588745403598217e-02 -4.7727385618787192e-02 -6.4468012280413559e-02  5.9525525769533620e-02 -4.9580114146638106e-02 -7.3553924553245872e-02  6.2157357267846269e-02 -4.2191049653155566e-02 -6.6226548880425562e-02  6.1183729728069097e-02 -4.2216919646988496e-02 -7.5536782133123981e-02  6.3607227085798163e-02 -3.4468364471144979e-02 -6.8548869642637664e-02  6.2902496061422689e-02 -3.4046702355320993e-02 -7.7597048797540646e-02  6.5236992829399196e-02 -2.6072155532893337e-02 -7.1095768746436930e-02  6.5521806781959416e-02 -2.9136334170471571e-02 3.3083753538888172e-03  6.4112093189039293e-02 -2.8670855104400556e-02 1.3075970327966662e-02  6.2712342821910641e-02 -3.1216077425911929e-02 5.4377596143276178e-03  6.3913191811752923e-02 -2.7183578752799028e-02 6.1350