<?xml version="1.0"?>
<VTKFile type="UnstructuredGrid"  version="0.1"  >
<UnstructuredGrid>
<Piece  NumberOfPoints="902" NumberOfCells="3894">
<Points>
<DataArray  type="Float64"  NumberOfComponents="3"  format="ascii">6.295917202692371 3.245075399111341 4.080354225475965  6.405817977821505 3.18736647556823 4.143558021735036  6.419617239215071 3.297253761916869 4.064938660382502  6.405809185813004 3.345403822625002 4.125821365540584  6.394698659229316 3.231275804179999 4.210275096036864  6.28374918258186 3.293445442216659 4.141858601372567  6.392138991369293 3.393474622013472 4.186658778910383  6.383676800464774 3.275101300998423 4.276914758215902  6.271671033661703 3.341690883525617 4.203360914028063  6.259660847282538 3.389865977874946 4.264851461958171  6.372716323003821 3.318858940762757 4.343497715672147  6.378552460465253 3.441468416981439 4.247451182638961  6.24769612769501 3.437997204352941 4.326320335086385  6.361788693089028 3.362546673934545 4.410047727421651  6.365004529759749 3.489401751383726 4.308214180729814  6.351447243964118 3.537269749213937 4.368970931041748  6.350865331109472 3.406156344882827 4.476579846795633  6.235732601403165 3.486084939663082 4.387779396332474  6.339913447568934 3.449681209108572 4.543141306270696  6.337819080634379 3.585059201665868 4.429732127645279  6.463650721461493 3.596470291605579 3.815613815099348  6.514693652701041 3.684607855587582 3.757997395579885  6.412589110386342 3.687830111799737 3.694709784888746  6.384195164126212 3.735559838424223 3.74174519373683  6.487821410903786 3.731465853434069 3.809339739438575  6.439561081444277 3.644455880912332 3.867387979129496  6.415770651763115 3.692470455571341 3.919177265305211  6.461297890976367 3.778380342688427 3.860666796580569  6.356161714658309 3.783369717657451 3.788845542183626  6.39212114824125 3.740454371605659 3.970964829558521  6.434927269426897 3.825278913592571 3.911978230444661  6.328286211916702 3.831194552911334 3.835979600730119  6.368492144241999 3.788391500765839 4.022742098100755  6.408572554260557 3.872123119234173 3.963269010409621  6.300418158706827 3.878996867194937 3.883131903845408  6.344762283102531 3.836259849953751 4.07449772496233  6.382115434285004 3.918874943031298 4.014510098339257  6.272404573011869 3.926747952435702 3.930271804744632  6.320795664815916 3.884006767424091 4.126216691744807  6.355415118810237 3.965450650812361 4.065665078334353  6.244042745678076 3.97437786696588 3.977362752051372  6.341426721009768 3.56899401801585 3.778843029556944  6.317520762134079 3.618956153816961 3.826787240957032  6.293896441686621 3.668924816681831 3.874826314186038  6.270416869278469 3.718877888988204 3.922909580963723  6.2469733826775 3.768828969175752 3.971012227655307  6.223432167198774 3.818799137081181 4.019120782896769  7.286632227865836 3.03274519213382 4.207078988381193  7.197695108995941 3.124988431660427 4.19570795435409  7.189396313753913 2.968405171405308 4.231253797694196  7.201590336437536 2.981442075427543 4.313743653418511  7.205649367047972 3.147810567551592 4.276279123075918  7.29920369902222 3.047042685783688 4.28950747971517  7.213713644126577 2.994555029804258 4.396187570130975  7.2135378064232 3.170719639667588 4.356764801740844  7.311715002371998 3.061414572176883 4.371880546419248  7.22581378567056 3.00767487495595 4.478585374698423  7.221401328214035 3.193641948154074 4.437175939979581  7.324203184368486 3.075789600140675 4.45419482082501  7.237911529162203 3.020760755205141 4.56094337226216  7.229259972247261 3.216525072833408 4.517530541239058  7.336685132302291 3.090123716142268 4.536461114178141  7.250019370335728 3.03378550778124 4.643277609795204  7.23712744044324 3.23933029927319 4.597853748380541  7.349165974553108 3.104380727559842 4.618697233410958  7.262159256667534 3.046705237058347 4.725619679809667  7.245015820755404 3.261997466048173 4.678187211027408  7.361647877226726 3.118529915653846 4.700926350412471  7.241015102650753 3.630563557155715 3.9686634451317  7.154103715495178 3.682094213486081 3.934586398363172  7.180707848430292 3.561229139229259 4.008533997785312  7.178116652159907 3.602291121635381 4.080467238012094  7.149425084700019 3.725481284749084 4.004561471359173  7.241266909988407 3.67288040033066 4.040321632302404  7.241520708790393 3.715144675823743 4.111715260704267  7.144800118737075 3.768798997972659 4.074274341374021  7.175557506954095 3.643328474381529 4.152140549667352  7.241751708589262 3.757330189008667 4.182890524097335  7.140192854181713 3.81201742064311 4.143777791538951  7.172995339249632 3.684304060963987 4.223623806219783  7.241924675538042 3.799449800693462 4.253921018029109  7.135559337780903 3.855143241029925 4.21311870229512  7.170411447421924 3.725206784395156 4.294966073731555  7.16781227566173 3.766023601253286 4.3662063933357  7.130900704287755 3.898188513681663 4.282333952759132  7.242080583292169 3.841461945106333 4.324821324554147  7.165215887602787 3.806650041539065 4.437395143817273  7.126233179707235 3.941073782570524 4.351451590912487  7.24224825623743 3.883293759560249 4.395618599574318  6.434544058385816 3.393733158370333 3.98996855186743  6.462617565992262 3.480251320225566 3.918268871835763  6.349676734903204 3.466827229027058 3.885540406975466  6.330178254033447 3.518428118543942 3.936354924479181  6.442189772941521 3.529017555537673 3.97285107698832  6.417942884403336 3.443728760452442 4.046521150839475  6.310893135909526 3.569972230810783 3.987235045504442  6.422015938835965 3.577748005814942 4.027410341729159  6.401521878382233 3.493668343395965 4.103057303496839  6.291722261216885 3.621462200632529 4.038139891236418  6.401967210359246 3.626429532361361 4.081949009382984  6.38519817451822 3.543545511778607 4.159565945473808  6.272592951476651 3.672928989778399 4.089043671431184  6.381957343148993 3.675058688722974 4.136466041295535  6.368909241284979 3.593364972623315 4.216051709849713  6.253412575380477 3.724378780521115 4.139942148290173  6.36189771444983 3.723621630316889 4.190960690962587  6.352585688508658 3.643117102055236 4.272527060347807  6.23407014727069 3.77581245345546 4.190842758838409  6.341650927108677 3.772070128054211 4.245431037789309  6.336152675098219 3.692800355532536 4.329015679571572  6.284139327652633 3.831149599916885 3.683525246971407  6.218526453794524 3.889837597256622 3.559722379199852  6.254138088569759 3.88012217420488 3.725700179887015  6.306211915524442 3.978398027201646 3.654591203196887  6.284994847798673 3.419161989412504 4.027901196048062  6.270053794315586 3.471294660060435 4.082208618489411  6.255198888052231 3.523364910503342 4.136530015799518  6.240383313139779 3.57541128866273 4.190847013185208  6.225540016639509 3.627447971178571 4.24516134981162  6.210618301665059 3.679497722640626 4.299477584029699  6.317628412536499 3.118399371689295 4.173093207679869  6.307690932586271 3.159980122447353 4.242322252962291  6.29781139609841 3.201449543085846 4.311481736250828  6.287979268715788 3.24284663597257 4.380588098312922  6.278180151926724 3.284186565927563 4.449659809154163  6.268395574142829 3.325467436089535 4.518713220382522  6.258613334383404 3.366680657234195 4.587767526533739  7.078276489861842 3.078160539303382 4.221169090290352  7.085992488744699 3.101627323300701 4.301302532877397  7.093638712190425 3.125161308232561 4.381350920583214  7.101261424114768 3.148704278930195 4.461330562551789  7.108886194183784 3.172209421159515 4.541264720896564  7.116552203968102 3.195652125171572 4.621180270859496  7.124272169566726 3.218960983301321 4.701118654349656  7.468208641950674 3.101794402455512 4.163648726314145  7.418466401535928 3.2064661827626 4.146877102028487  7.332546849990818 3.127800476646134 4.180323271572033  7.343898683905485 3.147598765932012 4.261873454982304  7.429038310457831 3.229478124000213 4.227698242945549  7.483142690069104 3.116036515842793 4.245396732683095  7.355187078403889 3.16748857877525 4.343330027158149  7.439547971259073 3.252582860484845 4.308395747204361  7.498011770874387 3.130345379118904 4.327067347781146  7.366449865451481 3.187383825078495 4.424705381147201  7.450023763433965 3.275686734672242 4.388994400947435  7.512854279725512 3.144649194441611 4.408657886150884  7.377701702424453 3.207230468184825 4.506019410479304  7.460480317331337 3.298732770214455 4.469518242072476  7.527685386039012 3.158902478446129 4.490184000028443  7.388948704274 3.226989915608926 4.587295793459119  7.470919450338905 3.321668756521091 4.549993657160817  7.542514858207786 3.173070010221123 4.571661847954044  7.400193231898595 3.246624525000084 4.668567052794643  7.481350823476999 3.344472089185301 4.630429587176312  7.557349955362561 3.187126931796892 4.653099027908879  7.041044006488645 3.629187858254661 3.955255038508572  7.033123072454226 3.671386930859031 4.02432894380779  7.025266540089595 3.713530386693476 4.093134423666667  7.01744735869122 3.75559899012993 4.16175519686935  7.009657802306965 3.797561814695877 4.230240877104999  7.001866250870495 3.839444108781204 4.298599291660213  6.994041904137061 3.881154703020665 4.366847238870639  6.760434199724414 3.031268088496447 4.252147480820289  6.752566307624556 2.89384017037231 4.285953109104801  6.840672518820599 2.96999643711373 4.268936180764642  6.842858350326619 2.988793270306744 4.350837993878026  6.755055005042832 2.908074922962994 4.368849125033425  6.759057920308705 3.055792431357359 4.33196404375954  6.757672061452213 3.080361563824576 4.411678869446511  6.757500991613427 2.922361799717657 4.451661720964077  6.845005634996367 3.007645543663469 4.432634255400757  6.759947177396054 2.936648003392238 4.534422130908533  6.756298975720928 3.10492534818621 4.491309735007145  6.847157232823135 3.026504011242833 4.514371618914414  6.75496074655226 3.129440848975606 4.570898673448966  6.762418818063145 2.950893714830571 4.617142259217467  6.849338806211382 3.045327560597288 4.59607632422356  6.753662644581636 3.15386115082714 4.650470448912627  6.764936465049373 2.965058666200306 4.6998493069226
[...]
<PointData  Vectors="f_24"> 
<DataArray  type="Float64"  Name="f_24"  NumberOfComponents="3" format="ascii">-4.7938091600357976e-03 1.0185898126348267e-02 -5.2171130345786097e-03  -4.6298043471247425e-03 1.8835503476832337e-03 -1.2715010908438200e-02  -6.9038924145910213e-03 1.2439943573852027e-02 -2.6547976396158906e-03  -4.8223190683764194e-03 8.3688958325567556e-03 -4.3529592588667192e-05  -2.6344178934026843e-03 -1.7885946016018173e-03 -1.0722868642363756e-02  -2.5702704358651612e-03 6.4075221871477839e-03 -2.5814068243211405e-03  -2.5321738915077513e-03 5.5560998420985143e-03 2.4267211533808993e-03  -4.7984473422538497e-04 -4.5309924444981121e-03 -8.5915984341447763e-03  -2.0404796818485158e-04 3.7439036726884902e-03 -5.4278976059388300e-05  2.0074925887793708e-03 4.6776279930534444e-04 3.0899776055846031e-03  1.5583070294536200e-03 -7.8965030311493010e-03 -5.8215811843109278e-03  -3.4378351304093576e-04 2.2564927348459620e-03 5.5012973798714664e-03  3.9066303424189911e-03 -3.8747862566388741e-03 7.0529576507935973e-03  3.3539118061032872e-03 -1.2069929031224577e-02 -2.3831768652303143e-03  1.6034744340885333e-03 -1.9863562265134147e-03 9.3395939465917219e-03  3.2492283367269036e-03 -6.7874977421671871e-03 1.3898190457567869e-02  4.8338489262291359e-03 -1.6580965540381878e-02 1.7004153171065303e-03  5.4795465337096486e-03 -8.6986781627946194e-03 1.1759174575744802e-02  6.0190132273733182e-03 -2.1295464060523041e-02 6.2682572573914026e-03  4.6397373872027817e-03 -1.1875897932505361e-02 1.8921981550601333e-02  -1.3165915228951214e-02 4.3248814966095547e-02 2.3631774421022083e-02  -1.4558563836373863e-02 4.8515603973697898e-02 2.8839192992512919e-02  -1.5186154613662770e-02 5.7264970064553444e-02 3.2283638521618675e-02  -1.2613804335949056e-02 5.3881393819783137e-02 3.6034195289387276e-02  -1.2124678747052229e-02 4.4793999117974825e-02 3.2142202162462372e-02  -1.0769104675838208e-02 3.9330601559334356e-02 2.7065609704858853e-02  -8.5132432330430729e-03 3.6531220197157301e-02 2.9971172162257299e-02  -9.9809128277556433e-03 4.1960647078539845e-02 3.5038611712014514e-02  -1.0317225993029333e-02 5.1458259460808696e-02 3.9101898466150052e-02  -6.2600064293950606e-03 3.3616892643509318e-02 3.3261745368964507e-02  -7.8463592539989562e-03 3.9079544440196165e-02 3.8322505246568973e-02  -8.0501536930800751e-03 4.9037605910086490e-02 4.2459502135947062e-02  -3.9946121960638195e-03 3.0162434362027594e-02 3.7198162110571142e-02  -5.6310129811933491e-03 3.5884831253127546e-02 4.2136249283223938e-02  -5.6804478833923835e-03 4.6337502541656313e-02 4.6346839505662457e-02  -1.9879415743579193e-03 2.5669288774986861e-02 4.1822038149422661e-02  -3.5549490478064862e-03 3.1798241240315807e-02 4.6531329370848307e-02  -3.5763986153327350e-03 4.2454407075693257e-02 5.1027572312297549e-02  9.9675875191129160e-05 2.0857312719647175e-02 4.6513785471031410e-02  -1.3244667341446759e-03 2.7532763161026465e-02 5.0860608989842300e-02  -1.2916639245984518e-03 3.8410597290284162e-02 5.5651445535512836e-02  -1.2746662070576040e-02 4.9602786496375277e-02 2.5162359513646218e-02  -1.0410195260776177e-02 4.5696872457482475e-02 2.9120275722531182e-02  -7.9990008234679614e-03 4.3145137841728742e-02 3.2214427174318598e-02  -5.5920589683670901e-03 4.0575698986872910e-02 3.5584284900372055e-02  -3.2096706301024680e-03 3.7406717186218581e-02 3.9659956933621343e-02  -1.2184176562745500e-03 3.2920557921797620e-02 4.4719743784346136e-02  -1.4612457851805439e-02 -1.6316929949795538e-02 -3.9350439810063906e-02  -1.3506813337846143e-02 -1.2469886327160992e-02 -3.2487359817809355e-02  -1.3312301354937616e-02 -1.8001448183840082e-02 -3.9462090915335840e-02  -1.1603025087974544e-02 -1.9547536338859063e-02 -4.0102914228567169e-02  -1.1889256531334835e-02 -1.5215285998815949e-02 -3.2637216559189566e-02  -1.2994969760852397e-02 -1.8221197905363258e-02 -3.9888342260002672e-02  -9.9126140925284364e-03 -2.0953664673150397e-02 -4.0090741319445317e-02  -1.0290131167946475e-02 -1.7566748293221971e-02 -3.2238973177686016e-02  -1.1407980440696479e-02 -1.9911316163826687e-02 -3.9862555168973926e-02  -8.1494217019914984e-03 -2.2600365024268390e-02 -3.9619507448685795e-02  -8.5107221422930056e-03 -2.0280196427385155e-02 -3.1347649149414104e-02  -9.6520894023016633e-03 -2.1892731804015863e-02 -3.9376503175060182e-02  -6.3073894316774759e-03 -2.4431233643475769e-02 -3.8742384488614091e-02  -6.5808106497476761e-03 -2.3346301745436733e-02 -3.0033590791695097e-02  -7.7275834941933968e-03 -2.4092598908810575e-02 -3.8470491308043107e-02  -4.3371808790303385e-03 -2.6403478400835984e-02 -3.7354046141816852e-02  -4.5121978571576737e-03 -2.6577947836043319e-02 -2.8207050619110868e-02  -5.5991667554118225e-03 -2.6443422591070111e-02 -3.7041675659390046e-02  -2.2311011360050966e-03 -2.8549810464707191e-02 -3.5575005669978260e-02  -2.3077488830139940e-03 -3.0079937466437116e-02 -2.5981664359820071e-02  -3.3083267900359172e-03 -2.9028157029555652e-02 -3.5288545248024224e-02  -1.5874199376121636e-02 1.6033896669454668e-02 2.2694940660057308e-03  -1.5423560571989625e-02 2.1157761441693183e-02 8.8962589377056152e-03  -1.4586031272853114e-02 1.2118297232054613e-02 -1.0789458631677944e-03  -1.3252435732050878e-02 7.1898972281830660e-03 6.7361007174606313e-04  -1.4078610503419856e-02 1.5825582791828399e-02 1.0999209401365668e-02  -1.4658506532678936e-02 1.0773478876086266e-02 4.1648103127417575e-03  -1.3959411640963154e-02 6.4784256819392068e-03 6.2005856583757894e-03  -1.3319478851502612e-02 1.1405176809725430e-02 1.3184599846694504e-02  -1.2330167034785389e-02 3.1240549946981618e-03 2.5930435987197467e-03  -1.2942422576655427e-02 2.0484868841759416e-03 8.6720047903330235e-03  -1.2288146753444737e-02 6.9248786395526857e-03 1.5786591919975491e-02  -1.1087295565337649e-02 -1.1508236200488183e-03 4.9656665516438223e-03  -1.1437651817224163e-02 -2.8416756233792745e-03 1.1608810588700761e-02  -1.0810295881019878e-02 2.0796627920849509e-03 1.8841092874761736e-02  -9.4215472672010882e-03 -5.9079584299526469e-03 7.8101747588635115e-03  -7.4812809260372841e-03 -1.1044696841118301e-02 1.1058195739347559e-02  -9.0035679033819982e-03 -3.1496458264893530e-03 2.2285609315571466e-02  -9.5503507864819568e-03 -8.1418024606014286e-03 1.4956196574210061e-02  -5.3538890649505915e-03 -1.6433012555229151e-02 1.4495982955940619e-02  -7.0421671328358762e-03 -8.5185931138816225e-03 2.5842740528632099e-02  -7.4594628492194821e-03 -1.3633179111905152e-02 1.8462183921238485e-02  -8.9758894285492247e-03 2.2198552580667757e-02 6.1138061764165813e-03  -1.1020709729437450e-02 3.1359667079070848e-02 1.3853860544581660e-02  -1.0567751699794160e-02 3.6567735528135699e-02 1.5799830329381075e-02  -8.2906502188755862e-03 3.2288004768788368e-02 1.9543100716668066e-02  -8.7661447741442852e-03 2.7027950958604496e-02 1.7064056700265007e-02  -6.7812980141095216e-03 1.8168624428876193e-02 9.2508838159011623e-03  -5.8429746600953125e-03 2.9634534315717317e-02 2.2501055530870947e-02  -6.4608813741507433e-03 2.4090489582512614e-02 1.9767002377726949e-02  -4.4905672476641782e-03 1.5394501536450909e-02 1.2023101512779246e-02  -3.4504433150659812e-03 2.6852413451361898e-02 2.5874482349961876e-02  -4.1690597066041581e-03 2.0981495218342049e-02 2.2955191648529799e-02  -2.2331847598069873e-03 1.2244248377800079e-02 1.5308076559042932e-02  -1.1762317434120550e-03 2.3254758338668663e-02 3.0074258153731784e-02  -1.9781924035583297e-03 1.7131461150621786e-02 2.6893060966801260e-02  -1.7071317091561238e-04 8.1466840682977021e-03 1.9406679226914473e-02  6.9068885977454514e-04 1.8524828817137004e-02 3.5204539688129449e-02  -8.3077864543490011e-05 1.2340868094094379e-02 3.1572618646415827e-02  1.5975901050485268e-03 3.3301867116326163e-03 2.4193736957373996e-02  2.4600902951248766e-03 1.3418038114277145e-02 4.0654093113116192e-02  1.7094536842921521e-03 7.1634452234941408e-03 3.6505510496495426e-02  3.1959403653680288e-03 -1.8841004639021241e-03 2.9392204737022795e-02  -1.1485376883039005e-02 6.3921857997582224e-02 4.4876584973082695e-02  -1.3013920729754205e-02 7.8037464228941200e-02 5.0578280719545052e-02  -9.1869039922923383e-03 6.2073543923240611e-02 4.8313854419431576e-02  -1.0675065921520796e-02 6.6946418430477814e-02 5.1949895694218103e-02  -5.3524177754794098e-03 2.0956209290762477e-02 1.0397334813664720e-02  -2.9290248739711937e-03 1.8363752944588023e-02 1.3319540815736374e-02  -5.8275017505325882e-04 1.5393572075755627e-02 1.6766335292896430e-02  1.5017141066104584e-03 1.1308617111239165e-02 2.1147848951361972e-02  3.2211876007561340e-03 6.4104492892701715e-03 2.6372682145194119e-02  4.7293241916568406e-03 1.1845421805836268e-03 3.2061291350381826e-02  -2.5190540817263958e-03 -2.4343831071346692e-03 -1.7335941301725062e-02  -5.6174333630475799e-04 -5.7578569869633327e-03 -1.5606183346033805e-02  1.6166533680628823e-03 -8.2926110722971649e-03 -1.3538581821342795e-02  3.6040205158993422e-03 -1.1564824334004643e-02 -1.0850277395455821e-02  5.3116234977745296e-03 -1.5611606483501515e-02 -7.5369059308647299e-03  6.6884318749953486e-03 -1.9903307549983856e-02 -3.5909143067582180e-03  7.8026906514816708e-03 -2.4323331955040665e-02 8.8167158188997121e-04  -1.1867521922599185e-02 -1.3599330042305825e-02 -3.2235693061894562e-02  -1.0255759368676990e-02 -1.6159358786211855e-02 -3.2319022224293135e-02  -8.5332523434950829e-03 -1.8382364473701149e-02 -3.1867173979957961e-02  -6.7466959571938438e-03 -2.0958504573292402e-02 -3.0924882820790898e-02  -4.9066734443173445e-03 -2.3862193499275236e-02 -2.9565091120546418e-02  -2.9865357192174792e-03 -2.6911720339311180e-02 -2.7701924234551180e-02  -9.4884862253930555e-04 -3.0175568198345139e-02 -2.5442422881973199e-02  -1.6952102805512737e-02 -1.4432295227643759e-02 -4.1575483816603857e-02  -1.6260415590927755e-02 -1.0408165990391623e-02 -3.4493617153691959e-02  -1.5129522093857156e-02 -1.3230379972339060e-02 -3.6280595830066320e-02  -1.3730259574391130e-02 -1.5721954346705463e-02 -3.6559456369834820e-02  -1.5058582961878860e-02 -1.3390743834141506e-02 -3.4600986036130342e-02  -1.5681692336384358e-02 -1.6564786730156111e-02 -4.2147478325252154e-02  -1.2270692761507447e-02 -1.7942521564302535e-02 -3.6248597917405992e-02  -1.3864892158398081e-02 -1.5920437979495411e-02 -3.4094329612778751e-02  -1.4511701081200335e-02 -1.8426670167351188e-02 -4.2108133732796191e-02  -1.0554401016335990e-02 -2.0510862938871381e-02 -3.5477748271443718e-02  -1.2258829467159211e-02 -1.8854488903747781e-02 -3.3093234669319481e-02  -1.2933649679186048e-02 -2.0616756132446550e-02 -4.1613119790578176e-02  -8.5782028942483143e-03 -2.3406524679201294e-02 -3.4298156874878936e-02  -1.0243853173515354e-02 -2.2204423628430527e-02 -3.1681446630468367e-02  -1.0985695541074448e-02 -2.3076457969086556e-02 -4.0699949266842207e-02  -6.3517085273805474e-03 -2.6487629589090563e-02 -3.2617112291494249e-02  -7.8786204597809904e-03 -2.5782855461535106e-02 -2.9779552548539121e-02  -8.6265967894149816e-03 -2.5715844286252836e-02 -3.9276575370473688e-02  -3.9047206952178984e-03 -2.9842467399760136e-02 -3.0603789989502889e-02  -5.2054407666812050e-03 -2.9678541745246135e-02 -2.7570175513556072e-02  -5.8456594182370843e-03 -2.8634375191148542e-02 -3.7571713357000804e-02  -1.3962927432225582e-02 2.0240028297582740e-02 8.7482558747588070e-03  -1.2497300185558219e-02 1.5104773956551467e-02 1.0694503403108447e-02  -1.1496130428276879e-02 1.0814003778652277e-02 1.2682543779656712e-02  -1.0233223748021276e-02 6.4390093169017330e-03 1.5132195534878167e-02  -8.6225906878556018e-03 1.7167025323833196e-03 1.8050936506980600e-02  -6.7672095207038565e-03 -3.3795108994853500e-03 2.1377688267508337e-02  -4.7759720358035917e-03 -8.6509193208108692e-03 2.4846473806085061e-02  -6.8203405872927407e-03 -1.3161304758316617e-02 -2.9600421465581603e-02  -6.2215128835115879e-03 -1.8492591428345171e-02 -3.6075493105266775e-02  -7.8883069965677548e-03 -1.6580621542593502e-02 -3.4122874326119365e-02  -6.2750161371604041e-03 -1.8589873709792693e-02 -3.3818774546818323e-02  -4.7802517635418800e-03 -2.0186567898753126e-02 -3.5923492035394071e-02  -5.3276617770823959e-03 -1.5880237055013176e-02 -2.9100026979144662e-02  -3.6364261611306595e-03 -1.8239244056022993e-02 -2.8257998617534946e-02  -3.1411460920706762e-03 -2.1683392761910746e-02 -3.5349646778094629e-02  -4.5870575720175456e-03 -2.0447591957295556e-02 -3.3174746894177584e-02  -1.5913775958238995e-03 -2.3437830490234027e-02 -3.4411010297161614e-02  -1.9229345932380972e-03 -2.0971438595064854e-02 -2.6956630185503615e-02  -2.8870115783564874e-03 -2.2643293199747224e-02 -3.2127155644986784e-02  -3.0517376008370751e-04 -2.3992332966401179e-02 -2.5239435185022561e-02  -1.4028540738393938e-04 -2.5339425651071418e-02 -3.3118363320865353e-02  -1.2821182167194565e-03 -2.5048221170225708e-02 -3.0698696424877443e-02  1.2017804282169937e-03 -2.7119196631458585e-02 -2.3009135870799686e-02  1.2172707586372549e-03 -2.7344915691346613e-02 -3.1334168954218200e-02  2.6334102648915082e-04 -2.7577210691447987e-02 -2.8777180712726530e-02  2.5406980750478925e-03 -3.0444138230925059e-02 -2.0412532416837322e-02  2.4691089802371547e-03 -2.9498744963913959e-02 -2.9203706108026407e-02  1.6956293261391839e-03 -3.0294085975810486e-02 -2.6563460568360456e-02  -1.5885540640725636e-02 -1.6969418578436847e-02 -4.2205985187791097e-02  -1.4437861153930934e-02 -1.8554660359928449e-02 -4.3213568913702566e-02  -1.3021186984346747e-02 -2.0021372494568385e-02 -4.3453466625760377e-02  -1.1369783156656058e-02 -2.1698471503655135e-02 -4.3157335174641938e-02  -9.4619576572824750e-03 -2.3572531396232697e-02 -4.2415176941886720e-02  -7.2404741033988201e-03 -2.5597898803252347e-02 -4.1145850030039295e-02  -4.7176688640143656e-03 -2.7842388025720661e-02 -3.9530616124006560e-02  -4.8342675323671614e-03 5.3987937398521736e-02 4.8522718051018057e-02  -2.8204044308121371e-03 5.0068335249510376e-02 5.3769904878781243e-02  -1.2951053988696413e-02 1.1308155617606787e-02 -1.0599923062804644e-03  -1.1620484641113326e-02 6.5827879678743385e-03 6.0696796840446700e-04  -1.0504059777526657e-02 2.6198667826853603e-03 2.4230921371970952e-03  -9.0890949101959176e-03 -1.5631157882497293e-03 4.6892465580269313e-03  -7.3502076958817586e-03 -6.2050368609870314e-03 7.4323359101040685e-03  -5.4268854144802446e-03 -1.1222969151526424e-02 1.0606834724805421e-02  -3.3852372021203618e-03 -1.6521669712248482e-02 1.4013324089026103e-02  -5.0550217342926118e-03 -1.3532862188485853e-02 -2.9835050228341292e-02  -3.8062790542473524e-03 -1.6339275317942423e-02 -2.9602560777845163e-02  -2.1381046580657113e-03 -1.8600689090399906e-02 -2.8850248066612579e-02  -4.9301577105885801e-04 -2.1214011296788442e-02 -2.7567917903977019e-02  1.0206861497530468e-03 -2.4116102983049118e-02 -2.5844064371248626e-02  2.3872717373007359e-03 -2.7109706463235135e-02 -2.3583690390839004e-02  3.5821782963094398e-03 -3.0236648521711346e-02 -2.0880553268722620e-02  -6.8874820031655307e-03 3.4062025027653695e-02 1.9891072245983781e-02  -1.2618161312193286e-02 1.7125689658462274e-02 5.5046048882445861e-03  -1.1151193731469576e-02 1.2230379093671497e-02 7.3540346441161109e-03  -9.9546457521067257e-03 8.1732549376894621e-03 9.2622011981026986e-03  -8.4864953206147918e-03 3.9773234590412907e-03 1.1652890789899934e-02  -6.7433094763186445e-03 -6.1836320570485422e-04 1.4547277452491637e-02  -4.8514779544406687e-03 -5.6152242638698039e-03 1.7872267026381599e-02  -2.8647436330341385e-03 -1.0858084900730140e-02 2.1390311266560713e-02  -1.1911873928935789e-02 4.0158374011014769e-02 1.9833426832710693e-02  -9.5854816121782177e-03 3.6079081115355384e-02 2.3380624951098779e-02  -7.1978087950816177e-03 3.3307162506117802e-02 2.6279963192877460e-02  -4.8199540035519569e-03 3.0423470022344735e-02 2.9540872147601895e-02  -2.4993534369887349e-03 2.6849928697610256e-02 3.3536114626487291e-02  -5.3553441575749760e-04 2.2124066044912516e-02 3.8405812903205057e-02  1.3579874967273549e-03 1.7053851125682112e-02 4.3457526096535082e-02  -1.2675792073971993e-02 3.5114808159463808e-02 1.8649327689800956e-02  -1.1264091734707132e-02 2.6961444773160110e-02 1.1998951504283848e-02  -9.1363407626238527e-03 2.2644643927599961e-02 1.4886003679617940e-02  -1.0386736322865141e-02 3.0725004266289841e-02 2.1642904249878546e-02  -7.0685589647103211e-03 1.9480683419486607e-02 1.7484193064074022e-02  -8.2603595131449849e-03 2.7522655078530890e-02 2.4254901863228300e-02  -4.9567761765168788e-03 1.6122206039713878e-02 2.0581050952098130e-02  -6.1367857385870002e-03 2.4223852932058698e-02 2.7334484233914352e-02  -2.8844703076726500e-03 1.2104927476911914e-02 2.4348056431343770e-02  -3.9980807306444965e-03 2.0401716186353318e-02 3.1053351655693489e-02  -9.9862290273718861e-04 7.3429580022652558e-03 2.8703089275224001e-02  -2.0379845266411674e-03 1.5749332015199867e-02 3.5364466538562213e-02  8.3854577467691322e-04 2.2079463794956065e-03 3.3270164007551645e-02  -3.2989661980750414e-05 1.0781719640002067e-02 3.9806698379269201e-02  -2.2587996546698484e-03 -1.7271361154411156e-02 -3.4231590573788440e-02  -1.6251177932782778e-04 -1.9053828898137400e-02 -3.6363481047972386e-02  -1.9679778441724573e-03 -2.0443088165395782e-02 -3.7147274456520600e-02  -8.2579736500194801e-04 -2.1621735324015717e-02 -3.7115102879591293e-02  1.0831045591113994e-03 -2.0383776833595827e-02 -3.5767051433344133e-02  -9.7587271974190824e-04 -1.9099577719521754e-02 -3.3710235017096885e-02  4.6892605694071548e-04 -2.2730776028346365e-02 -3.6577917376359181e-02  2.5563091689614617e-03 -2.1800885249127541e-02 -3.4659456961982540e-02  5.3999527712960728e-04 -2.0803850575737640e-02 -3.2723698070550526e-02  1.7167275945740555e-03 -2.3993823951762559e-02 -3.5643078936627971e-02  3.8949720510588191e-03 -2.3567391125057551e-02 -3.3251917900662592e-02  2.0022095300823166e-03 -2.2892800207278491e-02 -3.1321646977923404e-02  2.8485964448826113e-03 -2.5362333825137844e-02 -3.4327799246345693e-02  5.0345097177579255e-03 -2.5498389192552269e-02 -3.1499632982836451e-02  3.2736175042530464e-03 -2.5213139902629959e-02 -2.9531012776847956e-02  3.8181995587117891e-03 -2.6764561636497302e-02 -3.2507654491294065e-02  5.9403514561395315e-03 -2.7482924298909195e-02 -2.9234823622319522e-02  4.3714263807804023e-03 -2.7605129272839205e-02 -2.7220397524641005e-02  4.6388873883183926e-03 -2.8260349435129749e-02 -3.0388488388482692e-02  6.5653795714559161e-03 -2.9564490170600179e-02 -2.6713405860808146e-02  5.2687264189521044e-03 -3.0020854679282179e-02 -2.4608664324035179e-02  -2.4097049181589430e-02 1.3347868834914112e-02 -1.6814565808254918e-02  -2.2563926976140944e-02 1.7256055372663292e-02 -7.9075123757236590e-03  -2.1116084603115665e-02 7.1305013320411819e-03 -1.8678673637101961e-02  -2.0371099940378626e-02 2.3592539907657585e-03 -1.7131335325557571e-02  -8.6478803059379886e-03 4.2452529004635184e-02 2.5660904019350766e-02  -1.5555396148221578e-02 4.1539962319189438e-02 2.8553733299727567e-02  -1.5815224253394114e-02 4.7844737701814168e-02 3.2658984692102620e-02  -1.4569239959900004e-02 3.7969172380578550e-02 2.5211835514197301e-02  -1.2615696674260338e-02 3.3461688775598922e-02 2.7817158120712896e-02  -1.3727361987086094e-02 4.3766249940550783e-02 3.5602247195784420e-02  -1.3698158741508737e-02 3.7001004556328251e-02 3.1353089346838323e-02  -1.1178923138990401e-02 2.9579110058205814e-02 3.0402275435779773e-02  -1.2216060878932759e-02 4.0148056459025000e-02 3.8528359259894798e-02  -2.0073236456965040e-02 1.2528852104976285e-02 -9.4592253927548754e-03  -1.9345063587270433e-02 7.3534838744349334e-03 -7.4660734048136801e-03  -1.0966289019088584e-02 1.0499594771506998e-02 -2.0267498952412683e-03  -1.1897177094300163e-02 1.8196994286963530e-02 6.0097030911785403e-03  -1.0181483627192083e-02 1.1850288016157073e-02 -8.7877084942477647e-04  -8.6128219875024649e-03 7.2798099011694289e-03 1.1519588888688390e-03  -1.0302198084924557e-02 1.3196441232175855e-02 7.8821015013248539e-03  -9.5040008454259951e-03 5.9858341140863859e-03 -1.4930754288450032e-04  -6