<?xml version="1.0"?>
<VTKFile type="UnstructuredGrid"  version="0.1"  >
<UnstructuredGrid>
<Piece  NumberOfPoints="1003" NumberOfCells="4359">
<Points>
<DataArray  type="Float64"  NumberOfComponents="3"  format="ascii">6.295917202692371 3.245075399111341 4.080354225475965  6.405817977821505 3.18736647556823 4.143558021735036  6.419617239215071 3.297253761916869 4.064938660382502  6.405809185813004 3.345403822625002 4.125821365540584  6.394698659229316 3.231275804179999 4.210275096036864  6.28374918258186 3.293445442216659 4.141858601372567  6.392138991369293 3.393474622013472 4.186658778910383  6.383676800464774 3.275101300998423 4.276914758215902  6.271671033661703 3.341690883525617 4.203360914028063  6.259660847282538 3.389865977874946 4.264851461958171  6.372716323003821 3.318858940762757 4.343497715672147  6.378552460465253 3.441468416981439 4.247451182638961  6.24769612769501 3.437997204352941 4.326320335086385  6.361788693089028 3.362546673934545 4.410047727421651  6.365004529759749 3.489401751383726 4.308214180729814  6.351447243964118 3.537269749213937 4.368970931041748  6.350865331109472 3.406156344882827 4.476579846795633  6.235732601403165 3.486084939663082 4.387779396332474  6.339913447568934 3.449681209108572 4.543141306270696  6.337819080634379 3.585059201665868 4.429732127645279  7.286632227865836 3.03274519213382 4.207078988381193  7.197695108995941 3.124988431660427 4.19570795435409  7.189396313753913 2.968405171405308 4.231253797694196  7.201590336437536 2.981442075427543 4.313743653418511  7.205649367047972 3.147810567551592 4.276279123075918  7.29920369902222 3.047042685783688 4.28950747971517  7.213713644126577 2.994555029804258 4.396187570130975  7.2135378064232 3.170719639667588 4.356764801740844  7.311715002371998 3.061414572176883 4.371880546419248  7.22581378567056 3.00767487495595 4.478585374698423  7.221401328214035 3.193641948154074 4.437175939979581  7.324203184368486 3.075789600140675 4.45419482082501  7.237911529162203 3.020760755205141 4.56094337226216  7.229259972247261 3.216525072833408 4.517530541239058  7.336685132302291 3.090123716142268 4.536461114178141  7.250019370335728 3.03378550778124 4.643277609795204  7.23712744044324 3.23933029927319 4.597853748380541  7.349165974553108 3.104380727559842 4.618697233410958  7.262159256667534 3.046705237058347 4.725619679809667  7.245015820755404 3.261997466048173 4.678187211027408  7.361647877226726 3.118529915653846 4.700926350412471  7.241751708589262 3.757330189008667 4.182890524097335  7.140192854181713 3.81201742064311 4.143777791538951  7.172995339249632 3.684304060963987 4.223623806219783  7.241924675538042 3.799449800693462 4.253921018029109  7.135559337780903 3.855143241029925 4.21311870229512  7.170411447421924 3.725206784395156 4.294966073731555  7.16781227566173 3.766023601253286 4.3662063933357  7.130900704287755 3.898188513681663 4.282333952759132  7.242080583292169 3.841461945106333 4.324821324554147  7.165215887602787 3.806650041539065 4.437395143817273  7.126233179707235 3.941073782570524 4.351451590912487  7.24224825623743 3.883293759560249 4.395618599574318  6.442189772941521 3.529017555537673 3.97285107698832  6.417942884403336 3.443728760452442 4.046521150839475  6.330178254033447 3.518428118543942 3.936354924479181  6.434544058385816 3.393733158370333 3.98996855186743  6.310893135909526 3.569972230810783 3.987235045504442  6.422015938835965 3.577748005814942 4.027410341729159  6.401521878382233 3.493668343395965 4.103057303496839  6.291722261216885 3.621462200632529 4.038139891236418  6.401967210359246 3.626429532361361 4.081949009382984  6.38519817451822 3.543545511778607 4.159565945473808  6.272592951476651 3.672928989778399 4.089043671431184  6.381957343148993 3.675058688722974 4.136466041295535  6.368909241284979 3.593364972623315 4.216051709849713  6.253412575380477 3.724378780521115 4.139942148290173  6.36189771444983 3.723621630316889 4.190960690962587  6.352585688508658 3.643117102055236 4.272527060347807  6.23407014727069 3.77581245345546 4.190842758838409  6.341650927108677 3.772070128054211 4.245431037789309  6.336152675098219 3.692800355532536 4.329015679571572  6.284994847798673 3.419161989412504 4.027901196048062  6.270053794315586 3.471294660060435 4.082208618489411  6.255198888052231 3.523364910503342 4.136530015799518  6.240383313139779 3.57541128866273 4.190847013185208  6.225540016639509 3.627447971178571 4.24516134981162  6.210618301665059 3.679497722640626 4.299477584029699  6.317628412536499 3.118399371689295 4.173093207679869  6.307690932586271 3.159980122447353 4.242322252962291  6.29781139609841 3.201449543085846 4.311481736250828  6.287979268715788 3.24284663597257 4.380588098312922  6.278180151926724 3.284186565927563 4.449659809154163  6.268395574142829 3.325467436089535 4.518713220382522  6.258613334383404 3.366680657234195 4.587767526533739  6.986995224276893 2.685967135271245 4.267232117622222  6.912851286054399 2.755152488753718 4.285507153711515  6.904120378896825 2.618057703749016 4.269854105591572  6.914076351629071 2.604343062132202 4.351815162846783  6.921683067417454 2.752813201667625 4.369326870768377  6.998977755830263 2.676682047154523 4.349766570128829  6.923972662547928 2.590676315658786 4.433789348809094  6.930455584006917 2.750519732168721 4.453129015503446  7.01089886569997 2.667435872830925 4.432301235893279  6.933861682294395 2.577014331085556 4.515761143780775  6.93921654139672 2.748233728022233 4.536915690296128  7.022806250519762 2.658190698212573 4.514827024925242  6.943765601234688 2.563331436936502 4.597722537678862  6.947993688023963 2.745927347392484 4.620688358083914  7.0347284838749 2.648929723484579 4.5973433307669  6.953698230184381 2.549607034597142 4.679671760004681  6.956805693411241 2.743569900219202 4.704451307124305  7.046676449940429 2.639631375439093 4.679850223550475  6.963680083429856 2.535821076691055 4.761610874701729  6.965672381847678 2.74112848706462 4.788216432732919  7.058665515259534 2.630264262212357 4.762357419391353  7.078276489861842 3.078160539303382 4.221169090290352  7.085992488744699 3.101627323300701 4.301302532877397  7.093638712190425 3.125161308232561 4.381350920583214  7.101261424114768 3.148704278930195 4.461330562551789  7.108886194183784 3.172209421159515 4.541264720896564  7.116552203968102 3.195652125171572 4.621180270859496  7.124272169566726 3.218960983301321 4.701118654349656  7.468208641950674 3.101794402455512 4.163648726314145  7.418466401535928 3.2064661827626 4.146877102028487  7.332546849990818 3.127800476646134 4.180323271572033  7.343898683905485 3.147598765932012 4.261873454982304  7.429038310457831 3.229478124000213 4.227698242945549  7.483142690069104 3.116036515842793 4.245396732683095  7.355187078403889 3.16748857877525 4.343330027158149  7.439547971259073 3.252582860484845 4.308395747204361  7.498011770874387 3.130345379118904 4.327067347781146  7.366449865451481 3.187383825078495 4.424705381147201  7.450023763433965 3.275686734672242 4.388994400947435  7.512854279725512 3.144649194441611 4.408657886150884  7.377701702424453 3.207230468184825 4.506019410479304  7.460480317331337 3.298732770214455 4.469518242072476  7.527685386039012 3.158902478446129 4.490184000028443  7.388948704274 3.226989915608926 4.587295793459119  7.470919450338905 3.321668756521091 4.549993657160817  7.542514858207786 3.173070010221123 4.571661847954044  7.400193231898595 3.246624525000084 4.668567052794643  7.481350823476999 3.344472089185301 4.630429587176312  7.557349955362561 3.187126931796892 4.653099027908879  7.01744735869122 3.75559899012993 4.16175519686935  7.009657802306965 3.797561814695877 4.230240877104999  7.001866250870495 3.839444108781204 4.298599291660213  6.994041904137061 3.881154703020665 4.366847238870639  6.433220977840971 2.702282238453268 4.388879426907413  6.468838114302277 2.582135336483504 4.390523317472733  6.33182914430958 2.585178319399914 4.384516460311778  6.469711682789987 2.590894616901548 4.306705073860953  6.436612316500061 2.700588267027124 4.304756185473353  6.467897261955614 2.573406203012007 4.474296996899291  6.429766719897874 2.704010392323708 4.472912680412295  6.326348541479702 2.578565760738127 4.468216265157606  6.466937739239347 2.564676882414771 4.558025388958898  6.426302157766407 2.705725510481791 4.556885381572786  6.32084852396995 2.571945895118898 4.551855680972337  6.465999520732876 2.555912121831938 4.641721687019422  6.422859474416689 2.707400264882334 4.640815549619278  6.315370339739459 2.565291410988285 4.635451052262634  6.465103479289807 2.54709447468632 4.725395410962439  6.419462178377997 2.709012229489766 4.724716797519236  6.30993920628649 2.558587936651538 4.71901455426875  6.46427566484231 2.53819704791424 4.809055090792504  6.760434199724414 3.031268088496447 4.252147480820289  6.752566307624556 2.89384017037231 4.285953109104801  6.840672518820599 2.96999643711373 4.268936180764642  6.842858350326619 2.988793270306744 4.350837993878026  6.755055005042832 2.908074922962994 4.368849125033425  6.759057920308705 3.055792431357359 4.33196404375954  6.757672061452213 3.080361563824576 4.411678869446511  6.757500991613427 2.922361799717657 4.451661720964077  6.845005634996367 3.007645543663469 4.432634255400757  6.759947177396054 2.936648003392238 4.534422130908533  6.756298975720928 3.10492534818621 4.491309735007145  6.847157232823135 3.026504011242833 4.514371618914414  6.75496074655226 3.129440848975606 4.570898673448966  6.762418818063145 2.950893714830571 4.617142259217467  6.849338806211382 3.045327560597288 4.59607632422356  6.753662644581636 3.15386115082714 4.650470448912627  6.764936465049373 2.965058666200306 4.699849306922621  6.8515596738092 3.064069356946781 4.677763038283826  6.752391439649059 3.178149056744239 4.730051405341423  6.767509942713211 2.979109307720776 4.782559672256353  6.85381906037817 3.082689536884403 4.759455255422494  7.38875642181271 3.015194890476496 4.190304390547722  7.404322704964906 3.026230525519039 4.272742788081057  7
[...]
<PointData  Scalars="f_14"> 
<DataArray  type="Float64"  Name="f_14"  format="ascii">4.9292012381598549e-01  4.8499557462504089e-01  4.8337971418325271e-01  4.8338803431355554e-01  4.8498928146747178e-01  4.9292618014082035e-01  4.8341072710397837e-01  4.8500485671670845e-01  4.9293510908840077e-01  4.9295100953416349e-01  4.8502482550772852e-01  4.8343713300148883e-01  4.9297069802472049e-01  4.8504019487169131e-01  4.8345748257841009e-01  4.8346479534699971e-01  4.8504065487877324e-01  4.9299423304569423e-01  4.8500282325326416e-01  4.8345007809020779e-01  4.1858481592716118e-01  4.2487435194384798e-01  4.2649917377961138e-01  4.2648062719300150e-01  4.2487686459007679e-01  4.1856796526657503e-01  4.2643469465986111e-01  4.2488770806684845e-01  4.1855647126399637e-01  4.2637641333356774e-01  4.2489095128916393e-01  4.1854857978481974e-01  4.2631949457058604e-01  4.2488416746315916e-01  4.1854697877091274e-01  4.2626934195069827e-01  4.2486027322927367e-01  4.1854399391138591e-01  4.2622773431106231e-01  4.2479370384898335e-01  4.1850838496248016e-01  4.1820922761505680e-01  4.2467988236617016e-01  4.2355845209979737e-01  4.1821638744377121e-01  4.2470916635396871e-01  4.2358613326865063e-01  4.2353864632844029e-01  4.2465926355783340e-01  4.1815836915337840e-01  4.2338353328677991e-01  4.2448813057766999e-01  4.1802030431030091e-01  4.7952603859381115e-01  4.8184292798838063e-01  4.8824142515272645e-01  4.8183397415224477e-01  4.8831345001973481e-01  4.7962894383272037e-01  4.8186809209943432e-01  4.8840289976225176e-01  4.7974575755723448e-01  4.8189513462050737e-01  4.8848506861491375e-01  4.7984438576378469e-01  4.8190809852492922e-01  4.8853741206674300e-01  4.7989371056468177e-01  4.8189534439359205e-01  4.8854740658685408e-01  4.7984334983300608e-01  4.8186567779714146e-01  4.9210617385855154e-01  4.9211846767566886e-01  4.9213899293525942e-01  4.9215984676238406e-01  4.9217918937017041e-01  4.9221374575363602e-01  4.9202456057190691e-01  4.9202976524608449e-01  4.9203097999993511e-01  4.9203687330186135e-01  4.9204185725969951e-01  4.9204077096391602e-01  4.9205076852401197e-01  4.4420596863963296e-01  4.4943862112976585e-01  4.5109203674108445e-01  4.5110902324232705e-01  4.4944172864484266e-01  4.4419476552781589e-01  4.5115090245546885e-01  4.4945254505117349e-01  4.4416909916497632e-01  4.5119599188580356e-01  4.4946454604551722e-01  4.4414268372646509e-01  4.5124181872839664e-01  4.4947688213504494e-01  4.4411920591967641e-01  4.5128264444210642e-01  4.4948541367591832e-01  4.4410083816587687e-01  4.5128606825874712e-01  4.4947404381693523e-01  4.4409315529665450e-01  4.3423325050915451e-01  4.3421020192863946e-01  4.3412423041860199e-01  4.3401580118193456e-01  4.3390453161044823e-01  4.3380621383527884e-01  4.3375160104435484e-01  4.0378292557334161e-01  4.0717962928119122e-01  4.1441753370264750e-01  4.1440400121035298e-01  4.0722729064365037e-01  4.0378259588914350e-01  4.1440383742700948e-01  4.0733198350247113e-01  4.0379501926660805e-01  4.1441661369258576e-01  4.0746396187553735e-01  4.0384307095659355e-01  4.1443427762612034e-01  4.0761194988295030e-01  4.0394131709783809e-01  4.1444145168561192e-01  4.0775821177632593e-01  4.0409944394530012e-01  4.1442386024351580e-01  4.0786156195704676e-01  4.0430940832617007e-01  4.3360430138714307e-01  4.3357777958568666e-01  4.3348061621082679e-01  4.3329507472487655e-01  4.8618854519785837e-01  4.8441753056345566e-01  4.9463824763245484e-01  4.8437016959355417e-01  4.8615460861664939e-01  4.8451334110141786e-01  4.8627547892832618e-01  4.9480165971074092e-01  4.8461465264025466e-01  4.8637487464345319e-01  4.9498877586692497e-01  4.8470139638589727e-01  4.8646038049108886e-01  4.9514893168154295e-01  4.8475914170045525e-01  4.8651170821471890e-01  4.9524320037049102e-01  4.8478040686839263e-01  4.5903779373825093e-01  4.6057594068985980e-01  4.5336435695561011e-01  4.5338880591546049e-01  4.6057533304803705e-01  4.5905987916296581e-01  4.5912058591452670e-01  4.6057271635785257e-01  4.5343685398829886e-01  4.6056397171545682e-01  4.5917813015171616e-01  4.5347992344073501e-01  4.5922551720361149e-01  4.6055269447453845e-01  4.5351476360670012e-01  4.5925295063464772e-01  4.6054304120941791e-01  4.5353135452000803e-01  4.5921264032754089e-01  4.6053432619216494e-01  4.5350005458772358e-01  4.1059151041217862e-01  4.1056914577643244e-01  4.1052807812419512e-01  4.1050467482126041e-01  4.1051456872242087e-01  4.1056550362911487e-01  4.1065458227377605e-01  4.9148068010981166e-01  4.9164714529060555e-01  4.9182721693658071e-01  4.9198415036103677e-01  4.9208608658135178e-01  4.9210581769686118e-01  4.5893610607086677e-01  4.5891075041639623e-01  4.5885294577460717e-01  4.5878836605647916e-01  4.5873203080280733e-01  4.5869588884139340e-01  4.5868510449779804e-01  4.2339131619952458e-01  4.3354378421503525e-01  4.3261946107480853e-01  4.3266364430699678e-01  4.3355937504386394e-01  4.2341481951976423e-01  4.3274471943285492e-01  4.3358802942940622e-01  4.2348892591109261e-01  4.3282108118014795e-01  4.3285575671891574e-01  4.3281228939406274e-01  4.3265261501066243e-01  4.6688709575197668e-01  4.6688337529741514e-01  4.6687882073362064e-01  4.6687012904882713e-01  4.6685567205861445e-01  4.6683252083563770e-01  4.6680518827446987e-01  4.4046440581096163e-01  4.4049925318024247e-01  4.4057569716597728e-01  4.4064046640208188e-01  4.4066519413993321e-01  4.4062100531082005e-01  4.4045917545540675e-01  4.5817498738210877e-01  4.5817116448207668e-01  4.5816054542817986e-01  4.5815095253930865e-01  4.5814541247559870e-01  4.5814794527238473e-01  4.5817494139057502e-01  4.7185180902955798e-01  4.7097936195394341e-01  4.7100744649562437e-01  4.7182197541953724e-01  4.7097197438764976e-01  4.7171956660279546e-01  4.7082652977909734e-01  4.7152373154117255e-01  4.7842355800415237e-01  4.8682182234040067e-01  4.7748745358896683e-01  4.7747697484704232e-01  4.8684863260936234e-01  4.7841546654068645e-01  4.7744879513381355e-01  4.8691786126155523e-01  4.7838594473580842e-01  4.7741735980507194e-01  4.8699766127386085e-01  4.7835052642383408e-01  4.7738612439574618e-01  4.8706365260423057e-01  4.7831055520664673e-01  4.7736000096994302e-01  4.8709799054397251e-01  4.7826895528043045e-01  4.7734361184364310e-01  4.8708791865396800e-01  4.7824481541866104e-01  4.6631905176548605e-01  4.6628144586455950e-01  4.6618090907530285e-01  4.6607093997679461e-01  4.6597428621748338e-01  4.6591291982131650e-01  4.6592432256614436e-01  4.4773798792232994e-01  4.4874126977196566e-01  4.5587532415525145e-01  4.5583585470861948e-01  4.4871448217454757e-01  4.4770285944624089e-01  4.5575591289347689e-01  4.4864959043449337e-01  4.4762265766482340e-01  4.5564645793571473e-01  4.4855960892529484e-01  4.4751157075071007e-01  4.5551041950419147e-01  4.4843980417378088e-01  4.4737227219292852e-01  4.5535803120648011e-01  4.4828474148886466e-01  4.4721037444934114e-01  4.5522201552172825e-01  4.4809835144936588e-01  4.4705613240504849e-01  4.5810241204070878e-01  4.6513012613098759e-01  4.6516156235503980e-01  4.5810902553650579e-01  4.6523190814416587e-01  4.5808225669003372e-01  4.6529275073384613e-01  4.5803343108236333e-01  4.6532391114370153e-01  4.5795210885414150e-01  4.6530836387925167e-01  4.5783293075689174e-01  4.6522191842308153e-01  4.5768888688098236e-01  4.1319461959652404e-01  4.1805966728884958e-01  4.2079376930787593e-01  4.2084412514073721e-01  4.1806157429108637e-01  4.1319806927054009e-01  4.2096097183514358e-01  4.1809359205302138e-01  4.1323513407734552e-01  4.2108615241656439e-01  4.1812777326294343e-01  4.1328275162665323e-01  4.2118152495688221e-01  4.1813339004568745e-01  4.1331552852499442e-01  4.2120794889940588e-01  4.1807934895724108e-01  4.1330588905172788e-01  4.2111539713640261e-01  4.1794761605435871e-01  4.1322661591936061e-01  4.2978214927860103e-01  4.3444880617930115e-01  4.3704781418515731e-01  4.3702550857772632e-01  4.3444572374289042e-01  4.2983708899530987e-01  4.3696129097323344e-01  4.3444645581575653e-01  4.2993823456451907e-01  4.3687376271833139e-01  4.3444132546798653e-01  4.3003406024118479e-01  4.3676578992256482e-01  4.3440825011933698e-01  4.3009907892309734e-01  4.3664179917337598e-01  4.3432305345903255e-01  4.3010576447250171e-01  4.3653316399050257e-01  4.3416172749329340e-01  4.3000258626929788e-01  4.6621977293145478e-01  4.6624356414945978e-01  4.6629358623915890e-01  4.6633829209612898e-01  4.6635142436392235e-01  4.6630774191479557e-01  4.6617556901245860e-01  4.4535784112843918e-01  4.4536653013243693e-01  4.4538211641437442e-01  4.4538071792192735e-01  4.4534031676857355e-01  4.4523738521051193e-01  4.4504167400964451e-01  4.2585088282141359e-01  4.2593486660980051e-01  4.2610858610139174e-01  4.2628466210231908e-01  4.2641868440688385e-01  4.2646455073362871e-01  4.2634886721802562e-01  4.8733478655145501e-01  4.8439425601179098e-01  4.8440133096503274e-01  4.8737477204157792e-01  4.8442700753056384e-01  4.8745751663819092e-01  4.8445658199026059e-01  4.8754876945690900e-01  4.8447976750614141e-01  4.8763381374450865e-01  4.8448722765995295e-01  4.8769811883576702e-01  4.8446125076131236e-01  4.1003975443457552e-01  4.1008331776791973e-01  4.1017685620957045e-01  4.1028837360624981e-01  4.1039742889332453e-01  4.1047665541012446e-01  4.1047595434883838e-01  4.4202009659272673e-01  4.4200651575508809e-01  4.4194391805293981e-01  4.4185320414147261e-01  4.4173966922483582e-01  4.4161073606526036e-01  4.4150118321698922e-01  4.9523734418692356e-01  4.9541975586364462e-01  4.9563153059617504e-01  4.9582240477162370e-01  4.9594984700076605e-01  4.1755748423272876e-01  4.1756986935665352e-01  4.1760782682740433e-01  4.1765618525011106e-01  4.1769274558024011e-01  4.1769046035779683e-01  4.1761475158265354e-01  3.8984718054890527e-01  3.8507065416436248e-01  3.9421799066966479e-01  3.9422699624721541e-01  3.8508414838172916e-01  3.8986892453297067e-01  3.9426876707831665e-01  3.8514201691033656e-01  3.8994388740809810e-01  3.9436941416083821e-01  3.8526524446422344e-01  3.9008716320942721e-01  3.9455296858041211e-01  3.8548811037941777e-01  3.9033117181521793e-01  3.9484527166229255e-01  3.8584410235483502e-01  3.9070911006947728e-01  3.9528550507076093e-01  3.8634716686739395e-01  3.9123983783817678e-01  4.7045694378444886e-01  4.7045652174850483e-01  4.7041952412004401e-01  4.7037123482149357e-01  4.7032329538009576e-01  4.7028938260664349e-01  4.7029601088128070e-01  4.7670410442446470e-01  4.7672405861365080e-01  4.7677878415729708e-01  4.7683712580936871e-01  4.7688362197638678e-01  4.7690388897029307e-01  4.7687196901454237e-01  4.2701454301859598e-01  4.2703963014968982e-01  4.2707067868998194e-01  4.2709251932750503e-01  4.2709089386787069e-01  4.2704956077962569e-01  4.2695581622112450e-01  3.9674829056473249e-01  3.9506845529637474e-01  4.0275871914253475e-01  4.0279019674641270e-01  3.9523410243041518e-01  3.9693110408195270e-01  4.0283200487965615e-01  3.9544484554973186e-01  3.9714737225327168e-01  4.0288786264573662e-01  3.9568908282679427e-01  3.9739178283945492e-01  4.3488052599097338e-01  4.3484470351558735e-01  4.3476887996448293e-01  4.3467384033979384e-01  4.3456869410919863e-01  4.3445986139350057e-01  4.3436218513790670e-01  4.7978965436821253e-01  4.7977365215988360e-01  4.7975567442971212e-01  4.7974045997414982e-01  4.7971810769512863e-01  4.7968363443451340e-01  4.7966074238040607e-01  4.4076359217630523e-01  4.4078596740301901e-01  4.4082958407972755e-01  4.4085610853232399e-01  4.4084812237496607e-01  4.4078827658270781e-01  4.4065105822955708e-01  4.8325436502714542e-01  4.9169518760043363e-01  4.8329169924449900e-01  4.9177083064230459e-01  4.8333272758344287e-01  4.9186437845868480e-01  4.8336605916324765e-01  4.6639032029887567e-01  4.6639534327330484e-01  4.6640734958733265e-01  4.6641844758201750e-01  4.6643196188172703e-01  4.6644984378563148e-01  4.6646404615889081e-01  4.3716883575583054e-01  4.3711879416870575e-01  4.3698349840489170e-01  4.3682788525672550e-01  4.3668029715512524e-01  4.3656762019513845e-01  4.3653894916349489e-01  4.5906181033087895e-01  4.6702638178980321e-01  4.6697589085209701e-01  4.5905353486892747e-01  4.6686174755862642e-01  4.5903843355102081e-01  4.6673327157410865e-01  4.5901870198161665e-01  4.6661546568920298e-01  4.5900090001164173e-01  4.6653003928266357e-01  4.5898783028537066e-01  4.6651095418500677e-01  4.5897681958563857e-01  4.6802668525878094e-01  4.7688353907844994e-01  4.7687211832350984e-01  4.6800175455513593e-01  4.7684953807623559e-01  4.6793714467396580e-01  4.7682140579549465e-01  4.6786160790551973e-01  4.7679195006094238e-01  4.6779175139398227e-01  4.7676541743617129e-01  4.6774234474910975e-01  4.7675143814693866e-01  4.6773486556682797e-01  4.6541300557628035e-01  4.7283723293257596e-01  4.7282940603979595e-01  4.6545063567641187e-01  4.6553837925921654e-01  4.7281169825076269e-01  4.6563501009574165e-01  4.7279168046965819e-01  4.6572423822350645e-01  4.7277495545856757e-01  4.6578890275325224e-01  4.7276951107958071e-01  4.6580538380304043e-01  4.7278269682080898e-01  4.5141511005666035e-01  4.6082501656148650e-01  4.5070720898596095e-01  4.5068298158145093e-01  4.6079281634022806e-01  4.5140693479008648e-01  4.5062370459712892e-01  4.6073841525947451e-01  4.5137106481480693e-01  4.5054908840672986e-01  4.6067306316312712e-01  4.5131107319556341e-01  4.5046864455578051e-01  4.6060056205922828e-01  4.5123863427152300e-01  4.5039364940394538e-01  4.6052523822656954e-01  4.5116600793159861e-01  4.5033884832183124e-01  4.6046116942770571e-01  4.5110285389391547e-01  4.5777021031465959e-01  4.5779452105798113e-01  4.5785302450406301e-01  4.5791769095413887e-01  4.5798004523550856e-01  4.5803150967617573e-01  4.5804577952428721e-01  4.7485304575208698e-01  4.7481227208789112e-01  4.7472449669894257e-01  4.7462918540316640e-01  4.7454442623708165e-01  4.7448625571436970e-01  4.7446892078270719e-01  3.9939308734391948e-01  4.0059428617998660e-01  4.0848510751957207e-01  4.0847362854093433e-01  4.0058545157636655e-01  3.9939086958319808e-01  4.0845727031339274e-01  4.0058283311757198e-01  3.9939105429942073e-01  4.0846687810060195e-01  4.0062207556243556e-01  3.9943766609293646e-01  4.0852642180792909e-01  4.0073234809395669e-01  4.0094042414004638e-01  4.0128594902199682e-01  4.3454936487623536e-01  4.3452257739401834e-01  4.3445278632562812e-01  4.3436885342334502e-01  4.3429007818803383e-01  4.3422854473063754e-01  4.3419459662947885e-01  4.0045076209245789e-01  4.0051002779680223e-01  4.0059934558669491e-01  3.8803490614406533e-01  3.9111252272919211e-01  3.9726708552806173e-01  3.9729034003258745e-01  3.9114421970993485e-01  3.8803781259695846e-01  3.9735451732867932e-01  3.9123714017047501e-01  3.8807010790566410e-01  3.9746926026562923e-01  3.9138732190103420e-01  3.8816545256389640e-01  3.9764737434551534e-01  3.9160999305253991e-01  3.8835395853321103e-01  3.9790020560213168e-01  3.9192337080272494e-01  3.8867158450851363e-01  3.9823158213732168e-01  3.9235064555412197e-01  3.8915828036765376e-01  4.1757887951420902e-01  4.1755800599737763e-01  4.1751659904701055e-01  4.1747870969565198e-01  4.1745855825602712e-01  4.1745788041330800e-01  4.1745989782807125e-01  4.5157065061627533e-01  4.5157337707569006e-01  4.5157395297044312e-01  4.5157462802165049e-01  4.5157487657287426e-01  4.5157330328095324e-01  4.5156011850961780e-01  4.7550633657624142e-01  4.7553311622497257e-01  4.7556205371875165e-01  4.7558860133536807e-01  4.7560815885319752e-01  4.7561800583269742e-01  4.7472955280334661e-01  4.7468332310711048e-01  4.7456865852073765e-01  4.7444137361327338e-01  4.7432526259488361e-01  4.7424100440593264e-01  4.7421384118804466e-01  4.8256992562889428e-01  4.8253522578015368e-01  4.8245894378600351e-01  4.8237990837262124e-01  4.8230745602671360e-01  4.8225399948632702e-01  4.8224188467182932e-01  4.6928935825770368e-01  4.7240478444812806e-01  4.7871975142546924e-01  4.7874697767792102e-01  4.7243368662470947e-01  4.6928428123224258e-01  4.7878647493502074e-01  4.7249014011697105e-01  4.6926998115350826e-01  4.7882759874737402e-01  4.7254506455747824e-01  4.6925258894791766e-01  4.7886048211199528e-01  4.7258761058339072e-01  4.6922896752525906e-01  4.7887639110022329e-01  4.7260910130515660e-01  4.6919977594757384e-01  4.7887518317821692e-01  4.7259796445511415e-01  4.6917079698771946e-01  3.9645697408533215e-01  4.0276655417683777e-01  4.0531272611602481e-01  4.0535168120994014e-01  4.0275701031920325e-01  3.9649563990320630e-01  4.0274465831697343e-01  3.9660146581225009e-01  4.0542480244924345e-01  4.0551585688180353e-01  4.0560986743898758e-01  4.0568970584826691e-01  4.0573228356995039e-01  4.0043832476437491e-01  4.0867835584250312e-01  4.0041795831578603e-01  4.0874404991443702e-01  4.0042026936667502e-01  4.0881673764003179e-01  4.0887218620975990e-01  4.0888853406329556e-01  4.0886117327884997e-01  4.1122445917652223e-01  4.1133178750736571e-01  4.1144528072702130e-01  4.1153520518880449e-01  4.1157019210221468e-01  4.1151271294738412e-01  3.9959012913383801e-01  3.9960740623412633e-01  3.9965022961309571e-01  3.9972875440264788e-01  3.9984217080261364e-01  3.9998968235199384e-01  4.0017280031089381e-01  3.9496966310999770e-01  4.0046524991790650e-01  4.0046921279685871e-01  3.9499344047656187e-01  3.9505619188648877e-01  4.0048528663939309e-01  3.9516742841412295e-01  4.0054034645722231e-01  3.9533599254514978e-01  4.0063999620367674e-01  3.9557279146424557e-01  4.0079164463598105e-01  3.9589015520825765e-01  4.0101316978544876e-01  4.1117186087688673e-01  4.4176081864136318e-01  4.4321523665586671e-01  4.5017949199231366e-01  4.5019403945371528e-01  4.4321732734918196e-01  4.4324424715257954e-01  4.4156470144860849e-01  4.5027633449464249e-01  4.4323436146945672e-01  4.4153135247246322e-01  4.4325460187190269e-01  4.5030375544930934e-01  4.4153487303519234e-01  4.4325898802027808e-01  4.5032523619396858e-01  4.6814601241623788e-01  4.6817854088849881e-01  4.6824463960563661e-01  4.6830599126184125e-01  4.6834658797003725e-01  4.6835268172816680e-01  4.6829954044533634e-01  4.8126502021245965e-01  4.8131886110624844e-01  4.8113964027862388e-01  4.8100340817718201e-01  4.8087886517314971e-01  4.8078763208545533e-01  4.8077565790144350e-01  4.1676696770826266e-01  4.1689568682872225e-01  4.1698378944205305e-01  4.1699386256934484e-01  4.1689435966902505e-01  3.7866880757723009e-01  3.8178125500666604e-01  3.8181929268103953e-01  3.7865815067982006e-01  3.8192276814869469e-01  3.7864828651851212e-01  3.8209513445747756e-01  3.7870126542788862e-01  3.8235678278672408e-01  3.7885434811470714e-01  3.8272423186089927e-01  3.7915084699916390e-01  3.8319798735185273e-01  3.7967524773131173e-01  4.2545368939556322e-01  4.2542141126735294e-01  4.2535374394514114e-01  4.2528054090208167e-01  4.2521903818839657e-01  4.2517585159519194e-01  4.2514842232380751e-01  4.8338138261048091e-01  4.8336560701826986e-01  3.8582324145978930e-01  3.8584010356556731e-01  3.8590621328063801e-01  3.8603737286805467e-01  3.8625076298845190e-01  3.8656810941235442e-01  3.8701623789018208e-01  4.0422248390912863e-01  4.0423130266513285e-01  4.0425249647190442e-01  4.0429708598439795e-01  4.0436357327954758e-01  4.0444756103025065e-01  4.0454262059835677e-01  4.7468340182292196e-01  4.7468438654023404e-01  4.7468529463129339e-01  4.7468102218151143e-01  4.7467137583757602e-01  4.7465810819825999e-01  4.7464655333242023e-01  3.9041320282414937e-01  3.9043875068823575e-01  3.9053333874070573e-01  3.9068567884585570e-01  3.9090170986095735e-01  3.9119070445527154e-01  3.9156327405131092e-01  4.7421436692424773e-01  4.7422357998716802e-01  4.7424157834796754e-01  4.7425653626389408e-01  4.7425215651362551e-01  4.7421611373542266e-01  4.7414762629182738e-01  4.6378406372304870e-01  4.6377914454787766e-01  4.6375330540466725e-01  4.6371429450843382e-01  4.6366405208366485e-01  4.6360589893292042e-01  4.6354540020310997e-01  4.4175448806729051e-01  4.4170345374233833e