<?xml version="1.0"?>
<VTKFile type="UnstructuredGrid"  version="0.1"  >
<UnstructuredGrid>
<Piece  NumberOfPoints="1016" NumberOfCells="4407">
<Points>
<DataArray  type="Float64"  NumberOfComponents="3"  format="ascii">6.255082385731794 1.566473477337143 1.435630949835534  6.275002010296897 1.690663204916957 1.353010448185869  6.376775037871307 1.635959540067177 1.40554488535917  6.38416800755081 1.600744863658552 1.356028033474773  6.283996371635302 1.658002326306654 1.303133492298425  6.264228532120765 1.528730074669542 1.388497557362762  6.293197301815034 1.625421749358413 1.253431246722047  6.27364656475822 1.491143008196747 1.341452511140558  6.391690980661442 1.565669861567606 1.306706433267877  6.302550088074621 1.592960204761974 1.20383678762928  6.283210235156846 1.453693452495211 1.294506408250718  6.399336415039286 1.530731787135682 1.257497343118414  6.292796321852919 1.416325957935642 1.24766772937297  6.311933057863657 1.560592170862288 1.154379353223212  6.407022133606283 1.495875807173152 1.208404450824032  6.302267184542239 1.379024669902349 1.20097314643551  6.321220412273778 1.528273037724109 1.105053413924843  6.414662304536792 1.461098253737708 1.159494981803283  6.311425656802648 1.341749469512329 1.154456080600428  6.330190793608695 1.496002735422186 1.055911422946877  6.422106674469466 1.426414732375662 1.110836138668561  6.328343923542668 1.79196847506291 1.227537339480045  6.211303451342599 1.852361964561493 1.175348946617921  6.16455685110474 1.730723863433165 1.235173268503033  6.202444586108647 1.880809337497881 1.226806641053484  6.320169251675521 1.82237575064023 1.278557694399314  6.336689670173165 1.761587406334808 1.176697570520928  6.220369730093407 1.823916047021485 1.124043437761397  6.174258917768494 1.700226843818004 1.184932446073503  6.229561158026081 1.795544114390944 1.07286776909498  6.345136121506139 1.731307385250476 1.126043312971966  6.184105376614276 1.669811732368032 1.134789603908318  6.238775228105244 1.767239726644545 1.021806718185316  6.353616563716107 1.701102539070005 1.075515376586734  6.193966487289273 1.639463169457827 1.084753662485216  6.24788326942454 1.738984873881676 0.9708556690154542  6.362021348657262 1.670975207165629 1.025143868334318  6.203691911658977 1.609156108004659 1.034829802672502  7.265710871593158 2.028699415619498 1.080181509938484  7.154424053786584 1.999189660192914 1.110369026446491  7.213083577356434 2.122717654509046 1.037700169150654  7.20568980518121 2.09428788128828 0.982450704679547  7.145078804927564 1.969265247746307 1.056159032522505  7.258445685648654 1.999477898204909 1.02524995442615  7.197849574945541 2.065811251643989 0.9271597984935326  7.135273231378719 1.939266055804421 1.00201461622661  7.250741687486885 1.970161193834136 0.9702710283874519  7.189854721212983 2.037292279517957 0.8718326488782486  7.125285695845184 1.909234491569219 0.9478940005479379  7.242894407913056 1.940788414232399 0.9152512492570293  7.181901042577612 2.008735290479561 0.8164735353574606  7.115331940092511 1.879192452601333 0.8937673243331995  7.235098522055955 1.911375276650617 0.8601873978621158  7.174160169677406 1.980129585318944 0.761071722176457  7.105605237714195 1.849151872687635 0.8395956628160226  7.227515099590922 1.881923223737283 0.8050548603000819  7.166762810656818 1.951477574780643 0.7055745849501761  7.096276421034206 1.819121825831367 0.7853038000912642  7.220244302529994 1.852447154391085 0.7497658441568098  6.488718910873065 1.587031610085069 1.457830120654309  6.485178574600392 1.679346238605477 1.389133158109627  6.489947027474532 1.645225150307146 1.338025736212638  6.493943502059325 1.548026159965623 1.409514116843837  6.494743916325944 1.611217774290675 1.287121471785315  6.499208887081362 1.509196829518136 1.361340872613457  6.499602099790047 1.577337277843625 1.236364809485948  6.504542982735749 1.470517249882245 1.313280284143344  6.504497241593102 1.543546869345791 1.185752532549311  6.509916149499253 1.431932193799958 1.265345439250489  6.509413397948987 1.509843036672293 1.135324766579526  6.51531734986238 1.393432892013745 1.217580148742847  6.514303000845648 1.476247577918677 1.085173991364418  6.520719048040111 1.355059337615398 1.170093850358279  6.919935994666382 1.656715491140761 1.388551807442606  6.813700877555132 1.654982659833158 1.408156181718905  6.889247436518016 1.735928278239675 1.3364980763142  6.879775204946228 1.700026409352153 1.285130531607466  6.808511145664947 1.616169086572886 1.357029077819834  6.910788164735791 1.616842868082017 1.339113455399254  6.86995585666985 1.664189071248751 1.233954469553713  6.803050548352581 1.577485643239917 1.306058059375796  6.901274562967308 1.57706535945285 1.289846408042878  6.859932933639044 1.628393613285344 1.182950988509245  6.797443661823501 1.538875282517544 1.255249298023814  6.891577411785214 1.537335296372076 1.240725367155564  6.849885160583908 1.592645859249751 1.132072346269014  6.791832967183504 1.50032516514365 1.204575474962905  6.881867432316049 1.497656482797607 1.19171913234838  6.83999734942337 1.556966288721719 1.08129983441048  6.7863696400936 1.461848970954788 1.154023354517917  6.872314601660951 1.458056735027089 1.142815434282112  6.830533425397327 1.521400758693508 1.030619078593029  6.781201416811379 1.423477908509344 1.103624615550264  6.863170346728377 1.418580169244189 1.094022137944291  6.366586395423996 2.061530440976808 1.153164215797549  6.52806963598552 2.123123467033186 1.132478630526978  6.478333175533376 2.009110448860296 1.192871555650079  6.482429710708997 1.979414998253198 1.140156302438601  6.530094919520506 2.094267340208124 1.07830557374045  6.372338443277701 2.033520958317863 1.100057170229417  6.378196814065006 2.005485285194645 1.04711393047052  6.532110161217732 2.065397169568693 1.024324111655363  6.486567179932168 1.949736270312508 1.087671993555888  6.384114013670238 1.977474340757584 0.9943623172784719  6.534111686917257 2.036535690828228 0.970523964911235  6.490724329389269 1.920081423099535 1.035386961055582  6.390039595500721 1.949511559613327 0.9417634950023761  6.536099779936093 2.007704077877214 0.916887144399714  6.494886885067417 1.890463649439953 0.9832593689884199  6.39593098934338 1.921633049775709 0.8893109430423775  6.538133217606242 1.978964845085666 0.8633953168634505  6.499070384579991 1.860939559740645 0.9312914023450325  6.401695009368838 1.893911866843719 0.8370175308061242  6.540260392045887 1.950429308057869 0.8100663155847416  6.50324674005464 1.831639944289534 0.8795603793405878  6.269791323152843 2.244839905925988 0.7799405805403736  6.144874329621921 2.186895363126853 0.7991002333520486  6.285453689935772 2.122406253939421 0.8405044943287887  6.279938269644533 2.147699509624588 0.89554249449696  6.265982814147139 2.26892396979407 0.8370123478256252  6.150043638266501 2.163873023447157 0.7428466558937497  6.273579766305709 2.220813996179976 0.7229945590061684  6.290926708532647 2.097177087190195 0.7855902842316641  6.155091816643425 2.14089568429631 0.6867048673229967  6.277297849195925 2.196893378536595 0.6661732889564836  6.29626922383966 2.072063355520585 0.7308178373024523  6.157940145906699 1.606230255597098 1.314340355156749  6.168427487462739 1.572570760445017 1.265652612215985  6.179077405619628 1.539016669921145 1.217057266875675  6.189744022476089 1.505523764109117 1.168556679720866  7.089441677798713 2.122472448405671 1.0541931070135  7.079927241301728 2.093628749048746 0.9994904540616891  7.069979485553876 2.064745143206644 0.9448366847206101  7.05985542192626 2.035842398334516 0.8902174139361678  7.049756104866303 2.006932139284251 0.8356093477503618  7.039871222782495 1.978018442566312 0.7809792509947526  7.030385448622543 1.949086444058847 0.7262541459806851  6.389825687165458 2.181434657118738 1.094394590348907  6.394219152152285 2.154079785182964 1.039830626815867  6.398660004562691 2.126717501841038 0.9854804234823967  6.403137678156908 2.099370378362727 0.9313202569025708  6.407618225909756 2.072045232762626 0.8772986600120092  6.41208578142062 2.044800586627737 0.823417403230526  6.416491017329003 2.017724578835097 0.7696878661153139  6.653787102138409 2.268214122172215 1.052910247678555  6.535199123475923 2.255358360287075 1.063749974482521  6.615268797490034 2.356869371577974 1.004816735871048  6.611173232324918 2.328238126707262 0.9475269281505778  6.535473087912125 2.22609729526658 1.008497272202875  6.648327886054024 2.238092881632524 0.9977925051076791  6.642739724319901 2.207946545722412 0.9428326639222093  6.535712325152235 2.196832417491472 0.9534565777391718  6.606985648147139 2.299589293176698 0.8904409740877771  6.535914604021046 2.167565306609437 0.8985800036166166  6.637037606676 2.177799174842127 0.8880551224513689  6.602712888252097 2.270926076269126 0.8335122406666706  6.536096120622737 2.138317312812605 0.8438505749910475  6.631291076009069 2.147676321634088 0.8334107142998524  6.598414897948927 2.242295209170507 0.7767162412898004  6.62561295510889 2.11762560995497 0.7788719505268012  6.536323389988442 2.109156693105401 0.7892686823945626  6.594195690335488 2.213749151426105 0.7200405955495137  6.620164802275245 2.087742050130195 0.7244336801511295  6.536673089111281 2.080200891444382 0.7348410345704824  6.590168566293244 2.185372002074732 0.6634722241290331  6.392280736055018 1.500712678588593 1.436276639453335  6.400037445520433 1.4610538981412 1.389658506749403  6.407912258570033 1.421541023976316 1.343117771097263  6.415828046465719 1.382124133955607 1.296685901254784  6.423706963596663 1.342777577322626 1.250405634423109  6.431409676448158 1.303527792442964 1.204383198499023  6.615305711976103 2.187711379408978 1.100273600596073  6.612064866412995 2.158014506797857 1.045419964891898  6.608731318387414 2.128315310618029 0.9908106379403749  6.605311879437469 2.098610258595677 0.9363806144064513  6.601847810798736 2.068929827361722 0.8820972954452362  6.598444801065434 2.039329029601144 0.8279405845659645  6.59529298925543 2.009937082
[...]
<PointData  Scalars="f_14"> 
<DataArray  type="Float64"  Name="f_14"  format="ascii">5.0760909204040905e-01  5.0491880390818467e-01  4.9680111062545707e-01  4.9675970497734678e-01  5.0487181354715405e-01  5.0757221731277335e-01  5.0473651214082160e-01  5.0746256714634419e-01  4.9663411189717427e-01  5.0454248124450662e-01  5.0730447427498215e-01  4.9644405013187598e-01  5.0712543026453905e-01  5.0432431234899322e-01  4.9621510398425184e-01  5.0695593894987900e-01  5.0412134193131231e-01  4.9597351307411530e-01  5.0683216441568202e-01  5.0399120738981851e-01  4.9575927845696366e-01  5.0010565869205204e-01  5.0987372541080822e-01  5.1477568492983450e-01  5.0991855117903528e-01  5.0015077030830568e-01  4.9995778819964493e-01  5.0975127114601726e-01  5.1467634684912100e-01  5.0957911615535834e-01  4.9974698216029079e-01  5.1453730099008033e-01  5.0939283143377467e-01  4.9950814654398729e-01  5.1439027147029548e-01  5.0923198163587058e-01  4.9928369834278230e-01  5.1427060494086818e-01  4.1973515170447634e-01  4.3008514940659193e-01  4.2337355737945431e-01  4.2343193505053328e-01  4.3012942349008926e-01  4.1982111823278484e-01  4.2356937853832599e-01  4.3024317078370955e-01  4.2000184066467805e-01  4.2372661460293382e-01  4.3038134455294241e-01  4.2019663026484227e-01  4.2386187605525932e-01  4.3049594961280335e-01  4.2036279536105625e-01  4.2394220260718624e-01  4.3054734363925307e-01  4.2046629591806234e-01  4.2394083158526225e-01  4.3051990534009765e-01  4.2046631938441148e-01  4.8801720329774184e-01  4.8759194274920736e-01  4.8755579293693729e-01  4.8797549803489398e-01  4.8744676419273264e-01  4.8785826274335836e-01  4.8727400544883259e-01  4.8767580117964093e-01  4.8704907758656740e-01  4.8743776480498585e-01  4.8678065662368092e-01  4.8714982599150214e-01  4.8649150218103704e-01  4.8682870699341896e-01  4.5328810584540108e-01  4.6175696887441758e-01  4.5529540760227949e-01  4.5536674386513004e-01  4.6178373733898276e-01  4.5337848645784790e-01  4.5555796905344581e-01  4.6184613197027397e-01  4.5360328798547167e-01  4.5580174794725148e-01  4.6192306340301181e-01  4.5388353364025424e-01  4.5604725680362235e-01  4.6198580613438456e-01  4.5416736467035079e-01  4.5624769352448175e-01  4.6200943528432309e-01  4.5440920146223829e-01  4.5633554328908482e-01  4.6201494383374087e-01  4.5452140678669067e-01  4.9488086008672572e-01  4.8125522510701968e-01  4.8591821688036929e-01  4.8587475537481933e-01  4.8121133497501289e-01  4.9483575416608272e-01  4.9470970013805055e-01  4.8106547165906521e-01  4.8572811098230034e-01  4.9452340574004161e-01  4.8085778555624586e-01  4.8551423388167969e-01  4.9430629530017212e-01  4.8060632925149366e-01  4.8525427974780122e-01  4.9409012163487415e-01  4.8031796869888910e-01  4.8496459396401820e-01  4.9391057706056102e-01  4.8003065948751433e-01  4.8469847311607400e-01  5.0296637247115472e-01  5.1474271311590081e-01  5.0246659220892143e-01  5.0266323439917970e-01  5.0312863040421751e-01  5.1458470567588432e-01  5.0279838202235616e-01  5.0227623663587051e-01  5.1445513563923639e-01  5.0264699999146356e-01  5.0212513112676238e-01  5.1619422858075659e-01  5.1607123187418591e-01  5.1590567320634306e-01  5.1573155781283531e-01  4.3450128823142992e-01  4.3455342373168482e-01  4.3466973854514873e-01  4.3481155580387926e-01  4.3493238682670560e-01  4.3499077084282745e-01  4.3496764927852410e-01  4.9235026006923549e-01  4.9229813657990934e-01  4.9216732569521154e-01  4.9197652575454004e-01  4.9175289115279863e-01  4.9152189893932957e-01  4.9131289107834702e-01  4.7045471806426720e-01  4.7999600221475730e-01  4.7290886040221691e-01  4.7292421992801414e-01  4.7997065849501275e-01  4.7051429864543809e-01  4.7061864237678491e-01  4.7987047863700177e-01  4.7295048372954535e-01  4.7973057583126077e-01  4.7074769110323689e-01  4.7298160309784593e-01  4.7956009595103261e-01  4.7087721988308973e-01  4.7300495133819492e-01  4.7098080882744736e-01  4.7935708420590084e-01  4.7300276977046540e-01  4.7101461077899420e-01  4.7913022245944809e-01  4.7295817114085198e-01  4.9685508098395348e-01  4.9672279313899009e-01  4.9652690749218242e-01  4.9628834554449919e-01  4.9603115964517691e-01  4.9579868350913386e-01  4.7406478260370571e-01  4.7409357852755124e-01  4.7413159711313874e-01  4.7416821435123896e-01  4.7418995703103628e-01  4.7417073315910174e-01  4.7403021000648760e-01  4.6396078711511651e-01  4.6399738073817104e-01  4.6410132873338411e-01  4.6423519687053794e-01  4.6435887291966937e-01  4.6443134325097885e-01  4.6441578344099060e-01  4.9065020199511356e-01  4.7739450176066589e-01  4.8247312065606207e-01  4.8246991090867608e-01  4.7739875357289280e-01  4.9062653904198944e-01  4.8244649869415307e-01  4.7739893259192545e-01  4.9054218784798764e-01  4.8239914090396219e-01  4.7739625008015224e-01  4.9041396334481330e-01  4.8232485992177165e-01  4.7738005407024592e-01  4.9025420891544724e-01  4.8220561637814857e-01  4.7733139270422409e-01  4.9006995841297174e-01  4.8198262892558352e-01  4.7721865854143952e-01  4.8987107387457046e-01  4.9504057057183354e-01  4.9502343957451445e-01  4.9493012871573544e-01  4.9477461957240343e-01  4.9458109180540488e-01  4.9437978827280959e-01  4.9419895949231213e-01  4.5498240438950749e-01  4.5501867367229737e-01  4.5512704286155897e-01  4.5527946684740789e-01  4.5543085534263139e-01  4.5553667114392860e-01  4.5558240236197806e-01  5.0338877761645084e-01  4.9212659703945866e-01  4.9209119737868284e-01  5.0335838595936411e-01  4.9198141847501531e-01  5.0326602090800321e-01  4.9182052707534474e-01  4.9162652575915572e-01  4.9141515582480116e-01  4.9120830620152717e-01  4.7758636151802553e-01  4.7755983905168919e-01  4.7749438137934952e-01  4.7739356706267516e-01  4.7725458410411037e-01  4.7705689084372255e-01  4.7671399753939314e-01  4.6374507815323424e-01  4.6380608641638116e-01  4.6396239550028689e-01  4.6416488590025784e-01  4.6436298362804579e-01  4.6450116175396750e-01  4.6449830273437070e-01  5.0347548826326483e-01  5.0338696495353374e-01  5.0325517335324232e-01  5.0309824785042079e-01  5.0293531275478232e-01  5.0278878657244941e-01  4.0823840949292423e-01  4.0828774657972672e-01  3.9978391714832051e-01  3.9975553534622282e-01  4.0830970028956637e-01  4.0827730143285040e-01  3.9971283360311954e-01  4.0836859543783965e-01  4.0837019786284645e-01  3.9966884329780350e-01  4.0843126420389669e-01  4.0847046452023894e-01  3.9962520331630325e-01  4.0848166991934837e-01  4.0855163625594720e-01  3.9958362280238807e-01  4.0850902228723718e-01  4.0859631567164056e-01  3.9955311408867855e-01  4.0850118505409461e-01  4.0859092636490035e-01  5.0404389046455744e-01  5.0389583238195201e-01  5.0369208004411159e-01  5.0346758257453117e-01  5.0326179259173276e-01  5.0312863694418075e-01  4.9829516161350229e-01  4.8887872211673616e-01  4.8883769695346013e-01  4.9825434392176660e-01  4.9812667871042476e-01  4.8869848183111436e-01  4.9793996556042791e-01  4.8849159758057004e-01  4.8824021719306021e-01  4.9772599774102527e-01  4.8797292181289326e-01  4.9752172603103823e-01  4.8774415290703577e-01  4.9737417460522904e-01  5.0299603645902380e-01  5.0295473016601999e-01  5.0283488548135757e-01  4.8106355756652325e-01  4.8997139010144264e-01  4.8994330133541752e-01  4.8101576415238584e-01  4.8984281819428938e-01  4.8088319882922187e-01  4.8968129635114405e-01  4.8068684849875243e-01  4.8947775134846144e-01  4.8043529279910335e-01  4.8925415366758462e-01  4.8012811469843802e-01  4.8902834051167154e-01  4.7978636471650860e-01  4.1812916145431023e-01  4.1819887973685094e-01  4.1834775480892883e-01  4.1851649180478562e-01  4.1866000862419489e-01  4.1874474912893606e-01  4.1875987947125298e-01  5.1391177347635597e-01  5.1377449262439401e-01  5.1363508878630149e-01  5.0755497567294749e-01  5.0750865335817985e-01  5.0737435436249911e-01  5.0718782734900059e-01  5.0698417520816708e-01  5.0680401959361332e-01  5.0669844372907913e-01  4.5864773805665215e-01  4.6865809540919573e-01  4.6133333825393985e-01  4.6135923935741313e-01  4.6868437256698087e-01  4.5868499064406126e-01  4.6144875445243250e-01  4.6874866934410486e-01  4.5878706287785376e-01  4.6157652343196937e-01  4.6883478132485051e-01  4.5892834091250856e-01  4.6171043092901759e-01  4.6892636672212079e-01  4.5907782385025114e-01  4.6182129751227513e-01  4.6900924462681870e-01  4.5920585263215330e-01  4.6190385386165944e-01  4.6909604900229002e-01  4.5928171428687997e-01  4.2553326593904056e-01  4.2558944646753744e-01  4.2572657065573788e-01  4.2588708788119606e-01  4.2602682042438678e-01  4.2611024588166524e-01  4.2610744383370724e-01  4.7955902263479339e-01  4.7954853313971402e-01  4.7948794603893463e-01  4.7938167429241085e-01  4.7923179740633093e-01  4.7902685887149621e-01  4.7870358786584827e-01  3.7750467766421153e-01  3.8786156831186330e-01  3.7909878149885790e-01  3.8785310118793437e-01  4.6457153266276152e-01  4.6459964056148567e-01  4.6466661301274165e-01  4.6476396257011837e-01  4.6486996115958440e-01  4.6496840820242480e-01  4.6507202238916145e-01  3.8822051945759756e-01  3.9042315327170818e-01  3.9039108895291158e-01  3.8820201105631136e-01  3.9030519838248245e-01  3.8813321358852571e-01  3.9021405035180173e-01  3.8805887404824202e-01  3.9014216493209153e-01  3.8800228548838550e-01  3.9010986472912812e-01  3.8797841926448839e-01  3.9014020632003699e-01  3.8800686172400906e-01  4.3610100971149779e-01  4.3615285141074944e-01  4.3627912606836711e-01  4.3643461704547859e-01  4.3657198657230584e-01  4.3664630731815696e-01  4.3662080635257744e-01  3.9855861864711711e-01  3.9853099597987662e-01  3.9850242727887336e-01  3.9847456317069907e-01  3.9844652109042550e-01  3.9842629555216702e-01  4.5520332781625616e-01  4.5527239760690646e-01  4.5544024447673886e-01  4.5564646199028369e-01  4.5585716570701307e-01  4.5605484775619071e-01  4.5624281646183240e-01  4.7086696062702127e-01  4.7891692524324148e-01  4.7059517432376996e-01  4.7058730092766077e-01  4.7890047277309022e-01  4.7087889390916404e-01  4.7056933160316511e-01  4.7885266172334351e-01  4.7090461081135648e-01  4.7053194214335087e-01  4.7876209438805778e-01  4.7091309162714096e-01  4.7045301802609946e-01  4.7861676980112827e-01  4.7087656658504395e-01  4.7030071614654534e-01  4.7839135502935604e-01  4.7075472719563966e-01  4.7003334009731873e-01  4.7801139444696983e-01  4.7045994944930797e-01  4.2152506742155738e-01  4.3000214894071798e-01  4.2087663231225608e-01  4.2098026724065007e-01  4.3009953194010669e-01  4.2161918000617754e-01  4.2120709622198299e-01  4.3035521792145431e-01  4.2185592051803916e-01  4.2145902611203218e-01  4.3066770133683246e-01  4.2213386788112722e-01  4.2167067668791558e-01  4.3096567569097466e-01  4.2238477507561994e-01  4.2178394561115728e-01  4.3118194273021632e-01  4.2254707955661458e-01  4.2175547351648662e-01  4.3120217763638979e-01  4.2255510790339684e-01  4.0364697166467550e-01  4.1201082925379429e-01  4.0051512450212240e-01  4.1204677071047513e-01  4.2083105206800003e-01  4.2907851984686624e-01  4.2009548200255575e-01  4.2014126267414720e-01  4.2916369225366308e-01  4.2089972247575247e-01  4.2024289820628885e-01  4.2936870201052973e-01  4.2106239020474151e-01  4.2035938551916335e-01  4.2960931248011158e-01  4.2124600042640520e-01  4.2044604976437028e-01  4.2981823964001803e-01  4.2139398606896061e-01  4.2046773167042306e-01  4.2993679477875885e-01  4.2146111304611494e-01  4.2041413979418746e-01  4.2991790577832090e-01  4.2141845470918660e-01  4.3795147819735902e-01  4.4666343043689810e-01  4.3780368887441584e-01  4.3789654509964715e-01  4.4671919515519931e-01  4.3800972222405693e-01  4.3812873415403142e-01  4.4687867479678034e-01  4.3816283622782093e-01  4.3841469826390322e-01  4.4708715505456459e-01  4.3835841487312283e-01  4.3868023667093081e-01  4.4728700178299557e-01  4.3854215459802948e-01  4.3885465416624320e-01  4.4742040447947801e-01  4.3866425577771051e-01  4.3885456330252082e-01  4.4743763415064031e-01  4.3868236834833363e-01  4.1264015220327654e-01  4.1268277616001176e-01  4.1279354408840585e-01  4.1210145941032217e-01  4.1292326684083619e-01  4.1216625746551139e-01  4.1302658204859694e-01  4.1220500437541235e-01  4.1306679187255424e-01  4.1219603391792420e-01  4.1301808331260853e-01  4.1214752798272303e-01  4.3832194665022212e-01  4.4659801762477824e-01  4.3802463669927455e-01  4.3811882973610239e-01  4.4666926445549893e-01  4.3842214463505197e-01  4.3835534753278843e-01  4.4685965593839877e-01  4.3867285115557841e-01  4.3864116192695712e-01  4.4710359520831272e-01  4.3897916779882629e-01  4.3890222746513768e-01  4.4733586362910849e-01  4.3926237899748938e-01  4.3906520083114542e-01  4.4748636593081753e-01  4.3944397837123694e-01  4.3903619538127864e-01  4.4746049676662225e-01  4.3942643053916197e-01  4.5537766509157862e-01  4.6355707450558487e-01  4.5552694949560801e-01  4.5557583946139329e-01  4.6359657234287266e-01  4.5542374129856866e-01  4.5572318417051311e-01  4.6371303168664046e-01  4.5555442222330994e-01  4.5592481683505759e-01  4.6387306725685362e-01  4.5573378609562570e-01  4.5612963016465252e-01  4.6403315537575396e-01  4.5591269292972475e-01  4.5628505221425736e-01  4.6414984989002345e-01  4.5604153575165379e-01  4.5632239144442915e-01  4.6418555353729801e-01  4.5607773870447516e-01  4.4707792422295561e-01  4.4713643001640502e-01  4.4727837824540351e-01  4.4745906298612964e-01  4.4763944998674615e-01  4.4778080050311803e-01  4.4784102218542371e-01  4.2942400278682363e-01  4.2952990770837263e-01  4.2978542364808636e-01  4.3008450855788988e-01  4.3035139857587812e-01  4.3051747164994153e-01  4.3051006112815232e-01  4.4630906431556544e-01  4.4637779524854526e-01  4.4656949547880226e-01  4.4681950077655613e-01  4.4706306632915632e-01  4.4723196124539338e-01  4.4723554023740214e-01  4.7212663474821304e-01  4.7215497305427490e-01  4.7219247317452367e-01  4.7222219617932032e-01  4.7222063225425698e-01  4.7215102689232219e-01  4.7191526064370615e-01  4.8611086245347146e-01  4.8607143952488469e-01  4.8595924468821716e-01  4.8578507845513130e-01  4.8556007977061211e-01  4.8529549264915200e-01  4.8500229380306709e-01  4.7172269994457405e-01  4.7173501737011508e-01  4.7176880300149598e-01  4.7180780580928716e-01  4.7182271480642390e-01  4.7177024512862742e-01  4.7155776420806716e-01  4.2690538144459017e-01  4.2696543004410820e-01  4.2712060309799132e-01  4.2730640562532168e-01  4.2746989908826272e-01  4.2756699235629297e-01  4.2756536996957278e-01  4.1078952532217616e-01  4.0288419958528138e-01  4.1087268376112790e-01  4.3987361323125901e-01  4.3995744552384786e-01  4.4016727619176965e-01  4.4042044125322266e-01  4.4065205238498456e-01  4.4079596357148437e-01  4.4077424679311789e-01  4.7978221381906599e-01  4.7978239352513269e-01  4.7977755975544517e-01  4.7973945431904907e-01  4.7964473418726716e-01  4.7945755377632965e-01  4.7909382091273733e-01  4.3064054999633933e-01  4.3070891555699409e-01  4.3089340130425896e-01  4.3111789774650255e-01  4.3133293604443557e-01  4.3149956539491041e-01  4.3157526312846189e-01  4.6360796127964676e-01  4.6361627455946092e-01  4.6363201469783211e-01  4.6364391988416209e-01  4.6363075462680964e-01  4.6358121041117878e-01  4.6352649298032017e-01  4.4523469983211833e-01  4.3702544583398306e-01  4.3707776985490487e-01  4.4529004984628434e-01  4.4544281442532335e-01  4.3720775014043856e-01  4.4563576319477805e-01  4.3736868435913473e-01  4.4581927381183656e-01  4.3751156588063045e-01  4.4594127934536204e-01  4.3758870576505615e-01  4.4593395851199247e-01  4.3755786127052332e-01  4.2872005059193746e-01  4.2881348878473247e-01  4.2905432115138636e-01  4.2933616710925188e-01  4.2959024630710019e-01  4.2975599040177298e-01  4.2976334133061506e-01  4.5143729971576163e-01  4.5150148256322209e-01  4.5167419260290032e-01  4.5188764900341954e-01  4.5209698730917425e-01  4.5225695263252874e-01  4.5229638863214838e-01  4.4267858934733401e-01  4.4275265793677182e-01  4.4293789042269238e-01  4.4316547083144409e-01  4.4337726813967226e-01  4.4351228916286944e-01  4.4349095816544448e-01  4.6401747500001450e-01  4.5782668374548041e-01  4.5786938579901149e-01  4.6405440506803958e-01  4.5799785101512086e-01  4.6416704489307126e-01  4.5817714877853694e-01  4.6432519735223959e-01  4.5836008935380568e-01  4.6448771117263454e-01  4.5849790226918424e-01  4.6461359392698870e-01  4.5854840628748972e-01  4.6468016633705855e-01  3.9820278191421010e-01  3.9820844997051813e-01  3.9821140850823411e-01  3.9821350987880177e-01  3.9821404199489391e-01  3.9821484486317832e-01  3.9821088058320081e-01  4.2897466056489614e-01  4.2047601488211866e-01  4.2051711522396024e-01  4.2905254973630141e-01  4.2061791763511319e-01  4.2922678570813921e-01  4.2073371200411719e-01  4.2942382010730584e-01  4.2082454990162949e-01  4.2958800301149652e-01  4.2086022911837456e-01  4.2967104554989455e-01  4.2082123019433332e-01  4.2963998825907274e-01  3.8781414886696014e-01  4.7850905350261164e-01  4.7845538408784355e-01  4.7833099006140689e-01  4.7815169376553940e-01  4.7791575196007252e-01  4.7760924050656989e-01  4.7719767968804172e-01  4.1198974335091160e-01  4.1207397671728996e-01  4.1226223492960334e-01  4.1106262951549843e-01  4.1246176158405384e-01  4.1126503311734425e-01  4.1262444210297611e-01  4.1143090790723091e-01  4.1271052999792401e-01  4.1152213311019836e-01  4.1267944033571857e-01  4.1150427282507956e-01  4.7151894477750717e-01  4.7152954564760813e-01  4.7156636951297859e-01  4.7160848774831055e-01  4.7163004048414053e-01  4.7159167713466171e-01  4.7142740519720328e-01  4.0298894983562539e-01  4.0289978390977610e-01  4.0300411347263593e-01  4.0293307483770646e-01  4.0302218322512862e-01  4.0304271301746486e-01  4.4620677515545670e-01  4.4876202879614396e-01  4.4882334569376459e-01  4.4626870050102091e-01  4.4899230198790280e-01  4.4644654971752890e-01  4.4921174706123901e-01  4.4667728910361260e-01  4.4942290161281501e-01  4.4689684958083242e-01  4.4956216221558520e-01  4.4703567785337978e-01  4.4955050805330488e-01  4.4700570796047001e-01  3.8685409146621269e-01  3.9726764670560050e-01  3.9727334815853554e-01  4.5211638354160916e-01  4.5216818167459555e-01  4.5230716197634047e-01  4.5249307593359650e-01  4.5267784328580896e-01  4.5281041187126647e-01  4.5283016726732966e-01  4.3855328094370605e-01  4.3856958964203785e-01  4.3860783278634424e-01  4.3867277873515570e-01  4.3873591636122833e-01  4.3877286841862473e-01  4.3881340133017765e-01  4.1232307553811837e-01  4.1237096413271607e-01  4.1245769201238436e-01  4.1254809715159052e-01  4.1261378263844589e-01  4.1263353420698995e-01  4.1260523771246899e-01  4.4678000270622914e-01  4.3886175041248698e-01  4.3891620630734418e-01  4.4682246222570443e-01  4.3906253134473233e-01  4.4692900977822908e-01  4.3925056366585918e-01  4.4706910923076032e-01  4.3942407435006153e-01  4.4720063381401437e-01  4.3952700553839952e-01  4.4728056242858116e-01  4.3949654400837807e-01  4.4727499563763484e-01  4.1332875177887252e-01  4.1336989339908137e-01  4.1344994053166201e-01  4.1353216555947575e-01  4.1359231144940423e-01  4.1361229907601732e-01  4.1359095447405181e-01  4.7202807950475423e-01  4.6641877452356217e-01  4.6649398073953591e-01  4.7203006066067521e-01  4.6669162484623855e-01  4.7205688224941783e-01  4.6694094168234479e-01  4.7209327634007847e-01  4.6719769502626163e-01  4.7211532946293672e-01  4.6741126870744448e-01  4.7208734953521825e-01  4.6748593269386646e-01  4.7193563521695980e-01  4.2042144243476304e-01  4.2050806661212409e-01  4.2066251329159576e-01  4.2083305994136516e-01  4.2097955288607197e-01  4.2107227281989040e-01  4.2109859405502958e-01  4.0676286039332227e-01  4.1426579705056099e-01  4.0519251548616075e-01  4.1431618702370487e-01  4.4902689770963167e-01  4.4906473249211959e-01  4.4916059489900756e-01  4.4929182239172644e-01  4.4941962902761778e-01  4.4950460208154591e-01  4.4951375948075689e-01  3.7909190876165066e-01  3.7907458309807679e-01  4.1365919567183240e-01  4.2460005205022050e-01  4.1685241441893167e-01  4.1690838456219204e-01  4.1704739705381383e-01  4.1720367206763870e-01  4.1733501300055537e