<?xml version="1.0"?>
<VTKFile type="UnstructuredGrid"  version="0.1"  >
<UnstructuredGrid>
<Piece  NumberOfPoints="986" NumberOfCells="4271">
<Points>
<DataArray  type="Float64"  NumberOfComponents="3"  format="ascii">1.801017227293424 1.239854170327382 3.30387334021089  1.666499497442357 1.181058729846336 3.228565552319791  1.662402925683746 1.292543891188933 3.337504052458977  1.673765618126753 1.230583013861255 3.183299116454844  1.795681012570272 1.19317891076193 3.350173627202408  1.659558618642207 1.131412815469047 3.273959798499915  1.655752942832333 1.246706092743224 3.384635203284983  1.790470656685324 1.14644154405486 3.396574108254896  1.652735586588676 1.081640578340563 3.319500773429234  1.649243394865026 1.200773152419008 3.431907278932852  1.785263198020852 1.099648221961123 3.443051269774795  1.64589130442134 1.031781540956966 3.365174943197604  1.642698055113796 1.154742768705411 3.479281717351436  1.638871790825146 0.9818537745834625 3.410942785990574  1.779922453017734 1.052783182679347 3.489584288467491  1.635983984168055 1.108608891277764 3.52673021501411  1.631589647914711 0.9318677420857395 3.456786438701871  1.774332927845649 1.005845739658477 3.536171505417685  1.629006274732332 1.062388413715976 3.574224726019928  1.172385935605329 1.170670877000794 2.905345123783204  1.271849439395478 1.174956311546243 2.973464673323903  1.18023292466334 1.232557268707721 3.038812381478023  1.165732663522265 1.174772031878601 3.071509572301723  1.254726696761689 1.115654816675656 3.002931065135053  1.15525607548159 1.109438733277689 2.930586268385722  1.151938330554966 1.116281270094662 3.104195701983873  1.238073336925504 1.05573301406014 3.032267133935827  1.138671316885248 1.047589816305495 2.955514927561357  1.138352532351596 1.057321335044054 3.137107759623058  1.221556397154211 0.995397371092731 3.061736026647288  1.122202713036928 0.9852790285018542 2.980528286379398  1.124551126598522 0.9980951454386839 3.170380361273938  1.204928437534281 0.9348238470391277 3.091480288163515  1.105580704640234 0.9226792131971665 3.00581103845043  1.110221675898035 0.9386383759090567 3.203906779182197  1.188002697624563 0.8741060088450991 3.121497408174275  1.08862903896784 0.8598994266924436 3.031432006441643  1.095156693015072 0.8790275479970618 3.237682918716423  1.1704895830192 0.8133061422657917 3.151712246620922  1.071009444133891 0.7970310107013453 3.057372222065397  0.7961937749918194 1.477248774704501 3.339444236141169  0.6731081704374737 1.413778907711354 3.238280228441699  0.6713304010515864 1.513421056137507 3.352103179805605  0.6825478930820645 1.466060601852684 3.194194565502567  0.6648348040654162 1.360760515479065 3.283048699476388  0.7876192395415281 1.428327408894728 3.38663185531048  0.6646129751220228 1.463970496707633 3.400851658865221  0.6566580568928158 1.306905234987894 3.328447405193906  1.638244017304601 0.9928302350018514 2.97968927883675  1.502333633397684 1.05249577850762 3.021445371123732  1.65435839789803 1.093132811403241 3.122898075569503  1.516748129128759 1.111531396133201 2.986713686716622  1.626472076539651 0.9323222279123783 3.014780014175114  1.488191213100017 0.99311148149533 3.056128678614226  1.646035053730907 1.038463161081098 3.164279356485928  1.474109248828635 0.9335150355269326 3.090918735960112  1.614737803818473 0.8716330051680996 3.049934647232845  1.637808040467981 0.9836659571352075 3.205762389705594  1.459965007975611 0.8737922748439684 3.125873615131454  1.286745977136369 1.086958188607365 2.757468878113427  1.395986083816539 1.082896059300845 2.863073018215926  1.289256374512996 1.120918791944385 2.878719788752428  1.270494390578224 1.058953520010066 2.903314570088726  1.376398192961301 1.020700276886789 2.888902314631355  1.265347853682901 1.023077771204127 2.773944353579074  1.244122514814403 0.9588114759641211 2.7899227430327  1.357012186883102 0.9580266690392925 2.914469953403314  1.252054802291811 0.9964219969520027 2.927626468902266  1.222874660258519 0.8942609243888213 2.80580396452046  1.33763998089659 0.8951126037590899 2.940065096603997  1.233643790355381 0.9335725884726367 2.951989535038719  1.201522806626513 0.8295192493074467 2.821798665794628  1.318179463518638 0.8320376505043345 2.96582395821567  1.215109789133948 0.8705193926276555 2.976551210067986  1.180013349519232 0.7646734985268326 2.838032487605521  1.298545809113206 0.7688828484729173 2.991813459717194  1.196312769206272 0.8073398296437484 3.001392402004728  1.158267098621772 0.699844408859239 2.854633844850459  1.278667023606723 0.705725832451539 3.018100799685278  1.177085167294428 0.7441203298128893 3.026539325597577  1.531970281855134 1.263602953579559 3.192798834920179  1.669401492717014 1.338317257291405 3.29055867394322  1.522508176276703 1.214278310423969 3.238046623903276  1.513473929544668 1.164675713235117 3.283472629148349  1.504554132291245 1.114912606499497 3.329097876518894  1.495553358164893 1.065021566140639 3.37490455049004  1.486307574816989 1.015014076178417 3.420853940818179  1.476713760363399 0.9649167323660324 3.4669417974438  1.172202451008214 1.127480651587068 2.781500017361628  1.153451271066647 1.063477345425582 2.798059431012324  1.135085626939196 0.9989288070939482 2.814067615563263  1.116765703642842 0.9340110085630203 2.830015357132446  1.098288682422198 0.8688509976841374 2.846123939664991  1.07951593528997 0.8035465183575506 2.862504660012583  1.060273144815015 0.7382247515245516 2.879284542880646  1.036081449490681 1.222281990555086 2.942837426191763  1.022140756920883 1.160764614550337 2.96871544789733  1.009066296418526 1.098319078310881 2.994376536474536  0.9961742595414551 1.035314683337766 3.020209418403755  0.9830842468126147 0.9719591241478682 3.046450929654814  0.9694362798068319 0.9083102809077368 3.073058284414779  0.9548254038871711 0.844371193236198 3.099992133451416  0.6490735723838692 1.289625019633357 2.905879784811626  0.6758294360182188 1.256341444520624 2.816185972298205  0.7797093697677291 1.277231763641497 2.937667937376496  0.7673265756539369 1.214473200879135 2.964973304307994  0.6656740377279082 1.189449208932941 2.835268664969684  0.6387078356063741 1.224498380400067 2.931755754442487  0.7559883909303988 1.150674837223758 2.992229292349619  0.6565107261026679 1.121530554028664 2.853985889081917  0.6293832850860791 1.158390928313151 2.95759216757369  0.7449230395583013 1.086163105698395 3.019841939148093  0.6474596968289449 1.052776245127513 2.872988116693045  0.6202872794507041 1.091457137700967 2.983792168614884  0.7335836555912052 1.021064915480851 3.048012124321384  0.6381720527403786 0.983287612673666 2.892344143575147  0.6109724446272637 1.023784147636504 3.010520751402474  0.7214725314941223 0.9553120736354404 3.076646977129019  0.628344734711538 0.9131241076638522 2.912106741639244  0.6009510476720531 0.9552092699966745 3.037698607482866  0.7081847870632793 0.8889460673533383 3.105835885996824  0.6176156091608462 0.8422244027320136 2.932283673552643  0.5897748642990638 0.8855933603956068 3.065493158743963  1.495359642081493 0.9749951952533851 2.876240288398205  1.476622054677772 0.912234696688124 2.904861708889612  1.457864105420991 0.8492818828793789 2.933521012137318  1.439056392366691 0.786222839751338 2.962310075926135  1.540978795458869 1.352110464169165 3.283017482993901  1.533289039828529 1.306175269334058 3.330240113528058  1.526042762969174 1.26009030984392 3.377696901863168  1.518928641420863 1.213857119844534 3.425357851132511  1.511729624769811 1.167484812137227 3.473172648907029  1.504308505699308 1.120992407434671 3.521104821912972  1.49656389242596 1.074408399618375 3.569139890172541  0.5403977153891033 1.505194771260519 3.319913491684042  0.5342013542188093 1.452375285564713 3.367681406109696  0.5279840127625745 1.398757395698527 3.416054919120367  1.050455865240103 1.168892313541996 2.807486224506995  1.034344601790945 1.104782271764936 2.825354806727028  1.018841284119608 1.039983468511589 2.842666747051185  1.003405080395515 0.9747035688983916 2.859986180582521  0.9877706794470464 0.9090844185656158 2.877522324028039  0.9717226307964868 0.8432439020166315 2.89538486454699  0.9550354668392473 0.7773165235199224 2.913677926970816  1.514210999790892 1.037364388431739 2.847380302184158  1.420144493966311 0.7231356115891758 2.991299241804172  1.445677574310834 0.8140168976815445 3.161017463835732  1.401084967718234 0.6601071548548272 3.020563703102035  1.431117702663647 0.7542209556897475 3.196303852823607  0.5494394410031116 1.28219802596427 2.836981305315341  0.5412570544575277 1.214584022829172 2.859561813607384  0.5340793227636405 1.145842984183235 2.88220018370462  0.5270259213992756 1.07621336311553 2.905153456092695  0.5197832783000711 1.005686368764735 2.928448872843575  0.5120982346254184 0.9341638271336121 2.952076181134532  0.5035291497475906 0.8613780634437921 2.976163967105585  0.548942844589221 1.244761493340314 2.711438342737354  0.5425549433298897 1.174232903853278 2.725296047309754  0.5369542379088409 1.102824901884726 2.739029779056144  0.5313201437898907 1.030693286753529 2.753035586943176  0.5254204680819219 0.9577598800437219 2.767201092782225  0.519007565998501 0.8839345651877524 2.781507503930507  0.5119450526453261 0.809026124989115 2.795994654740556  1.048270621048583 1.129972740848121 2.55755577397371  1.054831053723138 1.12720904357844 2.429158330535988  1.155430473753206 1.094612100618359 2.527103438546151  1.133293880402022 1.029680896930252 2.52955064555073  1.036025700979586 1.06179023369951 2.4262810395489  1.029575227672266 1.064316952946096 2.560321117475585  1.111302845582198 0.9646298492666225 2.531214677296662  1.017616458789072 0.9962822438485968 2.422534748124882  1.011254960384294 0.9983956628016863 2.562229518774654  1.089202327607151 0.8994719770736057 2.532650561667712  0.999151765600278 0.9306962737075439 2.418523569257556  0.9928811047009742 0.9322755658298213 2.56391618112737  1.066963668864303 0.8341977146872206 2.534090434438818  0.9804201658846469 0.86506
[...]
<PointData  Scalars="f_14"> 
<DataArray  type="Float64"  Name="f_14"  format="ascii">8.6607290262373304e-01  8.7695391614751617e-01  8.7742634386826190e-01  8.7697929325220669e-01  8.6602187544846254e-01  8.7689607757750920e-01  8.7738329885533628e-01  8.6597115238416178e-01  8.7683730857998887e-01  8.7733923860404062e-01  8.6594814803079445e-01  8.7680324593120407e-01  8.7732188508360787e-01  8.7681758017223399e-01  8.6598090419415019e-01  8.7735441516239265e-01  8.7689600460537531e-01  8.6609461738388782e-01  8.7745447257206288e-01  9.1955981590909608e-01  9.1112658395720614e-01  9.1870271081750565e-01  9.1868368936552547e-01  9.1114641217939318e-01  9.1955610210976813e-01  9.1862508306564705e-01  9.1118432955751771e-01  9.1954580328169444e-01  9.1855643251100771e-01  9.1121984740354067e-01  9.1953606874394811e-01  9.1849705306476992e-01  9.1123941630379779e-01  9.1952210434624948e-01  9.1845549772897517e-01  9.1122228124435656e-01  9.1948791454145151e-01  9.1843759610479103e-01  9.1113371067930571e-01  9.1942811085000120e-01  9.5050537722638007e-01  9.6047114910197606e-01  9.6070421423889829e-01  9.6053108768774964e-01  9.6041092874837508e-01  9.5045740372091780e-01  9.6062582310643208e-01  9.6042256350895783e-01  8.7892425766396776e-01  8.9021003627666850e-01  8.7783385298861250e-01  8.9021134656747425e-01  8.7891265707250754e-01  8.9021652442593879e-01  8.7776786629467574e-01  8.9022187946863118e-01  8.7890310436242214e-01  8.7770108009700576e-01  8.9021413296336649e-01  9.1029229593135752e-01  9.0068483235186170e-01  9.0967132962961195e-01  9.0967236950935304e-01  9.0071178262260476e-01  9.1031120074420147e-01  9.1037549495418546e-01  9.0077751314818522e-01  9.0968827036650723e-01  9.1045234233650318e-01  9.0084661354073181e-01  9.0970271072660536e-01  9.1049081967141698e-01  9.0087824317275467e-01  9.0968644541242716e-01  9.1043010997429463e-01  9.0083040087317023e-01  9.0960465697059611e-01  9.1019353775518064e-01  9.0066232238429922e-01  9.0943537903111782e-01  8.8885390750085125e-01  8.7743860856392231e-01  8.8883835110847942e-01  8.8879984694438185e-01  8.8876220459111110e-01  8.8874123285278306e-01  8.8874673018668782e-01  8.8876872039232091e-01  9.1974400745603713e-01  9.1974048112850670e-01  9.1972958128772031e-01  9.1971455895801812e-01  9.1968601684993789e-01  9.1963110436984863e-01  9.1954849638767933e-01  9.3089808483934988e-01  9.3083706951122780e-01  9.3071354650367599e-01  9.3058391784821670e-01  9.3047878573755982e-01  9.3043363027096615e-01  9.3050441819053464e-01  9.6292047883818632e-01  9.6074991817304689e-01  9.5238512357400140e-01  9.5233361604478617e-01  9.6068669830091891e-01  9.6287307991007620e-01  9.5229408034370877e-01  9.6061979822956767e-01  9.6284204223054148e-01  9.5230114207607497e-01  9.6062059354959639e-01  9.6287569799185968e-01  9.5238036222773093e-01  9.6071237630740569e-01  9.6299801768699578e-01  9.5255576954174048e-01  9.6091858323871948e-01  9.6323904422365469e-01  9.5283155666087627e-01  9.6130407623703851e-01  9.6362352199663592e-01  8.9058867925367768e-01  8.9071180941352135e-01  8.9084463906539413e-01  8.9094449895283268e-01  8.8814920260105956e-01  8.8811603671635808e-01  8.8803119877341774e-01  8.8794185861824793e-01  8.8787704621725139e-01  8.8785876716737033e-01  8.8791191050999085e-01  9.7108669925440882e-01  9.7107525875329226e-01  9.7115321280140787e-01  9.2985677510261666e-01  9.2982336133260002e-01  9.2976583642086230e-01  9.2971372460719093e-01  9.2967808568606669e-01  9.2966883327042449e-01  9.2970089621009588e-01  8.9053389168605224e-01  8.9097539452808883e-01  8.9017808893829042e-01  8.9089908926962791e-01  8.9009766614369024e-01  9.7069346280036095e-01  9.7064935832808652e-01  9.7062045090181281e-01  9.7067023850598189e-01  9.7082692064775156e-01  9.7112131442053884e-01  9.7160385381856595e-01  9.7055998092803775e-01  9.7047080585110190e-01  9.7038179895749543e-01  9.7037356737403158e-01  9.7048594072294492e-01  9.7077633515388217e-01  9.7131884101709287e-01  9.3070720049898581e-01  9.3050364493100968e-01  9.2190472834677573e-01  9.2194235794148083e-01  9.3050151380392965e-01  9.3071239882436296e-01  9.2205284270921228e-01  9.3051116995527261e-01  9.3074038909271184e-01  9.2219866971326481e-01  9.3054850141626499e-01  9.3079632540406021e-01  9.2232646974217924e-01  9.3060085254304981e-01  9.3086320880361217e-01  9.2237252381987389e-01  9.3063625480131162e-01  9.3092052545957571e-01  9.2223808612153479e-01  9.3065232067803816e-01  9.3094608131010370e-01  9.7127572342964719e-01  9.7123744002390722e-01  9.7121834405978225e-01  9.7126515580048811e-01  9.7141407189725304e-01  9.7170103869520352e-01  9.7214582599183674e-01  9.2081207995026526e-01  9.2081006284002875e-01  9.2080759521844013e-01  9.2081249522716624e-01  9.2079745756133646e-01  9.2072823295891804e-01  9.2059678998189487e-01  9.7284853617482403e-01  9.6125348794315524e-01  9.7102626477200693e-01  9.7098919324348809e-01  9.6123175478801071e-01  9.7278955550146728e-01  9.6124639298444448e-01  9.7274697281415112e-01  9.7098802170551479e-01  9.6132336462000212e-01  9.7277010396080632e-01  9.7106794569348009e-01  9.6149612499192594e-01  9.7290732112912637e-01  9.7125342715882534e-01  9.6176779711278593e-01  9.7318084053916187e-01  9.7156356916910747e-01  9.6212031925711039e-01  9.7360428816553735e-01  9.7199967708503698e-01  8.7932399886750534e-01  8.7925768207802546e-01  9.0086552423495658e-01  9.0097797936594692e-01  9.0127936439663481e-01  9.0161320517749344e-01  9.0188415507135022e-01  9.0199523900348411e-01  9.0180980178651227e-01  9.4086842908345136e-01  9.4033805090799372e-01  9.4032646741285419e-01  9.4086090041431858e-01  9.4032861494885078e-01  9.4089002265972443e-01  9.4037732329751189e-01  9.4097629926302739e-01  9.4048002868142966e-01  9.4112222328032402e-01  9.4063271922093039e-01  9.4131848811544461e-01  9.4083868390649117e-01  9.4153744161354813e-01  9.8080842561497994e-01  9.8080921009394983e-01  9.8069481012618831e-01  9.8073503746224633e-01  9.8057700325940689e-01  9.8067160294295186e-01  9.8053427677772831e-01  9.8070084878062502e-01  9.8062310996898416e-01  9.8086038249769203e-01  9.8092287179095095e-01  9.8119704254639861e-01  9.8152775231448419e-01  9.8178128169813228e-01  9.3027429857279131e-01  9.3026002092627469e-01  9.3023334084277043e-01  9.3021679393991030e-01  9.3021195163905857e-01  9.3022222896842499e-01  9.3025841945319976e-01  9.4024348190606188e-01  9.4017075497986913e-01  9.4005197410347963e-01  9.3995042471032153e-01  9.3989305730453854e-01  9.3990072284851633e-01  9.4003572240731947e-01  9.0082191266920375e-01  8.9745365606918126e-01  8.9741621495868451e-01  9.0079091313419124e-01  8.9731656703468399e-01  9.0072107309094163e-01  8.9720697216026812e-01  9.0064117834082325e-01  8.9711841098328349e-01  9.0057042127631748e-01  8.9706838208054118e-01  9.0050972621896508e-01  8.9707339362904903e-01  9.0045237275040368e-01  9.5156734293651768e-01  9.5275604479166687e-01  9.5269113547379691e-01  9.5151174553305995e-01  9.5262124267167014e-01  9.5145059516953823e-01  9.5260194704161261e-01  9.5142438933951590e-01  9.5266830533176894e-01  9.5147778619803058e-01  9.5283181331364153e-01  9.5162386851435898e-01  9.5309963334399528e-01  9.5187650199693741e-01  8.6713510432576024e-01  8.6708310031140412e-01  8.6703508669999974e-01  8.6701549781331455e-01  9.0902189610618001e-01  8.9796994568221700e-01  8.9794710508245568e-01  9.0900688519800321e-01  8.9790916647204944e-01  9.0898356140424896e-01  8.9786763562876337e-01  9.0895575985879840e-01  8.9782008744390507e-01  9.0892153690393329e-01  8.9776300732144887e-01  9.0886964437721751e-01  8.9768120108729954e-01  9.0876729725856142e-01  9.7061217276054712e-01  9.7126667979437542e-01  9.7120004046571928e-01  9.7054302887001653e-01  9.7115439109287316e-01  9.7047526035827314e-01  9.7119554646668416e-01  9.7049443093580356e-01  9.7136367495565945e-01  9.7065246341043265e-01  9.7172182126975692e-01  9.7101569094131535e-01  9.7233623401433433e-01  9.7169662188111106e-01  9.0252051692184476e-01  9.0252458474107311e-01  9.0252014011494186e-01  9.0251036567650467e-01  9.0247677397724702e-01  9.0239864610984699e-01  9.0226832916786404e-01  9.5056337186088924e-01  9.5085141603393109e-01  9.3965974192062007e-01  9.3961167244319954e-01  9.5076862044609800e-01  9.3954125383834008e-01  9.5065732374599166e-01  9.3950262352589642e-01  9.5059872864741091e-01  9.5047107354751681e-01  9.3952533883931910e-01  9.5061976686675220e-01  9.5056599658062213e-01  9.3962583223612606e-01  9.5075047663924495e-01  9.5076457025546990e-01  9.3981472607090188e-01  9.5100627876511479e-01  9.5106913923917547e-01  9.3355230377009568e-01  9.2978778130953854e-01  9.2270533380363196e-01  9.2265559808568787e-01  9.2972731867744218e-01  9.3350912036705924e-01  9.2254681669763761e-01  9.2963191149027335e-01  9.3344708467476012e-01  9.2243802163803290e-01  9.2953606352222196e-01  9.3340441298051824e-01  9.2236534279257409e-01  9.2948061910986735e-01  9.3341566283858957e-01  9.2234442213204848e-01  9.2948299663435219e-01  9.3348915690286893e-01  9.2240557723384753e-01  9.2955639252466671e-01  9.3362645712706593e-01  9.4055175906038035e-01  9.4050018445020878e-01  9.4041917285059384e-01  9.4036512642610881e-01  9.4035436552512375e-01  9.4041440871680093e-01  9.4060125678723883e-01  8.9980183926188972e-01  8.9970305018014707e-01  8.8914571896226491e-01  8.9971707376038024e-01  8.9981799394520612e-01  8.8913626032600945e-01  8.9974465475723875e-01  8.9985510989898687e-01  8.8909962768829409e-01  8.9974731984728307e-01  8.9987101672421932e-01  8.8902701039831700e-01  8.9969051753527129e-01  8.9982945041475981e-01  8.8891190787633068e-01  8.9953839416973647e-01  8.9969209957768137e-01  8.8874954163003683e-01  8.9925195698140492e-01  8.9943461063644037e-01  9.5153034196527742e-01  9.5146671818435558e-01  9.5141373521833883e-01  9.5143026519295593e-01  9.5154909798605869e-01  9.5178733475518640e-01  9.5220468010891723e-01  9.1094321319546023e-01  9.1093517416196113e-01  9.1087876743341345e-01  9.1080913681524700e-01  9.1075482549501730e-01  9.1072096282911930e-01  9.1070680369667678e-01  9.5053274018190737e-01  9.5050127571523990e-01  9.5047568200716859e-01  9.5051515612063397e-01  9.5064560163863687e-01  9.5089203134610900e-01  9.5130228363416092e-01  9.8041855572014935e-01  9.8037895442713874e-01  9.8035451453011757e-01  9.8040474973296077e-01  9.8056902874993934e-01  9.8088811822017652e-01  9.8142391204467072e-01  9.8072661221943191e-01  9.7113362176350948e-01  9.7100865955239379e-01  9.8058181092513330e-01  9.7087175320754537e-01  9.8040897600021548e-01  9.7082463168134114e-01  9.8030934284148397e-01  9.7093696438548882e-01  9.8035201003939654e-01  9.7126963793549825e-01  9.8062851816175700e-01  9.7195625546342390e-01  9.8126156963830691e-01  9.8122989614370137e-01  9.8229408603031998e-01  9.8226240755054284e-01  9.8116328297320221e-01  9.8223233051949399e-01  9.8108202076325779e-01  9.8226599381502966e-01  9.8106916024098056e-01  9.8241774358697265e-01  9.8118151413345611e-01  9.8272663536921245e-01  9.8145960055892012e-01  9.8322113976920189e-01  9.8194114612059546e-01  9.0804395432199936e-01  9.0800683329487086e-01  9.0791491965438420e-01  9.0781662643549510e-01  9.0774131267538194e-01  9.0769843194805744e-01  9.0769565028631793e-01  9.9037706108144441e-01  9.9068269823549193e-01  9.9062923903323286e-01  9.9032175755867113e-01  9.9058354413938998e-01  9.9024962378170234e-01  9.9059199254476427e-01  9.9024402078792162e-01  9.9070515454085151e-01  9.9034153773227884e-01  9.9101810797444811e-01  9.9062962283103506e-01  9.9163154824699218e-01  9.9123409026580023e-01  9.8101337070662575e-01  9.8094845107787521e-01  9.8090047365114375e-01  9.8093599039619939e-01  9.8108561819895990e-01  9.8137719614464947e-01  9.8185705753383146e-01  8.8747187335931077e-01  8.8740818116327236e-01  8.8728782339812917e-01  8.8716534376923573e-01  8.8705494475699198e-01  8.8697315528909682e-01  8.8695458445448261e-01  9.6039610412676957e-01  9.6030789241137848e-01  9.6022719386610034e-01  9.6022763431234615e-01  9.6035075459190788e-01  9.6063966177718119e-01  9.6118262288613976e-01  9.2044712706247744e-01  9.1020631060439294e-01  9.1214023554752244e-01  9.1224924612538172e-01  9.1027443346094072e-01  9.2049477041271488e-01  9.1251713826738845e-01  9.1044845723274659e-01  9.2062017886477687e-01  9.1282472874048359e-01  9.1064005910917567e-01  9.2077820558533374e-01  9.1308283081890484e-01  9.1078393196032270e-01  9.2092145627300759e-01  9.1318988182141747e-01  9.1080232663633276e-01  9.2098098751558743e-01  9.1298351811759215e-01  9.1058888663730553e-01  9.2084633919870662e-01  9.5056533317009240e-01  9.4137560271873288e-01  9.4130093597284548e-01  9.5053602259898651e-01  9.4117162335654425e-01  9.5053329704586531e-01  9.4105907100826780e-01  9.5058368579217500e-01  9.4099828004203245e-01  9.5070237459356666e-01  9.4103073410850224e-01  9.5090035862723310e-01  9.4121116153925000e-01  9.5116060970240157e-01  9.1091242210750267e-01  9.0971281528953574e-01  9.0973681585518451e-01  9.1093749424434645e-01  9.0977306560616111e-01  9.1100964197729806e-01  9.0979751644735696e-01  9.1107778141715168e-01  9.0977439933976956e-01  9.1109684918552403e-01  9.0966399429531131e-01  9.1101192116203678e-01  9.0942794499424073e-01  9.1074887881815669e-01  9.1264017283469934e-01  9.1200208277394279e-01  9.0193967735047731e-01  9.1204482446318935e-01  9.0193467334110189e-01  9.1257745563738024e-01  9.1193628327222676e-01  9.0186686763535440e-01  9.1236156265882795e-01  9.1166567230742490e-01  9.0168726249390529e-01  9.1183192617430420e-01  9.0131338219456891e-01  9.1219396784128026e-01  9.1141924210173464e-01  9.2927177100251590e-01  9.3939945066197739e-01  9.2922964705130306e-01  9.3931972809158681e-01  9.2915800632483447e-01  9.3921465674143123e-01  9.2910836568746535e-01  9.3915215599897051e-01  9.2910792070097026e-01  9.3915684682619427e-01  9.2917576541730629e-01  9.3924954324086485e-01  9.2933186774453058e-01  9.3945052534511131e-01  9.6125315362251540e-01  9.6137231180211791e-01  9.6124001174295692e-01  9.6115037312615659e-01  9.6109122402086056e-01  9.6102131398021950e-01  9.6102469730549511e-01  9.6097476853292252e-01  9.6110002702523067e-01  9.6106740853259476e-01  9.6136884989195115e-01  9.6137274225688474e-01  9.6194316955468895e-01  9.6201846020443671e-01  9.9046849040337637e-01  9.9067758646535298e-01  9.9058365576125740e-01  9.9034766886356085e-01  9.9049421066488064e-01  9.9023038253498230e-01  9.9048624810284669e-01  9.9017507361960677e-01  9.9058941642470155e-01  9.9023742267805392e-01  9.9085817815380839e-01  9.9047419097193690e-01  9.9143770646163043e-01  9.9099599861233012e-01  9.6170754739625264e-01  9.6166390779140820e-01  9.6162468323618666e-01  9.6163441860787913e-01  9.6173697280726833e-01  9.6195462260438591e-01  9.6230512915232891e-01  9.0045620515435432e-01  9.0192176631541265e-01  8.8971999252308964e-01  9.0194962153009084e-01  9.0056436970845888e-01  8.8968401481055925e-01  9.0201377065262434e-01  9.0079950022371036e-01  8.8961049073537124e-01  9.0207126895552681e-01  9.0104449327528480e-01  8.8951208975765705e-01  9.0206640769942581e-01  9.0122441236253081e-01  8.8938572874639610e-01  9.0195426302091297e-01  9.0126832591896888e-01  8.8923077604357981e-01  9.0172620350087229e-01  9.0111046461747024e-01  8.8906023745603480e-01  9.2026781403481972e-01  9.2158670592294922e-01  9.2164172874384798e-01  9.2030119311355951e-01  9.2177030992571696e-01  9.2038272270808541e-01  9.2192095134057506e-01  9.2048016129953603e-01  9.2206026807151498e-01  9.2055449293671132e-01  9.2214337965601345e-01  9.2055397382540916e-01  9.2206097366880180e-01  9.2040734272135305e-01  9.4037662967384794e-01  9.4033044754877881e-01  9.4027007211324365e-01  9.4022762671449434e-01  9.4024637867508976e-01  9.4033692900370591e-01  9.4050190499064790e-01  9.2237179652674928e-01  9.2236999679846021e-01  9.2238933551273172e-01  9.2241356256368123e-01  9.2242513078079691e-01  9.2239739589830183e-01  9.2230610780187139e-01  9.1071679332125810e-01  9.1079043021385520e-01  9.1096473568346492e-01  9.1116941222634895e-01  9.1133147560697336e-01  9.1137297073668400e-01  9.1117752487741455e-01  8.9132011407902867e-01  8.9128090135020954e-01  8.9117493880993026e-01  8.9103284806486904e-01  8.9085933235245984e-01  8.9066295502997783e-01  8.9046689359812503e-01  9.3068026241817992e-01  9.3069316602875385e-01  9.3074689349492667e-01  9.3083448365156340e-01  9.3093684097345752e-01  9.3102026615590916e-01  9.3103500713581400e-01  9.9120976318708598e-01  9.9110316506881346e-01  9.9105489337450992e-01  9.9117973589727748e-01  9.9104614078613273e-01  9.9116441705894509e-01  9.9109733043855641e-01  9.9120335518259095e-01  9.9124208030389960e-01  9.9134543402190445e-01  9.9152973968238201e-01  9.9162908376643710e-01  9.9203519815750496e-01  9.9214314553703298e-01  9.4102755069405630e-01  9.4100373637118240e-01  9.4097755213220158e-01  9.4098908241754509e-01  9.4104397156612363e-01  9.4115750138404286e-01  9.4135670956649498e-01  9.5179571869440527e-01  9.5076332199630686e-01  9.5072648950960925e-01  9.5175470643139448e-01  9.5071628554518006e-01  9.5172127357862613e-01  9.5076624386184838e-01  9.5175064060067038e-01  9.5088972917128289e-01  9.5186140619597270e-01  9.5110484482430868e-01  9.5208491484872060e-01  9.5141457695474652e-01  9.5245007285284755e-01  9.7134343334737017e-01  9.6053115814058865e-01  9.7165867854347354e-01  9.6075470825366682e-01  9.7210400567264255e-01  9.6110168298937360e-01  9.4177663390955424e-01  9.4175708880138775e-01  9.4173954943523819e-01  9.4177262673551410e-01  9.4186932942375978e-01  9.4203807252116312e-01  9.4230276689038350e-01  9.2877424540822762e-01  9.1811121998156175e-01  9.1808860975720974e-01  9.2873881710923556e-01  9.1804565371487989e-01  9.2869824582713945e-01  9.1801596631565840e-01  9.2868196598939901e-01  9.1801780119872356e-01  9.2870771010139175e-01  9.1805713225890206e-01  9.2878120672157483e-01  9.1812681482577840e-01  9.2888993725936475e-01  9.9999999999978118e-01  9.9001187322612161e-01  9.9027015436424948e-01  9.9028059179110084e-01  9.9001264153184354e-01  9.9999999999978118e-01  9.9034031855211624e-01  9.9002990622909048e-01  9.9999999999978118e-01  9.9046302008165388e-01  9.9012966770522048e-01  9.9999999999978118e-01  9.9069378241119022e-01  9.9035365158093591e-01  9.9999999999978118e-01  9.9108850686376659e-01  9.9076320093044135e-01  9.9999999999978118e-01  9.9173670165457772e-01  9.9148858332902368e-01  9.9999999999978118e-01  9.8062535967757702e-01  9.8103739000656009e-01  9.8091160316233572e-01  9.8054509903848208e-01  9.8075474764593407e-01  9.8046466093613149e-01  9.8069018171196864e-01  9.8047376422222821e-01  9.8079396292978893e-01  9.8064414741199646e-01  9.8112829347257335e-01  9.8104344373239349e-01  9.8181007068211545e-01  9.8177654777128620e-01  9.4249556655486866e-01  9.3259993081461334e-01  9.3257758012302749e-01  9.4246521422824958e-01  9.3255477927319264e-01  9.4242707420969263e-01  9.3255046682558074e-01  9.4243741337781917e-01  9.3257024321231197e-01  9.4251756802847020e-01  9.3261404177172424e-01  9.4269074262378338e-01  9.3270507141739267e-01  9.4300999169868582e-01  9.2269424105033682e-01  9.1206162200987217e-01  9.2226843182335883e-01  9.2227001786582663e-01  9.2272386739999079e-01  9.2227439208397932e-01  9.2275612961258213e-01  9.2227888864379082e-01  9.2279206845829642e-01  9.2228038686779590e-01  9.2284353630410498e-01  9.2226879415132823e-01  9.2291604611550371e-01  9.2223077403715603e-01  9.2298767846357233e-01  9.7123563586288186e-01  9.7113619079682389e-01  9.7103895473287982e-01  9.7103294744779767e-01  9.7118778958066099e-01  9.7157675481075723e-01  9.7228631392185216e-01  9.3143798877180040e-01  9.3146812083292763e-01  9.3153693724547537e-01  9.3164066263387124e-01  9.3176766610968675e-01  9.3189685611661677e-01  9.3199148535941179e-01  9.5164133174893162e-01  9.5164064532402293e-01  9.5167810340336179e-01  9.5179358309893236e-01  9.5201946642253577e