<?xml version="1.0"?>
<VTKFile type="UnstructuredGrid"  version="0.1"  >
<UnstructuredGrid>
<Piece  NumberOfPoints="997" NumberOfCells="4363">
<Points>
<DataArray  type="Float64"  NumberOfComponents="3"  format="ascii">6.85927697485309 1.705631814807317 3.415777548643188  6.755979634133197 1.720516645470522 3.472960851723151  6.774640884423053 1.643437565701409 3.325026362984295  6.783237683439181 1.58851841230229 3.354206937947657  6.764982585255471 1.664476040624427 3.50412782346661  6.86838480599726 1.64973649251708 3.446396731212062  6.791875312796977 1.533598810987243 3.383342243258619  6.774017176661497 1.608432742029222 3.535253743442545  6.877530167307456 1.59384078344394 3.476968020960036  6.800539659777367 1.478684862846354 3.412441623388902  6.783072786523706 1.552390512893722 3.566345828666686  6.886697185428003 1.537949008593301 3.507501560500287  6.809217470306116 1.423777819257498 3.441515301256769  6.792136486827943 1.496350121491264 3.597409654397752  6.895872814956575 1.4820635461706 3.538006724692418  6.81789826041013 1.368876496622784 3.470571445183738  6.801196811743074 1.440309907097983 3.628447865236347  6.905045419139202 1.426182932729065 3.568491199194649  6.826580558984052 1.313975444399499 3.499613122680349  6.810251312120212 1.384272544157899 3.659457784145582  6.91419985259742 1.370300356637983 3.598959099891629  6.922849954344042 1.515369999233821 3.037944157662339  6.822895803690695 1.521314061370262 3.080370089301905  6.864060687842186 1.456588252250405 2.953375343635163  6.873766394529201 1.403476554501645 2.983646325744158  6.831980885317869 1.468117764281875 3.109624240646931  6.931928917858954 1.461728608925128 3.067336497354194  6.883537083679422 1.350364282090402 3.013841386199951  6.841124178219464 1.414919677169152 3.138817527842669  6.94106850115194 1.408086928881741 3.096657096976019  6.893341268838345 1.29726248451328 3.043985510933136  6.85030092551171 1.361728857563416 3.167966021716765  6.950238599594964 1.354455157763663 3.12592499215103  6.903150401668 1.244178273289527 3.074106434849339  6.859489818619156 1.308551611097121 3.197091251289118  6.95941373320454 1.300841774443105 3.155165967057411  6.912940200501258 1.191119732643149 3.104237730946874  6.868674185107411 1.255393787685109 3.226219092664391  6.968571964934531 1.247251948085013 3.184412231413023  6.922708329695618 1.138097665317629 3.134431081901669  6.877854759062106 1.202258306019394 3.255382280317952  6.977697785003233 1.193681395844586 3.213710276449535  6.638836764279573 1.430948544126064 3.227969002955318  6.719519857008538 1.40132512648945 3.148860505514656  6.620830415758601 1.355668733152867 3.097966725104373  6.7103360118106 1.453827981312601 3.119695430846401  6.630010937794522 1.483636263139645 3.199177300612288  6.630073922015664 1.304001458642186 3.127711317491729  6.647697591127049 1.378263794187946 3.256730979464025  6.728741111833766 1.348825706088097 3.177990183482887  6.639331593589816 1.252341215190803 3.157440173606721  6.656574377646432 1.325584787393846 3.285473827757358  6.737977852318735 1.29633497817846 3.207100731085631  6.64857748400157 1.2006919942942 3.187172109013833  6.665449757064536 1.272911952072019 3.314209032868822  6.747210431991824 1.24385606509869 3.236211524563613  6.727594931546933 1.448049960560157 2.98053628313602  6.737004785304364 1.395826523043678 3.010715457371623  6.746475861921311 1.343596855284548 3.040827810171403  6.755985294552258 1.291372219336766 3.070899761007609  6.765507195829916 1.239158513924025 3.100954148590876  6.77502022648271 1.186962858642313 3.131017423988956  6.784520184855094 1.134805047654034 3.161129872947346  6.674223758415772 1.618392130984562 3.442652575324438  6.683183266128516 1.563057761623374 3.472365512081603  6.692169786331167 1.507724576420681 3.502048076407704  6.701168486022461 1.452392452621891 3.531704680712071  6.710165718262607 1.397059473983185 3.561337052245103  6.719144293692368 1.341723477824013 3.590940910746591  6.886749078296035 1.663021663201669 3.329200554728421  6.895584076052031 1.607544486037228 3.358700661611862  6.904460645640236 1.552071238140072 3.388146490047558  6.913360774399202 1.496604525271633 3.417552170281807  6.922271089258007 1.441146980696464 3.446930483767245  6.93117988359416 1.385700772113063 3.476292065505162  6.940071539373325 1.33025648363633 3.505644879655778  6.868039236042506 1.627144839378125 3.265893058908872  6.847231939289813 1.590237195757325 3.201127191731985  6.855913518894471 1.535961393492363 3.229768457080073  6.876595978864493 1.572088466762598 3.294525287951062  6.885194954930828 1.517037928986003 3.323103403699514  6.864645819584317 1.481689692716815 3.258353355191062  6.893820895353565 1.461994373515586 3.351640859251731  6.87340844687986 1.427424456995676 3.286897026674644  6.902458237430343 1.406961692932287 3.380152405027143  6.882184287299599 1.373170706708437 3.315415729623656  6.911093915434036 1.351941584040024 3.408652226119213  6.890959226092989 1.318930243570833 3.343928158708307  6.919719424080197 1.29692493120866 3.437147090196892  6.899723333790509 1.264698406905587 3.372448662464945  7.481052668558082 1.451413701452307 2.771318773206332  7.449450234649408 1.491754576228627 2.854045688990558  7.36020971150046 1.451736254070421 2.798035228461266  7.36655238404501 1.39785536073763 2.82491697541411  7.455221263110364 1.439150106184755 2.881682776366556  7.486839447795153 1.39773642661681 2.79742941477459  7.372862525872685 1.344009456155578 2.851705031909871  7.460940802539751 1.386558412220229 2.909215816131561  7.492559624334355 1.344091150060932 2.823452697921497  7.379146617162816 1.29020037381613 2.878437808393822  7.466625097826268 1.333991484183915 2.936693584101099  7.498235279138591 1.290481465702768 2.849425605314932  7.385398683532515 1.236431674989582 2.905137467825203  7.472284503166398 1.28145702257994 2.964137370885825  7.503883071882496 1.236915244318108 2.875365245240967  7.391607214118448 1.182722692856097 2.931820098655434  7.477926979413297 1.22897086533518 2.991564712465527  7.509515559090707 1.183417705943985 2.901281905741916  7.397772808104497 1.129119379505412 2.958505160906264  7.483551295770869 1.176578382402689 3.019012412806094  7.515141402192381 1.130038204017402 2.927200005795664  6.721300336063759 1.566678932221558 3.195854850799979  6.730095842107499 1.513165189315112 3.224506079266309  6.738947565162009 1.45965659217752 3.25311071716499  6.747833637244753 1.406153266395909 3.281680608385787  6.756735454822074 1.352658315517474 3.310228700380542  6.765636390928421 1.299173100018106 3.338768611926724  6.774526217304349 1.245695003331909 3.367308409286257  7.409059181836195 1.402971416944892 2.680025371630008  7.415356877071835 1.347086718194794 2.703486212564621  7.421596986836077 1.291265405301318 2.726882377760236  7.427795637644608 1.235491307506312 2.75023408634859  7.433955458654794 1.179766064612622 2.773558221738806  7.440073424757399 1.124111795475994 2.796865943349458  7.446159758324376 1.068565073185318 2.820162045913725  6.701215934827885 1.506326944381693 3.09048242728125  6.75642111007504 1.191391625557787 3.265346419050365  7.464330603493565 1.785464346783971 3.385845072962563  7.362240339257648 1.794416855658056 3.428854482778681  7.406003365543847 1.729280910068973 3.306496600630532  7.414065618846602 1.675396735038247 3.337092602591421  7.37106182848206 1.739464873113291 3.461785523724749  7.473086965112691 1.731585941514888 3.417804508024191  7.379890604035181 1.684501055792345 3.494663056475758  7.481850642618825 1.677699983233033 3.449714169594537  7.422125112604469 1.621506200287026 3.367626651959021  7.490607682061386 1.623815419240662 3.481586831797081  7.388715748135414 1.62953960532171 3.527500934357488  7.430176044156081 1.567619562154075 3.398119835562937  7.499343854931996 1.569933811845084 3.51343065391125  7.397524637955914 1.574579959936635 3.560309783592813  7.438207632821333 1.513740433072874 3.428584025951959  7.508044661815166 1.516049566728262 3.545251608166274  7.406302370750592 1.519618720729517 3.593095396687962  7.446206763470923 1.459868118732385 3.459028217324662  7.516690005884177 1.46215256038869 3.577054862587136  7.41503301311094 1.46464922449934 3.625862111066185  7.45416070321171 1.405996381704936 3.48945987569124  6.660811738380776 1.550839989418094 3.316588745583079  6.669527855720207 1.496909741583619 3.345430334745784  6.678275619043247 1.442982163329146 3.374242148335056  6.687039218007519 1.38905819246878 3.403031119968631  6.695804098882471 1.335135485183044 3.431802891427109  6.704552229817407 1.281208770051222 3.460559451326404  7.381443283523693 1.516368753421078 2.915819910566096  7.387558549489016 1.463542892701733 2.943604586310512  7.393643762157831 1.410723775406217 2.971288663561347  7.399703124449221 1.357927032721926 2.998912757684453  7.405739519487517 1.305161146017629 3.026502314544261  7.411751753555704 1.252442882502207 3.054079611788609  7.417733466097387 1.199805394191537 3.081684170328751  7.28403969384003 1.742828722388946 3.361579688434735  7.292599391869124 1.688000600700711 3.393071532322236  7.301167012671425 1.633166681595026 3.424500173521867  7.309733522437719 1.57833429373415 3.455887784213805  7.31828778227941 1.523505834403299 3.48724705360761  7.326816638643834 1.468676139512049 3.518587649578765  7.33530382412312 1.41384075601661 3.549917451881448  7.275283896794437 1.488788866779423 2.887343537191877  7.282204794134429 1.435544605050877 2.915545716888192  7.289132166500407 1.382326099531225 2.943641611299909  7.296051230543476 1.329127683855762 2.971677572745826  7.302945977399649 1.275958722169596 2.999680398425182  7.309793955451154 1.22283515360657 3.027675903391261  7.316562968102311 1.169803938391131 3.05569137140249  6.621241254051949 1.536320208894643 3.170347868008209  7.742082267964967 1.917215448008957 3.518468773769284  7.636034779419287 1.931083200563851 3.56654747501805  7.665953029902002 1.852861716919157 3.442728222964846  
[...]
<PointData  Scalars="f_14"> 
<DataArray  type="Float64"  Name="f_14"  format="ascii">4.5891858792159984e-01  4.6689338475863085e-01  4.6574917336271049e-01  4.6574635386862484e-01  4.6689269416075624e-01  4.5891229485750379e-01  4.6573653732325021e-01  4.6689052388057256e-01  4.5889616951194839e-01  4.6571408707047796e-01  4.6687858490231499e-01  4.5886926698967917e-01  4.6567304364293149e-01  4.6685279137507868e-01  4.5882941375097996e-01  4.6560483091368915e-01  4.6680785497570043e-01  4.5877374330762793e-01  4.6549549214935315e-01  4.6672896224642574e-01  4.5870257904451500e-01  4.5462985396773481e-01  4.6242161871536247e-01  4.5949451152061815e-01  4.5947548521551362e-01  4.6241068831787646e-01  4.5462500471599521e-01  4.5942578542492818e-01  4.6237805821803041e-01  4.5460377265540530e-01  4.5935569913380075e-01  4.6232658150939177e-01  4.5457182786444172e-01  4.5927145029000910e-01  4.6225618756391590e-01  4.5453204977183159e-01  4.5917598490612488e-01  4.6216329089652186e-01  4.5448525606537238e-01  4.5906844409257824e-01  4.6203723414968040e-01  4.5442946154740821e-01  4.7811925336675543e-01  4.7195695740837645e-01  4.7998033960546038e-01  4.7199949157246807e-01  4.7815249388395559e-01  4.7991453168680120e-01  4.7806713050448613e-01  4.7189128830217808e-01  4.7982953935510031e-01  4.7799592704976029e-01  4.7180422444737269e-01  4.7972961263907671e-01  4.7790514628961850e-01  4.7169556551949704e-01  4.7025753146793786e-01  4.7024095988945380e-01  4.7019595139138715e-01  4.7012553048808425e-01  4.7003274934810718e-01  4.6991815144246568e-01  4.6977941166855297e-01  4.7410497104993149e-01  4.7408306833919750e-01  4.7404733460952359e-01  4.7399606408222472e-01  4.7392636809053429e-01  4.7383564109105741e-01  4.5694354297898993e-01  4.5693717159203973e-01  4.5692122221266229e-01  4.5689504494174715e-01  4.5685558375910346e-01  4.5679888725076884e-01  4.5672316831107407e-01  4.5852947277607409e-01  4.6026875377793069e-01  4.6026577700875482e-01  4.5853050869848450e-01  4.5852562333558139e-01  4.6024890186980200e-01  4.5850942314430460e-01  4.6021815809524541e-01  4.5847779984918802e-01  4.6017020677546527e-01  4.5842480384129503e-01  4.6009912394229918e-01  4.5834044603875185e-01  4.5999670500531131e-01  4.1064087375110697e-01  4.1310168308871276e-01  4.2046590188464089e-01  4.2049403614908359e-01  4.1312609265654737e-01  4.1066262539194287e-01  4.2057466895979251e-01  4.1319184511606200e-01  4.1072436652896910e-01  4.2069608598377095e-01  4.1329397393735828e-01  4.1082116370005756e-01  4.2085265564256485e-01  4.1342570495863706e-01  4.1094685855009494e-01  4.2103955901119133e-01  4.1358103888393905e-01  4.1109673455188100e-01  4.2124091954768950e-01  4.1376106389621048e-01  4.1126888303399028e-01  4.7018676258377634e-01  4.7017747869012971e-01  4.7014823508825981e-01  4.7009961921688520e-01  4.7003021788173893e-01  4.6993655144340635e-01  4.6980935545698588e-01  4.1663614535203725e-01  4.1666711143844470e-01  4.1675574270903198e-01  4.1688649707670150e-01  4.1705322961365099e-01  4.1724995157239619e-01  4.1746101879301845e-01  4.7201302913576504e-01  4.7156642010344579e-01  4.1089497022143900e-01  4.1917422553052541e-01  4.1580195713011492e-01  4.1581788795937408e-01  4.1919170735858718e-01  4.1090849779996136e-01  4.1923934149139275e-01  4.1095051546865408e-01  4.1586696490509051e-01  4.1102549860778209e-01  4.1931682997228614e-01  4.1594795980557175e-01  4.1113753611898946e-01  4.1942494388434487e-01  4.1606202868071718e-01  4.1129250888229762e-01  4.1956544209673663e-01  4.1621215493908753e-01  4.1150239766708491e-01  4.1973976483586106e-01  4.1640323975504034e-01  4.7542857206769024e-01  4.7540355052287991e-01  4.7536184912534535e-01  4.7530151446347557e-01  4.7521924733760545e-01  4.7511081899055269e-01  4.1853960786498584e-01  4.1856439515227839e-01  4.1863274682086582e-01  4.1873846013047183e-01  4.1887499840350129e-01  4.1903691896377354e-01  4.1922155080542978e-01  4.2555255543828979e-01  4.2556120094448807e-01  4.2559190972010497e-01  4.2564540993740874e-01  4.2572323157404585e-01  4.2582806651065980e-01  4.2596478244189856e-01  4.2711485090997381e-01  4.2713588570538813e-01  4.2720008901819267e-01  4.2729899765488111e-01  4.2743104546984839e-01  4.2759529128324586e-01  4.2778113844469073e-01  4.7816466920305695e-01  3.8754338427725066e-01  3.9650528029672844e-01  3.9406870000508731e-01  3.9408884031052976e-01  3.9652806534310109e-01  3.8756525781589152e-01  3.9415315232005099e-01  3.9659620158195791e-01  3.8763715023175593e-01  3.9426422385053789e-01  3.9671462623896914e-01  3.8776175207890123e-01  3.9442648359556620e-01  3.9688634367065417e-01  3.8794555785471752e-01  3.9464469965292187e-01  3.9711489323567550e-01  3.8819717297357725e-01  3.9491800493123985e-01  3.9740784549393821e-01  3.8853035966704502e-01  3.6977475014373862e-01  3.7405885970578345e-01  3.7900510834463119e-01  3.7903448763672953e-01  3.7405915611086304e-01  3.6978078274365711e-01  3.7910826508016215e-01  3.7406681340989900e-01  3.6981039995704118e-01  3.7923899475414741e-01  3.7412025667001964e-01  3.6988509210242027e-01  3.7943767524396577e-01  3.7424684651554546e-01  3.7002274241219862e-01  3.7971702017157521e-01  3.7024406697661388e-01  3.8694928477034352e-01  3.8698738561073348e-01  3.8710559805114286e-01  3.8729071832651907e-01  3.8754321035333694e-01  3.8786390610149885e-01  3.8105157804462986e-01  3.8696079752623724e-01  3.8697741636586735e-01  3.8106273591467760e-01  3.8702906145185961e-01  3.8110342844426570e-01  3.8712373992776056e-01  3.8118944665657750e-01  3.8727068831611411e-01  3.8133389741504514e-01  3.8748157338741873e-01  3.8155153090041538e-01  3.8777279060654773e-01  3.8185958166516254e-01  4.0313867103376988e-01  4.0315739918689630e-01  4.0321268068301397e-01  4.0330960239649466e-01  4.0345026857955735e-01  4.0363389430209207e-01  4.0385258588061090e-01  4.2700177794842675e-01  4.2701111668341735e-01  4.2703941416755897e-01  4.2708834204398216e-01  4.2715740348661441e-01  4.2724692093015842e-01  4.2736252396548341e-01  4.0441452846689863e-01  4.0443942460340521e-01  4.0450942685888175e-01  4.0462561196198293e-01  4.0478728295423494e-01  4.0499192151529850e-01  4.0523328698801603e-01  3.7329404844370345e-01  3.7104376291413527e-01  3.8209976841940191e-01  3.8211499170183871e-01  3.7105513533145468e-01  3.7330135400771525e-01  3.8216083503309761e-01  3.7109293125738985e-01  3.7332823577244872e-01  3.8224680928130289e-01  3.7116869782234874e-01  3.7338827764891486e-01  3.8238256616118027e-01  3.7129265764225855e-01  3.7349252534081800e-01  3.8257974076168649e-01  3.7147601589676049e-01  3.7556338424960067e-01  3.7557519909054993e-01  3.7561952013124400e-01  3.7570624063618346e-01  3.7584634103294795e-01  3.7605177301439224e-01  3.7633672565871223e-01  3.8285302152914197e-01  3.7173304913678162e-01  4.3435470121266528e-01  4.3436147240494705e-01  4.3438217757801395e-01  4.3441542024356422e-01  4.3445948574606369e-01  4.3451231834421383e-01  4.3457193973826380e-01  3.8318524576114338e-01  3.8319809104742270e-01  3.8324052526932256e-01  3.8331889393879398e-01  3.8344207985862266e-01  3.8362148080758335e-01  4.1166556393594178e-01  4.1168805425869803e-01  4.1175542152162892e-01  4.1186267519714098e-01  4.1200762876592883e-01  4.1218927981185988e-01  4.1241067475950871e-01  4.2601231709324433e-01  4.2601458783733520e-01  4.2602750957279928e-01  4.2606691752885101e-01  4.2614722348034850e-01  4.2628664857325482e-01  4.2650955541875996e-01  3.6218972478307931e-01  3.7182786159730297e-01  3.6599436206710051e-01  3.6220762933864792e-01  3.7183645452028363e-01  3.6600847562465000e-01  3.6226168655997765e-01  3.7187086958240412e-01  3.6605031012308015e-01  3.6236114712505146e-01  3.7194931793349750e-01  3.6613401291012015e-01  3.6251601538547890e-01  3.7208626860015187e-01  3.6627075189338443e-01  3.6273744224051696e-01  3.7229844900422204e-01  3.6647366119096786e-01  3.6303753122102311e-01  3.7261365471506552e-01  3.6675465479283531e-01  3.7395347657730971e-01  3.8510677515508490e-01  3.8119613647194617e-01  3.8513940842594058e-01  3.7399086480670013e-01  3.8123097859606087e-01  3.8523167216827231e-01  3.7409852020196044e-01  3.8132434873572368e-01  3.8536236931118406e-01  3.7424718120494316e-01  3.8145539670260187e-01  3.8551384661600535e-01  4.4226467167755734e-01  4.5075450364553782e-01  4.4295166117110868e-01  4.4295664221368736e-01  4.5075237039656452e-01  4.4227157442679205e-01  4.4297385661599947e-01  4.5074990327448006e-01  4.4229085081742264e-01  4.4299926799724448e-01  4.5074371693010840e-01  4.4231724331547306e-01  4.4302932191483479e-01  4.5073019808412368e-01  4.4234637041510477e-01  4.4305978180347971e-01  4.5070485650950604e-01  4.4237278233913013e-01  4.4308411469670933e-01  4.5066389225725584e-01  4.4238577932070627e-01  4.3558154581476377e-01  4.4269854281769050e-01  4.3473330943495730e-01  4.3474077334773809e-01  4.4269205621051061e-01  4.3558906969641231e-01  4.3476304846810326e-01  4.4267598973879441e-01  4.3560692404065282e-01  4.3479576432347711e-01  4.4265807044549577e-01  4.3563231888215437e-01  4.3483588369837517e-01  4.4263896563064536e-01  4.3566192688621452e-01  4.3487824010125392e-01  4.4261610909773863e-01  4.3568957003736358e-01  4.3491358484996329e-01  4.4258539300633204e-01  4.3570213405891522e-01  4.2768902229836725e-01  4.2770511402813227e-01  4.2775149586260613e-01  4.2781986304599190e-01  4.2790489749906768e-01  4.2800133024291426e-01  4.2809963133152590e-01  4.1961250011933382e-01  4.1963237049139274e-01  4.1968847622145483e-01  4.1977635121854445e-01  4.1989340038828388e-01  4.2003756979546064e-01  4.2020340243749632e-01  4.5047338037420770e-01  4.5046982235846800e-01  4.5046136421271959e-01  4.5044800702825893e-01  4.5042775171557420e-01  4.5039870551342520e-01  4.5036249232082382e-01  3.9265813328251831e-01  3.8582243583573733e-01  3.8582857634292667e-01  3.9266730964144370e-01  3.8585110048306748e-01  3.9270101516381456e-01  3.8590198876422294e-01  3.9276671137790337e-01  3.8598958732921262e-01  3.9287152196188474e-01  3.8612488323542660e-01  3.9302247626614234e-01  3.8633163284130767e-01  3.9322824668621520e-01  3.8386967776985093e-01  4.1144575067174205e-01  4.1146381512542374e-01  4.1151755160601960e-01  4.1160714431049150e-01  4.1173426634946514e-01  4.1190218493332748e-01  4.1211888002944802e-01  4.0196977527940009e-01  4.1123574315894257e-01  4.0511050166012386e-01  4.0513684498850661e-01  4.1126192803423073e-01  4.0198747951143471e-01  4.0521462267023056e-01  4.1133701977011999e-01  4.0203406782367945e-01  4.0533034966001114e-01  4.1145004523981271e-01  4.0211356494580486e-01  4.0547418229375248e-01  4.1159357364586130e-01  4.0222574978890385e-01  4.0563616908387345e-01  4.1176199709068473e-01  4.0236964786501855e-01  4.0580276270583826e-01  4.1194949605102649e-01  4.0254323881919896e-01  3.9077053815840668e-01  3.9992389525318234e-01  3.9993256108843617e-01  3.9078618275162241e-01  3.9996181140961817e-01  3.9083466694747770e-01  4.0002307213514660e-01  3.9092125412705842e-01  4.0012255092601673e-01  3.9105369999311457e-01  4.0026555229221628e-01  3.9124117419870919e-01  4.0045621254997460e-01  3.9149407850003043e-01  4.2032093895568307e-01  4.2948002304238331e-01  4.2330570111839355e-01  4.2332903695323826e-01  4.2949801422655182e-01  4.2034131354289628e-01  4.2339805852094026e-01  4.2955275803530302e-01  4.2040401150880341e-01  4.2350301166920939e-01  4.2963686392149109e-01  4.2050041923033016e-01  4.2363711890922939e-01  4.2974645832725067e-01  4.2062556379570171e-01  4.2379284119960031e-01  4.2987808263653871e-01  4.2077529636176425e-01  4.2395484510835146e-01  4.3002516829965465e-01  4.2094420413666978e-01  4.0858716173674564e-01  4.1786463579501576e-01  4.1788663412650401e-01  4.0860851339909249e-01  4.1794641592925769e-01  4.0867384664310974e-01  4.1803946396517488e-01  4.0877503813062743e-01  4.1816259218173796e-01  4.0891018498271126e-01  4.1831401072349711e-01  4.0907793403414267e-01  4.1849589197577547e-01  4.0927570635969390e-01  4.0362815291872084e-01  4.0588614157577529e-01  4.0589636602461748e-01  4.0364174246809359e-01  4.0593041083370224e-01  4.0368966246529747e-01  4.0599753057861521e-01  4.0377523803135851e-01  4.0610276145394325e-01  4.0390162717167943e-01  4.0625114217227043e-01  4.0407030235721958e-01  4.0645009531686832e-01  4.0428017704372188e-01  3.9683028876500087e-01  3.9684380962162324e-01  3.9688782406631440e-01  3.9696992296971068e-01  3.9709617300125244e-01  3.9727196267175785e-01  3.9750181200637025e-01  4.2759496857047419e-01  4.3598417838269565e-01  4.3599587557698694e-01  4.2760668391949275e-01  4.3603139678058389e-01  4.2763922608186355e-01  4.3608623901500854e-01  4.2769624572400045e-01  4.3615896967310575e-01  4.2777775474090690e-01  4.3625027374548531e-01  4.2788534048151505e-01  4.3636297249717770e-01  4.2802703859745816e-01  4.4357305946335390e-01  4.4357185304897884e-01  4.4356861249307250e-01  4.4356487434086150e-01  4.4355934999785385e-01  4.4354907076228395e-01  4.4352572999418749e-01  4.5432056006680627e-01  4.5431986170096417e-01  4.5431487719799718e-01  4.5430244739353076e-01  4.5428015166777741e-01  4.5424323327502286e-01  4.5418169265602870e-01  3.9557102467920024e-01  4.0066358622780451e-01  4.0069395535026681e-01  3.9558859793052281e-01  4.0077924753427946e-01  3.9564371179952185e-01  4.0090230841805785e-01  3.9573077748560292e-01  4.0104989718326489e-01  3.9584871037772251e-01  4.0120726594917860e-01  3.9599588644862554e-01  4.0135344193746647e-01  3.9616302621453237e-01  4.0645194487922198e-01  4.0647547673488627e-01  4.0654137539257396e-01  4.0664355021687937e-01  4.0677268090734980e-01  4.0692023883961043e-01  4.0708430860125916e-01  4.3223338162629887e-01  4.3224519674972289e-01  4.3228736664002954e-01  4.3235709223160562e-01  4.3245515916476912e-01  4.3258409302451523e-01  4.3274682788834634e-01  4.1220284369326826e-01  4.2187671926033088e-01  4.1228901703021015e-01  4.2196796880340537e-01  4.1240903986013910e-01  4.2209870347403800e-01  4.1256309525917817e-01  4.2560919577756862e-01  4.2561893405702828e-01  4.2565103695319667e-01  4.2570703838921931e-01  4.2578830406941831e-01  4.2589806437524236e-01  4.2604252208341803e-01  4.1427382390852591e-01  4.1429354132526913e-01  4.1435073324030552e-01  4.1444307629392457e-01  4.1456488636653882e-01  4.1471242075780951e-01  4.1489109593109341e-01  4.3428236613760046e-01  4.3429330329105431e-01  4.3432556435603559e-01  4.3437530015057513e-01  4.3444119590733615e-01  4.3452321580984204e-01  4.3462236653794756e-01  4.0080691894653703e-01  4.0483089694281466e-01  4.0485394805606467e-01  4.0082981027624964e-01  4.0492370966929336e-01  4.0089452755847610e-01  4.0502864754567119e-01  4.0099485344669666e-01  4.0515818308140855e-01  4.0111634330901680e-01  4.0530128064594600e-01  4.0124518834776396e-01  4.0544454410899461e-01  4.0137899215298156e-01  4.5077269546422050e-01  4.5077047188169783e-01  4.5076220366452158e-01  4.5074883318334708e-01  4.5073207224823536e-01  4.5071462251034622e-01  4.5070235721833879e-01  3.7115842008756228e-01  3.8050229557179033e-01  3.8052342594321065e-01  3.7117753474495369e-01  3.8059036812308655e-01  3.7123858548027155e-01  3.8069298281057595e-01  3.7133430868266754e-01  3.8082609684869501e-01  3.9016093761780146e-01  3.9017214732400179e-01  3.9020971370848873e-01  3.9027855714269127e-01  3.9037474752120710e-01  3.9049542513345042e-01  3.9064735688095786e-01  4.7445084680240018e-01  4.7444089584998750e-01  4.7442110869582249e-01  4.7439149950438592e-01  4.7435209332480804e-01  4.7429807456361639e-01  3.9528310131554667e-01  3.9531470623578518e-01  3.9540657596065942e-01  3.9553638400966323e-01  3.9568647411730240e-01  3.9583781801543305e-01  3.9596609578111852e-01  4.0913571941144794e-01  4.0916138517837231e-01  4.0923511754372316e-01  4.0934610294607376e-01  4.0948447940812277e-01  4.0964072339530072e-01  4.0980507341770278e-01  3.7636681788828508e-01  3.7637946788620602e-01  3.7641620295708339e-01  3.7648472267101002e-01  3.7659191803842718e-01  3.7674576834274875e-01  3.8098515355145468e-01  3.7695901413039862e-01  3.8116519058420090e-01  4.1275322940821646e-01  4.1183246360147835e-01  4.2001108942308113e-01  4.2003239005153314e-01  4.1185321760286914e-01  4.2009890023713597e-01  4.1192173535362420e-01  4.2019949715658605e-01  4.1203318644601306e-01  4.2032789333944814e-01  4.1218434592598346e-01  4.2047929447059090e-01  4.1237429468951814e-01  4.2065330641912718e-01  4.1260655804274898e-01  3.6623832476304191e-01  3.6624809664825081e-01  3.6628048002259400e-01  4.4019605285698366e-01  4.4539022859573690e-01  4.5018745175702274e-01  4.4538088186764169e-01  4.4018666209493906e-01  4.5017198318574003e-01  4.4535931205406282e-01  4.4016995669487613e-01  4.5013408111824837e-01  4.4534137905920884e-01  4.4016553025924915e-01  4.5009740355564887e-01  4.4534516694764675e-01  4.4019720166799164e-01  4.5007554927091753e-01  4.4539392816482115e-01  4.4029499061268296e-01  4.5008414778703265e-01  4.4552414637553839e-01  4.4049862375259807e-01  4.5014961298156869e-01  4.5041763167909032e-01  4.5295562075541712e-01  4.5040906772355688e-01  4.5293590469775630e-01  4.5038659171453826e-01  4.5288607125833824e-01  4.5035865580234402e-01  4.5282481170476502e-01  4.5033465674555778e-01  4.5276564683748316e-01  4.5032424009504851e-01  4.5272008638481265e-01  4.5033608316861962e-01  4.5269416981883992e-01  3.9168497058920587e-01  3.9173051892027599e-01  3.9185434599568597e-01  3.9202212699405004e-01  3.9220677628327516e-01  3.8160144456662110e-01  3.9238106431416370e-01  3.8566876391427474e-01  3.8174092298162532e-01  3.9250872491001082e-01  3.8580656937850039e-01  3.8185771990400574e-01  3.7937579211820260e-01  3.7939304383986844e-01  3.7944865742505829e-01  3.7955426432059358e-01  3.7972227144377974e-01  3.7996509333086942e-01  3.8029360889460123e-01  3.7058902070537875e-01  4.4276675054165926e-01  4.4277012875773536e-01  4.4277746153096459e-01  4.4278638811970461e-01  4.4279410428367943e-01  4.4279502757068323e-01  4.4277387492023584e-01  4.3385195906075608e-01  4.3385987329488723e-01  4.3388273428381163e-01  4.3392047379163273e-01  4.3397242307135298e-01  4.3403883008533645e-01  4.3412128124695770e-01  3.8753591642905000e-01  3.8759300953378967e-01  3.8773887437323540e-01  3.8792871382613842e-01  3.8812910513579463e-01  3.8830621631879325e-01  3.8841592240019790e-01  4.5126174163034510e-01  4.5093601156893304e-01  4.5861582992719957e-01  4.5861052069100022e-01  4.5126125069140821e-01  4.5850879441791276e-01  4.5850216971299834e-01  4.5848347472149392e-01  4.5125878261506897e-01  4.5845764023851232e-01  4.5125342694200204e-01  4.5842754535985597e-01  4.5124591940931075e-01  4.5839558381009426e-01  4.5123769429865324e-01  4.5836297968015971e-01  4.5123372169849080e-01  4.3087698751773240e-01  4.3086870021380858e-01  4.3086389159197952e-01  4.3087998451058357e-01  4.3093336771152796e-01  4.3104330651065381e-01  4.3124284200233426e-01  4.4347410992654335e-01  4.5082606679808424e-01  4.5082052111349669e-01  4.5080471891616319e-01  4.5078247940734784e-01  4.5075537684171263e-01  4.5072561723705690e-01  4.5070177675474404e-01  4.6612590180445251e-01  4.6611459976940817e-01  4.6608521213643467e-01  4.5859558100123232e-01  4.6604617958354627e-01  4.5857482069535310e-01  4.6600444390273998e-01  4.5855198634022665e-01  4.6596526610066236e-01  4.5852996740097796e-01  4.5851002882317426e-01  4.4259898486932353e-01  4.4260630622197078e-01  4.4262456966894331e-01  4.4264724461428895e-01  4.4267008849552991e-01  4.4268632623489279e-01  4.4267925389032298e-01  3.9723634264906738e-01  3.9728484891626420e-01  3.9741153025081327e-01  3.9758017092756276e-01  3.9776760558655544e-01  3.9794853047552581e-01  3.9808104754272938e-01  4.2001014354593214e-01  4.2003970485917791e-01  4.2012292359294895e-01  4.2024319009970013e-01  4.2039228819184549e-01  4.2056407616634595e-01  4.2074939324316640e-01  4.2804002282403197e-01  4.2805473476627109e-01  4.2809839598769156e-01  4.2816301798777257e