<?xml version="1.0"?>
<VTKFile type="UnstructuredGrid"  version="0.1"  >
<UnstructuredGrid>
<Piece  NumberOfPoints="1014" NumberOfCells="4351">
<Points>
<DataArray  type="Float64"  NumberOfComponents="3"  format="ascii">9.350511439924658 3.162138770013453 0.8966186477687174  9.26965448208697 3.081672899924245 0.9191460833001595  9.263271739308633 3.238084433147525 0.8763435746775989  9.262872140308993 3.22601070431736 0.8051752274675313  9.271622758159587 3.060384006489111 0.8535791692480279  9.351187253587479 3.142651685476552 0.8292522679299522  9.26240853776925 3.213751180117589 0.733913560642102  9.273534846636771 3.038804546815204 0.7880334926727247  9.351807290098886 3.122882712186131 0.7618336724784768  9.261935947569997 3.20142038253765 0.6626000649462945  9.275432567309071 3.017092491956594 0.7224935656959957  9.35241632091868 3.103007129545416 0.6943829097834149  9.261493536319891 3.189077763420605 0.5912471214181007  9.277347716704959 2.995366508777518 0.6569394984423224  9.353051844496871 3.083132123176804 0.6269018665447744  9.261094845013268 3.176728999697758 0.5198536553581996  9.279296049802248 2.973695287403544 0.5913461455316951  9.353724886925367 3.063300209020748 0.5593783481323974  9.260764262830198 3.164364157280502 0.4484232670932624  9.281270745017054 2.952107981440859 0.5256783448076479  9.354456063229101 3.043507255540911 0.4917708227661201  9.080237711021361 2.893522927711913 1.005355680057042  9.000711149869074 2.83767445648032 1.037110542082258  9.00257713282733 2.949979667718978 0.9715234459800299  9.003738622348529 2.917445577691455 0.9131358420170691  9.001778035516782 2.802820622614381 0.9838453316914378  9.081144789381318 2.86045819393353 0.9492955683396157  9.08199722560939 2.827090334808742 0.8934280906023784  9.002809496475955 2.767707440580363 0.9308092620318847  9.00483688066152 2.884612512838711 0.8549033258405183  9.082812674231189 2.793595619573789 0.8376800395471681  9.003794465369024 2.73247061508124 0.8779307273165275  9.005898949728728 2.85165501749769 0.7967643709005591  9.083618248901201 2.760115805064863 0.7819844117171799  9.004752948517082 2.697252218387885 0.8251382351072292  9.006952612769849 2.818706249407749 0.7386751878168047  9.084451090602613 2.726760354965029 0.7262646939947003  9.005737634189856 2.662190528908788 0.7723461938831596  9.008043840628719 2.785865873367932 0.6805762647790377  9.085356948715509 2.69359514032057 0.6704365090126344  9.006841085146839 2.627383971758307 0.719437003206412  9.009230397931196 2.753189833045593 0.6223860831935671  8.892112911961314 3.413147062187461 0.8784869437777838  8.795603031922198 3.304520121808256 0.8751292726293461  8.781972346306633 3.474217356819844 0.9048787849713804  8.775085013613895 3.489883018951054 0.8310499827243478  8.786052251999765 3.305880802759257 0.8014439402600004  8.883053660742265 3.427541230832335 0.8045777996585735  8.76814180745747 3.505608063357051 0.7571349844141272  8.776461413720336 3.307208473822248 0.7276767956774568  8.873924264858873 3.441983819536168 0.7305696705173041  8.761185393055023 3.521321036985004 0.6831489123341739  8.766866277219565 3.308466093788831 0.6538605651707685  8.864780487069117 3.456391912367287 0.6564738452050449  8.75424877615745 3.536976940321967 0.6090985790397927  8.757290530967685 3.309656326218314 0.5800137037195975  8.85565524477567 3.470732352043029 0.5823086028645597  8.747353729641274 3.552545488784046 0.5349825923227662  8.747754464109086 3.310781578404282 0.5061392280164253  8.846567050057155 3.484980938487497 0.5080780663312883  8.740474433796612 3.567986477056323 0.4607958403906466  8.738273892225832 3.3118247077079 0.4322225138742335  8.837501500802297 3.499114543745765 0.4337973580064732  9.257879442574032 3.591159013944347 0.9030199296974351  9.266733287971041 3.497763852283948 0.877850130551697  9.146965131682423 3.500911066242058 0.8746005811692209  9.145845883275847 3.515332408103231 0.7995290042308756  9.269189491781457 3.508897321559913 0.8031180492487491  9.25768892179509 3.611752859882385 0.8295791996146857  9.257365371026342 3.632442522871406 0.7560355214695431  9.27148984559658 3.520080738763534 0.7282625905232292  9.144601100666611 3.529813882812118 0.7243516710600192  9.257015439028381 3.653142027959643 0.682378739466903  9.273768396372759 3.531236871130363 0.6533002951650895  9.143357317738964 3.544271367389051 0.6490791275963017  9.256698162700216 3.673786383518599 0.6086226631729904  9.276087197668318 3.542335330581436 0.5782358056846384  9.142159012423269 3.558658635240415 0.5737136815177279  9.256462608252876 3.69433723064919 0.5347664854371642  9.278501793026091 3.553343777532971 0.5030679345137707  9.14104506416871 3.572954830101217 0.49825413921107  9.256372460247624 3.714752355572168 0.4608331243106355  9.281101723235663 3.564249505208751 0.4278064295203984  9.140038679461398 3.587140248174871 0.4227158892209166  9.160170747239473 3.173109795920301 0.8907192016801886  9.163220849219673 3.158062961420822 0.8210537501547105  9.166214666111349 3.142762908410091 0.7513239881783267  9.169204001506944 3.127357181335034 0.6815664716145735  9.172228023206156 3.111936307163047 0.6117863718297508  9.175302701761087 3.096529715685377 0.5419742454869846  9.17843724107205 3.081132991820814 0.4721056232457567  9.155479653519558 3.632567464468122 0.9154551655364104  9.150135335912022 3.65990472547121 0.8434569430916788  9.144707309636424 3.687359636104954 0.7713909736938518  9.139270072511929 3.714828561206808 0.6992384443686697  9.133853566717406 3.742245173393607 0.6269837940528757  9.128491505056788 3.769551088386543 0.5546325720877358  9.123193814811097 3.796720357382269 0.4821923619888018  8.880870545798976 2.899668289604016 0.9942968073626226  8.882790196043876 2.867547058150486 0.9371389813380175  8.884685532769161 2.835178638475659 0.8801795234448366  8.886544996414328 2.802697155851299 0.8233541392721412  8.888374559447191 2.770207176432746 0.766613542042348  8.890223412425486 2.737837664392813 0.709888700418765  8.892195276637361 2.705696217547315 0.6530979335962824  8.682111600381543 3.409673686629503 0.6701836490789789  8.679871479227206 3.418871210051885 0.5959090257631656  8.677670652927311 3.427992275671195 0.5215831627826015  8.675544525815496 3.437039083876095 0.4471814990152221  8.909170683370716 3.29943028069354 0.8553142090233061  8.903793745924816 3.297302508749781 0.7803667336674731  8.898355108002605 3.295110568988896 0.7053342817379795  8.892915522762301 3.292851295539009 0.6302712399992838  8.887501921267933 3.290534139410787 0.555180969262683  8.882135222105706 3.288164895870832 0.480056619814562  8.876826816950969 3.285745659546069 0.4048861299209668  9.466849198711449 2.578449723478639 1.230080434889293  9.355730603647537 2.546041600320267 1.250125225656905  9.418364833536177 2.652557687398792 1.176123933844778  9.419091734619204 2.619069819993297 1.129841456526107  9.356562913478541 2.51483043613526 1.204792538600141  9.467630978199917 2.546619642348887 1.18489352875721  9.419816063057526 2.585349640896604 1.083857637125432  9.35742362742322 2.483484375189541 1.159734510831088  9.468427599943173 2.514589483159476 1.139988217698223  9.420519489880126 2.551527269025766 1.038086908100783  9.358247374330997 2.452044765036721 1.114915927136846  9.469197479048869 2.482460412246461 1.095311801559923  9.421209352083586 2.517749519969346 0.992439510780298  9.359045264998674 2.420638358099793 1.070265525796408  8.633784496826729 2.890017406701415 0.9067898502238135  8.764122423356286 2.874060402292887 0.9256547402479447  8.709542994650763 2.954818561700113 0.883961623407181  8.759381886919138 2.904293554208575 0.9840416912954976  8.71464837221758 2.929681309199712 0.8212208893703108  8.640786729268735 2.861741225058967 0.8470271015490106  8.768877903333449 2.843605018804088 0.8674673675796505  8.719747513843046 2.904427036565001 0.7585894963099664  8.647800186216646 2.833369918721152 0.7874034968424999  8.7736249955712 2.813055140660328 0.8094206370731039  8.724837695850695 2.879131876027213 0.6960348356574191  8.65480152991363 2.804984694117684 0.7278785756374202  8.778348656903416 2.782490965076112 0.7514691640132927  8.729944773902224 2.85389719483192 0.6335192115692294  8.661790601830644 2.776680226660018 0.6684083807187022  8.783086326701907 2.752041555911225 0.6935618388120952  8.735095210260354 2.828847956724404 0.5709983722715537  8.668801671868287 2.748590624954375 0.6089370791146601  8.787900876235529 2.721843916109468 0.6356296302257294  8.699309886039057 2.787637271863609 0.9775939141057579  8.706051100721997 2.754684308870678 0.9238596525458487  8.712805681935128 2.721652949850719 0.8703043221446942  8.719538001338773 2.688631600639126 0.8168706338097688  8.726235116272266 2.655719855692598 0.7634933206888138  8.732945403725731 2.623098544191173 0.7100898376556429  9.309401897572878 2.643897165195396 1.180658337495722  9.310210978895581 2.610491935443497 1.134128388576574  9.311013093542249 2.57687528279427 1.087892606451222  9.31177761187015 2.543147885029733 1.04187828692542  9.312520638225898 2.509458662448447 0.9959977129169658  9.313268128523308 2.475964335322759 0.9501370727925305  9.42189790415885 2.484170737618682 0.9468039327809619  8.924305214358634 3.016776003933419 0.9363094274901529  8.922634654025346 2.988559952666979 0.8735740735007989  8.9208782263086 2.960063421888137 0.8109379620771247  8.91907692087616 2.931439645157235 0.7483696980354466  8.917264007051301 2.902800412468647 0.6858464789269973  8.915504635032798 2.874242908712131 0.6233324545524962  8.913956108706506 2.845843220660969 0.560771183913346  9.043590744131656 3.866958877111269 1.064997055030277  8.947167805563049 3.827052890821494 1.052370146324632  8.990888717017571 3.93336324111574 1.132438396224678  8.980800312447553 3.988286332906864 1.078490857238169  8.937891653525924 3.873147037185807 0.99035534581558  9.034554934055157 3.915502220735912 1.004895588240891  8.970724464316069 4.04326518491498 1.024682073814245  8.9286
[...]
<PointData  Scalars="f_14"> 
<DataArray  type="Float64"  Name="f_14"  format="ascii">2.0921111567001111e-01  2.1786889368955403e-01  2.1666994690919192e-01  2.1673440605669708e-01  2.1785045557888202e-01  2.0923170691750270e-01  2.1687659092260059e-01  2.1780680428958926e-01  2.0927444875047130e-01  2.1703683904209020e-01  2.1776647908166860e-01  2.0932461796493390e-01  2.1722460101116481e-01  2.1775348170295675e-01  2.0939873360405270e-01  2.1743903501678766e-01  2.1779440759451527e-01  2.0951423609947933e-01  2.1757418525751709e-01  2.1792094988827085e-01  2.0963815838631800e-01  2.3904841770408258e-01  2.4751641571013680e-01  2.4571118651213525e-01  2.4573749642690407e-01  2.4756191700089150e-01  2.3907750903324770e-01  2.3915082747635377e-01  2.4766914874540252e-01  2.4579892674962436e-01  2.3924450571682285e-01  2.4780127761592233e-01  2.4587998334151978e-01  2.3933617424478434e-01  2.4792101000000041e-01  2.4594857232733064e-01  2.3940642023478526e-01  2.4798494874997362e-01  2.4597053042719141e-01  2.3943809624551762e-01  2.4795006508699091e-01  2.4592672456274131e-01  2.5082500278397268e-01  2.6133879470328086e-01  2.6026120409604575e-01  2.6032732506899786e-01  2.6156568527472557e-01  2.5095154279723791e-01  2.6048889582940282e-01  2.6208357646984559e-01  2.5128057938092252e-01  2.6067145763784855e-01  2.6267654656548445e-01  2.5165671887834218e-01  2.6083065317474852e-01  2.6321881336576963e-01  2.5199447133767805e-01  2.6092062228476143e-01  2.6356269429860613e-01  2.5220873094505236e-01  2.6082760653458753e-01  2.6339532654846104e-01  2.5217512108971801e-01  2.1339842851053306e-01  2.1326919906166392e-01  2.2488550745681615e-01  2.2484085289988517e-01  2.1313359529285977e-01  2.1332470211400037e-01  2.1312797244567075e-01  2.1284120966476425e-01  2.2475499267244164e-01  2.1290397915808373e-01  2.1252041443524147e-01  2.2466535378166269e-01  2.1271278242859423e-01  2.1224333162442421e-01  2.2460183449892057e-01  2.1261257573367756e-01  2.1209011778085182e-01  2.2458848122260361e-01  2.1266663434094712e-01  2.1219323341596238e-01  2.2462766762258835e-01  2.2709722446782324e-01  2.2703804500896557e-01  2.2690757164395681e-01  2.2676142721603054e-01  2.2664006570526168e-01  2.2657951031527776e-01  2.2664739569117603e-01  2.2314227527138791e-01  2.2318636601568961e-01  2.2324067570986447e-01  2.2330179517151205e-01  2.2336934794815730e-01  2.2343952469575348e-01  2.2350405681010121e-01  2.5792167004073691e-01  2.5795664376356148e-01  2.5803896353361944e-01  2.5813964066121031e-01  2.5822250265497920e-01  2.5824448576300485e-01  2.5813119708469418e-01  2.6948784456961117e-01  2.6936685835429464e-01  2.6920133112199957e-01  2.6905198237570715e-01  2.5028340411093358e-01  2.5039016575864859e-01  2.5062744296490813e-01  2.5087976856568611e-01  2.5107429977896506e-01  2.5113326460964425e-01  2.5103712076171453e-01  2.0555123598488248e-01  2.1711072605815043e-01  2.0939877878157379e-01  2.0940553144770682e-01  2.1711921406009041e-01  2.0555230485007428e-01  2.0942603600357737e-01  2.1714238728122789e-01  2.0555314406488515e-01  2.0945828224248683e-01  2.1718065878106335e-01  2.0555969531746071e-01  2.0949794582027240e-01  2.1722463053986596e-01  2.8086245379721586e-01  2.6898112064643021e-01  2.7297377276700224e-01  2.6899912892945443e-01  2.7290244262969482e-01  2.8086703577955030e-01  2.6896647136876006e-01  2.7281152061590652e-01  2.8085621614358924e-01  2.6894679013019679e-01  2.7269409372805276e-01  2.8082435697314118e-01  2.6890377388237252e-01  2.7254469970328599e-01  2.8076181383161447e-01  2.6881062747471518e-01  2.7241382861726077e-01  2.8063500053813034e-01  2.6868334324818233e-01  2.7615856850675119e-01  2.7619810997456934e-01  2.7624244766762052e-01  2.7627316990284223e-01  2.7626617402211018e-01  2.7617187215708605e-01  2.2034189760718118e-01  2.2035176978487994e-01  2.2038662563309749e-01  2.2043916596742846e-01  2.2049674058058835e-01  2.2054464408333932e-01  2.0954050571652841e-01  2.5245995664188076e-01  2.5256617274126114e-01  2.5283165381855233e-01  2.5314182863170154e-01  2.5342450588835191e-01  2.5358445637664412e-01  2.5344465082025669e-01  2.3200000346615285e-01  2.4137651642879621e-01  2.3652614828264845e-01  2.3652312845106796e-01  2.4137844004628387e-01  2.3200289495813919e-01  2.3652953884628022e-01  2.4137928062936312e-01  2.3201050461565600e-01  2.3653434360659309e-01  2.4137966384438514e-01  2.3202027837850334e-01  2.3653982631063639e-01  2.4137313273039437e-01  2.3203215213523329e-01  2.3655138378919877e-01  2.4135273886907718e-01  2.3204856341370705e-01  2.3657139591023341e-01  2.4134203599930187e-01  2.3206547319022111e-01  1.8852203321090652e-01  1.9670830309086726e-01  1.9574709995155146e-01  1.9574571547377775e-01  1.9671822813456188e-01  1.8850924773806282e-01  1.9573107912434773e-01  1.9673906082321871e-01  2.0465643833470959e-01  2.0378417242807489e-01  2.0371819051009904e-01  2.0457597037683795e-01  2.0355654001554604e-01  2.0439029228457373e-01  2.0337581477076844e-01  2.0418141165429640e-01  1.9572013842979502e-01  2.0322581546500282e-01  2.0400653979463959e-01  1.9573776438269078e-01  2.0315692885959927e-01  2.0393207220833606e-01  1.9581030690485518e-01  2.0324909522840334e-01  2.0407162162139927e-01  1.9596074304703648e-01  2.5154138945888227e-01  2.4765865844742205e-01  2.4766379427002028e-01  2.5155485411267686e-01  2.5157014057099858e-01  2.4766469321300105e-01  2.5157682422253858e-01  2.4765537685352582e-01  2.5156770985736010e-01  2.4763320460515340e-01  2.5153583891790998e-01  2.4759152916552188e-01  2.5145670128094932e-01  2.4752222102475571e-01  2.6328117507501492e-01  2.6326653245476966e-01  2.6327805020626555e-01  2.6330001271373055e-01  2.6330090041942805e-01  2.6323686817824471e-01  2.6301536491042188e-01  1.8244431766039143e-01  1.8268326489671433e-01  1.9128813299756836e-01  1.9131648680619989e-01  1.8270958576975363e-01  1.8248240502260826e-01  2.2910477487790928e-01  2.3885320157415396e-01  2.3889355465218731e-01  2.2900289372624308e-01  2.3899039904903155e-01  2.2877184231976827e-01  2.3909551576123586e-01  2.2851120843884579e-01  2.3918273443042762e-01  2.2828772987839366e-01  2.3922522007504912e-01  2.2816122408259717e-01  2.3921987808551656e-01  2.2819662638092381e-01  2.3246526323889283e-01  2.3255163022776218e-01  2.3273856111043462e-01  2.3294161551543263e-01  2.3313361495556140e-01  2.3328817565038365e-01  2.3336372210297343e-01  2.2288801236188124e-01  2.2282257691266119e-01  2.2270213842932679e-01  2.2256259919467677e-01  2.2246231412144224e-01  2.2246111583694714e-01  2.2264004297972925e-01  1.9676945314008573e-01  1.9683180043799450e-01  1.9695158141526767e-01  1.9712670835322180e-01  2.5685818108156350e-01  2.5684862643100576e-01  2.5681070394565386e-01  2.5671077264185249e-01  2.4204771409927928e-01  2.4211651708682694e-01  2.4228123596022474e-01  2.4247165211732516e-01  2.4264676266518323e-01  2.4276922165184295e-01  2.4277777745664680e-01  2.9118202241794833e-01  2.8177414632858305e-01  2.8350864054886110e-01  2.8171442834310051e-01  2.8344672920972652e-01  2.9114486177066118e-01  2.8181864541828577e-01  2.8334029540144945e-01  2.9109538213594099e-01  2.8178901471710016e-01  2.3267146879682543e-01  2.3256476283676050e-01  2.3227773719274122e-01  2.3196230469723839e-01  2.3168941087026063e-01  2.3154068128415536e-01  2.3165260091492715e-01  2.8240643427033685e-01  2.8242946323606893e-01  2.8244582274354918e-01  1.9836604605507580e-01  1.9549152745705076e-01  2.0549874835329782e-01  2.0549657861332918e-01  1.9543597759217579e-01  1.9834039988774776e-01  2.0547321016479286e-01  1.9531643573929675e-01  1.9828414351994089e-01  2.0545557160786090e-01  1.9519020314721686e-01  1.9822995770427726e-01  2.0545817142642156e-01  1.9509100145708402e-01  1.9819519698835919e-01  2.0549979048112144e-01  1.9505551312416319e-01  1.9819834088385718e-01  2.0560847926941064e-01  1.9514956758743032e-01  1.9828142038559349e-01  2.6219558138325100e-01  2.5695669248339925e-01  2.5123983545260181e-01  2.5128014088243472e-01  2.5699378634820563e-01  2.6220874962661145e-01  2.5138938664565724e-01  2.5709692580275589e-01  2.6224210975487389e-01  2.5152622462464092e-01  2.5722215222417327e-01  2.6228432823574832e-01  2.5165276520004026e-01  2.5733551107792013e-01  2.6231216525750489e-01  2.5171622852140435e-01  2.5738986572550765e-01  2.6228853334273289e-01  2.5163400573298789e-01  2.5732087979378998e-01  2.6216543886969657e-01  2.9355822625435091e-01  2.9342575255356645e-01  2.9146922971137701e-01  2.9152213157591372e-01  2.2456968310668476e-01  2.2826844369261959e-01  2.2463777388672673e-01  2.2825308413136858e-01  2.2450369208180049e-01  2.2824377018724137e-01  2.2444619197366938e-01  2.2824617894586391e-01  2.2440646343707985e-01  2.2827291004570474e-01  2.2442886884228774e-01  2.1034811018782262e-01  2.1035486253625688e-01  2.1037798101266306e-01  2.1041179238479063e-01  2.1045502859843712e-01  2.1050783495859432e-01  2.1057099196432200e-01  2.2056657282908806e-01  2.0958003920336632e-01  2.2466131991359151e-01  2.5042064084469517e-01  2.5046016524252890e-01  2.5057280095254220e-01  2.5070458989885386e-01  2.5081110254396038e-01  2.5084979262050666e-01  2.5079056944875489e-01  1.7976236443381174e-01  1.8638638522215187e-01  1.7526984597303433e-01  1.8638154706584439e-01  1.7976732345803204e-01  1.7527111206960885e-01  1.7527032090301722e-01  1.8637229875947153e-01  1.7978403019189149e-01  1.7526784307535226e-01  1.8636122827788820e-01  1.7980378453026136e-01  1.7526731109710733e-01  1.8635971131396525e-01  1.7982608492578012e-01  2.8493862188382069e-01  2.8475092891566373e-01  2.6544664759323722e-01  2.6545889768260561e-01  2.6550314462064345e-01  2.6556006769331614e-01  2.6560201026583408e-01  2.6558956434496950e-01  2.6546954216992397e-01  2.0777698233255984e-01  2.0778821329282221e-01  2.0781922367968442e-01  2.0786321110941838e-01  2.0791884831723689e-01  2.0798625556743031e-01  2.0806630186349850e-01  2.2203103450052938e-01  2.2204580368232960e-01  2.2209424780291734e-01  2.2216115967699682e-01  2.2223385257446759e-01  2.2229986931828699e-01  2.2234769619522751e-01  2.4385218347801049e-01  2.4274949223752335e-01  2.4278347666154804e-01  2.4388460679875421e-01  2.4287060413370282e-01  2.4397553513333195e-01  2.4298478676617807e-01  2.4409362698106485e-01  2.4309290815132781e-01  2.4420666910999694e-01  2.4315735403010558e-01  2.4427114039012884e-01  2.4314596396306645e-01  2.4423572393721932e-01  2.9678302000547802e-01  2.1823091644249229e-01  2.1812350971591965e-01  2.1815049416209345e-01  2.1819044033220222e-01  2.1819445394211157e-01  2.1817869496470299e-01  2.1825278941593218e-01  2.1822923985573459e-01  2.5188336870446359e-01  2.6207839704127373e-01  2.5207639089623485e-01  2.5208337406425113e-01  2.6209864402369126e-01  2.5190609058523683e-01  2.5213602856967493e-01  2.6216162399013671e-01  2.5196909467404771e-01  2.5220862837472546e-01  2.6224479531280198e-01  2.5205230661725586e-01  2.5227267610916498e-01  2.6232572170238422e-01  2.5213263051909535e-01  2.5228599480343461e-01  2.3083365894972754e-01  2.4121832395935922e-01  2.2993821733861691e-01  2.2995475606697205e-01  2.4123431248176017e-01  2.3085200947545817e-01  2.3000914411773554e-01  2.3004153214152342e-01  2.2999906211412374e-01  2.2989011779714050e-01  2.2977670649236090e-01  2.2968929442549973e-01  2.2967175347853569e-01  2.2979888105578547e-01  2.5502494913324680e-01  2.5504694639954922e-01  2.5510846770869433e-01  2.5518505524636731e-01  2.5525149477295200e-01  2.5526690516971745e-01  2.5516459608943809e-01  2.3285956990719733e-01  2.3289105751054312e-01  2.3296999035062446e-01  2.3306957365176129e-01  2.3316130692071610e-01  2.3322309277113593e-01  2.3326051664336189e-01  2.7191524701755376e-01  2.6217885940494945e-01  2.6218645958132492e-01  2.7192261084035418e-01  2.6222148715974419e-01  2.7196199568055640e-01  2.6226940516991826e-01  2.7201510487820674e-01  2.6230522546089796e-01  2.7206921910711451e-01  2.6229289540657458e-01  2.7210934846313195e-01  1.9521722462864291e-01  2.0412360974000338e-01  2.0407990106935714e-01  1.9517714421879900e-01  2.0396546393205159e-01  1.9507898525510273e-01  2.0384080563828602e-01  1.9497526535216617e-01  2.0374403454308646e-01  1.9489802464888364e-01  2.0371505520921057e-01  1.9488158857629395e-01  2.0381091846535970e-01  1.9498378371693462e-01  2.3008497657848354e-01  2.3016493238573807e-01  2.3022253484100214e-01  2.6843373613859833e-01  2.6815480220270094e-01  2.6794821494013027e-01  2.7982605588432036e-01  2.7989385135990719e-01  2.7993024489957485e-01  2.7982845004786239e-01  2.1810702237131926e-01  2.1528562590693473e-01  2.1533224885655955e-01  2.1544866121310116e-01  2.1558097997908279e-01  2.1572004645254977e-01  2.1585443313223726e-01  2.1594264704654778e-01  1.7704387569308286e-01  1.8817928933177255e-01  1.8816519899271941e-01  1.7703740847498550e-01  1.8813470192721060e-01  1.7702642183192985e-01  1.8809980541292379e-01  1.7701034373458815e-01  1.8806882969371974e-01  1.7699153215909688e-01  1.8805222431615520e-01  1.7697105485386583e-01  1.7985002535126199e-01  1.8807353558579401e-01  1.7694571439092940e-01  1.7986211642184902e-01  2.4067825345550325e-01  2.4057306986217372e-01  2.4034509320143341e-01  2.4010585563036993e-01  2.3989010609067488e-01  2.3974606184981620e-01  2.3973895223041197e-01  2.4218609423853649e-01  2.5105249784230593e-01  2.5106994289425466e-01  2.4222343341892927e-01  2.5108274946338049e-01  2.4232179375654167e-01  2.5108966142730649e-01  2.4243298010703540e-01  2.5108255585108802e-01  2.4253076153262929e-01  2.5104897487378336e-01  2.4258654316805281e-01  2.5095164746235626e-01  2.4254722265856699e-01  2.5971080359125953e-01  2.5967715778391837e-01  2.5958113423846441e-01  2.5945767097165284e-01  2.5931709935823993e-01  2.5916639641025363e-01  2.5900389047274125e-01  2.7184423757822068e-01  2.7185291967329211e-01  2.7189128111083150e-01  2.7194277877212031e-01  2.7198862047494365e-01  2.7200462186821894e-01  2.7194559982179684e-01  2.6218316654750984e-01  2.4113407710514115e-01  2.3165415291396588e-01  2.3167168023682189e-01  2.4115851289423926e-01  2.3172101080888222e-01  2.4123445013407582e-01  2.3179182998358994e-01  2.4133496590060527e-01  2.3186489410118069e-01  2.4143428655155014e-01  2.3191713280785559e-01  2.4149429099177094e-01  2.3192823870649198e-01  2.4146822659113737e-01  2.3023023902071343e-01  2.8512489352836518e-01  2.9308420749987973e-01  2.1353760798093044e-01  2.1352229277929544e-01  2.1349375131417225e-01  2.1346922355966702e-01  2.1346671895801791e-01  2.1350504120935654e-01  2.1359862118134362e-01  2.5218443603587609e-01  2.1418629592895660e-01  2.1418346116454751e-01  2.1418182189791890e-01  2.1418832601031731e-01  2.1420682236964844e-01  2.1424343899988166e-01  2.1431333110810172e-01  2.7238222113672300e-01  2.5934086895173419e-01  2.6449708890660623e-01  2.5959588242435860e-01  2.6464806751227649e-01  2.7216361761108310e-01  2.5909091524860534e-01  2.6433533469962284e-01  2.7198629232015875e-01  2.5892478441805733e-01  2.6417053345935465e-01  2.6615314051589872e-01  2.7107368877594906e-01  2.6601382867796375e-01  2.7079224706457072e-01  2.6620074801435623e-01  2.7043725335742153e-01  2.6604112537767011e-01  2.6846010778434359e-01  2.6871426405408860e-01  2.6822591861013068e-01  2.6806697901630766e-01  2.6011358543128649e-01  2.6003310469833990e-01  2.5983401369186021e-01  1.7986210140204387e-01  1.9122673771120649e-01  1.8451481537361888e-01  1.9120699000661304e-01  1.7982885775592353e-01  1.8454711307239668e-01  1.9117459352034724e-01  1.7975274013930323e-01  1.8463037985837721e-01  1.9114207932405769e-01  1.7966799869216496e-01  1.8473333755763746e-01  1.9112641094893307e-01  1.7958912103668390e-01  1.8484634377644327e-01  1.9115079115556616e-01  1.7953475813226619e-01  1.8494891510893582e-01  1.9123731891164103e-01  2.7207144889409979e-01  2.7124472312140441e-01  2.7124370110140811e-01  2.7123306079831194e-01  2.7122020850052087e-01  2.7120893369763749e-01  2.7042884258647765e-01  2.7046438511107201e-01  2.7035978207153544e-01  2.7021530689675660e-01  2.6998526159151964e-01  2.3334110646136408e-01  2.2553735966897967e-01  2.2554706894624693e-01  2.3336515019541718e-01  2.2557545669623474e-01  2.3343986656003299e-01  2.2561801631090153e-01  2.3353982174041304e-01  2.2566756521114639e-01  2.3364099624214671e-01  2.2572011163060501e-01  2.3371996541472331e-01  2.2578489071172639e-01  2.3375205250872913e-01  1.8725227182899115e-01  1.8725065904183388e-01  1.8724467513385493e-01  1.8723711637590121e-01  1.8723163549651223e-01  1.8723153642732199e-01  1.8724298770192785e-01  2.8354543729972731e-01  2.3674216172619172e-01  2.3670790587310361e-01  2.3662367195877404e-01  2.3652434102325792e-01  2.3644278241984293e-01  2.3641657987119466e-01  2.3649927919572269e-01  2.4128813918557554e-01  2.2381349053919225e-01  2.2383498500485965e-01  2.2386573206960819e-01  2.2390701438953073e-01  2.2396398275660914e-01  2.2404350509437479e-01  2.2415694706305644e-01  2.4384182528555873e-01  2.4379841305967342e-01  2.4369600264995941e-01  2.4358700843295666e-01  2.4348204228156700e-01  2.4339514797011699e-01  2.4336086432502940e-01  2.2340141984953502e-01  2.2346161319321733e-01  2.2360613749524183e-01  2.2377008010218208e-01  2.2393304546835710e-01  2.2407649664247711e-01  2.2415810957445770e-01  2.1443472042238501e-01  2.1446144750235988e-01  2.1453252458577526e-01  2.1461953026497485e-01  2.1471553897687934e-01  2.1481393023934339e-01  2.1490540675402806e-01  2.4129638032158890e-01  2.4133375783735944e-01  2.4141897836812115e-01  2.4151454853599413e-01  2.4160327235277898e-01  2.4166919844909196e-01  2.4169702255700451e-01  1.9165718262699305e-01  1.9163709009006277e-01  1.9158862217568276e-01  1.9153197453474854e-01  1.9148392941851586e-01  1.9146364739826049e-01  1.8638265786669525e-01  1.9150527474236578e-01  1.8644581551470044e-01  2.4895659507783852e-01  2.5892258841481214e-01  2.5899905342275598e-01  2.4898906820196065e-01  2.5920584176945516e-01  2.4907485992622846e-01  2.5945115976943972e-01  2.4918147708036872e-01  2.5966751542466004e-01  2.4926789405136157e-01  2.5978218503856265e-01  2.4929582458549909e-01  2.5966602541192824e-01  2.4926431929571061e-01  2.3673403826493652e-01  2.3676292139723037e-01  2.3684135505869719e-01  2.3694209769329735e-01  2.3704150598394458e-01  2.3711853768098648e-01  2.3715756798488954e-01  1.9954433119865592e-01  1.9953580755228675e-01  1.9951087154573385e-01  1.9948453974088351e-01  1.9946788853957942e-01  1.9947538421768732e-01  1.9953402514851720e-01  2.5533274082529428e-01  2.6565241097158376e-01  2.5547420044677571e-01  2.6569583928397456e-01  2.5584325234930411e-01  2.6584170494516435e-01  2.5626434088980343e-01  2.5663904961116607e-01  2.5684619958013588e-01  2.5667552676012451e-01  1.9554411201301539e-01  1.8922389084520339e-01  1.8924681957395592e-01  1.9552022058624241e-01  1.8931733847407739e-01  1.9548320090704571e-01  1.8940929024769940e-01  1.9544393730536772e-01  1.8951884927860671e-01  1.9541928310341372e-01  1.8964933624839378e-01  1.9542236360897924e-01  1.8978044180108544e-01  1.9548793372351722e-01  2.2361386864931815e-01  2.2362936715066492e-01  2.2366299831006031e-01  2.2370981720925709e-01  2.2376087751841320e-01  2.2381010057390185e-01  2.2385591580927733e-01  2.8046775355863512e-01  2.8044452864980746e-01  2.8038259128416415e-01  2.8030890781848111e-01  2.8023658611611446e-01  2.8018465995016129e-01  2.8356781509772394e-01  2.7279554918937599e-01  2.7281259758627008e-01  2.7281705755697910e-01  2.7278777064894189e-01  2.7269563994905899e-01  2.7542482707603977e-01  2.7527031057067619e-01  2.7511132871383820e-01  2.1946475854785938e-01  2.1946591100751495e-01  2.1947235192111805e-01  2.1949007225879549e-01  2.1952025288767263e-01  2.1956599927765585e-01  2.1963671321383618e-01  1.9815921555987276e-01  1.9815964653547424e-01  1.9816029357761780e-01  1.9816342920820876e-01  1.9817303324045518e-01  1.9819346415095565e-01  1.9823175016518577e