<?xml version="1.0"?>
<VTKFile type="UnstructuredGrid"  version="0.1"  >
<UnstructuredGrid>
<Piece  NumberOfPoints="15072" NumberOfCells="74460">
<Points>
<DataArray  type="Float64"  NumberOfComponents="3"  format="ascii">4.835772757098651 2.791863139997921 0.8231085654265681  4.859928352991076 2.966519487149783 0.8183280400299996  4.949323731928574 2.869646665403472 0.8220359210997742  4.843521516621431 2.781842784593771 0.7532801393072164  4.866740759856238 2.970598572727202 0.7452098626654561  4.956062980280707 2.864062794301271 0.7507973375668849  4.873568306354763 2.974639002367988 0.6722999655919009  4.851306776570583 2.771900293154121 0.6837477350422345  4.962797925284274 2.858514698176455 0.6798111205590183  4.880382228919934 2.978634506368365 0.5996339798982626  4.859086882358516 2.761970267253339 0.6143829702742524  4.969527458429766 2.852958361178944 0.6090659181115927  4.976219049453461 2.847393387007213 0.5384750965050916  4.887156881809866 2.982580393679036 0.5271957003041294  4.866828159728683 2.752062490643786 0.5452154866531981  4.98285040471854 2.841799469860263 0.4680650084130542  4.893878821355813 2.986481289898671 0.4549328513053388  4.874502658587133 2.742135600302739 0.4761878719129477  4.882053048121235 2.732132608100691 0.4072860272503801  4.900534241582029 2.990314871835532 0.3827595389055295  4.989456808370991 2.836150255856923 0.397882056176699  4.962784031710258 1.293045238675167 1.490551399308133  5.105886206246026 1.331693092184997 1.462177062742162  5.055082997187112 1.226162325459813 1.567558455624586  4.966610660549288 1.248503110515437 1.446405362401406  5.108774075814583 1.286803856881697 1.417618717373047  5.060253048729423 1.175310018832864 1.529138153213091  5.065426033657087 1.124467847239486 1.490731843009584  5.111621026850292 1.241921492504202 1.373058788594523  4.970440606088959 1.203962354472619 1.402261890831803  5.114455259866244 1.197037019583796 1.32849412604692  4.974276024554077 1.159419033082869 1.358119209772663  5.070599503634564 1.07363815742558 1.452339529027189  5.117296298941304 1.152148254223819 1.28392678357191  4.978125719527868 1.114872207586361 1.313979038325401  5.075778711794074 1.022818722008378 1.413960806182099  5.12016219722773 1.107254660765508 1.239358268704936  4.982005100079654 1.07031981843913 1.269840337600471  5.0809693432266 0.9720097422042466 1.375596551165643  5.123085246542178 1.062354715158384 1.194787122735284  4.985919124786845 1.025764160161407 1.225700351416196  5.086175052418638 0.9212059760869394 1.337235187417911  5.83349320170168 2.396159728010131 4.232392342208047  5.991660867185877 2.365521959297128 4.230851136380902  5.954891390459629 2.511707350870121 4.259667658048257  5.95020889244117 2.501020180564715 4.342121305910991  5.98777254567937 2.342692910521508 4.309751047119654  5.831423365676634 2.377399662591351 4.312785350847534  5.945453596487776 2.490351016458935 4.424467096895794  5.98379693808737 2.31988494324799 4.388564596982912  5.829284845680042 2.358661909129329 4.393067542272558  5.940654760372648 2.479658978804046 4.506715615773973  5.979771038716313 2.297078588953686 4.467313158877489  5.827104997729361 2.339917856308037 4.473258726213913  5.935856781069462 2.468938066314953 4.588895952171259  5.97572777316647 2.274266234873029 4.546012510023073  5.824901982272516 2.321168300894866 4.553383073712863  5.822727596870475 2.302390599700626 4.633447796062099  5.971735443623333 2.251424767141494 4.624662560838557  5.9310951690378 2.45818960494154 4.671001083677912  5.820677696819946 2.283563739265053 4.713433169059269  5.967885816561587 2.228539138217999 4.703251852502311  5.926455940329285 2.447378319462262 4.753046056452628  5.402918909482917 2.243528021096917 1.011976667639334  5.379425003637693 2.39572027624683 0.9652633235387037  5.52907998028894 2.384025407040352 0.967173068745708  5.528517355552086 2.366840169578951 0.9080577412460787  5.379442180700587 2.378303046256443 0.9061339070510999  5.402511587187947 2.225100416277317 0.9547785402576925  5.527884766860235 2.349753976245521 0.8490118247953485  5.379385759153642 2.360989018890285 0.8470700676502831  5.402044930328969 2.206799338754962 0.8976158315746752  5.527229949671312 2.332741298224752 0.7900379684662701  5.379294484131769 2.343760454752045 0.7880955098821724  5.401576074500954 2.188585030357211 0.840482127496155  5.379213770547203 2.326574388442459 0.7291911674153402  5.401118772057029 2.170404199749932 0.7834250302977354  5.526590182123279 2.315768056950167 0.7311523117410365  5.379156133055583 2.309364839388086 0.6704093878308425  5.400687746811999 2.152177514004141 0.7264612484444326  5.525980785606465 2.298768697023315 0.6723846511595915  5.379151544468373 2.292045986493209 0.6117959524632721  5.400311186792324 2.133813827666956 0.6696428597822749  5.525436962987882 2.281660192244893 0.6137726776848073  4.902612084868541 1.468473936384188 3.42062816584029  4.987450543129818 1.528213147709057 3.512544599353532  4.846791063340706 1.531330489665432 3.547134383861237  4.853068316176036 1.47563817048588 3.578937226236635  4.993283683593704 1.472548114457358 3.543505878340805  4.909063684707703 1.414478745310096 3.450508335155616  4.9155248118881 1.36050659706965 3.480374428385462  4.999102514985604 1.416913238540713 3.574449787616349  4.859351300090709 1.41999648301774 3.610721664877022  4.865643574429752 1.36437997671261 3.642495312665719  5.004916998585844 1.361313525184234 3.605371618035668  4.92199292505489 1.306574654451077 3.510216162906475  4.928468762876191 1.252663187744085 3.540027856680713  5.010738345879608 1.305735503617145 3.636259630882622  4.87194410777092 1.308806467172365 3.674225849076081  4.878260012216465 1.253240376118202 3.705899304212136  5.016578052654402 1.250175827139156 3.667090599737562  4.934953891227254 1.198770498909557 3.569787968003235  4.884598880223742 1.19768853631513 3.737484226492301  5.022450006436156 1.194630608855595 3.697844959501749  4.941457475053717 1.144889421628005 3.599476817362736  5.306936773862561 1.478147184569765 1.342841744257135  5.431646300963628 1.539833854688553 1.310323694592891  5.400766854091552 1.40466668143374 1.407392983621027  5.404577285737751 1.363377709249192 1.360540218522222  5.435343759281626 1.50589843016073 1.259326954007451  5.309762481715098 1.441763228210676 1.29259593157693  5.439047439923111 1.471998454666813 1.208264453448424  5.312569692568461 1.405413320850734 1.242307684035264  5.408339641300547 1.322074892714629 1.313660384580059  5.442755857182456 1.438106238532473 1.15716862799821  5.315368495685066 1.369070552676681 1.191996008419319  5.412092523509864 1.280770377697097 1.266761905432902  5.446460644612246 1.404202857272767 1.106062523066131  5.318166072780261 1.332717195934646 1.141676642876013  5.415841912696975 1.239455189291636 1.219856284407288  5.419598172461962 1.198126030321218 1.172948800066714  5.45015173616558 1.370266575010157 1.054946109700851  5.320963960355313 1.296340362589517 1.091359420388516  5.423404409227358 1.156779988912746 1.12603296664226  5.453838472825557 1.336274895297523 1.003821693869088  5.323765913469516 1.259934416402939 1.041043517707271  5.566766002724495 1.144823603117242 1.816405754110598  5.519953705433203 1.20487383832047 1.678270835802572  5.659319875850104 1.188117128223023 1.730200451804818  5.665949590037132 1.13219157317234 1.701581666106229  5.525185478883181 1.14992015942403 1.647659729030212  5.572453771992858 1.086465730737662 1.793226259957517  5.578130107379636 1.028096289102976 1.770038175130706  5.530371670483865 1.094955454272502 1.617016060807108  5.672579640539618 1.076272009661317 1.672933106757287  5.583806812010304 0.9697264103098755 1.746840156846531  5.535543811375545 1.039984193657171 1.586354801953545  5.679221305316328 1.020371565535936 1.644273010081553  5.589477909980356 0.9113549812895434 1.723645167683951  5.540713880182842 0.985008418236775 1.555694042196977  5.685857562706119 0.9644784403121364 1.61562602517811  5.545901301239079 0.9300227150736777 1.525046305186628  5.59513436583499 0.852978163243497 1.700472729196797  5.692485084527492 0.9085852061034614 1.587015870768711  5.551151034743182 0.8750274773498782 1.494412865701651  5.600794952215168 0.7946030235738967 1.677322880369505  5.69912709241704 0.8526813568669636 1.558431503903338  4.175382251215987 1.89066375862255 1.144366198394927  4.313284334003245 1.95468364794356 1.106753064570696  4.287614506885986 1.829307452007339 1.165007799849791  4.284912375386953 1.805585176997481 1.112407859812531  4.311323540088407 1.930539169255838 1.053571194242713  4.171890653569598 1.866609157204545 1.091800203606474  4.168364479207303 1.842544222456423 1.039252785929369  4.309371829710147 1.906404750164555 1.000392487616996  4.282192576205251 1.78186608842668 1.059823247876976  4.16482307413039 1.81848097355563 0.9867364924676982  4.307424935169019 1.882281016172825 0.9472370215204715  4.279467639224284 1.758152344116575 1.007264227228767  4.161283360985188 1.794415780014712 0.9342539410393367  4.305478056876718 1.858155126212672 0.8941157115568364  4.276749072752347 1.73443750465004 0.9547367328162232  4.274047902031289 1.710709729549123 0.9022383728245272  4.303527175555101 1.834007721261991 0.8410319034833015  4.15776291719644 1.770342048045877 0.8818051377582298  4.27137484032178 1.686959915350061 0.849761111743159  4.301565867489618 1.809818242556465 0.7879790960280576  4.154286378044515 1.746253364326318 0.8293729132263149  5.46416211743795 2.745381363019189 4.248333246495232  5.445185818525446 2.583683449095705 4.262065620326183  5.577223024224714 2.615426168780923 4.261161341783235  5.577223809725 2.618916380294633 4.346028667088579  5.444124763210901 2.584099983043564 4.346994615351176  5.462190897623173 2.760343159600615 4.332259774689946  5.460129636970285 2.775265876016151 4.416009361948674  5.44299127908713 2.584521435166526 4.431728621824349  5.577131977078432 2.622407515446983 4.430702311519294  5.458015081390811 2.790116899844765 4.4
[...]
<PointData  Scalars="f_14"> 
<DataArray  type="Float64"  Name="f_14"  format="ascii">6.3063000681004600e-01  6.2864924594079263e-01  6.2072133670874552e-01  6.3064124913806585e-01  6.2866778585068972e-01  6.2073289497465522e-01  6.2872188235332416e-01  6.3067116480574004e-01  6.2078760484141526e-01  6.2881394136290147e-01  6.3072605122767889e-01  6.2087717131365949e-01  6.2100713688573428e-01  6.2894644128964539e-01  6.3082817193229124e-01  6.2117406228169103e-01  6.2912319512462089e-01  6.3099185118059653e-01  6.3121099122059587e-01  6.2935970080788706e-01  6.2133250783794458e-01  6.1987671159562263e-01  6.0804846787203237e-01  6.1210686160205674e-01  6.1985861850799995e-01  6.0805514736200961e-01  6.1207984850372155e-01  6.1202751671053812e-01  6.0807941674392707e-01  6.1980550538799861e-01  6.0810398206040417e-01  6.1972821785805576e-01  6.1195916973116327e-01  6.0812038525775070e-01  6.1962971554908342e-01  6.1188234405065400e-01  6.0811944467130641e-01  6.1951033027295288e-01  6.1180201113708932e-01  6.0808087714624270e-01  6.1937848613870672e-01  6.1171370646538092e-01  5.3275159264012606e-01  5.2169332424174453e-01  5.2324475561947825e-01  5.2328301192917603e-01  5.2175256283788884e-01  5.3277810836178929e-01  5.2337477420333844e-01  5.2188053537384926e-01  5.3285564220902659e-01  5.2349219094516031e-01  5.2203939168899349e-01  5.3295150241741573e-01  5.2360631920485889e-01  5.2218514856060960e-01  5.3305658304678583e-01  5.3316316311354384e-01  5.2227334311499485e-01  5.2368912595339245e-01  5.3322211332070024e-01  5.2227248419722994e-01  5.2371516144017671e-01  5.8138109858655518e-01  5.8317003899514297e-01  5.6975244458264318e-01  5.6977497234859120e-01  5.8318865407160103e-01  5.8140055756265496e-01  5.6983693948680370e-01  5.8324670158947689e-01  5.8145038912046410e-01  5.6991533171180464e-01  5.8332668550892230e-01  5.8151301833412250e-01  5.8341102229989694e-01  5.8157434799944463e-01  5.6998840064586576e-01  5.8348531290470262e-01  5.8161819969362616e-01  5.7003757921940379e-01  5.8352782679980830e-01  5.8162885153307342e-01  5.7004278161404842e-01  6.1235048838851613e-01  6.0494721799069184e-01  6.1553265999686724e-01  6.1552471429008959e-01  6.0494536676827626e-01  6.1234251940972750e-01  6.1231760695440807e-01  6.0493707971832544e-01  6.1550082407297868e-01  6.1545756746521230e-01  6.0491747184277123e-01  6.1227490673167151e-01  6.1221406410223089e-01  6.0488288706731308e-01  6.1539244524228365e-01  6.1530098027479452e-01  6.0482858284431840e-01  6.1213442196286749e-01  6.1517454942018668e-01  6.0474981933088123e-01  6.1203151854514093e-01  5.9103141135743198e-01  5.8015306145440393e-01  5.8318754722894039e-01  5.8320612496134128e-01  5.8016287678681755e-01  5.9104276299584602e-01  5.8018429528645477e-01  5.9106187962553047e-01  5.8326212237327635e-01  5.8021877759811535e-01  5.9109195072094822e-01  5.8333463981128053e-01  5.8026309194167047e-01  5.9112999350381690e-01  5.8341425588552531e-01  5.8348996129448905e-01  5.8031625602332937e-01  5.9117609678195493e-01  5.8354060216314463e-01  5.8037748257639032e-01  5.9123764837528281e-01  5.6943811194029892e-01  5.7341507236108158e-01  5.6158466411214480e-01  5.6158873298725220e-01  5.7344405661709930e-01  5.6945095058328532e-01  5.6950170094382802e-01  5.7351260955676164e-01  5.6161940440168978e-01  5.6957230182957830e-01  5.7360211632294800e-01  5.6165993699000161e-01  5.6964890756481901e-01  5.7369677615876491e-01  5.6170337687638283e-01  5.7378077447951015e-01  5.6972002898782692e-01  5.6174066868039896e-01  5.7383385881950832e-01  5.6977263101840359e-01  5.6176596504817877e-01  6.8804486583981894e-01  6.7610286040421474e-01  6.7825684316141188e-01  6.7825964945360950e-01  6.7610664641447848e-01  6.8805316845782882e-01  6.8807887837188464e-01  6.7612016885444826e-01  6.7827641435658870e-01  6.8811286021146412e-01  6.7613839652067509e-01  6.7829766109179424e-01  6.8814696443310275e-01  6.7615998938795541e-01  6.7831577090893280e-01  6.7832293218173489e-01  6.7618363887015231e-01  6.8817321423412070e-01  6.7831131491218866e-01  6.7620787169159624e-01  6.8818218183077773e-01  5.5688896313257363e-01  5.5940948991519968e-01  5.4936584095527241e-01  5.4932933549273311e-01  5.5937531414954522e-01  5.5685007681790721e-01  5.5676517292865058e-01  5.5928871057144014e-01  5.4923293957839270e-01  5.5665927305197704e-01  5.5918132358241945e-01  5.4911364515720684e-01  5.5656022599117161e-01  5.5907453036160204e-01  5.4901032042034570e-01  5.4896023596935895e-01  5.5899077464603852e-01  5.5648720664657403e-01  5.4899792930381230e-01  5.5895573234959628e-01  5.5643954823586139e-01  6.0281224689795265e-01  5.9369820501491655e-01  6.0345268230711879e-01  6.0346021324790955e-01  5.9369992885565204e-01  6.0280743331375453e-01  5.9370170839654834e-01  6.0278456677766756e-01  6.0345050666488698e-01  5.9368138615853927e-01  6.0274099349113541e-01  6.0341700767298478e-01  5.9362841868200544e-01  6.0266078600035489e-01  6.0334749684368483e-01  5.9353293981610067e-01  6.0253250341444164e-01  6.0323095797251669e-01  6.0236006119577634e-01  5.9338035268151945e-01  6.0306564253502304e-01  7.0341543598115641e-01  6.9706335090483029e-01  6.9622680001928627e-01  6.9709622150169903e-01  7.0345369739458474e-01  6.9626778788004196e-01  6.9640123028221590e-01  6.9720696123718839e-01  7.0356248956891798e-01  6.9660593554622419e-01  6.9738746868101720e-01  7.0373269954229056e-01  6.9686954940930135e-01  6.9763391031205768e-01  7.0395710427144198e-01  6.9718465823124365e-01  6.9794724130647534e-01  7.0423272218630228e-01  6.9754870259965029e-01  6.9832966782286621e-01  7.0458190086641226e-01  6.1949414671835024e-01  6.1201308213292882e-01  6.0687590921408729e-01  6.0687105297342325e-01  6.1201456391264819e-01  6.1950211864611571e-01  6.0685562888241651e-01  6.1202200820023567e-01  6.1952519182551957e-01  6.0681046916560888e-01  6.1200741824391747e-01  6.1953558862350755e-01  6.0671617452089510e-01  6.1194082476001610e-01  6.1949796093369713e-01  6.0655659274404472e-01  6.1179475747657408e-01  6.1937966975569103e-01  6.0632031254376095e-01  6.1154976883673773e-01  6.1915129254620971e-01  5.5289338085508632e-01  5.4794942604793939e-01  5.4794279934248258e-01  5.5289063940583472e-01  5.5288211593376591e-01  5.4793195186402288e-01  5.5287451293703860e-01  5.4792354093277074e-01  5.5287559266220299e-01  5.4791947234969895e-01  5.5289153131354507e-01  5.4792474214579190e-01  5.5292013475758650e-01  5.4793879769126741e-01  6.8614992004883713e-01  6.8888748380164422e-01  6.8896559099786026e-01  6.8618998092689998e-01  6.8632928824463235e-01  6.8915424970127526e-01  6.8654198556605883e-01  6.8941912252659798e-01  6.8681798537535343e-01  6.8974058266162552e-01  6.8714892577786213e-01  6.9010233456814229e-01  6.8752207852157010e-01  6.9046773636636438e-01  5.8867862157378203e-01  5.8869877943367988e-01  5.8875301485653453e-01  5.8882272833275495e-01  5.8889595376391246e-01  5.8896104879355593e-01  5.8900474474635001e-01  5.0917593972443709e-01  5.0763607626711427e-01  4.9829040714939982e-01  5.0775028996399552e-01  4.9817515364579484e-01  5.0912991818983555e-01  5.0755712350159754e-01  6.3497524313571996e-01  6.2269519302318888e-01  6.2376457735156476e-01  6.2375963335513529e-01  6.2269496710915517e-01  6.3496079495146940e-01  6.2269661525152331e-01  6.3493166955297575e-01  6.2374951665852418e-01  6.3488889484874134e-01  6.2269497162652021e-01  6.2372751094384482e-01  6.3483174305868806e-01  6.2268428932695064e-01  6.2368737533519802e-01  6.3475726018585843e-01  6.2265637694930498e-01  6.2361949506053527e-01  6.3466049290949444e-01  6.2259644560081984e-01  6.2351060869769281e-01  7.5216607088833320e-01  7.4122192052490832e-01  7.4942146954341393e-01  7.4945937953186992e-01  7.4126131511716031e-01  7.4135831872398650e-01  7.5222971580001041e-01  7.4955570992688758e-01  7.4970341717746092e-01  7.4150575141331165e-01  7.5232578061777555e-01  7.4989757716976380e-01  7.4169619237884998e-01  7.5248067401777041e-01  7.5013536145985116e-01  7.4192379995439328e-01  7.5271387884996521e-01  7.5041209000426423e-01  7.4219113941826476e-01  7.5305347846012338e-01  6.5367649589284949e-01  6.4045570734047641e-01  6.4266359339709977e-01  6.4268300475070816e-01  6.4048008493045872e-01  6.5370665837455288e-01  6.4274810672006499e-01  6.4055122904891459e-01  6.5379641953819512e-01  6.4286737125065685e-01  6.4067651611525045e-01  6.5395027226547053e-01  6.4305910739574146e-01  6.4087289113882717e-01  6.5418759406798188e-01  6.4334419211708749e-01  6.4115898854313758e-01  6.5452475910834151e-01  6.4374566416248991e-01  6.4155964742487714e-01  6.5496988055463512e-01  5.8156795086512236e-01  5.8358092798058936e-01  5.9218176497630515e-01  5.9221599220883703e-01  5.8358260416294561e-01  5.8159998394244727e-01  5.9230716362703417e-01  5.8357049519098880e-01  5.8162065503762594e-01  5.9238240103615669e-01  5.8353189640283720e-01  5.8161148215436675e-01  5.9239935334929550e-01  5.8345484669488668e-01  5.8156347820092580e-01  5.9232310423353618e-01  5.8332991731574990e-01  5.8147249564307379e-01  5.9211980552385890e-01  5.8316001068067203e-01  5.8135342494642139e-01  7.7221434259666588e-01  7.6455804421086437e-01  7.6233680453221819e-01  7.6247634692312427e-01  7.6467500986179349e-01  5.4491871000382519e-01  5.3691779371182202e-01  5.3336042813635487e-01  5.3337052566647869e-01  5.3695095692921069e-01  5.4492656802283124e-01  5.3337406009307642e-01  5.3699593069663354e-01  5.4495969762711083e-01  5.3338527716542328e-01  5.3705130151420388e-01  5.4500413805935455e-01  5.3340266812246295e-01  5.3709867825194035e-01  5.4504172074794377e-01  5.3342908116062870e-01  5.3712032142463428e-01  5.4505441326552850e-01  5.3347910621018657e-01  5.3711285204930725e-01  5.4503208900129430e-01  6.3278794496706059e-01  6.3836351363981547e-01  6.2693041274508654e-01  6.2692560813156506e-01  6.3840546840830759e-01  6.3281083805696270e-01  6.2693409542723522e-01  6.3851820324644459e-01  6.3289354970194467e-01  6.2696834455604555e-01  6.3869233674292836e-01  6.3302452004448639e-01  6.2704693019544200e-01  6.3891888552857401e-01  6.3321182356440742e-01  6.2718441357900323e-01  6.3919111799689388e-01  6.3346086197478491e-01  6.2738500657312768e-01  6.3949528963739244e-01  6.3376151941086356e-01  7.1154256752948375e-01  7.0131891979445427e-01  7.1191945243764176e-01  7.1183785231223884e-01  7.0130582877853775e-01  7.1149861134609060e-01  7.0126026519722640e-01  7.1135417078558250e-01  7.1157326760421180e-01  7.0120877556373618e-01  7.1116133976962848e-01  7.1125480865200874e-01  7.1101091948003137e-01  7.0119371753871329e-01  7.1099873739557651e-01  7.1104675549793794e-01  7.0128096030258813e-01  7.1097067424170801e-01  7.1151440180093151e-01  7.0172054318221377e-01  7.1141895153494072e-01  5.4255895388691178e-01  5.3047712410226677e-01  5.4098551483504109e-01  5.4099629575384856e-01  5.3047609804305740e-01  5.4257512394511109e-01  5.4101243666411436e-01  5.3047728220008772e-01  5.4261853825212847e-01  5.4102847255183872e-01  5.3047215868198261e-01  5.4266664110473928e-01  5.4103608306161555e-01  5.3045762007117858e-01  5.4270615165555003e-01  5.4102766486520104e-01  5.3043135458391599e-01  5.4272605075945723e-01  5.4099601073577830e-01  5.3038601264847807e-01  5.4271345737984067e-01  7.0363571026110627e-01  6.9265711928595963e-01  6.9515422783105241e-01  6.9515060611616886e-01  6.9265403274224879e-01  7.0363852179299624e-01  6.9514058918904398e-01  6.9264272194044207e-01  7.0365013014206790e-01  6.9511880228727596e-01  6.9262287507430087e-01  7.0366100143498145e-01  6.9508157792129344e-01  6.9259179014000471e-01  7.0366418340398740e-01  6.9502527525105573e-01  6.9254614329556663e-01  7.0365299354081678e-01  6.9494584199770371e-01  6.9248462336096228e-01  7.0361748120039513e-01  6.1315404596584322e-01  6.0707379471313128e-01  6.0135801729907690e-01  6.0136012277691964e-01  6.0707780688678248e-01  6.1315122191521032e-01  6.0136736488518294e-01  6.0707469050038532e-01  6.1312459506642936e-01  6.0135260500671739e-01  6.0704505157544553e-01  6.1307090448152424e-01  6.0129129934999292e-01  6.0697103010194142e-01  6.1296880336915793e-01  6.0116490427205371e-01  6.0683792673959958e-01  6.1280057623927375e-01  6.0096051624163571e-01  6.0663227615949511e-01  6.1258943338717464e-01  5.6620259447785881e-01  5.6227444389412007e-01  5.5326846841600352e-01  5.5331555810688915e-01  5.6228659712078355e-01  5.6623305592557593e-01  5.6232700110468659e-01  5.6630204105189663e-01  5.5343490326493805e-01  5.6238212390827813e-01  5.6638582555610073e-01  5.5357754971840956e-01  5.6646774321478444e-01  5.6244087354180961e-01  5.5372333088983627e-01  5.6653188979623958e-01  5.6249994365822797e-01  5.5384761570258756e-01  5.6657287810674783e-01  5.6257094746368141e-01  5.5389548006151401e-01  5.9825423972846425e-01  6.0073721490827214e-01  5.8996431021530094e-01  5.8995263932215858e-01  6.0071291196949028e-01  5.9825526669143991e-01  5.8993749024064679e-01  6.0064966873947756e-01  5.9826659190108844e-01  5.8993417292928885e-01  6.0060203634638620e-01  5.9829970776628760e-01  5.8996990031657581e-01  6.0059274644907779e-01  5.9837389763472482e-01  5.9006821722721092e-01  6.0064445577595327e-01  5.9850341216346448e-01  5.9024847256710911e-01  6.0078950220822724e-01  5.9869257967036349e-01  4.9203611966411093e-01  4.9965061558207030e-01  4.9971397409508794e-01  4.9969212742223196e-01  4.9964046604476264e-01  4.9200748527050525e-01  4.9963096634945570e-01  4.9961398667615775e-01  4.9193946508777092e-01  4.9954586239763871e-01  4.9957160568391729e-01  4.9184673519229238e-01  4.9945071398226237e-01  4.9951739551454594e-01  4.9173983587672637e-01  4.9935945151433653e-01  4.9945512696885030e-01  4.9162963685105621e-01  4.9928795087294864e-01  4.9938501589500273e-01  4.9153389741712911e-01  5.3576162775374236e-01  5.3094436471156281e-01  5.2562722482922608e-01  5.2565883154138737e-01  5.3093202887894952e-01  5.3576121862500525e-01  5.2573982546103770e-01  5.3089752436809801e-01  5.3576417024109024e-01  5.3087273478833119e-01  5.3577867245063493e-01  5.2584535000543775e-01  5.3086423934374805e-01  5.3581889811553673e-01  5.2597122390391893e-01  5.3087976694400441e-01  5.3590223128079861e-01  5.2611344902342383e-01  5.3097647105962464e-01  5.3604464609247293e-01  5.2624690727777956e-01  7.6386369908100360e-01  7.7339621913275336e-01  7.6217235144067319e-01  7.6219169948785936e-01  7.7339883195430437e-01  7.6387621410053241e-01  7.6391024667739116e-01  7.7340952070335101e-01  7.6224571194626611e-01  7.6392140440768264e-01  7.7339320850114524e-01  7.6227912244639273e-01  7.6387626955291954e-01  7.6225357561397866e-01  5.3209515749009551e-01  5.3208728886432011e-01  5.3209099198003595e-01  5.3210125688986309e-01  5.3212304934435950e-01  5.3216445337845208e-01  5.3222890878784113e-01  7.0157593289373910e-01  6.9200483419224235e-01  6.9163176415187178e-01  6.9161193231691220e-01  6.9203951927299079e-01  7.0157089030228381e-01  6.9157251386234786e-01  6.9214557599928650e-01  7.0152298487062204e-01  6.9232801764273699e-01  7.0148183895344485e-01  6.9157839870329918e-01  6.9260190580819159e-01  7.0151788416487337e-01  6.9167074377108106e-01  6.9300711429557538e-01  7.0172294351699294e-01  6.9190781545869073e-01  6.9358915637282947e-01  7.0221109466357734e-01  6.9245082811908520e-01  6.3486255779349743e-01  6.3128076521480414e-01  6.2310147462477761e-01  6.2309005169511078e-01  6.3127695378901083e-01  6.3485638779192766e-01  6.3125416810929147e-01  6.3483382656437082e-01  6.2305679517772583e-01  6.3120938094057266e-01  6.3479059543738736e-01  6.2300318701707980e-01  6.3113697043906247e-01  6.3471955563821725e-01  6.2292430151859624e-01  6.3103020655190989e-01  6.3461421202145141e-01  6.2281636490626124e-01  6.3088331237503470e-01  6.3447185403604200e-01  6.2268055374354103e-01  6.3770283699768393e-01  6.2722355417388653e-01  6.3127116732305755e-01  6.3124175054800447e-01  6.2721852587073013e-01  6.3766870373036821e-01  6.3117781391328776e-01  6.2719871710267883e-01  6.3758129334172631e-01  6.3109033661391334e-01  6.2716022225597390e-01  6.3746783828565967e-01  6.3099278923607538e-01  6.2710514851754695e-01  6.3734425141093853e-01  6.3089672654691054e-01  6.2703261273205424e-01  6.3722782353342478e-01  6.3081290510272103e-01  6.2693111229540233e-01  6.3713880212899876e-01  5.3534795617022690e-01  5.3266938006863018e-01  5.2477627735731180e-01  5.2478185081286610e-01  5.3269964781483403e-01  5.3536229867704788e-01  5.3539643926705982e-01  5.3279863861706278e-01  5.2484286379469824e-01  5.3545343928938638e-01  5.3293759487045433e-01  5.2493982586604515e-01  5.3310268447803044e-01  5.3553356152813769e-01  5.2507372942359520e-01  5.3328297002668745e-01  5.3563307002149829e-01  5.2524329845205353e-01  5.3347031501695530e-01  5.3575683442381561e-01  5.2542742276243160e-01  7.0954078748835969e-01  7.0610794698692159e-01  6.9906596074427574e-01  6.9910869798185771e-01  7.0613839925665245e-01  7.0957445437761124e-01  6.9923829140024207e-01  7.0623035555812497e-01  7.0966637300049074e-01  6.9943680818694454e-01  7.0638201313228910e-01  7.0981199148263308e-01  6.9968736899043626e-01  7.0658656124356323e-01  7.1000285978373867e-01  6.9997739809911819e-01  7.0684369307874362e-01  7.1023206687867824e-01  7.0031758404157896e-01  7.0715835221002132e-01  7.1049793280673090e-01  7.7849073288497939e-01  7.8130877949964972e-01  7.7059379562859587e-01  7.7059868255300956e-01  5.7945063308311162e-01  5.7553299130761371e-01  5.6897227997059630e-01  5.6897879815213448e-01  5.7554155785859329e-01  5.7945880965777485e-01  5.7556298174034770e-01  5.7947824304223527e-01  5.6899638289214027e-01  5.7558798897072661e-01  5.7949898950581380e-01  5.6901677628052316e-01  5.7560950129077326e-01  5.7951455752940595e-01  5.6903326818355282e-01  5.7562038189875786e-01  5.7951933255873356e-01  5.6903935116790716e-01  5.7560985629103867e-01  5.7950290387788661e-01  5.6902826323133515e-01  6.1165648033351094e-01  6.0308012867544292e-01  6.0033750893508320e-01  6.0030276760802359e-01  6.0308146263245899e-01  6.1164654728395518e-01  6.0022345358271689e-01  6.0305190263418995e-01  6.1160902292246111e-01  6.0011703590906684e-01  6.0299963245549049e-01  6.1154360141993935e-01  5.9999825525914474e-01  6.0293287280744445e-01  6.1145372446874280e-01  6.0285865619871370e-01  6.1134033962493994e-01  5.9987693298765266e-01  6.0278229431785224e-01  6.1119822126139034e-01  5.9975991062903722e-01  6.9930963000158808e-01  6.9051820166344580e-01  6.8986586427586805e-01  6.8987688513892687e-01  6.9052706662256880e-01  6.9932163544163584e-01  6.9055440488484088e-01  6.9935588011965477e-01  6.8990656305938325e-01  6.9940564198321420e-01  6.9059449960247077e-01  6.8994730349377875e-01  6.9946566652108788e-01  6.9064333317240445e-01  6.8999267740199532e-01  6.9953108843246514e-01  6.9069898056659751e-01  6.9003672437598373e-01  6.9959634010981020e-01  6.9076073726632736e-01  6.9007438067442695e-01  5.6056259593877034e-01  5.5310233122843389e-01  5.6405570428870677e-01  5.6403389108976631e-01  5.5310755391608935e-01  5.6051865004928703e-01  5.6039580202405981e-01  5.5307528638631642e-01  5.6397485271165615e-01  5.6022705628224778e-01  5.5302796351782346e-01  5.6388915184327437e-01  5.5296688303037056e-01  5.6004113449543180e-01  5.6378833969768238e-01  5.5288835444237305e-01  5.5987643916332663e-01  5.6368569624797193e-01  5.5280059756161160e-01  5.5981688212655634e-01  5.6359713124778299e-01  6.5345250130151511e-01  6.5349789497595145e-01  6.5361471773709501e-01  6.5380254372578039e-01  6.5407222325545356e-01  6.5443213220843011e-01  6.5487864617091118e-01  7.0189970313360606e-01  7.1247036724984791e-01  7.1243042552488434e-01  7.0189659975145113e-01  7.0183226812898170e-01  7.1230362287912530e-01  7.0175169834101569e-01  7.1216666778922111e-01  7.0171100284569665e-01  7.1210137393904471e-01  7.0181091228586934e-01  7.1219807581430261e-01  7.0234647552074791e-01  7.1251082759584572e-01  7.1558417805670282e-01  7.0399924942185199e-01  7.1141279721852413e