<?xml version="1.0"?>
<VTKFile type="UnstructuredGrid"  version="0.1"  >
<UnstructuredGrid>
<Piece  NumberOfPoints="970" NumberOfCells="4189">
<Points>
<DataArray  type="Float64"  NumberOfComponents="3"  format="ascii">3.090712136085501 3.720948950975469 2.858471074013983  3.149253561589558 3.632211317963186 2.961336979739941  3.202882518364831 3.66841312698491 2.86037832298124  3.227488149634823 3.719070485395668 2.890542470822694  3.172480080199433 3.682775090741899 2.991466372445062  3.113341558499093 3.773726093134361 2.889034653469623  3.19545415978803 3.733615942585698 3.021536846627809  3.13575723496617 3.826683752678677 2.919537227318769  3.251839391078984 3.770041893137889 2.920652016408046  3.218390403682144 3.784588513675263 3.051674619119936  3.158105088782025 3.879738052331261 2.950053740197849  3.276159564824959 3.821161216371389 2.95083428722745  3.180495774128689 3.932807249244101 2.980610974453975  3.241410688926829 3.835633470708034 3.081897534444044  3.300576306276182 3.872336294550011 2.981102492371307  3.203016931922861 3.985814794976482 3.011226752584449  3.264625488995217 3.886663547692261 3.11221340607416  3.325206424991556 3.923480998744662 3.011479768218424  3.225730989058279 4.038675465531924 3.041908240934304  3.288163292535236 3.937573950981149 3.142660948434879  3.350155324002604 3.974470379633787 3.041989149737127  2.986277671797887 3.592598128501711 3.137398683642794  3.041567774085228 3.496060869518975 3.247244131348483  3.115823031504233 3.536779643129708 3.140938818518286  3.135990855060174 3.586671188653702 3.172534161838594  3.059474701957411 3.544511635526056 3.28258735655184  3.006577463119065 3.642490950397726 3.17065842148482  3.077152020521054 3.593136194949722 3.317906482004051  3.026660367657235 3.692569711959859 3.203866847965311  3.155911798948797 3.63681525168885 3.204114823865409  3.094785876144126 3.641860323570544 3.353308462808317  3.046696776724841 3.742734425224227 3.237124787338001  3.175786966340119 3.687094011344705 3.235779187714699  3.112468595399797 3.690644992222295 3.388783298753195  3.066776213068878 3.79293395446035 3.270434493832522  3.195735297288416 3.737457363154048 3.267528488038144  3.130283361406509 3.739450132047952 3.424324921882187  3.086990304243241 3.843112908877038 3.30380329963597  3.215863688299354 3.787853571899883 3.299369851968494  3.107414666325414 3.893207575615107 3.337237100753099  3.148323902198049 3.788235497488218 3.459942637152615  3.236281317623143 3.838223817029808 3.331303325889435  2.820731287567142 3.508943699533167 3.327927496788878  2.900762578416398 3.559716878095457 3.238164094334091  2.787991127870957 3.621125335142153 3.214631296558807  2.806989393869743 3.670162074058966 3.251845732481587  2.919302513688376 3.60798915781226 3.27509769678997  2.838114047179361 3.554902916448249 3.367917369153992  2.825827421804375 3.719309669217432 3.289024950603445  2.93764902359691 3.65643289615987 3.31200252896593  2.855296315272914 3.600991618194576 3.407870075934251  2.844613311835037 3.768483358076458 3.326219063995225  2.955960719983703 3.704929591342174 3.348951677607486  2.87242110453756 3.647116010318209 3.447858209389945  2.863412772920471 3.817641958491854 3.363431172080416  2.974309257283959 3.753444727146863 3.385945649045448  2.889562203156963 3.69324617556362 3.487879651301826  2.882283645002977 3.866746905644245 3.400665040759265  2.992773028971054 3.801943055565843 3.422990129571316  2.906792727924162 3.739352215305968 3.527932392218974  3.011434131106305 3.850387007097149 3.460089013368075  2.924191161236933 3.785400230082424 3.56800951892843  2.901291639773018 3.915743947142503 3.437925105508757  2.970661497336727 2.941733734300413 3.805232978036947  3.003699485289884 2.795908100102143 3.898981283261265  3.11445703294627 2.851525026546283 3.871402112890002  3.113022688792225 2.889257732794711 3.926330670658063  3.00071358387055 2.829352474525627 3.956250334964079  2.972313988181754 2.979012415471084 3.858105221888468  2.997751248684766 2.862524970123393 4.013501019162925  2.973921394374294 3.016058150756107 3.911020513971242  3.111581873077067 2.926715648089388 3.981302851121221  2.994776177341594 2.895542947656563 4.070675050490751  2.975466489770794 3.052996926486638 3.963916452887054  3.110094864049846 2.964042902806547 4.036250399966455  2.991763928105214 2.928493502366791 4.127764880005215  2.976951599629385 3.089900493152421 4.016751891513289  3.108551714198577 3.001324417046731 4.091127277961774  2.988701340450031 2.961428601318871 4.184747934555795  2.97839529263278 3.126817947576767 4.069503378246859  3.106953925676286 3.038616325897386 4.145905495518249  2.98557021823212 2.994394897782842 4.241609725528157  2.979815435001005 3.163802966815235 4.122149779177036  3.105314251930177 3.075961300388763 4.200553626864056  3.037485104277719 3.052623679266858 3.714879405338707  3.082324273738312 3.155723522484229 3.620614626364137  2.970723469998635 3.130412042594987 3.659299660152511  2.977085442483511 3.170939977879879 3.707417645847115  3.089162560401963 3.198854196640382 3.666480383871189  3.041633667669929 3.092978050232251 3.764288744833563  3.045695164146265 3.133167932617154 3.813800167860077  3.09586961535733 3.241899636525011 3.712462581173241  2.983343904863409 3.211365737911699 3.755630700739235  3.049672209444761 3.173290722842612 3.863342709545708  3.102485842976654 3.284931330079036 3.758513191664669  2.989517721303178 3.251754420373655 3.803873672731271  3.053593292385719 3.213406763391983 3.912879829065953  3.109062614872809 3.328000806445415 3.804599448599834  2.995655969547755 3.292148415522258 3.852130341234437  3.115649401439921 3.371155587639342 3.850696800849141  3.057492253392887 3.253571548804204 3.96237766228496  3.001793329046811 3.332599721435746 3.900384162294184  3.12229575057787 3.414446035905609 3.89677721666129  3.061395772344254 3.293847592279364 4.011794354933333  3.007969237482556 3.373171165043966 3.948619686859945  2.443970551580863 3.315833054864698 3.625001279771995  2.590341529485928 3.213873630317342 3.661497006504904  2.577792285708411 3.352077734889897 3.565616105753654  2.591492855817802 3.390173393331451 3.614716143149491  2.60090012913469 3.249464845158539 3.712722964332955  2.456705202875945 3.351409060035616 3.676487062958095  2.611334632854301 3.284995701796586 3.763953133094765  2.469306107946542 3.386968109096926 3.727929621204423  2.605039451820419 3.428292687566302 3.663798687103273  2.621697481417077 3.320484438545936 3.815156349990385  2.481860702886153 3.422479559534562 3.779344623129396  2.6185278302103 3.466386517497785 3.712878072323193  2.632052035717146 3.355932473458534 3.866341259518582  2.494413209554226 3.457945512822089 3.830734721668238  2.632016661103395 3.504449198062361 3.761953676715981  2.642430446163439 3.391365230062704 3.917496730143569  2.506997798686751 3.493373834928133 3.882093355433254  2.645556551703366 3.542485400040501 3.811016556495593  2.652872252552539 3.426806851918021 3.968608573809208  2.519656191426783 3.528768772135739 3.933407553576109  2.659204115533098 3.580489152328511 3.860048916094354  3.163741044463531 3.055715278804398 3.704365535870997  3.1672428005499 3.098815609723992 3.752177421096534  3.170646746981924 3.141750452549303 3.800146118132023  3.173959613706581 3.184631014774613 3.848176279495837  3.177208281370874 3.227536135405954 3.896218503884163  3.180431244275497 3.270529154412568 3.944242970963267  3.183675309560144 3.313680484017608 3.992199867733167  2.263739095604346 3.989393029589581 2.675945984533044  2.353332177045723 3.994619097826134 2.592558501573133  2.256276178222203 4.015416106807783 2.526298349788457  2.264968825426187 4.082125262391201 2.536177822936178  2.362181260409959 4.061099769480291 2.604097458431347  2.271501186037751 4.054915535039754 2.690033470458574  2.370953939071256 4.127457379380338 2.615659680856523  2.279208577712434 4.120307232794939 2.70411118756  2.273557138964084 4.148675326484358 2.546076117649395  2.37967178116498 4.193684129113223 2.62721700500717  2.286867058172065 4.185550555348672 2.718165349011371  2.282081941706424 4.215086121270216 2.555969156549196  2.38835590426643 4.259788413870996 2.638759640997301  2.294495572600272 4.250657298503577 2.732199004058616  3.076298985872936 3.38457634063014 3.374025248217059  3.162501659847572 3.430754102287368 3.280543500950255  3.179665916933239 3.480032388314424 3.31429244015428  3.090823460682293 3.432001739379634 3.411743414161654  3.196592179572094 3.529539707707255 3.348117492912951  3.105141203170959 3.479557077378597 3.449513681526354  3.213458199353285 3.579183532035726 3.382056177927662  3.119392720160763 3.527194643476439 3.487374592605122  3.230388290768343 3.628935316060894 3.416087211458825  3.133676315439286 3.574910554860476 3.525324830806683  3.247494726921102 3.678791712908635 3.450208865306728  3.148078370544508 3.622702154716962 3.563344668780445  3.26489812989024 3.728704404334838 3.484426472604678  3.162690003117009 3.670572877023677 3.601438035223623  2.763697831002166 3.80656762028744 2.924302968967245  2.937841376857757 3.745683902424954 2.924913756808267  2.864841965034201 3.817713144340849 2.839041648790874  2.882830809276775 3.876076891256537 2.866633481769498  2.958527547519826 3.799981706566086 2.955295621813418  2.782259133316284 3.863797288864566 2.952854799841286  2.900656232552805 3.934441026662773 2.894151159603251  2.979001729636716 3.854389493958998 2.985598182607595  2.800646822256732 3.921021146388345 2.98133106196736  2.918395470011302 3.992781882119343 2.921633509939295  2.999397417380621 3.908834387853551 3.015883249079161  2.818947796413277 3.978209414798778 3.009767575638004  2.936114936464128 4.051069292741908 2.949102566650463  3.019801061690873 3.963262369460008 3.046175643611598  2.837223469155231 4.035334156693275 3.03818788263315  2.953867836754327 4.109270322943645 2.976563075990807  3.040285360772465 4.017619132174453 3.076485436260492  2.855519120443873 4.092359774850128 
[...]
<PointData  Scalars="f_14"> 
<DataArray  type="Float64"  Name="f_14"  format="ascii">7.6531926122454341e-01  7.5811563326914766e-01  7.5435010250465773e-01  7.5433757220710573e-01  7.5811437221532840e-01  7.6532349340320582e-01  7.5810417717479817e-01  7.6533449221776917e-01  7.5431003766093185e-01  7.5810049627459586e-01  7.6535942611057861e-01  7.5428802714110854e-01  7.6541123628054197e-01  7.5812854726099144e-01  7.5430221781067253e-01  7.6550052919428890e-01  7.5821490516911139e-01  7.5438282204220619e-01  7.6562848428710806e-01  7.5838317583385095e-01  7.5455246091540717e-01  7.7150292966486189e-01  7.6510351038027846e-01  7.5919782318205931e-01  7.5920997632215304e-01  7.6511689477522671e-01  7.7151298782601352e-01  7.6514078977282274e-01  7.7152994755546223e-01  7.5923016190801251e-01  7.6517528893561271e-01  7.7155882973297640e-01  7.5925904588316118e-01  7.6522849056284203e-01  7.7161668417906315e-01  7.5931211640981311e-01  7.6530989239194924e-01  7.7172136621410736e-01  7.5940526101489980e-01  7.7188736600569852e-01  7.6542803301373941e-01  7.5954387682020119e-01  7.8450974937350648e-01  7.7846623490447309e-01  7.8920254465365169e-01  7.8920710245929726e-01  7.7847367381591115e-01  7.8451005504668525e-01  7.8921776071854122e-01  7.7850058841730752e-01  7.8451165107701015e-01  7.8924006905336930e-01  7.7854271164434941e-01  7.8451993301539313e-01  7.8928924381552457e-01  7.7861186912227831e-01  7.8455204210176654e-01  7.8937788244617535e-01  7.7872021308333172e-01  7.8462822083449479e-01  7.7887673932036838e-01  7.8476594351889950e-01  7.8950772013210002e-01  7.6503814169572248e-01  7.6122699799449434e-01  7.5154804613424209e-01  7.5152043583163197e-01  7.6122607424615274e-01  7.6501695797774305e-01  7.6121021156879165e-01  7.6496425641627153e-01  7.5146880023055085e-01  7.6116839825783900e-01  7.6488047169316054e-01  7.5138175833579934e-01  7.6108254687638655e-01  7.6476297473159871e-01  7.5124741379394677e-01  7.6093136761450764e-01  7.6460020980017640e-01  7.5104846168197992e-01  7.6067538885472241e-01  7.6437596949525932e-01  7.5077148150092277e-01  7.5998674242894049e-01  7.5699534870897167e-01  7.6668962779401817e-01  7.6668891475408596e-01  7.5698502853347804e-01  7.5996659663438471e-01  7.5992394125311535e-01  7.5695427346779565e-01  7.6667751973010823e-01  7.5985378390194025e-01  7.5689999701437016e-01  7.6665355618315434e-01  7.5975181774919576e-01  7.5682096554640854e-01  7.6661049745004373e-01  7.5671369190501503e-01  7.5961115502919496e-01  7.6654136741427570e-01  7.5657395061556587e-01  7.5941788054537640e-01  7.6644237161392104e-01  8.1497815977220434e-01  8.0104089517706911e-01  8.0365799791940307e-01  8.0363259371411877e-01  8.0104138999999075e-01  8.1495284443212190e-01  8.0101506750247287e-01  8.1488587295819992e-01  8.0359004654528365e-01  8.0098343396487603e-01  8.1480924084960371e-01  8.0354480261438110e-01  8.0096406262792230e-01  8.1475647140181251e-01  8.0352029988455431e-01  8.0097744204775467e-01  8.1476135498270807e-01  8.0354285263759839e-01  8.0104100450324378e-01  8.1485591506363964e-01  8.0363342895511380e-01  7.4874299162017055e-01  7.4872814452582903e-01  7.4867535051689393e-01  7.4858461090967932e-01  7.4845386940532599e-01  7.4827816668849745e-01  7.4805387260923384e-01  8.3970553283451765e-01  8.3249053269291451e-01  8.4065126994864725e-01  8.4062842228789714e-01  8.3247855485601474e-01  8.3970000333995343e-01  8.3245200603867642e-01  8.3968709453187473e-01  8.4055951386789074e-01  8.3240977999713150e-01  8.3965955689205318e-01  8.4046285676299248e-01  8.3235249847097792e-01  8.3961822639508188e-01  7.6035105047919893e-01  7.5340060032039902e-01  7.5338597622343517e-01  7.6035321063951433e-01  7.5335192615006652e-01  7.6036151929031404e-01  7.5331357128086029e-01  7.6037125165779651e-01  7.5328595375309970e-01  7.6038672708961752e-01  7.5328814718376780e-01  7.6041579906664736e-01  7.5335622097813304e-01  7.6045979437643263e-01  7.9485444244076986e-01  7.7888269154508838e-01  7.8684065297837791e-01  7.8686258080958971e-01  7.7888761647373284e-01  7.9483882985006282e-01  7.8690859181653428e-01  7.7890011763283307e-01  7.9480268162381462e-01  7.8696592843775171e-01  7.7892659167731748e-01  7.9476832292170241e-01  7.8703207376879492e-01  7.7897669107267942e-01  7.9474681846726347e-01  7.8710327754510712e-01  7.7905846715636762e-01  7.9474783342506494e-01  7.8716770773047651e-01  7.7917079832858838e-01  7.9479078712697715e-01  7.8721909145065161e-01  7.8721630527988373e-01  7.8721635238839494e-01  7.8722701139788542e-01  7.8726193952071699e-01  7.8733298397120310e-01  7.8744133847050712e-01  7.9823035529524022e-01  7.9156367564537278e-01  8.0195037875414699e-01  8.0195401023150303e-01  7.9155269060113509e-01  7.9822100882498903e-01  8.0196889860912846e-01  7.9151438569643506e-01  7.9821010370913070e-01  8.0199129828501980e-01  7.9147637098937618e-01  7.9820243074360819e-01  8.0203715506903361e-01  7.9146209415084368e-01  7.9821542631134368e-01  8.0211939966772150e-01  7.9149601604504904e-01  7.9826777757319856e-01  8.0223636249599772e-01  7.9161180930422625e-01  7.9836734066461157e-01  7.9497555438361267e-01  7.8487034367080066e-01  7.9428488556288646e-01  7.9429700255426239e-01  7.8489824974026212e-01  7.9498895975494455e-01  7.9432470907976527e-01  7.8497644361461349e-01  7.9500199162695018e-01  7.9434801229599983e-01  7.8506964684552760e-01  7.9501043042245823e-01  7.9435039665557106e-01  7.8515000249887401e-01  7.9500717051141823e-01  7.9431709973590603e-01  7.8519732094242867e-01  7.9498632511406697e-01  7.9423827270642622e-01  7.8519203708658725e-01  7.9494641445458081e-01  7.7646099499363364e-01  7.6527084533850043e-01  7.7541253066077898e-01  7.7545520432577075e-01  7.6527837550713729e-01  7.7648197684794118e-01  7.7554296243014698e-01  7.6529169485912141e-01  7.7650934325560650e-01  7.7565027571364287e-01  7.6532041172134735e-01  7.7655303901877404e-01  7.7575322096930299e-01  7.6536962321881508e-01  7.7661155787024416e-01  7.7582901592475284e-01  7.6544033362226527e-01  7.7668302300861103e-01  7.7585990370582814e-01  7.6552775287295260e-01  7.7677074735874740e-01  7.7090627788619615e-01  7.7088919401276967e-01  7.7085086888335230e-01  7.7079434469708852e-01  7.7071822292977199e-01  7.7062249019019169e-01  7.7050617609674854e-01  7.6834991400472852e-01  7.6835356339435323e-01  7.6835658310663679e-01  7.6837189558389674e-01  7.6841722987601191e-01  7.6850937122864915e-01  7.6865991492854091e-01  7.7661339807974639e-01  7.7661175609619182e-01  7.7660181609443069e-01  7.7658354639455496e-01  7.7655778566102796e-01  7.7652789964684421e-01  7.7650197223507311e-01  7.4123768498578912e-01  7.4743160340414372e-01  7.3448395940672773e-01  7.4743978943916822e-01  7.3441872473079239e-01  7.4112691267612452e-01  7.4741382607228257e-01  8.1230706643083073e-01  8.2347722722142547e-01  8.2359154773531540e-01  8.1238779574048370e-01  8.2347218659018373e-01  8.2607853409415877e-01  8.2609834728032960e-01  8.2611552077597783e-01  8.2622742546336470e-01  7.9549060370899904e-01  7.9547721427841689e-01  7.9545034337764009e-01  7.9542811143805658e-01  7.9543307779925276e-01  7.9548874755481469e-01  7.9561181192591757e-01  7.7539100437979258e-01  7.6749655534749661e-01  7.7849480018863193e-01  7.7850243243615858e-01  7.6748756906521931e-01  7.7539437701645386e-01  7.7853200523326394e-01  7.6748095012130124e-01  7.7541623302621210e-01  7.7857336652514364e-01  7.6747652563237367e-01  7.7544604898847591e-01  7.7863022341886856e-01  7.6747725145411860e-01  7.7548039713828210e-01  7.7870889655234876e-01  7.6748776918886008e-01  7.7552040203490280e-01  7.7881008626504977e-01  7.6751380492600474e-01  7.7556381883644221e-01  8.3692123590157885e-01  8.3158931044864626e-01  8.4080225402788633e-01  8.4079699093263138e-01  8.3160844873648854e-01  8.3692289562849120e-01  8.3694015294864466e-01  8.3163120669017754e-01  8.4077775966154156e-01  8.3696209416180845e-01  8.3165214723382597e-01  8.4075520428193495e-01  8.3698805139046961e-01  8.3167505526465479e-01  8.4072907664043772e-01  8.3701938781779117e-01  8.3170253001135486e-01  8.4070126103346732e-01  8.3705087888971863e-01  8.3172778136079073e-01  8.4068025204691077e-01  7.5663407110365999e-01  7.5663157649204948e-01  7.5663181766128007e-01  7.5664119097862170e-01  7.5668332069010757e-01  7.5677769662073502e-01  7.5692269455294969e-01  7.7153334392267270e-01  7.7154641311979844e-01  7.7157713033186914e-01  7.7162052660212199e-01  7.7167966838160418e-01  7.7175909923000885e-01  7.7186179296881696e-01  8.4744531981910332e-01  8.5150960901861539e-01  8.5152204247591412e-01  8.4745522442529064e-01  8.4746703574280136e-01  8.5154941037810072e-01  8.4747848063806874e-01  8.5157438561392296e-01  8.4748448052053704e-01  8.5158624427056429e-01  8.4748150577596237e-01  8.5157530806715009e-01  8.4746963501738193e-01  8.5152607060370467e-01  8.4840637857812695e-01  8.4837707164394605e-01  8.4829815812112042e-01  8.4819497026703716e-01  8.2621213093553525e-01  8.1760313307260024e-01  8.2995887601715790e-01  8.2994245996922655e-01  8.1758966099312502e-01  8.2619504606673377e-01  8.1754644061238302e-01  8.2614711329125678e-01  8.2989769230555122e-01  8.1750037980814283e-01  8.2985200423650096e-01  8.1748186222040475e-01  8.2983371018382468e-01  8.2986656180409435e-01  8.1751856127472400e-01  8.1763517344905623e-01  8.2997075416446042e-01  8.0947281467540166e-01  8.0947217208431799e-01  8.0945409621555597e-01  8.0943834025542438e-01  8.0944552207785125e-01  8.0949447178290990e-01  8.0960442023232937e-01  7.3078113455749416e-01  7.3092670787218750e-01  8.0084531931152225e-01  8.0083744844700044e-01  8.0081252191673069e-01  8.0079052372095771e-01  8.0079221726293481e-01  8.0083306239821372e-01  8.0091822383698619e-01  8.2251459004114047e-01  8.1814724995919541e-01  8.1280640835464446e-01  8.1280221446020751e-01  8.1813600826431376e-01  8.2251500065575989e-01  8.1810382577746021e-01  8.2250562437784402e-01  8.1278920891719986e-01  8.1807344373427271e-01  8.2249772147148814e-01  8.1277895396364175e-01  8.2250173925230441e-01  8.1806998686384391e-01  8.1278947323727135e-01  8.2252822293195293e-01  8.1811443674002771e-01  8.1283273782167775e-01  8.2260166106325594e-01  8.1822267346968980e-01  8.1289744566717415e-01  7.4244837714431311e-01  7.5405706973178077e-01  7.5208244066359531e-01  7.5399644020487999e-01  7.5215914169347120e-01  7.4262120757817118e-01  7.5417875313527605e-01  7.8367083431245743e-01  7.8366467265313078e-01  7.8363952604591458e-01  7.8362336096381746e-01  7.8363668612579918e-01  7.8370017297436301e-01  7.8384055344249159e-01  7.7485334920923232e-01  7.7483322686330436e-01  7.7476702004840692e-01  7.7466733203307347e-01  7.7453723091148741e-01  7.7437526972583859e-01  7.7418184583640448e-01  7.8244294317750351e-01  7.8241669551149262e-01  7.8236009250895466e-01  7.8228656221125126e-01  7.8220658999550885e-01  7.8213195329945717e-01  7.8207314736118905e-01  8.5806098790622010e-01  8.6213651010057823e-01  8.5801872213538921e-01  8.6207728758112812e-01  8.0384690406075054e-01  8.0384313682415487e-01  8.0383324850395332e-01  8.0381347140073001e-01  8.0377507806727744e-01  8.0371140056481483e-01  8.0362237177254703e-01  8.5795489148446635e-01  8.5797090932923414e-01  8.5800559579272917e-01  8.5804037407439682e-01  8.5806282957919322e-01  7.8559552023838253e-01  7.8563071543368823e-01  7.8570175029314260e-01  7.8578661258628901e-01  7.8587050109483514e-01  7.8593920376773918e-01  7.8596206745794117e-01  7.5370577652130311e-01  7.4180070725219216e-01  7.4745023688753154e-01  7.5368378581340711e-01  7.4176647881069702e-01  7.4745070045621465e-01  7.5362189172403571e-01  7.4167406990566687e-01  7.4745436373338292e-01  7.5353994177893224e-01  7.4154451654268350e-01  7.4744943720620505e-01  7.5344912596361724e-01  7.4139250502930543e-01  7.5336519476655894e-01  7.5331570355551103e-01  7.5023032749393170e-01  7.4702741201083622e-01  7.4701436204288107e-01  7.5025517522615615e-01  7.4703882626522844e-01  7.5030804039434007e-01  7.4713656145699070e-01  7.5040946901716143e-01  7.4734706262725437e-01  7.5058000244336931e-01  8.3534420797604403e-01  8.3537925964397519e-01  8.3546938167485407e-01  8.2788833068769396e-01  8.2785055559648069e-01  8.2777846594618221e-01  8.2771220116391153e-01  8.2766960041399351e-01  8.2767007844673590e-01  8.2774552001661217e-01  7.8607904975137022e-01  7.8607080103245741e-01  7.8605507204107883e-01  7.8604018456129165e-01  7.8603772223958224e-01  7.8606477599994617e-01  7.8614991871300965e-01  8.3827949119224798e-01  8.3827444558097675e-01  8.3824111542458346e-01  8.3820770032058278e-01  8.3819689874757719e-01  8.3822804049704869e-01  8.3831638048180268e-01  8.0666009731350030e-01  8.0663829277482635e-01  8.0657301487402588e-01  8.0650701627439603e-01  8.0646778525117224e-01  8.0647942767202507e-01  8.0656881684675463e-01  7.3540042149809748e-01  7.3518379789997168e-01  8.4776934957352168e-01  8.4775497159899538e-01  8.4772138474572156e-01  8.4767321876991275e-01  8.4761151152975900e-01  7.6399620521219591e-01  7.7513792863098296e-01  7.6387850857310491e-01  7.6390762199042983e-01  7.7522463011964959e-01  7.6409058660104490e-01  7.6396125359105893e-01  7.6401541812824725e-01  7.6418143749481116e-01  7.7527020426099658e-01  7.6401618914810565e-01  7.6424570454451479e-01  7.7527094767624749e-01  7.3744307887040361e-01  7.3604808174631431e-01  7.4497210661386137e-01  7.4494113424031927e-01  7.3601908275307915e-01  7.3742728773054667e-01  7.4484912242439294e-01  7.3592497945780300e-01  7.3737974437127596e-01  7.4471607622961333e-01  7.3578688002203252e-01  7.3729314720523098e-01  7.4454588371461916e-01  7.3560972713839523e-01  7.3716146588382903e-01  7.4434384258108777e-01  7.3697466961986535e-01  7.4413095560454090e-01  7.3670782808916824e-01  8.0180061140429415e-01  8.0179199799925471e-01  8.0177046794223938e-01  8.0175184380899223e-01  8.0174497781852794e-01  8.0175633965956694e-01  8.0179303258788825e-01  8.4217396238427888e-01  8.4214961391943510e-01  8.4210718353879999e-01  8.4206750582284673e-01  8.4204670494626477e-01  8.4205629693366579e-01  8.4209930668398680e-01  7.9503954715000325e-01  7.9502543713949103e-01  7.9500708378843110e-01  7.9499862979675340e-01  7.9501365542833946e-01  7.9506406559872034e-01  7.9515298552919611e-01  7.8344733470360095e-01  7.8344915130317316e-01  7.8345688634670285e-01  7.8346738102546964e-01  7.8348383524423881e-01  7.8351173848062039e-01  7.8354580704821719e-01  8.0752682840797929e-01  8.1726761740729792e-01  8.1726608950694934e-01  8.0751986346619997e-01  8.1726845649479962e-01  8.0750519972526635e-01  8.1727410860399596e-01  8.0749562966261679e-01  8.1728687071158013e-01  8.0749972651865953e-01  8.1731103361369151e-01  8.0752313345928584e-01  8.1734926673266606e-01  8.0756673837795623e-01  7.6571840722428164e-01  7.5021235621978866e-01  7.6571658119596453e-01  7.5021599569753372e-01  7.6570810993970173e-01  7.6571161119467301e-01  7.6574642632397505e-01  7.6583347003493329e-01  7.6599884216684955e-01  7.8824022796171178e-01  7.7767123371828917e-01  7.7764484470300965e-01  7.8824985441719153e-01  7.7759921937109056e-01  7.8825686405265161e-01  7.7753320620799615e-01  7.8824471577753008e-01  7.7744995862360489e-01  7.8821783609011531e-01  7.7734900221698389e-01  7.8817819874721107e-01  7.7722598978060542e-01  7.8810646271647222e-01  7.6380111831107589e-01  7.7493185955109656e-01  7.6383223428599356e-01  7.7495633253367646e-01  7.7503718014790568e-01  7.4873468495456186e-01  7.4872320156778149e-01  7.4868492216246130e-01  7.4861634801223753e-01  7.4852368398071667e-01  7.4841187895729877e-01  7.4827471683845614e-01  8.5609231437001854e-01  8.5609371250990118e-01  8.5607464812899914e-01  8.1351863576121242e-01  8.2364429114526794e-01  8.1297694689495736e-01  8.2370330983836415e-01  8.1358760361070970e-01  7.8822553488382285e-01  7.9407837193478137e-01  7.9407074704793756e-01  7.8820670722726860e-01  7.9404735289907336e-01  7.8816038488184303e-01  7.9402165855476337e-01  7.8810441362189154e-01  7.9400810910694986e-01  7.8805119774189070e-01  7.9402426109187607e-01  7.8801744358393244e-01  7.9408562920428416e-01  7.8803062665933932e-01  8.5133926541999805e-01  8.5133417803842548e-01  8.5133165027840096e-01  8.5133770104145579e-01  8.5135136843837145e-01  8.5136972911422193e-01  8.5139823515633684e-01  7.9253152420629513e-01  7.9250827235206511e-01  7.9244935919435922e-01  7.9238266321050055e-01  7.9232809214147126e-01  7.9230938975227483e-01  7.9236584338398175e-01  8.0190153398577146e-01  7.9002968557330666e-01  7.9279997025077575e-01  7.9277894265488436e-01  7.9000020882114186e-01  7.9272447210383645e-01  7.9265544219222772e-01  7.9258869145185640e-01  7.9254289386829324e-01  7.9253659522209630e-01  7.8992481159800731e-01  7.8982765567890068e-01  7.8972450525132454e-01  7.8962946456745131e-01  7.8957158883983825e-01  8.2108729415480242e-01  8.2107255055223027e-01  8.2103747806440619e-01  8.2100493255396867e-01  8.2100221437778431e-01  8.2105473722919586e-01  8.2118018229986478e-01  7.6152256331729040e-01  7.6151579710864536e-01  7.6149794747575961e-01  7.6146599126278913e-01  7.6142190276326815e-01  7.6136950295093075e-01  7.6131547776092934e-01  7.4061963360072114e-01  7.4668937580467054e-01  7.4056156225763825e-01  7.4668113596631092e-01  7.4053707833280813e-01  7.4672112542131241e-01  7.4057106710751042e-01  7.4684238105495315e-01  8.0474854427872378e-01  8.0359027502214864e-01  7.9671370192135016e-01  7.9668980226927988e-01  8.0358247167443053e-01  8.0475449626247519e-01  7.9664653945172748e-01  8.0357912502751849e-01  8.0477472511360004e-01  7.9660296197188440e-01  8.0357796044208796e-01  8.0479144112309309e-01  7.9656111892231840e-01  8.0357643330648088e-01  8.0479645543939460e-01  7.9652536394556739e-01  8.0357084374798260e-01  8.0478040761747194e-01  7.9651383926575803e-01  8.0355382544899512e-01  8.0472630543624735e-01  8.5486404829464846e-01  8.5486258664075221e-01  8.5485315961380481e-01  8.5483413302807176e-01  8.2501205286928281e-01  8.2499373200089721e-01  8.2494114433083787e-01  8.2488599523649131e-01  8.2485894220982359e-01  8.2488521653447644e-01  8.2498319776621165e-01  8.2559063045777947e-01  8.2558005360200526e-01  8.2555962934670157e-01  8.2553677963369387e-01  8.2551668383567445e-01  8.2550628324666930e-01  8.2551620927765568e-01  8.5274928478949774e-01  8.5279293446644255e-01  8.5290005075089670e-01  8.5302476829280061e-01  8.5314378747622821e-01  8.5323567878148365e-01  8.5327850349929135e-01  8.1326894334770206e-01  8.1325957363632906e-01  8.1322702765851251e-01  8.1319588844573942e-01  8.1319225766537806e-01  8.1323905776220662e-01  8.1335216482139328e-01  8.3392900616133647e-01  8.3388214891185974e-01  8.3375046072809988e-01  8.3360870225208794e-01  8.3349804024378393e-01  8.3345307537856916e-01  8.3351646520276734e-01  7.4674791079339375e-01  7.4674078066854244e-01  7.4671704184157739e-01  7.4629879810411481e-01  7.5402793592759909e-01  7.5406731779812342e-01  7.4621561408753945e-01  7.5399430754455843e-01  7.4617648731467823e-01  7.4623450353562448e-01  7.4644788507853288e-01  8.3071501929354485e-01  8.3071382624892121e-01  8.3071261936581586e-01  8.3070344076946601e-01  8.3068146474888505e-01  8.3064359284814770e-01  7.7020095446486803e-01  7.7020573005680837e-01  7.7021219217621062e-01  7.7021497170032671e-01  7.7021006259651048e-01  7.7019582077000026e-01  7.7016664251566191e-01  8.1257062069264585e-01  8.1257415375940445e-01  8.1259164118912464e-01  8.1260903971753229e-01  8.1261902275350162e-01  8.1261495640586645e-01  8.1258562522973266e-01  7.5226387716750709e-01  7.5205601522842669e-01  7.5205000176661052e-01  8.3519799174305875e-01  8.3518030094057549e-01  8.3513414676216935e-01  8.3508775381370237e-01  8.3506198293461886e-01  8.3507389712053415e-01  8.3513258190922224e-01  7.7559114067333568e-01  7.7559452089123404e-01  7.7560668792348020e-01  7.7563389404591188e-01  7.7569136926467874e-01  7.7579459828428055e-01  7.7595483252721809e-01  7.5423252024396448e