<?xml version="1.0"?>
<VTKFile type="UnstructuredGrid"  version="0.1"  >
<UnstructuredGrid>
<Piece  NumberOfPoints="15068" NumberOfCells="74477">
<Points>
<DataArray  type="Float64"  NumberOfComponents="3"  format="ascii">6.295917202692371 3.245075399111341 4.080354225475965  6.405817977821505 3.18736647556823 4.143558021735036  6.419617239215071 3.297253761916869 4.064938660382502  6.405809185813004 3.345403822625002 4.125821365540584  6.394698659229316 3.231275804179999 4.210275096036864  6.28374918258186 3.293445442216659 4.141858601372567  6.392138991369293 3.393474622013472 4.186658778910383  6.383676800464774 3.275101300998423 4.276914758215902  6.271671033661703 3.341690883525617 4.203360914028063  6.259660847282538 3.389865977874946 4.264851461958171  6.372716323003821 3.318858940762757 4.343497715672147  6.378552460465253 3.441468416981439 4.247451182638961  6.24769612769501 3.437997204352941 4.326320335086385  6.361788693089028 3.362546673934545 4.410047727421651  6.365004529759749 3.489401751383726 4.308214180729814  6.351447243964118 3.537269749213937 4.368970931041748  6.350865331109472 3.406156344882827 4.476579846795633  6.235732601403165 3.486084939663082 4.387779396332474  6.339913447568934 3.449681209108572 4.543141306270696  6.223737640074126 3.534152135148025 4.449228595108988  6.337819080634379 3.585059201665868 4.429732127645279  6.136166158715032 3.822571241300565 3.274886713764307  6.222709764726726 3.903240936330124 3.233301474856872  6.159754876272062 3.893551683049547 3.147282827938702  6.124341676795716 3.944699879429323 3.168865309765043  6.185014255098896 3.953153403802282 3.258233508213139  6.105755736591256 3.876258330530458 3.300292664108877  6.075609419627858 3.930134289264108 3.32573086346799  6.147660909661735 4.003454231840695 3.283207162570597  6.089237524357851 3.996198876695072 3.190469208989109  6.045545838065894 3.984212870036775 3.351248995851003  6.110405055972965 4.053934815241482 3.308259444701666  6.054216409314396 4.04792004140217 3.212155883768835  6.0154319766718 4.038395630702425 3.376848665546305  6.073073968944207 4.10450700499042 3.333379983959187  6.019111480349337 4.099765041198624 3.233916986313173  5.983742961802297 4.151664299348034 3.255712749459991  6.035459349720901 4.155098954266355 3.358541155388977  5.98509901820474 4.092702798264269 3.402504169489289  5.947713189505186 4.203452815253006 3.277561785392614  5.997129415149553 4.205497362368132 3.38373999971797  5.954215323704203 4.147139456752471 3.428239807947751  7.942863510534979 1.389919556947329 1.940959907789745  7.963620646833376 1.378370874575523 2.047418823898493  7.849989199692477 1.36308492061138 2.047228763556958  7.858131697061848 1.302278403813664 2.039522421197939  7.971808028995327 1.317835925855169 2.039498211596534  7.95154971187922 1.32922095891475 1.930885128722055  7.979898000330548 1.257283061675143 2.031651930826067  7.960166929365987 1.268503568183073 1.920868453077597  7.866200958446051 1.241476239815363 2.031907599565401  7.987944164897611 1.196730114377325 2.023838077426058  7.968752555680919 1.207783312664105 1.910882130199208  7.874231478348332 1.180679270441912 2.024331353070509  7.995974312189677 1.136186319768582 2.016046199499069  7.977326963326565 1.147067925590649 1.900919187930322  7.882238443261408 1.119891631777941 2.016776919856702  8.00402063908744 1.075659158487262 2.008268199172972  7.985912355161016 1.08636491215615 1.890978353520554  7.890233219842706 1.059120496073546 2.009232845376658  7.994541776316323 1.025673189216565 1.881048091207197  8.012147910110968 1.015165250965818 2.000470993416982  7.89824032246281 0.9983988421008605 2.001663107738845  6.918415688494489 1.342291281204931 1.78675641445025  6.870668226604906 1.304320388270824 1.875220355999042  6.814789887347318 1.353323796106977 1.762682499087119  6.816369599106427 1.29268514894722 1.734022409945216  6.874024211251125 1.240290755089247 1.853793687887143  6.918397721127083 1.280534828936567 1.760772854251563  6.877208014272616 1.176370813957901 1.832341795267029  6.918102701924384 1.21888531108611 1.734763703683339  6.81772493046383 1.23221632309025 1.705323681235388  6.917690533370862 1.157322920943074 1.708770125492908  6.880307690830349 1.112559998861172 1.810900631994961  6.818984036203301 1.171855305672971 1.676635360219514  6.917262798780683 1.095834157524221 1.682813271224162  6.883407406952685 1.048839900364557 1.789493327082652  6.820244221321617 1.111580839328489 1.647987814709853  6.916913545023544 1.034398309214658 1.656905236708547  6.886594258627589 0.9852113428875742 1.768144119153902  6.821617369919287 1.051369784790754 1.619402593573405  6.916759417494692 0.9729773418505598 1.63103656591355  6.889936372629981 0.9216168395391917 1.746833298618195  6.823247104645914 0.9912132699966306 1.59089701585272  8.123963870888062 3.031974882518874 0.8525083330028909  8.062703390031361 2.955567925177228 0.8521412388386504  8.032128368178475 3.092276104198452 0.8458160966112692  8.037936290068743 3.093385738973185 0.7766207560153507  8.073565353376337 2.944767355376157 0.7857748748764195  8.133079056443346 3.026177435772532 0.7841489845661386  8.084464375073898 2.93391195261643 0.7194425315704228  8.142239769194484 3.020306137171641 0.7158048174275504  8.043729862777251 3.094459485787887 0.7074106971852143  8.151438911859241 3.014370591868898 0.6474893197501572  8.095401095383085 2.923007395622081 0.6531549802706634  8.049548975826514 3.095473060358844 0.6381904452000667  8.160669442654651 3.008385973708942 0.5792022167337173  8.10635993687753 2.912055245952138 0.5869036493941394  8.055398117026648 3.096429650902681 0.5689699871181255  8.169922566881707 3.002367963514136 0.5109367073323179  8.117330192871481 2.901063805497584 0.5206816208900307  8.061277839457814 3.097331523933728 0.4997522991739667  8.179194589204972 2.99632815773972 0.4426932636569148  8.128298304375338 2.890050980044395 0.4544774168028328  8.0671952496579 3.098179490855676 0.430535374745681  6.85927697485309 1.705631814807317 3.415777548643188  6.755979634133197 1.720516645470522 3.472960851723151  6.774640884423053 1.643437565701409 3.325026362984295  6.783237683439181 1.58851841230229 3.354206937947657  6.764982585255471 1.664476040624427 3.50412782346661  6.86838480599726 1.64973649251708 3.446396731212062  6.791875312796977 1.533598810987243 3.383342243258619  6.774017176661497 1.608432742029222 3.535253743442545  6.877530167307456 1.59384078344394 3.476968020960036  6.800539659777367 1.478684862846354 3.412441623388902  6.783072786523706 1.552390512893722 3.566345828666686  6.886697185428003 1.537949008593301 3.507501560500287  6.809217470306116 1.423777819257498 3.441515301256769  6.792136486827943 1.496350121491264 3.597409654397752  6.895872814956575 1.4820635461706 3.538006724692418  6.81789826041013 1.368876496622784 3.470571445183738  6.801196811743074 1.440309907097983 3.628447865236347  6.905045419139202 1.426182932729065 3.568491199194649  6.826580558984052 1.313975444399499 3.499613122680349  6.810251312120212 1.384272544157899 3.659457784145582  6.91419985259742 1.370300356637983 3.598959099891629  6.033015285135861 3.957036522866772 2.485090290710156  6.005692477651858 3.926858314443983 2.623887975571126  6.112815556335619 4.004067308679018 2.582912431269406  6.077059231394999 4.055807499475136 2.587836388054631  5.971395285136457 3.977868932939475 2.631269583228787  5.999000536452023 4.008912784416517 2.488498219165445  5.937427766078018 4.029320697335232 2.638608184443515  5.965309347618031 4.061246353196456 2.491892539814128  6.041601041523227 4.108002364920687 2.592736643536631  5.903408171802544 4.081026352057269 2.645988212187662  5.931637217254336 4.113833288957746 2.495315822428493  6.006205339646885 4.160430608382407 2.597666101272193  5.869205130155776 4.13288713359384 2.653404401193326  5.897812226331258 4.166510854488606 2.498774558822274  5.970693063381772 4.212922607886663 2.60263233786044  5.863664498807376 4.219155985289006 2.50227033297276  5.834576158437923 4.184812660410462 2.660871594161703  5.934925120226441 4.265309579643115 2.607647934454209  5.828981811865893 4.271613139161663 2.505804412856929  5.799329108731897 4.236589667773156 2.66842964571068  5.898669936146946 4.31743923815168 2.612704219009634  6.184910132361958 2.78488344507499 0.8838095097948688  6.164392362223007 2.922550316075103 0.8766550127968332  6.286937458583039 2.859884846904098 0.8773129689654955  6.284906730356818 2.85570544921371 0.8086238319674433  6.163296499035368 2.922261128219102 0.8072200713719937  6.184641795285208 2.778316424033469 0.8162029585594126  6.282840632142329 2.85140721800177 0.7400783988047731  6.162163775264244 2.921860292949516 0.7379263744575028  6.184360152784739 2.771651941677639 0.7487377775511295  6.280762239183895 2.847010093528368 0.6716616948676541  6.161014070104855 2.92134929360025 0.6687468944010105  6.184076549387163 2.764904493240222 0.6814111170851653  6.27869721710415 2.842553092082316 0.6033569255487439  6.159878532489712 2.920768392395819 0.5996833105486674  6.183791145481136 2.758118462065066 0.6142004170676693  6.276650044966149 2.838117797146153 0.5351466076937459  6.158761453821255 2.920201132749966 0.5307136220273811  8.319643491173018 3.697186942580402 3.569799973543017  8.209755681804555 3.732754879551128 3.541608330734075  8.270531038319993 3.655607916605709 3.658887967374937  8.279966809966416 3.714032049478897 3.693263443202586  8.222105633827887 3.792418340455118 3.569103869429402  8.329425764164545 3.756137916606239 3.598389825516353  8.339177517575854 3.815096839711512 3.627265553317838  8.234380501651586 3.852145944569824 3.5968936791587  8.289359823353108 3.772407970281509 3.727930689872625  8.348944255094917 3.874170679501815 3.656298094777132  8.246670865252579 3.91199429267202 3.624826750457384  8.298751760038778 3.830823718163463 3.762719933414696  8.358768510170126 3.933412156074551 3.685376802541644  8.259078077095994 3.97200664084288 3.65279839758519 
[...]
<PointData  Scalars="f_14"> 
<DataArray  type="Float64"  Name="f_14"  format="ascii">4.9292012386448447e-01  4.8499557469008531e-01  4.8337971425758075e-01  4.8338803438788247e-01  4.8498928153247367e-01  4.9292618018845652e-01  4.8341072717824912e-01  4.8500485678153937e-01  4.9293510913932120e-01  4.9295100958531851e-01  4.8502482557229737e-01  4.8343713307552771e-01  4.9297069806968835e-01  4.8504019493591849e-01  4.8345748265198180e-01  4.8346479542000742e-01  4.8504065494271115e-01  4.9299423309167029e-01  4.8500282331713535e-01  4.9303683758821504e-01  4.8345007816283120e-01  5.0436270675139028e-01  4.9720190345719223e-01  5.0269623171002065e-01  5.0274389540924314e-01  4.9727654819643430e-01  5.0439684923146477e-01  5.0445299118528053e-01  4.9748492815673456e-01  5.0285717586107592e-01  5.0452729173818034e-01  4.9774210328135948e-01  5.0300259744345943e-01  5.0458677140868258e-01  4.9796336662154900e-01  5.0311957102141225e-01  5.0311741718142355e-01  4.9802712954766271e-01  5.0457123902491074e-01  5.0281416918547650e-01  4.9770947255902487e-01  5.0439293644864358e-01  3.6965527641521717e-01  3.6819495853781831e-01  3.7811481099459215e-01  3.7813359662192164e-01  3.6821980503535578e-01  3.6967270991786672e-01  3.6828594740966653e-01  3.6972829798079498e-01  3.7817716933549800e-01  3.6837354746703221e-01  3.6980473120387841e-01  3.7824199731632119e-01  3.6847069203773181e-01  3.6989002939645321e-01  3.7832532379132144e-01  3.6856354349427278e-01  3.6997254126073398e-01  3.7842549973123518e-01  3.7003890873374590e-01  3.6862590498766779e-01  3.7854043882471128e-01  4.5561876997003442e-01  4.5970169589241827e-01  4.6378713914804870e-01  4.6383293553282612e-01  4.5972316872951008e-01  4.5570324639734222e-01  4.5976545112187545e-01  4.5589277982244758e-01  4.6389914052433190e-01  4.5611347777104672e-01  4.5981513226906096e-01  4.6396762817228338e-01  4.5633700482412259e-01  4.5985153061613265e-01  4.6400703707526780e-01  4.5654269832287564e-01  4.5985744682017821e-01  4.6398159777863968e-01  4.5668731616670505e-01  4.5983692844807322e-01  4.6385962472443665e-01  3.2631541607693504e-01  3.3298391607209854e-01  3.3434201309831796e-01  3.3436757400106637e-01  3.3295495035559369e-01  3.2626211728737164e-01  3.3290280854364906e-01  3.2615542470344572e-01  3.3438370950803037e-01  3.2600610883231002e-01  3.3282233306042258e-01  3.3437394007476551e-01  3.2581586157493464e-01  3.3271496938927880e-01  3.3432818923737750e-01  3.2558151888827386e-01  3.3257056659643125e-01  3.3423705930530673e-01  3.2532610260575423e-01  3.3237139307460462e-01  3.3407095191589431e-01  4.5891858803108071e-01  4.6689338488330023e-01  4.6574917345714639e-01  4.6574635396293917e-01  4.6689269427762892e-01  4.5891229496692754e-01  4.6573653741723642e-01  4.6689052399659514e-01  4.5889616962125951e-01  4.6571408716418922e-01  4.6687858501790996e-01  4.5886926709894355e-01  4.6567304373654955e-01  4.6685279149064984e-01  4.5882941386033932e-01  4.6560483100743999e-01  4.6680785509155565e-01  4.5877374341725080e-01  4.6549549224349029e-01  4.6672896236280342e-01  4.5870257915458046e-01  5.1500206010639538e-01  5.1726274410202844e-01  5.0698055498178463e-01  5.0697486719610430e-01  5.1728168117439211e-01  5.1501012244240996e-01  5.1734139098084997e-01  5.1504063636890418e-01  5.0697256544259595e-01  5.1741321468856982e-01  5.1507133312331632e-01  5.0695548673899593e-01  5.1744016002873194e-01  5.1505882455796570e-01  5.0688684180965304e-01  5.1496529596883323e-01  5.1735424803861918e-01  5.0672821889233888e-01  5.1475331385819589e-01  5.1708420766958696e-01  5.0646869435428632e-01  5.0807447125848482e-01  5.0945366468221454e-01  4.9868148991676392e-01  4.9866228409257218e-01  5.0944543714013246e-01  5.0805558918259430e-01  4.9860418975024162e-01  5.0939950702437575e-01  5.0798243190321812e-01  4.9851973908118852e-01  5.0933136837713533e-01  5.0787402631633283e-01  4.9841322601675431e-01  5.0925112920234450e-01  5.0775028996399552e-01  4.9829040714939982e-01  5.0917593972443709e-01  3.2338056572454399e-01  3.3261194996346699e-01  3.2914900684423276e-01  3.2917613393489037e-01  3.3267649631280349e-01  3.2337455620225042e-01  3.2339642215170566e-01  3.3286603828635652e-01  3.2927511219313715e-01  3.2348186395850931e-01  3.3316354287820765e-01  3.2945995987914928e-01  3.2364174747763058e-01  3.3358058005136854e-01  3.2972965364922879e-01  3.3413265636190492e-01  3.2388739182768228e-01  3.3007678286882897e-01  3.2429457233495229e-01  3.3472836311801812e-01  3.3049699308587738e-01  4.5462985402891776e-01  4.6242161877688670e-01  4.5949451156838977e-01  4.5947548526330084e-01  4.6241068837936700e-01  4.5462500477716544e-01  4.5942578547847768e-01  4.6237805827943995e-01  4.5460377271655594e-01  4.5935569918165153e-01  4.6232658157070411e-01  4.5457182792557010e-01  4.5927145033788519e-01  4.6225618762516030e-01  4.5453204983294404e-01  4.5917598496022105e-01  4.6216329095776254e-01  4.5448525612648061e-01  4.5906844414669473e-01  4.6203723421100251e-01  4.5442946160852182e-01  2.9799895786524189e-01  3.0769770795597362e-01  3.0112363494228689e-01  3.0114589358189248e-01  3.0768275411983603e-01  2.9800060503423093e-01  3.0119203667935113e-01  3.0762628189819713e-01  2.9798869259622351e-01  3.0121400504185891e-01  3.0752616273170130e-01  2.9794570812435733e-01  3.0118430017606562e-01  3.0737375503095493e-01  2.9785074064499717e-01  3.0106751139537602e-01  3.0715871426531488e-01  2.9767794184997620e-01  3.0079136540485790e-01  3.0685393759471091e-01  2.9741977551792348e-01  4.8725791082957787e-01  4.9683655553050238e-01  4.9601877977998110e-01  4.9598704696928209e-01  4.9681024075548436e-01  4.8730933992498299e-01  4.9591790991650725e-01  4.9674197614109450e-01  4.8743992036137035e-01  4.9583797718174033e-01  4.9665762032486954e-01  4.8760414399519014e-01  4.9575531532605072e-01  4.9655945165073628e-01  4.8776914401588611e-01  4.9568599692021514e-01  4.9645674979776189e-01  4.8790576814007081e-01  4.9570992279594467e-01  4.9640577284520532e-01  4.8794150596269514e-01  4.7890295488025392e-01  4.7440327504911650e-01  4.8263928544635515e-01  4.8269116244206950e-01  4.7443927048697954e-01  4.7892757171820649e-01  4.7900409380075210e-01  4.7453436531811505e-01  4.8281263954812276e-01  4.7909466362436187e-01  4.7463318212780775e-01  4.8295840854808952e-01  4.7915175295617662e-01  4.7468345271591100e-01  4.8307028149730119e-01  4.7912180496459955e-01  4.7462754691065562e-01  4.8307507949530643e-01  4.7895324261749950e-01  4.7439538159972316e-01  4.8289692792289152e-01  4.8866316603983762e-01  4.8871200530879350e-01  4.8885011203608458e-01  4.8902827615165534e-01  4.8920065903684601e-01  4.8931233377211114e-01  4.8925094621650111e-01  4.9909823268562792e-01  4.8692385122087217e-01  4.8822279706532873e-01  4.8822733056341405e-01  4.8695077882836874e-01  4.9915109085605391e-01  4.8703357599728953e-01  4.9923911532294979e-01  4.8825607573767016e-01  4.8715202461713614e-01  4.9936110174308806e-01  4.8831543697446722e-01  4.8730747032889327e-01  4.9952207958259542e-01  4.8840717679740397e-01  4.8749451205000782e-01  4.9973037960464839e-01  4.8852958863336510e-01  4.9998702074911622e-01  4.8766757083883699e-01  4.8869433362797771e-01  4.1858481608681086e-01  4.2487435209569374e-01  4.2649917393024722e-01  4.2648062734365605e-01  4.2487686474191216e-01  4.1856796542626951e-01  4.2643469481056767e-01  4.2488770821866256e-01  4.1855647142376173e-01  4.2637641348434541e-01  4.2489095144096789e-01  4.1854857994466416e-01  4.2631949472143799e-01  4.2488416761496745e-01  4.1854697893082354e-01  4.2626934210161638e-01  4.2486027338110982e-01  4.1854399407134751e-01  4.2622773446203333e-01  4.2479370400090133e-01  4.1850838512250538e-01  3.4128628448714088e-01  3.4958527927898381e-01  3.4776049447519436e-01  3.4779669616652686e-01  3.4958363195625675e-01  3.4131591535615780e-01  3.4959463724565515e-01  3.4140247115148875e-01  3.4787029067354541e-01  3.4961946937477090e-01  3.4151679764917503e-01  3.4797535685693737e-01  3.4965218456637354e-01  3.4164266564066792e-01  3.4810806781423281e-01  3.4968742975284023e-01  3.4176090962876282e-01  3.4826322992553777e-01  3.4181352138082155e-01  3.4973858757549792e-01  3.4843109273319289e-01  3.5988674390679737e-01  3.6909460284581375e-01  3.6633700477966225e-01  3.6637757145377775e-01  3.6912093235830784e-01  3.5992255742362156e-01  3.6650180495462614e-01  3.6922505735667227e-01  3.6003574423539525e-01  3.6672228504099968e-01  3.6941061307663164e-01  3.6023318343741884e-01  3.6706137581786846e-01  3.6969028125568587e-01  3.6052607492802363e-01  3.6755920775082490e-01  3.7008390332689900e-01  3.6093490564986475e-01  3.6827876177611774e-01  3.7062664029483028e-01  3.6148566779920038e-01  3.6488603501241107e-01  3.7395347664847084e-01  3.7026196746202261e-01  3.7029994023509372e-01  3.7399086487816580e-01  3.6491311700419010e-01  3.7409852027453849e-01  3.6498892578257819e-01  3.7040260019448423e-01  3.7424718128311923e-01  3.6509454163875948e-01  3.7053874297390915e-01  3.6521641709071112e-01  3.7441545810760313e-01  3.7068709598836946e-01  3.6533934192418493e-01  3.7458072701815298e-01  3.7082672794136601e-01  3.6544179938026894e-01  3.7470921156796544e-01  3.7093092631509766e-01  5.1761024952194312e-01  5.1996997810272039e-01  5.2702505487642237e-01  5.1756799870084880e-01  5.1995544057495457e-01  5.1758900571162914e-01  5.2702713662389400e-01  5.1742380431238599e-01  4.9065020202208393e-01  4.9343798288727597e-01  4.8225497098911951e-01  4.8225718560913006e-01  4.9339568023732183e-01  4.9062653906902848e-01  4.8225184644779268e-01  4.9327595028883758e-01  4.9054218787507514e-01  4.8223650519108829e-01  4.9310985672746438e-01  4.9041396337179011e-01  4.8220180777127847e-01  4.9291417380799912e-01  4.9025420894205346e-01  4.8212933744948805e-01  4.9270119516111271e-01  4.9006995844590945e-01  4.8198138099576310e-01  4.9249987032876402e-01  4.8987107390770906e-01  4.1812323323606720e-01  4.2449858615268382e-01  4.2339131634915800e-01  4.2341481967109451e-01  4.2452443993322203e-01  4.1813251723966599e-01  4.1817007013098312e-01  4.2460574963179099e-01  4.2348892606225264e-01  4.1820922776753294e-01  4.2467988251169420e-01  4.2355845224945093e-01  4.1821638759774715e-01  4.2470916650329527e-01  4.2358613341951368e-01  4.2353864647927297e-01  4.2465926370363427e-01  4.1815836930738171e-01  4.2338353343771851e-01  4.2448813072365560e-01  4.1802030446440458e-01  4.7271390327007723e-01  4.8381631998197022e-01  4.7413335252339855e-01  4.7415405295427970e-01  4.8380821077194969e-01  4.7269685863255478e-01  4.7267219448941239e-01  4.8377595719773941e-01  4.7421322447449660e-01  4.7266994758202685e-01  4.8375677804288719e-01  4.7430113362382109e-01  4.7270265826261010e-01  4.8377413946384457e-01  4.7441843616352097e-01  4.7278313586130077e-01  4.8384359476849176e-01  4.7456075371458067e-01  4.8399207355044122e-01  4.7292358322285610e-01  4.7470469141698485e-01  2.5752665305527128e-01  2.5394474747229479e-01  2.6367910857872395e-01  2.6357082834785106e-01  2.5506765144126037e-01  2.5108647774209042e-01  2.6345920241601772e-01  2.5504726056262245e-01  2.6344404053806481e-01  2.5112929625716734e-01  2.5509885494030382e-01  2.6348560337000931e-01  2.5117751004865801e-01  2.5513330150677022e-01  2.6352048781199733e-01  2.6356084455430756e-01  2.5516195512018325e-01  2.5122317422881318e-01  2.5517325788470285e-01  2.5124960728330403e-01  2.6360453077824392e-01  2.5082500292178567e-01  2.6133879483842959e-01  2.6026120423109694e-01  2.6032732520368979e-01  2.6156568540584557e-01  2.5095154293490884e-01  2.6048889596142555e-01  2.6208357660078446e-01  5.0072596784397061e-01  4.9146293723876000e-01  4.9108018693550703e-01  4.9108411701426519e-01  4.9146224528796117e-01  5.0077553891681914e-01  4.9108874472865338e-01  4.9148128392508178e-01  5.0087996695741865e-01  4.9110899255969614e-01  4.9152338995209149e-01  5.0101399796173374e-01  4.9115099612686730e-01  4.9159185045895071e-01  5.0116415563585992e-01  4.9122287575896068e-01  4.9168932935034815e-01  5.0131938644354734e-01  4.9134274967439223e-01  4.9183123323267497e-01  5.0145545826346938e-01  4.8183397423308705e-01  4.7947720411741585e-01  4.8820590815337755e-01  4.8824142524319253e-01  4.7952603869526544e-01  4.8184292807503976e-01  4.8831345011071170e-01  4.7962894393373334e-01  4.8186809218609955e-01  4.8840289985274993e-01  4.7974575764844840e-01  4.8189513470697060e-01  4.8848506870535330e-01  4.7984438585417144e-01  4.8190809861097478e-01  4.8853741215608737e-01  4.7989371066351849e-01  4.8189534447914534e-01  4.8854740667556046e-01  4.7984334992205618e-01  4.8186567788227974e-01  3.0699133229974207e-01  3.1282529234563922e-01  3.1198474927487291e-01  3.1200516522319854e-01  3.1284446017215700e-01  3.0700267478241677e-01  3.1206001867720506e-01  3.1290106684715457e-01  3.0703985368557990e-01  3.1214063617727378e-01  3.1298374471349777e-01  3.0710027480205671e-01  3.1224129710986631e-01  3.1308487442482408e-01  3.0717831999349166e-01  3.1235747783751361e-01  3.1319689508181153e-01  3.0726888017916593e-01  3.1248463599826115e-01  3.1330687833864818e-01  3.0737452618544508e-01  4.9247540446476545e-01  4.8787586109564562e-01  4.8211981779288549e-01  4.8216939292414740e-01  4.8794148386084396e-01  4.9253925642532709e-01  4.8230893766443167e-01  4.8808720362146890e-01  4.9269910693488395e-01  4.8247177463916513e-01  4.8826945131526189e-01  4.9290352842881652e-01  4.8257645307391595e-01  4.8842159050327133e-01  4.9307914282510862e-01  4.8253008507035888e-01  4.8845339120152870e-01  4.9311650525116518e-01  4.8221923377689851e-01  4.8825714463400749e-01  4.9287146022348355e-01  5.1491499394620310e-01  5.0776931106149803e-01  5.0465907501136609e-01  5.0468827392767013e-01  5.0778786628042050e-01  5.1493903438510125e-01  5.0476282421695351e-01  5.0786570678888321e-01  5.1500300680860511e-01  5.0486713071438283e-01  5.0797345854555453e-01  5.1509283422717522e-01  5.0498888061524316e-01  5.0808492522861259e-01  5.1519596299674431e-01  5.0511763531995613e-01  5.0817667831214752e-01  4.9012934540828662e-01  4.8884885889603169e-01  4.8149075937382635e-01  4.8152534617205939e-01  4.8886551070980055e-01  4.9013989180652368e-01  4.8160437441691906e-01  4.8891786646845892e-01  4.9017051929771011e-01  4.8164604145774936e-01  4.8894523255934341e-01  4.9017471952227254e-01  4.8159855017948527e-01  4.8888839816040430e-01  4.9010578560355406e-01  4.8142144789042302e-01  4.8869527528693951e-01  4.8992711515041631e-01  4.8109201287891962e-01  4.8831974157772523e-01  4.8960852565038548e-01  4.7201302919207655e-01  4.7816466926608808e-01  4.8003814711875126e-01  4.8002302580853040e-01  4.7815249395080917e-01  4.7199949162865318e-01  4.7998033964908521e-01  4.7811925343116718e-01  4.7195695746427035e-01  4.7991453172750115e-01  4.7806713056673961e-01  4.7189128835771882e-01  4.7982953939925577e-01  4.7799592711170913e-01  4.7180422450261811e-01  4.7972961268193803e-01  4.7790514635164055e-01  4.7169556557718362e-01  4.7962076295739442e-01  4.7779598348513835e-01  4.7156642016153666e-01  3.4252325688799662e-01  3.4788501820546913e-01  3.5102608300127752e-01  3.5107604288460204e-01  3.4792492468812847e-01  3.4256079428092528e-01  3.5122763250567202e-01  3.4805386349799550e-01  3.4268585364675030e-01  3.5148784264528621e-01  3.4827142747724515e-01  3.4289835716761846e-01  3.5186511787757152e-01  3.4858237330157549e-01  3.4320204949355199e-01  3.5237556759800426e-01  3.4899848244568188e-01  3.4360688239242543e-01  3.5304588876776494e-01  3.4953603416430917e-01  3.4412192477918729e-01  2.5769848561775804e-01  2.5774045754636599e-01  2.5779278481813495e-01  2.5784958722339707e-01  2.5790350709039095e-01  4.9209617930819372e-01  4.9210617392724093e-01  4.9211846774397311e-01  4.9213899300410380e-01  4.9215984683091207e-01  4.9217918943780192e-01  4.9221374581968391e-01  3.1581816243809974e-01  3.2017296569593384e-01  3.2683340755982720e-01  3.2686767355934931e-01  3.2020789902566460e-01  3.1586825856111755e-01  3.2694477149166101e-01  3.2031841865260813e-01  3.1599574588903884e-01  3.2705627132533971e-01  3.2047173620433306e-01  3.1616025547979504e-01  3.2718547815041354e-01  3.2062915113787588e-01  3.1632754466099611e-01  3.2730954822293351e-01  3.2075107569328498e-01  3.1645947025779542e-01  3.2740424386700645e-01  3.2080053852638368e-01  3.1650543426106564e-01  5.1993154098249728e-01  5.1006317428880832e-01  5.1750694855772861e-01  5.1019465302819011e-01  5.1995231200191006e-01  5.1030136808719062e-01  5.1030143816110529e-01  5.1003410368900537e-01  5.1985246836278498e-01  4.8901047831330491e-01  4.8906936567920051e-01  4.8919417842850843e-01  4.8934849550155485e-01  4.8945244839285412e-01  4.8940302957554760e-01  4.8908754691555545e-01  3.0730978375988516e-01  3.1370215810366958e-01  3.1750720994411868e-01  3.1753263994180114e-01  3.1371274758300216e-01  3.0725902848358511e-01  3.1757939340449748e-01  3.1374325520125645e-01  3.0715727237065210e-01  3.1759002276395182e-01  3.1373592961088070e-01  3.0700552033082035e-01  3.1753859205462803e-01  3.1367720041611619e-01  3.0680007381411745e-01  3.1739155246157197e-01  3.1355493862946188e-01  3.0654115042141322e-01  3.1708213967105137e-01  3.1330448800012312e-01  3.0628064159833379e-01  4.9202456062065780e-01  4.9202976529484460e-01  4.9203098004857593e-01  4.9203687334416035e-01  4.9204185730791927e-01  4.9204077101219462e-01  4.9205076855809571e-01  5.1803980644672820e-01  5.1804156506739951e-01  5.1805959686927616e-01  5.1808848269631003e-01  5.1811701128390264e-01  4.1973515167321096e-01  4.3008514937345632e-01  4.2337355736452736e-01  4.2343193503557891e-01  4.3012942345695504e-01  4.1982111820145596e-01  4.2356937852329873e-01  4.3024317075058266e-01  4.2000184063319013e-01  4.2372661458782102e-01  4.3038134451981497e-01  4.2019663023315101e-01  4.2386187604007403e-01  4.3049594957966164e-01  4.2036279532916648e-01  4.2394220259196186e-01  4.3054734360607122e-01  4.2046629588600476e-01  4.2394083157005186e-01  4.3051990530683831e-01  4.2046631935223439e-01  4.9564700019800806e-01  4.9569131443787212e-01  4.9581268631141218e-01  4.9597428148729483e-01  4.9616845033895141e-01  4.9638894835559327e-01  4.9656965476466652e-01  3.9029450146084105e-01  4.0051512440222720e-01  3.9262881633378172e-01  3.9263005577925808e-01  4.0056051808873844e-01  3.9029969558360833e-01  3.9262650453031928e-01  4.0068100447880073e-01  3.9032693914801181e-01  3.9263311100818893e-01  4.0081685491300756e-01  3.9037115088648117e-01  3.9265164134112240e-01  4.0093157172276767e-01  3.9042716754587420e-01  3.9268170371584843e-01  4.0099554900590351e-01  3.9048746057954847e-01  3.9272976144519217e-01  4.0097805252526897e-01  3.9053946161982056e-01  4.2623475519987047e-01  4.2691344248711688e-01  4.3532688717774082e-01  4.3533654838889457e-01  4.2692637516920651e-01  4.2622512598781109e-01  4.3537208183491088e-01  4.2696604397426874e-01  4.2622593162809796e-01  4.3544303927507205e-01  4.2703833340888786e-01  4.2625881462109155e-01  4.3555721332191999e-01  4.2715453228666356e-01  4.2633185949060948e-01  4.3572297020604001e-01  4.2732409451180858e-01  4.2645435131740878e-01  4.3594648016487486e-01  4.2753073976350836e-01  4.2664974013303242e-01  4.7517563356102849e-01  4.6539513946619054e-01  4.7609547309313849e-01  4.7610911121175303e-01  4.6545725806458488e-01  4.7519129201968863e-01  4.7614469566436746e-01  4.6556302295619395e-01  4.7524079485232013e-01  4.7615394020273050e-01  4.6564572252539360e-01  4.7525888668822103e-01  4.7610216444455206e-01  4.6567688107791300e-01  4.7520704534995312e-01  4.7596759282966444e-01  4.6564212773834551e-01  4.7505682084568640e-01  4.7574455268843646e-01  4.6553276475381489e-01  4.7479534534987328e-01  3.3158723184517763e-01  3.3979117773338502e-01  3.3843999165938371e-01  3.3849456826263519e-01  3.3980295629110585e-01  3.3162815380901878e-01  3.3864255150295536e-01  3.3985848576238709e-01  3.3176572547916838e-01  3.3886412598376064e-01  3.3997825958184552e-01  3.3197692240777732e