<?xml version="1.0"?>
<VTKFile type="UnstructuredGrid"  version="0.1"  >
<UnstructuredGrid>
<Piece  NumberOfPoints="959" NumberOfCells="4123">
<Points>
<DataArray  type="Float64"  NumberOfComponents="3"  format="ascii">3.790219885451639 1.336987898097291 3.409944751710889  3.919899257800957 1.349659894350455 3.420916386102715  3.874057161004134 1.411371160092791 3.518156173859071  3.875998036616972 1.361000199574543 3.552930510333322  3.922713465846265 1.299230689599719 3.453119511558561  3.79201321421362 1.286870255184708 3.44234002974537  3.877901534226098 1.310689219733414 3.587771703740649  3.925495974893083 1.24883784376596 3.485378563266717  3.793760672484226 1.236790923932431 3.474781388961499  3.879796329050111 1.260415705894742 3.622626312682258  3.928267896252681 1.19846654568978 3.517650891650174  3.795491872946577 1.186737158822734 3.507233066220269  3.881703040326817 1.210155404570535 3.657452055654238  3.931048340747762 1.148100048950528 3.549901483456352  3.797229054224419 1.13669239840557 3.539662364013837  3.8836408452702 1.159881776415965 3.692207393308089  3.933856985139269 1.097717296912597 3.582096401313585  3.798994120667595 1.086637236866642 3.572036948811886  3.885633140977914 1.109560727568339 3.726849718777613  3.936714469568598 1.047289691777819 3.614200487820281  3.800819635150476 1.036548837660143 3.604322347336137  3.307205889540898 1.744651433536515 3.863120474782638  3.448338176997094 1.740616948230485 3.861970760661237  3.383135941321758 1.834635834180544 3.924501317603635  3.382082647881189 1.800567072472988 3.98343330480804  3.446565462704581 1.701702976030399 3.916324035353738  3.306311993704802 1.706570856166121 3.917976187668583  3.444816290860492 1.662940449261129 3.970630376732639  3.305467709862848 1.668600684151035 3.972789386367943  3.381090788234235 1.766637540278218 4.042281615380709  3.443082195331728 1.624270512115789 4.024863517709118  3.304652396934132 1.630718446145858 4.027531717660678  3.380128920600091 1.732802845312735 4.101027812028589  3.441380778236601 1.585652184106103 4.07902539221794  3.303863056714754 1.59288347867927 4.082196116462001  3.379177816394625 1.699009135235948 4.159656030699764  3.303079969815262 1.555048927002185 4.136760638425018  3.43969539130375 1.547043445836888 4.133062878901434  3.378230654960553 1.665217951941637 4.218159419759419  3.302245215874741 1.517164074905717 4.191171110149516  3.438005528030623 1.508393310177325 4.186914568010851  3.377238483960879 1.631373446793401 4.276483376926273  3.950633343717449 1.474859847639299 3.602635626482695  4.107144884559957 1.473512502739929 3.588823578248759  4.039980520585516 1.548229276995341 3.690911071966469  4.041554120962882 1.498133040879709 3.731866348289407  4.110257563944742 1.422366772309559 3.625211309160816  3.952828703661273 1.424466226271032 3.640098581811354  4.113350735937581 1.371286150640944 3.661672135226549  3.954991980384515 1.374155617772416 3.677638716391146  4.043085951435222 1.4481480595887 3.772902455118199  3.957152510046542 1.323892489026738 3.71519423913275  4.116446138270259 1.320248600300194 3.698148549577009  4.044618932158158 1.398226466671292 3.813953592881039  3.959330801958504 1.273648482954173 3.752714412793017  4.119557846378401 1.269224643493258 3.734593241834187  4.046176607252645 1.348330300862293 3.854964591181943  3.961544428753538 1.223392051320928 3.790151627060736  4.122696764383712 1.218184253773695 3.770959612795805  4.047778396397644 1.298422085174999 3.895882197835162  3.963809910848199 1.173081848207531 3.827452827834299  4.125879585160408 1.167091998014243 3.807197796105984  4.049445522763955 1.248465213872941 3.936640418104221  4.401454890169848 1.364288730274604 3.485377301385038  4.437672014771972 1.423002373818454 3.576162721491505  4.533413972678006 1.380908968682524 3.483711858823026  4.430686719128866 1.475875182254693 3.54300134515803  4.394279318787187 1.416210052499245 3.454013173467434  4.540959237692551 1.328475675990335 3.514842323242847  4.408697854048575 1.312405990289554 3.516781125810621  4.44471921459356 1.370177986095098 3.609364084400875  4.548537620253997 1.276074739367996 3.545968923967371  4.415971350943687 1.260549362314227 3.548190988530685  4.451796366891847 1.317389096884447 3.642571891875184  4.556126478614663 1.223690665933294 3.577066847333925  4.423255606761015 1.208702462774091 3.579575800808854  4.458886687317339 1.264615881673365 3.675750733679528  4.563705351402299 1.171306132955868 3.608106671857135  4.430533129777731 1.15684309672424 3.610902898022008  4.465974280485407 1.211833973707732 3.708862295248368  4.571246926458716 1.11889965649795 3.639057346952491  4.437771950146161 1.104940580172765 3.642134838705206  4.473033382927467 1.15901394020781 3.741863064220589  3.107656943876549 1.047208052728156 2.963983748776449  3.245124434881262 1.076455492413799 3.005605028218131  3.112827387255726 1.110195358181116 3.07642915338258  3.114789591951417 1.05802057711248 3.10671423296037  3.247510140404717 1.024173560437458 3.034581711357327  3.11044995665593 0.9941347482730086 2.993869305517189  3.116741623945122 1.005870016728639 3.13699799320543  3.249870246320647 0.9719144654305467 3.063548501623789  3.113232870433986 0.9410834753000441 3.023750263422675  3.118677539236442 0.9537451500313532 3.167275811608131  3.828422210374378 1.711565806937708 3.857297772953  3.799489855455553 1.620037492420944 3.774238660589359  3.92751207935333 1.616594438440716 3.772890765801107  3.927230759358681 1.569525340331722 3.819367692227392  3.798042517895224 1.574111036944311 3.821338054841772  3.826732565306933 1.668478994470679 3.909400280433607  3.926893666144065 1.522601481467421 3.865900704853053  3.796536240927261 1.528326444341898 3.868480550601045  3.824984918693764 1.625569949892569 3.961515207462467  3.92656723808317 1.475773125956797 3.912434232560479  3.795041412343113 1.482638870500594 3.915619593691249  3.823243121104372 1.582770681178976 4.013588043051217  3.926276550205048 1.42898157357116 3.958910191861302  3.793580041018737 1.436992809805699 3.962701156158709  3.82155043668128 1.540021853378858 4.06558725751123  3.926044336662679 1.382175878569013 4.005274964396714  3.792169369385471 1.391338822990668 4.009669295053644  3.819922313351209 1.497264749932845 4.117459358597816  3.9258942960497 1.335302344453648 4.051478451452383  3.79085297298058 1.345627754807906 4.056469137523599  3.818377408333647 1.454439441066514 4.169144978195101  3.079374547333857 1.305150762950908 3.3836074696325  3.166683317933998 1.250584899177077 3.303157463246629  3.27095379649371 1.307204146229053 3.381590830738246  3.271776118196879 1.257432026097814 3.415378505336167  3.167965991129223 1.200431501765426 3.336385668091492  3.07949998809487 1.255797816186561 3.419128819389517  3.272611237819702 1.207701887131701 3.449192361557729  3.169275011797229 1.150308440727694 3.369627477608824  3.07965377666468 1.206480811641118 3.45467267465227  3.273449591416256 1.158002420391875 3.483007264248368  3.170587896994554 1.100212111778966 3.402867284117978  3.079816755956439 1.157192485171554 3.490218009005503  3.274285601144584 1.108317659291213 3.516800281875048  3.171893722957972 1.050129932694758 3.436086867051727  3.079977559506848 1.107917697564278 3.525741771294266  3.275111500296054 1.058629907829338 3.550546977495067  3.173179677288092 1.000047815765956 3.469267440162593  3.080124295637362 1.058638807680919 3.56122092817491  3.275912151641426 1.008922359257246 3.584218524400409  3.174422448541586 0.9499496577499864 3.502395561961504  3.080239253269288 1.009333690770046 3.596635920609171  4.014270843716327 1.396366667735144 3.483475779475669  4.01745217763043 1.345684561416709 3.517058573706569  4.020610951109319 1.295047206923282 3.550707443940782  4.023765348168902 1.244435631846454 3.58437370262366  4.026930909804467 1.193829138052156 3.618016353159184  4.030121956903804 1.143202286305308 3.651597132566656  4.033355996740092 1.092522601544681 3.685072219913691  3.182109175340238 1.355797241391513 3.453929439554784  3.182107750436118 1.306646117408925 3.490133934946587  3.182128882117814 1.257545954782339 3.526369385346597  3.182160079997571 1.208481734600451 3.562606562271366  3.18219271064286 1.159434315308878 3.598817446904296  3.182217043909862 1.110382165754597 3.634972513432899  3.182217864580826 1.061300051156048 3.671042499844319  3.530009830169142 1.31029064495894 3.381941137353115  3.623461245705041 1.360540094753808 3.452182585692352  3.479341250868802 1.385813357737382 3.492132538576421  3.479529907709536 1.336551811898955 3.527843930168689  3.624642033032542 1.310756424838477 3.486104987435217  3.5311951165771 1.260521103740833 3.414661843741484  3.479699734138264 1.287350395001962 3.563592493330938  3.625791878393005 1.261025405494242 3.520070924981969  3.532354342252376 1.210791611487062 3.447410977225488  3.4798667004107 1.238191974333019 3.599344112749477  3.626932021022947 1.211329149706595 3.554044143493369  3.533503272363274 1.161092355205659 3.480161200071116  3.480038786609969 1.189053773241376 3.63506597037538  3.62807819544821 1.161648286669335 3.58799163940933  3.534653633231143 1.111409142115737 3.512886262710446  3.480223036387569 1.139913903966427 3.670721119366858  3.629245581893222 1.11196199608833 3.621879110305799  3.535817044122702 1.061726647470038 3.545558496596645  3.480432345349982 1.090752088501576 3.706274624943292  3.630452117442197 1.062247202763695 3.655670210949605  3.537008559644506 1.012028737134234 3.578149556203038  3.667890517290364 1.286012700114159 3.336845682327847  3.689021067269632 1.204646334640682 3.199233445796956  3.796542165765982 1.254605961568233 3.276752939016434  3.799163193883683 1.204443445029148 3.306537029310333  3.691288213873551 1.154452889950513 3.228350779436088  3.669595399091188 1.235947406031969 3.368116173000553  3.801738509335531 1.154299190726291 3.33634682568411  3.693504045175662 1.104272400758992 3.2574786242005  3.67125613210416 1.185912971112546 3.399413
[...]
<PointData  Scalars="f_14"> 
<DataArray  type="Float64"  Name="f_14"  format="ascii">7.0363571056301100e-01  6.9265711956337384e-01  6.9515422812522198e-01  6.9515060641037985e-01  6.9265403301972372e-01  7.0363852209496724e-01  6.9514058948335888e-01  6.9264272221808554e-01  7.0365013044423086e-01  6.9511880258173886e-01  6.9262287535218969e-01  7.0366100173740598e-01  6.9508157821592154e-01  6.9259179041816588e-01  7.0366418370669503e-01  6.9502527554583893e-01  6.9254614357397981e-01  7.0365299384377444e-01  6.9494584229260570e-01  6.9248462363956764e-01  7.0361748150351711e-01  7.3655076167043332e-01  7.2500987369178937e-01  7.2916996983219606e-01  7.2916324126922871e-01  7.2501416591309775e-01  7.3653446002250866e-01  7.2501619066106193e-01  7.3648401535405150e-01  7.2912888873195147e-01  7.2500437135252915e-01  7.3641356330019625e-01  7.2907352764657807e-01  7.2497651387587048e-01  7.3633304750744744e-01  7.2900641302061309e-01  7.3625336699979005e-01  7.2493478179273452e-01  7.2893354175842229e-01  7.3618932652292823e-01  7.2485974096098915e-01  7.2886080200807835e-01  6.8758925731051701e-01  6.7482665698956257e-01  6.7901359162793529e-01  6.7900390312964276e-01  6.7481567695239442e-01  6.8757715754012705e-01  6.7478404301401174e-01  6.8753457418673192e-01  6.7896385090189504e-01  6.8746810761738641e-01  6.7472962558984539e-01  6.7889355857249056e-01  6.8738061087547475e-01  6.7465159381420614e-01  6.7879295584372312e-01  6.8727463340733352e-01  6.7454970762365940e-01  6.7866213244322682e-01  6.8715612264102233e-01  6.7442291007471511e-01  6.7850000652827835e-01  6.5256645485645171e-01  6.4854377440201805e-01  6.4184455860915390e-01  6.4857739850766050e-01  6.5259319806671612e-01  6.4177974590137765e-01  6.5248769336957491e-01  6.4845250625931017e-01  6.4168203875535335e-01  6.5237560118133187e-01  6.4832176779448236e-01  6.4156270345477318e-01  6.5224531364563942e-01  6.4816720492562618e-01  6.4143167468078000e-01  6.5211155648171715e-01  6.4800312022920514e-01  6.4129513829998741e-01  6.5199194328515298e-01  6.4784198185064001e-01  7.6477072704195181e-01  7.5347283975583723e-01  7.6324177951267025e-01  7.6325780318657976e-01  7.5349107025322981e-01  7.6478895764863608e-01  7.6330793521769313e-01  7.5354698604832804e-01  7.6484486434953947e-01  7.6339085456447442e-01  6.9399260590998013e-01  6.9770488727430091e-01  6.8714791860328084e-01  6.8713965505949115e-01  6.9771291715025130e-01  6.9397889004496205e-01  6.8709730198866403e-01  6.9772511776884205e-01  6.9392889712552941e-01  6.8702171861571659e-01  6.9771806714592810e-01  6.9384591286276676e-01  6.8691159741490837e-01  6.9768134166461349e-01  6.9372633140955087e-01  6.8676516169864610e-01  6.9760502375761746e-01  6.9357012958434461e-01  6.8658240269152626e-01  6.9746585081070089e-01  6.9338844191185767e-01  7.6235330838450099e-01  7.5621924386727912e-01  7.4672646770330087e-01  7.4673012063792954e-01  7.5621642537113754e-01  7.6235178472342646e-01  7.4673566635499355e-01  7.5620717808620030e-01  7.6234548607661312e-01  7.4674725114507701e-01  7.5620540839470285e-01  7.6234466542862778e-01  7.4676929586973329e-01  7.5622019080242731e-01  7.6235437462848143e-01  7.4680708995429679e-01  7.5626027652326389e-01  7.6237951885976374e-01  7.4686596693612606e-01  7.5633711303822915e-01  7.6242822102295160e-01  6.8393044290765992e-01  6.8392190550055232e-01  6.8390163813329696e-01  6.8386690823144491e-01  6.8381687663679536e-01  6.8375110017889229e-01  6.8366788521185384e-01  7.5305820829011538e-01  7.5306077833937779e-01  7.5306364005627480e-01  7.5306870930896097e-01  7.5307949114476525e-01  7.5309925612745965e-01  7.5313006708488828e-01  7.2552968238433857e-01  7.1683867481567010e-01  7.2820050198878128e-01  7.2820790193378160e-01  7.1683841821296801e-01  7.2553468696913892e-01  7.2822560995924002e-01  7.1683468430502972e-01  7.2554307349875924e-01  7.2824585061931024e-01  7.1682735987193880e-01  7.2555445273680186e-01  7.2826312900440793e-01  7.1681419560191062e-01  7.2556665066900894e-01  7.2827222418377768e-01  7.1679269733677708e-01  7.2557718056343212e-01  7.2826389549402437e-01  7.1676251296126492e-01  7.2558413653451126e-01  7.1477531455858800e-01  7.1488212787130967e-01  7.0490363299003644e-01  7.0490426435466014e-01  7.1488981003897656e-01  7.1477999526134584e-01  7.0490967304193164e-01  7.1491295929758913e-01  7.1479407225647285e-01  7.0491704716123305e-01  7.1494573940955597e-01  7.1481198419590208e-01  7.0492364517405326e-01  7.1498445129081889e-01  7.1482871008999127e-01  7.0492679768657707e-01  7.1502536562165420e-01  7.1483878478706786e-01  7.0492487638105539e-01  7.1506131647390503e-01  7.1483530100301362e-01  7.7253376806813689e-01  7.6842837831324606e-01  7.6102026333234574e-01  7.6101804713267307e-01  7.6843028044184469e-01  7.7253108249892133e-01  7.6100972533530897e-01  7.6842925044435029e-01  7.7253082210904089e-01  7.6099491037392619e-01  7.6842654517779008e-01  7.7252664219492784e-01  7.6097288408515829e-01  7.6842060227941489e-01  7.7251453847563956e-01  7.6094360695010421e-01  7.6840997237398145e-01  7.7249046515298259e-01  7.6090792573029264e-01  7.6839544098614765e-01  7.7244874862053647e-01  7.0567245387128974e-01  7.0054036494536753e-01  6.9380126518041807e-01  6.9379422416258130e-01  7.0053923879345958e-01  7.0565926417300218e-01  6.9376659959894271e-01  7.0053702438536181e-01  7.0562020326846775e-01  6.9371662942179413e-01  7.0052216480852714e-01  7.0555822259381928e-01  6.9364145180824333e-01  7.0048973721328200e-01  7.0547509258667729e-01  6.9353808491401459e-01  7.0043520533249015e-01  7.0537366571453053e-01  6.9340459903969942e-01  7.0034776467527105e-01  7.0526131220916943e-01  6.5335367410646039e-01  6.6245249247662730e-01  6.4942459562436416e-01  6.6270492177019236e-01  6.5363340572532491e-01  6.3795238360636120e-01  6.4214723329906664e-01  6.4194384882500188e-01  6.3777859769390177e-01  6.5426710599141136e-01  6.4652422125824227e-01  6.4278839677718203e-01  6.4273362291236003e-01  6.4651333417766721e-01  6.5424240428769131e-01  6.4261700821571133e-01  6.4645462658226593e-01  6.5416739067722185e-01  6.4245042138619302e-01  6.4634847372753923e-01  6.5404236490767398e-01  6.4223170621736470e-01  6.4619178584177750e-01  6.5386496378614978e-01  6.4196291148692908e-01  6.4598170838698288e-01  6.4166151478031885e-01  6.4571876780361603e-01  7.0779826814419566e-01  7.0780002593604963e-01  7.0780159602899728e-01  7.0779641858332509e-01  7.0777938201776469e-01  7.0774527579058277e-01  7.0768837852771327e-01  6.8926841346212853e-01  6.8194345059922501e-01  6.7768627574994367e-01  6.7770103531309878e-01  6.8194750711052066e-01  6.8924901969524233e-01  6.8918733161449053e-01  6.8195016304345779e-01  6.7772863601606681e-01  6.8909294184956016e-01  6.8192409877741900e-01  6.7773046431987305e-01  6.8895470388270097e-01  6.8185357107763067e-01  6.7768268942695364e-01  6.8876563008375824e-01  6.8172362038395018e-01  6.7756553463654678e-01  6.8150613119898551e-01  6.8853604813529568e-01  6.7734456988310632e-01  7.4301433076451917e-01  7.4297543319450454e-01  7.4287806101578036e-01  7.4274810121784862e-01  7.4261525874607126e-01  7.4250746703971715e-01  7.4245037900817923e-01  7.3618289622695854e-01  7.3647596994839082e-01  7.3647820293286304e-01  7.3617615532071556e-01  7.3649011116644725e-01  7.3616706564184875e-01  7.3650793076786536e-01  7.3615493648598274e-01  7.3653001532731532e-01  7.3614062517964574e-01  7.3655442415941308e-01  7.3612587667533924e-01  7.3658017128366804e-01  7.3611877438967799e-01  7.5391519703408139e-01  7.4004805772981275e-01  7.4495482637820787e-01  7.4494844406487115e-01  7.4004348868073022e-01  7.5391638816005291e-01  7.5391824270123198e-01  7.4003301149749079e-01  7.4493386169379072e-01  7.5391173084189012e-01  7.4001225943478122e-01  7.4490603036725234e-01  7.5389488138617544e-01  7.3998308095495358e-01  7.4486793656734651e-01  7.5386635717208894e-01  7.3995031103184494e-01  7.4482348395373110e-01  7.3991618338620768e-01  7.5382427538762176e-01  7.4477375768996601e-01  7.7363614187050633e-01  7.7112950434933147e-01  7.7370249003758418e-01  7.7117664392639262e-01  7.7125338055120163e-01  7.6263002686608439e-01  7.6262312174993363e-01  7.6261737696059162e-01  7.6261259260124037e-01  7.6261065924293936e-01  7.6261331362980089e-01  7.6262063153619608e-01  7.4993948294154067e-01  7.4993131669957547e-01  7.4989375681014248e-01  7.4984519686041917e-01  7.4979006845720386e-01  7.4973409879796626e-01  7.4969299764199238e-01  7.2425215306886781e-01  7.2425745477906123e-01  7.2427292894268336e-01  7.2429642729107879e-01  7.2432563121378035e-01  7.2435737957349056e-01  7.2438881971248159e-01  7.0351657448148464e-01  6.9336420734862292e-01  6.9336570344340132e-01  7.0351945834970797e-01  6.9336552062559753e-01  7.0352770770855533e-01  6.9336370720288221e-01  7.0354072902363962e-01  6.9335921493255404e-01  7.0355710059225229e-01  6.9335034893954695e-01  7.0357538540840925e-01  6.9333387205823271e-01  7.0359426223379073e-01  7.7111532171805619e-01  7.6250606250261077e-01  7.6959883127331585e-01  7.6251650897310130e-01  7.6960559659053573e-01  7.6254969452095545e-01  7.6963701317360433e-01  7.6260440838441024e-01  7.6968761912109585e-01  7.6268029329216269e-01  7.7135697534161851e-01  7.6975408326709061e-01  7.6277606480803739e-01  7.7148402340089972e-01  7.6983237402909099e-01  7.6288590901190922e-01  7.7163231302965640e-01  7.6991560118488511e-01  6.6615542207504563e-01  6.6328943235780602e-01  6.6613432264358785e-01  6.6583873204790023e-01  6.6291474602271772e-01  6.6598374610624500e-01  6.6563888735421550e-01  6.6538285814827169e-01  6.5403171452693687e-01  6.4275715002732969e-01  6.5400689823712488e-01  6.4271906459737216e-01  6.4262906380461027e-01  6.5393385835030315e-01  6.4249811060358786e-01  6.5382151892883555e-01  6.4233508812465612e-01  6.5367917479837934e-01  6.5351403003534669e-01  6.5333196862774678e-01  7.1079700889237407e-01  7.1078438524045218e-01  7.1074528986229479e-01  7.1069073581682352e-01  7.1062201672635439e-01  7.1054192416018069e-01  7.1046412733958442e-01  7.4453147406451325e-01  7.3501290043727419e-01  7.3500820829772429e-01  7.4452995768286800e-01  7.3499209267608467e-01  7.4451890597247061e-01  7.3496610524484929e-01  7.4450229816973768e-01  7.3493252820857313e-01  7.4448177176642061e-01  7.3489482981732557e-01  7.4445853889387636e-01  7.3487220191053748e-01  7.4442754748477902e-01  7.3194346742422067e-01  7.3191624591636828e-01  7.3184941458658170e-01  7.3176176061669507e-01  7.3166365564786318e-01  7.3156996336646141e-01  7.3150463495548368e-01  7.4384661834978316e-01  7.4384671866822161e-01  7.4384206703960343e-01  7.4383727106747777e-01  7.4383594544745546e-01  7.4384224922124764e-01  7.4386004736572997e-01  6.9616949898834191e-01  6.9617278471326360e-01  6.9617937138764152e-01  6.9618314837404749e-01  6.9618047611911837e-01  6.9616719289921580e-01  6.9613550131073232e-01  7.7071558958843001e-01  7.7072587898599920e-01  7.7074528991813362e-01  7.7077244969225145e-01  7.7080616631688226e-01  7.7084721748254525e-01  6.5192961500098034e-01  6.4308855910439766e-01  6.3876002422338785e-01  6.3871586302204608e-01  6.4303581053244729e-01  6.5191503853297761e-01  6.3860693066069407e-01  6.4290462551459993e-01  6.5187930211257272e-01  6.3844816322246900e-01  6.4272411370613058e-01  6.5180389068782341e-01  6.3824773517885902e-01  6.4250660276128169e-01  6.5168035497540311e-01  6.3801240073549625e-01  6.4226280222113974e-01  6.5149972241065890e-01  6.3774669002754436e-01  6.4201882569438040e-01  6.5125191657617676e-01  7.7800858694942709e-01  7.7801909327595464e-01  7.7803503260969264e-01  7.7805297276807295e-01  7.7806943006769236e-01  7.7808483616832069e-01  7.3451723234091426e-01  7.2427241584106672e-01  7.2428134358290808e-01  7.3452835580876485e-01  7.2430821828661873e-01  7.3455465650159268e-01  7.2434959752691930e-01  7.3459578465882225e-01  7.2440219753574076e-01  7.3465078624869429e-01  7.2446255787732172e-01  7.3471932458495404e-01  7.2452630017610242e-01  7.3480105903541926e-01  7.3507533100839917e-01  7.3508406252487346e-01  7.3510963853388889e-01  7.3514714433816564e-01  7.3519363119679981e-01  7.3524672503678268e-01  7.3530251549174286e-01  6.7449953007693175e-01  6.8168173316827496e-01  6.7221885124631131e-01  6.7458443853050976e-01  6.8148618398100191e-01  6.7433601634682239e-01  6.7207997560385369e-01  6.8123127789024618e-01  6.7408205780784114e-01  6.7182813614312642e-01  7.5075192323361795e-01  7.5072511374261996e-01  7.5064105399393866e-01  7.5052702837931839e-01  7.5040794537913658e-01  7.5031039831681701e-01  7.5026604991658108e-01  7.3539974777572104e-01  7.3541177366821509e-01  7.3545101011014724e-01  7.3551222725731613e-01  7.3559191746699049e-01  7.3568633374834547e-01  7.3578991666781413e-01  6.7486350797844774e-01  6.6370990225948845e-01  6.7014884474635383e-01  6.7014305464767965e-01  6.6371915954663352e-01  6.7485345769377525e-01  6.7010339035613808e-01  6.6372952765124638e-01  6.7481820179475405e-01  6.7002618981062867e-01  6.6370914356395772e-01  6.7474927192932654e-01  6.6990027700274413e-01  6.6364126364926856e-01  6.7463926478986458e-01  6.6971734866060795e-01  6.6350911030501758e-01  6.7448129203725704e-01  6.6947965778754237e-01  6.6328786945641427e-01  6.7426988355585848e-01  7.5906055303079500e-01  7.5903107198904507e-01  7.5897312671924322e-01  7.5889814057317551e-01  7.5881464684614464e-01  7.5873260341376925e-01  7.5867071467280311e-01  6.6721353682390216e-01  6.5852859241049722e-01  6.5853358853751631e-01  6.6721444081412007e-01  6.5851996544476299e-01  6.6720561862168015e-01  6.5847322740792746e-01  6.6716832093833067e-01  6.5838404254836125e-01  6.6709124009373444e-01  6.5824120938692698e-01  6.6696162154527705e-01  6.5802604707438916e-01  6.6675585385308400e-01  7.1964755485576448e-01  7.1965345894268751e-01  7.1966672920153618e-01  7.1967777249803622e-01  7.1967903675743594e-01  7.1966212519952344e-01  7.1961358372633866e-01  7.5183279313819695e-01  7.5182659947932906e-01  7.5180836016280350e-01  7.5178760358733432e-01  7.5176729050140745e-01  7.5175078649663141e-01  7.5174400387457840e-01  6.5980394249560592e-01  6.5977074009382497e-01  6.5968744882274066e-01  6.5957258836806953e-01  6.5943597925749842e-01  6.5928764786239125e-01  6.5914565851661611e-01  6.8511302848033417e-01  6.8499107661714309e-01  6.8475159080771120e-01  7.6512804060051665e-01  7.5739194015775668e-01  7.5009472998050297e-01  7.4998783572609928e-01  7.5731798661767280e-01  7.6506774129218691e-01  7.4969925056376718e-01  7.5710420200579254e-01  7.6496291502618885e-01  7.4935311236297930e-01  7.5683867271529215e-01  7.6483254317969274e-01  7.4901453530918072e-01  7.5657859674276495e-01  7.6469068700048004e-01  7.5637204066030150e-01  7.6454386231458538e-01  7.4874461984163454e-01  7.5628066268155036e-01  7.6439629463799130e-01  7.4862271890722165e-01  7.5805747444628091e-01  7.5798307882862226e-01  7.5784047494580609e-01  7.5766942660507819e-01  7.5748743975593047e-01  7.5730837780594951e-01  7.5714379631582940e-01  7.2725723105691009e-01  7.1946034009317217e-01  7.1386132728919383e-01  7.1384607810756007e-01  7.1946932569440980e-01  7.2725599633811999e-01  7.1379225401077318e-01  7.1949920733229566e-01  7.2725501131416270e-01  7.1371277694386981e-01  7.1952435171324247e-01  7.2724604019055383e-01  7.1361344487795086e-01  7.1953349904993302e-01  7.2722599464067594e-01  7.1350142635942926e-01  7.1951314158384327e-01  7.2719529158799501e-01  7.1339631521247493e-01  7.1944424857447320e-01  7.2715786538354665e-01  7.8009036697773260e-01  7.8013039064715339e-01  7.8018781549410532e-01  7.8025605662973241e-01  6.6400494838846169e-01  6.6858888751618473e-01  6.6857527731597621e-01  6.6398709164390679e-01  6.6853642961202431e-01  6.6393267618393137e-01  6.6846778108818061e-01  6.6384648599727503e-01  6.6836750064699513e-01  6.6373286429780287e-01  6.6823155950481383e-01  6.6359506360604048e-01  6.6805319199900792e-01  6.6343553665113464e-01  6.8534674706357701e-01  6.7703482404844328e-01  6.7702166695421795e-01  6.8534716865270118e-01  6.7698969379281648e-01  6.8534176903649635e-01  6.7694319399745040e-01  6.8532909380613960e-01  6.7688431873376076e-01  6.8530814851617483e-01  6.7681504102338608e-01  6.8527775471302854e-01  6.7673979297194498e-01  6.8523516317740196e-01  7.2157076594780367e-01  7.2154359852417982e-01  7.2148017661292918e-01  7.2139477313166245e-01  7.2129390699905060e-01  7.2119041015907648e-01  7.2111950556673421e-01  6.8508785918946991e-01  6.7461112717602212e-01  6.8510801266035870e-01  6.7461400921846448e-01  6.8514188262658382e-01  6.7461479859783091e-01  6.8515256342351671e-01  6.6998409223399902e-01  6.6997663823212439e-01  6.6995131343577685e-01  6.6990470552433268e-01  6.6983824913285150e-01  6.6975210943061736e-01  6.6964044275614809e-01  6.6334580427640533e-01  6.6332560313057398e-01  6.6326833962527709e-01  6.6318723614915409e-01  6.6309164177590740e-01  6.6299065598738993e-01  6.6289322812136908e-01  7.2531751933958599e-01  7.1793373589567600e-01  7.1253480864908192e-01  7.1250208544414573e-01  7.1793051239713612e-01  7.2529178284544094e-01  7.2520224633832309e-01  7.1789662085375294e-01  7.1242683158607301e-01  7.1232100076776506e-01  7.1784003705042443e-01  7.2507493511334953e-01  7.1219616494257465e-01  7.1776786692240890e-01  7.2494076720766654e-01  7.1205999548070009e-01  7.1768829859435146e-01  7.2482854825342891e-01  7.1193814487053686e-01  7.1760485979754784e-01  7.2475942357011103e-01  6.7269497295102632e-01  6.7268640335038843e-01  6.7265773852032928e-01  6.7261490296645043e-01  6.7256264783507702e-01  6.7250482819324309e-01  6.7244460963542052e-01  7.6601196932934934e-01  7.6598123488660375e-01  7.6588942954334505e-01  7.6576761969477747e-01  7.6563840909918046e-01  7.6552177207046923e-01  7.6543373045295138e-01  7.4487798576345821e-01  7.4488056614727249e-01  7.4489084384507720e-01  7.4491339409308333e-01  7.4495185007502696e-01  7.4501082148860553e-01  7.4509895934532822e-01  6.5898382838851033e-01  6.5897408484410114e-01  6.5894561656198869e-01  6.5888020110159129e-01  6.5876639305778517e-01  6.5859922329067555e-01  6.5837344682272958e-01  6.4987342664175951e-01  6.4984454863427976e-01  6.4977143613953892e-01  6.4965802895146529e-01  6.4950840098118956e-01  6.4932532634946172e-01  6.4910503532928066e-01  7.1980867965630935e-01  7.1973354656329036e-01  7.1953776413037285e-01  7.1928615746859559e-01  7.5666989840333243e-01  7.5666691115139906e-01  7.5666148348383289e-01  7.5665181698182571e-01  7.5663900702072140e-01  7.5662406711350694e-01  7.5660341674069753e-01  7.2515879840876052e-01  6.3518323488989470e-01  6.3375850052390015e-01  6.3518587488014044e-01  6.3378121034945456e-01  6.3516445922215981e-01  7.1889358882889598e-01  7.1888679912716247e-01  7.1887309050513604e-01  7.1884240246180708e-01  7.1878928711906631e-01  7.1870831030993076e-01  7.1861449914739206e-01  7.1106217278851525e-01  7.1104431207717100e-01  7.1100571591203687e-01  7.1094671645984375e-01  7.1086122932220064e-01  7.1074617373909565e-01  7.1061708385442712e-01  7.4740269830214656e-01  7.4403975731926342e-01  7.4741094247935258e-01  7.4406072816748114e-01  7.4744235320642372e-01  6.2707089475773092e-01  6.2388763757373278e-01  6.2703747250039132e-01  6.2389672316752631e-01  6.5982036323586202e-01  6.5979901697480914e-01  6.5973068006330060e-01  6.5962628813772961e-01  6.5948824175731524e-01  6.5931805584041769e-01  6.5911581130864139e-01  7.1350351926044986e-01  7.6746236306424798e-01  7.6747326629295942e-01  7.6744415214666473e-01  7.6736055083831844e-01  7.6719993505031880e-01  7.6712935953238170e-01  7.6711937348494252e-01  7.6709301094706150e-01  7.6705292574042050e-01  7.6700361962823826e-01  7.6695011930692092e-01  7.6689780745994784e-01  6.3509871917391003e-01  6.3498060567063852e-01  6.3479664343303843e-01  6.3452407363504282e-01  7.3713342936740645e-01  7.3707438420062865e-01  7.3692415803341693e-01  7.3672433416490013e-01  7.3652111655047325e-01  7.3635739140722567e