<?xml version="1.0"?>
<VTKFile type="UnstructuredGrid"  version="0.1"  >
<UnstructuredGrid>
<Piece  NumberOfPoints="964" NumberOfCells="4091">
<Points>
<DataArray  type="Float64"  NumberOfComponents="3"  format="ascii">10.27356651637048 4.319828743558679 2.358382440224674  10.21359279215627 4.32133676225956 2.265529879762787  10.19863396400362 4.283379111967577 2.393747582619989  10.17965640463456 4.33544421484231 2.40959428517251  10.19339958324865 4.375127959269911 2.279456885206564  10.25346234790946 4.372827333096942 2.373278870223571  10.16102662180116 4.387622928212991 2.425341209123668  10.17362081552194 4.428988149800396 2.293285616341496  10.23376555733843 4.425858756814476 2.388067151688395  10.14258223310031 4.439832418547776 2.441023188711301  10.15409504546793 4.482824691961875 2.307035605870816  10.21431058688513 4.478846362788022 2.402766694116114  10.12415903249523 4.491987974415847 2.456673014682255  10.13464316845184 4.536563084433662 2.320731376813001  10.19493216806104 4.531712953119619 2.417404646583659  10.10558733471603 4.54399922261197 2.472317325697901  10.11508387863723 4.590115813479801 2.334385059974007  10.17546535832004 4.584356688105304 2.431986848531248  10.08667228633378 4.595761974287822 2.488007199088726  10.09519517157963 4.643370066563987 2.347995268948226  10.15572468999148 4.636638942253356 2.446528384572166  10.25220847933876 4.338582036304633 1.513752386824482  10.14336783038785 4.331954493910048 1.621781776658025  10.26027845163239 4.366907562698741 1.629653349419529  10.24225241697515 4.431229062149934 1.616532640680742  10.12586420424736 4.396314604043849 1.609341889855246  10.23549912427386 4.403448301860593 1.495291700279745  10.22473875683696 4.495401663270222 1.603521896470008  10.1087946349225 4.460610207189747 1.596948778628717  10.21922561861116 4.468245919427577 1.476943745927814  10.20753699671294 4.559386217584593 1.590549520738273  10.09199153817808 4.524783279293167 1.584568404729446  10.20322677820336 4.532893703818655 1.458658292381387  10.19048052480231 4.62315116289204 1.577567612528617  10.07529515858642 4.588804190898318 1.572167383108527  10.18734279175933 4.597340709250579 1.440385915394989  10.17338315597876 4.686649592230349 1.564504272108333  10.05853699500224 4.652641933159619 1.559718670842898  10.17139950385488 4.661542135690604 1.422067613438369  10.15590331993107 4.749846415798849 1.551386892948414  10.04152269317798 4.716279503271734 1.547198439681895  10.15513669380878 4.725478467217985 1.403675198670255  10.10991051949587 4.284100320420548 2.266890137897748  10.0912908849652 4.3376395722662 2.280636492539363  10.11690508424155 4.297437889250502 1.502514823399019  10.10091210667655 4.362989191429574 1.485728011799619  10.08532106522823 4.42845203666774 1.469020483591491  10.06994304091309 4.49380901153485 1.452346765615136  10.05464940825493 4.559033743074187 1.435673867722463  10.03930265474628 4.624101760110408 1.418972197005224  10.02374335150811 4.688996292053606 1.402195455666293  10.75447552904147 4.396100788972966 1.373131182817375  10.69079942131187 4.433773957274989 1.507042218396244  10.79872559919848 4.441298505133911 1.491013114851897  10.68139360864624 4.504132720688013 1.486242335385288  10.7439161592801 4.465369403680489 1.342800515687846  10.7894549427823 4.513589294552555 1.469669276688572  10.67231745376 4.574006876367472 1.46566435854913  10.7338542523298 4.534195308973715 1.31269414520654  10.78056066689236 4.585255019718652 1.448550231672677  10.66355062373286 4.643379184194904 1.445187757534025  10.72409688457415 4.60252986420167 1.282725547618957  10.77190692074237 4.656373846416198 1.427571961179853  10.6549676191103 4.71226990051396 1.424709991271189  10.71450895152331 4.670348072871075 1.252800600829284  10.76341063273724 4.726935440462664 1.406613093010523  10.6462760249336 4.780651986576729 1.404197254999224  10.70482010787026 4.737612858432707 1.222906604294286  10.75482200784246 4.796916987582335 1.38561025956432  10.63711525780883 4.848499963037534 1.383680845771175  10.694688007029 4.804301513215048 1.193152904106514  10.74578703424209 4.866215293373743 1.364580607743804  10.41339667894499 4.431220870996158 2.093513705097723  10.36495670393908 4.425425127587103 1.993461950860477  10.26073298611181 4.380728429977245 2.064421678572368  10.23979686676259 4.43903503721195 2.071864846042307  10.34705749708592 4.487142590942662 1.996740310769184  10.39582183856257 4.492067251135623 2.099335496691658  10.21947061734104 4.497240855458362 2.079223541283881  10.32969942676158 4.548623245526887 2.000028258580378  10.37874628179161 4.552639915478354 2.105136321733721  10.19947648977254 4.555282657821633 2.086516917548409  10.31267571463381 4.609812322880755 2.003308432064483  10.36199123822777 4.612922889918035 2.110914844111477  10.179605389013 4.61312772583329 2.093753589187566  10.29582226958392 4.670719068513698 2.006556101143644  10.34539036255364 4.672898162653038 2.116647992009308  10.15967922934923 4.670717881360609 2.10093031553219  10.27888892431617 4.731302086407481 2.009658436502262  10.32872020444279 4.73252915011342 2.122240502360932  10.13935733755861 4.727937678169457 2.108022612713676  10.26155116703805 4.791506455427248 2.012623877279582  10.31170353444002 4.791699986438841 2.127696891517671  10.62214627444999 4.455404472774101 1.631321088246295  10.61013734784674 4.470896558416358 1.761780843948682  10.70212773303592 4.47748911556711 1.710192781898632  10.69236862794999 4.547910585559328 1.699672708444127  10.59832488420312 4.539337146076259 1.754188255119081  10.61088288801217 4.524831603896759 1.617943214533159  10.68292649879121 4.617743282699881 1.689366217592252  10.58690743527792 4.607322644413246 1.746766347868286  10.6000153372627 4.593801637076085 1.604752178713387  10.67376976314571 4.687029620041078 1.679200438036222  10.57582033983722 4.674815444515141 1.739487663981489  10.58945171249323 4.662307229226211 1.591661904622325  10.66475465141673 4.755812029828625 1.669071322300533  10.56488730308672 4.741847346397121 1.73219695610588  10.57907927908873 4.730354795633717 1.578556107899102  10.65566996178218 4.824077014255533 1.65885547868511  10.55386343436328 4.808396647508595 1.724802836915744  10.56856937321119 4.797900267651783 1.565393502953429  10.64615025634687 4.89179185265024 1.6484544873782  10.5424234414015 4.874423663117083 1.717220785337598  10.55758554944624 4.864905106916687 1.552100743223195  10.36065330052441 4.40144556513866 2.188396514474979  10.33985681554614 4.458713811157328 2.199645600881365  10.3196682275378 4.515797342233432 2.210789761008439  10.29978491783939 4.572663280066175 2.221866634813583  10.28003044058384 4.629275080213525 2.232903384752183  10.26020063420587 4.685586879506096 2.243824058059623  10.2399825069185 4.741488760569752 2.254633412014173  10.28143002458531 4.402502068016292 1.918303482798483  10.26190489733716 4.464062001682903 1.919436504498096  10.24295155740762 4.52545206894543 1.920562082521193  10.22432140902451 4.586646555702508 1.921660803141379  10.20583961404645 4.647601463751977 1.922724545046586  10.1872967887721 4.708261529917093 1.923688598210334  10.16834376424841 4.768554942544057 1.924554107283664  10.52669422077291 4.446434269485303 1.692522653969826  10.51256269295991 4.513948471982584 1.682483035281518  10.49896306733065 4.580992594627584 1.672617985615199  10.4857139682903 4.647637472302585 1.662866019255115  10.47264426888201 4.713874388350561 1.653064778127639  10.45944169457116 4.779669142672213 1.643180770572696  10.44580896114433 4.844982366291751 1.633125212600145  10.19402553348503 4.297021069651896 1.427674194377788  10.17899653124337 4.361380415732214 1.403047755633393  10.16433945044198 4.425681428488844 1.378544770598367  10.14990555859217 4.489862883451361 1.354097318262167  10.1355661454433 4.553893007108742 1.329660792693061  10.12117187824201 4.617746109642188 1.305189616536775  10.10653738403085 4.68143867225604 1.280647484391596  10.72550885694055 4.501075624702261 1.924091380713797  10.72906616183903 4.498172724138657 1.819958655001938  10.60665105394204 4.478897871039079 1.894303024198738  10.59408110075883 4.546053613120518 1.891683637059951  10.71812386979908 4.568192568040734 1.813284952491811  10.71360873454657 4.56990869087303 1.922276919675303  10.58195303902606 4.612626074362502 1.889205036263122  10.70759522370055 4.637566651586465 1.806825463538515  10.70212936982976 4.638164776477744 1.920572544938979  10.57014036179806 4.678713797247045 1.886823308867122  10.69734530716322 4.706405753665198 1.800493607596629  10.69092092858352 4.705842248478951 1.918959687716706  10.55847191256483 4.744338935799796 1.884408853712269  10.68720898469059 4.77470072904016 1.794174048564395  10.67983070868251 4.772982661935537 1.917359842721391  10.54673012673381 4.809489070475527 1.881878697547962  10.67698575803606 4.842419780438363 1.787764596995494  10.66868125726422 4.839576635360961 1.915657805204617  10.53460331751847 4.874086189661906 1.879156391306293  10.66635372462881 4.909490757008978 1.781177329714105  10.65717639114557 4.90549917864606 1.91375407470903  10.08902408794522 4.254683865402099 1.379782561778639  10.07659658454535 4.320004264103579 1.353919749078919  10.06441965986929 4.38528131671295 1.328171896239549  10.05240426039578 4.450485525473864 1.302468726160448  10.04045069770149 4.515584306308117 1.276760568182472  10.02844793140533 4.580561496172215 1.251004807904124  10.01632649283803 4.645421060093886 1.225156370679999  10.19260649877015 4.367619682003435 1.973992083052131  10.17139892684468 4.426901549393002 1.979104148374028  10.15076956814614 4.486145242030273 1.984131965390646  10.13043093839248 4.545294054753322 1.98911434311572  10.11019276551406 4.604289028533597 1.994046609899925  10.08985992226826 4.663055884012625 1.998905049883071  10.06915904274356 4.721483967015391 2.003704426060277  10.27319509949572 4.122613079642949 1.111839953258711  10.14895482441072 4.137235482332057 1.1525888
[...]
<PointData  Scalars="f_14"> 
<DataArray  type="Float64"  Name="f_14"  format="ascii">1.1844622834784498e-01  1.2399297995523526e-01  1.2616572395301240e-01  1.2614389640882828e-01  1.2399757543384639e-01  1.1843891847328566e-01  1.2608284988959467e-01  1.2399261866893262e-01  1.1840609043605056e-01  1.2598804638712829e-01  1.2396447077791591e-01  1.1833948988430092e-01  1.2585360003762300e-01  1.2389814276140476e-01  1.1822916771239267e-01  1.2567840337721059e-01  1.2378014597165957e-01  1.1806821258103531e-01  1.2548483513201905e-01  1.2359858594485333e-01  1.1785057876573306e-01  1.1713753194102761e-01  1.2795796326559133e-01  1.1657473717440456e-01  1.1659163203405770e-01  1.2796728816934233e-01  1.1714337752515545e-01  1.1662921390054881e-01  1.2800990384661110e-01  1.1716138781747922e-01  1.1666073276507073e-01  1.2806666873525790e-01  1.1717553980032655e-01  1.1666854298810081e-01  1.2812204683810818e-01  1.1717096650641620e-01  1.1663768239362526e-01  1.2816537912230333e-01  1.1713673911301348e-01  1.1655081005371734e-01  1.2819298983787458e-01  1.1708721978661520e-01  1.3432098950152413e-01  1.3431914362932457e-01  1.3017473008860811e-01  1.3018511153020595e-01  1.3023702867710840e-01  1.3030291983268125e-01  1.3037653397739563e-01  1.3046012254039493e-01  1.3055634949282086e-01  7.0234610576308171e-02  7.5409005666343815e-02  6.6095181063695094e-02  7.5289751444730130e-02  7.0139480099710397e-02  6.6009645991341487e-02  7.4980378831559488e-02  6.9900826916756156e-02  6.5758696951059376e-02  7.4551920309469527e-02  6.9546022831018114e-02  6.5378985000279707e-02  7.4048397977941244e-02  6.9097397597256333e-02  6.4905868657101157e-02  7.3525451949024559e-02  6.8586225665475134e-02  6.4382714370200697e-02  7.3063203656610162e-02  6.8046729351652624e-02  6.3828257689465984e-02  1.0230798742154380e-01  1.0679436796699773e-01  1.1800367566083494e-01  1.1801205453127647e-01  1.0673932766642297e-01  1.0225099274100026e-01  1.1804053188195489e-01  1.0664043751138350e-01  1.0213095682830838e-01  1.1805822173636882e-01  1.0649467168622150e-01  1.0195579120359345e-01  1.1803830668832156e-01  1.0630821380404114e-01  1.0173716559821050e-01  1.1795764799472928e-01  1.0609972354473642e-01  1.0149434868103296e-01  1.1781203946366370e-01  1.0589281601904139e-01  1.0125394877113778e-01  8.1512991227060572e-02  8.2672852408509773e-02  7.4291041911501404e-02  7.4191894064454256e-02  8.2587842060443672e-02  8.1427245710324878e-02  7.3920284607250974e-02  8.2368915981293700e-02  8.1195790729117354e-02  7.3533258408104887e-02  8.2052954662322028e-02  8.0863990610774594e-02  7.3073292179004184e-02  8.1675506158462072e-02  8.0467028176608571e-02  7.2585739117277046e-02  8.1276922584898839e-02  8.0057148884246393e-02  7.2138472925599870e-02  8.0910172087325108e-02  7.9689059527464565e-02  1.0831913344652065e-01  1.0832930879228549e-01  1.0834439828480984e-01  1.0832948072653087e-01  1.0826053918693797e-01  1.0812365591197418e-01  1.0792563871689910e-01  1.1504411821300427e-01  1.1504231189303797e-01  1.1504042553206979e-01  1.1501751811048033e-01  1.1495917822220701e-01  1.1485944920805098e-01  1.1472726584662551e-01  9.0549657044422735e-02  9.0505189296504751e-02  9.0376894760925433e-02  9.0172954767173560e-02  8.9911599618002935e-02  8.9622919082445657e-02  8.9329533326754279e-02  1.2252132472515201e-01  1.2251330683904997e-01  1.2251830559838255e-01  1.2252583066927776e-01  1.2253719652673499e-01  1.2256134951463428e-01  1.2260775889461555e-01  7.2470065635843545e-02  7.1995655707296616e-02  8.3138078983983066e-02  8.3065663104754536e-02  7.1913853745565762e-02  7.2410827479396631e-02  8.2867159338223306e-02  7.1704590369147864e-02  7.2243396030590018e-02  8.2575771556126568e-02  7.1387503936267249e-02  7.1973829997636504e-02  8.2222251236605884e-02  7.0992903765445758e-02  7.1624714357475500e-02  8.1838845154358103e-02  7.0550827622587159e-02  7.1217971304946379e-02  8.1466606871955088e-02  7.0096005609197001e-02  7.0765993359553955e-02  1.3230406075632575e-01  1.3227532072698203e-01  1.3219557818534577e-01  1.3211101098180256e-01  1.3204450041008120e-01  1.3202431329271225e-01  1.3213115901720654e-01  1.2443359645094458e-01  1.2447745220309173e-01  1.2457662635662783e-01  1.2468143347580939e-01  1.2475711293983802e-01  1.2477243741734656e-01  1.2469662066002483e-01  1.1543546869018054e-01  1.2684365071225540e-01  1.1975758749933887e-01  1.1976262662332690e-01  1.2684121673801482e-01  1.1541970251216996e-01  1.1974937199413607e-01  1.2681911237851751e-01  1.1538653844248895e-01  1.1972810424412013e-01  1.2679768517103504e-01  1.1534430188417884e-01  1.1971212078781129e-01  1.2679595475504718e-01  1.1529666242494503e-01  1.1971707186883628e-01  1.2683699450186994e-01  1.1524625946230876e-01  1.1975357580282514e-01  1.2695555476378154e-01  1.1521309779351319e-01  1.2262178856652854e-01  1.2256479254244458e-01  1.2242244705184219e-01  1.2226147193623528e-01  1.2211144217169567e-01  1.2200759609965275e-01  1.2203164766508716e-01  7.0407248352084562e-02  7.0300678309739517e-02  7.0006977763396289e-02  6.9588946209756725e-02  6.9090186742094231e-02  6.8561876485654566e-02  6.8067461352168235e-02  1.3963498722102979e-01  1.3966826540900953e-01  1.3971697883055426e-01  1.3978493805630701e-01  1.3988343894139460e-01  1.4002423515427548e-01  1.3533201695469202e-01  1.3533095638483361e-01  1.3533166402159064e-01  1.3534319587402055e-01  1.3538239408612565e-01  1.3546625794888559e-01  1.3561210605965765e-01  1.3808119117746756e-01  1.4551141522401689e-01  1.4560048279286381e-01  1.3801312742674421e-01  1.4571780040660032e-01  1.3795262429248908e-01  1.4586114986952239e-01  1.3792077613564607e-01  1.4602372223178359e-01  1.3794407454431884e-01  1.4615596437679218e-01  1.3806056408648507e-01  2.2758112904063474e-02  3.1011849728961999e-02  2.3055507348519421e-02  2.2977107228233214e-02  3.0957306193695331e-02  2.2705626147841516e-02  2.2759352501447460e-02  3.0780009384597299e-02  2.2551893141232685e-02  2.2419025623581383e-02  3.0472471894038781e-02  9.3601058198703915e-02  9.6177563231735624e-02  1.0697904744116689e-01  1.0697544911782392e-01  9.6171688340725633e-02  9.3564014117103883e-02  1.0695666966937374e-01  9.6149308835529815e-02  9.3459062885737604e-02  1.0690680750552442e-01  9.6079633431748648e-02  9.3289194851522594e-02  1.0681337770183888e-01  9.5950268446378342e-02  9.3060747234636740e-02  1.0667291994686284e-01  9.5762456646822397e-02  9.2794422829784215e-02  1.0648760662244283e-01  9.5492818433371901e-02  9.2512160867899554e-02  9.9593118425585020e-02  1.0360953267643000e-01  9.4645816238620811e-02  9.4645889842745579e-02  1.0357866122577590e-01  9.9559290923559765e-02  9.4614532385930913e-02  1.0348575325756379e-01  9.9478373156833652e-02  9.4532654968843097e-02  1.0335653592120791e-01  9.9359207088692517e-02  9.4399424179893443e-02  1.0319392972022341e-01  9.9197036016095752e-02  9.4211771500135238e-02  1.0300114003865875e-01  9.8992094526817412e-02  9.3953043447205384e-02  1.0280858608910401e-01  9.8753066035302456e-02  1.4728035649219409e-01  1.4738609817988418e-01  1.3074861332558216e-01  1.3076879350029086e-01  1.3092260674670173e-01  2.3585363624455860e-02  3.0410195126291631e-02  3.0387275765619805e-02  1.1488731661561571e-01  1.2198206168082812e-01  1.2632580502393292e-01  1.2635866956030714e-01  1.2199699483493305e-01  1.1486551435885763e-01  1.2644587226826867e-01  1.2204426979208871e-01  1.1482223713177281e-01  1.2654495626221121e-01  1.2209249499805948e-01  1.1475387075894639e-01  1.2662370999610001e-01  1.2212230500729075e-01  1.1465408170908330e-01  1.2665457099991065e-01  1.2211736149141986e-01  1.1452539857472220e-01  1.2661053435774411e-01  1.2205933481294587e-01  1.1438864530504375e-01  1.0048523430747876e-01  1.0045421910858331e-01  1.0037155618611567e-01  1.0023688506598476e-01  1.0005125948746897e-01  9.9830310191664162e-02  9.9586272027702594e-02  1.0605539139166073e-01  1.0604828294638076e-01  1.0602752952710215e-01  1.0597967189721527e-01  1.0589233556027577e-01  1.0575889150217307e-01  1.0557513950039889e-01  3.1009684218878081e-02  3.0934738826699035e-02  3.0716452935100207e-02  3.0367245096970984e-02  2.9890549919387506e-02  3.0027769502260979e-02  2.1944798845770795e-02  2.9287894112487067e-02  9.7479495669245853e-02  9.0460936467755909e-02  9.7446149906076668e-02  9.0257090730977541e-02  9.7369184858019681e-02  8.9997433651502118e-02  9.7243712329480564e-02  8.9702639897794756e-02  9.7049918746929725e-02  8.9395251016684621e-02  9.4424474189281515e-02  9.4370469198588769e-02  9.4217599724391643e-02  9.3992788182469436e-02  9.3718035145008441e-02  9.3421848557505197e-02  9.3137584043894245e-02  9.3893336376464867e-02  1.0419132856059365e-01  1.0413764442121459e-01  9.3831743931513389e-02  9.3661310078090546e-02  1.0398562293956813e-01  9.3412449201902004e-02  1.0377487918877241e-01  9.3114010984860426e-02  1.0352508185006752e-01  9.2798642426568573e-02  1.0326433706384540e-01  9.2501075930791682e-02  1.0303539557583909e-01  8.6046583754467831e-02  8.9466588921791143e-02  8.9470284416052009e-02  8.5982188062655923e-02  8.9441126238631694e-02  8.5791863930817669e-02  8.9348282807131085e-02  8.5518797721804027e-02  8.9187747459463840e-02  8.5181646331329783e-02  8.8965436650812524e-02  8.4817790411271562e-02  8.8661544584768659e-02  8.4475504876766458e-02  3.0280356509927005e-02  3.0048411086100929e-02  1.0924466627168372e-01  1.0925643862092883e-01  1.0925131472430732e-01  1.0922756224285995e-01  1.0918569928286531e-01  1.0912725912441122e-01  1.0903533380063136e-01  1.1303679682933133e-01  1.1305085527983744e-01  1.1308276945135287e-01  1.1310652574973770e-01  1.1311804413571493e-01  1.1310817680910400e-01  1.1304715688321607e-01  1.4004143986184073e-01  1.4005812243855062e-01  1.4008703490662394e-01  1.4012922827940694e-01  1.4018911547506535e-01  1.4027162117077493e-01  1.2845021113341787e-01  1.1826004394716336e-01  1.1828821450880973e-01  1.2845080595861796e-01  1.1835030603293416e-01  1.2844321375996565e-01  1.1839962407567373e-01  1.2841913534213109e-01  1.1840442872246454e-01  1.2836212100879474e-01  1.1833455461246772e-01  1.2825884315829419e-01  1.1815722328131481e-01  1.2810974526735075e-01  1.0521463782842233e-01  1.0519099038905400e-01  1.0512558255193678e-01  1.0501181404667122e-01  1.0485482533090330e-01  1.0466940240940270e-01  1.0446289823945600e-01  9.7477877095785689e-02  1.0638822643658412e-01  1.0640709976526899e-01  9.7476964150942494e-02  1.0645272784149461e-01  1.0648642201859845e-01  1.0649487716324421e-01  1.0646337371677562e-01  1.0635508907602800e-01  9.6749535881752585e-02  1.0615063339314468e-01  9.7830188351122935e-02  9.7803837539282665e-02  1.0613032201387956e-01  9.6738356842703030e-02  9.7725998795440694e-02  1.0607500495967981e-01  9.6701441333539570e-02  9.7590230033533010e-02  1.0597282391675775e-01  9.6610470322193720e-02  9.7384532918261796e-02  1.0581003321656951e-01  9.6450311881181444e-02  1.3237821261915680e-01  1.3240685285692294e-01  1.3247708603009550e-01  1.3256225843308428e-01  1.3263945892676204e-01  1.3268808838615212e-01  1.3270460541314893e-01  1.0928487289847059e-01  1.1538939309696210e-01  1.1536825675950421e-01  1.0928087454769957e-01  1.1530498209129242e-01  1.0926268743066680e-01  1.1520009492043787e-01  1.0920763281637307e-01  1.1504680586353190e-01  1.0909656483969563e-01  1.1484051453922921e-01  1.0890914344807505e-01  1.0557408165469107e-01  1.1458848339389761e-01  1.0863044305017971e-01  1.0526461280557708e-01  3.9039735334042293e-02  3.8965511686462978e-02  3.8754656682094990e-02  3.8410812151682398e-02  3.7939873532886553e-02  3.7340256918766843e-02  2.9435452142062109e-02  3.6603536146024448e-02  2.8689503007196832e-02  2.8562433947477820e-02  1.4447450099789017e-01  1.4462530138849761e-01  1.2189748474921049e-01  1.1342327093910928e-01  1.2188210886724066e-01  1.1342326597398125e-01  1.1342660882606846e-01  1.2183700058629873e-01  1.1341826809060972e-01  1.2178367024692818e-01  1.1339295787711973e-01  1.2173615176392046e-01  1.1334585409128733e-01  1.2171189538996452e-01  1.1326098373009047e-01  1.2175051594991840e-01  7.6322495367246154e-02  8.6947629754646191e-02  8.6348816946066470e-02  8.6319684309027256e-02  8.6897824958555706e-02  7.6253423200524167e-02  8.6229850404243011e-02  8.6737518416762915e-02  7.6056013351704310e-02  8.6068204118551012e-02  8.6501100090096317e-02  7.5755684309443891e-02  8.5835480519317248e-02  1.2852097155868125e-01  1.2854047091228543e-01  1.2858664448129986e-01  1.2862862836094421e-01  1.2864320619283534e-01  1.2860831685890545e-01  1.2849910048371338e-01  9.4644054599775845e-02  8.7299584646763018e-02  8.7271147761715281e-02  9.4621017542746072e-02  8.7178066474889238e-02  9.4551500827777440e-02  8.7015519639063302e-02  9.4430240367765553e-02  8.6784333517291465e-02  9.4254101666190040e-02  8.6494271497522104e-02  9.4022173389751024e-02  8.5535932915465657e-02  8.6158351232489369e-02  9.3741638778845351e-02  8.5181272764149260e-02  1.3410397712114944e-01  1.3413372076958777e-01  1.3419341532589710e-01  1.3425639592701483e-01  1.3430015233049086e-01  1.3430244536805974e-01  1.3423317758870898e-01  9.6214251320483030e-02  9.5900533944863767e-02  4.7263368432333919e-02  3.9520097281955428e-02  4.7171499115432100e-02  3.9440324884070795e-02  4.6915070742298906e-02  3.9216166487757831e-02  4.6523348298951606e-02  3.8861914643046197e-02  4.6018368886609172e-02  3.8387705335581800e-02  4.5414928440671437e-02  3.7796627420859236e-02  4.4725734319933284e-02  3.7085983569394576e-02  9.7112909271157385e-02  9.7113928490854776e-02  9.7100489144209184e-02  9.7049300096500313e-02  9.6942622330842346e-02  9.6773678050377412e-02  9.6527823910964983e-02  7.5219634050202294e-02  8.5460670305587044e-02  7.6851111142206871e-02  8.5383919097712771e-02  7.5130101552251791e-02  1.1428129649016036e-01  1.1428594679468254e-01  1.1430261636971918e-01  1.1431553194578484e-01  1.1432271247627461e-01  1.1432223333931320e-01  1.1427928243814901e-01  1.0164575460122192e-01  1.1120894529984920e-01  1.1119709249698639e-01  1.0162237997378076e-01  1.3775859269069812e-01  1.3776032412206896e-01  1.3776583386236751e-01  1.3777315744722582e-01  1.3776919249666580e-01  1.3774529024982016e-01  1.3771169415664750e-01  3.9856327828492806e-02  4.5816010467367552e-02  4.8807198151041495e-02  4.8719702058661475e-02  4.5731725499141306e-02  3.9773435948975276e-02  4.8482454842931524e-02  4.5484071706561796e-02  3.9536747658117682e-02  4.8104231154849970e-02  4.5086435900613703e-02  3.9150816645337191e-02  4.7599543397687814e-02  4.4548467034318820e-02  3.8618886265849132e-02  4.6977423522808301e-02  4.3877389846974195e-02  3.7935295661766150e-02  4.6269131607122017e-02  4.3111148556680905e-02  3.7116603240856874e-02  5.7724798456730023e-02  6.1869831084079931e-02  6.6776256163953648e-02  6.6687523543736471e-02  6.1781882605169695e-02  5.7638991541308637e-02  6.6447017638271100e-02  6.1542767657403574e-02  5.7393085295971619e-02  6.6089235246825390e-02  6.1177221747316060e-02  5.7016029609700050e-02  6.5644679604995870e-02  6.0713605169801510e-02  5.6532945944182907e-02  6.5141048025050247e-02  6.0177301753097510e-02  5.5964317760734086e-02  6.4618119541256014e-02  5.9610569115748177e-02  5.5343617503674163e-02  6.6189881478259854e-02  6.6101748037696154e-02  6.5852436173990073e-02  6.5481355206342809e-02  6.5022894199004824e-02  6.4512783341003785e-02  6.3993507262363775e-02  5.7137618264559764e-02  6.1348591899612517e-02  6.1250857323861319e-02  5.7047746393895649e-02  6.0981841336317920e-02  5.6798389878672868e-02  6.0580774002673650e-02  5.6417985751920655e-02  6.0083917104761783e-02  5.5934470210542944e-02  5.9526660846067642e-02  5.5372817784103676e-02  5.8954193444963415e-02  5.4764750535655257e-02  3.0534284477036207e-02  3.1887938315541979e-02  3.1831557122628126e-02  4.0025120927321349e-02  4.7188907660427368e-02  4.8389244433406822e-02  4.8291953185321930e-02  4.7094091341400586e-02  3.9942959281664220e-02  4.8036691496295178e-02  4.6824095717636627e-02  3.9719324476776688e-02  4.7633286868249344e-02  4.6406355815044958e-02  3.9350293056315863e-02  4.7094473146626403e-02  4.5857210616017267e-02  3.8824432593985610e-02  4.6435254666354127e-02  4.5192156820048811e-02  3.8128345590301461e-02  4.5693198442298029e-02  4.4453659234638128e-02  3.7281159739210923e-02  5.7305193305480728e-02  6.4710936497282115e-02  6.7330290480976787e-02  6.7255189635534604e-02  6.4632534728335883e-02  5.7209060680631023e-02  6.7046516236462420e-02  6.4398473418881802e-02  5.6937338423590562e-02  6.6724694984519842e-02  6.4042186397008163e-02  5.6528376205016412e-02  6.6313277159076908e-02  6.3593190058935725e-02  5.6009011037357614e-02  6.5839255170885971e-02  6.3082607344485619e-02  5.5410318375368556e-02  6.5337178250056110e-02  6.2563970912193484e-02  5.4789772623697726e-02  3.2224614129435621e-02  3.7744358062830739e-02  3.7688342856226555e-02  4.8319337768210707e-02  5.6645490910780659e-02  5.7456009439032472e-02  5.6551908830025373e-02  4.8231142690767913e-02  5.7376259312610985e-02  5.6295238146275045e-02  3.8235873594134336e-02  4.5969356851284185e-02  4.5887504152207138e-02  3.8166883936200678e-02  4.5651594703553698e-02  3.7951016482040217e-02  4.5275840348139043e-02  3.7596089291738299e-02  4.4776308294408734e-02  3.7103178072480494e-02  4.4161894908478258e-02  3.6466372407703895e-02  4.3445358446999351e-02  3.5681578748182903e-02  6.6808990303774296e-02  4.7986107272320007e-02  4.7612791345283810e-02  3.7487744460210602e-02  3.1682942546557048e-02  3.7139276486599995e-02  3.1404469255973955e-02  3.6628944195664891e-02  3.0970653371007496e-02  3.5942701024860677e-02  3.0345591259557315e-02  3.5083735175667617e-02  2.9486166023334075e-02  8.0242056156390407e-02  8.0179808578141956e-02  7.9986394428761196e-02  7.9695335808174256e-02  7.9329334579380670e-02  7.8923035711236489e-02  7.8521993894635198e-02  7.6826948739384046e-02  8.6783729919913219e-02  8.1112902991373928e-02  8.1038871602629056e-02  8.6713847765065369e-02  7.6748667927311595e-02  8.0837768408221530e-02  8.6526914757644860e-02  7.6527714832196669e-02  8.0540138094312055e-02  8.6253345848519278e-02  7.6205634552035315e-02  8.0177063904177268e-02  8.5923236899570182e-02  7.5810701729422905e-02  7.9781271807334631e-02  8.5570238794593842e-02  7.5375041142084778e-02  7.9384790232257085e-02  8.5230261084566841e-02  7.4939189134287501e-02  1.0347981641531508e-01  1.0346669339376507e-01  1.0342657697342550e-01  1.0335434982467120e-01  1.0324191126577814e-01  1.0308509515829957e-01  1.0290245375371140e-01  5.4107771327212291e-02  5.4022406551371027e-02  5.3766970818688260e-02  5.3372280333273743e-02  5.2859273390911891e-02  5.2249922080608135e-02  5.1585170176468874e-02  6.2016982174574596e-02  6.1926337783081639e-02  6.1667963972060424e-02  6.1282631448153553e-02  6.0800525948480316e-02  6.0256902038072477e-02  5.9694536429165578e-02  1.1309885353727496e-01  1.1311504296648081e-01  1.1314814854776147e-01  1.1315980336312492e-01  1.1312029216058560e-01  1.1300114339808125e-01  1.1277558450779904e-01  7.9116411380458940e-02  7.9063885306892012e-02  7.8900257497019718e-02  7.8641611852398263e-02  7.8299378376478296e-02  7.7892904739662566e-02  7.7448564891472560e-02  7.2068322745887162e-02  7.6679276544067670e-02  7.6600527626887932e-02  7.1993337242361302e-02  7.6383716622502554e-02  7.1776909541809680e-02  7.6066279538965928e-02  7.1452128473139739e-02  7.5677450534786084e-02  7.1047629609318708e-02  7.5247361847979241e-02  7.0591088222440840e-02  7.4809941884661363e-02  7.0115112588108611e-02  8.7159837351841241e-02  8.7143945971525541e-02  8.7076790268701867e-02  8.6938165971470194e-02  8.1758079462993474e-02  8.1671999293177241e-02  8.1435087423195746e-02  7.4880666474365268e-02  8.5203961369136605e-02  8.1099614537377809e-02  7.4524488942490821e-02  8.4941383449409588e-02  8.0704664567306725e-02  7.4101209526659093e-02  8.4615945386957631e-02  8.0283754870642071e-02  7.3641376930793492e