<?xml version="1.0"?>
<VTKFile type="UnstructuredGrid"  version="0.1"  >
<UnstructuredGrid>
<Piece  NumberOfPoints="957" NumberOfCells="4073">
<Points>
<DataArray  type="Float64"  NumberOfComponents="3"  format="ascii">9.250918961619394 2.013707376588747 3.365840233982101  9.146375792317491 1.959686764613508 3.295333092745922  9.259494719873731 1.968490263948421 3.282805838692333  9.266583839920157 1.921980351104521 3.308938844989155  9.152711828627011 1.912880317178977 3.32149193547875  9.258402648132513 1.96624775426431 3.392637162809253  9.273718314861782 1.875455437083497 3.335051108872095  9.159059469943569 1.866053742957618 3.347637663674076  9.265938074100212 1.918780662675375 3.41942126143037  9.280872045526566 1.8289259974973 3.361141207757924  9.165411207930026 1.819217561615923 3.373767370248894  9.273493886877311 1.871307967700135 3.446187086311895  9.288022585358549 1.782391360982063 3.387207493745593  9.171758495480761 1.772373226791066 3.399875591281844  9.281044703391631 1.823826399439473 3.472928131310409  9.295146140620803 1.735841822370441 3.413248240921744  9.178091456314691 1.725510489334015 3.425958076046675  9.288564215316438 1.77632289904019 3.499638076144687  9.302212273759251 1.689254975457997 3.439263773804057  9.184397759224769 1.678605335552223 3.452010853027968  9.296012945790935 1.728770618151617 3.526309844853104  9.524486172983208 1.894423738320423 3.072529535859104  9.425936205174128 1.908122245238897 3.127490306487424  9.454040413016964 1.845006067356836 3.006830537930293  9.462117805287527 1.799990561798499 3.031964015958329  9.433697916343521 1.862879790317049 3.152939067086798  9.532767908874277 1.849343625215287 3.097581882597165  9.441535273791397 1.817632619097159 3.178341634670738  9.541148005670079 1.804271914921158 3.122582606493121  9.47028009895376 1.75497564625529 3.057034723062074  9.549569224306838 1.759214274426862 3.147542702486218  9.44940726917504 1.772393200092095 3.203707192620144  9.47847653700012 1.709969501330268 3.082063338136365  9.557986983863577 1.714172279227788 3.172472275655399  9.45727723812381 1.727158900236281 3.229046545381786  9.486666930538741 1.664978140102654 3.107063166583217  9.566356117211036 1.669141222301906 3.197384520402304  9.465106826151798 1.681925791756036 3.254370310073452  9.494813029272098 1.619999946386539 3.132052485767023  9.574610962654242 1.624105167607541 3.222300768635864  9.472854383015324 1.636682019906344 3.279698687553435  9.502865496133451 1.575028018533279 3.157065589901537  9.432785009215388 1.610125665712554 2.600180355191136  9.561615566077061 1.641220067113647 2.65447893951913  9.536711966467877 1.617831103271958 2.547952938444555  9.553213561971107 1.692242699470965 2.639569533554867  9.570035501171018 1.590233652626806 2.66929588324331  9.106173268294368 2.004537289500544 3.3867556080836  9.112348389271085 1.956507159256393 3.413687881250496  9.118523979701466 1.908454745608153 3.440618898484783  9.124696280462558 1.860394154529095 3.46753642684747  10.12187354662648 2.023451590190072 3.113190321454531  10.05827430135474 2.065515669507915 3.195533959213763  9.980611037662829 2.0162215987653 3.141400803845674  9.988370498409887 1.971759910960195 3.168539980758404  10.06600434456413 2.02162620160527 3.22444541938774  10.12847002615854 1.979161503041123 3.140655171703289  9.996150573798641 1.927347483887534 3.19563058799724  10.07372411283473 1.97778436122914 3.253307849381268  10.1350074970474 1.934904716082493 3.168084471699196  10.00393262875889 1.882970244317182 3.222675341051092  10.08142776017558 1.933970432425944 3.282129519465911  10.14150852426371 1.890664219565491 3.195478261015096  10.01170954163524 1.838623739905114 3.249674221574906  10.08912727574698 1.89017566179102 3.310908440231145  10.14800890287883 1.846436468027522 3.222836565778182  10.01947469687073 1.794315355900225 3.276620720292324  10.09683628027408 1.846405892364079 3.339633910360154  10.15454964740501 1.802233145150412 3.25015094053725  10.02720955815926 1.750050411992349 3.303503850016738  10.10454790911452 1.802681232209535 3.368280747747131  10.16116415395965 1.758093633262549 3.277390632281457  9.233938421346204 1.79753018531484 2.987185471033776  9.111794812874162 1.800545649166652 3.025305589106762  9.175653729274483 1.745342640209099 2.911559987685989  9.182778768388836 1.698988943820645 2.935699832281367  9.118352899274024 1.755372836699925 3.051124515579041  9.241150984343594 1.752384815737196 3.012640818449581  9.189921057341014 1.652617583415595 2.959778947801913  9.124918618835913 1.71018032357636 3.076905948707676  9.248397406111616 1.70722012639642 3.038043293825028  9.197069441957751 1.606249229507294 2.98381980090106  9.131488010110468 1.664983138223322 3.102662278232927  9.255658201798616 1.662051289689505 3.063411749588939  9.204209094961694 1.559892028912796 3.007840611697807  9.138051604651805 1.619786723917534 3.128400900774147  9.262913762384699 1.616885575859003 3.088760116736033  9.211324768689726 1.513553486854173 3.031863055760142  9.144599034984356 1.574592527523099 3.154133698832636  9.270144081066581 1.571725968212041 3.11410670587014  9.218409662598631 1.467241118494792 3.055919658157674  9.151123974899932 1.529403629372927 3.179886977472352  9.2773283483534 1.526577134850723 3.139486355892784  10.05156397523807 1.974597703775644 3.047639077427889  10.05817723658448 1.93007154975189 3.073878461769327  10.06476307388691 1.885585550809186 3.100074846986188  10.07133032850467 1.841123387249235 3.12623191894464  10.07789677466032 1.796681034049244 3.152352657845217  10.08448352076774 1.752265632671572 3.178434630702502  10.09110532318362 1.707900888674237 3.204458572132321  10.04026633414281 1.709679861258228 2.418393358256904  9.987577938641103 1.722385719625658 2.494529301737767  9.938043659707755 1.695413937468635 2.376590788778683  9.942655348985683 1.640954270432488 2.382450866959082  9.993022836367262 1.670062497594853 2.507533725106371  10.04577070594899 1.655921042517942 2.4281930857771  9.947051154760715 1.586515068094505 2.388247263837176  9.998321539481406 1.617765609594029 2.520525735666978  10.05108032779657 1.602170531126936 2.437964629223955  9.951358096289303 1.532108548407614 2.394007140034475  10.00355248559587 1.565490855841283 2.533495152939288  10.05630844364171 1.548439213223589 2.447709751062076  9.955658336883801 1.47774785511537 2.399757095528017  10.00877177938712 1.513248580170085 2.546453554644015  10.06154046223057 1.494740011655598 2.457448865884452  9.960034198636817 1.423451998124484 2.405524395905887  10.01403486064783 1.461061492655311 2.559411324239057  10.06686958326793 1.441102704809535 2.467200054657757  9.964623268820157 1.369237084312045 2.411324878249173  10.01945203679638 1.408945418584924 2.572365542167287  10.07243775535158 1.387522075502756 2.476973676774345  10.39163410013394 2.220848143792308 3.342615390556269  10.29005362659952 2.171633129223085 3.297931852941563  10.40551595589035 2.133802160685357 3.223893315908657  10.29630772305541 2.128432824692815 3.330991719975573  10.3960070941263 2.177849958472393 3.377838090192046  10.40988983807781 2.089676379701861 3.255234144087097  10.3023970177275 2.085242304213464 3.364021057520377  10.41399860871648 2.045514045818498 3.286556704983237  9.41830148626337 1.643382968073219 2.723074582575824  9.426759377885492 1.593637514868357 2.740687860703411  9.315301173223533 1.862011725409944 3.078031271501674  9.322764280062762 1.816932538696325 3.103356067005297  9.330285903766857 1.771839484979805 3.128637748085295  9.337833439908536 1.726744190007989 3.153885496710627  9.345378550597824 1.681651370863371 3.179110451187882  9.352892651996189 1.636559904196288 3.204327655262742  9.360341367100661 1.591462404485242 3.229559638042024  9.531450350609168 1.728503791488539 2.735953809879736  9.409877606585853 1.693143319431934 2.705364267881262  9.540594936005231 1.680330778823749 2.756113298766748  9.549828950637805 1.632180973624405 2.776185638097265  9.559085605802967 1.58405514163403 2.796203786879412  9.578444181143873 1.53930262850067 2.684055724145317  9.435227025009036 1.543922334411281 2.758244459305654  9.56832905113186 1.535956636573396 2.81619318251358  9.586837609042124 1.488437148764276 2.698785212298447  9.443678852163966 1.494242886421793 2.775774962700814  9.577523470425488 1.487889862301967 2.836177320320437  9.595209206964054 1.437646002129307 2.713515477497376  9.452094264296669 1.444605793396784 2.793305881439113  9.586606884420551 1.439863350418983 2.856196155826101  9.60353357279309 1.386910975642145 2.728275697480514  9.460455404707185 1.395017150803877 2.810881404730827  9.709407690944154 1.902123005603988 3.02440005285621  9.592225169336851 1.859660044431384 2.985826730414292  9.699504934978968 1.855332441064002 2.942065743638327  9.707623368390083 1.810185002371635 2.966471151552831  9.600697719174043 1.814689324940672 3.010490471712902  9.717510533272618 1.857205742179049 3.049242161670457  9.715815567555602 1.765073341482306 2.990815330725347  9.609272388825071 1.769741949500768 3.035090976674607  9.725697163310304 1.812319390240226 3.074029259630966  9.724039519322716 1.719992018051312 3.01511518702274  9.617887576893594 1.724815545607013 3.059648236992586  9.733918977354479 1.76746181776472 3.098772342408028  9.732256263999231 1.674937076889004 3.03938026471122  9.626498596568622 1.679907857777652 3.08417454606258  9.742137660905197 1.722629460318233 3.12347890378809  9.74042730596223 1.629906780613282 3.063620262559307  9.635059894078843 1.635016177054113 3.108683201465833  9.750312918549753 1.677821612959735 3.148155713284262  9.748515055716656 1.584912079078024 3.08784697398292  9.643499770878918 1.59014119116891 3.133193685269172  9.758388515846658 1.633044231290631 3.172811771673822  9.053451292158375 1.732215234040939 2.92071080190189  9.060612111427776 1.685946618748096 2.945343810742381  9.06779233270996 1.639662530312767 2.969930781990021  9.074979874029337 1.593378562257735 2.994487633
[...]
<PointData  Scalars="f_14"> 
<DataArray  type="Float64"  Name="f_14"  format="ascii">-5.7368919838363869e-14  -5.9871584986970302e-14  -5.7149190525208264e-14  1.6998008378180970e-01  1.6845818748366637e-01  1.7350770070303748e-01  3.3812163172999882e-01  3.3625427990415918e-01  3.4389802789495555e-01  5.0493776672534618e-01  5.0299816586385637e-01  5.1159566674682733e-01  6.7062019489468594e-01  6.6878070536637180e-01  6.7674580645269056e-01  8.3553887238666558e-01  8.3400611000706582e-01  8.3952196030433457e-01  1.0000000000001770e+00  1.0000000000001741e+00  1.0000000000001767e+00  -5.0630488427744486e-14  -5.3070910438865455e-14  -5.2360492553776547e-14  1.7125521660617821e-01  1.6849560027299684e-01  1.6945855918798772e-01  3.3598186157188453e-01  3.3732058029181433e-01  3.4025268547152621e-01  5.0404176868758832e-01  5.0252844818076903e-01  5.0735033379887984e-01  6.6984178701115937e-01  6.6834540225077688e-01  6.7277891418670510e-01  8.3506183196263140e-01  8.3383210176381373e-01  8.3687277076255961e-01  1.0000000000001834e+00  1.0000000000001810e+00  1.0000000000001816e+00  1.8680698213058494e-01  1.9655126088436456e-01  1.8015698365410307e-01  -4.9877838158193580e-14  3.7519902353806145e-01  -6.0853013697276295e-14  1.7438438267331671e-01  3.4501870472165691e-01  5.1285699286324848e-01  -3.5857800257602696e-14  -3.7419539483754594e-14  -3.9349828935876542e-14  1.7231757551608967e-01  1.6858687598479746e-01  1.6771563873236017e-01  3.4050335444509489e-01  3.3592729238915653e-01  3.3455301644063112e-01  5.0727911791686175e-01  5.0239334736087848e-01  5.0082571172934831e-01  6.7325469904329471e-01  6.6827697573206069e-01  6.6681194507846220e-01  8.3826079873552140e-01  8.3395593094836118e-01  8.3296071967933694e-01  1.0000000000001947e+00  1.0000000000001967e+00  1.0000000000001983e+00  -5.7751883527688978e-14  -6.0692148922246514e-14  -5.9182982375880924e-14  1.7911885042685563e-01  1.6955279404584095e-01  1.7100883049110477e-01  3.5138597552027045e-01  3.3770977119695011e-01  3.4024291257396694e-01  5.1945078876065309e-01  5.0445773528212623e-01  5.0736307561645400e-01  6.8394553628875365e-01  6.7001695602496347e-01  6.7256035395777947e-01  8.4476742627622725e-01  8.3486996104084399e-01  8.3633425715612952e-01  1.0000000000001747e+00  1.0000000000001734e+00  1.0000000000001763e+00  -3.7588397397687702e-14  1.6484114731811678e-01  3.3128736387817015e-01  4.9747262957647531e-01  6.6341289432470552e-01  8.2987647338242587e-01  1.0000000000001965e+00  -3.7630864645195383e-14  -3.8996218916912541e-14  -4.0150293641236608e-14  1.8832457943795683e-01  1.8329042910761470e-01  1.9368778677426099e-01  3.6568025141357130e-01  3.5843196799902449e-01  3.7144332478866710e-01  5.3502075496278667e-01  5.2738157890341752e-01  5.4098259228649348e-01  6.9732788565604220e-01  6.9072614188696868e-01  7.0349944875883819e-01  8.5270753328897386e-01  8.4856853900255247e-01  8.5879333116915502e-01  1.0000000000001938e+00  1.0000000000001950e+00  1.0000000000001965e+00  -2.9221849151390652e-14  -3.1695049507846848e-14  -2.8885001610050348e-14  1.7344191389202754e-01  1.7172718392311739e-01  1.6814714568433897e-01  3.4206792880531595e-01  3.3587237407211090e-01  1.8663261446809873e-01  3.6305503572411835e-01  -5.5765156305033062e-14  1.6791705024695144e-01  3.3523087533799573e-01  5.0162113275225340e-01  6.6729005953677734e-01  8.3288524629577898e-01  1.0000000000001783e+00  -5.0399746749906121e-14  -5.3442274802762583e-14  1.7739006793106898e-01  3.5111722368362730e-01  5.1983001477119961e-01  5.4480058278557009e-01  5.3231620709936567e-01  6.8376670722232358e-01  7.0703069430989751e-01  6.9523175713260255e-01  8.4352225422958238e-01  8.6096537508086946e-01  8.5175725336002461e-01  1.0000000000001836e+00  1.0000000000001843e+00  1.0000000000001805e+00  -4.6051090395063898e-14  -4.8935625203917278e-14  -4.6282381850224590e-14  1.7019711294052484e-01  1.6873871729319845e-01  1.6814672607054520e-01  3.3897726863461047e-01  3.3686860782321121e-01  3.3555403099248682e-01  5.0596140454974858e-01  5.0362779428158633e-01  5.0207310750688572e-01  6.7139538664802834e-01  6.6911382739329706e-01  6.6786334549312654e-01  8.3566189771672994e-01  8.3394854757612469e-01  8.3342383466341119e-01  1.0000000000001878e+00  1.0000000000001852e+00  1.0000000000001881e+00  -6.2099424654468300e-14  1.7656769352511589e-01  3.4795653838395985e-01  5.1580989807167354e-01  6.8055551657954994e-01  8.4225034332172999e-01  1.0000000000001719e+00  -4.8349607967371007e-14  1.6875467534799460e-01  3.3625866189039577e-01  5.0277425441535151e-01  6.6852930346700756e-01  8.3395467786213862e-01  1.0000000000001856e+00  -4.1906389161370960e-14  1.8286849940447164e-01  3.5805585508484872e-01  5.2697027280307696e-01  6.9012514723689877e-01  8.4785344092871595e-01  1.0000000000001923e+00  -5.5259028039698265e-14  1.6886178957257930e-01  3.3638661083607285e-01  5.0289555378305439e-01  6.6864052381336048e-01  8.3404825803124427e-01  1.0000000000001787e+00  -6.0644530390930548e-14  1.7979440074982056e-01  3.5359932806155431e-01  5.2218590329506653e-01  6.8600625700791884e-01  8.4532092600438602e-01  1.0000000000001734e+00  -5.7462440474754976e-14  1.6931484878251193e-01  3.3657211245259983e-01  5.0297331408936830e-01  6.6887688246652055e-01  8.3463927028084894e-01  1.0000000000001765e+00  -6.3352011967462170e-14  1.7952006488985556e-01  3.5281176804824421e-01  5.2117718380493316e-01  6.8506459595874669e-01  8.4474889980137569e-01  1.0000000000001708e+00  3.3333053391043160e-01  3.3699267760934448e-01  1.6681170832403594e-01  5.0373917979192051e-01  4.9950794451610636e-01  6.6961855421386562e-01  6.6552630929453627e-01  8.3495001190395768e-01  8.3188903449997931e-01  1.0000000000001708e+00  1.0000000000001723e+00  -5.8746393828067256e-14  1.6756195933874718e-01  3.3461281556831191e-01  5.0098842090822526e-01  6.6690865339160899e-01  8.3283330728505800e-01  1.0000000000001752e+00  -3.1218759028598462e-14  1.6639081642697962e-01  3.3365555114129114e-01  3.3269106381647440e-01  4.9859097255064944e-01  6.6469672163440519e-01  8.3151719134206226e-01  1.0000000000001696e+00  -4.0479601560333667e-14  1.7240641169062632e-01  3.4451949273704785e-01  5.1264396446595784e-01  6.7657539316057691e-01  8.3740055881313336e-01  1.0000000000001936e+00  -3.9715829341212451e-14  1.6705270530187682e-01  3.3456441377997875e-01  5.0117464310422988e-01  6.6692028505966405e-01  8.3239416590291915e-01  1.0000000000001943e+00  -3.3656997175368812e-14  1.7196328907642042e-01  3.4027947643684692e-01  5.0688835078649919e-01  4.9997355667547233e-01  5.0886597853346460e-01  6.7227875661479042e-01  6.6561619493130764e-01  6.7444287529177793e-01  8.3675463285226248e-01  8.3145466516866218e-01  8.3865048966287137e-01  1.0000000000002005e+00  1.0000000000002029e+00  1.0000000000002025e+00  -4.3285977600082322e-14  1.7862736489907335e-01  3.5266089068884682e-01  5.2134741128350282e-01  6.8491571989129152e-01  8.4399457186291482e-01  1.0000000000001910e+00  -4.2378570887278646e-14  1.6896902455034396e-01  3.3688036612039896e-01  5.0359284703624252e-01  6.6924500151450217e-01  8.3424619507310283e-01  1.0000000000001916e+00  1.0000000000001661e+00  1.0000000000001690e+00  1.0000000000001692e+00  8.4900620207067290e-01  8.5494755576731940e-01  -5.5098760323634625e-14  1.7123240333292689e-01  3.4074683410046652e-01  5.0795255626252833e-01  6.7302157817928188e-01  8.3648485263089134e-01  1.0000000000001790e+00  1.0000000000001774e+00  1.0000000000001783e+00  1.0000000000001754e+00  8.5173365320098859e-01  8.5254601416273113e-01  -6.4995558553830368e-14  -6.7571446296051534e-14  -6.7817832999989209e-14  1.8158874230012417e-01  1.8402805035940961e-01  1.9038512470730759e-01  3.6768125847247202e-01  3.5627092793309073e-01  3.5921437911688692e-01  5.3706214908645833e-01  5.2514753417106041e-01  5.2806027063836947e-01  6.9960862088869213e-01  6.8871763186454971e-01  6.9129014943857248e-01  8.4733954622390217e-01  1.0000000000001663e+00  -3.2021683097429603e-14  1.6575952007163469e-01  3.3270287881036553e-01  4.9901068391161313e-01  5.0252287686010955e-01  6.6477621917670893e-01  6.6835033581023773e-01  8.3077597344322507e-01  8.3381893614421188e-01  1.0000000000002021e+00  1.0000000000002052e+00  -5.6653531964295889e-14  -5.7786239107928997e-14  -5.9666486636040020e-14  1.8580336259615635e-01  1.7995363209487503e-01  1.8686868270272816e-01  3.6163710346023281e-01  3.5397895453345440e-01  3.6307630628601822e-01  5.3067969394444270e-01  5.2263593206874559e-01  5.3222456119595141e-01  6.9376921698843286e-01  6.8631633295401462e-01  6.9513876370113592e-01  8.5090944254742473e-01  8.4536332575168849e-01  1.0000000000001743e+00  1.0000000000001763e+00  -6.2129033845883709e-14  1.8305182947859050e-01  3.5780201728719868e-01  5.2662587446662723e-01  6.9007594740345890e-01  8.4828822826051176e-01  1.0000000000001719e+00  -5.4952051189689139e-14  1.8107405963094428e-01  3.5546046741284953e-01  5.2420431478170959e-01  6.8777643521611143e-01  8.4642836788553033e-01  1.0000000000001792e+00  -5.8657287517115655e-14  -6.2310447143905511e-14  1.8264368154882180e-01  1.8780214889840346e-01  3.5780805298907259e-01  3.6444876414188743e-01  5.2667569983983376e-01  5.3364589500112691e-01  6.8976926425963059e-01  6.9633715613364822e-01  8.4742054797383826e-01  1.0000000000001716e+00  -3.4983144037308661e-14  1.6834347179456663e-01  3.3634004973041987e-01  5.0302372561910558e-01  6.6850924524720012e-01  8.3347671191897366e-01  1.0000000000001992e+00  -5.3484803724856735e-14  1.8211096053237938e-01  3.5541538456162564e-01  5.2379915255613607e-01  6.8809944539551382e-01  8.4792006781720730e-01  1.0000000000001805e+00  -5.8440007766995227e-14  1.6972217037721268e-01  3.3735728978314894e-01  5.0389834641618769e-01  6.6964596857291681e-01  8.3495838231630470e-01  1.0000000000001756e+00  -5.4294009702698986e-14  -5.4527167197912259e-14  1.7071759221967864e-01  1.7635119518999035e-01  3.3980515967744712e-01  3.4885588033522086e-01  5.0704184759564730e-01  5.1732553417329052e-01  6.7246736784413474e-01  6.8193017099498932e-01  8.3646141569077093e-01  8.4279977177194054e-01  1.0000000000001796e+00  1.0000000000001796e+00  -4.0323805488362899e-14  1.6612249678340540e-01  3.3283253834426940e-01  4.9910548096637647e-01  6.6502955707249123e-01  8.3125638181538830e-01  1.0000000000001938e+00  -3.7585622054531354e-14  1.8875888471929164e-01  3.6721742445107081e-01  5.3698044976522497e-01  6.9892997602244233e-01  8.5346045232715650e-01  1.0000000000001965e+00  -3.7011314724226074e-14  1.6952181752627252e-01  3.3750716702845296e-01  5.0426548189016351e-01  6.7007367482799773e-01  8.3521221890716069e-01  1.0000000000001970e+00  -4.5442212758357749e-14  1.6798105236778624e-01  3.3542904064574874e-01  5.0201799325895013e-01  6.6791193999962928e-01  8.3352315779972874e-01  1.0000000000001887e+00  1.7189506494225443e-01  1.7031395147175848e-01  1.7421056912097560e-01  3.4460778153967908e-01  3.3864966254334239e-01  3.4142368142682333e-01  5.1213975550673818e-01  5.0540746107936563e-01  5.0870964094093918e-01  6.7720274682839687e-01  6.7085951695893986e-01  -3.5112375016964469e-14  -3.6182526403434489e-14  1.7978062697076042e-01  1.8736686100081398e-01  3.5452743882772425e-01  3.6465498247235212e-01  5.2343766832428307e-01  5.3418082820368318e-01  6.8679868886417972e-01  6.9666806455691754e-01  8.4516391255104195e-01  8.5221557322962460e-01  1.0000000000001978e+00  1.0000000000001990e+00  -4.0904335028400119e-14  -4.3798254914332601e-14  -4.2000167765616619e-14  1.6982152074952700e-01  1.7155661523922774e-01  1.7025935989682747e-01  3.3869266614674032e-01  3.4017986547786799e-01  3.3821964326998971e-01  5.0571131810624659e-01  5.0712708107321869e-01  5.0486946885742223e-01  6.7099591032426831e-01  6.7275935725957803e-01  6.7060577688740775e-01  8.3512731324547429e-01  8.3722821009062565e-01  8.3570176278208774e-01  1.0000000000001921e+00  1.0000000000001903e+00  1.0000000000001932e+00  -4.3125146110800391e-14  1.6896591952668419e-01  3.3638849846245722e-01  5.0289673016914893e-01  6.6878079441969240e-01  8.3438985958899337e-01  1.0000000000001910e+00  -3.5092334108244592e-14  -3.8071814792301952e-14  -3.6333172025395028e-14  1.7154698121023565e-01  1.7180419829531363e-01  1.7261507904425369e-01  3.4067397939979083e-01  3.3998341141938482e-01  3.4120374337180842e-01  5.0773270598654163e-01  5.0674986317773874e-01  5.0802471019036244e-01  6.7306533838838889e-01  6.7254352526285965e-01  6.7364812209448932e-01  8.3699039461123781e-01  8.3740073553336991e-01  8.3811769734723029e-01  1.0000000000001978e+00  1.0000000000001961e+00  1.0000000000001990e+00  -5.1885219280034113e-14  -5.2452383998394226e-14  1.6978627144124628e-01  1.7402031882293303e-01  3.4511630099183277e-01  3.3820465087642715e-01  5.1313306629391664e-01  5.0519015501647835e-01  6.7819049098894879e-01  6.7085863742283292e-01  8.4042051042622745e-01  8.3553185105659478e-01  1.0000000000001821e+00  1.0000000000001816e+00  -3.4841845771336930e-14  1.6613469635303957e-01  3.3297135056925159e-01  4.9923731708560393e-01  6.6508633606987300e-01  8.3119773972895017e-01  1.0000000000001992e+00  -3.8920935593053173e-14  -4.1631082542387427e-14  1.7368756554375217e-01  1.7322957822034984e-01  3.4338306597023494e-01  3.4256553610702828e-01  5.1073861331037018e-01  5.0976677505962342e-01  6.7616445339968656e-01  6.7528885026834873e-01  8.3969986657301521e-01  8.3917724901941304e-01  1.0000000000001925e+00  1.0000000000001952e+00  -4.9914936328546412e-14  -5.0400804435976890e-14  1.6971886430118363e-01  1.7370174614329154e-01  3.3786793637189305e-01  3.4358613773419772e-01  5.0472329774862634e-01  5.1106729543779639e-01  6.7050442538532606e-01  6.7643114009483607e-01  8.3547553626543936e-01  8.3972853620044507e-01  1.0000000000001836e+00  1.0000000000001841e+00  -4.4461604191011658e-14  -4.7054074651274524e-14  -4.5036883875435716e-14  1.7277527309913168e-01  1.7097145160156194e-01  1.7260411362136302e-01  3.4171966591236458e-01  3.4040594461501639e-01  3.4239904566269208e-01  5.0884435258731064e-01  5.0767285300712928e-01  5.0987331216043785e-01  6.7457104418689240e-01  6.7287909424643000e-01  6.7522695375000952e-01  8.3887734178068241e-01  8.3642833210752976e-01  8.3855164735308951e-01  1.0000000000001890e+00  1.0000000000001870e+00  1.0000000000001896e+00  -4.7956572818075028e-14  1.7149065430901425e-01  3.4015586247459262e-01  5.0709444534591019e-01  6.7263135576217370e-01  8.3696247286149572e-01  1.0000000000001861e+00  -4.6225368052618736e-14  1.7824638781637511e-01  3.5039643149144101e-01  5.1861295249231598e-01  6.8335101125145126e-01  8.4448535741907271e-01  1.0000000000001878e+00  -6.3635357250061224e-14  1.6881589092301463e-01  3.3688339705335746e-01  5.0357459661110382e-01  6.6903898251095861e-01  8.3390834953543713e-01  1.0000000000001703e+00  -4.4833635179764442e-14  1.7453768127578190e-01  3.4479190675851212e-01  5.1230839341629364e-01  6.7749206478241419e-01  8.4043539271524692e-01  1.0000000000001892e+00  -5.6328537975727390e-14  1.8063953276709607e-01  3.5345010751209083e-01  5.2166778566120475e-01  6.8593075524546809e-01  8.4609554721697033e-01  1.0000000000001776e+00  3.3520252910266446e-01  3.3289611150622173e-01  3.4038645583296656e-01  1.6660672926848935e-01  5.0744749605872719e-01  8.3363616602802304e-01  8.3126984715518126e-01  8.3710440689708587e-01  6.6479644412568972e-01  1.0000000000001676e+00  1.0000000000001659e+00  1.0000000000001685e+00  -4.0726850188123983e-14  1.7403132790261644e-01  3.4500455887255660e-01  5.1288039450570633e-01  8.4330925537113199e-01  8.5933127958412359e-01  1.0000000000001641e+00  1.0000000000001634e+00  -6.2873114047832533e-14  1.6806038769699982e-01  3.3484398787638814e-01  5.0109645677377379e-01  6.6714584364584739e-01  8.3334569769378952e-01  1.0000000000001712e+00  1.0000000000001634e+00  1.0000000000001648e+00  1.0000000000001643e+00  1.0000000000001670e+00  -3.1434441731184066e-14  -3.4135294130085456e-14  -3.2288554333667112e-14  1.6615605346326837e-01  1.7043127395504762e-01  3.3299801491193620e-01  3.3862614719805278e-01  4.9923195109749535e-01  5.0538177151368235e-01  6.6500064878853427e-01  6.7109041991624474e-01  8.3103167091744989e-01  8.3601773766792464e-01  8.3542095195092136e-01  1.0000000000001998e+00  1.0000000000002027e+00  1.0000000000002018e+00  -6.0146958567878783e-14  1.6646169165119754e-01  3.3304932345391880e-01  4.9922355478640101e-01  6.6517224340049264e-01  8.3149684450588512e-01  1.0000000000001739e+00  -3.6242182536862915e-14  -3.7702023835117741e-14  -3.9137658683708577e-14  1.8483302716897751e-01  1.7596961763485169e-01  1.7490895603492346e-01  3.5873755044285549e-01  3.4695646067736530e-01  3.4675711135466547e-01  5.2720164491088184e-01  5.1466612604429485e-01  5.1476607968603472e-01  6.9126353999432510e-01  6.7961730428619949e-01  6.7911344653747363e-01  8.5045781823634858e-01  8.4186474806851341e-01  8.4021971610432544e-01  1.0000000000001950e+00  1.0000000000001963e+00  1.0000000000001978e+00  8.3084332920655191e-01  1.0000000000001679e+00  1.7142728965934176e-01  1.8016904591033808e-01  3.5244589967837375e-01  5.2042995865936026e-01  6.8487595631745279e-01  6.7293455964637672e-01  8.4561257301331927e-01  1.0000000000001692e+00  -3.5241223200593846e-14  1.7599606328445411e-01  3.4674076933601539e-01  5.1430679412343661e-01  6.7916445803980363e-01  8.4140219105520464e-01  1.0000000000001990e+00  -4.3437907970846137e-14  1.7729082538513441e-01  3.4896586437034660e-01  5.1700230734658748e-01  6.8178153578874623e-01  -4.9283698461327015e-14  1.7570061577391380e-01  3.4756204845272937e-01  5.1577743306972001e-01  6.8055750637402013e-01  8.4198775003675319e-01  1.0000000000001847e+00  -6.1749417154310116e-14  -6.5517662896180508e-14  4.9887392757321547e-01  -4.1903755778951338e-14  1.8266187582022458e-01  3.5645377148762308e-01  5.2489476632377596e-01  6.8872956410866271e-01  8.4778154745489509e-01  1.0000000000001923e+00  3.4888894853969726e-01  3.5041324512181887e-01  5.1883874875336200e-01  5.1679300672732154e-01  6.8287949618650168e-01  6.8157764095741635e-01  8.4298359394496325e-01  8.4318338640048918e-01  1.0000000000001679e+00  1.0000000000001665e+00  -4.3334410613134078e-14  1.7913010092795892e-01  3.5151235520425345e-01  5.1965231160296455e-01  6.8420313078629302e-01  8.4506296457232866e-01  1.0000000000001907e+00  1.8941256382381960e-01  -6.4472084516191126e-14  1.6666733374357320e-01  -3.0071040970560544e-14  1.7040397835699875e-01  3.3853498026037593e-01  5.0526548217298439e-01  6.7103619419168292e-01  8.3608707509718216e-01  1.0000000000002041e+00  -4.4822267425203305e-14  -4.6390701115042462e-14  -4.7761891437148757e-14  1.8118876100954112e-01  1.8997243706034336e-01  1.9224216511373893e-01  3.5651033122553283e-01  3.6678832323115612e-01  3.6993838341229973e-01  5.2535353583135624e-01  5.3606934543060425e-01  5.3938174076200207e-01  6.8814847616347019e-01  6.9876700779671108e-01  7.0190463223276622e-01  8.4576971663287037e-01  8.5441817636199913e-01  8.5705450936241001e-01  1.0000000000001863e+00  1.0000000000001876e+00  1.0000000000001892e+00  -4.6445683261110935e-14  1.8411900819823765e-01  3.6050820439096259e-01  5.2974568575234060e-01  6.9250216272348220e-01  8.4927696933141528e-01  1.0000000000001876e+00  -3.7834973883327676e-14  1.8049304525855894e-01  3.5424028332959390e-01  5.2280142814251029e-01  6.8671822913815517e-01  8.4623371275765269e-01  1.0000000000001963e+00  -3.7819395059801512e-14  -3.6231794405683780e-14  1.7266564898936321e-01  1.6741487931036261e-01  3.4152612576516633e-01  3.3614139178540592e-01  5.0841240541384514e-01  -4.2784147798652991e-14  1.6738459377986173e-01  3.3457187672953348e-01  5.0101335344647169e-01  6.6689294882632455e-01  8.3272057644420061e-01  1.0000000000001914e+00  -3.4222183204911804e-14  1.7398481544406735e-01  3.4286357591670713e-01  5.0980474713872359e-01  6.7548865090822685e-01  8.3973198335865196e-01  1.0000000000001998e+00  -3.3009387817294576e-14  1.7198684484757901e-01  3