<?xml version="1.0"?>
<VTKFile type="UnstructuredGrid"  version="0.1"  >
<UnstructuredGrid>
<Piece  NumberOfPoints="960" NumberOfCells="4104">
<Points>
<DataArray  type="Float64"  NumberOfComponents="3"  format="ascii">6.949025300832863 2.148934704219669 4.009460308013538  6.953242297392698 2.230818648089161 4.079134276677272  6.840548603505403 2.195966651224284 4.078369188363792  6.853797107646364 2.144614141909101 4.13616913794137  6.968440595340857 2.181696133461791 4.138666373911964  6.962459193140765 2.095847160035122 4.063408912862005  6.975892824984577 2.042740538375712 4.1173295978896  6.983647911386505 2.1325566036195 4.198187324176396  6.86704166919098 2.093251487005111 4.193967545714151  6.989328669135735 1.989622626886168 4.171225446339082  6.998859700580828 2.083404744363202 4.25769162696457  6.88028558151756 2.041878787024033 4.251748328678534  7.014076114083156 2.03423709849119 4.317173412077135  7.002766635179873 1.936492792709076 4.22509318562829  6.893533462701373 1.990491779094387 4.309503623882001  7.029295865758338 1.985046233184347 4.376629330066704  7.016205609519839 1.883349412916085 4.278928483159283  6.906787486342266 1.939083646017428 4.367228829953139  7.029636053218448 1.830191710544305 4.332734792544878  7.044506450149917 1.935824541590048 4.436068143588789  6.920050105230691 1.887652559784698 4.424927471909819  6.842992358081182 2.101419571757881 3.983187784407237  6.855767069224882 2.046652543483451 4.034164784633528  6.868544650698927 1.991864473932881 4.085115212216051  6.881324401233124 1.937065867891651 4.136042879022313  6.894107054609428 1.882255869079407 4.186942263584239  6.906892961973583 1.827430614749864 4.237808195199427  6.919674054496015 1.772582796932619 4.288637030372534  7.770387370297348 2.916395362209368 4.114239276231005  7.749088863647986 3.021336541737583 4.117600757873099  7.649770391154993 2.977943531958256 4.141633204223855  7.666689511081853 2.982761010383214 4.221091628593651  7.766468710780987 3.028173302305289 4.195239914292971  7.787897679000459 2.915153514719344 4.191146614725576  7.683599666417891 2.987593393888026 4.300486160462469  7.783830454517751 3.03500842701905 4.272803364406879  7.805424134643955 2.913880773143771 4.267991458203156  7.700498345754356 2.992406859884283 4.379815296314055  7.80117885402685 3.041820100918962 4.350294388122862  7.822948994470151 2.912575185976773 4.344771567758952  7.818516490618102 3.048588645537564 4.427728799665644  7.840463121504788 2.911227243375305 4.421498137697552  7.717387226453662 2.9971800709852 4.459081167617963  7.835849492770503 3.055301397159667 4.505116281725866  7.857960942106604 2.90983410634598 4.498180812020925  7.734268758751052 3.001896099622873 4.538300118604146  7.853195533684761 3.061950278419348 4.582473709022223  7.875439136022266 2.908407323107809 4.574840353087378  7.75114628754545 3.00654559868325 4.617478083858899  7.65545345745675 2.85410992411247 4.13833169907562  7.674639839807348 2.847934322893389 4.216366329979082  7.693847011021663 2.841738778170165 4.294344724678292  7.713050484140778 2.835512537883707 4.372261973360028  7.732238957276956 2.829246659662395 4.450125690614372  7.751405378709181 2.82293808095367 4.527948419963705  7.770546970547794 2.816590884400966 4.605746202977956  7.951080551058793 1.83459866216173 3.90893732072967  8.05375323602364 1.819572938638051 3.849065379818211  7.99424442610298 1.746386360854811 3.762912378466916  8.044671908195705 1.867658284985938 3.808242552895867  7.939955832204015 1.8834091778955 3.866173104882109  8.003784013314453 1.696266267611691 3.799654934902754  7.962045473223767 1.785782814477189 3.951671723364677  8.062708867742087 1.77152323577468 3.889828318826535  6.974422049318843 2.311847365581785 4.138837512747422  6.861931626456389 2.303505451026112 4.161317445545106  6.874893605471212 2.259532518812024 4.227848805036245  6.989933922203209 2.266194648489034 4.203181134517604  6.887830605280613 2.215551823896556 4.294386918682208  7.005447117551583 2.220529883223086 4.267522939638055  6.900761877239828 2.171560835828382 4.360909867773421  7.020962131704501 2.174854850874634 4.331851263240247  6.913701777363236 2.127551843494108 4.427409047761855  7.036483138416687 2.129163024216585 4.396159052618339  6.926660607186028 2.083516137628316 4.493881239585398  7.052009879637695 2.083446307984471 4.460444946317564  6.93964743316061 2.039444363060093 4.560327837488043  7.067517127657468 2.037684754994776 4.524701684151787  7.890447906881499 1.75463236031874 3.820027440186157  7.900251942284462 1.703625398145725 3.858867387009232  7.798036590326902 1.779587050475569 3.886938994758258  7.807870815432105 1.728387445538302 3.928824803711649  7.696535185163316 3.11331829626707 4.115663523542921  7.712751714099261 3.126012728683114 4.193952352632741  7.728925819515378 3.138743610022998 4.272156048152744  7.74507189780387 3.151457615342832 4.350281645063442  7.761204946604013 3.164124400482957 4.428340675859164  7.777342031985698 3.176721935719268 4.506346819257853  7.793500840549059 3.189231718988298 4.58431037858384  7.686916804285789 2.129964433137649 3.799462359446247  7.550445519329314 2.077109004268988 3.774878146956058  7.647583121758853 2.057936230471978 3.727687679096481  7.658203149323453 2.006027653829419 3.77210058849575  7.562504544736325 2.024856389312909 3.821388351384929  7.698333319531908 2.081358707112964 3.849206249880934  7.668859460050929 1.954119399719053 3.816465264624357  7.574607389939469 1.97259703899786 3.867845753109961  7.709789754609751 2.032754517218994 3.898897439611975  7.679518070777594 1.902211753787861 3.860788518465631  7.586715808499137 1.920334329063835 3.914262340116348  7.721250097088531 1.984149816350979 3.948541714347077  7.690147941979085 1.850301177341688 3.905076821599753  7.598801016640519 1.868066887192658 3.960644349339601  7.732677634166936 1.935541670170941 3.998147946055178  7.700717863536938 1.798380427998504 3.949337809279529  7.61083310386419 1.815789498955642 4.006998579748131  7.744034978089638 1.886926127951736 4.047723614809275  7.71119559409227 1.746439996323771 3.993575842617213  7.622766027780889 1.763493234403903 4.053331033045906  7.75529167992393 1.838300595247458 4.097274699153575  7.895116652487554 2.078780127099489 3.694657388924841  7.785503090052012 2.105514145275134 3.752021029112458  7.748039767906868 2.035479965583437 3.677037336911431  7.796429304382096 2.056519647023861 3.798484725677115  7.906281482466446 2.029912853331896 3.737615666823526  7.758033839424993 1.98429079769034 3.71909704307313  7.807407731361856 2.007533241943816 3.844894708787397  7.917513491642423 1.981065132997495 3.7805166090582  7.768066247871623 1.933110910835276 3.76111428103659  7.818390565240366 1.958554696360964 3.891254721310311  7.928751620504087 1.932231233034682 3.823367173824131  7.77810121302026 1.881937561365961 3.803089704027087  7.829336072686844 1.909579785600219 3.937572815890502  7.788102942425678 1.830766307987824 3.845029035586196  7.840201988000611 1.860602458595126 3.983858332803808  7.850952796628427 1.811606872343928 4.030121606751155  7.581747488311321 2.15673203039996 3.8467537865818  7.594501520067229 2.108630960862225 3.899610374728931  7.607299315668691 2.060523745140935 3.952416161784603  7.620105804888533 2.012408468313912 4.005179602428227  7.632887315496617 1.964284019762699 4.057908835423797  7.645610720888695 1.916144902268631 4.11061256142823  7.658239061010598 1.867989495722123 4.16330356512832  8.208282926634508 2.588049917411364 3.986850966873611  8.216979568055228 2.688419682869126 4.012263580503842  8.101989188003644 2.628120741208744 4.005603128415264  8.110571556045162 2.608426692476167 4.074024582118631  8.112293387976163 1.934111483004783 3.870167273296056  8.211373936152382 1.984273427555671 3.910629222688013  8.181010938553925 1.874043794260011 3.779004237138389  8.204815025782572 2.029499593025982 3.865382466061621  8.119673735282374 1.887315746266311 3.913519364207866  8.217902482411274 1.939075224683767 3.955812908451191  8.188598317591675 1.8262212283352 3.818043309714667  8.126984310362063 1.840548284415588 3.956821093127332  8.224393734471548 1.89392551970469 4.00092397706386  8.196100142203715 1.778437867223521 3.857022130938724  6.747403369618056 2.231719763465835 4.125912884635836  6.757621306129385 2.18409583479949 4.188795932022477  6.767796578393113 2.136465692750692 4.251686083489747  6.777960373699574 2.08882387181601 4.314564225261575  6.788131033022895 2.041164411115238 4.377417586182595  6.798323450539172 1.993479841210207 4.440241154979073  6.808557416967874 1.945767766989011 4.503036954281829  8.194046781479052 2.490549397163909 3.947302720910075  8.089994295146937 2.511499020522443 3.969120286240206  8.145915062785917 2.384497502109611 3.901226205587233  8.098875158278812 2.48499726683249 4.03413966456109  8.15284625706124 2.350389827410276 3.960382143834996  7.385211990638379 2.20940288976362 3.946381064226127  7.252211741336693 2.14270653200757 3.920745045461095  7.354530629732052 2.124468936645216 3.877529221480833  7.368170309584267 2.072773230026579 3.929449227936057  7.26664373255903 2.090333293999494 3.973376599829871  7.401513946700385 2.160035115563812 4.00218305547591  7.381844632788281 2.021060240468727 3.981323176007167  7.28110654976657 2.037935596922487 4.025969604926927  7.41787229049294 2.110642648070039 4.057934986683434  7.395527184145911 1.969338030040412 4.033160074034034  7.295579022862413 1.98552463481307 4.078530559362044  7.434247652985766 2.061239758749535 4.113651969114113  7.409197166501196 1.917606543723675 4.084966152041591  7.310045487867193 1.933103194034941 4.131062652165639  7.450611562986787 2.011826921772009 4.169340624387567  7.422833456768292 1.865860100829508 4.136747295221121  7.324491776432088 1.880665297275306 4.18357227414822  7.466934288913347 1.962399451084347 4.225008973900704  7.436401359624425 1.814088223098608 4.188512458489217  7.338908655320088 1.82819874620572 4.23606925835109  7.48
[...]
<PointData  Scalars="f_14"> 
<DataArray  type="Float64"  Name="f_14"  format="ascii">-1.0539874991553874e-13  -1.0521245816765317e-13  -1.0729459875821678e-13  2.0094417498534251e-01  1.9645953926097953e-01  1.9681975842451768e-01  3.7782683282793916e-01  3.8040160994197725e-01  3.8514675389788727e-01  5.4829519724218323e-01  5.5154750447856937e-01  5.5630232034984028e-01  7.1099600848503319e-01  7.0918139462415009e-01  7.1575706706479636e-01  8.5987015679367906e-01  8.6089367816610851e-01  8.6415123821441719e-01  1.0000000000001288e+00  1.0000000000001290e+00  1.0000000000001268e+00  -1.0734047723239618e-13  1.8834836980317818e-01  3.6808081894995265e-01  5.3857337551179751e-01  7.0034270903313811e-01  8.5399096853829259e-01  1.0000000000001268e+00  -8.8976460694907593e-14  -8.9247639364997131e-14  -9.1253869729713093e-14  1.9949701481819360e-01  1.9795402334045575e-01  1.9099938432146760e-01  3.8217256565983765e-01  3.7887390956960793e-01  3.7060680584743833e-01  5.5291791517322875e-01  5.4910517421724436e-01  5.4059393454016258e-01  7.0987627256377939e-01  7.0195961158312548e-01  7.1284368586177205e-01  8.6162249056586449e-01  8.5524931782155544e-01  8.6240622319302529e-01  1.0000000000001446e+00  1.0000000000001448e+00  1.0000000000001426e+00  -9.1296482766149375e-14  1.9445061776081426e-01  3.7608842283420174e-01  5.4683971981153157e-01  7.0759416996711255e-01  8.5896794817243727e-01  1.0000000000001426e+00  8.5130748479190088e-01  8.4543160900854342e-01  8.4383827118888788e-01  6.8570434734486396e-01  6.9384196969230261e-01  1.0000000000001474e+00  1.0000000000001463e+00  1.0000000000001485e+00  -1.0475043788573211e-13  -1.0681000537912364e-13  2.1824691512232888e-01  2.0827146842282299e-01  4.0671956981494722e-01  3.9546970594579656e-01  5.7775482729871586e-01  5.6686521948020419e-01  7.3425817025033013e-01  7.2460266763793002e-01  8.7665904049402454e-01  8.6982028244407539e-01  1.0000000000001272e+00  1.0000000000001295e+00  8.5085268146433068e-01  1.0000000000001452e+00  8.4692376246899792e-01  1.0000000000001432e+00  -9.0135799441139993e-14  1.9641448024630284e-01  3.7897504309210844e-01  5.4970244420940495e-01  7.0976334541239083e-01  8.5996654861837607e-01  1.0000000000001437e+00  -9.1734126472169861e-14  -9.4395847596651882e-14  -9.2545051026922531e-14  1.8238246581583015e-01  1.8612325150855641e-01  1.9101497413143592e-01  3.5903865291586579e-01  3.6356113571413462e-01  3.6907575240942264e-01  5.2892210569257647e-01  5.3370862788131213e-01  5.3884230693372481e-01  6.9224390197581476e-01  6.9682355099821647e-01  7.0107834817620307e-01  8.4920097974498454e-01  8.5277668081707614e-01  8.5576319116525879e-01  1.0000000000001412e+00  1.0000000000001394e+00  1.0000000000001421e+00  -8.7558202220995145e-14  -8.9789805646307043e-14  -9.0575541684522191e-14  1.9085861885119712e-01  1.8542169370245321e-01  1.8116211460141790e-01  3.6838429982177689e-01  3.6108584626598983e-01  3.5680035197567800e-01  5.3800760323055818e-01  5.3034230406679628e-01  5.2615573658097226e-01  7.0054968088329006e-01  6.8947292059042287e-01  8.5573998566596710e-01  1.0000000000001439e+00  -9.3729335224323814e-14  1.8602568153060076e-01  3.6421737678196192e-01  5.3434370981923307e-01  6.9675956730249189e-01  8.5191056347598426e-01  1.0000000000001401e+00  -8.0766159345595681e-14  -8.0459684594218374e-14  -8.2833533544615357e-14  1.7333619315424711e-01  6.8253517250986828e-01  6.9268701281256750e-01  6.8556834554234336e-01  5.2923072311840558e-01  8.4208359997110327e-01  8.5082413502187637e-01  8.4595623364951789e-01  1.0000000000001501e+00  1.0000000000001523e+00  1.0000000000001517e+00  -1.0895196865758638e-13  2.0444080267124340e-01  3.9070057832029098e-01  5.6201701411538429e-01  7.2025906318094268e-01  8.6640562241586994e-01  1.0000000000001250e+00  -8.1164831191444449e-14  -8.3221466766315840e-14  -8.2237099715259435e-14  1.7909373025865871e-01  1.8320293815038849e-01  -9.7341984934619695e-14  -9.9895771734362424e-14  -9.8035559983142758e-14  1.9193572081343643e-01  1.8864277434069854e-01  1.9009804694085727e-01  3.7122608264668561e-01  3.6885783089148516e-01  3.7078038869089891e-01  5.4173723388045658e-01  5.3976331952204204e-01  5.4199971133919400e-01  7.0386364547862468e-01  7.0180886996147318e-01  7.0404755125405394e-01  8.5745723351111969e-01  8.5516631802335008e-01  8.5712966200316654e-01  1.0000000000001359e+00  1.0000000000001341e+00  1.0000000000001366e+00  -8.2455015338969067e-14  1.7810070353307125e-01  -9.9325282967549710e-14  2.0173933139223510e-01  3.8434660515768287e-01  5.5558422732722168e-01  7.1635571975421808e-01  8.6662246579390800e-01  1.0000000000001348e+00  -9.5457662172180753e-14  -9.6182965010265153e-14  1.9466152346331295e-01  1.8210865314687893e-01  3.7310846863788127e-01  3.6052066828662893e-01  5.4319061292107207e-01  5.3086762710902347e-01  7.0549918183111726e-01  6.9311399142571306e-01  8.5956382418418076e-01  8.4795519109021400e-01  1.0000000000001377e+00  1.0000000000001383e+00  -1.0319346930299475e-13  -1.0337186527444380e-13  1.9476763110264214e-01  1.9490009067535652e-01  3.7643268478070935e-01  3.7936404031769144e-01  5.4703080029033602e-01  5.5072841020765750e-01  7.0728991157767751e-01  7.1004421704825138e-01  8.5818787838697630e-01  8.5862552342192466e-01  1.0000000000001308e+00  1.0000000000001308e+00  -8.6523912245785098e-14  -8.6878216439682238e-14  -8.8637280452954692e-14  2.0551506802645420e-01  1.8821197747007312e-01  1.9464114855501094e-01  3.7705363123793983e-01  -1.0201683552040795e-13  -1.0185993533271863e-13  -1.0373994500339016e-13  1.8350017651782574e-01  1.9018857845372472e-01  1.8159935251200091e-01  3.5980902437074547e-01  3.6883384300250122e-01  3.5740818825705400e-01  5.2935583379278961e-01  5.3898621190556339e-01  5.2699384706656305e-01  6.9233292664581514e-01  7.0119109030149840e-01  6.9039129137350308e-01  8.4913946539389884e-01  8.5555065782804518e-01  8.4780075159215151e-01  1.0000000000001303e+00  1.0000000000001321e+00  1.0000000000001321e+00  -8.9182271370768014e-14  1.9135201224183618e-01  3.7004951900741440e-01  5.3968699791930119e-01  7.0114941186196567e-01  8.5499880983696908e-01  1.0000000000001446e+00  -8.4761961008215365e-14  -8.4700222874420032e-14  -8.7069250916945383e-14  1.8904266356035937e-01  1.8045660079189663e-01  1.8358961674512253e-01  3.6585098840667002e-01  3.5518045489338801e-01  3.5783043322669594e-01  5.3490223875307197e-01  5.2364147974055664e-01  5.2611220381993096e-01  6.9721282884802438e-01  6.8666629000932844e-01  6.8938531671008407e-01  8.5293377140930193e-01  8.4500042706912393e-01  8.4810430395335856e-01  1.0000000000001468e+00  1.0000000000001492e+00  1.0000000000001490e+00  2.1583195475892683e-01  1.9928604412881132e-01  -1.0894201595428169e-13  4.0431048814648968e-01  3.8584957150789501e-01  5.7537861908850485e-01  5.5731054944266500e-01  7.3172205937164758e-01  7.1522412796141044e-01  8.7450771448930331e-01  8.6145069589932655e-01  1.0000000000001250e+00  1.0000000000001228e+00  -8.2447322956319018e-14  1.7476461850308017e-01  3.5009723930955489e-01  3.4666132495322588e-01  5.1758612778655377e-01  5.1420185181406264e-01  6.8142246644062732e-01  6.7799347366253326e-01  8.4258896079496581e-01  8.3921949147237807e-01  1.0000000000001514e+00  1.0000000000001514e+00  -1.0128396137906285e-13  -1.0153366402508312e-13  1.9259873326267807e-01  1.9621196989145614e-01  3.7945874953614950e-01  3.7345127162237846e-01  5.5054287529894164e-01  5.4404805505829268e-01  7.1036780032954472e-01  7.0512554055431731e-01  8.5985095037780579e-01  8.5722410783584990e-01  1.0000000000001328e+00  1.0000000000001326e+00  -1.0729872757399606e-13  -1.0900740934626434e-13  1.8588637000468200e-01  1.8621993871740256e-01  3.6421333099107456e-01  3.6273688201578902e-01  5.3430647348264038e-01  5.3234861011090284e-01  6.9644252805461748e-01  6.9541368415758109e-01  8.5113710492440253e-01  8.5217426750294156e-01  1.0000000000001252e+00  1.0000000000001268e+00  -1.0909652957370256e-13  -1.1067084752201696e-13  1.8152640545661861e-01  1.8919415280308785e-01  3.5683011935501818e-01  3.6714160156674841e-01  5.2607228198122835e-01  5.3704855894711367e-01  6.8943424991137892e-01  -8.6610711563243178e-14  1.8511782080793446e-01  3.6209894232051792e-01  5.3126642217443076e-01  6.9344393281432137e-01  8.4943366062364478e-01  1.0000000000001472e+00  -1.0015817147705393e-13  1.8847048576149472e-01  3.6674992208891383e-01  5.3729646981285017e-01  7.0037602715308600e-01  8.5577338047229279e-01  1.0000000000001339e+00  -1.0355392461706762e-13  1.9030312897578289e-01  3.6957502652469948e-01  5.3975371735921884e-01  7.0147579767382562e-01  8.5505250831166590e-01  1.0000000000001306e+00  -9.3488337430023356e-14  2.0436779135697117e-01  3.8944451663394142e-01  5.6122221823576102e-01  7.2085625679836718e-01  8.6839301208295649e-01  1.0000000000001403e+00  -8.4976967669321220e-14  -8.7285957553324042e-14  1.8112048804711106e-01  1.8189133629589982e-01  3.5688062325109160e-01  3.5588722199654949e-01  5.2575595171862877e-01  5.2411706012986159e-01  6.8838205878321856e-01  6.8749956752586028e-01  8.4566436033866776e-01  8.4671355043960450e-01  1.0000000000001465e+00  1.0000000000001488e+00  -8.5146741301970927e-14  1.8828316503439546e-01  3.6459137218483062e-01  5.3345161501412020e-01  6.9591719601470714e-01  8.5228523708585391e-01  1.0000000000001485e+00  -9.7463207631349520e-14  -9.7567073458319803e-14  -9.9294573457174760e-14  1.9864830440789744e-01  2.1000287867587888e-01  1.9498717379584929e-01  3.8395317203724266e-01  3.9681789187275518e-01  3.7844623113984838e-01  5.5580124569111511e-01  5.6862055830946434e-01  5.5011794552050386e-01  7.1534468326295686e-01  7.2714201624360941e-01  7.1069295148364520e-01  8.6337374166695346e-01  8.7261750341504585e-01  8.6052154529561475e-01  1.0000000000001348e+00  1.0000000000001363e+00  1.0000000000001366e+00  -1.0332922285655216e-13  -1.0340560633558931e-13  -1.0524537486721766e-13  2.1604157338455968e-01  2.0926689482789634e-01  2.1905027452206730e-01  4.0531529929130644e-01  3.9869132045203781e-01  4.0731758789028932e-01  5.7647663380087333e-01  5.7022067044118463e-01  5.7821174772323536e-01  7.3229801791564730e-01  7.2642496345196916e-01  7.3449362127345708e-01  8.7417561601392235e-01  8.6924475432237058e-01  8.7684549542773926e-01  1.0000000000001288e+00  1.0000000000001308e+00  1.0000000000001308e+00  1.9934368127502156e-01  1.9407455518376224e-01  -1.0894099032973146e-13  3.7550041703013670e-01  3.8206250708555739e-01  5.4608860014377680e-01  5.5290442663738926e-01  7.0683723488884509e-01  7.1312414537132962e-01  -9.5633935128339412e-14  -9.6033549629214246e-14  2.0904599169576762e-01  1.9908041101183649e-01  3.9604143032776579e-01  3.8311850108776829e-01  5.6774126389004365e-01  5.5469649088769624e-01  7.2594452321501979e-01  7.1483376592408410e-01  8.7109258966756653e-01  8.6378163405323882e-01  1.0000000000001379e+00  1.0000000000001383e+00  -9.9522561143042748e-14  -1.0120925049231151e-13  2.1134477853219347e-01  2.1236134057626291e-01  4.0009907897957220e-01  3.9777237035343299e-01  5.7160704666985873e-01  5.6892328251465307e-01  7.2886989826814930e-01  7.2669099300391382e-01  8.7283159684815648e-01  8.7163735805848119e-01  1.0000000000001346e+00  1.0000000000001328e+00  -8.2925032253804363e-14  1.8822657935496923e-01  3.6208407381141028e-01  5.3016467996758110e-01  -9.1859676785958662e-14  -9.1857769876566376e-14  -9.3592244424118364e-14  1.9013747498598393e-01  1.8993598621735855e-01  1.8786887086779883e-01  3.6942435978505433e-01  3.6893035254447754e-01  3.6612806030223560e-01  5.4005506310265006e-01  5.3899711726686872e-01  5.3599455710514954e-01  7.0236610325453497e-01  7.0080032821088678e-01  6.9807939059001756e-01  8.5649983428446919e-01  8.5476559415959386e-01  8.5273784473555470e-01  1.0000000000001401e+00  1.0000000000001419e+00  1.0000000000001419e+00  7.1563408077575119e-01  7.2505976256409266e-01  8.7081488695176401e-01  8.6376547704654427e-01  1.0000000000001383e+00  1.0000000000001401e+00  -1.0551594313757213e-13  1.8368242318947139e-01  3.6106434688822497e-01  5.3094436870715112e-01  6.9354052908067887e-01  8.4940523569187298e-01  1.0000000000001286e+00  8.6313664578555238e-01  1.0000000000001252e+00  3.4513684459571820e-01  5.1257881060084642e-01  6.7607253126209710e-01  8.3660844861055883e-01  1.0000000000001510e+00  -8.8749734796963439e-14  -8.9293391538623162e-14  -9.0752288039454136e-14  1.8739793670030810e-01  1.8875272591139305e-01  1.8922190105524983e-01  3.6646034486769868e-01  3.6656993317112180e-01  3.6632405493066639e-01  5.3654380960386217e-01  5.3597001233427088e-01  5.3547027945412329e-01  6.9820525256348032e-01  6.9786764880516461e-01  6.9757843223624649e-01  8.5205705429691159e-01  8.5296205585002394e-01  8.5301239127268735e-01  1.0000000000001430e+00  1.0000000000001443e+00  1.0000000000001450e+00  -8.5230617892539836e-14  -8.7358751584663412e-14  1.8642044524807622e-01  1.8350889289547823e-01  3.5790537699245123e-01  3.6234031602165262e-01  5.2625522061633179e-01  5.3112507660934438e-01  6.8949940006802679e-01  6.9362909255766714e-01  8.4819942749175670e-01  8.5022440189533355e-01  1.0000000000001485e+00  1.0000000000001463e+00  -9.0236340008665257e-14  -9.2119554653485843e-14  1.9494382556105375e-01  1.8635496258803547e-01  3.6432707644518558e-01  3.7551205095230622e-01  5.3388680258150656e-01  5.4616223865892100e-01  6.9576906761203150e-01  7.0765112383150053e-01  8.5057076937512732e-01  8.6018000677756890e-01  1.0000000000001434e+00  1.0000000000001417e+00  -8.4526296252464827e-14  1.8679211249130720e-01  3.5245585205641616e-01  3.5735198498173060e-01  3.6155273771964491e-01  5.2033088862459798e-01  5.2545906651531671e-01  5.2995078463683376e-01  6.8372746225526404e-01  6.8858481506212976e-01  6.9314680989990851e-01  8.4358892591746704e-01  8.4699070019465528e-01  8.5146092750029889e-01  1.0000000000001505e+00  1.0000000000001517e+00  1.0000000000001492e+00  -9.1427958287162456e-14  1.8515176547335255e-01  3.6569381805872542e-01  5.3645282737677813e-01  6.9769900043731825e-01  8.5050412079158999e-01  1.0000000000001423e+00  -1.0380664669731684e-13  1.7980906616548098e-01  3.5404787620359313e-01  5.2295433620081788e-01  6.8667744374870554e-01  8.4550084259113278e-01  1.0000000000001303e+00  2.0748793426323719e-01  3.9175696833979712e-01  5.6241957814197063e-01  7.2115533822303834e-01  8.6855107428345835e-01  -8.9348030848106234e-14  1.8938618775383798e-01  3.6731597743548489e-01  5.3682410014593041e-01  6.9861906012482844e-01  8.5347121294343520e-01  1.0000000000001443e+00  8.4729734875613671e-01  1.0000000000001250e+00  -9.3635079846407969e-14  1.9812425892742858e-01  3.8301048168296303e-01  5.5494558010582529e-01  7.1494840826609585e-01  8.6360749831021133e-01  1.0000000000001403e+00  -1.1078134215604056e-13  1.7915884071147195e-01  3.5375305506219795e-01  5.2279940035808314e-01  -8.4071219304753202e-14  1.8121146043300779e-01  3.5567216720119760e-01  5.2418608544478784e-01  6.8753335208853794e-01  8.4659055219711876e-01  1.0000000000001499e+00  -9.5616560967196344e-14  -9.5532644903568603e-14  2.0220713137545523e-01  2.0784633035400571e-01  3.9451182386314743e-01  3.8899958323216249e-01  5.6646423489731368e-01  5.6114773366639892e-01  7.1988060300954504e-01  8.6597114867111924e-01  1.0000000000001386e+00  2.2092483385040090e-01  2.1416250568805176e-01  4.1038392775907856e-01  4.0381068089180289e-01  5.8128968366853584e-01  5.7512736520398389e-01  7.3087089818737272e-01  -8.6613335677931217e-14  1.8415289078680699e-01  3.5969325321690099e-01  5.2841087561215971e-01  6.9119072071522814e-01  8.4844207808041061e-01  1.0000000000001472e+00  -1.0555329858756525e-13  1.8211514063447179e-01  3.5712272111861593e-01  5.2630291827187847e-01  6.8983103977642168e-01  8.4794458700921027e-01  1.0000000000001286e+00  -9.9869708199703164e-14  -1.0136907006508032e-13  2.0544252394150134e-01  2.0847918563141660e-01  3.9383472122019197e-01  3.9743690705509793e-01  5.6536041424030425e-01  5.6920675498950879e-01  7.2214824167489988e-01  7.2599565124215715e-01  8.6606583873798459e-01  8.6935682572107142e-01  1.0000000000001328e+00  1.0000000000001341e+00  -9.3694675516242340e-14  -9.4002994741419297e-14  2.0396818303204386e-01  1.8870812262132358e-01  3.8827287377048386e-01  3.6996624971177688e-01  5.5981418782253078e-01  5.4124086279726003e-01  7.1982443125851481e-01  7.0292836123203550e-01  8.6810538355584810e-01  8.5537632535928976e-01  1.0000000000001399e+00  1.0000000000001401e+00  -9.1144034610100603e-14  -9.2613963284935646e-14  2.0002002033866459e-01  1.9081321661620410e-01  3.8309825248168788e-01  3.7129349205762524e-01  5.5428624066228782e-01  5.4172615418244829e-01  7.1483632113102036e-01  7.0305135412271824e-01  8.6485856912784231e-01  8.5588238371709169e-01  1.0000000000001412e+00  1.0000000000001428e+00  -9.7932938646095339e-14  2.0752041170445784e-01  3.9614863696680969e-01  5.6830669001213807e-01  7.2588481486035950e-01  8.6987492377418396e-01  1.0000000000001361e+00  -9.7703376325978405e-14  2.0862899119661765e-01  3.9624895769349405e-01  5.6803183058871187e-01  7.2564355144765547e-01  8.7023259288494692e-01  1.0000000000001363e+00  -8.6124270024433576e-14  1.8016617120116038e-01  3.5528473122811194e-01  5.2402381780430873e-01  6.8691368060317093e-01  8.4475055571498003e-01  1.0000000000001477e+00  -8.2006301934723204e-14  1.7706464724958387e-01  3.5061657607982044e-01  5.1882241401154683e-01  6.8216010327288101e-01  8.4142320295446515e-01  1.0000000000001519e+00  -9.3041083268330987e-14  2.0597143793774633e-01  3.9011773329933080e-01  5.6144190441269293e-01  7.2140871863263367e-01  8.6998197919634079e-01  1.0000000000001410e+00  -9.5303443651097771e-14  -9.7083955511359104e-14  2.0535880501946557e-01  2.1073029767838969e-01  3.9357003033244564e-01  3.9766528050715605e-01  5.6575334407686673e-01  5.6933417567250511e-01  7.2358618625678006e-01  7.2738519585865935e-01  8.6823021481742857e-01  8.7228886506231673e-01  1.0000000000001370e+00  1.0000000000001386e+00  -8.7932182520418414e-14  1.9171489678249409e-01  3.7192382328021811e-01  5.4203332484066735e-01  5.4772046589210499e-01  7.0294530127477228e-01  7.0794143399349718e-01  8.5546064797010501e-01  8.5862549161241852e-01  1.0000000000001459e+00  1.0000000000001452e+00  2.1098483270937887e-01  -1.0715302072156392e-13  4.0031742963382200e-01  5.7166405254009289e-01  7.2766896973460160e-01  8.7281387891506557e-01  8.7026567596453319e-01  1.0000000000001286e+00  1.0000000000001268e+00  -1.0177916835891777e-13  2.1675103235329671e-01  4.0570584233343193e-01  5.7680641064887028e-01  7.3261435567956723e-01  8.7457573495445118e-01  1.0000000000001323e+00  -9.8485015239357905e-14  2.2082943126023924e-01  4.0983724720061310e-01  5.8116892505761786e-01  7.3741681798867575e-01  8.7923693117054735e-01  1.0000000000001357e+00  -9.4564999996809227e-14  2.0424433062977038e-01  3.9072481692378630e-01  5.6250124454029160e-01  7.2127822060929103e-01  8.6751567448603817e-01  1.0000000000001392e+00  -8.7830407878828559e-14  -8.5747510867990717e-14  1.8904644202288756e-01  1.9088383064759928e-01  3.6541141977612718e-01  3.6845847566900991e-01  5.3442782092250773e-01  5.3777085518839796e-01  6.9722304500044863e-01  7.0002104535433440e-01  8.5368874471342238e-01  8.5519674458070560e-01  1.0000000000001481e+00  1.0000000000001459e+00  -8.8231303298660434e-14  1.8758594604572101e-01  3.6442490794537391e-01  5.3360528393107221e-01  6.9605504679222241e-01  8.5226686582998001e-01  1.0000000000001457e+00  -9.5465147627328766e-14  1.9673035402262945e-01  3.7756717927139360e-01  5.4842759082178694e-01  7.0979449993210308e-01  8.6165716483848431e-01  1.0000000000001383e+00  -9.9256017602676708e-14  -1.0046035289635429e-13  2.1310780225796166e-01  2.0519478382411632e-01  4.0224278555366194e-01  3.9361912831842805e-01  5.7356077807677708e-01  5.6539138878249628e-01  7.2969494392220402e-01  7.2245650474664602e-01  8.7228155803912732e-01  8.6650119377106039e-01  1.0000000000001337e+00