<?xml version="1.0"?>
<VTKFile type="UnstructuredGrid"  version="0.1"  >
<UnstructuredGrid>
<Piece  NumberOfPoints="15242" NumberOfCells="75527">
<Points>
<DataArray  type="Float64"  NumberOfComponents="3"  format="ascii">11.46641280331104 1.978122275020119 1.394446091484733  11.35112708813064 1.969618428127058 1.427889556521546  11.35397954416854 2.055688654879765 1.298265511165015  11.34753544151227 2.002138674320801 1.248688896117169  11.34681411568483 1.907640142425082 1.391748362997348  11.46161173912474 1.91325535864852 1.356815625174671  11.34107788199354 1.948470048541591 1.198714646285942  11.34231547907771 1.845364512998333 1.355466138507336  11.45672366197889 1.84792781350578 1.319307489095343  11.33487018276668 1.894605872785707 1.148611932250708  11.33796772901803 1.782758807862701 1.319182442196807  11.45189808968412 1.782265947546264 1.281814034876885  11.32901548773711 1.840501187873724 1.098480120627111  11.33387228978227 1.719820606493373 1.282878121325721  11.44714773104993 1.716400315243423 1.24417468401477  11.44257005086261 1.65031626667854 1.206271163277489  11.33004035586849 1.656628147685703 1.246457859766936  11.32356016426388 1.786014796367966 1.048265922193724  11.4383365356169 1.583960083815935 1.167919462011583  11.32652146345419 1.593210887272218 1.209726817368533  11.31849692782392 1.731223033194754 0.9978673701063457  10.89120664377067 4.113844853993423 0.9923997686974888  10.83845635050178 4.008594166425236 0.9226943936388814  10.77217775176884 4.138345705857528 1.018016856440448  10.76454197213542 4.189073856773939 0.9584616360840722  10.83303960429854 4.049856156087908 0.8552060096616328  10.88265015856132 4.162002603761521 0.9285440981659938  10.75728687263333 4.239697259625288 0.8992439783850347  10.82796489394984 4.091110124504421 0.7880594416845789  10.87451462896663 4.210035839606575 0.8650987932544891  10.75031672766627 4.290121856844523 0.8403215102117338  10.82316189180318 4.132228712982715 0.7212736971349542  10.86667326837487 4.257844462271557 0.8020074874004868  10.7435116626241 4.340290995770124 0.7817006090095578  10.81845662736617 4.173158909723794 0.6548114739225905  10.85897885375239 4.305326735838661 0.7392715409271126  10.73667892496839 4.390190692406029 0.723426970722528  10.81376986975677 4.213961249338126 0.5887133585205394  10.85130076874424 4.352547234629028 0.6769220289782582  10.72941745948475 4.439670574299743 0.6654833615019531  10.80878383757522 4.254413224076732 0.5230271564568912  10.84330174393554 4.399315306573809 0.6149813071581555  10.27356651637048 4.319828743558679 2.358382440224674  10.21359279215627 4.32133676225956 2.265529879762787  10.19863396400362 4.283379111967577 2.393747582619989  10.17965640463456 4.33544421484231 2.40959428517251  10.19339958324865 4.375127959269911 2.279456885206564  10.25346234790946 4.372827333096942 2.373278870223571  10.16102662180116 4.387622928212991 2.425341209123668  10.17362081552194 4.428988149800396 2.293285616341496  10.23376555733843 4.425858756814476 2.388067151688395  10.14258223310031 4.439832418547776 2.441023188711301  10.15409504546793 4.482824691961875 2.307035605870816  10.21431058688513 4.478846362788022 2.402766694116114  10.12415903249523 4.491987974415847 2.456673014682255  10.13464316845184 4.536563084433662 2.320731376813001  10.19493216806104 4.531712953119619 2.417404646583659  10.10558733471603 4.54399922261197 2.472317325697901  10.11508387863723 4.590115813479801 2.334385059974007  10.17546535832004 4.584356688105304 2.431986848531248  10.08667228633378 4.595761974287822 2.488007199088726  10.09519517157963 4.643370066563987 2.347995268948226  10.15572468999148 4.636638942253356 2.446528384572166  10.47859488461395 1.743199149549865 2.310221683024858  10.39011876681951 1.746475835728203 2.389186253413879  10.38273083948475 1.724029119284048 2.239661572515492  10.38905879737766 1.667763615780034 2.242278509007262  10.39683539946244 1.69240529673649 2.398864054048915  10.48597589267946 1.688015048236318 2.317507211734648  10.39525864057125 1.611415413315949 2.244792593467745  10.40347460904878 1.638254956620224 2.408512436685674  10.49329241959396 1.63275112263528 2.32471043883513  10.40142678604492 1.555024175394698 2.247285859556934  10.41008562860593 1.58403959932603 2.418148189787025  10.50060100487238 1.577426358742889 2.331893258842316  10.41672859369495 1.529787024632423 2.427807391808069  10.50795116995733 1.522058110705792 2.339107318438697  10.40764227875548 1.498597133978777 2.249807817571164  10.42344169225265 1.475503761082034 2.43752695641128  10.51537027436656 1.466659465806737 2.346397574449021  10.41395715113066 1.442143086847034 2.252394613525482  10.43023782909035 1.421187278292761 2.447327135254973  10.52285832381607 1.411205931080995 2.35380424121657  10.4203808474043 1.385644156210024 2.255083961648562  9.094173925064778 3.680739223457439 3.609707729621877  8.974074714784079 3.63017503845702 3.693390042021607  9.084317025112236 3.627439826924734 3.70405588382302  9.082913863021151 3.684079227111119 3.739611611864856  8.972825159620786 3.68777162096141 3.727149345104348  9.092603799532878 3.738575932422564 3.63876107865531  9.081642680694999 3.740499543181694 3.775286901079671  8.971713691786661 3.745186745264281 3.761085090129324  9.091146337311054 3.796295879651527 3.668001403069121  9.080422894800144 3.796824793264273 3.811004212718834  8.970675018714399 3.80252304475256 3.795091095115665  9.089746064283009 3.853976273407076 3.697324202202906  9.079221103720979 3.853114763700719 3.846709808996577  8.969652156462031 3.859843879510161 3.82909398321589  9.088365329535279 3.91166346862527 3.726649839389772  9.078006095967552 3.909389081764435 3.882357467883452  8.968600608306199 3.917172031237474 3.863032797915008  9.086977039454791 3.969380426832473 3.755913006459457  9.076726087554711 3.965636916718212 3.91788752958675  8.967493775225321 3.9745230544923 3.896843728713279  9.08553622675373 4.027128515339742 3.785047074177867  9.934620869223124 3.893722256974707 3.20251320624355  9.866795192279152 3.921606578204871 3.113111358860062  9.826582413044678 3.86458465614687 3.249921202810234  9.822477909236369 3.91807358628391 3.271212235507683  9.860356257996092 3.973502932433574 3.132112009068786  9.92861826726979 3.946112066927183 3.224184323330544  9.818308047458123 3.971630877699502 3.292627886642588  9.853887762680918 4.025496044157539 3.151221112458557  9.922588942366817 3.998595693256586 3.245949656945938  9.81410229740287 4.02530509878747 3.314121361652903  9.847397976414888 4.077626474464172 3.170401935992226  9.916536521435074 4.051206812301688 3.267784093565078  9.809894438500972 4.079114304890538 3.3356409917651  9.84088936705289 4.129918753222813 3.189617716990079  9.910473769699379 4.103966600286645 3.289658899093128  9.805723444980469 4.133075608001336 3.357139265101383  9.834372912078761 4.182405509270577 3.208828018052984  9.904421796193928 4.15690422491158 3.311543053633461  9.801661441440991 4.187206364227761 3.378551975459983  9.827879006177616 4.23512901959733 3.227986887845084  9.898403936491572 4.210069561502609 3.333407740142931  10.07384440300009 2.867652484362122 0.9988838334446792  9.93931560719645 2.815101466761392 1.051050733987825  9.972738172891157 2.934112266050224 0.9668503211896008  9.966072047269039 2.901635181611891 0.9128863177250769  9.934516069071915 2.781267878291238 1.001625738178947  10.06696030311994 2.833465962994294 0.9481019443133691  9.959425842429894 2.868856994805843 0.8590909179282473  9.929711494901305 2.747144366367842 0.9524412765447831  10.06008245655884 2.799001357269962 0.8975152002216805  9.95278325559406 2.835976620972172 0.8053732376148013  9.92490258874807 2.712907453786039 0.9033980831585973  10.0532050958024 2.764435935544013 0.8470299281852292  9.946129900526962 2.803116658790247 0.7516709527348717  9.920096470145698 2.678690890365685 0.8544063500451768  10.04632293512113 2.729890198317852 0.7965732375092558  9.939460190019917 2.770381152397388 0.6979083909238133  9.915300380269773 2.644616220544734 0.8053699015624201  10.03943943288159 2.695470892622834 0.7460583757039911  9.932749269500627 2.737852492527875 0.6439964423955952  9.910498489260396 2.610823167979525 0.7561635029332682  10.03251298238264 2.661270348854075 0.6953791571812216  11.34256211003533 2.559963610454043 3.662915467942084  11.23041676328445 2.651653979168271 3.732827329951541  11.22654493170889 2.522080549939639 3.633936557215388  11.2271424548698 2.477950412016679 3.68647644053894  11.2316603871206 2.61342959716206 3.792986449823797  11.34344321932059 2.516540269140279 3.719197409562518  11.22683132920075 2.433268100843837 3.739509264215929  11.23210012896514 2.574863378073209 3.853805701071212  11.34349062990687 2.472472411856851 3.776051356920952  11.22632456455674 2.38806773681234 3.793078386235965  11.2324778456343 2.535774501879789 3.915195505496533  11.34338486626016 2.427893090400786 3.833572194690457  11.22595042096629 2.342372571446584 3.847169088995505  11.23306406960327 2.496233284094554 3.977182685592514  11.34336844321755 2.382831595205946 3.891820545401331  11.22588065665453 2.296166667219494 3.901752853016943  11.23407283180669 2.456215594717369 4.039769359013426  11.34360242476936 2.337248358748571 3.950832103395797  11.22636577811407 2.24940938010779 3.956835608451353  11.23579182069453 2.415617451933174 4.102895289599583  11.34433312903732 2.290924857888474 4.010715215094062  9.266978080709009 4.166478734772276 1.461046206063056  9.181768326342784 4.153615163234046 1.421440012136226  9.229812892498522 4.183596148910432 1.545720100192326  9.225001213600809 4.254451996702117 1.5337098141396  9.17400880206511 4.22344805382868 1.39674741981919  9.263232953275427 4.237649187408688 1.443965941454983  9.166191513624447 4.293112367824737 1.372141042290828  9.259310704723765 4.308623509436723 1.426907863363632  9.220046346096956 4.325110014086564 1.521687216944611  9.158361504909907 4.362663866517195 1.347575475591854  9.25
[...]
<PointData  Scalars="f_14"> 
<DataArray  type="Float64"  Name="f_14"  format="ascii">-3.4694469519536142e-17  -5.5511151231257827e-17  -5.2041704279304213e-17  2.2133665366067462e-01  2.0066700062594425e-01  2.1412080368839037e-01  4.1292049357702659e-01  3.8656406783231229e-01  4.0395618862053767e-01  5.8430061473796768e-01  5.5813869862021992e-01  5.7609976331532131e-01  7.3898595806051859e-01  7.1661987174275965e-01  7.3270414949308882e-01  8.7510233439221219e-01  8.6339144936375845e-01  8.7812759888856384e-01  1.0000000000000018e+00  1.0000000000000022e+00  1.0000000000000020e+00  -1.0408340855860843e-16  -1.2490009027033011e-16  -1.3877787807814457e-16  2.0940260903885483e-01  1.9756628857881306e-01  1.9167643945898652e-01  3.9304001164710733e-01  3.8028025379783964e-01  3.7492603822658482e-01  5.6272618651053163e-01  5.5017687228584222e-01  5.4551733621736898e-01  7.2091038225478710e-01  7.0900946878453019e-01  7.0451321077365647e-01  8.6864354170690861e-01  8.5822616427975706e-01  8.5385237877012565e-01  1.0000000000000018e+00  1.0000000000000018e+00  1.0000000000000020e+00  -2.6367796834847468e-16  -2.3592239273284576e-16  -2.4980018054066022e-16  1.7698323582123932e-01  1.7040902667340088e-01  1.7375711473434791e-01  3.4750287951679792e-01  3.4078548718306834e-01  3.4499210563646432e-01  5.1510792856569732e-01  5.0846891106726066e-01  5.1270595728687429e-01  6.8049853132587934e-01  6.7330242211971847e-01  6.7704004702165432e-01  8.4326665101539866e-01  8.3600107544231761e-01  8.3845720610986330e-01  1.0000000000000018e+00  1.0000000000000020e+00  1.0000000000000018e+00  -2.2204460492503131e-16  -2.4980018054066022e-16  -2.4980018054066022e-16  1.9908645243052969e-01  1.8308950213530276e-01  1.9209829689441849e-01  3.8060696070165712e-01  3.5941576108995588e-01  3.7051275775121423e-01  5.5097842650994511e-01  5.2888628674331306e-01  5.4033961661348462e-01  6.9172985524740482e-01  7.0262994937959411e-01  7.1184286895084781e-01  8.4848201778861754e-01  8.5728215123810358e-01  8.6285264359913671e-01  1.0000000000000018e+00  1.0000000000000016e+00  1.0000000000000018e+00  -4.9960036108132044e-16  -5.5511151231257827e-16  -4.9960036108132044e-16  2.0076337093521948e-01  1.9517657234835434e-01  1.9459490086239672e-01  3.8547814925305379e-01  3.7870429307846637e-01  3.7567681024572674e-01  5.5653421931368374e-01  5.4988028246709753e-01  5.4612272265280726e-01  7.1548723327914843e-01  7.0965307141476563e-01  7.0688475737433643e-01  8.6327529779189560e-01  8.5898149960562797e-01  8.5861704783525750e-01  1.0000000000000016e+00  1.0000000000000016e+00  1.0000000000000013e+00  -3.0531133177191805e-16  -3.3306690738754696e-16  -3.8857805861880479e-16  1.7196372269117741e-01  1.6670347659812129e-01  1.6746089307219905e-01  3.4230390597144900e-01  3.3270968359672271e-01  3.3504242591465244e-01  5.1008553465821715e-01  4.9882362146812681e-01  5.0174595213811990e-01  6.7537021224426064e-01  6.6542496949598318e-01  6.6767960084969502e-01  8.3838006750061722e-01  8.3264459221674891e-01  8.3321684995055889e-01  1.0000000000000016e+00  1.0000000000000016e+00  1.0000000000000018e+00  -3.0531133177191805e-16  -2.7755575615628914e-16  -3.0531133177191805e-16  1.8179078826954723e-01  1.6634412686994765e-01  1.7202661555667875e-01  3.5571648104111642e-01  3.3387559061362604e-01  3.4285987635837983e-01  5.2463539319375063e-01  5.0090853927713930e-01  5.1113385663249111e-01  6.8907400961224774e-01  6.6711275215389565e-01  6.7667012354574441e-01  8.4860171078930757e-01  8.3272722711671343e-01  8.3947370601562832e-01  1.0000000000000016e+00  1.0000000000000018e+00  1.0000000000000016e+00  -5.8980598183211441e-17  -7.6327832942979512e-17  -7.6327832942979512e-17  1.8547330350001126e-01  1.9558210604865645e-01  1.8991791500885363e-01  3.6260163903657322e-01  3.7567103965080723e-01  3.6765531845848320e-01  5.3212840230285285e-01  5.4582171297788884e-01  5.3721652386213603e-01  6.9457688587495969e-01  7.0709303073973717e-01  6.9938883377818639e-01  8.5040995003303199e-01  8.5957315845931292e-01  8.5448913741991783e-01  1.0000000000000020e+00  1.0000000000000020e+00  1.0000000000000022e+00  -4.1633363423443370e-16  -4.4408920985006262e-16  -4.4408920985006262e-16  1.9961820206624439e-01  2.2097621441674711e-01  1.9949053102699499e-01  4.0923976483721436e-01  3.8468118507663884e-01  3.8303692496872077e-01  5.7995675538487057e-01  5.5591643210889097e-01  5.5401018271428526e-01  7.1504437698342249e-01  7.3635383685246314e-01  7.1400349970445631e-01  8.6310517184842150e-01  8.7851831225237786e-01  8.6336056671685180e-01  1.0000000000000016e+00  1.0000000000000016e+00  1.0000000000000016e+00  -3.4694469519536142e-17  -5.8980598183211441e-17  -4.8572257327350599e-17  1.9223731985536102e-01  1.9314002397573846e-01  1.9367170817645341e-01  3.7415733302156212e-01  3.7346517943370661e-01  3.7245975674578968e-01  5.4413989102516236e-01  5.4377293163015339e-01  5.4222125481994576e-01  7.0417092595768804e-01  7.0507274382008567e-01  7.0262745596128229e-01  8.5781185266616855e-01  8.5553609959073551e-01  8.5475354817742155e-01  1.0000000000000020e+00  1.0000000000000018e+00  1.0000000000000018e+00  -2.7755575615628914e-16  -2.4980018054066022e-16  -3.3306690738754696e-16  1.9927232346455603e-01  2.0735014033781762e-01  1.9656757408647915e-01  3.8111416725839797e-01  3.9082182876932425e-01  3.7869742744723811e-01  5.5150507086516498e-01  5.6141014593194927e-01  5.4922988154258223e-01  7.1201365853713039e-01  7.2111976195198513e-01  7.0940025372661530e-01  8.6270181777151911e-01  8.6970268718153798e-01  8.5982681392369686e-01  1.0000000000000018e+00  1.0000000000000018e+00  1.0000000000000018e+00  -2.7755575615628914e-16  -2.7755575615628914e-16  -2.7755575615628914e-16  1.6952928329975789e-01  1.6345329846400619e-01  1.7033733006130675e-01  3.3935034705991990e-01  3.2885847998496676e-01  3.3667503804771703e-01  5.0683280545917564e-01  4.9507891140356725e-01  5.0355558652463062e-01  6.7267742187086454e-01  6.6212241450295428e-01  6.7030171371341640e-01  8.3691566788866034e-01  8.3008390556188183e-01  8.3660327373606125e-01  1.0000000000000020e+00  1.0000000000000018e+00  1.0000000000000018e+00  -3.0531133177191805e-16  -3.3306690738754696e-16  -3.3306690738754696e-16  1.8065941885827336e-01  1.7037589702228037e-01  1.8374252864360488e-01  3.5447231336709129e-01  3.4245004059163597e-01  3.5706160685326527e-01  5.2235002043457002e-01  5.0977027217465443e-01  5.2450111895367202e-01  6.8506561882838790e-01  6.7241837918370573e-01  6.8744443832204394e-01  8.4378745452770376e-01  8.3216024448500736e-01  8.4716961720613093e-01  1.0000000000000016e+00  1.0000000000000018e+00  1.0000000000000018e+00  -2.7755575615628914e-16  -3.0531133177191805e-16  -2.7755575615628914e-16  1.6221920146638483e-01  1.6113357007329601e-01  1.6035134913279850e-01  3.2507583718869626e-01  3.2456528737863799e-01  3.2466131907037943e-01  4.8994968498835867e-01  4.8964843450432227e-01  4.9013113348023063e-01  6.5736598360532561e-01  6.5653747458951695e-01  6.5672272740524862e-01  8.2762203322521921e-01  8.2588307928424676e-01  8.2501211780740702e-01  1.0000000000000018e+00  1.0000000000000016e+00  1.0000000000000018e+00  -3.6082248300317588e-16  -4.1633363423443370e-16  -4.4408920985006262e-16  2.0522415837936261e-01  1.9273651143295989e-01  1.9342845090321972e-01  3.8915946299709447e-01  3.7396800517409962e-01  3.7494287988389274e-01  5.5985878340113715e-01  5.4434542733746361e-01  5.4563599370965798e-01  7.1927007013156052e-01  7.0468813834510147e-01  7.0671023502766694e-01  8.6783211694523454e-01  8.5575286587392851e-01  8.5884792200602333e-01  1.0000000000000018e+00  1.0000000000000016e+00  1.0000000000000018e+00  -4.4408920985006262e-16  -4.9960036108132044e-16  -5.2735593669694936e-16  1.8684410756157185e-01  1.7999805246832329e-01  1.8278324612077235e-01  3.5928580275996430e-01  3.5330669171286300e-01  3.6581327935469876e-01  5.2933280699418206e-01  5.2250749708395605e-01  5.3659198483398984e-01  6.9283760070422906e-01  6.8767629587789425e-01  6.9949159684428386e-01  8.4963287263547271e-01  8.4802986911089939e-01  8.5428894770956254e-01  1.0000000000000016e+00  1.0000000000000018e+00  1.0000000000000016e+00  -4.9960036108132044e-16  -4.9960036108132044e-16  -5.5511151231257827e-16  1.5484630196893534e-01  1.5439978617750982e-01  1.5695449913719417e-01  3.1730558932595471e-01  3.1339573409728011e-01  3.1470087769304450e-01  4.8118084230315550e-01  4.7659053699028520e-01  4.7840719610156091e-01  6.4898761702698793e-01  6.4449055029238822e-01  6.4618490133206508e-01  8.2139950605988943e-01  8.1819150959917275e-01  8.1890255276074453e-01  1.0000000000000016e+00  1.0000000000000013e+00  -4.4408920985006262e-16  -4.9960036108132044e-16  -5.5511151231257827e-16  1.5617394090168668e-01  1.6114315150887851e-01  1.5998347588730200e-01  3.2192087590203627e-01  -3.8163916471489756e-17  -5.5511151231257827e-17  -6.2450045135165055e-17  1.9936058061097314e-01  2.0427596447472893e-01  1.8470888536050223e-01  3.8746369153184429e-01  3.6530974007455597e-01  3.8228438798363124e-01  5.5761075862583309e-01  5.3561606109969284e-01  5.5210906943705274e-01  6.9592997753622288e-01  7.1696646863942093e-01  7.1077313832314093e-01  8.4782188802063596e-01  8.6625424837525489e-01  8.5960640803931054e-01  1.0000000000000020e+00  1.0000000000000020e+00  1.0000000000000020e+00  3.9108569535586346e-01  3.9282220135864487e-01  3.7443562574766820e-01  2.0558125190666601e-01  5.4527421113397767e-01  5.6108142926082138e-01  5.6380748485967902e-01  7.0496248851886101e-01  7.1919212649575592e-01  7.2119877206549987e-01  8.5527889956403813e-01  8.6649779356593937e-01  8.6662328365681107e-01  1.0000000000000013e+00  1.0000000000000016e+00  1.0000000000000013e+00  -9.0205620750793969e-17  2.0374277975546334e-01  3.8934287664615103e-01  5.6007478701047031e-01  7.1820538967864567e-01  8.6482280519003141e-01  1.0000000000000018e+00  -3.6082248300317588e-16  -3.8857805861880479e-16  -3.8857805861880479e-16  1.9088961593502127e-01  1.8168753708539356e-01  2.0032658875358794e-01  3.6968486327569128e-01  3.5845426845023226e-01  3.8037651928950744e-01  5.3924396017367882e-01  5.2782671564565331e-01  5.5012538173951997e-01  7.0089938557291198e-01  6.9002678001386741e-01  7.1128434123920736e-01  8.5505365273837219e-01  8.4599711550940093e-01  8.6393134796256565e-01  1.0000000000000016e+00  1.0000000000000018e+00  1.0000000000000016e+00  -5.5511151231257827e-16  1.9492152718315836e-01  3.7443115460780130e-01  5.4454992236974731e-01  7.0653210242979392e-01  8.5997475441992810e-01  1.0000000000000016e+00  -9.0205620750793969e-17  -9.0205620750793969e-17  2.1957838451465528e-01  2.0520743714701883e-01  4.0584716239597529e-01  3.9146052999947989e-01  5.7642540570727341e-01  5.6289511386587987e-01  7.3379840672133612e-01  7.2122939838048783e-01  8.7791799528726355e-01  8.6721494421332124e-01  1.0000000000000020e+00  1.0000000000000018e+00  -4.9960036108132044e-16  1.5446578353356316e-01  3.1396269364220708e-01  -5.2735593669694936e-16  -4.9960036108132044e-16  -4.9960036108132044e-16  1.6998008378299040e-01  1.6845818748670649e-01  1.7350770070665675e-01  3.3812163173210780e-01  3.3625427990717660e-01  3.4389802789936885e-01  5.0493776672795976e-01  5.0299816586792789e-01  5.1159566675586288e-01  6.7062019489711722e-01  6.6878070537049217e-01  6.7674580645906013e-01  8.3553887238810343e-01  8.3400611001590175e-01  8.3952196030956328e-01  1.0000000000000013e+00  1.0000000000000016e+00  1.0000000000000016e+00  -2.0816681711721685e-16  -2.2204460492503131e-16  -2.0816681711721685e-16  1.7164254929303241e-01  1.7088537708585094e-01  1.7653393291072439e-01  3.4198765749099730e-01  3.3992034861145159e-01  3.4770942570294927e-01  5.0949793372143992e-01  5.0696459398021743e-01  5.1547914116246651e-01  6.7430100241227531e-01  6.7231753022380347e-01  6.8028856201089760e-01  8.3687928945904055e-01  8.3639958321323993e-01  8.4226774932736259e-01  1.0000000000000018e+00  1.0000000000000018e+00  1.0000000000000020e+00  -2.0816681711721685e-16  -2.4980018054066022e-16  -2.6367796834847468e-16  1.6814714568613270e-01  1.7172718391905414e-01  1.7358014732588825e-01  3.3587237407953963e-01  3.4018155174388837e-01  3.4229024885763321e-01  5.0252287686439256e-01  5.0700014876200461e-01  5.0918843134775116e-01  6.6835033581800507e-01  6.7272747430997160e-01  6.7485707739789913e-01  8.3381893614908609e-01  8.3740204185384048e-01  8.3942012847747760e-01  1.0000000000000018e+00  1.0000000000000018e+00  1.0000000000000020e+00  -9.7144514654701197e-17  -1.1796119636642288e-16  -9.7144514654701197e-17  2.1568961618205357e-01  1.9423021159227011e-01  2.0064954106392266e-01  4.0395791678964360e-01  3.7744070789800055e-01  3.8495586234014495e-01  5.7506247648548225e-01  5.4837491772127622e-01  5.5581987608533501e-01  7.3201263618925638e-01  7.0808741675251208e-01  7.1465540016240470e-01  8.7483386627754478e-01  8.5787905773488371e-01  8.6289659302789978e-01  1.0000000000000018e+00  1.0000000000000018e+00  1.0000000000000020e+00  -3.8857805861880479e-16  -4.7184478546569153e-16  -4.4408920985006262e-16  2.1198906637595866e-01  2.0972612029734664e-01  2.0181984104098805e-01  4.0011445044435956e-01  3.9650799976833528e-01  3.8817350903663461e-01  5.7120292531280525e-01  5.6738583396248377e-01  5.5947145557793787e-01  7.2790873110059717e-01  7.2470915966839500e-01  7.1748670893602839e-01  8.7139993414170225e-01  8.6944748649816850e-01  8.6373962077291577e-01  1.0000000000000016e+00  1.0000000000000013e+00  1.0000000000000016e+00  -2.2204460492503131e-16  -2.4980018054066022e-16  -2.6367796834847468e-16  1.8771436675837833e-01  1.8254950159020628e-01  1.9268740840502488e-01  3.6605664969089685e-01  3.5849790413828431e-01  3.7149643418066847e-01  5.3529300114201261e-01  5.2729240715814130e-01  5.4078113290144436e-01  6.9651444109747807e-01  6.8960183447477497e-01  7.0190936094078094e-01  8.5072734960558072e-01  8.4646194996806623e-01  8.5552720649193670e-01  1.0000000000000018e+00  1.0000000000000018e+00  1.0000000000000018e+00  -6.1062266354383610e-16  -6.1062266354383610e-16  -6.1062266354383610e-16  1.9324935689795542e-01  1.8653426455069588e-01  1.9420200835056631e-01  3.7299267283694115e-01  3.6424333752199528e-01  3.7178065491578410e-01  5.4300799138935818e-01  5.3385643204352395e-01  5.4116153628098540e-01  7.0444043733576545e-01  6.9599635509269053e-01  7.0359948518320470e-01  8.5740331917319079e-01  8.5118847471559400e-01  8.5883663109231612e-01  1.0000000000000016e+00  1.0000000000000013e+00  1.0000000000000013e+00  -2.3592239273284576e-16  -2.3592239273284576e-16  1.7294399131255195e-01  1.7043881800560473e-01  3.4177644239605975e-01  3.4034099408165114e-01  5.0860626113545582e-01  5.0762751304222586e-01  6.7395909859154801e-01  6.7254597871482436e-01  8.3805685124495510e-01  8.3573446938990870e-01  1.0000000000000016e+00  1.0000000000000018e+00  -2.0816681711721685e-17  -4.1633363423443370e-17  -3.8163916471489756e-17  1.8115196736095976e-01  1.9849016316405643e-01  1.9765810115625254e-01  3.5932408680607769e-01  3.7980820002856475e-01  3.7976982636185413e-01  5.2969629568262389e-01  5.4990421491545272e-01  5.5106509348967680e-01  6.9177740857563419e-01  7.1004520870384447e-01  7.1194625598766381e-01  8.4676319292599900e-01  8.6082031552271199e-01  8.6223680241666700e-01  1.0000000000000020e+00  1.0000000000000020e+00  1.0000000000000018e+00  -4.9960036108132044e-16  -4.9960036108132044e-16  -4.9960036108132044e-16  1.6039317222747612e-01  1.6353977664242436e-01  1.6398087732797428e-01  3.2198413332190290e-01  3.2882657109894442e-01  3.2899457602644139e-01  4.8632311522200689e-01  4.9466151259668145e-01  4.9468481939971309e-01  6.5408740315497405e-01  6.6119624551352496e-01  6.6141084777355141e-01  8.2570741017226446e-01  8.2899524780701317e-01  8.2950787852270635e-01  1.0000000000000013e+00  1.0000000000000016e+00  1.0000000000000016e+00  -1.3877787807814457e-16  -1.3877787807814457e-16  -1.6653345369377348e-16  1.7904955806226036e-01  1.7869768914276563e-01  1.7687754337435779e-01  3.5149596190322330e-01  3.5163069835396454e-01  3.4806375104803972e-01  5.1967484570917022e-01  5.1995350767644999e-01  5.1580590542370119e-01  6.8409371368455685e-01  6.8407364554175709e-01  6.8062146316824113e-01  8.4469890722326957e-01  8.4417054107336797e-01  8.4240143296346248e-01  1.0000000000000020e+00  1.0000000000000020e+00  1.0000000000000020e+00  -1.5265566588595902e-16  1.9974210795121050e-01  3.8290103600580588e-01  5.5284760112357489e-01  7.1165999604400998e-01  8.6083359932087333e-01  1.0000000000000020e+00  -4.7184478546569153e-16  -5.2735593669694936e-16  -4.9960036108132044e-16  2.2969401770474351e-01  2.0181240490762078e-01  2.0816504264421953e-01  4.1883031246705726e-01  3.8846876854768675e-01  3.9473360690824710e-01  5.8955274112668943e-01  5.5988897882113742e-01  5.6589029745686714e-01  7.4546099915694897e-01  7.1767723333578248e-01  7.2372363464159850e-01  8.8557031044698298e-01  8.6363075140957968e-01  8.6893221363298712e-01  1.0000000000000013e+00  1.0000000000000013e+00  1.0000000000000016e+00  -3.6082248300317588e-16  -2.7755575615628914e-16  1.9233268313290644e-01  2.0312853376386103e-01  3.7357204657834897e-01  3.8571169721588106e-01  5.4395406015136982e-01  5.5609805610299956e-01  7.0451539617463010e-01  7.1619384024257404e-01  8.5617239807582279e-01  8.6580143117616171e-01  1.0000000000000018e+00  1.0000000000000016e+00  -1.8041124150158794e-16  -1.9428902930940239e-16  -1.9428902930940239e-16  1.9634993479745688e-01  1.7905801901162532e-01  1.7899325616681303e-01  3.7626261923580540e-01  3.5369091794714069e-01  3.5413645207473143e-01  5.4610577458350884e-01  5.2249699789291237e-01  5.2301441246427660e-01  7.0754602311095471e-01  6.8556683994146872e-01  6.8586739507131922e-01  8.6029931017229522e-01  8.4386494283825342e-01  8.4371131962862445e-01  1.0000000000000020e+00  1.0000000000000016e+00  1.0000000000000018e+00  -4.1633363423443370e-16  -4.7184478546569153e-16  -4.4408920985006262e-16  2.2261936795588133e-01  2.0862251058782930e-01  1.9794688586995540e-01  3.8351098377587606e-01  3.9305221720615369e-01  4.1091911805541975e-01  5.5474575967143880e-01  5.6360833012000189e-01  5.8173923962171725e-01  7.1333993424343001e-01  7.2232127222237474e-01  7.3812362777751872e-01  8.6080622475620527e-01  8.7006913998507684e-01  8.8003423849834295e-01  1.0000000000000016e+00  1.0000000000000016e+00  1.0000000000000018e+00  -2.7755575615628914e-16  1.6888031031640874e-01  3.3693005895632377e-01  5.0380467611756541e-01  6.6962357480384915e-01  8.3475093053159000e-01  1.0000000000000016e+00  -4.7184478546569153e-16  2.1727602924918404e-01  4.0469100513021761e-01  5.7564464085676670e-01  7.3268531122696356e-01  8.7599288304474121e-01  1.0000000000000016e+00  -2.7755575615628914e-16  -2.7755575615628914e-16  -3.0531133177191805e-16  1.9666226510150231e-01  2.0416489546377264e-01  1.9410300036734082e-01  3.7662145675460779e-01  3.8689962394643224e-01  3.7893026040887673e-01  5.4727199910895152e-01  5.5726633247113511e-01  5.4943387634810326e-01  7.0718892957360191e-01  7.1685247293117071e-01  7.0943297836902675e-01  8.5751621387820898e-01  8.6641418840500817e-01  8.5961121869502111e-01  1.0000000000000018e+00  1.0000000000000018e+00  1.0000000000000020e+00  -1.2490009027033011e-16  -1.3877787807814457e-16  -1.5265566588595902e-16  1.9384471243999307e-01  2.0579248329171823e-01  2.0612321988443405e-01  3.8985831292814110e-01  3.9020657988135382e-01  3.7598888783137996e-01  5.5994956832859566e-01  5.6034442811425977e-01  5.4613916701045850e-01  7.1848374911769408e-01  7.1842210587433775e-01  7.0570339527347492e-01  8.6649557426710810e-01  8.6536346688194099e-01  8.5616768057594017e-01  1.0000000000000020e+00  1.0000000000000018e+00  1.0000000000000020e+00  -2.7755575615628914e-16  1.9632180036900621e-01  3.7653016304928927e-01  5.4668405496192019e-01  7.0797692350031516e-01  8.6032927523223435e-01  1.0000000000000018e+00  -3.3306690738754696e-16  -3.0531133177191805e