<?xml version="1.0"?>
<VTKFile type="UnstructuredGrid"  version="0.1"  >
<UnstructuredGrid>
<Piece  NumberOfPoints="1037" NumberOfCells="4434">
<Points>
<DataArray  type="Float64"  NumberOfComponents="3"  format="ascii">3.710602855333923 3.591900872320883 2.522454649014461  3.847216742783836 3.553277917526136 2.48324731517081  3.733321998334836 3.664907989624336 2.401655892815362  3.757780234843811 3.714604392595506 2.435434922933678  3.861619203402311 3.604383245620997 2.512112985363661  3.733349953375995 3.641187544805316 2.551985208261895  3.875825553650906 3.655708047689112 2.540928616043027  3.755832433565638 3.690787617122364 2.581443113389978  3.782001693718974 3.764817287112639 2.469208403969116  3.889982222225108 3.707387266866827 2.569834720247397  3.778327084317127 3.740781222731395 2.610993531240626  3.806178282513322 3.815400501050201 2.503108823817597  3.800992060617962 3.791014015086966 2.640782503180398  3.904231024422254 3.759398639693288 2.598958338267787  3.830578608775987 3.866159599841324 2.537324964388749  3.824118202888442 3.841412650856274 2.670966925969855  3.918724544591897 3.811644956321495 2.628455263196958  3.855497813797319 3.917019798287274 2.571980038481186  3.848183302881134 3.891708501330407 2.701648887792016  3.934020132049492 3.864057385208968 2.65865558979419  3.88141367283847 3.967630674415863 2.607146202813667  3.897232268390501 3.69926066703088 2.241340705762831  4.006969139521496 3.628408001933695 2.319281516115487  4.02671475096032 3.678257916265545 2.217980815697803  4.037776555931083 3.737580236879904 2.245297702382113  4.014318405254678 3.684113706373174 2.349496384701712  3.914213162068862 3.757636905325153 2.270622324728238  4.048697128422743 3.797420842207055 2.272418379915447  4.021503739452367 3.740204502465574 2.379630126830658  3.930949622169928 3.816540865048471 2.299695417834996  4.028692607421542 3.796692798393314 2.409878049689565  3.947730612096887 3.875799949150332 2.32887573227977  4.05964671593785 3.857708184583495 2.299688413581693  4.036046276783788 3.853482040932752 2.440453706299667  3.964731166201515 3.935308886408123 2.358385798845284  4.070744276358309 3.918290233098743 2.327254640797492  4.043705176747811 3.910544669864212 2.471516623162496  3.982154229364757 3.994981203933732 2.388324137848044  4.082153282367368 3.979151823053906 2.355266437525765  4.051874049995759 3.967838105006139 2.503337968848044  4.00031735081107 4.054637998205963 2.418797867641692  4.094240566345587 4.04016928464195 2.383922257625401  3.863487314698119 3.626602169004602 2.36172063727528  3.756141896580768 3.724591380880959 2.29961612933629  3.779151183127904 3.78088402492423 2.32987965172517  3.879433210037945 3.67812766040199 2.395291470779043  3.895199815003878 3.730210632575336 2.428916462958068  3.801876192162091 3.837804874164732 2.360066362520172  3.910895807029065 3.782669536016532 2.462606737351136  3.824646793474535 3.895031714120636 2.390428861873454  3.926729189436263 3.835392278480882 2.496555477772778  3.847676997348758 3.952421093464702 2.421122846894868  3.942884968137419 3.888325499223396 2.530919389316874  3.871168792496409 4.009848741292398 2.452210862860989  3.959979255962687 3.941247432627515 2.566007731447383  3.895342987972225 4.067123851915004 2.48363508417586  3.601224727394128 3.389638408675481 3.085429542839885  3.739062995774252 3.355942664720604 3.09730684992655  3.662164445399208 3.415764500337035 2.97030109104809  3.675702371104123 3.469804861352185 2.989082010126328  3.782031106214593 3.638088519479566 3.190653051110391  3.667682954403173 3.665312707710025 3.188329931906601  3.730044081412599 3.689676579809799 3.065155006201688  3.71616537985513 3.634114129539591 3.045936021856141  3.654151121383756 3.609458640285735 3.167528496077489  3.681569195507644 3.721648790118832 3.209219683699814  3.791068786481384 3.696135318272165 3.209590330425345  3.74438438210905 3.745814223144567 3.084541074496709  3.991192987125459 3.560176377940777 2.445757701768457  3.994829731007357 3.613474991849022 2.474670317400053  3.998346522369232 3.667208398750097 2.503643209149398  4.001844058198793 3.72122054215648 2.532725028676489  4.005460478285976 3.775539853827638 2.562084507454837  4.009350764853443 3.830260303070226 2.591963934457637  4.013484578234857 3.885676172454066 2.622809015342451  4.379849313025487 3.474087870777625 2.838994656499042  4.320890812049289 3.429259918882792 2.962956876071348  4.461613088261601 3.478571105109294 2.94463234010576  4.442191573645671 3.534067783391406 2.956456320779619  4.304760565752924 3.485239704169456 2.975371248724028  4.362670627960741 3.528813610111521 2.851670588406137  4.4229409884285 3.589898918150737 2.968569808944271  4.288758944640238 3.541514485615058 2.988061492746371  4.345631901801294 3.583821697699554 2.864550190588053  4.403672298484198 3.646036704250786 2.98077992076345  4.272712446778441 3.598154811428857 3.000831409293023  4.328570171019424 3.63915250766444 2.877543325966096  4.256499813239864 3.655154281848266 3.013601843397414  4.311333600994351 3.69482687877504 2.890589456987236  4.384219093338342 3.702520260559746 2.993000090901792  4.23993407267776 3.712573172589429 3.026299357770006  4.293759507938192 3.750900176503729 2.903613534955307  4.364422067235862 3.759303486182319 3.005120034523252  4.222844377307589 3.770397168343803 3.038829353538861  4.275632705698332 3.807386063501097 2.916492884641208  4.344082016852624 3.816424015544838 3.017038277467416  3.683418267517948 3.536409471089685 2.650079001130722  3.793260659963653 3.45299238984646 2.745541595578729  3.821856626884927 3.500895784892903 2.612592942871498  3.836387039648487 3.55256400887754 2.635961242690248  3.806512496016447 3.505799357818955 2.764535328968933  3.703869805897922 3.586878012767854 2.675151036474702  3.850778892547047 3.604620200165328 2.659365732643325  3.819610489313734 3.558848751909094 2.783518479198764  3.724107647677049 3.637711947512571 2.700206902775942  3.865136703121389 3.656953334249251 2.682828666929109  3.832716065290832 3.612209866300037 2.802554196050676  3.744369244274623 3.688885032090099 2.725302730045293  3.879597242201852 3.709581017300745 2.70646473859308  3.845928301205495 3.6659109406293 2.82169902496794  3.764841827487002 3.740332939829047 2.750594423541158  3.894351835660022 3.762563965546728 2.730446694466839  3.859441426052417 3.720027976884446 2.841067437173391  3.785800949456469 3.792019212368809 2.776230369254208  3.873609169669098 3.774679294440123 2.860806510558412  3.807585401652242 3.843809216094686 2.802373646795522  3.909998530583028 3.816156244398503 2.755091030233784  4.032515499661257 3.750199489070811 2.024813612493419  4.147704584299852 3.756519151157611 1.915648405306001  4.027761386060519 3.782540773352445 1.879790888227526  4.039728593112522 3.855031763400065 1.887807408555983  4.157422576745126 3.826357218240573 1.927783992427194  4.04520913411296 3.817653500781204 2.042586187630265  4.05161188818591 3.927912859573696 1.895518057301826  4.167104708015963 3.896601456422579 1.939647783475289  4.057746712941446 3.885516860588972 2.060048487100678  4.063524985387202 4.001092582105374 1.903157768867726  4.176859007725591 3.967162233541333 1.951482868427916  4.070373680963222 3.953749859055244 2.077556220245948  4.075568893276938 4.07447666388137 1.910893055542759  4.186755748655914 4.037988570497451 1.963433662471284  4.083168974931267 4.022257472863584 2.095251112201525  4.08784039684008 4.148011989137915 1.918836817542593  4.196876503150061 4.109015251953236 1.975635055607045  4.096258980592634 4.090951073739102 2.11325558907639  4.10040894525589 4.221641210157526 1.92707611788337  4.20734631766268 4.180176422905207 1.988217356733265  4.109793912734002 4.159715776861488 2.131686248578795  3.717078260815609 3.669912883173168 3.347423799767489  4.383599775742183 3.422784588454779 3.082040948295727  4.364682309063045 3.479775329376852 3.094210964999828  4.345979330709743 3.537034905019466 3.106712893417153  4.327245538519272 3.59464745157179 3.119314861327044  4.308341874346548 3.652582683391583 3.131890867450804  4.289108020003915 3.710817465911178 3.144327889177266  4.269362274528421 3.769286139260463 3.156511730736664  4.261039259623369 3.631647364327113 2.294342698335235  4.351250640812724 3.672382615583097 2.189201954758964  4.228645933706924 3.684727510185599 2.152324760741233  4.230699947518855 3.747048924971992 2.173272769936378  4.349347218296518 3.733407438468626 2.20829531625184  4.258170935220338 3.690309284546514 2.316455989865495  4.232715442238387 3.80981377150995 2.194039730836598  4.347484575094983 3.794863127576503 2.227270932546018  4.25531242029566 3.749304126226702 2.338475517657535  4.234840835424182 3.872962055946826 2.214902472928123  4.345701822029868 3.856723698956895 2.246363090701289  4.252497383722257 3.808688876811672 2.360627215424602  4.237099874167188 3.936456131178875 2.236002523304342  4.344002484887447 3.918941715906579 2.265656504588507  4.249751560235072 3.868428851494922 2.383045543387188  4.239548210673824 4.000264100253905 2.257474289496807  4.342364879534931 3.981519553220204 2.285268424075616  4.247073276400323 3.928556587825209 2.405845814103006  4.242222641630756 4.064359436028644 2.279522455374976  4.340777534071326 4.044494424456063 2.305400340816242  4.244418389612576 3.989168447077158 2.429243355631361  3.440518031842536 3.895490105062311 2.097041909318316  3.517686720162485 3.83837158348426 2.249628066161571  3.557211426267371 3.862622668756731 2.105172343210145  3.577471580906989 3.932300214384088 2.121132251722707  3.540570466831999 3.9034556902278 2.270138469820083  3.45903326085027 3.96734919039476 2.108693556881911  3.597396646864176 4.002326451313481 2.13689507957544  3.563074426496447 3.968935839181432 2.290475565005275  3.477227870540579 4.039374363655999 2.120185853244946  3.617242200549041 4.072569519367192 2.152647999821647  3.585521768333547 4.034636049842231 2.310894631134071  3.495300286012408 4.111508549172019 2.131
[...]
<PointData  Scalars="f_14"> 
<DataArray  type="Float64"  Name="f_14"  format="ascii">-1.6655503999756201e-13  -1.6416192894884420e-13  -1.6664325949810506e-13  1.5755772466718326e-01  1.1230869428216071e-01  1.3539509317593537e-01  2.4771528904700449e-01  2.8329005402426571e-01  3.1765665428029677e-01  3.9886466660287262e-01  4.4214681596979721e-01  4.8275332699141105e-01  6.1281184788194110e-01  5.6576036486680892e-01  6.5407367944657868e-01  7.9782594761766268e-01  7.5441424211824615e-01  8.3097152140871733e-01  1.0000000000000675e+00  1.0000000000000697e+00  1.0000000000000675e+00  -1.6422208986758708e-13  -1.6198172526286438e-13  -1.6189439868063152e-13  1.5847493520029629e-01  1.4577275576316936e-01  1.6725787632150849e-01  3.2064315923467307e-01  2.9965123911726693e-01  3.3326256243459740e-01  4.6107609276470202e-01  5.0034487962626628e-01  4.8582959671527465e-01  6.3055759651348497e-01  6.6873895420955454e-01  6.5424790317956294e-01  8.0930356631483291e-01  8.3718474669052645e-01  8.2598863232476449e-01  1.0000000000000717e+00  1.0000000000000697e+00  1.0000000000000719e+00  -1.6429787673102689e-13  -1.6677221575122711e-13  1.8412632557567762e-01  1.2910583434332870e-01  2.7853654028666269e-01  3.5551790956651397e-01  4.3825131545458740e-01  5.2442144099866550e-01  6.0786114265199498e-01  6.9168620580115636e-01  7.8984457924217311e-01  8.5445007086969693e-01  1.0000000000000697e+00  1.0000000000000673e+00  -1.6750108338040959e-13  -1.6478932958145025e-13  -1.6652466383435648e-13  1.4431167079441737e-01  8.0478202324016368e-01  8.1410888577629492e-01  8.0567408454598721e-01  6.2503259458185123e-01  6.3742661914860077e-01  1.0000000000000666e+00  1.0000000000000693e+00  1.0000000000000675e+00  -1.6192827857577104e-13  1.3294494772395032e-01  2.7695787706516023e-01  4.3293095312157914e-01  6.0295472479324752e-01  7.9089448166257303e-01  1.0000000000000717e+00  -1.5386242258875246e-13  -1.5459402440058401e-13  -1.5187642911169582e-13  1.5270028375488903e-01  1.4779667438072325e-01  1.4594360518071647e-01  3.1112357604712360e-01  3.0227285109963964e-01  2.9955589324457405e-01  4.7423963363389893e-01  4.6392508017672379e-01  4.6038469449862446e-01  6.3362304691393379e-01  6.2939504198183183e-01  6.4243437926445957e-01  8.1222546535168672e-01  8.0818168211966357e-01  8.1649007172268995e-01  1.0000000000000795e+00  1.0000000000000802e+00  1.0000000000000822e+00  -1.6673349811343613e-13  -1.6445372927792680e-13  -1.6425671482084794e-13  1.1939330101175843e-01  1.2097227936406182e-01  1.3633489614745128e-01  2.5577343475801761e-01  2.5806633503510890e-01  2.8253657441855345e-01  4.0682544786414432e-01  4.0938309737015482e-01  4.3998248678592772e-01  5.7500254476195112e-01  5.7693078632093764e-01  6.1067547959411372e-01  7.6628646332303563e-01  7.6674041035833695e-01  7.9717401655746734e-01  1.0000000000000695e+00  1.0000000000000673e+00  1.0000000000000697e+00  -1.6238075693889705e-13  -1.6042320164674986e-13  -1.6290590753928904e-13  1.8941266929196621e-01  1.8121315044336872e-01  1.7707892517296128e-01  3.6634507013676454e-01  3.5553845728629446e-01  3.4894444141617703e-01  5.3603134562594845e-01  5.2471052693625531e-01  5.1751309180641447e-01  6.9916245290358092e-01  6.8908617684773255e-01  6.8291917184583228e-01  8.5527570223600147e-01  8.4842185473669651e-01  8.4465142653187197e-01  1.0000000000000708e+00  1.0000000000000733e+00  1.0000000000000715e+00  1.0000000000000682e+00  -1.5298001568611880e-13  1.5185085301182497e-01  3.1010341054384200e-01  4.7346269881138991e-01  6.4198347338135753e-01  8.1643029626289965e-01  1.0000000000000810e+00  -1.5741487712179321e-13  -1.5583901362290021e-13  -1.5831865535390037e-13  1.6290872470510423e-01  1.6224196421722692e-01  1.5267214448901145e-01  3.2716263782862154e-01  3.2659932815754417e-01  3.1092570548118970e-01  4.9263681983122115e-01  4.9189781594002324e-01  4.7369690088642941e-01  6.5951547566516511e-01  6.5847371207099348e-01  6.4137753346563608e-01  8.2820631838940129e-01  8.2713556263371613e-01  8.1510465284455391e-01  1.0000000000000753e+00  1.0000000000000777e+00  1.0000000000000762e+00  -1.7415739612138913e-13  -1.7205970300006231e-13  -1.7171154028472369e-13  1.9701838949108122e-01  1.9829491747052522e-01  1.9624751013169431e-01  3.7876807341043955e-01  3.7995783586158327e-01  3.7905916116156274e-01  5.4970243500097260e-01  5.5051567298498016e-01  5.4999878897041155e-01  7.1075516643301417e-01  7.1142644567060842e-01  7.1003632118147852e-01  8.6202644087746816e-01  8.6259054803276458e-01  8.5971816644717403e-01  1.0000000000000624e+00  1.0000000000000620e+00  1.0000000000000600e+00  1.0000000000000719e+00  1.0000000000000706e+00  -1.7268209567609917e-13  -1.7280154201238970e-13  -1.7059485834270814e-13  1.4481840662124326e-01  1.6249118537355295e-01  1.5775389285033309e-01  2.9946798526866336e-01  3.2496904830561701e-01  3.1916172258818121e-01  4.6058335611973306e-01  4.8968619242931244e-01  4.8364696480919478e-01  6.2852078541690881e-01  6.5743730546633039e-01  6.5144266271263729e-01  8.0530454675108576e-01  8.2828700887676621e-01  8.2306321103359170e-01  1.0000000000000635e+00  1.0000000000000613e+00  1.0000000000000613e+00  -1.6714409949190469e-13  -1.6697112685404122e-13  -1.6523008120355544e-13  1.7137003673081777e-01  1.7969347522872106e-01  1.9329181948437490e-01  3.4315225116199893e-01  3.5417890196894364e-01  3.7116472438476544e-01  5.1199672147306474e-01  5.2352610387491272e-01  5.4113438149075110e-01  6.7757912716828539e-01  6.8795637023244027e-01  7.0413874548086164e-01  8.3975462323355388e-01  8.4720564392706366e-01  8.5932277946035140e-01  1.0000000000000688e+00  1.0000000000000671e+00  1.0000000000000668e+00  -1.7387691479284237e-13  -1.7298288031821717e-13  -1.7141496372875742e-13  1.9943215825149974e-01  2.0295770083156905e-01  1.9409673766357047e-01  3.8242594510104783e-01  3.8645408734856651e-01  3.7777933674696507e-01  5.5325425273712436e-01  5.5718871421114302e-01  5.4877754782596955e-01  7.1313137658746584e-01  7.1666852045381724e-01  7.0820758284478091e-01  8.6265921640122800e-01  8.6549388064237209e-01  8.5715104360554972e-01  1.0000000000000626e+00  1.0000000000000611e+00  1.0000000000000602e+00  1.8789720037474300e-01  1.7309964824189114e-01  1.9856518909615323e-01  -1.7384115724403447e-13  -1.7316623495950580e-13  3.8043743413081216e-01  3.6342199704882183e-01  3.4394112052548237e-01  5.5111846571761458e-01  5.3317170666683078e-01  5.1243469520963769e-01  7.1219539843389268e-01  6.9782702474862668e-01  6.7845786904606953e-01  8.6309072683925669e-01  8.5589524759309843e-01  8.4130658335522845e-01  1.0000000000000580e+00  1.0000000000000608e+00  1.0000000000000602e+00  -1.6182752969769775e-13  1.2027520050185776e-01  2.5566869879016596e-01  4.0642014942284671e-01  5.7543286239956859e-01  7.6910659454327057e-01  1.0000000000000719e+00  -1.7560670907969664e-13  -1.7486749923116774e-13  1.6615795413129877e-01  1.6495434738190567e-01  3.3225417968917370e-01  3.3099200621337405e-01  4.9857833749296809e-01  4.9709919344540549e-01  6.6528363045997618e-01  6.6334265834309913e-01  8.3244290788688546e-01  8.3027105579580796e-01  1.0000000000000591e+00  1.0000000000000584e+00  8.2152702866246297e-01  8.1041414514124532e-01  8.2185061047956309e-01  6.3265158657972109e-01  1.0000000000000830e+00  1.0000000000000804e+00  1.0000000000000835e+00  8.1550389716932081e-01  1.0000000000000806e+00  -1.7158395783963275e-13  -1.6885017399749964e-13  -1.6917874998914040e-13  1.8726686000063608e-01  1.6347583260125476e-01  1.9021152546737063e-01  3.6868915971219879e-01  3.2860453792099320e-01  3.6263616226434775e-01  5.3900165272400313e-01  4.9578120022523609e-01  5.3262995467698071e-01  6.6506695280530947e-01  7.0194158691933883e-01  6.9765670974959215e-01  8.5666346764560852e-01  8.3486211688572898e-01  8.5549900614725205e-01  1.0000000000000624e+00  1.0000000000000653e+00  1.0000000000000648e+00  -1.6730390484378441e-13  1.3245676656493566e-01  2.7824348254784376e-01  4.3501833829475728e-01  6.0416473974194240e-01  7.8915435843366610e-01  1.0000000000000666e+00  -1.6938594381686413e-13  1.8314410253202637e-01  3.6111142270003804e-01  5.3154052610696290e-01  6.9457243794195866e-01  8.5021396911625569e-01  1.0000000000000646e+00  1.0000000000000711e+00  -1.6003765225369563e-13  1.5433433501849414e-01  3.1322685513275850e-01  4.7659951546017487e-01  6.4488460874749165e-01  8.1882289255111462e-01  1.0000000000000737e+00  1.9038120749906909e-01  3.6768570711743548e-01  5.3767160608451003e-01  7.0107146545050236e-01  -1.7133332343751816e-13  -1.6885730387086337e-13  1.3951130847533591e-01  1.8192251821652874e-01  2.9316268030955106e-01  3.5474001010773520e-01  4.5484153411537448e-01  5.2398530151518186e-01  6.2430328986337025e-01  6.9010568770976655e-01  8.0285613846762560e-01  8.5147417764319799e-01  1.0000000000000653e+00  1.0000000000000628e+00  -1.5642184408988834e-13  1.3945432003055422e-01  2.8788753949935658e-01  4.4617662591628082e-01  6.1618916849614791e-01  8.0031170466022694e-01  1.0000000000000775e+00  -1.6097893533123197e-13  1.6271586427365170e-01  3.2806097665466583e-01  4.9429583342057759e-01  6.6136128943524397e-01  8.2943037024927346e-01  1.0000000000000728e+00  -1.6504660535714602e-13  1.8617495257979297e-01  3.6308038438202633e-01  5.3311348758954846e-01  6.9644461869322793e-01  8.5305357592098363e-01  1.0000000000000688e+00  -1.6562788662734340e-13  -1.6340881347953424e-13  -1.6337514327137129e-13  1.3330994191160228e-01  1.4063261377015085e-01  1.3052128151308651e-01  2.7666712898704243e-01  2.8961807985266708e-01  2.7448562193328729e-01  4.3166263571581703e-01  4.4779100932129295e-01  4.2977594229871907e-01  6.0094298625264619e-01  6.1686334784910579e-01  5.9803536608797792e-01  7.8835959385397569e-01  7.9923397853451372e-01  7.8352033435362523e-01  1.0000000000000706e+00  1.0000000000000684e+00  -1.7497382939461894e-13  1.9940996004288528e-01  3.8374439219679685e-01  5.5468379876794471e-01  7.1365636585101855e-01  8.6183637680833092e-01  1.0000000000000591e+00  -1.6947535713093700e-13  1.9973102808215890e-01  3.8010767116734095e-01  5.5062308874915222e-01  7.1219608487490715e-01  8.6398842559318434e-01  1.0000000000000644e+00  -1.6321796679873993e-13  -1.6483022120870969e-13  1.7819676603845838e-01  1.7287863842594989e-01  3.4162982174405893e-01  3.5233164439505460e-01  5.0926083633802333e-01  5.2175688181071633e-01  6.7582723825017643e-01  6.8640947371391670e-01  8.4074588538982953e-01  8.4597936892720849e-01  1.0000000000000706e+00  1.0000000000000691e+00  -1.7745667703944534e-13  1.7089811644527209e-01  -1.5110188904248092e-13  -1.5351628600269345e-13  1.4857963844221125e-01  1.5683851578792118e-01  3.0303787739394344e-01  3.1709582938842640e-01  4.8084524038976484e-01  4.6410796164369927e-01  6.4878949693301524e-01  7.1463428667764750e-01  8.6382638827996272e-01  1.0000000000000591e+00  -1.5108877011016706e-13  -1.5224629162662046e-13  -1.4942557910921636e-13  1.7390614526071535e-01  -1.7133395247859551e-13  1.6086086128654734e-01  3.2520532244864753e-01  4.9152071835823086e-01  6.5978026191171957e-01  8.2970249125293860e-01  1.0000000000000628e+00  -1.6626473500588612e-13  -1.6494095996689312e-13  -1.6316580269158230e-13  1.8680934427563653e-01  8.6570714961453310e-01  8.5208424360635882e-01  8.6359953408068701e-01  1.0000000000000688e+00  1.0000000000000675e+00  1.0000000000000706e+00  -1.5590344260169796e-13  1.7325099385069995e-01  3.4164510515216395e-01  5.0849016933085778e-01  6.7450994034702516e-01  8.3976289391282233e-01  1.0000000000000777e+00  -1.6913183901488553e-13  1.4090488567203791e-01  2.9249546014072830e-01  4.5272067545612632e-01  6.2211636928892433e-01  8.0262771510277708e-01  1.0000000000000648e+00  -1.6220038105440357e-13  -1.6053566502357089e-13  -1.6032051265294578e-13  1.0616876777112376e-01  1.2198016924954930e-01  1.1474607502570118e-01  2.5892305635251223e-01  2.4727858074456363e-01  2.3600666682274382e-01  4.1018661535488665e-01  3.9572716490719889e-01  3.8220235943180952e-01  5.7835327252390678e-01  5.6284154304430145e-01  5.4626893891716100e-01  7.6966961563638181e-01  7.5674602170194971e-01  7.3623095910390479e-01  1.0000000000000719e+00  1.0000000000000735e+00  1.0000000000000735e+00  -1.5757938889313035e-13  1.7571076640755043e-01  3.4535470997392265e-01  5.1262470891962097e-01  6.7812049379618067e-01  8.4167836386015604e-01  1.0000000000000759e+00  2.9609512585396769e-01  4.5582492812877623e-01  -1.6011046924095136e-13  1.6771306078292747e-01  3.3673043594376462e-01  5.0424836173313725e-01  6.6975103577733985e-01  8.3361599383806095e-01  1.0000000000000735e+00  -1.6668580747182308e-13  -1.6568858383043845e-13  -1.6448093352773800e-13  1.9991569510514021e-01  1.8224771193088518e-01  2.0165237974914799e-01  3.8135963641890114e-01  3.6119224414689888e-01  3.8324602885186732e-01  5.5158520645533504e-01  5.3183871202319266e-01  5.5386759691787368e-01  7.1213379123196729e-01  6.9423952466497973e-01  7.1477875341213082e-01  8.6271091961222979e-01  8.4901716885643252e-01  8.6584984226917816e-01  1.0000000000000693e+00  1.0000000000000682e+00  1.0000000000000673e+00  -1.7264622792036390e-13  -1.7206662626356136e-13  -1.7023115016403746e-13  2.0043239263955914e-01  1.9929907973732905e-01  1.9461789719178865e-01  3.8244384776395129e-01  3.8247810086032985e-01  3.7734313523000212e-01  5.5314458173477465e-01  5.5341358865614942e-01  5.4820606992010801e-01  7.1369564842527611e-01  7.1362859256865552e-01  7.0818543256165567e-01  8.6415791974633993e-01  8.6344524992674576e-01  8.5822617107752619e-01  1.0000000000000637e+00  1.0000000000000620e+00  1.0000000000000613e+00  -1.5369150669908615e-13  1.7210895193312856e-01  1.6951889919852484e-01  3.4055384173484249e-01  -1.6231934986925264e-13  1.2528456165979823e-01  2.6410444386477056e-01  4.1623435490620009e-01  5.8511735806864229e-01  7.7633618319122566e-01  1.0000000000000717e+00  -1.6727998147021529e-13  -1.6805605699840533e-13  1.9902220076288574e-01  1.9142742212650596e-01  3.7060776459236650e-01  3.8048913319560412e-01  5.4092853008829034e-01  5.5112388411495439e-01  7.0312069921689024e-01  7.1207775391989636e-01  8.5711335512525455e-01  8.6331128401480617e-01  1.0000000000000666e+00  1.0000000000000659e+00  -1.7193690934838290e-13  1.5956691919969218e-01  3.2155642726170069e-01  4.8660562512487121e-01  6.5502000484512335e-01  8.2675646049460905e-01  1.0000000000000622e+00  -1.5984339519987999e-13  -1.5980353089785411e-13  1.3199879005712259e-01  1.1925094257613429e-01  2.5570822201052318e-01  2.7631733046871038e-01  4.0635049694553727e-01  4.3220018302861823e-01  5.7387954673266595e-01  6.0174838646995499e-01  7.6480313279550205e-01  7.8837432839908272e-01  1.0000000000000737e+00  1.0000000000000739e+00  -1.5435599279655082e-13  1.6283622093881592e-01  3.4166861490746697e-01  3.2674761027109467e-01  8.4052391439760632e-01  8.2694606297688433e-01  8.3784174047837501e-01  6.5810356256029012e-01  1.0000000000000799e+00  1.0000000000000815e+00  1.0000000000000793e+00  -1.5295754939450741e-13  1.7554386945814959e-01  -1.6967364381165031e-13  1.8615342537565147e-01  3.6669969006236175e-01  5.3748248110902841e-01  6.9897662528915272e-01  8.5181392375815712e-01  1.0000000000000644e+00  -1.7450786873527959e-13  2.0562343488318854e-01  3.8957884201385778e-01  5.6031642653842695e-01  7.1947760697939689e-01  8.6735402981287379e-01  1.0000000000000595e+00  -1.6184057638736563e-13  -1.5902387390260484e-13  -1.5994298638905517e-13  1.9065424507289352e-01  1.9149569278360168e-01  2.0322940896724212e-01  3.7056636574885260e-01  3.7046727550126318e-01  3.8420496612302363e-01  5.4058996166107753e-01  5.4050097057789015e-01  5.5440425733533349e-01  7.0174144239420988e-01  7.0244419117115686e-01  7.1543194700760859e-01  8.5486069496204864e-01  8.5615160211887198e-01  8.6684919826614482e-01  1.0000000000000737e+00  1.0000000000000746e+00  1.0000000000000719e+00  -1.6877035809611476e-13  1.9948916697896549e-01  3.8160639938747587e-01  5.5211637683620463e-01  7.1228619874415688e-01  8.6249129048247530e-01  1.0000000000000651e+00  -1.7056470291099470e-13  1.9141598350744149e-01  3.7364789534385745e-01  5.4452775188227409e-01  7.0493848977387896e-01  8.5591335085035225e-01  1.0000000000000633e+00  -1.6251537347645423e-13  1.8933357670652678e-01  2.0078388100179959e-01  3.6723455297595159e-01  3.6970138508056788e-01  3.8253244711500234e-01  5.3772701786185995e-01  5.3979654699410395e-01  5.5273704678845692e-01  6.9890477941755846e-01  7.0055809357970755e-01  7.1307072766732771e-01  8.5298653522443646e-01  1.0000000000000713e+00  5.6575558440028717e-01  5.7125847350052283e-01  5.5209040694633327e-01  3.9499742725379722e-01  7.2893575782621467e-01  7.2411731471873553e-01  7.1072000232393684e-01  8.7342685868680747e-01  8.7076608072749773e-01  8.5873019782397242e-01  1.0000000000000548e+00  1.0000000000000577e+00  1.0000000000000564e+00  -1.6115630125106017e-13  -1.6061122995776108e-13  1.9133591308837219e-01  1.9805876272030945e-01  3.7184992042729448e-01  3.7915497674743187e-01  5.4213388647573346e-01  -1.5857626634288501e-13  -1.5602311455315493e-13  1.8802239742026236e-01  1.8439423603627206e-01  3.6447679301874347e-01  3.6041663301439053e-01  5.3389759233129341e-01  -1.5549737683981648e-13  -1.5536477268048841e-13  1.7301210924058549e-01  1.7662953818706170e-01  3.4342722495079081e-01  -1.7657525611624951e-13  1.7460939486015228e-01  3.8827317244173076e-01  4.0032801347061248e-01  2.0981307945742456e-01  2.0275691140903912e-01  5.5954504861036858e-01  7.1831151627716316e-01  8.6548032137100095e-01  1.0000000000000571e+00  -1.6797473136667108e-13  1.9162881185067682e-01  8.5650793671956682e-01  7.0440937010025728e-01  1.0000000000000659e+00  1.9264153843232640e-01  3.7222916400145301e-01  5.4259850532778364e-01  7.0433283659495360e-01  8.5723726647855569e-01  1.0000000000000602e+00  1.0000000000000568e+00  1.0000000000000546e+00  8.6496587662720281e-01  -1.5991974502920982e-13  1.4445414900776957e-01  2.9665869783554194e-01  4.5686441579123938e-01  6.2634261610176878e-01  8.0693744850279170e-01  1.0000000000000737e+00  8.6264897391916240e-01  8.5820464335673952e-01  1.0000000000000544e+00  1.0000000000000568e+00  7.1527504172937406e-01  8.6380038041620699e-01  1.0000000000000571e+00  5.0736249502568687e-01  4.9160277332100993e-01  6.7314871239297702e-01  -1.6697310556271067e-13  1.8747709292441211e-01  3.6831904437555074e-01  3.7275886803485531e-01  5.3882369342149505e-01  5.4346270474318514e-01  6.9971027355944015e-01  8.5228286319987856e-01  1.0000000000000668e+00  -1.7506586823289561e-13  1.9761627288150929e-01  3.8153080636110431e-01  5.5252506182195404e-01  7.1191897168813212e-01  8.6077678288627868e-01  1.0000000000000591e+00  -1.7471453024250064e-13  1.6755419086540707e-01  3.3589316086693100e-01  5.0335222474088037e-01  6.6975824277857066e-01  8.3510676241634763e-01  1.0000000000000593e+00  -1.5859890924086591e-13  -1.5832776058750644e-13  1.3045428005227083e-01  1.2636103971487717e-01  2.7201015606155832e-01  2.6865008233040177e-01  4.2627906680445143e-01  4.2326990310335449e-01  5.9619225525530495e-01  5.9155389706576245e-01  7.8645444891575400e-01  7.7777841250743662e-01  1.0000000000000755e+00  1.0000000000000755e+00  7.0496036126826533e-01  8.5616679124481632e-01  1.0000000000000580e+00  -1.7710987893388941e-13  -1.7651061833059537e-13  1.8166458655404757e-01  -1.5572623188742246e-13  -1.5326505313871440e-13  -1.5562556046654174e-13  1.4915506621301938e-01  1.5298902559281502e-01  1.3839183911677067e-01  3.0376420591042058e-01  3.1028125013763291e-01  2.8775614492332519e-01  4.6473763231018422e-01  4.7236000915922366e-01  4.4618824196577223e-01  6.3344645593156179e-01  6.4033780688598763e-01  6.1490239013331371e-01  8.1152566672170301e-01  7.9650691965596776e-01  1.0000000000000782e+00  1.0000000000000782e+00  -1.6083201627539063e-13  1.8172780955078546e-01  3.5978032869347915e-01  5.2983881395764054e-01  6.9228081239370332e-01  6.9700991256031930e-01  8.4777519004695046e