<?xml version="1.0"?>
<VTKFile type="UnstructuredGrid"  version="0.1"  >
<UnstructuredGrid>
<Piece  NumberOfPoints="954" NumberOfCells="4057">
<Points>
<DataArray  type="Float64"  NumberOfComponents="3"  format="ascii">7.632856450548441 1.760811300761715 1.222590031346605  7.521914807488933 1.743486294555148 1.227971490240614  7.592825639395671 1.839040631407414 1.173086843561535  7.598097963276611 1.807714516921841 1.117446607790699  7.521581533607165 1.706151084868306 1.174838250531894  7.638520172098516 1.727387453391457 1.167547185323881  7.60334205708584 1.776167188127122 1.061658841556841  7.521028494840163 1.668602094109703 1.121631693086387  7.644147244532736 1.693714111286037 1.11239771818749  7.60857249621359 1.744534873525738 1.005734562115162  7.520415214065998 1.63095667681793 1.068336397332083  7.649759420874334 1.659957811951161 1.05713556009956  7.613798681672336 1.712899549786171 0.9496682641267675  7.519831619537139 1.59328964959122 1.014942182085192  7.655365129714078 1.626203956059272 1.001740511105749  7.619070439087767 1.681278148094266 0.8934442334316332  7.519352835508276 1.555628267869692 0.9614332535802456  7.661002916036892 1.592476613743852 0.9461955495433535  7.624393526737684 1.649646041874887 0.8370570859679677  7.519019858611442 1.517976982750804 0.907796377327169  7.666681897620948 1.558764533492915 0.8904496325765822  8.305618931698151 2.437596726836075 1.136657103369128  8.210760883467648 2.376532609860462 1.123834859305424  8.245503399695226 2.509216825462968 1.078048599523687  8.265887319538253 2.485063386867563 1.027707646523515  8.231995623221341 2.354360038078393 1.074157730992279  8.326123310864117 2.414487322975192 1.087466876181903  8.346943641936415 2.391334013418923 1.038511361230087  8.25357913382863 2.33217968003205 1.024691101751453  8.286561723710847 2.46088001826117 0.9775931213226514  8.367909066074732 2.368195192328478 0.9897336669876637  8.275321918472695 2.310023939304246 0.9753578403807358  8.307374470301577 2.436707757164487 0.9276189890802244  8.388868600134094 2.345105814910148 0.9410618466260517  8.29705729271126 2.287909844346782 0.926084461623786  8.328181595813639 2.412573907803214 0.8777236645934708  8.409640278283465 2.322094666690491 0.8924143335925451  8.31859437079555 2.265834881063811 0.8767928954715665  8.348827014309174 2.38849829605071 0.8278331544687185  8.429927369203199 2.299126908727474 0.8436902597669693  8.339665234843554 2.243714226719836 0.8273842286329044  8.369075514718832 2.364445447135188 0.7778836751048661  7.476359307639264 1.85181585383079 1.153312459322791  7.476356730643728 1.82007763823753 1.097283870065856  7.476147369548733 1.788146305151656 1.041144941496576  7.475881832168769 1.756154599957035 0.9849373327166981  7.475659927350972 1.724149334745592 0.9286181299206919  7.475562102002895 1.692157535251241 0.8721456145327247  7.475593939674503 1.660162987283842 0.8154942206927209  8.123911585525306 1.87816676617412 1.303442640614055  8.150126066475904 1.796513122903549 1.359444451037346  8.045334439157614 1.772608939384607 1.330546777305777  8.065998367639983 1.74053567769721 1.281468532499042  8.172461213226619 1.766701082985099 1.31055482398261  8.146208614351149 1.852174817350505 1.253392516292794  8.168976577771245 1.826219387498128 1.203512229567763  8.195251652549972 1.736961790295053 1.261833260656557  8.087078922816859 1.708447012705029 1.232476021819288  8.191927852891995 1.800292476011616 1.153694158562694  8.218200712564613 1.707258654785851 1.213172578298024  8.10830249324675 1.676351073039542 1.183493045128693  8.214837794739724 1.77437633027866 1.103867046364116  8.241092622643544 1.677562443071595 1.164506842974181  8.129483229298184 1.644239161101818 1.134463720597305  8.237502537230304 1.748441222430595 1.053957543271778  8.263735675148762 1.647843859276683 1.115767720236344  8.150480439204902 1.612095672636041 1.085329405160609  8.259722339917534 1.722453001902267 1.003844018526849  8.285941987834033 1.61805616245787 1.066859795158353  8.171193293710525 1.579894253044718 1.036015003006528  8.134033103556552 2.472916088419065 1.048689527897003  8.155020676193143 2.449742987836728 0.997560486013961  8.176319630293458 2.426567572779487 0.9465924480265687  8.197761537437239 2.403410809631511 0.8957139500780704  8.219200967709458 2.380281987425977 0.8448654613600289  8.240480681730372 2.357166542598667 0.7939900454746847  8.261401364276262 2.333977218367616 0.7430391667422799  8.015431768323159 1.878715263999673 1.257673603897971  8.036114937528902 1.852270444445603 1.206377632847339  8.057248081882149 1.82580908007793 1.155170615909408  8.078538577614413 1.799342711403845 1.103969486286376  8.099786830161184 1.772870712021912 1.052715124765182  8.120828433477826 1.746375176035588 1.00134312995669  8.141543447289239 1.719835694641916 0.949773298970738  7.573683407230686 1.930914131683129 1.124837920521305  7.578822283671053 1.903918958192312 1.067678735460079  7.58390983009172 1.876772642627375 1.010346865643891  7.588982140591015 1.849545990394727 0.9528642383563317  7.594062164675286 1.822307317789062 0.8952403945726124  7.599193754906136 1.795055700045055 0.8374595926993131  7.604376650963666 1.767790218675168 0.7795105445516183  7.791810683480469 2.455633156735022 0.9357794172773297  7.763415218837585 2.360539852025566 0.9689824047414825  7.649167272342809 2.401352040697841 0.9258245031846253  7.660466316685352 2.377906629964961 0.8678557877103177  7.778127483448012 2.336741846726024 0.9133150219925097  7.807067973626362 2.433202385520922 0.8789807367162445  7.671834633537833 2.354560575907408 0.8096823527687232  7.793030876773267 2.313016370776336 0.8574945169393816  7.822493180636093 2.41086324509821 0.8220647573990675  7.683246118444786 2.331205142721842 0.7513865001498393  7.808012057184181 2.289277595584179 0.8015773137155549  7.837987793051381 2.388508517258253 0.7650721589891575  7.694661868934222 2.307742440012249 0.6930060031365229  7.822984194293552 2.265451317344752 0.7455811873498956  7.853473807298528 2.366064903672807 0.7080202393201822  7.706084265318697 2.284103787651047 0.6345578542319497  7.837892216497607 2.241480281635605 0.6894983886875171  7.868909101270495 2.343480239800865 0.6509071630953946  7.717538561033838 2.260237422774019 0.5760531033462037  7.852760802273172 2.217271699696043 0.6333289178796019  7.884302008741065 2.320686796799289 0.5937216827035011  8.698288937933471 1.575558967047648 1.73512157806629  8.766631400483035 1.637067907472023 1.664894461659077  8.65473328507302 1.660831013468795 1.609796754147653  8.752879612485351 1.682959803461145 1.700281860557841  8.780477673391578 1.591458368555262 1.629480699635779  7.458763178634019 1.955412422415264 1.105927801190667  7.459358907573159 1.928289164958855 1.048697146139642  7.459744885593843 1.90100012247221 0.9913005660968363  7.460069897607793 1.873642858537809 0.933793905247373  7.460436770251304 1.846250167407982 0.8761770308657798  7.460916479809441 1.818863122190676 0.8184118060401904  7.461533094774884 1.791492248776516 0.7604377451040132  7.723011050247581 2.426403679444539 0.6500519189869269  7.73519238985786 2.404475904619869 0.5902816623442636  7.747396635260458 2.382324097726066 0.5304843280059914  7.837305935212329 2.468312272090426 0.6617814640995107  7.85206972186723 2.447272234261938 0.6027842639753866  7.866807248951844 2.426035738732293 0.5437620026606503  8.656877247734389 2.642353599509046 1.135778512343985  8.551643646470774 2.607757546043326 1.134708912795387  8.622366310451055 2.725292676421732 1.076156905911098  8.632324920862798 2.693490284586971 1.02452570283136  8.564664314789425 2.578651407838798 1.085362442204406  8.666196257331361 2.610794300516967 1.086712692723889  8.642388404522517 2.661548463704356 0.9731824355556683  8.577848492892812 2.549435016470689 1.036273601666172  8.675630437429103 2.579111451691129 1.037909547856906  8.652490720282376 2.629560775446691 0.922044913174605  8.591105048705362 2.520187888471965 0.9874087408556567  8.685109170399459 2.547391256269032 0.9893241945219544  8.662575614630336 2.597616376625835 0.8710510496532267  8.604356246146518 2.490989852481631 0.938701091492484  8.595598407681374 1.382675581219463 1.41529309389566  8.643538787087591 1.496001153367279 1.328155088106125  8.530897615744875 1.419880368020604 1.346690594635085  8.626763794228305 1.533824276112732 1.3706981845585  8.207328849189709 2.59590427500849 1.022262965121642  8.227352141393345 2.571457295385828 0.9699949474416264  8.247642617758144 2.546969195752479 0.9178984536832218  8.268055223925131 2.522479817531377 0.8659187985671136  8.288467134397896 2.498014486878652 0.8140028432842722  8.30875665399866 2.473592154891935 0.7620929600535313  8.328738569362562 2.449178395522789 0.7101475300874209  7.928112293015106 1.793367671968055 1.270065571631445  7.946656529599596 1.762227116959582 1.218746944584642  7.965581168223803 1.731012826517156 1.16745225382285  7.984618123629766 1.699765189970908 1.11611714717432  8.003606594955491 1.668498318958701 1.064698505572466  8.022437211294838 1.63722120120918 1.013148665821605  8.041032446428403 1.60592935380067 0.961420855664283  8.659675026387971 2.55925861245671 1.188908486142513  8.670047858566569 2.53046165206439 1.140530548032213  8.68054967697238 2.501560273210545 1.092422376997082  8.691114312527773 2.4726330004506 1.044549532392621  8.701668686670438 2.443759624187404 0.9968604765367659  8.540293082437406 1.723475914761895 1.584821494533692  8.416996527306404 1.66770500187174 1.59008581357821  8.43343928058383 1.753383099845516 1.519844603302814  8.45280273368302 1.718749179587688 1.474510517242627  8.435801780409346 1.626139567422804 1.54937999286542  8.557418549314114 1.685237155451171 1.541808836514777  8.472496424399182 1.68434299551371 1.42931140332363  8.454915380750698 1.58480019824834 1.508743102896494  8.57477767295696 1.6472381176803 1.49888454987289  8.492329165293851 1.650064741339319 1.384219757739023  8.474154335045254 1.543569489
[...]
<PointData  Vectors="f_24"> 
<DataArray  type="Float64"  Name="f_24"  NumberOfComponents="3" format="ascii">-1.1007362517508442e-02 -7.1134846049813502e-02 -7.0782985182585544e-03  -1.0550504288628424e-02 -7.1133751471367107e-02 -5.1295769084890933e-03  -1.0659216776545218e-02 -6.8876547530311916e-02 -6.9159522933896619e-03  -1.1893630239780129e-02 -6.7776955385490334e-02 -6.6017719331819252e-03  -1.1439822861305227e-02 -6.9921367181098718e-02 -4.5609136637865767e-03  -1.2250329260272518e-02 -7.0150753149988795e-02 -6.4843687757558353e-03  -1.3137950174128592e-02 -6.6368419124615968e-02 -6.5010083460357235e-03  -1.2389783495943321e-02 -6.8525337677550160e-02 -4.3513406017904582e-03  -1.3496357905528424e-02 -6.8861485466575431e-02 -6.3088409199319019e-03  -1.4385527058218193e-02 -6.4843986082792598e-02 -6.4916527276507917e-03  -1.3353196260118246e-02 -6.7116599177296690e-02 -4.3234448754203491e-03  -1.4739970094691813e-02 -6.7523345494732448e-02 -6.3152862820910751e-03  -1.5628100811876100e-02 -6.3361100792556302e-02 -6.4833735534372602e-03  -1.4308577360712886e-02 -6.5798098241479433e-02 -4.3688151782321199e-03  -1.5976964320020149e-02 -6.6269850943770442e-02 -6.3757261693903142e-03  -1.6857982272096197e-02 -6.2054008473471131e-02 -6.4103320245354105e-03  -1.5243511190307988e-02 -6.4651681144580475e-02 -4.4224613759550613e-03  -1.7202099340455509e-02 -6.5215100039216767e-02 -6.4072656298887250e-03  -1.8065844557464992e-02 -6.1033988441400469e-02 -6.2360005985703402e-03  -1.6151271120723669e-02 -6.3746080705749386e-02 -4.4302212921786240e-03  -1.8401872921693214e-02 -6.4474052206320617e-02 -6.3236187221538311e-03  -9.2384718674677884e-03 -7.4909908263787975e-02 -1.3597048728766045e-02  -8.9977042687080528e-03 -7.2963991494693528e-02 -1.3101863041291763e-02  -1.0389831381378027e-02 -6.9562451574751369e-02 -5.4629501353635349e-03  -1.2730053948530388e-02 -6.5613671778265298e-02 -7.9923844665840786e-03  -1.1220008679177499e-02 -7.0174760021129573e-02 -1.5341837475776401e-02  -1.1477472225115240e-02 -7.1760810280321191e-02 -1.6097315695390833e-02  -1.3735687268525153e-02 -6.8695230027092449e-02 -1.8186403052011673e-02  -1.3451740240819667e-02 -6.7403685708441255e-02 -1.7178561702670438e-02  -1.5044066352290114e-02 -6.1900681862737686e-02 -1.0145764450344964e-02  -1.6042794301134908e-02 -6.5609286174315343e-02 -1.9952105755403366e-02  -1.5735827068793576e-02 -6.4586932771860409e-02 -1.8703557928902079e-02  -1.7377672516183825e-02 -5.8254955717794286e-02 -1.2025457879362116e-02  -1.8450789286078191e-02 -6.2383142716914669e-02 -2.1463018072873274e-02  -1.8132179950176665e-02 -6.1640201837379227e-02 -1.9973022853879942e-02  -1.9786538546215024e-02 -5.4491192003505204e-02 -1.3725766439436829e-02  -2.1034228121646618e-02 -5.8866566632926630e-02 -2.2748224053375253e-02  -2.0722999749580025e-02 -5.8462827892011869e-02 -2.1006677314096420e-02  -2.2337003023159753e-02 -5.0400460076612294e-02 -1.5311199282212850e-02  -2.3889380490298814e-02 -5.4878805386790963e-02 -2.3795689367693659e-02  -2.3620743501693083e-02 -5.4943357928015177e-02 -2.1797186692487931e-02  -2.5108737947558361e-02 -4.5740138955183626e-02 -1.6810066216343979e-02  -1.0267815101697450e-02 -6.7815025074383944e-02 -4.9784226555718058e-03  -1.1236323268190523e-02 -6.6433447057481970e-02 -4.7632495910703114e-03  -1.2219255392537041e-02 -6.4789638038712807e-02 -4.7025293694017700e-03  -1.3212823451235624e-02 -6.3043775531318180e-02 -4.6963274892387295e-03  -1.4197995951371920e-02 -6.1336658065374194e-02 -4.6617698020052518e-03  -1.5157910476552926e-02 -5.9794748874796258e-02 -4.5450035829445500e-03  -1.6076857018014899e-02 -5.8554628674891078e-02 -4.3913863297847869e-03  -1.0644543666253798e-02 -7.8241566126508427e-02 -1.9032975051500946e-02  -1.1372505446062324e-02 -8.0399399026689994e-02 -1.7694611180328133e-02  -1.1502044832595855e-02 -7.8286828324415497e-02 -1.4932314499216313e-02  -1.3499330836617496e-02 -7.8230995348407079e-02 -1.4419685737442041e-02  -1.3419738153043282e-02 -8.0626399469386781e-02 -1.7248925878562617e-02  -1.2659589611074213e-02 -7.8527480655571039e-02 -1.8954548881069525e-02  -1.4615098763910603e-02 -7.8403314151383144e-02 -1.9059272407793777e-02  -1.5338533419848345e-02 -8.0564792674671190e-02 -1.7140017497971848e-02  -1.5363833513353681e-02 -7.7923897494731234e-02 -1.4277589862046376e-02  -1.6551111769343707e-02 -7.8122851039639479e-02 -1.9199784996500612e-02  -1.7199452080020813e-02 -8.0427838202420429e-02 -1.7161283836556095e-02  -1.7156137187112799e-02 -7.7564497011164774e-02 -1.4301212461530346e-02  -1.8498651015500123e-02 -7.7878725057394682e-02 -1.9286866887413944e-02  -1.9035590990435058e-02 -8.0381870706803651e-02 -1.7194676197802902e-02  -1.8918123743571460e-02 -7.7303402856205169e-02 -1.4369762936582733e-02  -2.0484896791316629e-02 -7.7836116456124260e-02 -1.9249880678150366e-02  -2.0869899650910833e-02 -8.0558565907991347e-02 -1.7160252922111891e-02  -2.0673846720898698e-02 -7.7256053809334230e-02 -1.4410576025987049e-02  -2.2526670101489232e-02 -7.8139401987231419e-02 -1.9030671495525255e-02  -2.2702175647288436e-02 -8.1069764017015628e-02 -1.7020833943203216e-02  -2.2439475389189965e-02 -7.7517073970969394e-02 -1.4388320018360096e-02  -1.0388715067438442e-02 -6.6425237416455840e-02 -3.0525036210955025e-03  -1.2707604871059121e-02 -6.2580137670666405e-02 -5.3337402315969274e-03  -1.4994761363786933e-02 -5.8959760811113031e-02 -7.2477318261804057e-03  -1.7297955380057121e-02 -5.5400324815134877e-02 -8.9101815748428362e-03  -1.9675803173631049e-02 -5.1735082714952474e-02 -1.0406704920851358e-02  -2.2198132977193339e-02 -4.7783903701947211e-02 -1.1794111839482533e-02  -2.4942978257078790e-02 -4.3339543658759215e-02 -1.3121169740458825e-02  -1.0718315435659856e-02 -7.5390828783293520e-02 -1.6325037572778377e-02  -1.2712329666138248e-02 -7.5360275369262986e-02 -1.6305145694803388e-02  -1.4632235491220032e-02 -7.4940330799978264e-02 -1.6421464922474885e-02  -1.6528700127940991e-02 -7.4367475294907934e-02 -1.6572511348751331e-02  -1.8438790227535629e-02 -7.3827570950505725e-02 -1.6677569003059438e-02  -2.0389237987823796e-02 -7.3472856458090083e-02 -1.6675555184172675e-02  -2.2396699751277518e-02 -7.3429790862890351e-02 -1.6522598305739107e-02  -1.0280747440685460e-02 -6.6636111316578706e-02 -6.2555821835195615e-03  -1.1603717006842085e-02 -6.5253160585211592e-02 -6.2633864725326121e-03  -1.2906524257814838e-02 -6.3501705214285997e-02 -6.3216486813711522e-03  -1.4208047822725408e-02 -6.1589983838818009e-02 -6.3855230393973653e-03  -1.5514090083841950e-02 -5.9664144487359259e-02 -6.3911445349916739e-03  -1.6827026489300768e-02 -5.7854668345442936e-02 -6.2729009235908814e-03  -1.8143624103045132e-02 -5.6322623058799912e-02 -5.9538872692151959e-03  -1.1392861962704465e-02 -5.5068670638888907e-02 1.0016902856380011e-02  -1.0571805674932254e-02 -5.8404727747703666e-02 4.5349166826251239e-03  -1.0994054977471298e-02 -5.4118609353907943e-02 1.0993648170313385e-02  -1.2915665095482426e-02 -4.9840780491168274e-02 9.8397587248767304e-03  -1.2649328616010213e-02 -5.4645442937428845e-02 3.0920574580679998e-03  -1.3574021459292512e-02 -5.0678625384096572e-02 8.6444186885521034e-03  -1.4739767851804616e-02 -4.5837081074694697e-02 8.9022945707571965e-03  -1.4636419265757114e-02 -5.1070025782957579e-02 1.9420127733409407e-03  -1.5637288148604989e-02 -4.6592259409929206e-02 7.5068389381793771e-03  -1.6518801935202995e-02 -4.1941424419586301e-02 8.0715591520881501e-03  -1.6595234468944498e-02 -4.7555873990750799e-02 9.6973195245511146e-04  -1.7656092362914495e-02 -4.2622183548920729e-02 6.4866321943127976e-03  -1.8304048480430483e-02 -3.8006536615008801e-02 7.2743628631674823e-03  -1.8584875201596233e-02 -4.3984593807132592e-02 1.0218806743224515e-04  -1.9689552575824380e-02 -3.8599512144097653e-02 5.5022144946374717e-03  -2.0140994022021370e-02 -3.3892363403627050e-02 6.4553483395916244e-03  -2.0664662136949723e-02 -4.0226718056797069e-02 -7.1053439327900861e-04  -2.1792953730769556e-02 -3.4363115838856331e-02 4.4891563533902487e-03  -2.2068482312074381e-02 -2.9475812661632576e-02 5.5663391778605796e-03  -2.2899191196101121e-02 -3.6137012772218161e-02 -1.5310542652177579e-03  -2.4011915070625549e-02 -2.9767685104069876e-02 3.3670251722149611e-03  -1.5359632801963886e-02 -9.6431490861297015e-02 -1.5677117090438116e-02  -1.6106979531847272e-02 -9.5839341930726712e-02 -2.0067011655690938e-02  -1.5249813936317674e-02 -9.3721819693936642e-02 -2.0072561304780277e-02  -1.4465534362180253e-02 -9.6544907827438825e-02 -2.1279260813377651e-02  -1.7598476602371647e-02 -9.5471589222601502e-02 -1.9223447952829809e-02  -9.9346034995210115e-03 -6.5416276673747373e-02 -3.8726554443198938e-03  -1.0977390700562875e-02 -6.3730960525677297e-02 -3.9599714769538580e-03  -1.2028655253800194e-02 -6.1708268373787886e-02 -4.0726607797565923e-03  -1.3076532140173543e-02 -5.9536792560844098e-02 -4.1694603216387302e-03  -1.4116893178896960e-02 -5.7342028728798337e-02 -4.1974315169603761e-03  -1.5141392271678445e-02 -5.5245560956517628e-02 -4.0905993021789020e-03  -1.6136353137338817e-02 -5.3408595928856509e-02 -3.7566598620645091e-03  -1.9497268199030575e-02 -3.1797069002930507e-02 1.4704101731273993e-02  -2.1343344052527226e-02 -2.7332048330944884e-02 1.3695675707920543e-02  -2.3253398643642145e-02 -2.2506743294656212e-02 1.2533078582619336e-02  -2.0607508236953381e-02 -3.2119301918269248e-02 1.3818440951555933e-02  -2.2605189599655857e-02 -2.7563993955875905e-02 1.2702009637275420e-02  -2.4660747756183043e-02 -2.2635804393263136e-02 1.1421604733392881e-02  -1.3039989425169042e-02 -7.8206173136503382e-02 -1.2887785367923472e-02  -1.1730732394921072e-02 -7.7127381201143166e-02 -1.1424888776130572e-02  -1.4793092651395721e-02 -7.0950838651520257e-02 -3.0338851522766562e-03  -1.7302287832728490e-02 -6.5349081784043486e-02 -6.0721053919900111e-03  -1.4118433472906306e-02 -7.2636078640472682e-02 -1.4515355605295956e-02  -1.5448468426986453e-02 -7.3483486945567139e-02 -1.6127149028218810e-02  -1.9723033298518679e-02 -6.0265430162649333e-02 -8.7570026022149808e-03  -1.6464350945408074e-02 -6.8459378010789024e-02 -1.7155710341425955e-02  -1.7780001035596973e-02 -6.9111306584028323e-02 -1.8906063961335231e-02  -2.2107584182277207e-02 -5.5388313279473259e-02 -1.1247651711411247e-02  -1.8804345520171722e-02 -6.4385877646501707e-02 -1.9480864058582577e-02  -2.0090090862152275e-02 -6.4852138616810384e-02 -2.1368637141716093e-02  -2.4503447730693996e-02 -5.0400282090550051e-02 -1.3688435435767180e-02  -2.1188207395200762e-02 -6.0176133075791047e-02 -2.1602739570726653e-02  -2.2114547300906950e-02 -9.1561097899218166e-02 -1.4487989578737965e-02  -2.2918088969596576e-02 -9.3177021153697040e-02 -1.7720226580595584e-02  -2.2330847102903940e-02 -9.0047682190272579e-02 -1.4704922843814238e-02  -2.1427528672668426e-02 -9.2311970104712648e-02 -1.8166698876808544e-02  -1.1933034215771628e-02 -6.3585945946665889e-02 3.5306809866810103e-03  -1.4386750177744620e-02 -5.8819376181077333e-02 1.1710078360130567e-03  -1.6761043108494390e-02 -5.4457895694601362e-02 -8.9511048974835760e-04  -1.9121259754540904e-02 -5.0251225947779386e-02 -2.7781750688708278e-03  -2.1519398955307065e-02 -4.5957653618068445e-02 -4.5876564817279612e-03  -2.4005447741605072e-02 -4.1329329377102611e-02 -6.4107634775973114e-03  -2.6624637115988403e-02 -3.6090591542674251e-02 -8.3470291144647005e-03  -1.1413381100897230e-02 -7.5029771692727967e-02 -1.2995509091232798e-02  -1.3301360292546948e-02 -7.4733664180621731e-02 -1.2585907984020425e-02  -1.5087344861797256e-02 -7.4159052654518151e-02 -1.2520262777610985e-02  -1.6824473318091993e-02 -7.3505739274064757e-02 -1.2590410870178403e-02  -1.8545870549868254e-02 -7.2933808011426210e-02 -1.2684218455137539e-02  -2.0267044615085723e-02 -7.2569788749720157e-02 -1.2732556271449390e-02  -2.1989406341285947e-02 -7.2520059810391460e-02 -1.2715193299986684e-02  -1.1364331914574703e-02 -8.3215441086863726e-02 -2.0676341463734985e-02  -1.3697232512899143e-02 -7.9363784237877669e-02 -2.3713219307466244e-02  -1.5979717089259785e-02 -7.5678142573093091e-02 -2.6263940680745636e-02  -1.8254744443862329e-02 -7.2012164588915809e-02 -2.8437042812900815e-02  -2.0571862495712693e-02 -6.8172833839049901e-02 -3.0325005713912587e-02  -1.2947776878576935e-02 -9.1314895216036196e-02 -2.1489845682511766e-02  -1.2670172277176709e-02 -9.0164596980278844e-02 -1.6838943522845699e-02  -1.2181765713752239e-02 -8.8347668984323835e-02 -2.1330859060614035e-02  -1.4164556220598968e-02 -8.8665290373783442e-02 -2.0349948181366862e-02  -1.4580822720796851e-02 -8.9755689570280642e-02 -1.5828949153344950e-02  -1.4833465036289031e-02 -9.1372674075468049e-02 -2.0274705337219593e-02  -1.6025562594100623e-02 -8.8829628754437451e-02 -1.9761676978149009e-02  -1.6314930748946823e-02 -8.9417646224265415e-02 -1.5280865314457463e-02  -1.6601620144711511e-02 -9.1390927531717875e-02 -1.9506469779845249e-02  -1.7799408556083019e-02 -8.8998909393802519e-02 -1.9387690529290222e-02  -1.7937560154146350e-02 -8.9226062727111879e-02 -1.5009422514175296e-02  -1.8276647682791063e-02 -9.1493241650888998e-02 -1.8984894488897074e-02  -1.9515793808583405e-02 -8.9306060014026800e-02 -1.9086770766656897e-02  -1.9473887322277186e-02 -8.9237862558136496e-02 -1.4873287053296073e-02  -1.9881783928845268e-02 -9.1773327191524048e-02 -1.8568879540810500e-02  -2.1188183542043458e-02 -8.9859389154312991e-02 -1.8763832138020832e-02  -2.0936725716475452e-02 -8.9497896961640899e-02 -1.4787323355511204e-02  -2.2815862083056263e-02 -9.0746527468120980e-02 -1.8363749361956526e-02  -1.0299434789305839e-02 -5.9024408420009021e-02 3.0275324043912083e-03  -1.2210310238118628e-02 -5.5603022597585733e-02 1.7966417829025393e-03  -1.4036025298066492e-02 -5.2271004728708215e-02 8.3745093727098804e-04  -1.5836047845422908e-02 -4.8960985922871431e-02 5.6537558462437059e-05  -1.7662553653831820e-02 -4.5593728988411505e-02 -6.0578503491783378e-04  -1.9569491660639697e-02 -4.2075483033733894e-02 -1.1843268687102930e-03  -2.1613691272386271e-02 -3.8299802960448368e-02 -1.7158287160125938e-03  -1.1708280794732689e-02 -8.5881860732814189e-02 -2.1290230776823509e-02  -1.2258295586096290e-02 -8.6942530839093424e-02 -1.6842521734695987e-02  -1.1641228204346529e-02 -8.3370725202400145e-02 -1.8821906979273335e-02  -1.3702045652270773e-02 -8.3684803579524472e-02 -1.8180287315529450e-02  -1.4281898469101559e-02 -8.6800366448873498e-02 -1.5937555739357203e-02  -1.3738604517910195e-02 -8.6372303876338541e-02 -2.0544166518799659e-02  -1.5616162316775730e-02 -8.3761146283416535e-02 -1.7897413922697766e-02  -1.6120721664986438e-02 -8.6631106740410913e-02 -1.5510198251425513e-02  -1.5650445480071801e-02 -8.6611286746829455e-02 -2.0163454079363891e-02  -1.7455769039360060e-02 -8.3794361276929255e-02 -1.7777378505200551e-02  -1.7843297438031432e-02 -8.6551153775424661e-02 -1.5323290265819675e-02  -1.7489569558648478e-02 -8.6815014129886389e-02 -1.9948224928504916e-02  -1.9252994135393688e-02 -8.3937147400637249e-02 -1.7695546170254494e-02  -1.9487884340676252e-02 -8.6644935872175768e-02 -1.5243408191990666e-02  -1.9285629862361271e-02 -8.7132885213272962e-02 -1.9766848727127088e-02  -2.1026580799200559e-02 -8.4314013070991845e-02 -1.7569930202496087e-02  -2.1071931380511246e-02 -8.6978152411083087e-02 -1.5186914629927214e-02  -2.1051750233573977e-02 -8.7689669734776168e-02 -1.9527557404410052e-02  -2.2790821517191043e-02 -8.5029341812789094e-02 -1.7365677887261340e-02  -2.2594457318916229e-02 -8.7603655458534699e-02 -1.5099967994370926e-02  -2.2790632868743270e-02 -8.8584403376185381e-02 -1.9178238671800601e-02  -1.3703451820587558e-02 -6.9367696307586046e-02 -6.4684344440871374e-04  -1.6182032377865887e-02 -6.3967053432563828e-02 -3.6054083212144110e-03  -1.8599329193137549e-02 -5.9089886065680088e-02 -6.2258287061438119e-03  -2.0995031616261619e-02 -5.4427905333354377e-02 -8.6591344702985785e-03  -2.3412624564596928e-02 -4.9672680808485206e-02 -1.1031967149812725e-02  -2.5884730311968675e-02 -4.4506552950646483e-02 -1.3480194095692186e-02  -1.1991539210625695e-02 -6.0207144063807672e-02 6.3164588671833005e-03  -1.4409189798158046e-02 -5.5482133439761716e-02 4.3116183708780675e-03  -1.6749821328946507e-02 -5.1152878009081713e-02 2.5603830986013769e-03  -1.9062803703606447e-02 -4.6972531009205495e-02 9.5889591090630652e-04  -2.1404337703808361e-02 -4.2714290444009907e-02 -5.9081536015590257e-04  -2.3827055243240847e-02 -3.8157156978161223e-02 -2.1713400871984792e-03  -2.6379004593891666e-02 -3.3072992957664055e-02 -3.8657562361786670e-03  -1.0044717279248362e-02 -8.2481189178285882e-02 -2.1028151618934038e-02  -1.2336442271581661e-02 -7.9079091000847909e-02 -2.3803915748268036e-02  -1.4607017164265570e-02 -7.5772215346472646e-02 -2.6113297240485202e-02  -1.6895302808726823e-02 -7.2432346835273304e-02 -2.8056657819418036e-02  -1.9251786223142098e-02 -6.8911382696715484e-02 -2.9701379561861755e-02  -2.1736829778627283e-02 -6.5008885670275379e-02 -3.1084851366602717e-02  -2.2723370164759126e-02 -9.4802514869370511e-02 -1.7385649161344663e-02  -2.1373656033054789e-02 -9.4069662717242208e-02 -1.7778252107581209e-02  -2.6727755147168516e-02 -3.9672130364785944e-02 -1.4744749670024854e-03  -2.9160791268440549e-02 -3.3997532338642104e-02 -4.1753765477721451e-03  -1.5883222474711457e-02 -8.3655694567118799e-02 -1.3432420016766556e-02  -1.7593127061183905e-02 -8.3402871226805425e-02 -1.3375330932448717e-02  -1.9226705942516294e-02 -8.3323514752505795e-02 -1.3433874058325275e-02  -2.0803701203113648e-02 -8.3477604788178075e-02 -1.3519371648406919e-02  -2.2338336426877752e-02 -8.3918682402818939e-02 -1.3576112599779984e-02  -1.2031548450863983e-02 -5.2985128500858611e-02 5.9191052430161255e-03  -1.3653968766268417e-02 -4.9418938501214364e-02 5.0313275310856324e-03  -1.5241211560163300e-02 -4.5913159475177434e-02 4.2880928980727961e-03  -1.6837886081166396e-02 -4.2364555406372309e-02 3.6279658828527539e-03  -1.8489426541291473e-02 -3.8665082334466937e-02 3.0091772229239523e-03  -2.0247902977766019e-02 -3.4674515787688397e-02 2.4062458875641762e-03  -1.1956756897251827e-02 -8.1180033279493108e-02 -7.1804340182451834e-03  -1.1734946547335159e-02 -7.8061211915978979e-02 -7.0448217314031123e-03  -1.1886462097200382e-02 -7.7796620249800275e-02 -1.0613533288085697e-02  -1.3689378893002768e-02 -7.7139950249468500e-02 -9.9817433460332346e-03  -1.5729717547331455e-02 -8.0897583890137431e-02 -1.3519239432696166e-02  -1.3890758739567147e-02 -8.1171862611939496e-02 -1.3765657496689941e-02  -1.7473647091722593e-02 -8.0650994350009345e-02 -1.3496490394184036e-02  -1.9160973260143280e-02 -8.0544076003029014e-02 -1.3562273182694956e-02  -2.0808836824519679e-02 -8.0658567791357008e-02 -1.3638536873847768e-02  -2.2423874855700646e-02 -8.1052348549364273e-02 -1.3698888437251632e-02  -1.1558438122235379e-02 -9.3657865731943582e-02 -4.1269725236784210e-02  -1.0153992195618427e-02 -9.1274016138326849e-02 -3.8840980168389827e-02  -1.0448346173290926e-02 -9.3257044194105576e-02 -4.2390514641826006e-02  -1.2360857188354845e-02 -9.3546677172622508e-02 -4.3239527066557787e-02  -1.2070129842876176e-02 -9.1985983162116591e-02 -3.9263123801926161e-02  -1.3975212073512724e-02 -9.2201053797832097e-02 -3.9536340598979779e-02  -1.5177355107843340e-02 -9.5210761086516243e-02 -4.1116277880050150e-02  -1.4247607058730715e-02 -9.3367943217666186e-02 -4.3823911026953766e-02  -1.3381436660277064e-02 -9.4709267811389580e-02 -4.1225978544129141e-02  -1.6146368760993922e-02 -9.2890928345758544e-02 -4.4119944448576670e-02  -1.5895887310003042e-02 -9.2144076928526664e-02 -3.9605809504624716e-02  -1.6974717773128659e-02 -9.5435128832170021e-02 -4.0862417801538826e-02  -1.8093463812170887e-02 -9.2279738824553689e-02 -4.4071889795666688e-02  -1.7862787420662954e-02 -9.2014123002342574e-02 -3.9402178727810835e-02  -1.8798802086408332e-02 -9.5610379158155359e-02 -4.0371807794640613e-02  -2.0129834297921933e-02 -9.1710680580091006e-02 -4.3584701263172890e-02  -1.9