<?xml version="1.0"?>
<VTKFile type="UnstructuredGrid"  version="0.1"  >
<UnstructuredGrid>
<Piece  NumberOfPoints="960" NumberOfCells="4104">
<Points>
<DataArray  type="Float64"  NumberOfComponents="3"  format="ascii">6.949025300832863 2.148934704219669 4.009460308013538  6.953242297392698 2.230818648089161 4.079134276677272  6.840548603505403 2.195966651224284 4.078369188363792  6.853797107646364 2.144614141909101 4.13616913794137  6.968440595340857 2.181696133461791 4.138666373911964  6.962459193140765 2.095847160035122 4.063408912862005  6.975892824984577 2.042740538375712 4.1173295978896  6.983647911386505 2.1325566036195 4.198187324176396  6.86704166919098 2.093251487005111 4.193967545714151  6.989328669135735 1.989622626886168 4.171225446339082  6.998859700580828 2.083404744363202 4.25769162696457  6.88028558151756 2.041878787024033 4.251748328678534  7.014076114083156 2.03423709849119 4.317173412077135  7.002766635179873 1.936492792709076 4.22509318562829  6.893533462701373 1.990491779094387 4.309503623882001  7.029295865758338 1.985046233184347 4.376629330066704  7.016205609519839 1.883349412916085 4.278928483159283  6.906787486342266 1.939083646017428 4.367228829953139  7.029636053218448 1.830191710544305 4.332734792544878  7.044506450149917 1.935824541590048 4.436068143588789  6.920050105230691 1.887652559784698 4.424927471909819  6.842992358081182 2.101419571757881 3.983187784407237  6.855767069224882 2.046652543483451 4.034164784633528  6.868544650698927 1.991864473932881 4.085115212216051  6.881324401233124 1.937065867891651 4.136042879022313  6.894107054609428 1.882255869079407 4.186942263584239  6.906892961973583 1.827430614749864 4.237808195199427  6.919674054496015 1.772582796932619 4.288637030372534  7.770387370297348 2.916395362209368 4.114239276231005  7.749088863647986 3.021336541737583 4.117600757873099  7.649770391154993 2.977943531958256 4.141633204223855  7.666689511081853 2.982761010383214 4.221091628593651  7.766468710780987 3.028173302305289 4.195239914292971  7.787897679000459 2.915153514719344 4.191146614725576  7.683599666417891 2.987593393888026 4.300486160462469  7.783830454517751 3.03500842701905 4.272803364406879  7.805424134643955 2.913880773143771 4.267991458203156  7.700498345754356 2.992406859884283 4.379815296314055  7.80117885402685 3.041820100918962 4.350294388122862  7.822948994470151 2.912575185976773 4.344771567758952  7.818516490618102 3.048588645537564 4.427728799665644  7.840463121504788 2.911227243375305 4.421498137697552  7.717387226453662 2.9971800709852 4.459081167617963  7.835849492770503 3.055301397159667 4.505116281725866  7.857960942106604 2.90983410634598 4.498180812020925  7.734268758751052 3.001896099622873 4.538300118604146  7.853195533684761 3.061950278419348 4.582473709022223  7.875439136022266 2.908407323107809 4.574840353087378  7.75114628754545 3.00654559868325 4.617478083858899  7.65545345745675 2.85410992411247 4.13833169907562  7.674639839807348 2.847934322893389 4.216366329979082  7.693847011021663 2.841738778170165 4.294344724678292  7.713050484140778 2.835512537883707 4.372261973360028  7.732238957276956 2.829246659662395 4.450125690614372  7.751405378709181 2.82293808095367 4.527948419963705  7.770546970547794 2.816590884400966 4.605746202977956  7.951080551058793 1.83459866216173 3.90893732072967  8.05375323602364 1.819572938638051 3.849065379818211  7.99424442610298 1.746386360854811 3.762912378466916  8.044671908195705 1.867658284985938 3.808242552895867  7.939955832204015 1.8834091778955 3.866173104882109  8.003784013314453 1.696266267611691 3.799654934902754  7.962045473223767 1.785782814477189 3.951671723364677  8.062708867742087 1.77152323577468 3.889828318826535  6.974422049318843 2.311847365581785 4.138837512747422  6.861931626456389 2.303505451026112 4.161317445545106  6.874893605471212 2.259532518812024 4.227848805036245  6.989933922203209 2.266194648489034 4.203181134517604  6.887830605280613 2.215551823896556 4.294386918682208  7.005447117551583 2.220529883223086 4.267522939638055  6.900761877239828 2.171560835828382 4.360909867773421  7.020962131704501 2.174854850874634 4.331851263240247  6.913701777363236 2.127551843494108 4.427409047761855  7.036483138416687 2.129163024216585 4.396159052618339  6.926660607186028 2.083516137628316 4.493881239585398  7.052009879637695 2.083446307984471 4.460444946317564  6.93964743316061 2.039444363060093 4.560327837488043  7.067517127657468 2.037684754994776 4.524701684151787  7.890447906881499 1.75463236031874 3.820027440186157  7.900251942284462 1.703625398145725 3.858867387009232  7.798036590326902 1.779587050475569 3.886938994758258  7.807870815432105 1.728387445538302 3.928824803711649  7.696535185163316 3.11331829626707 4.115663523542921  7.712751714099261 3.126012728683114 4.193952352632741  7.728925819515378 3.138743610022998 4.272156048152744  7.74507189780387 3.151457615342832 4.350281645063442  7.761204946604013 3.164124400482957 4.428340675859164  7.777342031985698 3.176721935719268 4.506346819257853  7.793500840549059 3.189231718988298 4.58431037858384  7.686916804285789 2.129964433137649 3.799462359446247  7.550445519329314 2.077109004268988 3.774878146956058  7.647583121758853 2.057936230471978 3.727687679096481  7.658203149323453 2.006027653829419 3.77210058849575  7.562504544736325 2.024856389312909 3.821388351384929  7.698333319531908 2.081358707112964 3.849206249880934  7.668859460050929 1.954119399719053 3.816465264624357  7.574607389939469 1.97259703899786 3.867845753109961  7.709789754609751 2.032754517218994 3.898897439611975  7.679518070777594 1.902211753787861 3.860788518465631  7.586715808499137 1.920334329063835 3.914262340116348  7.721250097088531 1.984149816350979 3.948541714347077  7.690147941979085 1.850301177341688 3.905076821599753  7.598801016640519 1.868066887192658 3.960644349339601  7.732677634166936 1.935541670170941 3.998147946055178  7.700717863536938 1.798380427998504 3.949337809279529  7.61083310386419 1.815789498955642 4.006998579748131  7.744034978089638 1.886926127951736 4.047723614809275  7.71119559409227 1.746439996323771 3.993575842617213  7.622766027780889 1.763493234403903 4.053331033045906  7.75529167992393 1.838300595247458 4.097274699153575  7.895116652487554 2.078780127099489 3.694657388924841  7.785503090052012 2.105514145275134 3.752021029112458  7.748039767906868 2.035479965583437 3.677037336911431  7.796429304382096 2.056519647023861 3.798484725677115  7.906281482466446 2.029912853331896 3.737615666823526  7.758033839424993 1.98429079769034 3.71909704307313  7.807407731361856 2.007533241943816 3.844894708787397  7.917513491642423 1.981065132997495 3.7805166090582  7.768066247871623 1.933110910835276 3.76111428103659  7.818390565240366 1.958554696360964 3.891254721310311  7.928751620504087 1.932231233034682 3.823367173824131  7.77810121302026 1.881937561365961 3.803089704027087  7.829336072686844 1.909579785600219 3.937572815890502  7.788102942425678 1.830766307987824 3.845029035586196  7.840201988000611 1.860602458595126 3.983858332803808  7.850952796628427 1.811606872343928 4.030121606751155  7.581747488311321 2.15673203039996 3.8467537865818  7.594501520067229 2.108630960862225 3.899610374728931  7.607299315668691 2.060523745140935 3.952416161784603  7.620105804888533 2.012408468313912 4.005179602428227  7.632887315496617 1.964284019762699 4.057908835423797  7.645610720888695 1.916144902268631 4.11061256142823  7.658239061010598 1.867989495722123 4.16330356512832  8.208282926634508 2.588049917411364 3.986850966873611  8.216979568055228 2.688419682869126 4.012263580503842  8.101989188003644 2.628120741208744 4.005603128415264  8.110571556045162 2.608426692476167 4.074024582118631  8.112293387976163 1.934111483004783 3.870167273296056  8.211373936152382 1.984273427555671 3.910629222688013  8.181010938553925 1.874043794260011 3.779004237138389  8.204815025782572 2.029499593025982 3.865382466061621  8.119673735282374 1.887315746266311 3.913519364207866  8.217902482411274 1.939075224683767 3.955812908451191  8.188598317591675 1.8262212283352 3.818043309714667  8.126984310362063 1.840548284415588 3.956821093127332  8.224393734471548 1.89392551970469 4.00092397706386  8.196100142203715 1.778437867223521 3.857022130938724  6.747403369618056 2.231719763465835 4.125912884635836  6.757621306129385 2.18409583479949 4.188795932022477  6.767796578393113 2.136465692750692 4.251686083489747  6.777960373699574 2.08882387181601 4.314564225261575  6.788131033022895 2.041164411115238 4.377417586182595  6.798323450539172 1.993479841210207 4.440241154979073  6.808557416967874 1.945767766989011 4.503036954281829  8.194046781479052 2.490549397163909 3.947302720910075  8.089994295146937 2.511499020522443 3.969120286240206  8.145915062785917 2.384497502109611 3.901226205587233  8.098875158278812 2.48499726683249 4.03413966456109  8.15284625706124 2.350389827410276 3.960382143834996  7.385211990638379 2.20940288976362 3.946381064226127  7.252211741336693 2.14270653200757 3.920745045461095  7.354530629732052 2.124468936645216 3.877529221480833  7.368170309584267 2.072773230026579 3.929449227936057  7.26664373255903 2.090333293999494 3.973376599829871  7.401513946700385 2.160035115563812 4.00218305547591  7.381844632788281 2.021060240468727 3.981323176007167  7.28110654976657 2.037935596922487 4.025969604926927  7.41787229049294 2.110642648070039 4.057934986683434  7.395527184145911 1.969338030040412 4.033160074034034  7.295579022862413 1.98552463481307 4.078530559362044  7.434247652985766 2.061239758749535 4.113651969114113  7.409197166501196 1.917606543723675 4.084966152041591  7.310045487867193 1.933103194034941 4.131062652165639  7.450611562986787 2.011826921772009 4.169340624387567  7.422833456768292 1.865860100829508 4.136747295221121  7.324491776432088 1.880665297275306 4.18357227414822  7.466934288913347 1.962399451084347 4.225008973900704  7.436401359624425 1.814088223098608 4.188512458489217  7.338908655320088 1.82819874620572 4.23606925835109  7.48
[...]
<PointData  Vectors="f_24"> 
<DataArray  type="Float64"  Name="f_24"  NumberOfComponents="3" format="ascii">1.1060527110850290e-04 -8.3847265427075914e-04 -3.5873656175233374e-04  1.0151559780864499e-04 -7.0748614575434025e-04 -4.2592562521547695e-04  1.1028161199037760e-04 -7.2487409628706168e-04 -3.9827836149034559e-04  1.0556667012175682e-04 -6.3743338413236705e-04 -3.5960323950453681e-04  9.8227094300902556e-05 -6.1900034631654801e-04 -3.9303738359304307e-04  1.0802855086478749e-04 -7.4981551992179358e-04 -3.0780763326569054e-04  1.0717886593991317e-04 -6.7221419337218792e-04 -2.5669755255171528e-04  9.7837205502977447e-05 -5.4364381703496097e-04 -3.5685847411330091e-04  1.0325647261923977e-04 -5.6307245672242655e-04 -3.1845585531453175e-04  1.0761516991889932e-04 -6.0116933916233692e-04 -2.0339097174327861e-04  9.9168697560673635e-05 -4.7601342495502046e-04 -3.1587445196846532e-04  1.0249545295548580e-04 -4.9605363972516953e-04 -2.7304793653783058e-04  1.0188623831145439e-04 -4.1258030174053865e-04 -2.6960967722427674e-04  1.0913594007880709e-04 -5.3361360371321131e-04 -1.4609510186672532e-04  1.0285374859385525e-04 -4.3294277837812890e-04 -2.2248000526084154e-04  1.0584505755272094e-04 -3.5136993143807107e-04 -2.1769496336804592e-04  1.1166138906578552e-04 -4.6760808487494523e-04 -8.3526907179427064e-05  1.0406517264666746e-04 -3.7177774136611515e-04 -1.6627121996004007e-04  1.1515354336119562e-04 -4.0174688767737331e-04 -1.4795180856046097e-05  1.1116735603386212e-04 -2.9168547015638152e-04 -1.5967635703447976e-04  1.0610740271261352e-04 -3.1156598799434522e-04 -1.0420311886334842e-04  1.2205479622583331e-04 -8.9978955309742107e-04 -3.1653573438186002e-04  1.1755378860298465e-04 -8.1336974905043256e-04 -2.5706751082270324e-04  1.1464952433999068e-04 -7.3687325014263315e-04 -1.9972390438483263e-04  1.1284502261447787e-04 -6.6637135125978419e-04 -1.4114003004425638e-04  1.1188921074791040e-04 -5.9899482831872334e-04 -7.9198775339499604e-05  1.1163501494525148e-04 -5.3270897865019420e-04 -1.2262763532845402e-05  1.1205337128595954e-04 -4.6625589728330240e-04 6.0954414402288437e-05  -2.7926114644475181e-05 -1.2863966593082548e-04 -7.1374612700759261e-04  -2.9788030180711242e-05 -4.6748542799719553e-05 -6.7390392465542081e-04  -1.5736523007395991e-05 -8.3540661792150313e-05 -6.6451688889877379e-04  -4.2042283949482871e-06 -1.1582897484879384e-04 -7.0787699479517047e-04  -1.8566244811537837e-05 -8.5530128562149888e-05 -7.1682325917562996e-04  -1.8135410396149706e-05 -1.4474826573034237e-04 -7.6158501447667394e-04  9.4083801039908057e-06 -1.4568322919247765e-04 -7.3457734029033338e-04  -5.4302001263778622e-06 -1.2190940855917706e-04 -7.4293791638593235e-04  -6.1264700478041197e-06 -1.6073702007356587e-04 -7.9257051350980752e-04  2.5834086601320316e-05 -1.7483261668780126e-04 -7.4815803748332251e-04  1.0341829749265214e-05 -1.5706816566823896e-04 -7.5603778236153394e-04  8.6466886546364032e-06 -1.7708243843788938e-04 -8.1020070593509756e-04  2.9645022890647350e-05 -1.9227685821289933e-04 -7.5854685266055428e-04  2.6951140553866902e-05 -1.9396752841837321e-04 -8.1701295277532336e-04  4.5981287722699472e-05 -2.0418056182788463e-04 -7.5129660021628958e-04  5.3557027369496361e-05 -2.2815298633640390e-04 -7.5232513769422904e-04  4.9741149792876105e-05 -2.1197120169758792e-04 -8.1489263428084161e-04  7.0489357244873666e-05 -2.3445012538175574e-04 -7.4599434763149503e-04  8.3251873594066193e-05 -2.6528234054866412e-04 -7.3949768894594617e-04  7.8261705064919644e-05 -2.3154280098637423e-04 -8.0545742922918018e-04  1.0007626174072707e-04 -2.6605433804138075e-04 -7.3406660288952120e-04  -9.8430460841609290e-06 -1.7978252773479423e-04 -6.9793220424108754e-04  -1.1038908140184372e-06 -1.8441659991236031e-04 -7.4529603993227569e-04  1.0362078461951468e-05 -1.9026991030836500e-04 -7.7604309206502165e-04  2.5021528277617970e-05 -1.9668210458141040e-04 -7.9346104073002794e-04  4.3419326982342921e-05 -2.0387878599173009e-04 -8.0016058180876497e-04  6.6245946169552985e-05 -2.1216165372077184e-04 -7.9823710846486993e-04  9.4522030075599889e-05 -2.2211828797401325e-04 -7.8962725865320974e-04  1.1823541893447931e-04 -8.1711684967817027e-04 3.3387254801566054e-05  1.1585252793335513e-04 -8.9867797418998190e-04 5.8953777772530479e-05  1.3237743221488472e-04 -1.0813122042261788e-03 1.6723128451038156e-04  1.0522310741376142e-04 -9.7261675428200137e-04 -1.0942495092000159e-05  1.0725585684970728e-04 -8.9187429446060289e-04 -3.6698090680467062e-05  1.4157056686116967e-04 -1.0078951668497512e-03 2.4484340017024944e-04  1.2996402922693141e-04 -7.4009321811190890e-04 1.0987968638418577e-04  1.2673013923742311e-04 -8.2196338613023064e-04 1.3520881495314845e-04  9.2348236332117996e-05 -5.9085563993582335e-04 -4.8160777676261072e-04  9.9365799661068762e-05 -5.6614693001895585e-04 -4.7041995990714501e-04  9.5910092301306282e-05 -4.8633980717007559e-04 -4.5889163841932848e-04  8.9936570835934769e-05 -5.0966654158703486e-04 -4.6610241980979303e-04  9.5463797198119859e-05 -4.2008501233019318e-04 -4.3791315183601545e-04  9.0915827183244094e-05 -4.4236634618242862e-04 -4.4270240669517651e-04  9.6943647905376997e-05 -3.6098698823203000e-04 -4.0935124790861472e-04  9.3903886858731376e-05 -3.8213464290697295e-04 -4.1198051482505818e-04  9.9794520216908274e-05 -3.0593196843350825e-04 -3.7398888384883154e-04  9.8435327770104883e-05 -3.2571862668996269e-04 -3.7454443369223445e-04  1.0367394310946140e-04 -2.5309873992057430e-04 -3.3242998490738696e-04  1.0430311814298439e-04 -2.7137530229616555e-04 -3.3100074173500216e-04  1.0839965718508443e-04 -2.0132280250048616e-04 -2.8573112931440077e-04  1.1153774482796565e-04 -2.1825617356156075e-04 -2.8200119822441034e-04  1.3498122006392159e-04 -1.0016200800177664e-03 1.5372719586563517e-04  1.4488920872936895e-04 -9.2674891561436885e-04 2.3298381741023249e-04  1.3383109519089675e-04 -9.0405173991231025e-04 1.1372052077419363e-04  1.4447545676084708e-04 -8.2749329908251841e-04 1.9238718339606049e-04  -2.7996431207950590e-05 2.6429314283535971e-05 -6.1248370056068643e-04  -1.4817562323786230e-05 -3.1972850338125913e-05 -6.4722781308319485e-04  -4.0954946778685966e-07 -8.5443111793405684e-05 -6.6696921455362379e-04  1.6354978714291295e-05 -1.3612007332752915e-04 -6.7416597672536097e-04  3.6523320802834563e-05 -1.8564747881501950e-04 -6.7124577344709001e-04  6.1090880151088011e-05 -2.3533166739241138e-04 -6.6011745625484542e-04  9.1128041742027612e-05 -2.8623010228232747e-04 -6.4229184878301850e-04  6.9230868584594616e-05 -1.0508676086606551e-03 -3.5226367961196421e-04  8.8899857176210319e-05 -1.1420356125265059e-03 -2.8466241101074880e-04  8.6701237286806139e-05 -1.2070859624969234e-03 -2.6314896722107254e-04  9.6098253647997720e-05 -1.1217443208086976e-03 -1.9184924178239056e-04  9.7122653961652730e-05 -1.0537972488130240e-03 -2.1684827431950779e-04  7.8381507709341075e-05 -9.5704084611230385e-04 -2.9469290554482401e-04  1.0507051483086851e-04 -1.0435481461306812e-03 -1.2501182290989429e-04  1.0520265992058252e-04 -9.7358060478566733e-04 -1.5237047705583299e-04  8.7210222778969778e-05 -8.7259059436321448e-04 -2.3836604968647854e-04  1.1400176798577621e-04 -9.6901058859388746e-04 -5.9027540957235911e-05  1.1344980424963778e-04 -8.9752356964927871e-04 -8.7979065656747148e-05  9.6548795117321157e-05 -7.9321373365392155e-04 -1.8098870669139134e-04  1.2331514179829143e-04 -8.9541336317811547e-04 8.9159472844849641e-06  1.2230204279137425e-04 -8.2287687128632862e-04 -2.1176067545412923e-05  1.0676483950521843e-04 -7.1602853144977032e-04 -1.2042295661796149e-04  1.3336631298255345e-04 -8.2078170067221429e-04 8.1171812798160211e-05  1.3216432390592055e-04 -7.4765437190185192e-04 5.0213662732106656e-05  1.1823171449453308e-04 -6.3904670696048255e-04 -5.4874304158473862e-05  1.4456140645010477e-04 -7.4370864006961584e-04 1.5981975303813083e-04  1.4351837005749401e-04 -6.7054849874123199e-04 1.2806602255936649e-04  1.3128779314882830e-04 -5.6088362794355466e-04 1.7080347786505740e-05  6.7111948251874159e-05 -1.2028751939970757e-03 -2.9869437272835562e-04  6.7925823190680454e-05 -1.1181986888941331e-03 -3.2703976130824301e-04  8.5943610878791020e-05 -1.2788773282150861e-03 -2.3611792964874640e-04  7.7461110630800645e-05 -1.0275404776804418e-03 -2.6436994497477457e-04  7.6693090737093273e-05 -1.1177559148755291e-03 -2.3019957877230146e-04  9.5785282974975800e-05 -1.1972976954127458e-03 -1.6227551408095866e-04  8.7007577064682879e-05 -9.4603921245619085e-04 -2.0384515296445561e-04  8.6617111919257568e-05 -1.0399176262875062e-03 -1.6592066507368957e-04  1.0514203867030817e-04 -1.1221011116401276e-03 -9.3830765630510679e-05  9.6904317760589589e-05 -8.6889918123295011e-04 -1.4292891983997276e-04  9.6777080904388520e-05 -9.6551175440466282e-04 -1.0234625791164080e-04  1.1445573816992945e-04 -1.0497739218088573e-03 -2.6957125391634101e-05  1.0741336417634382e-04 -7.9324170397920455e-04 -7.9284275528962312e-05  1.2393455332126215e-04 -9.7771517405669298e-04 4.1351211697527968e-05  1.1885026645166817e-04 -7.1709778808886140e-04 -1.0875143897034250e-05  1.3158666839216865e-04 -6.3912422447686540e-04 6.4083671561208515e-05  7.1454025422651449e-05 -9.8788776368789418e-04 -3.7658219453552276e-04  7.9250546105206373e-05 -8.9148902639719441e-04 -3.2522823168954304e-04  8.7003155978847453e-05 -8.0458744110735870e-04 -2.7390331915378498e-04  9.5504246784015138e-05 -7.2362973513704243e-04 -2.2078928299398937e-04  1.0517184604756497e-04 -6.4573854398078682e-04 -1.6410668320897021e-04  1.1637978814927563e-04 -5.6882979053666225e-04 -1.0230187334247737e-04  1.2936488612878182e-04 -4.9136847804786795e-04 -3.4043235719712208e-05  -4.9314875064338186e-05 -4.0689508994859767e-04 -7.8606426599576345e-04  -6.1443041926427974e-05 -3.0500875451524732e-04 -8.1875001179414577e-04  -4.4136589700585914e-05 -3.7577273214988409e-04 -7.7752486046461962e-04  -3.3531857994294422e-05 -3.2519329575448280e-04 -8.0996276302563812e-04  8.8065894957795228e-05 -8.3192215755963864e-04 -1.1517163912709077e-04  7.2833894094209231e-05 -7.2737248678473795e-04 -1.9750283318797110e-04  9.6735483779424156e-05 -9.9284425797339384e-04 -2.1723519386823797e-05  6.0741774704867233e-05 -8.0214264656385697e-04 -2.5798478154422506e-04  9.9839046120441102e-05 -7.5735596996176133e-04 -4.7378566443615001e-05  8.5304205852148094e-05 -6.5235774677211691e-04 -1.3196065964321367e-04  1.0778669619500030e-04 -9.2083007936513185e-04 4.8965424709352752e-05  1.1212739790677490e-04 -6.8060099545397376e-04 2.6929185657968636e-05  9.8360832365287047e-05 -5.7572974520070234e-04 -5.9583393538496579e-05  1.1882338438599108e-04 -8.4562553810670245e-04 1.2610329899799858e-04  1.1109586726299215e-04 -6.4149145846824308e-04 -4.2131796573313495e-04  1.0539149289833607e-04 -5.5646667985681715e-04 -3.9641978858604083e-04  1.0224772822900330e-04 -4.8445288185067838e-04 -3.6583169144131133e-04  1.0067988010996114e-04 -4.1999222297516866e-04 -3.2946011543815383e-04  1.0017019154079868e-04 -3.5990885701950710e-04 -2.8719804931993974e-04  1.0031738303275296e-04 -3.0218287532184735e-04 -2.3906207195861193e-04  1.0076260446157584e-04 -2.4559251079235876e-04 -1.8508530390077245e-04  -3.5684271865791028e-05 -5.2463939637295792e-04 -7.3194122070134582e-04  -2.7883017215649734e-05 -5.0009412447904174e-04 -7.2557908522907051e-04  -1.4092795170009797e-05 -6.6299512572996397e-04 -6.4971509279446204e-04  -1.8484924554411879e-05 -4.2923116920930805e-04 -7.4216438350676922e-04  -3.4615598662835590e-06 -5.7464377647287450e-04 -6.4111100816430656e-04  7.6543594901782975e-05 -8.5345754946859775e-04 -4.2225206140469027e-04  9.5064668036572020e-05 -9.4283596542185330e-04 -3.5415213565236829e-04  9.1734974372865039e-05 -9.9754023938750189e-04 -3.3563971260859322e-04  9.7049856990181875e-05 -9.0448649409627521e-04 -2.7758194814221432e-04  9.8567435046938626e-05 -8.4993474720316555e-04 -2.9806834944269545e-04  8.1157915287047470e-05 -7.5913694990016589e-04 -3.7874729061646484e-04  1.0261400325225096e-04 -8.2048507489086481e-04 -2.2052644487976800e-04  1.0283055946238919e-04 -7.6758954982433531e-04 -2.4304669366120607e-04  8.6951728730662661e-05 -6.7582358937778105e-04 -3.3389575904719756e-04  1.0889493387693160e-04 -7.4204354819915888e-04 -1.6247609219565575e-04  1.0787441330103224e-04 -6.9121301883790496e-04 -1.8652182227818821e-04  9.4016104910733843e-05 -5.9928376971905178e-04 -2.8574213876339565e-04  1.1623746780698029e-04 -6.6638640994123746e-04 -1.0125776139188386e-04  1.1407193071997228e-04 -6.1796794741995865e-04 -1.2649684696626961e-04  1.0266544513991433e-04 -5.2645579676355910e-04 -2.3297680520175648e-04  1.2495272731265873e-04 -5.9150580836181443e-04 -3.5082215085065881e-05  1.2165333907181570e-04 -5.4575725508088427e-04 -6.1374621802999998e-05  1.1321436167367101e-04 -4.5522535253979718e-04 -1.7461831100971660e-04  1.3524621439182030e-04 -5.1602198580392653e-04 3.7540159903201414e-05  1.3080126512115452e-04 -4.7322851179564267e-04 1.0169495317328496e-05  1.2609384668598830e-04 -3.8426870658092051e-04 -1.1003711883096487e-04  -5.5161613897519221e-05 -2.6799883898547558e-04 -8.0517765901729280e-04  -4.4582213019439857e-05 -2.4012507778756458e-04 -8.4774550221374759e-04  8.1424339524903945e-05 -7.8970432063572371e-04 -4.3329335067656365e-04  8.4086982212018758e-05 -6.9624924926144495e-04 -3.9513158644493250e-04  8.8544355463631645e-05 -6.1499438550806633e-04 -3.5413909546229460e-04  9.4531577876251022e-05 -5.4082394716078823e-04 -3.0921151476163029e-04  1.0222917574666275e-04 -4.7062264023120889e-04 -2.5927964400274247e-04  1.1177679215249592e-04 -4.0232679452055129e-04 -2.0357740943827127e-04  1.2317601105722647e-04 -3.3427107292090084e-04 -1.4194595089623335e-04  7.2947441347207348e-05 -9.2000366882142377e-04 -4.0437703425529043e-04  8.9800659934132353e-05 -1.0610014652924376e-03 -3.1154190634738015e-04  9.6480567680255394e-05 -9.6956442630287333e-04 -2.4980495843940597e-04  7.9193061373274720e-05 -8.2384529897265373e-04 -3.5788553977278632e-04  1.0346003304421084e-04 -8.8684982256500970e-04 -1.8928244231454215e-04  8.5906352916083253e-05 -7.3770512555550280e-04 -3.1084241616181386e-04  1.1089288110898218e-04 -8.0881284718305603e-04 -1.2827892663055910e-04  9.3668298445031748e-05 -6.5815770219649413e-04 -2.6120525829535811e-04  1.1918715333879423e-04 -7.3281964312373982e-04 -6.4437700073135293e-05  1.0284144893188793e-04 -5.8221700153814006e-04 -2.0753674867033468e-04  1.2874498660412243e-04 -6.5695168744988144e-04 4.2565473827522194e-06  1.1379674645371779e-04 -5.0775125380886907e-04 -1.4859700519924095e-04  1.3989855847286483e-04 -5.7986503263876598e-04 7.9465469930568904e-05  1.2693322511781913e-04 -4.3344627915335054e-04 -8.3202305464485975e-05  8.9839582167126008e-05 -6.6569076855309349e-04 -4.6542166988569589e-04  9.8190210177303655e-05 -7.7920961389936776e-04 -4.0620988549017032e-04  9.7542793293846813e-05 -6.8894190706392082e-04 -3.6584616505322924e-04  8.8914986694658212e-05 -5.7890640296833103e-04 -4.3948336967887758e-04  9.8476085626635797e-05 -6.0982288278205838e-04 -3.2351720697924375e-04  9.0350030488580939e-05 -5.0575845376140370e-04 -4.0915499349309612e-04  1.0095334314420132e-04 -5.3803525890442152e-04 -2.7788340643346277e-04  9.3821163787642854e-05 -4.4021393540233356e-04 -3.7278708949769123e-04  1.0485119230234223e-04 -4.7044579814461317e-04 -2.2759809772329590e-04  9.8936362446549108e-05 -3.7880924745551086e-04 -3.3035999341577679e-04  1.1010386425102899e-04 -4.0492522226441742e-04 -1.7183737758810883e-04  1.0554751729664138e-04 -3.1956599347895438e-04 -2.8197372566425615e-04  1.1672823340547169e-04 -3.4008563897605773e-04 -1.0984056441394084e-04  1.1371704614852456e-04 -2.6185075413407913e-04 -2.2752235823306297e-04  -5.1838347836227040e-05 1.2756575642034165e-04 -6.0266228020523175e-04  -5.1855361594353761e-05 2.3989332988825788e-04 -5.0140729565915931e-04  -4.0726788782115507e-05 1.3373749701326272e-04 -5.5531361669969130e-04  -4.1800370185111250e-05 1.4573843867106588e-04 -5.1096476135089632e-04  -4.0758700566277480e-05 5.2829034739036068e-05 -6.3126762697595339e-04  -2.7844331797275496e-05 5.5148771996753499e-05 -5.8038780832800742e-04  -1.4342365856034101e-05 -1.6574795412705459e-05 -5.9093559299420182e-04  1.1987722059595935e-04 -1.1553114733077606e-03 -2.2794908190834981e-04  1.0736707869146857e-04 -9.9379590544700211e-04 -3.1026736724323954e-04  1.2102907890124244e-04 -1.0805746562501722e-03 -2.5407522852879998e-04  1.2194078613732170e-04 -9.9614035616794015e-04 -1.8306122427369509e-04  1.0960779947414857e-04 -9.0513309235283081e-04 -2.4683153488149097e-04  1.2304081594578808e-04 -1.0724235038570577e-03 -1.5334737910984450e-04  1.2299038616949781e-04 -9.1949425668024615e-04 -1.1617625750282969e-04  1.1232438408375074e-04 -8.2588060364995714e-04 -1.8584994217239325e-04  1.2594077142419940e-04 -9.9662877963914800e-04 -8.3606121009778897e-05  1.2448249799117481e-04 -8.4727846344962723e-04 -4.9922585585481941e-05  1.1570775791416780e-04 -7.5193094372746254e-04 -1.2419916702235723e-04  1.2901228997949153e-04 -9.2458200517983407e-04 -1.4991081545362847e-05  1.2658370371628914e-04 -7.7688207397123149e-04 1.8435128119254859e-05  1.1998391346219925e-04 -6.8048490693650352e-04 -5.9587462947461437e-05  1.3255723097285016e-04 -8.5373947905315430e-04 5.5347137909429370e-05  1.2945634489096089e-04 -7.0632738797684941e-04 9.1197463513609467e-05  1.2536206353582917e-04 -6.0949874301369580e-04 9.9125579988736383e-06  1.3686968375597441e-04 -7.8212971011879266e-04 1.2990051086771590e-04  1.3329963403564530e-04 -6.3414160583494771e-04 1.7038393389614713e-04  1.3208299163080313e-04 -5.3755529110559178e-04 8.5896155639827434e-05  1.4233791213210848e-04 -7.0825735588723961e-04 2.1087896455782623e-04  -2.1445567602944174e-05 -2.1322818573972033e-04 -7.3052277877366095e-04  -1.2893943163510272e-05 -2.0619638571295245e-04 -7.7732471842404229e-04  -2.0228014641970166e-06 -2.0128669396821903e-04 -8.0758628372078721e-04  1.1849926201394685e-05 -1.9819631684089649e-04 -8.2478345890834768e-04  2.9316310415610790e-05 -1.9664691210922257e-04 -8.3128284291557049e-04  5.1178108189446053e-05 -1.9662924078732739e-04 -8.2893339694827114e-04  7.8128877010243421e-05 -1.9842065120994918e-04 -8.1927705046681344e-04  -4.5195014341357085e-05 -2.3916024150701437e-04 -7.8338126225140851e-04  -5.1774727498179329e-05 -1.4444054371433857e-04 -7.7348182394435764e-04  -3.4101948649168488e-05 -2.1347952269815338e-04 -7.5631586432528314e-04  -2.5482403158522697e-05 -2.0351794998721255e-04 -8.0356475569043427e-04  -4.2409900529481097e-05 -1.5016195116488687e-04 -8.2212953829929837e-04  -3.6157912505733219e-05 -2.2058147389991456e-04 -8.2866478773429794e-04  -1.4592478606172113e-05 -1.9635428390954554e-04 -8.3433435880044210e-04  -3.0924665500026869e-05 -1.5756398296775087e-04 -8.5489224774280273e-04  -2.4977538436502332e-05 -2.0517090964970413e-04 -8.5849776843050321e-04  -1.0583371826967654e-06 -1.9144349534973258e-04 -8.5213803467627954e-04  -1.7290382056703489e-05 -1.6584750020714448e-04 -8.7420678271773480e-04  -1.1794265161591761e-05 -1.9250198037069278e-04 -8.7561349690520169e-04  1.5685234631169633e-05 -1.8833292064456697e-04 -8.5908117003212394e-04  -9.9133103394814344e-07 -1.7500616390752770e-04 -8.8220187952369996e-04  3.8995789813207110e-06 -1.8186763194401461e-04 -8.8178164475218870e-04  3.6479539596226907e-05 -1.8685273815991613e-04 -8.5673038427291068e-04  1.8889716714349400e-05 -1.8515974961868508e-04 -8.8033180130865640e-04  2.2963823789713237e-05 -1.7291056166734308e-04 -8.7824416564143083e-04  6.2384816211261696e-05 -1.8702838204993869e-04 -8.4659625591106407e-04  4.3764910627451927e-05 -1.9660277503103275e-04 -8.6965025665767192e-04  4.6569542013051765e-05 -1.6531927234878177e-04 -8.6637015657915263e-04  1.0023390355327895e-04 -4.3196207332085035e-04 -4.7929491492855800e-04  1.0831242816339280e-04 -4.7811134472974375e-04 -4.3188193478775659e-04  1.0379066982385367e-04 -5.0583263574885114e-04 -4.7826274501127454e-04  9.917712922641