<?xml version="1.0"?>
<VTKFile type="UnstructuredGrid"  version="0.1"  >
<UnstructuredGrid>
<Piece  NumberOfPoints="995" NumberOfCells="4271">
<Points>
<DataArray  type="Float64"  NumberOfComponents="3"  format="ascii">5.300223625372677 1.650658735119875 3.672006282837094  5.364755732466444 1.584659857804327 3.549595309492608  5.440192825504646 1.644022026444966 3.639495333220757  5.445451760921396 1.586674469295638 3.673544751231765  5.384343157666537 1.360065616245267 3.677792398540987  5.320812937435169 1.41989352712022 3.811572941562112  5.461009037994641 1.414737016924576 3.775642553567359  5.45582932618354 1.472039276066012 3.741638322700835  5.315686614101891 1.477554030924115 3.776719382342949  5.38924401022734 1.303938815258117 3.709752630509211  5.325966714753425 1.362240108111797 3.846364148286765  5.466219441218535 1.357433915626796 3.809588061840524  5.394210173245375 1.247806078971265 3.741632039063349  5.331172917161544 1.304590556312005 3.881063418296856  5.47148865471561 1.300121999459064 3.843445942636694  5.850934205781427 1.830563402008153 3.859895905156828  5.922438930936508 1.760150431412518 3.745641604850208  5.997656242676632 1.823932438374408 3.81991614114697  6.005414436611709 1.766878528104446 3.861406524194102  5.929239550472599 1.702700464418627 3.783705632057777  5.857753670253683 1.773321062114039 3.90355312422402  5.864534899645213 1.716104653363088 3.947225759893162  5.936002923682023 1.645264412840108 3.821781757549447  6.013147918614445 1.709839928361012 3.902907213378675  5.871298066378701 1.658901127913013 3.99088200467255  5.942748548093582 1.587833164196755 3.859845139154141  6.020865175797112 1.652804469127748 3.94439807551985  5.878064454146332 1.601697128397211 4.034498995292652  5.949496815846076 1.530397554681618 3.897874038445355  6.028584578108152 1.595761822616687 3.985857443502706  5.88485078876374 1.544481546744635 4.078055817762854  5.956264720926042 1.472949405977624 3.935845236467785  6.036321074466398 1.538701974678178 4.027264416277768  6.044071669248696 1.481615009436955 4.068598104826235  5.963062898158789 1.415474354128609 3.973734765353975  5.891666615830775 1.487240270126887 4.121530930786935  6.321362527528118 1.561302213547224 3.303806253407728  6.449853108288336 1.581762958838957 3.3043838166643  6.374156570794263 1.613929746845121 3.386785482137611  6.382249021711664 1.559622873464085 3.415904999684106  6.458212421751402 1.528332902431789 3.333146680843542  6.329376184613571 1.508316519702199 3.332694504947002  6.390376280517171 1.505313957518104 3.445013926608245  6.466620847828684 1.474902024005605 3.361890688894516  6.337432342311951 1.455327886848613 3.361573978836609  6.398525349334524 1.45100335730397 3.474106786580562  6.475059287850861 1.421470824890193 3.390616314088268  6.345513797003895 1.402336524149643 3.390440045482062  6.406684628145925 1.396687574876348 3.503177077298248  6.48351061091283 1.368037154457677 3.419321992161381  6.353605565565657 1.349339355031755 3.41928752859132  6.414843141653083 1.342359023055849 3.532216070459258  6.491958072732421 1.314594250642228 3.448004489731125  6.361692887051135 1.296328138178847 3.448110033032607  6.422988749955247 1.288003390881992 3.561208984928423  6.500379763706051 1.261128822790245 3.476655166662879  6.369756070508913 1.243285896466731 3.476895877337953  6.747210431991824 1.24385606509869 3.236211524563613  6.665449757064536 1.272911952072019 3.314209032868822  6.64857748400157 1.2006919942942 3.187172109013833  6.657782175906089 1.149059785840874 3.216935875255573  6.674303689852258 1.220242736194854 3.342948901218341  6.75642111007504 1.191391625557787 3.265346419050365  6.363119855548221 1.523276782065372 3.222251293253062  6.371401333564713 1.470979686199462 3.25083116444414  6.379738289079952 1.418681683371962 3.279398280221402  6.388106329506138 1.366381934039319 3.307949950507545  6.396485882059767 1.314078610872663 3.33648594804651  6.404857193591674 1.261765842897956 3.365006201702085  6.413196146139818 1.209426484173562 3.393505280570055  6.17210466851094 1.547849066662069 3.318692275248747  6.259615385426875 1.609545896202661 3.408871475161344  6.267314070868967 1.55526261719289 3.438272505097238  6.179585845018213 1.495003363447398 3.347753525745847  6.187094503209609 1.442153423708277 3.376818863062596  6.275035988976533 1.500975973776648 3.467671958963731  6.194619616629196 1.389297444866679 3.405875833349251  6.282774372849139 1.446684648618763 3.49706010861231  6.202151571968299 1.336431054772579 3.43491515307444  6.290520794324482 1.392384372410205 3.526426317730551  6.209680316527566 1.28354411012943 3.463927129233169  6.298267588742632 1.338066374182174 3.555757724471385  6.217192722951055 1.230617126604444 3.492895114674816  6.30600883511296 1.283716698433052 3.585034303995973  6.755979634133197 1.720516645470522 3.472960851723151  6.665308605699218 1.673728433410707 3.412903214577237  6.774640884423053 1.643437565701409 3.325026362984295  6.674223758415772 1.618392130984562 3.442652575324438  6.215093762790944 1.402160808657236 3.053973640517095  6.317154988904082 1.440214978279999 3.08951931108112  6.243110732546473 1.486390039579789 3.189456126856945  6.251089727427882 1.435019376507324 3.218723060594584  6.325681732139365 1.389599191014129 3.119481717727015  6.44909319504476 1.531410282554043 3.212282909124827  6.457433298362147 1.47889693703663 3.240897090449736  6.465826566608652 1.426382867224774 3.269489819984573  6.474252484433899 1.373869395568374 3.298062525780508  6.482691544069414 1.321355703924101 3.32661829270987  6.491124204308864 1.268838556900267 3.355159600454006  6.499531852209993 1.216306123987526 3.383684972207047  5.911264619625777 1.63837892031015 3.543684812397462  5.983300653581351 1.692402283677381 3.623182767583568  5.856713772891597 1.699710142233925 3.661736939681577  5.86323775677725 1.642499682213391 3.696480665688939  5.990153154032142 1.635530629585839 3.656497232472032  5.917936560560829 1.582567935935387 3.575416717479589  5.996986698824449 1.578666438393482 3.689825472167661  5.924592585441991 1.526762367368055 3.607165531151922  5.869731278809373 1.585303919038129 3.73123803071706  5.931241271020902 1.470954551097829 3.63890788076477  6.003811788755673 1.521802524562019 3.723143520091701  5.876209761937 1.528111459257463 3.765984779509691  5.937892715026884 1.415137385579548 3.670623239051646  6.010639581035568 1.464929886455801 3.756431825578156  5.882690540555694 1.47091451093403 3.800699025128769  5.944556142959676 1.35930045342412 3.702289350736456  6.017479307629721 1.408040500438918 3.789667688921116  5.889188432165757 1.413703664372038 3.835357619776556  5.951234354612554 1.303427227077732 3.733875675926461  6.024336041576375 1.351121731847044 3.822823730873215  5.895710700766963 1.356468300236001 3.869930809985384  5.415936615576159 1.76747794212196 3.829543721562169  5.510208810922753 1.739902615020119 3.779281059957719  5.560151690682121 1.809206832163931 3.8703627861144  5.565150083686828 1.752242432296306 3.915481350988537  5.515535370496262 1.68246631045352 3.819542114603097  5.421717557571541 1.710114740690478 3.872126754899024  5.427449883813793 1.652794572689832 3.914712921341735  5.520802627213631 1.625064780939137 3.859809422573865  5.570082138122606 1.695318061570845 3.96060323294279  5.43316018505447 1.595501044516257 3.957278575926355  5.526045077589841 1.567679606977529 3.900059660168856  5.574988308985768 1.638416872663678 4.005700277693413  5.438876188938131 1.538218222479157 3.999800137837683  5.531291642647473 1.510300790675166 3.940269603192791  5.579899051467466 1.581523898785084 4.050750308830621  5.444622289814543 1.480931824959624 4.04225404685008  5.53656945369229 1.452915452904411 3.980418141286401  5.584843762746161 1.524632914750349 4.095729156543393  5.450412828346924 1.423640980310952 4.084611574167074  5.541910866233059 1.395522373575933 4.020477340732794  5.589860770203267 1.467738182660009 4.140614985094958  6.048061329061011 1.753526424669786 3.714016225825756  6.105928912024901 1.823114331185758 3.800407844263256  6.112752058556755 1.766377722970102 3.841570603501824  6.055126256088657 1.696645493668303 3.751326408263537  6.119528774654186 1.709646897383211 3.882736365401819  6.062161716734385 1.639773781939122 3.788639940659084  6.126287935566375 1.652913482148348 3.923889788860631  6.069185435336496 1.5829032989408 3.82593942041193  6.133049069580767 1.596170048884591 3.965011954104689  6.076211938026614 1.52602585024463 3.863205326178504  6.139829974601218 1.539409774766126 4.006085243974685  6.083255059377777 1.469135115486201 3.900415735887752  6.146656454041683 1.482634296072807 4.047088853017373  6.090322767573616 1.412229506395721 3.937551040330928  5.776849310101472 1.754080033787597 3.759070221847552  5.783379632129387 1.696129210258565 3.797217211003653  5.789868430188689 1.638198508900008 3.835384633263708  5.796339427757785 1.580276163042645 3.873542078789455  5.80281311067977 1.522351184693559 3.911665753017767  5.809307893103753 1.464410430086616 3.94973214543061  5.815837440974688 1.406439017553757 3.987711551571754  6.228342536235769 2.171244106902373 4.147402785959907  6.301208919250128 2.25779974508619 4.198463223556109  6.191065991678955 2.315850509123879 4.22369735165187  6.188824671976296 2.283837697878706 4.299091102025976  6.303855104162398 2.21680818085367 4.268586464680295  6.232993975330031 2.127940411572662 4.214332842715202  6.23755508138111 2.084669063872317 4.281270590537416  6.306396086366243 2.175861883366913 4.338721603244143  6.186451421354532 2.251875008037295 4.374470439341573  6.308903013866527 2.134919525893834 4.408837426436418  6.242088175371863 2.041405225666955 4.348187779857594  6.184026183836025 2.2199186227757 4.449823722132669  6.246635467948951 1.998126546253588 4.415070008517396  6.3114220649369 2.093960242964793 4.4789165177826  6.181607419865909 2.187947720978812 4.525142120309971  6.251235566493062 1.954814153983786 4.481905683657794  
[...]
<PointData  Vectors="f_24"> 
<DataArray  type="Float64"  Name="f_24"  NumberOfComponents="3" format="ascii">2.1703695234896018e-04 -1.1838782383481723e-03 -9.3852908165421742e-06  2.2972425506140000e-04 -1.3913857497894510e-03 9.6061871860945826e-05  2.1858032602918443e-04 -1.2855958350499635e-03 3.2549733947068441e-05  1.9072345938879020e-04 -1.2343541984252996e-03 1.1308871971345387e-04  1.1974148058764699e-04 -1.2149808293098047e-03 3.6505013507681454e-04  9.9946721550903860e-05 -9.7282491790671934e-04 2.8115148890734835e-04  1.1000940110739237e-04 -1.0810324123789287e-03 3.2196719037505723e-04  1.3694252826938655e-04 -1.1339913503101060e-03 2.5375790526793805e-04  1.2878563931407574e-04 -1.0261104380016469e-03 2.1215978751379583e-04  9.1550756006328180e-05 -1.1610791668518262e-03 4.2999422455889600e-04  7.0625097739772475e-05 -9.1636479609718689e-04 3.5390993694700855e-04  8.2532075415143750e-05 -1.0241579734178298e-03 3.9367142406583334e-04  6.2318634790404034e-05 -1.1003205623088025e-03 5.0136640030575669e-04  4.0440054304012044e-05 -8.5560054470287588e-04 4.3385071031574085e-04  5.4215205096085550e-05 -9.6220826977835763e-04 4.7234009834107109e-04  1.7942584562619576e-04 -1.0315239551756683e-03 -1.1836128142756392e-04  1.9345453475503780e-04 -1.2505901292067178e-03 -2.1678521511105572e-05  1.8194300390868170e-04 -1.1369808273605476e-03 -8.9106810930810306e-05  1.6146519869148640e-04 -1.0638743681105549e-03 -1.0222149676495126e-05  1.7231397648489921e-04 -1.1864149901507129e-03 6.0781829938881033e-05  1.5665907258235418e-04 -9.5480682488902199e-04 -4.3873888139028560e-05  1.3540030522569613e-04 -8.8573003041208533e-04 2.5289789388866229e-05  1.5207311381585422e-04 -1.1252914452347855e-03 1.3561518358422728e-04  1.4242262928915224e-04 -9.9655784035802223e-04 6.2129654031583544e-05  1.1488615369230672e-04 -8.2063196978545544e-04 9.3497668297912170e-05  1.3227752719288094e-04 -1.0654689956841679e-03 2.0746421287085479e-04  1.2404561940765912e-04 -9.3241317137519061e-04 1.3256392236767932e-04  9.4467978274218525e-05 -7.5685440020686195e-04 1.6392491082999533e-04  1.1242264188453077e-04 -1.0047941984050110e-03 2.8005712395347423e-04  1.0581595168429977e-04 -8.6899965589294279e-04 2.0439260940918318e-04  7.3664009111585203e-05 -6.9260436647663310e-04 2.3923883202659672e-04  9.2056799760141075e-05 -9.4181157915656675e-04 3.5668280951033603e-04  8.7199811516983254e-05 -8.0459188241035042e-04 2.8048873177009121e-04  6.7639050598496930e-05 -7.3791866056800216e-04 3.6351368809594474e-04  7.0742670692777623e-05 -8.7548331241101636e-04 4.4048567799758132e-04  5.2206323354931360e-05 -6.2708747295562965e-04 3.2173160223128043e-04  2.1711980606086768e-04 -1.9120209783578289e-03 3.3216374975995514e-04  2.1193243565945262e-04 -1.9264145715035836e-03 3.2490240888807814e-04  2.1247750199609441e-04 -1.8427301824440951e-03 2.6965168683955809e-04  2.0443902651509586e-04 -1.8188975980843248e-03 3.3222028244384591e-04  2.0614069253689738e-04 -1.9103841063517531e-03 3.7705671125042386e-04  2.0902601972472870e-04 -1.8964653856544695e-03 3.8334776030480027e-04  1.9557261710166429e-04 -1.7902198000265463e-03 3.8757182989419137e-04  1.9921819947837807e-04 -1.8884712810285427e-03 4.2275203980417578e-04  1.9986228546548399e-04 -1.8749987934590388e-03 4.2800732002184398e-04  1.8584203601691628e-04 -1.7560354141707138e-03 4.3805886111735625e-04  1.9126629106944035e-04 -1.8602088646820576e-03 4.6379835873044294e-04  1.8973570023281540e-04 -1.8471693256922105e-03 4.6811556257524552e-04  1.7523126486883344e-04 -1.7152982479209798e-03 4.8614921920286095e-04  1.8233267062821439e-04 -1.8248315514129377e-03 5.0193028076136147e-04  1.7863989369579399e-04 -1.8122191710061937e-03 5.0530951743436576e-04  1.6368846289945273e-04 -1.6664901990700862e-03 5.3442026107239002e-04  1.7242046390907051e-04 -1.7809398498190589e-03 5.3895313444478820e-04  1.6648165801798822e-04 -1.7687397245302503e-03 5.4128325198060873e-04  1.5121007653072762e-04 -1.6075602790081580e-03 5.8590233682891081e-04  1.6158427493147585e-04 -1.7263260995630607e-03 5.7685738811241911e-04  1.5308782216177144e-04 -1.7146378685632345e-03 5.7796599636766735e-04  1.7939290015312145e-04 -1.9801190291395270e-03 4.9877733025446023e-04  1.8035411307231112e-04 -1.9236919905619247e-03 5.2160081880258909e-04  1.7281235014399718e-04 -1.9967859380766429e-03 4.8349752755303353e-04  1.6506653709445808e-04 -1.9658979142696273e-03 4.7382115891200950e-04  1.7256556391956264e-04 -1.8786394838803072e-03 5.3580870158481599e-04  1.7286425503667893e-04 -1.9424683779688770e-03 4.9942467229065776e-04  2.1534344154849032e-04 -1.9710313072102974e-03 3.8331871832323337e-04  2.0871473244369121e-04 -1.9633697145821009e-03 4.2257822473060105e-04  2.0083682834538810e-04 -1.9485710562921266e-03 4.5660864663918388e-04  1.9187534780450445e-04 -1.9269901312530635e-03 4.8636288894705068e-04  1.8186900876115329e-04 -1.8981653909334139e-03 5.1263581553739998e-04  1.7074128892092841e-04 -1.8608638292065950e-03 5.3610621427086381e-04  1.5840851345395342e-04 -1.8129415804545035e-03 5.5793772604361379e-04  2.2238311280140972e-04 -1.8767767340776287e-03 3.2473225676317040e-04  2.1603524923144223e-04 -1.8044265258899681e-03 2.5617839009352603e-04  2.0552749033997823e-04 -1.7784827993225717e-03 3.2080476287510082e-04  2.1131391881184340e-04 -1.8601068893806169e-03 3.7728303129568025e-04  1.9942975097066539e-04 -1.8377094313375187e-03 4.2322762624393478e-04  1.9435903505246751e-04 -1.7482411794484253e-03 3.7819026324118621e-04  1.8673508211880611e-04 -1.8091210502787509e-03 4.6451867017253842e-04  1.8248222820125434e-04 -1.7127919935385138e-03 4.3066838352442244e-04  1.7310327889083176e-04 -1.7735537393615878e-03 5.0293596525492854e-04  1.6976666476148022e-04 -1.6710038068791873e-03 4.8090247873192564e-04  1.5834408818321335e-04 -1.7295805285648894e-03 5.4031065405433089e-04  1.5610888452972796e-04 -1.6213986377206682e-03 5.3165074482428812e-04  1.4223728393599594e-04 -1.6752085548033457e-03 5.7866435909778829e-04  1.4158402404086478e-04 -1.5618941894444888e-03 5.8603375799761554e-04  1.8789641600600461e-04 -1.7599065839849905e-03 1.6844987642102493e-04  1.9703713372626520e-04 -1.8334039676908313e-03 2.2631097142416728e-04  1.9509470998088993e-04 -1.9247480504688038e-03 2.8148835879671590e-04  1.9457767355967869e-04 -1.8045986876992809e-03 2.9419738892561546e-04  2.0932381133466588e-04 -1.9877629189550224e-03 4.6345275158131904e-04  2.1016203944983233e-04 -2.0048565414142101e-03 4.5011503202483077e-04  2.1857006158164510e-04 -1.9680196146573572e-03 4.0556049924243018e-04  2.1009200011412347e-04 -1.9632498788975270e-03 4.3892382356672629e-04  2.0354639767000332e-04 -2.0080420437743711e-03 4.6795437350036185e-04  2.1185791623032130e-04 -1.9866073762532816e-03 3.8477734310948938e-04  2.0668247583574304e-04 -1.9793409893443647e-03 4.2315057349065461e-04  2.0027671554452824e-04 -1.9649479437497184e-03 4.5641232458807002e-04  1.9271075709020028e-04 -1.9436811565777749e-03 4.8546107173732346e-04  1.8408653417012680e-04 -1.9151253273797290e-03 5.1101019601691386e-04  1.7442428062928580e-04 -1.8781208338665147e-03 5.3364460370976621e-04  1.6369451178954191e-04 -1.8304995747592835e-03 5.5440036631605814e-04  2.1758724971898634e-04 -1.5677574935585154e-03 1.4487097678202699e-04  2.0711449655822200e-04 -1.4659993492660299e-03 8.1775783035626447e-05  2.0592234040023278e-04 -1.3751606898147993e-03 4.6575952571534591e-05  1.8448747003229962e-04 -1.3208063280767234e-03 1.2907131048627812e-04  1.8844910304131884e-04 -1.4166565727210605e-03 1.6399999372727469e-04  1.9862560783288680e-04 -1.5269305054549261e-03 2.2210741598978240e-04  1.7013290712922959e-04 -1.3673335357746194e-03 2.3772507145927458e-04  1.7988395526983761e-04 -1.4847085201319253e-03 2.9092027812574987e-04  1.6370238151785959e-04 -1.2679325042294519e-03 2.0359545827022132e-04  1.6094612763888316e-04 -1.4394714029133447e-03 3.5508375219497413e-04  1.5183030374630482e-04 -1.3165946461998865e-03 3.0716228679996619e-04  1.4318785301179046e-04 -1.2143522765235520e-03 2.7418561035498382e-04  1.4152128672508568e-04 -1.3897488991248229e-03 4.1805854865093270e-04  1.3321981071562827e-04 -1.2625985118455061e-03 3.7612088346528338e-04  1.2232737151175797e-04 -1.1583508455058548e-03 3.4475364183792108e-04  1.2123513530459645e-04 -1.3341002665347101e-03 4.8336395522225795e-04  1.1384812737047566e-04 -1.2039027508279907e-03 4.4819257517088670e-04  1.0083032255440796e-04 -1.0984162575002085e-03 4.1885212812239886e-04  9.9811834362357644e-05 -1.2711599966296417e-03 5.5463885462103235e-04  9.3525549717319567e-05 -1.1394549357691536e-03 5.2713526274762463e-04  7.8323877315345265e-05 -1.0337289351599742e-03 5.0001337782736173e-04  1.9524371737225313e-04 -9.6007775854847354e-04 -1.2283287676308931e-04  1.9950795577936096e-04 -1.0781967644830591e-03 -7.3108890830491722e-05  1.8555033355627156e-04 -9.3263626903805380e-04 -1.4012972292038378e-04  1.5878012836948301e-04 -8.5494455537900413e-04 -7.1290801508522709e-05  1.7160236583482768e-04 -1.0093456517685599e-03 4.5016447912235013e-06  1.6569549758662391e-04 -8.8694652581836216e-04 -4.9808355541278108e-05  1.3785030379936955e-04 -8.2137057652501315e-04 1.7821894207171319e-05  1.4490689277946156e-04 -9.4601616442658556e-04 7.5446111542153371e-05  1.3323697316214062e-04 -7.8567714962704549e-04 -6.2338308463249877e-06  1.1082622599563343e-04 -7.5963176789680352e-04 8.4270956151847888e-05  1.1882406631859760e-04 -8.8544828414085987e-04 1.4424037219162945e-04  1.0843213270559381e-04 -7.2097349159012285e-04 5.8611047826321081e-05  8.4024652022670875e-05 -6.9916354917007404e-04 1.5277754494061514e-04  9.2864376986525300e-05 -8.2503333998317331e-04 2.1437776529401628e-04  8.3809794835030974e-05 -6.5799764105346163e-04 1.2610298661246220e-04  5.7013844284782621e-05 -6.3824619021829075e-04 2.2603165572219938e-04  6.6601391065395664e-05 -7.6329907575934124e-04 2.8894067566055426e-04  5.8988777286363229e-05 -5.9500462123527242e-04 1.9860280320065462e-04  2.9455192926329451e-05 -5.7583673140650961e-04 3.0616397990209054e-04  3.9789926562202121e-05 -6.9923794498603573e-04 3.7047553006806907e-04  3.3791618733999680e-05 -5.3099424351706569e-04 2.7801725531037042e-04  1.9353482234673333e-04 -1.3311643060656872e-03 9.4111854808938752e-06  1.8103154910620588e-04 -1.1924363104406140e-03 -7.1638975187943426e-05  1.6254507632564629e-04 -1.1201185703229926e-03 7.9122096454158580e-06  1.7494405118042148e-04 -1.2693683108740842e-03 9.1836688308714854e-05  1.4522814164932794e-04 -1.0528482896949578e-03 8.1231333666329845e-05  1.5696687398453912e-04 -1.2101325178245819e-03 1.6691997898305287e-04  1.2852122565176137e-04 -9.8805522588878971e-04 1.5213272093944776e-04  1.3931683099998853e-04 -1.1511569539453257e-03 2.3863902791206959e-04  1.1187501131506539e-04 -9.2357359898807845e-04 2.2412610499761586e-04  1.2149083142764322e-04 -1.0906078991693875e-03 3.1079525088485390e-04  9.4846273052856252e-05 -8.5779129218356044e-04 3.0019938587498855e-04  1.0310684878146082e-04 -1.0270537938175863e-03 3.8674366329211735e-04  7.6996108584185649e-05 -7.8940986532898948e-04 3.8278930273114400e-04  8.3846270964558892e-05 -9.5982173115986922e-04 4.6961496493379116e-04  1.9570579055779667e-04 -1.1915022859463641e-03 -4.0668387637538609e-05  1.7219959901249181e-04 -1.1260867147165237e-03 4.1339307940089794e-05  1.4970654253224143e-04 -1.0655258014425069e-03 1.1603533592985702e-04  1.2771885897661821e-04 -1.0066080982785164e-03 1.8778767921506055e-04  1.0569489899556508e-04 -9.4727043849938280e-04 2.6042054266597452e-04  8.3180154550106572e-05 -8.8587465159426307e-04 3.3722957030474221e-04  5.9786790874069352e-05 -8.2124074807043122e-04 4.2135342832554058e-04  1.3192750683661933e-04 -5.6888408041748720e-04 -3.8065685215958443e-04  1.2464346403101150e-04 -4.8333468625480199e-04 -4.3020099273994618e-04  1.2532265857529630e-04 -3.9775223703958053e-04 -4.4675425788459958e-04  1.2297505265919698e-04 -3.3661872932009559e-04 -4.6474667094417222e-04  1.1733091501641017e-04 -4.0929677450242163e-04 -4.2915339797392079e-04  1.2046029999112010e-04 -4.8453721646276048e-04 -3.6717870352560665e-04  1.1167333019668176e-04 -4.1434937615284818e-04 -3.4556540175051338e-04  1.1192474146325341e-04 -3.4857596275940952e-04 -4.1660680384631707e-04  1.2052173912426217e-04 -2.8630789838502265e-04 -4.6729516747637690e-04  1.0725943158639589e-04 -2.9516341612242925e-04 -3.9496433915247806e-04  1.0385259385227593e-04 -3.5209595966177975e-04 -3.1669495550996175e-04  1.1788703188800624e-04 -2.4211819012015043e-04 -4.5845815751352438e-04  9.6013897600521773e-05 -2.9453876561725992e-04 -2.8111188822101194e-04  1.0238227456613512e-04 -2.4579325064478028e-04 -3.6546139677123628e-04  1.1475821563309927e-04 -2.0184345303351792e-04 -4.4077433632883165e-04  8.7829045856343410e-05 -2.3973370653616806e-04 -2.3924262518812577e-04  9.7173533228672574e-05 -1.9883303641999035e-04 -3.2925951207954049e-04  1.1077737041802558e-04 -1.6388215079872004e-04 -4.1576457471704050e-04  7.9212191329108806e-05 -1.8619972354300471e-04 -1.9122103775719593e-04  9.1090034715676592e-05 -1.5354335710983797e-04 -2.8760193799796263e-04  1.0549966980560166e-04 -1.2775861006463057e-04 -3.8424802979352139e-04  1.8576948488744575e-04 -1.0167906580275197e-03 -1.0877203586478581e-04  1.7467895618664535e-04 -8.7580467781664872e-04 -1.8354775329232291e-04  1.7420037700170259e-04 -7.7671976591234151e-04 -2.1963306124474848e-04  1.4943401961475702e-04 -6.9130573704308490e-04 -1.6724976246646183e-04  1.5053648293733866e-04 -7.9160536222626777e-04 -1.2227157547872074e-04  1.6033430948075321e-04 -9.3940638504724945e-04 -3.6002085504241950e-05  1.3640856669955222e-04 -8.7013262063435036e-04 3.2125349794225847e-05  1.2821583372740088e-04 -7.1792527151736925e-04 -6.2747588443660282e-05  1.2596108824691383e-04 -6.1737391575211287e-04 -1.1489106075763619e-04  1.1307141238782279e-04 -8.0455561274951702e-04 9.9088343848948823e-05  1.0664424312435221e-04 -6.5012387431220733e-04 -2.3078904394723845e-06  1.0329121816321639e-04 -5.4995459196132974e-04 -6.0259210326006828e-05  8.9857594507408828e-05 -7.4018516938841635e-04 1.6815012779500114e-04  8.5289674006316148e-05 -5.8502715583380095e-04 6.1449828551441460e-05  8.0954051470425494e-05 -4.8584065253066272e-04 -1.5307219704126900e-06  6.6373316768047417e-05 -6.7538318938218777e-04 2.4205135647955363e-04  6.3766422561288449e-05 -5.2071790300279469e-04 1.3039526410111441e-04  5.8571548255007588e-05 -4.2305310964460362e-04 6.2718897587999645e-05  4.1783042954744446e-05 -4.5614369497924445e-04 2.0604630850083280e-04  4.2349644285508419e-05 -6.0919984891966681e-04 3.2300008974230635e-04  3.5885933474280973e-05 -3.6042017152979706e-04 1.3372516839707158e-04  1.9621643948624674e-04 -2.0449312121989215e-03 4.5283727782835254e-04  2.0317525532240411e-04 -2.0214749142502941e-03 3.9573096846455297e-04  2.0639905797710956e-04 -2.0247392359889296e-03 4.2645952754583917e-04  2.0266443781785326e-04 -2.0244293650555413e-03 4.5167898841156164e-04  1.9772821116420628e-04 -2.0045396392106988e-03 4.5786017108984713e-04  1.9042419005889393e-04 -2.0478018509355015e-03 4.7499820601883499e-04  1.9745190722739994e-04 -2.0162740238260039e-03 4.7314440471604718e-04  2.0126958475423658e-04 -2.0167416951438338e-03 4.2906154774564225e-04  1.8553211993306383e-04 -2.0375998910195487e-03 4.8207203769812940e-04  1.9294902822670620e-04 -1.9852418393711594e-03 4.8266729039916461e-04  1.9102995478395131e-04 -2.0008497069716525e-03 4.9105612876924930e-04  1.7962699575515249e-04 -2.0205444444861336e-03 4.8540988960657120e-04  1.8712724396241072e-04 -1.9586111306363414e-03 5.0386653602263931e-04  1.8353319532371084e-04 -1.9782603475770265e-03 5.0527355610146553e-04  1.7500757659384868e-04 -1.9479071964875918e-03 5.1522214096750836e-04  1.6532372675936736e-04 -1.9076731965820307e-03 5.1957604464836226e-04  2.2062875219544078e-04 -1.7680567019851374e-03 2.4920452851428723e-04  2.0725494130161701e-04 -1.7410491476501035e-03 3.1470800026986526e-04  1.9332429967951084e-04 -1.7098409213587688e-03 3.7259292966797632e-04  1.7883705338908503e-04 -1.6736003435847779e-03 4.2558517260367818e-04  1.6356619498764975e-04 -1.6311614705362594e-03 4.7643844849514774e-04  1.4724018078886959e-04 -1.5809856094434801e-03 5.2796263053061295e-04  1.2950074719566480e-04 -1.5212172224451338e-03 5.8334277097042892e-04  1.9797928785934127e-04 -2.0050237460633095e-03 4.7631608257375665e-04  2.0567485216040190e-04 -2.0205402734953535e-03 4.5395450335078299e-04  2.0060882188075824e-04 -2.0248273637925168e-03 4.6937578231889923e-04  1.8264093464413826e-04 -8.1305140390585881e-04 -1.9047591524082224e-04  1.5467603162272800e-04 -7.2983049746346809e-04 -1.3220663680430078e-04  1.2831106196198235e-04 -6.5657614850089720e-04 -7.5772117367962048e-05  1.0290227913719835e-04 -5.8919106633303995e-04 -1.8445659562959601e-05  7.7881203775698947e-05 -5.2482953940862734e-04 4.2162327995255780e-05  5.2800303128361688e-05 -4.6159904436656634e-04 1.0795715308302461e-04  2.7287671022264329e-05 -3.9820033248727971e-04 1.8043899905905147e-04  1.7318410064058563e-04 -6.7123081607992931e-04 -2.6022286583110815e-04  1.4771427264973996e-04 -5.8575630766136339e-04 -2.1888299563641895e-04  1.2394970017050509e-04 -5.1241935937707103e-04 -1.7557467404849653e-04  1.0116697563557043e-04 -4.4619914805505274e-04 -1.2863405067947968e-04  7.8850390798286627e-05 -3.8391351549610972e-04 -7.6786484931217150e-05  5.6590915857626465e-05 -3.2354470119032238e-04 -1.9108434906096414e-05  3.4067576998697252e-05 -2.6399070599478338e-04 4.5130598759437088e-05  1.9499799409650618e-04 -2.0283577939692009e-03 4.7003347677604856e-04  1.9136413551470373e-04 -2.0377829695606467e-03 4.7377633005064390e-04  2.1703123233546027e-04 -1.4812381546292568e-03 1.0890846133988923e-04  1.9541222765301122e-04 -1.4366785543087511e-03 1.8834759903526505e-04  1.7418928285003823e-04 -1.3914141181723613e-03 2.5935689535786823e-04  1.5296612254324604e-04 -1.3439179451457111e-03 3.2589357780613389e-04  1.3134411685805753e-04 -1.2926055624006181e-03 3.9161969155067751e-04  1.0894453800792964e-04 -1.2360022519900535e-03 4.6016486478395722e-04  8.5431935343866950e-05 -1.1728554223310601e-03 5.3540167686644421e-04  2.0329544605098313e-04 -1.5034731098127415e-03 8.7782759586489852e-05  1.9698673407676898e-04 -1.5063788222531693e-03 8.0103869784195177e-05  1.8702054787876808e-04 -1.3340912540754238e-03 -4.5611476355453888e-06  1.7100932210670152e-04 -1.2702800779857558e-03 7.8093854330459742e-05  1.8342796122351856e-04 -1.4559929781699048e-03 1.6339043493092438e-04  1.8740068225410513e-04 -1.4547733271860529e-03 1.7039601863213740e-04  1.5571681531839204e-04 -1.2094859704991283e-03 1.5381474377292170e-04  1.7010160578859141e-04 -1.4058730859527531e-03 2.3814091282592769e-04  1.7166422579266633e-04 -1.4059076970567230e-03 2.4436929640192886e-04  1.4065578229431998e-04 -1.1492130618048744e-03 2.2624922136718162e-04  1.5663576468703252e-04 -1.3540774446232546e-03 3.0880631471076560e-04  1.5589462136975169e-04 -1.3553472655094888e-03 3.1398261307435488e-04  1.2542226702194270e-04 -1.0875591374998480e-03 2.9904966550536356e-04  1.4274369195953896e-04 -1.2989314831171352e-03 3.7900312397660545e-04  1.3972342639696062e-04 -1.3013985113634553e-03 3.8293992252811716e-04  1.0970358493387333e-04 -1.0230946265877840e-03 3.7552818365475408e-04  1.2821541275687769e-04 -1.2390174952652125e-03 4.5220903535432349e-04  1.2286382415073918e-04 -1.2425832326010884e-03 4.5478703635789939e-04  9.3254319616591479e-05 -9.5474777209681599e-04 4.5869636230650731e-04  1.1303324041330375e-04 -1.1734251264978403e-03 5.3168697499082773e-04  1.0503788018715907e-04 -1.1775107230744210e-03 5.3320067470154111e-04  1.4960055774130930e-04 -7.1420200945442416e-04 -2.9023060473320063e-04  1.4105091532182841e-04 -7.0634962231298640e-04 -3.1548145014599583e-04  1.3734482189610558e-04 -5.8484561631091296e-04 -3.5290021229698220e-04  1.2521999382959588e-04 -4.9931889504812958e-04 -3.3671743909614388e-04  1.2596268380615189e-04