<?xml version="1.0"?>
<VTKFile type="UnstructuredGrid"  version="0.1"  >
<UnstructuredGrid>
<Piece  NumberOfPoints="1063" NumberOfCells="4454">
<Points>
<DataArray  type="Float64"  NumberOfComponents="3"  format="ascii">4.902612084868541 1.468473936384188 3.42062816584029  4.987450543129818 1.528213147709057 3.512544599353532  4.846791063340706 1.531330489665432 3.547134383861237  4.853068316176036 1.47563817048588 3.578937226236635  4.993283683593704 1.472548114457358 3.543505878340805  4.909063684707703 1.414478745310096 3.450508335155616  4.9155248118881 1.36050659706965 3.480374428385462  4.999102514985604 1.416913238540713 3.574449787616349  4.859351300090709 1.41999648301774 3.610721664877022  4.865643574429752 1.36437997671261 3.642495312665719  5.004916998585844 1.361313525184234 3.605371618035668  4.92199292505489 1.306574654451077 3.510216162906475  4.928468762876191 1.252663187744085 3.540027856680713  5.010738345879608 1.305735503617145 3.636259630882622  4.87194410777092 1.308806467172365 3.674225849076081  4.878260012216465 1.253240376118202 3.705899304212136  5.016578052654402 1.250175827139156 3.667090599737562  4.934953891227254 1.198770498909557 3.569787968003235  4.884598880223742 1.19768853631513 3.737484226492301  5.022450006436156 1.194630608855595 3.697844959501749  4.941457475053717 1.144889421628005 3.599476817362736  4.680102075918017 1.051658348921923 2.71859553639236  4.802975734908745 1.08318651267892 2.754090686589028  4.738830191058629 1.124524099431383 2.862993432204408  4.746618232273208 1.073084713777428 2.890257275480963  4.809932958583091 1.029119358074707 2.777671553987671  4.687782692303051 0.9973572700489221 2.741051065854985  4.754476736095483 1.02168411383308 2.917544750416081  4.816915723050887 0.975070367368573 2.801273868867032  4.695535053308907 0.9430599691986752 2.763509227925448  4.762363583659877 0.9703050156166292 2.944825035751215  4.823911546276761 0.9210303555616628 2.82487594553066  4.703312495378058 0.8887648500417146 2.785964952482801  4.770251871723918 0.9189382919576861 2.972087006599022  4.830914772240143 0.8669951873710252 2.848470950943216  5.369710649250088 1.528487488675564 3.581663195552252  5.305418388069705 1.592930139815659 3.706917393400191  5.445451760921396 1.586674469295638 3.673544751231765  5.300223625372677 1.650658735119875 3.672006282837094  5.364755732466444 1.584659857804327 3.549595309492608  5.374604817103725 1.472332571264312 3.613728437340523  5.31056380028965 1.535229905110487 3.741827496888904  5.450652839373535 1.529349530505238 3.707598764190328  5.379472881453724 1.416194347546097 3.645777052811621  5.315686614101891 1.477554030924115 3.776719382342949  5.45582932618354 1.472039276066012 3.741638322700835  5.384343157666537 1.360065616245267 3.677792398540987  4.831136494763791 1.891321263282532 4.02409832430761  4.956296533320759 1.807208560709913 3.93321244455076  4.976695644055694 1.905080337784034 4.030774555801235  4.979962450638258 1.856854442211778 4.090669182711963  4.960587427937094 1.752508535189705 3.983168645038238  4.832259636170821 1.8444177038843 4.084574171904148  4.983163962773374 1.80873616175799 4.150542499110324  4.964832578722372 1.697901701296356 4.033137763494349  4.833302281387864 1.797630892979079 4.145034796380754  4.98635141877436 1.760681548904528 4.21037274508027  4.969067115333534 1.643356217317888 4.083080711799456  4.834325764283654 1.750920072983061 4.205447846991601  4.989555464478743 1.712642314159139 4.270131005011024  4.973314800884469 1.5888353359326 4.132962855279136  4.83537278644879 1.704229596021124 4.265783110915522  4.977597406385909 1.53430591542656 4.182760541123017  4.83648009968689 1.65751132822525 4.326022499706714  4.992807822224806 1.664597379849434 4.329782901788564  4.981920087553079 1.479738342949227 4.232444850838651  4.837676109968289 1.610745243775453 4.386155058150572  4.996126535036341 1.616515242538312 4.389335454811041  5.355087835250101 1.485707127186717 3.371309182754758  5.405190149822639 1.420765017535311 3.246170556434023  5.508055343992956 1.475432542368829 3.328056431514578  5.512746510016086 1.422429312912982 3.357652809612957  5.409433040592582 1.368508151225227 3.275300972755077  5.359710067103734 1.431852201806816 3.400773592089601  5.364263871206574 1.378003842111564 3.430233905497482  5.413595493457856 1.316257990627231 3.304427805973766  5.517368291925361 1.369429418293356 3.387254479255842  5.368786773716559 1.324167798135344 3.459678855678164  5.417720790643353 1.264014734309139 3.333541780897936  5.521958220687521 1.316431015083032 3.41684818357909  5.373308908836392 1.270338572511933 3.489097008603978  5.421842589968976 1.21177497669125 3.362633859089506  5.526546827925221 1.263429907509508 3.446420016289366  5.377860574220583 1.216510707990865 3.518472003932076  5.425996273461631 1.159532532119985 3.391691370087039  5.531166247863347 1.210417790657968 3.475953740017865  5.382481312056941 1.16267495335455 3.547782666559625  5.43022976412536 1.107276311108367 3.420697561160245  5.535858199546478 1.157381631006962 3.505425379696942  4.932984353255196 0.991383876826032 2.316058901283675  5.058146722835554 0.9978618934830064 2.248768543440937  5.056716652649123 1.008595071950822 2.413087748003575  5.061178700670107 0.9466201059440015 2.421135886788293  5.062090765338733 0.9346407686130932 2.247932228597182  4.937200947535636 0.9292158145650143 2.317724882648696  4.941294994203971 0.8670511484484895 2.319388910199712  5.065904858164353 0.8713838717788165 2.247096908093197  5.065530848038268 0.8846265739544152 2.42920981830412  5.069858031534742 0.822632752667396 2.437285711328324  5.069685109401187 0.8081230407645419 2.246261669629565  4.945354081252185 0.8048971097195611 2.321055129501493  5.074196202733721 0.7606432884811583 2.44536745756885  5.073482954113252 0.7448649599899901 2.245434066876752  4.949430338025695 0.74275924518109 2.322730987972412  5.078587923162906 0.6986589152337173 2.453462247396989  5.077354064864689 0.6816039456860024 2.244623269751175  4.953581051882413 0.680648583132361 2.324426225384735  5.083132483812847 0.636662328466717 2.461571222654923  5.081388799153361 0.6183053310267925 2.243841654190033  4.957918838063984 0.6185684920888397 2.32614814339776  4.647122213012714 1.781784227920057 3.931000684098614  4.792717524673092 1.791577731519552 3.93428819870781  4.673589667587787 1.887419889754674 4.022633587923739  4.6725313241435 1.843400391190737 4.084752976614333  4.796312067345836 1.73804634311288 3.985374495963003  4.649840968344114 1.729424126331409 3.982373598755002  4.652504240867977 1.677191265277316 4.033776368063616  4.799858647011806 1.684635462198693 4.036465459858852  4.671373045305248 1.799548597349555 4.146839994495474  4.655170173494651 1.625038264130869 4.085157039583494  4.80340263677106 1.631301795012253 4.087521828311845  4.670194758964044 1.755773350593725 4.208877528058636  4.806969333078184 1.577988685196371 4.138516010107108  4.657865185216171 1.572914282246382 4.136465372690602  4.669047159683084 1.712026601290566 4.270825970054948  4.810581506038329 1.524669579275666 4.189407840785521  4.660616230188422 1.52077363601799 4.187669365243877  4.667978733042442 1.668254356489355 4.332660838216143  4.814246683914056 1.471306044320721 4.240178912007699  4.66345378259075 1.468586080316675 4.238740364383411  4.667028483598727 1.624406000534985 4.394362380144915  5.465322806991656 1.537099652105958 3.44676886193156  5.470340267864888 1.482227101614623 3.476990320271536  5.475293766051038 1.427368828831248 3.507214482672278  5.480219291643729 1.37251751746581 3.537427464104772  5.485145663012442 1.31766850115116 3.567613324593659  5.490102047624378 1.262814365573916 3.597751469432748  5.49512322591737 1.207945300830779 3.627813033575908  4.919681027274324 1.591333621672817 3.636926206684248  5.065975321512891 1.591315603734877 3.610966035385178  5.00656964441204 1.660452823540904 3.738040712456943  5.012539360195545 1.603102140474893 3.776353921610155  5.071815311959484 1.53417768170844 3.643963760770661  4.925554990786289 1.534142583215367 3.670447150726219  5.018493467067957 1.545797314361389 3.814666451996764  5.077632299422318 1.477075893475673 3.676949665110664  4.931415553733339 1.4769941066729 3.703964423886754  5.02444196312905 1.488536237284486 3.852957681679507  5.083440477350132 1.420008310338157 3.709915841947556  4.937272946119226 1.419887061173683 3.737463760689714  5.030400316151702 1.431302639602645 3.891202537459493  5.089255088341233 1.362965214483304 3.742843483368874  4.943139942045488 1.362806888598984 3.770924125505812  5.036379955714995 1.374080448640901 3.929372293368328  5.095090500652608 1.305936583103052 3.775708942362806  4.949029515679785 1.305739264545849 3.804319514396416  5.042378536972093 1.31685561871691 3.967447530998022  5.100952673556055 1.248912003818089 3.808490079356717  4.954952169305904 1.248668376749889 3.837624388786209  4.749793613621895 1.707503437541614 3.835732708246462  4.75404817722641 1.651832551777005 3.879955217077107  4.75827191335163 1.596249207351344 3.924199278210969  4.762495177131938 1.540729762953843 3.968427435535079  4.766736518890696 1.48523969693404 4.012602201144335  4.771012055932987 1.429747519031258 4.056688413307742  4.775346896318733 1.374225838424669 4.100657647386655  4.890454931991977 1.727152920525324 3.843600997669601  5.029354911273415 1.733842127572862 3.833789080004188  5.033668994578558 1.6766095418555 3.876658598748755  4.896159088369723 1.670925248938919 3.887694789135004  5.037944000250499 1.619439686983697 3.919533521265038  4.901845198372588 1.614771771320621 3.931799081664803  5.042203196001859 1.562317238516951 3.962386917837504  4.90752698256267 1.558675117061034 3.97588541546644  5.046470797459179 1.505218140613386 4.005190910779469  4.913224414842045 1.502605403757086 4.019921146471169  5.050766985778258 1.448119800340658 4.047917464073166  4.918954706481157 1.446535269077627 4.063875638800713  5.055126347735795 1.391004439
[...]
<PointData  Vectors="f_24"> 
<DataArray  type="Float64"  Name="f_24"  NumberOfComponents="3" format="ascii">2.0131720697339615e-02 -1.1337959596247565e-01 2.5359599373822733e-02  1.9508415704756171e-02 -1.0792089155575836e-01 2.1199855004852369e-02  1.9445670732221636e-02 -1.0006646099552598e-01 1.7646542166377104e-02  1.6999895866511523e-02 -9.6579726279302308e-02 2.2903200873527926e-02  1.7161669420908836e-02 -1.0476260990072248e-01 2.6400726066265891e-02  1.7842313530245582e-02 -1.1106588626305398e-01 2.9872518832015679e-02  1.5597010036119987e-02 -1.0854546315827786e-01 3.3786064972054553e-02  1.4917836782366162e-02 -1.0153043188832406e-01 3.0958464323389522e-02  1.4621720756371154e-02 -9.3119419068425108e-02 2.7559756201135890e-02  1.2283022028949256e-02 -8.9533990357303639e-02 3.1859317240892145e-02  1.2694181725265772e-02 -9.8108198967622490e-02 3.5134102995593733e-02  1.3379022981621908e-02 -1.0569467893703659e-01 3.7320962385947225e-02  1.1132336785063044e-02 -1.0246621487089740e-01 4.0688082233504640e-02  1.0460290903475982e-02 -9.4363207454551803e-02 3.9210700163186306e-02  9.9296047416733910e-03 -8.5689896157695761e-02 3.6082494053691530e-02  7.5328343317780473e-03 -8.1429033689710273e-02 4.0462214038847040e-02  8.1789665055162757e-03 -9.0158974133764919e-02 4.3409329406768477e-02  8.8354144621882562e-03 -9.8690308013549444e-02 4.4084534196162838e-02  5.0521221830791838e-03 -7.6601157847019416e-02 4.5273470030521727e-02  5.8244452213048964e-03 -8.5344136216683936e-02 4.7985376108933588e-02  6.4456469147899506e-03 -9.4236841767162960e-02 4.7716082412899860e-02  1.6960750961689745e-02 -1.0998120777448391e-01 2.9394129734527000e-02  1.7007591897711088e-02 -1.1542713355404187e-01 3.2640558705961477e-02  1.8102479944627943e-02 -1.1782951482884607e-01 3.4652420542825031e-02  1.6165203741277667e-02 -1.1876040851330388e-01 3.2983343979094283e-02  1.5145248434700847e-02 -1.1613755834050252e-01 2.9961513748356667e-02  1.5049084178188590e-02 -1.1052990332780721e-01 2.6630087564162599e-02  1.4253383481663693e-02 -1.1915138453846606e-01 3.1515233807004522e-02  1.3317099027859819e-02 -1.1647237480857625e-01 2.7644878480626557e-02  1.3178243281424527e-02 -1.1079529978974505e-01 2.4270016936776006e-02  1.2338887503494567e-02 -1.1915120119770541e-01 3.0044673131112372e-02  1.1507454847101667e-02 -1.1655371030111317e-01 2.5421580891236414e-02  1.1326624402737143e-02 -1.1088188972411619e-01 2.2026400302634846e-02  1.0401369394977511e-02 -1.1888637834724783e-01 2.8383199591149478e-02  9.6901594570911569e-03 -1.1649023044628111e-01 2.3084158839687972e-02  1.6256156902219435e-02 -1.1086262292170096e-01 2.8648570518793839e-02  1.5378694711819289e-02 -9.4356540706933278e-02 2.0601036808667685e-02  1.5373967713679207e-02 -1.0184761364033369e-01 2.4014326440384669e-02  1.7528047894195896e-02 -9.9042857510844198e-02 1.4763952936149474e-02  1.8208946684223223e-02 -1.1442323906289970e-01 2.3175263722533104e-02  1.4347694043119813e-02 -1.0724881098420591e-01 3.3460687886316225e-02  1.3316090587042948e-02 -8.9909027166110753e-02 2.5813787951150715e-02  1.3482312899684035e-02 -9.7583167043107738e-02 2.9194783091020395e-02  1.2456624493303601e-02 -1.0345206634396457e-01 3.7898878497746452e-02  1.1291378394852163e-02 -8.5488760702303379e-02 3.0734480987230608e-02  1.1613131151253500e-02 -9.3280206983154132e-02 3.4047684554362946e-02  1.0553570857596353e-02 -9.9338411120970596e-02 4.2229074756900867e-02  1.5438356055480230e-02 -3.8080504787860958e-02 -1.2094456792064067e-02  1.5962441238261425e-02 -5.5164220337051630e-02 -5.2916697362885836e-03  1.5040688909638642e-02 -4.1612518750981736e-02 -1.1052358952429569e-02  1.2956076239193086e-02 -3.4955478176178646e-02 -9.4812664382973640e-03  1.3610801562536745e-02 -4.8531055004618136e-02 -1.6574891025498883e-03  1.3370717845352809e-02 -3.1497072787331319e-02 -1.0789455366458887e-02  1.1044823031286835e-02 -2.9301208448179850e-02 -7.3642299748982731e-03  1.1400297559955043e-02 -4.2817267428192952e-02 1.9309265046321647e-03  1.1470524733338393e-02 -2.5908295857270894e-02 -8.9434471558854003e-03  9.1956646849453583e-03 -2.4188060194315984e-02 -4.7632537691469660e-03  9.2728611133226311e-03 -3.7598141759083090e-02 5.7235120021372375e-03  9.6111267724584993e-03 -2.0874775127395741e-02 -6.5701227836097087e-03  7.3471085324178969e-03 -1.9366464374452046e-02 -1.6699558768489956e-03  7.1572582675767616e-03 -3.2612437930206024e-02 9.8575478135346055e-03  7.7352689979351876e-03 -1.6143419841670604e-02 -3.6943319151506041e-03  4.9988991803377111e-03 -2.7690005598118062e-02 1.4435163514992322e-02  5.8041671755867264e-03 -1.1559969891902198e-02 -3.1014509550269137e-04  5.4511154391189047e-03 -1.4696186071956092e-02 1.9209062729981575e-03  2.7593280846775190e-03 -2.2725256889071135e-02 1.9552148955197350e-02  3.7754130022789535e-03 -7.0350189982624177e-03 3.5759077299236893e-03  3.4933364761893806e-03 -1.0054867409601860e-02 5.9990866769997356e-03  1.9009708274364805e-02 -1.2970831099483990e-01 3.3250224023538284e-02  1.8812667401774334e-02 -1.3759685693251617e-01 3.9472849191495185e-02  1.8522985023050893e-02 -1.3590247638934649e-01 3.6885585514845921e-02  1.6983137944728187e-02 -1.3436573304971791e-01 4.0497799727225309e-02  1.7254194325724895e-02 -1.3675471658679297e-01 4.2186244091433546e-02  1.7244275105917188e-02 -1.2782449665194690e-01 3.7344136168960797e-02  1.5497543391273783e-02 -1.2556752657457204e-01 4.0859370990069033e-02  1.5689789056563781e-02 -1.3537447310519779e-01 4.4444847254010739e-02  1.5456240594675636e-02 -1.3239672407014108e-01 4.3574174161766857e-02  1.3749325317805270e-02 -1.2290554453459951e-01 4.3988311753446342e-02  1.4118423023248845e-02 -1.3348261822679852e-01 4.6367611236145481e-02  1.3917395661026767e-02 -1.2997042973102518e-01 4.6275285790245251e-02  1.1984899585861629e-02 -1.1976357972409611e-01 4.6903718574285727e-02  1.2533988418450211e-02 -1.3105912003378589e-01 4.8036437144374743e-02  1.2355752866494171e-02 -1.2703593413217637e-01 4.8745990352914333e-02  1.0178825575480353e-02 -1.1603533783787465e-01 4.9776128890717634e-02  1.0913387487505581e-02 -1.2804308870315037e-01 4.9514012031251269e-02  1.0754935508360501e-02 -1.2350726840878891e-01 5.1125414198342135e-02  8.3137495233000860e-03 -1.1157220202131371e-01 5.2783142435949906e-02  9.2509985004477265e-03 -1.2433067786733483e-01 5.0874216209313899e-02  9.1021745629100235e-03 -1.1925280530609263e-01 5.3526308368435666e-02  1.3221576241597996e-02 -9.6964083076954366e-02 1.6614659534005684e-02  1.2238721513400974e-02 -9.6241250517635255e-02 1.5602753261424089e-02  1.3092713628436867e-02 -1.0435213393002429e-01 2.2156701712144105e-02  1.1684385195896919e-02 -1.0330171485729740e-01 1.8773584432396483e-02  1.1048227977071352e-02 -9.4477034091011144e-02 1.2962587783368342e-02  1.1885787397768745e-02 -9.5414122089199457e-02 1.3831876722664159e-02  1.0561278817032400e-02 -9.4175969387837732e-02 1.1234833446125999e-02  9.8561886011563800e-03 -9.3096809424624172e-02 1.0492694477481048e-02  1.0282262419682992e-02 -1.0246369119457602e-01 1.5673400905665467e-02  8.9051329783331728e-03 -1.0180103803132398e-01 1.2706926263450997e-02  8.6836568176372510e-03 -9.2021312425090249e-02 8.0932752035620878e-03  9.2607122216995953e-03 -9.3193678601599453e-02 8.7213130112896078e-03  7.5388898258695516e-03 -1.0129260309594480e-01 9.7352676977492825e-03  7.5255017785055634e-03 -9.1201616258541382e-02 5.6760359289039723e-03  7.9692475133395970e-03 -9.2432954964553837e-02 6.2047634271532879e-03  6.1789475004622191e-03 -1.0094006222270963e-01 6.6550448221951875e-03  6.3759719600748827e-03 -9.0608444936688459e-02 3.1757378888741875e-03  6.6858245444367378e-03 -9.1875253249724578e-02 3.6108819693054768e-03  4.8300857258165141e-03 -1.0075389276485952e-01 3.3876596625347002e-03  5.2328363653464079e-03 -9.0228141584602517e-02 5.4023321463947188e-04  5.4099081608434373e-03 -9.1515290723693660e-02 8.8242802961319210e-04  1.6468872013669322e-02 -4.5672377389458535e-02 -8.0980214657152549e-03  1.6188762270229438e-02 -4.9999498238668082e-02 -6.6591809826844406e-03  1.5785033186425025e-02 -3.3024019667631840e-02 -1.3628204725635982e-02  1.3894832742260319e-02 -2.6596366542315265e-02 -1.2983594350777230e-02  1.3755146159684529e-02 -4.3386185016843097e-02 -3.4238969724516830e-03  1.4129599305780565e-02 -3.9183517463458370e-02 -5.2162411731579887e-03  1.1947421937723281e-02 -3.3708556077024672e-02 -2.1986478598890156e-03  1.1557918583787616e-02 -3.7754054004732480e-02 -1.0682208651199282e-04  1.2088307945384864e-02 -2.1173076921289658e-02 -1.1596932336011029e-02  9.8223177426953294e-03 -2.8714570675984191e-02 1.1310504557217073e-03  9.4016418591181174e-03 -3.2626024139485767e-02 3.4464745373264365e-03  1.0292871702474938e-02 -1.6278130840733693e-02 -9.6490000832620687e-03  7.2533868668770932e-03 -2.7736433145087093e-02 7.3791444569132475e-03  7.6870270647024369e-03 -2.3957814370348302e-02 4.8494020124015148e-03  8.4708439280463017e-03 -1.1697508850480298e-02 -7.1614141792303212e-03  5.0486283968526769e-03 -2.2913383807843701e-02 1.1775594656684133e-02  5.4942152658152650e-03 -1.9270819119181389e-02 9.0350433604751857e-03  6.5752092882565985e-03 -7.2745604043547452e-03 -4.1531260380891768e-03  2.7545848849132300e-03 -1.8069677413926309e-02 1.6705280641038461e-02  3.2154719395005977e-03 -1.4562156010226597e-02 1.3762198656960802e-02  4.5744411089719472e-03 -2.9134623248410776e-03 -6.5791063118368696e-04  1.8422222773607770e-02 -1.2649956549278960e-01 3.0227550631180669e-02  1.6692442143009925e-02 -1.2392018871134459e-01 3.5013970007439464e-02  1.4989682090153819e-02 -1.2109845610465106e-01 3.9157363835439586e-02  1.3291910886395518e-02 -1.1794901162848953e-01 4.2905382506324044e-02  1.1575592317949825e-02 -1.1436918075891699e-01 4.6477818854807465e-02  9.8185630082764912e-03 -1.1023669542084624e-01 5.0089051486816000e-02  7.9984840957298079e-03 -1.0541438426611913e-01 5.3972572454653013e-02  1.8680867144233192e-02 -9.2577552321875423e-02 1.3050218003668299e-02  1.8628234317012781e-02 -9.9921967678023652e-02 1.6215596329133844e-02  1.7595432943674324e-02 -8.2878975579823488e-02 7.9798617701084609e-03  1.5122059009025400e-02 -7.7551217374653522e-02 1.3429023092287809e-02  1.6276602497996857e-02 -9.5846244230438027e-02 2.1895720239010225e-02  1.6209769192077415e-02 -8.8284642822837434e-02 1.8652041276621751e-02  1.2780274505273559e-02 -7.2648433474354013e-02 1.8403643050597843e-02  1.4020580217330153e-02 -9.1893080794365811e-02 2.6914283023748937e-02  1.3833310206344290e-02 -8.4226358668153506e-02 2.3659383658272165e-02  1.0497587236214995e-02 -6.7916064487996419e-02 2.3194997018906618e-02  1.1807402746516090e-02 -8.7890880189563897e-02 3.1608842110086154e-02  1.1506127483442220e-02 -8.0171916830081916e-02 2.8362238928589453e-02  8.2227754464870989e-03 -6.3153170921075669e-02 2.8066772776039632e-02  9.5911577587683376e-03 -8.3676307427308180e-02 3.6250607363522203e-02  9.1804418228427342e-03 -7.5962820625270017e-02 3.3043950690267880e-02  5.9091939379189709e-03 -5.8207810226182988e-02 3.3259081878252918e-02  7.3306679834160542e-03 -7.9096763501679837e-02 4.1103245793558146e-02  6.8104647204599794e-03 -7.1429274375881036e-02 3.7965235523884949e-02  3.5174037314547597e-03 -5.2984734995494151e-02 3.8994074979841239e-02  4.9837225073603832e-03 -7.4022961101249563e-02 4.6424063679738087e-02  4.3492608232330180e-03 -6.6444463924494546e-02 4.3405267364042169e-02  1.7114664517305259e-02 -6.2119428120779356e-02 -1.1210513155219934e-03  1.4573422514065936e-02 -5.6052039912952226e-02 3.3745851976406923e-03  1.2177944373755974e-02 -5.0653478028636470e-02 7.5623109896093858e-03  9.8661093579009169e-03 -4.5638667661424090e-02 1.1756443745122341e-02  7.5654942058453649e-03 -4.0774263541655711e-02 1.6176161890142031e-02  5.2209344142927685e-03 -3.5895432450327017e-02 2.0995110817386926e-02  2.7904724484333456e-03 -3.0895436480422703e-02 2.6366965755834283e-02  1.6932871169731915e-02 -6.5503368120913105e-02 -2.6942583712261792e-04  1.6774590908461499e-02 -7.0965631806191268e-02 1.6296920242399239e-03  1.4348179110400429e-02 -6.4870993857450168e-02 6.5821055889048507e-03  1.4379127706359456e-02 -5.9410400917616291e-02 4.4244545821351226e-03  1.2038533477615083e-02 -5.9415903300565225e-02 1.1186561586232274e-02  1.2031515212755544e-02 -5.3962264614485313e-02 8.7838780330323045e-03  9.8092612474623073e-03 -5.4315525911423114e-02 1.5736071977334554e-02  9.7533737793374670e-03 -4.8900876530554173e-02 1.3132172130263318e-02  7.5968270458746448e-03 -4.9333895126479864e-02 2.0464461182783347e-02  7.4899951787533942e-03 -4.3985307796034552e-02 1.7694130890360722e-02  5.3495252960413667e-03 -4.4304662424815115e-02 2.5564127828942945e-02  5.1889124641312512e-03 -3.9051430170082842e-02 2.2645767431666304e-02  3.0223261615197942e-03 -3.9112695677349589e-02 3.1207479414151341e-02  2.8036287221815631e-03 -3.3983873954603949e-02 2.8149798419481859e-02  1.4484009585054542e-02 -1.3149105912415163e-01 3.7834479663327029e-02  1.5792503253927281e-02 -1.3723321890424914e-01 4.2260112117577082e-02  1.4552806083069435e-02 -1.3612531778851281e-01 4.0500423774030327e-02  1.7166066405404978e-02 -1.3631160476740425e-01 4.3371423438806428e-02  1.3307236916845535e-02 -1.3652188301272911e-01 3.8601613327908693e-02  1.3115904279161417e-02 -1.3195707463971637e-01 3.5625217357536099e-02  1.4393269749269185e-02 -1.3748730453242974e-01 4.1227338659035981e-02  1.2038323365546980e-02 -1.3649886145341586e-01 3.6706039499388353e-02  1.1733742516342441e-02 -1.3204313179804816e-01 3.3456510956548655e-02  1.2972705271516191e-02 -1.3722998465963412e-01 4.0118344362096936e-02  1.0762842008259560e-02 -1.3616815130151386e-01 3.4629590175520350e-02  1.0344055469780592e-02 -1.3186726944312657e-01 3.1124597836184455e-02  1.1541273487502004e-02 -1.3657173373553302e-01 3.8785199119330954e-02  9.4990477691106728e-03 -1.3562649813695676e-01 3.2197476690251338e-02  8.9527458369231070e-03 -1.3153252432801879e-01 2.8437130632593774e-02  1.0112664049371075e-02 -1.3560165450514169e-01 3.7065126300949901e-02  8.2665725324055361e-03 -1.3496708019199230e-01 2.9241276709972168e-02  7.5686258941125720e-03 -1.3115268059387777e-01 2.5222520004074333e-02  8.7116723518669663e-03 -1.3439324559981919e-01 3.4764793095329843e-02  1.9201190271524671e-02 -1.1650263592556204e-01 3.4474798870964947e-02  1.9544428969348573e-02 -1.2117964533140504e-01 3.6433130551578520e-02  1.7556169992110172e-02 -1.2192779325915815e-01 3.6230287555746379e-02  1.7148504288600618e-02 -1.1725667156754328e-01 3.3745922415373143e-02  1.5584722582374318e-02 -1.2205570489014587e-01 3.6018354730858557e-02  1.5118325834335982e-02 -1.1741720367400839e-01 3.3110694969522070e-02  1.3599900418785891e-02 -1.2169230997094359e-01 3.5708405227215238e-02  1.3082169173677211e-02 -1.1713826484594363e-01 3.2415538374178800e-02  1.1578211425992335e-02 -1.2093119687208802e-01 3.5190248744432044e-02  1.1012552598467958e-02 -1.1652113588564462e-01 3.1523688562666012e-02  9.4888531951658212e-03 -1.1983675314992344e-01 3.4309528941386773e-02  8.4203065683216664e-03 -1.1847965861739070e-01 2.6356207591656407e-02  8.8814120176458258e-03 -1.1565184985322724e-01 3.0276349391454765e-02  7.2861872743499416e-03 -1.1847823261503819e-01 3.2812636648332776e-02  6.3887200753086470e-03 -1.1807991751100803e-01 2.3847675538477806e-02  6.6723136261878195e-03 -1.1464060732135152e-01 2.8481190538176614e-02  5.5845786453558250e-03 -1.5999000538286321e-02 1.1477924159731632e-03  6.9344902524535960e-03 -7.9678828007474119e-03 -9.7696074768320127e-03  6.9194262658510775e-03 -9.2709239210458805e-03 -9.8922990171814388e-03  8.4657017222270429e-03 -1.2006973664993141e-02 -1.2220218409278730e-02  7.3371346948045042e-03 -2.0684723294005721e-02 -2.3411026992842515e-03  5.4230940837555518e-03 -5.4249400336044739e-03 -6.8429697752051240e-03  3.7843760622443671e-03 -1.1357754001597465e-02 5.1371426762566313e-03  5.3362715406338607e-03 -4.0610220136654412e-03 -6.7750498615597255e-03  1.8493297617369120e-02 -1.0765824171055817e-01 1.9724615989556337e-02  1.7700891731757058e-02 -9.2946227583024441e-02 1.2141672500729310e-02  1.5402030591475383e-02 -8.8073005833431764e-02 1.7883548610662933e-02  1.6340584941951640e-02 -1.0383068324515803e-01 2.5336440317393957e-02  1.3198907445335670e-02 -8.3509499945935844e-02 2.3071038865206010e-02  1.4251248813836187e-02 -1.0002985386363293e-01 3.0275511785273025e-02  1.1044433010231293e-02 -7.9026509604007950e-02 2.7987971845131160e-02  1.2190439541285614e-02 -9.6108568879262099e-02 3.4858322300235944e-02  8.8929636788622184e-03 -7.4435554954358066e-02 3.2917587204017579e-02  1.0123793701344372e-02 -9.1922960879072549e-02 3.9355946340134458e-02  6.7029240663150002e-03 -6.9578820476412562e-02 3.8118422657896701e-02  8.0166330367662311e-03 -8.7331473509288327e-02 4.4024646063158139e-02  4.4234604817287998e-03 -6.4328477213123209e-02 4.3847877644689774e-02  5.8354811851387732e-03 -8.2192681671229062e-02 4.9119234007928100e-02  1.3384948511047962e-02 -2.2592257979970679e-02 -1.6861346405483781e-02  1.1876979702484688e-02 -1.7585208371026503e-02 -1.6460236135930582e-02  1.0385097706348826e-02 -1.3108790999764688e-02 -1.5336976972581693e-02  8.8630562807909489e-03 -8.9602838772459246e-03 -1.3595853073153684e-02  7.2764709880726976e-03 -5.0108463108925983e-03 -1.1298680052887047e-02  5.6014379400416521e-03 -1.1741291653349125e-03 -8.4885042605543221e-03  1.8649137640008376e-02 -1.3159065259676975e-01 4.1095962092795355e-02  1.7314146389594692e-02 -1.3223096411112745e-01 4.1650737596150268e-02  1.8605457747034884e-02 -1.3547853120825312e-01 4.2281321763923435e-02  1.7014711049712243e-02 -1.3606195776390062e-01 4.2444557939580713e-02  1.5813001944340904e-02 -1.3326573239721903e-01 4.0154061939269986e-02  1.6965047341021600e-02 -1.3240682382831476e-01 4.0643810764646446e-02  1.5405826195804979e-02 -1.3597798908924108e-01 4.2486110275485302e-02  1.4296922437166916e-02 -1.3365541472466688e-01 3.8797633643151093e-02  1.5264833326019732e-02 -1.3256160340208253e-01 4.0180927503713409e-02  1.3783351528302987e-02 -1.3533857733858506e-01 4.2352339436481951e-02  1.2765466250133913e-02 -1.3356392344960441e-01 3.7394791523133401e-02  1.3552595272181528e-02 -1.3219022105319350e-01 3.9592071999084918e-02  1.2147229457795030e-02 -1.3421982427656365e-01 4.1963187320332329e-02  1.1221547039571067e-02 -1.3310630780331262e-01 3.5777728391763693e-02  1.1823839575507034e-02 -1.3137870191983139e-01 3.8762745266998293e-02  1.0498603967469950e-02 -1.3266395774647990e-01 4.1209132308736657e-02  9.6719468927470454e-03 -1.3237698025128117e-01 3.3768555298992926e-02  1.0078821836745362e-02 -1.3018377679319840e-01 3.7548087181568809e-02  8.8390864893003393e-03 -1.3069261738531257e-01 3.9928207408526671e-02  8.1283928450133942e-03 -1.3146678447137686e-01 3.1189767829122608e-02  8.3313291526333298e-03 -1.2864289068636175e-01 3.5759112390866522e-02  1.6230200138676498e-02 -1.4257887873101949e-01 4.5263168464244607e-02  1.6768778672558989e-02 -1.3956548338094413e-01 4.4004592950482389e-02  1.6883108339684986e-02 -1.4108995562123827e-01 4.4554852816961345e-02  1.8219780599433914e-02 -1.3917800456556867e-01 4.3514231051918949e-02  1.5473145510086397e-02 -1.4033280576304902e-01 4.5749941336120599e-02  1.4940131669254052e-02 -1.4231898739772944e-01 4.5416799641554081e-02  1.5304355779396881e-02 -1.3928772456033681e-01 4.4337296176834115e-02  1.4044842494080263e-02 -1.3902100075453616e-01 4.6678302397175298e-02  1.3625445129772257e-02 -1.4149150329886198e-01 4.5395851820774713e-02  1.3822824895964243e-02 -1.3844785379413380e-01 4.4470970969309638e-02  1.2599445914008418e-02 -1.3718826368143058e-01 4.7340580758975251e-02  1.2295290475983505e-02 -1.4017372966026215e-01 4.5125429931643112e-02  1.2327611308200445e-02 -1.3711221262565865e-01 4.4346479089639013e-02  1.1143594253415521e-02 -1.3482489213326240e-01 4.7709413786422544e-02  1.0964017916336612e-02 -1.3841453391997749e-01 4.4496484543246499e-02  1.0827365907169258e-02 -1.3531181775526999e