<?xml version="1.0"?>
<VTKFile type="UnstructuredGrid"  version="0.1"  >
<UnstructuredGrid>
<Piece  NumberOfPoints="1003" NumberOfCells="4359">
<Points>
<DataArray  type="Float64"  NumberOfComponents="3"  format="ascii">6.295917202692371 3.245075399111341 4.080354225475965  6.405817977821505 3.18736647556823 4.143558021735036  6.419617239215071 3.297253761916869 4.064938660382502  6.405809185813004 3.345403822625002 4.125821365540584  6.394698659229316 3.231275804179999 4.210275096036864  6.28374918258186 3.293445442216659 4.141858601372567  6.392138991369293 3.393474622013472 4.186658778910383  6.383676800464774 3.275101300998423 4.276914758215902  6.271671033661703 3.341690883525617 4.203360914028063  6.259660847282538 3.389865977874946 4.264851461958171  6.372716323003821 3.318858940762757 4.343497715672147  6.378552460465253 3.441468416981439 4.247451182638961  6.24769612769501 3.437997204352941 4.326320335086385  6.361788693089028 3.362546673934545 4.410047727421651  6.365004529759749 3.489401751383726 4.308214180729814  6.351447243964118 3.537269749213937 4.368970931041748  6.350865331109472 3.406156344882827 4.476579846795633  6.235732601403165 3.486084939663082 4.387779396332474  6.339913447568934 3.449681209108572 4.543141306270696  6.337819080634379 3.585059201665868 4.429732127645279  7.286632227865836 3.03274519213382 4.207078988381193  7.197695108995941 3.124988431660427 4.19570795435409  7.189396313753913 2.968405171405308 4.231253797694196  7.201590336437536 2.981442075427543 4.313743653418511  7.205649367047972 3.147810567551592 4.276279123075918  7.29920369902222 3.047042685783688 4.28950747971517  7.213713644126577 2.994555029804258 4.396187570130975  7.2135378064232 3.170719639667588 4.356764801740844  7.311715002371998 3.061414572176883 4.371880546419248  7.22581378567056 3.00767487495595 4.478585374698423  7.221401328214035 3.193641948154074 4.437175939979581  7.324203184368486 3.075789600140675 4.45419482082501  7.237911529162203 3.020760755205141 4.56094337226216  7.229259972247261 3.216525072833408 4.517530541239058  7.336685132302291 3.090123716142268 4.536461114178141  7.250019370335728 3.03378550778124 4.643277609795204  7.23712744044324 3.23933029927319 4.597853748380541  7.349165974553108 3.104380727559842 4.618697233410958  7.262159256667534 3.046705237058347 4.725619679809667  7.245015820755404 3.261997466048173 4.678187211027408  7.361647877226726 3.118529915653846 4.700926350412471  7.241751708589262 3.757330189008667 4.182890524097335  7.140192854181713 3.81201742064311 4.143777791538951  7.172995339249632 3.684304060963987 4.223623806219783  7.241924675538042 3.799449800693462 4.253921018029109  7.135559337780903 3.855143241029925 4.21311870229512  7.170411447421924 3.725206784395156 4.294966073731555  7.16781227566173 3.766023601253286 4.3662063933357  7.130900704287755 3.898188513681663 4.282333952759132  7.242080583292169 3.841461945106333 4.324821324554147  7.165215887602787 3.806650041539065 4.437395143817273  7.126233179707235 3.941073782570524 4.351451590912487  7.24224825623743 3.883293759560249 4.395618599574318  6.442189772941521 3.529017555537673 3.97285107698832  6.417942884403336 3.443728760452442 4.046521150839475  6.330178254033447 3.518428118543942 3.936354924479181  6.434544058385816 3.393733158370333 3.98996855186743  6.310893135909526 3.569972230810783 3.987235045504442  6.422015938835965 3.577748005814942 4.027410341729159  6.401521878382233 3.493668343395965 4.103057303496839  6.291722261216885 3.621462200632529 4.038139891236418  6.401967210359246 3.626429532361361 4.081949009382984  6.38519817451822 3.543545511778607 4.159565945473808  6.272592951476651 3.672928989778399 4.089043671431184  6.381957343148993 3.675058688722974 4.136466041295535  6.368909241284979 3.593364972623315 4.216051709849713  6.253412575380477 3.724378780521115 4.139942148290173  6.36189771444983 3.723621630316889 4.190960690962587  6.352585688508658 3.643117102055236 4.272527060347807  6.23407014727069 3.77581245345546 4.190842758838409  6.341650927108677 3.772070128054211 4.245431037789309  6.336152675098219 3.692800355532536 4.329015679571572  6.284994847798673 3.419161989412504 4.027901196048062  6.270053794315586 3.471294660060435 4.082208618489411  6.255198888052231 3.523364910503342 4.136530015799518  6.240383313139779 3.57541128866273 4.190847013185208  6.225540016639509 3.627447971178571 4.24516134981162  6.210618301665059 3.679497722640626 4.299477584029699  6.317628412536499 3.118399371689295 4.173093207679869  6.307690932586271 3.159980122447353 4.242322252962291  6.29781139609841 3.201449543085846 4.311481736250828  6.287979268715788 3.24284663597257 4.380588098312922  6.278180151926724 3.284186565927563 4.449659809154163  6.268395574142829 3.325467436089535 4.518713220382522  6.258613334383404 3.366680657234195 4.587767526533739  6.986995224276893 2.685967135271245 4.267232117622222  6.912851286054399 2.755152488753718 4.285507153711515  6.904120378896825 2.618057703749016 4.269854105591572  6.914076351629071 2.604343062132202 4.351815162846783  6.921683067417454 2.752813201667625 4.369326870768377  6.998977755830263 2.676682047154523 4.349766570128829  6.923972662547928 2.590676315658786 4.433789348809094  6.930455584006917 2.750519732168721 4.453129015503446  7.01089886569997 2.667435872830925 4.432301235893279  6.933861682294395 2.577014331085556 4.515761143780775  6.93921654139672 2.748233728022233 4.536915690296128  7.022806250519762 2.658190698212573 4.514827024925242  6.943765601234688 2.563331436936502 4.597722537678862  6.947993688023963 2.745927347392484 4.620688358083914  7.0347284838749 2.648929723484579 4.5973433307669  6.953698230184381 2.549607034597142 4.679671760004681  6.956805693411241 2.743569900219202 4.704451307124305  7.046676449940429 2.639631375439093 4.679850223550475  6.963680083429856 2.535821076691055 4.761610874701729  6.965672381847678 2.74112848706462 4.788216432732919  7.058665515259534 2.630264262212357 4.762357419391353  7.078276489861842 3.078160539303382 4.221169090290352  7.085992488744699 3.101627323300701 4.301302532877397  7.093638712190425 3.125161308232561 4.381350920583214  7.101261424114768 3.148704278930195 4.461330562551789  7.108886194183784 3.172209421159515 4.541264720896564  7.116552203968102 3.195652125171572 4.621180270859496  7.124272169566726 3.218960983301321 4.701118654349656  7.468208641950674 3.101794402455512 4.163648726314145  7.418466401535928 3.2064661827626 4.146877102028487  7.332546849990818 3.127800476646134 4.180323271572033  7.343898683905485 3.147598765932012 4.261873454982304  7.429038310457831 3.229478124000213 4.227698242945549  7.483142690069104 3.116036515842793 4.245396732683095  7.355187078403889 3.16748857877525 4.343330027158149  7.439547971259073 3.252582860484845 4.308395747204361  7.498011770874387 3.130345379118904 4.327067347781146  7.366449865451481 3.187383825078495 4.424705381147201  7.450023763433965 3.275686734672242 4.388994400947435  7.512854279725512 3.144649194441611 4.408657886150884  7.377701702424453 3.207230468184825 4.506019410479304  7.460480317331337 3.298732770214455 4.469518242072476  7.527685386039012 3.158902478446129 4.490184000028443  7.388948704274 3.226989915608926 4.587295793459119  7.470919450338905 3.321668756521091 4.549993657160817  7.542514858207786 3.173070010221123 4.571661847954044  7.400193231898595 3.246624525000084 4.668567052794643  7.481350823476999 3.344472089185301 4.630429587176312  7.557349955362561 3.187126931796892 4.653099027908879  7.01744735869122 3.75559899012993 4.16175519686935  7.009657802306965 3.797561814695877 4.230240877104999  7.001866250870495 3.839444108781204 4.298599291660213  6.994041904137061 3.881154703020665 4.366847238870639  6.433220977840971 2.702282238453268 4.388879426907413  6.468838114302277 2.582135336483504 4.390523317472733  6.33182914430958 2.585178319399914 4.384516460311778  6.469711682789987 2.590894616901548 4.306705073860953  6.436612316500061 2.700588267027124 4.304756185473353  6.467897261955614 2.573406203012007 4.474296996899291  6.429766719897874 2.704010392323708 4.472912680412295  6.326348541479702 2.578565760738127 4.468216265157606  6.466937739239347 2.564676882414771 4.558025388958898  6.426302157766407 2.705725510481791 4.556885381572786  6.32084852396995 2.571945895118898 4.551855680972337  6.465999520732876 2.555912121831938 4.641721687019422  6.422859474416689 2.707400264882334 4.640815549619278  6.315370339739459 2.565291410988285 4.635451052262634  6.465103479289807 2.54709447468632 4.725395410962439  6.419462178377997 2.709012229489766 4.724716797519236  6.30993920628649 2.558587936651538 4.71901455426875  6.46427566484231 2.53819704791424 4.809055090792504  6.760434199724414 3.031268088496447 4.252147480820289  6.752566307624556 2.89384017037231 4.285953109104801  6.840672518820599 2.96999643711373 4.268936180764642  6.842858350326619 2.988793270306744 4.350837993878026  6.755055005042832 2.908074922962994 4.368849125033425  6.759057920308705 3.055792431357359 4.33196404375954  6.757672061452213 3.080361563824576 4.411678869446511  6.757500991613427 2.922361799717657 4.451661720964077  6.845005634996367 3.007645543663469 4.432634255400757  6.759947177396054 2.936648003392238 4.534422130908533  6.756298975720928 3.10492534818621 4.491309735007145  6.847157232823135 3.026504011242833 4.514371618914414  6.75496074655226 3.129440848975606 4.570898673448966  6.762418818063145 2.950893714830571 4.617142259217467  6.849338806211382 3.045327560597288 4.59607632422356  6.753662644581636 3.15386115082714 4.650470448912627  6.764936465049373 2.965058666200306 4.699849306922621  6.8515596738092 3.064069356946781 4.677763038283826  6.752391439649059 3.178149056744239 4.730051405341423  6.767509942713211 2.979109307720776 4.782559672256353  6.85381906037817 3.082689536884403 4.759455255422494  7.38875642181271 3.015194890476496 4.190304390547722  7.404322704964906 3.026230525519039 4.272742788081057  7
[...]
<PointData  Vectors="f_24"> 
<DataArray  type="Float64"  Name="f_24"  NumberOfComponents="3" format="ascii">3.4263212734426314e-05 4.5147491824881162e-04 -1.5316862546377926e-04  4.8107359384131218e-05 3.1998301882661613e-04 -2.3712172123978946e-04  2.0967191021600069e-05 4.6720532397990659e-04 -1.3845216272166948e-04  5.2374518372812913e-05 3.7819786717719289e-04 -8.8876268877048265e-05  7.7870334696101060e-05 2.2996097335106950e-04 -2.0542577990045199e-04  6.5138483380894623e-05 3.5963701977994033e-04 -1.0587432822322335e-04  8.2178335303347436e-05 2.9842057230028993e-04 -3.8653909471210436e-05  1.0614881985570207e-04 1.5156935422424116e-04 -1.6934855928059213e-04  9.4686444263507961e-05 2.7830154594501901e-04 -5.7031520342199805e-05  1.2298530286960414e-04 2.0309279439425295e-04 -4.6365419067614426e-06  1.3299629130855388e-04 7.9500332774476142e-05 -1.2803465490386919e-04  1.1067488827066864e-04 2.2414943569277706e-04 1.4198350329770590e-05  1.5024134645790380e-04 1.3106177938416078e-04 5.2416394011493063e-05  1.5870747240199920e-04 1.0648936905740570e-05 -8.0971913236374266e-05  1.3804551242346935e-04 1.5277555161226261e-04 7.1183151045668499e-05  1.6429162536848004e-04 8.2145123935302674e-05 1.3330357739981796e-04  1.8320004693674592e-04 -5.6940798610774347e-05 -2.7913602824707136e-05  1.7631984759877147e-04 6.0101928805771382e-05 1.1502147195498288e-04  2.0623948981916297e-04 -1.2472826865362078e-04 3.1292724463510630e-05  1.8916140055116442e-04 1.0641107013296115e-05 2.0145951797805544e-04  2.0690742832552458e-05 -3.0778653542187364e-05 -5.4887867371630566e-04  2.1701071948949502e-05 5.0223281694339990e-05 -4.7343463726990309e-04  3.4415760968390082e-05 -6.7454932214067463e-05 -5.5459412247679232e-04  4.9727047831577241e-05 -1.1236220306985265e-04 -5.8768104309831197e-04  4.2004419070595127e-05 -1.9329647268290118e-05 -4.9046159474917469e-04  3.7536009992680594e-05 -8.4389466300710401e-05 -5.7920942603637221e-04  6.6618385682974942e-05 -1.5131017094514708e-04 -6.0515843469178762e-04  6.2438363872177724e-05 -8.0969339868000541e-05 -4.9545675663292170e-04  5.5522008620194546e-05 -1.3148066098436187e-04 -5.9492301267474702e-04  8.5293912385591162e-05 -1.8784616103119839e-04 -6.1041980080342158e-04  8.3651490359649278e-05 -1.3838859808504024e-04 -4.9017870934604498e-04  7.5135680556247849e-05 -1.7553971551446590e-04 -5.9893424455517285e-04  1.0576626419732198e-04 -2.2380329465108590e-04 -6.0601920659814903e-04  1.0604675495055850e-04 -1.9404840824100496e-04 -4.7618766806041091e-04  9.6707785224934791e-05 -2.1855465957838568e-04 -5.9339747449307651e-04  1.2806405321090668e-04 -2.6022194849657120e-04 -5.9379518554015533e-04  1.2985153696785286e-04 -2.4952072717056647e-04 -4.5468379817899284e-04  1.2039748507795921e-04 -2.6180263355426168e-04 -5.7997577280384928e-04  1.5225442318729794e-04 -2.9757900537630554e-04 -5.7483328208849890e-04  1.5514468618787908e-04 -3.0591351370133749e-04 -4.2649753103140577e-04  1.4602864966425531e-04 -3.0630026052116819e-04 -5.6031252371961323e-04  3.5713721492869018e-05 2.3361457764996469e-04 9.9842010730964413e-05  3.5218708218404603e-05 3.1071936426498937e-04 1.9343188296119863e-04  5.0946210571180843e-05 1.7880987180710737e-04 2.9273192572174196e-05  5.5544744348234453e-05 1.4405497022378823e-04 1.4858235133751859e-04  5.5689538678101211e-05 2.2200243202225638e-04 2.4469023223376124e-04  7.2674176886367440e-05 9.3037448307979549e-05 7.5202508374319844e-05  9.4742072067804803e-05 7.9570881492913909e-06 1.2570070879282735e-04  7.6318624268229744e-05 1.3419396891327121e-04 2.9944045275437668e-04  7.5863907751342317e-05 5.5368610807058987e-05 2.0143444474895133e-04  1.1762951428772706e-04 -7.8018983215582001e-05 1.8060586678324094e-04  9.7439533019235371e-05 4.6113816767424348e-05 3.5751793544712640e-04  9.7126612048503084e-05 -3.3879523027078677e-05 2.5826560836153051e-04  3.3171404140871879e-06 6.4140868733148296e-04 1.1043523070950489e-04  2.7628014595393965e-05 5.1693204627945445e-04 1.8379345044134904e-05  -4.5690963878808166e-06 7.1884335028903990e-04 1.4007263161618992e-04  -4.6603681925920287e-06 6.0156501237613341e-04 -4.2293360618751891e-05  2.7108596605476341e-05 6.4589765611258916e-04 2.0954190252072305e-04  3.4727124569071443e-05 5.6569730168368822e-04 1.7315714808673725e-04  5.8266021516748385e-05 4.3943835747613447e-04 7.7812767428231199e-05  5.7840669604949879e-05 5.7597379480816755e-04 2.7854007389234957e-04  6.4967227230471706e-05 4.9325781730378334e-04 2.3607713361690558e-04  8.7747950318139880e-05 3.6622297932971198e-04 1.3838193957017603e-04  8.7927809491637160e-05 5.0750541221768815e-04 3.4910129643878757e-04  9.4380126860189062e-05 4.2239141447348281e-04 3.0086907344886325e-04  1.1624545865303054e-04 2.9511585073097453e-04 2.0179355602156220e-04  1.1752391998287565e-04 4.3864861171969907e-04 4.2287276659062613e-04  1.2320082387502461e-04 3.5129344287133317e-04 3.6888436352432657e-04  1.4383769782252062e-04 2.2406852925712203e-04 2.6944045210391943e-04  1.4665269161899023e-04 3.6705599867172141e-04 5.0161148323251336e-04  1.5144100901840149e-04 2.7779194465722310e-04 4.4120614411927021e-04  1.7046181160264271e-04 1.5117106655213603e-04 3.4276755159412780e-04  2.8837455427437287e-05 5.6360629679922400e-04 3.7280799688694572e-05  5.9564288625108420e-05 4.8583554433563543e-04 1.0175002855695160e-04  8.9381722566620337e-05 4.1261155347962591e-04 1.6698601016458786e-04  1.1838270505684024e-04 3.4155760814388820e-04 2.3501943584586403e-04  1.4646498503826389e-04 2.7058739147314533e-04 3.0755138625298883e-04  1.7323236769916785e-04 1.9794170289032248e-04 3.8636527224914972e-04  6.3321118592129497e-05 2.6706317799879062e-04 -2.7081867519355735e-04  9.2312019449440681e-05 1.7799635021368762e-04 -2.4884586216532728e-04  1.1976032292480440e-04 1.0121403612321152e-04 -2.1983571337274175e-04  1.4584799353105986e-04 3.1056514565424201e-05 -1.8388462383299439e-04  1.7066638699899918e-04 -3.5808476003753286e-05 -1.4123629538963302e-04  1.9423956114768354e-04 -1.0140352412368109e-04 -9.2137991242991472e-05  2.1648461326513149e-04 -1.6674288902794813e-04 -3.6543514159836315e-05  6.8998143663936669e-05 -2.4547734598399544e-04 -5.7947537398422085e-04  7.1982939469481989e-05 -1.8774394143301117e-04 -5.6329984566484302e-04  7.8837866919535633e-05 -2.8250198629402740e-04 -5.6677951789907411e-04  8.4154688243124066e-05 -2.6116185635934307e-04 -6.0379518003876088e-04  8.2055176660829574e-05 -1.9622138240475535e-04 -6.0276925471810106e-04  7.6228224010316199e-05 -2.3626593339649759e-04 -6.1942496398683159e-04  9.1859916826106587e-05 -2.4304634346400430e-04 -6.2325273825763583e-04  9.4225493994689217e-05 -2.0469264177373021e-04 -6.2422275625104043e-04  8.5920894166411707e-05 -2.2889413129054522e-04 -6.4147541142466004e-04  1.0159919808331204e-04 -2.2805924655935067e-04 -6.2966899726831210e-04  1.0795580006320664e-04 -2.1316852264553112e-04 -6.3254049264055998e-04  9.7667461646535044e-05 -2.2318614295919030e-04 -6.5028773456949338e-04  1.1287971659904366e-04 -2.1546953185110440e-04 -6.2631441495439614e-04  1.2297012645935937e-04 -2.2226973252959076e-04 -6.3086101108760179e-04  1.1111621882101148e-04 -2.1904738332020128e-04 -6.4918102243366157e-04  1.2531141475306909e-04 -2.0472465644743809e-04 -6.1535591385068755e-04  1.3900574781249223e-04 -2.3232508097336698e-04 -6.2135923577943161e-04  1.2594902698125776e-04 -2.1634689499139690e-04 -6.4035743433777899e-04  1.3840856863270803e-04 -1.9547994485249104e-04 -5.9781446009677243e-04  1.5565707881222117e-04 -2.4359965390525411e-04 -6.0611016911125905e-04  1.4215120513755180e-04 -2.1526910269405568e-04 -6.2458666141477549e-04  3.6004414019756131e-05 2.8773515171889181e-05 -4.7440379961875433e-04  5.5309835662067853e-05 -3.7222254519304162e-05 -4.9181180169498827e-04  7.5439437252939999e-05 -9.4747194115373263e-05 -4.9676122948239172e-04  9.6340616037748864e-05 -1.4808825712179252e-04 -4.9133013680140625e-04  1.1817793990200428e-04 -1.9978733294144545e-04 -4.7725927814542759e-04  1.4120299331954030e-04 -2.5131181582215050e-04 -4.5584145304166138e-04  1.6581778152030820e-04 -3.0330199043458728e-04 -4.2787584173876358e-04  -1.9367006485138447e-06 1.0396433003669290e-05 -5.5739278820538614e-04  -3.0684795561291542e-06 9.6111155268091206e-05 -4.7560783130905676e-04  1.0061793508123000e-05 3.7798777718545664e-05 -5.0644434405498729e-04  2.9203243998415827e-05 -3.0055903189911515e-05 -5.2899398320774835e-04  1.6579513236815723e-05 1.9265671086994852e-05 -4.9219628576929514e-04  1.4614683221767314e-05 -4.9985740832073777e-05 -5.8829830877834925e-04  4.8574061425403385e-05 -9.0054132241784664e-05 -5.3789267836694150e-04  3.6015620101084915e-05 -5.0336969925244559e-05 -4.9578297955320738e-04  3.2140020990563014e-05 -1.0467832356136839e-04 -6.0456402415991423e-04  6.9199211387911664e-05 -1.4642850123525021e-04 -5.3592074423105347e-04  5.6724226036461122e-05 -1.1577846034621917e-04 -4.8881172448842392e-04  5.1487070488435757e-05 -1.5605006192475013e-04 -6.0892472808297396e-04  9.1646920677510328e-05 -2.0134115831277306e-04 -5.2483648028840105e-04  7.9485151044440900e-05 -1.7944262556894445e-04 -4.7305187302585386e-04  7.3485174167268924e-05 -2.0607708677319997e-04 -6.0358878440901231e-04  1.1621165164862772e-04 -2.5633524914390842e-04 -5.0608488538035840e-04  1.0477448228281962e-04 -2.4309414820640143e-04 -4.4998544184605060e-04  9.8721080991446669e-05 -2.5625812821256490e-04 -5.9037421799952984e-04  1.4283840120038070e-04 -3.1238437226242740e-04 -4.8098755019280179e-04  1.3251398743602835e-04 -3.0806039384535143e-04 -4.2076097018325264e-04  1.2767109062482667e-04 -3.0795325153632727e-04 -5.7093862608587986e-04  4.8938512998993015e-05 2.9746938032871646e-04 1.6070713949233636e-04  7.1720898953263429e-05 2.1210393665333180e-04 2.0965752626216999e-04  9.4529538682417265e-05 1.2765213001670348e-04 2.6223067493181954e-04  1.1780906707860501e-04 4.2851364438750621e-05 3.1840555286792452e-04  1.1644049818117810e-04 -1.5709598094577768e-04 -5.3880413223946172e-04  1.1470847640050841e-04 -2.1401703945845923e-04 -5.5744863242656846e-04  1.2197072376524607e-04 -1.9327753658366785e-04 -5.4115746853106573e-04  1.0603020165894578e-04 -2.2273363234791315e-04 -5.1938439250228210e-04  1.0235367189315308e-04 -1.4080527061046826e-04 -5.0011782240580351e-04  1.2347539270667944e-04 -2.0596302058309218e-04 -5.7541020240353886e-04  1.2998838051249187e-04 -1.7178263835418466e-04 -5.5872157632860971e-04  1.3199151933261750e-04 -1.8984262863070130e-04 -5.6078651105104693e-04  1.3223611030541862e-04 -2.0025655676165805e-04 -5.7985408049901922e-04  1.4299367431288421e-04 -1.8592467406976663e-04 -5.6444705809840774e-04  1.4136503673249035e-04 -1.8833101181518598e-04 -5.6656563421381709e-04  1.4092932233229123e-04 -1.9635600561772353e-04 -5.7436632323926151e-04  1.5539638840672313e-04 -2.0028138989417022e-04 -5.5990228670683235e-04  1.4983699790964208e-04 -1.8831754097577456e-04 -5.6198379623975442e-04  1.4915694115685073e-04 -1.9379714348392659e-04 -5.6137041523527146e-04  1.6695973760921023e-04 -2.1517677451121726e-04 -5.4749279963298245e-04  1.5711323263191215e-04 -1.8947320960022805e-04 -5.4940915691383116e-04  1.5646784031393481e-04 -1.9203069002446814e-04 -5.4317302923169799e-04  6.1910330418943042e-05 4.2246974484066251e-05 -4.3219186050305164e-04  7.4536418721430202e-05 -6.3495424797031306e-05 -4.9711105856716517e-04  6.3230029454392961e-05 -2.3813241605853146e-05 -4.8213666009895594e-04  8.2660943169820169e-05 -7.8651832103455654e-05 -5.0547465443890303e-04  9.1726072667089599e-05 -1.0810794915334998e-04 -5.2666299800807831e-04  8.4443747571002028e-05 -2.5041225735996681e-05 -4.4537358405633557e-04  1.0618194754736757e-04 -8.3529113387497111e-05 -4.4568355517925510e-04  1.0941902296350792e-04 -1.4650877752127425e-04 -5.3956449728159619e-04  1.0183628870077813e-04 -1.2612124185999813e-04 -5.1343696553967765e-04  1.2741411873651030e-04 -1.8221726578138828e-04 -5.4030352611967398e-04  1.2772094370224832e-04 -1.3713606785433974e-04 -4.3593238035645010e-04  1.2166780614019785e-04 -1.7015461420270364e-04 -5.1007050655231436e-04  1.4924310705407079e-04 -1.8829996974690822e-04 -4.1782755300811463e-04  1.4580672061726812e-04 -2.1669031825728431e-04 -5.3156613383114682e-04  1.4191309840141299e-04 -2.1260919683743749e-04 -4.9782561437349123e-04  1.7066888835742699e-04 -2.3876665840406446e-04 -3.9276306344141550e-04  1.6436740315735535e-04 -2.5120536754852959e-04 -5.1537935291499394e-04  1.6250980957727869e-04 -2.5487951692295150e-04 -4.7830795038616438e-04  1.9156244283080896e-04 -2.8972304407827128e-04 -3.6178701209068872e-04  1.8301962061145034e-04 -2.8656195364661313e-04 -4.9317784900055478e-04  1.8307646911998831e-04 -2.9794889448958996e-04 -4.5333698135982948e-04  1.1287560257013155e-05 -5.0017838675349050e-05 -5.8077018483397613e-04  2.6410155444541665e-05 -9.6992561327745999e-05 -6.1664065492049848e-04  4.3095927141413915e-05 -1.3923325189031576e-04 -6.3696750264214893e-04  6.1855001701913956e-05 -1.7902547244930226e-04 -6.4481617955552267e-04  8.3167861545354167e-05 -2.1812452967897122e-04 -6.4265624221545312e-04  1.0737144035927769e-04 -2.5768919730803386e-04 -6.3245957786686833e-04  1.3461862172969396e-04 -2.9848923563102590e-04 -6.1562255380460105e-04  1.1749927888844452e-04 -2.4921736472559980e-04 -5.3861720336188031e-04  1.2290835943807205e-04 -2.2538253131013284e-04 -5.5430121643925345e-04  1.2825884102858536e-04 -2.0556096028586914e-04 -5.5676649240258679e-04  1.3327238799231415e-04 -1.8866613727352790e-04 -5.4948144454099147e-04  1.3756628961517523e-04 -1.7368957676239970e-04 -5.3479376150897750e-04  1.4058908554752975e-04 -1.5984691981327920e-04 -5.1393286625326794e-04  8.5312772690367472e-05 -2.4138342615755447e-04 -5.5267173759773964e-04  9.1470256168388250e-05 -2.3184149797096345e-04 -5.9182795195626421e-04  1.0037426006236548e-04 -2.2416098086436965e-04 -6.1302322289659710e-04  1.1079051072324884e-04 -2.1826646659868387e-04 -6.2080500934472442e-04  1.2231232153383346e-04 -2.1395163153545583e-04 -6.1860016843076312e-04  1.3469585716495235e-04 -2.1101934523417342e-04 -6.0865531783156992e-04  1.4794054692815622e-04 -2.0945076310682255e-04 -5.9180197321367283e-04  -1.9290963617797345e-05 4.5873245458178931e-04 -8.2431155694095309e-05  -2.6723319893290322e-05 5.7225699215078844e-04 3.1618989452505695e-05  -1.2233461804423428e-05 4.3820648151965852e-04 -1.0116204942550253e-04  1.5459008832321510e-05 3.4252532678343965e-04 -6.8972611116327129e-05  6.7411440288915079e-07 4.7622250782325339e-04 7.2444369187898134e-05  6.0716270572588751e-06 3.5940788277369904e-04 -4.9038402643526783e-05  4.0683642882506056e-05 2.5337542139624084e-04 -3.3434504370417521e-05  2.5557559545267192e-05 3.8505608391888323e-04 1.1510202037801073e-04  2.9066803266379071e-05 2.6695725723878367e-04 -1.2066347470709824e-05  6.4572990920449093e-05 1.6852280095556115e-04 6.0251416840170518e-06  8.8026911997937443e-05 8.6096255328065830e-05 4.9869390334523818e-05  1.1157963245349842e-04 4.4028276895720915e-06 9.8407510393801599e-05  1.3553637321152241e-04 -7.8231323624646629e-05 1.5178634441099012e-04  7.0887099120762529e-05 3.7114856059441071e-05 -4.3163659103780051e-04  9.2409277830244585e-05 -2.8382694673319523e-05 -4.4635297568926366e-04  1.1379845539925197e-04 -8.4947935799686139e-05 -4.4808874244252908e-04  1.3488204591369048e-04 -1.3662209159177494e-04 -4.3911226670657281e-04  1.5571156350391044e-04 -1.8587472854623976e-04 -4.2157688234745335e-04  1.7621311167687593e-04 -2.3437838084425577e-04 -3.9694992432800499e-04  1.9625255067105444e-04 -2.8293108159344515e-04 -3.6570467888049962e-04  -1.8047668575339587e-05 5.1895016403475031e-04 -2.9220970417207503e-05  1.1091385383569610e-05 4.2573405456174275e-04 1.0336939995394630e-05  3.7690434133554125e-05 3.3783084746482716e-04 5.1361863002281215e-05  6.2832312112001457e-05 2.5376194029888988e-04 9.5305479721726085e-05  8.7285583595160047e-05 1.7200070800780238e-04 1.4279863936072059e-04  1.1167670967374709e-04 9.1043077360952187e-05 1.9426054497837533e-04  1.3640665146189563e-04 9.3258864174068012e-06 2.4987498819606618e-04  8.9721187297041948e-05 -3.4206555590676730e-04 -5.4628304359032975e-04  9.1516661463672785e-05 -3.0263561364439646e-04 -5.7598919764484250e-04  9.6133183703133823e-05 -2.6933716120381719e-04 -5.8885086345871395e-04  1.0271878565958574e-04 -2.4049370586002282e-04 -5.8953143811978819e-04  1.1070022155654907e-04 -2.1483942645468239e-04 -5.8095565778295275e-04  1.1967992480161263e-04 -1.9143397475904542e-04 -5.6504381826879982e-04  1.2942559717141371e-04 -1.6950676399478872e-04 -5.4329066124421616e-04  5.0826814853453956e-05 5.4692253178689559e-04 2.9736876477183896e-04  6.9076148779277527e-05 4.2523664390080090e-04 2.0340776282928724e-04  9.7496266704034376e-05 3.5291404957828073e-04 2.6424880668607121e-04  7.9974660538703138e-05 4.7502920491337291e-04 3.5952386897020259e-04  1.2539352162453310e-04 2.8052920233270149e-04 3.2830626614331539e-04  1.0887002526388150e-04 4.0303891962193935e-04 4.2403937083056317e-04  1.5299972264975486e-04 2.0610142224026856e-04 3.9636980793561401e-04  1.3820017640022659e-04 3.2915160738436033e-04 4.9157905189238797e-04  8.7983024404537840e-05 -1.9717130115367636e-05 -4.5876618059870607e-04  9.7698254764035699e-05 -4.8141594454338021e-05 -4.6611988463177118e-04  9.3853319094814696e-05 -9.4872999737949200e-05 -4.9520616830073521e-04  1.0974449069990516e-04 -1.2860230901336797e-04 -5.3000630860186452e-04  1.1728864267336690e-04 -9.1497727666932184e-05 -4.9477361070016709e-04  1.0787925374795355e-04 -7.2219873484239550e-05 -4.8141799326173820e-04  1.2555337213094727e-04 -1.5772527886179840e-04 -5.4624303585799818e-04  1.3598629389463145e-04 -1.2991656406637197e-04 -5.0442789897746311e-04  1.2741738866892501e-04 -1.1670998605842222e-04 -4.8766113145527366e-04  1.4119308951454222e-04 -1.8430442450129503e-04 -5.4939728828706921e-04  1.5367934529231486e-04 -1.6552901015651119e-04 -5.0173556270408559e-04  1.4650733545918532e-04 -1.5809201272915901e-04 -4.8177882622945419e-04  1.5647389124660605e-04 -2.0979726504088037e-04 -5.4272610413559847e-04  1.7044630066456978e-04 -1.9998270551695318e-04 -4.8953884400699914e-04  1.6507629712014829e-04 -1.9836714217819683e-04 -4.6652897810731407e-04  1.7136505418445603e-04 -2.3517533988809481e-04 -5.2849796240264744e-04  1.8616821030155190e-04 -2.3419430665966830e-04 -4.6974557693174802e-04  1.8302679713869290e-04 -2.3850858996767577e-04 -4.4387803185925496e-04  1.8608993470059157e-04 -2.6149595013489176e-04 -5.0849030001528367e-04  2.0057519834225279e-04 -2.6908435974455663e-04 -4.4459540997014057e-04  2.0031705658473921e-04 -2.7815534869150745e-04 -4.1581236130371063e-04  9.6232334422240967e-05 -2.9977597481116073e-04 -5.4093220310096231e-04  9.8274077777449142e-05 -2.7064003568156794e-04 -5.7429148179362008e-04  1.0376964390483474e-04 -2.4665174836148711e-04 -5.8959679230896655e-04  1.1082229752287217e-04 -2.2610291909298959e-04 -5.9213085736545409e-04  1.1881952140487788e-04 -2.0787352952753694e-04 -5.8507602526594116e-04  1.2750656414315802e-04 -1.9141944949963781e-04 -5.7061224583548605e-04  1.3706665967259593e-04 -1.7642290877172286e-04 -5.5084975731905649e-04  3.4229398427171271e-08 4.1724333827299195e-04 -1.3470627316775771e-04  -1.5827994869502934e-05 5.2868451357170520e-04 -3.7452145715750691e-05  3.5531999734224597e-06 4.3519593295682647e-04 -1.2586284187452481e-04  3.3800799910882339e-05 3.4538955519228102e-04 -8.4669045414781756e-05  1.4601294387929904e-05 4.3708047293883828e-04 4.9885670188880009e-06  2.9241831397824846e-05 3.2623798571423235e-04 -9.7972338957369513e-05  6.1835397628284025e-05 2.6393767739621546e-04 -4.2176790671852831e-05  4.2615482314103916e-05 3.5120149705173819e-04 4.8054080094587339e-05  5.6342841587800680e-05 2.4301022666199426e-04 -5.9254437748631247e-05  8.8483591430144510e-05 1.8727924042636775e-04 3.4623995624281065e-06  6.8971859990760287e-05 2.6943925384595446e-04 9.3487476753926289e-05  8.2069011890762399e-05 1.6444355453633269e-04 