<?xml version="1.0"?>
<VTKFile type="UnstructuredGrid"  version="0.1"  >
<UnstructuredGrid>
<Piece  NumberOfPoints="1006" NumberOfCells="4364">
<Points>
<DataArray  type="Float64"  NumberOfComponents="3"  format="ascii">5.883059090624669 1.137895224835634 1.934830855661549  6.023297255103823 1.1413376489409 2.003269925340385  5.900891216163044 1.111851372647142 2.060767029333515  5.908047404876442 1.050472819937264 2.049575734450051  6.031714174878361 1.080538234090863 1.989206873678406  5.890173922159942 1.077424738457245 1.918739500626944  5.91522918125168 0.98909101856272 2.038340472957659  6.040236101312726 1.019754493165084 1.975058494009832  5.897321585885609 1.016968066033513 1.902588645536061  5.9224281724298 0.9277241056601926 2.02708048699599  6.048813911264243 0.9589830780559762 1.960876955065633  5.904497356348268 0.9565264702950781 1.886411476207545  5.929631722490503 0.8663720747795876 2.015823840411918  6.057396328469959 0.8982193901975323 1.946696210066441  5.911674923675391 0.8960962723920831 1.870238374216189  5.936832161817298 0.8050308259824741 2.00459390460032  6.065940599758904 0.8374442511611342 1.932541282508768  5.918834637141731 0.8356676656771582 1.854092873540234  5.94403623416447 0.7436841604626825 1.993408347077047  6.459577792625137 1.352155949482453 2.900788914255584  6.361210316713238 1.384655763802969 2.984114067413468  6.36697995706405 1.312636968810692 2.860978311603914  6.37679725240938 1.260399001652022 2.889875911290594  6.369920431328125 1.333906897440869 3.014325003085697  6.46944780553941 1.300172910644662 2.93009987976981  6.386741444523509 1.208154381977455 2.918721938214331  6.378715232082034 1.283145568083951 3.044495315603618  6.479425929070207 1.248191724544279 2.959351843095224  6.396741268743714 1.155910002064756 2.94754124245251  6.387554114191564 1.232379141552277 3.074641504694096  6.489454088384795 1.196215481148303 2.988573776607004  6.406746144192767 1.103670520176358 2.976354196504694  6.396402853624259 1.18161199857406 3.104777585410097  6.49949151210294 1.1442476707045 3.017785268414666  6.416706557182025 1.051442889900132 3.005184326198589  6.405227677041173 1.130848152026196 3.134922412052431  6.509497742357547 1.092297866279601 3.047006523669568  6.426556945557763 0.9992371396151714 3.03406409162169  6.413989183034466 1.080096511673598 3.165111378252042  6.519411052905534 1.040381732206743 3.076269296723384  5.824902457826154 1.080152900234727 2.270116602782561  5.935493925129024 1.10113511888764 2.386574447069311  5.798084808677922 1.088336980341987 2.411883585660584  5.80461192900083 1.027100574696499 2.418108392665956  5.942185105816039 1.039625900895264 2.39197517797424  5.831639172282489 1.01799506971224 2.26985383389633  5.83835563515708 0.9558444471147667 2.269564438267259  5.948859496929239 0.9780955370608641 2.397344394066289  5.811124436627455 0.9658428243673466 2.424306964380847  5.845068522145448 0.8937131031120636 2.269261518336548  5.955533382714856 0.9165560782793514 2.40269543838987  5.817635271459257 0.90457862733879 2.430490781769391  5.824142764139371 0.8433175570428377 2.436674267051201  5.962212307824002 0.855018768461416 2.40804701126277  5.851783748433599 0.8316078114161106 2.268959830062721  5.830643743109341 0.7820630961901792 2.442867258638785  5.968907822858143 0.7934887654461745 2.413416608381823  5.858510983036839 0.769533088103412 2.268672929942057  5.837150079570955 0.7208239328033123 2.449078313865797  5.975642029731829 0.731972379702965 2.418805402249015  5.865267216253745 0.7074712886708474 2.268408895949522  5.919003195646338 1.112748370537206 2.515284455197738  6.06558889592373 1.12728545273027 2.479980311331555  6.072293978928005 1.066284093086069 2.489522071114206  5.925245580631906 1.05223663271548 2.526705907039303  5.931473154904922 0.99171976790899 2.538100479544052  6.079010469353864 1.005244146722975 2.49902827544402  5.937695815690844 0.931208324292057 2.54948025867229  6.085743409528281 0.9441820293021717 2.508518298592723  5.943919953186545 0.8707082986158436 2.560858423194858  6.092480685361202 0.8831102805967761 2.518010368767447  5.950148923407863 0.8102307384708788 2.57224299266083  6.099211944468125 0.8220267041993053 2.527517229946587  5.956393414582656 0.7497594251976251 2.583643390922971  6.105963057412709 0.7609293187201368 2.537051675339704  6.13526314562339 1.172371754815665 1.93583129096478  6.243584029000543 1.238077946583247 1.840096170865901  6.270909622678752 1.187845656146097 1.971458805503403  6.283818572156977 1.128621559731769 1.95168256519144  6.256000084937099 1.18230071501045 1.81278798572694  6.146191231887316 1.11320734431381 1.915377148449099  6.297040889962463 1.069530310603245 1.931819456598852  6.268725990621872 1.126690615939265 1.785402548536359  6.157359353018437 1.054131815811971 1.894838196641659  6.310377528383792 1.010533050810424 1.911945604903662  6.281588015183415 1.071194291498941 1.75801177794118  6.168618941221752 0.9951260921719006 1.87429016546413  6.323707661564138 0.9516038839451618 1.892098012180548  6.294459540586501 1.015773347770817 1.730658316098812  6.179861377750051 0.9361643825490334 1.853764345125439  6.336899446736825 0.8927189877685935 1.872301493422626  6.307210738268139 0.9604018116544968 1.703376073158021  6.190981434197973 0.8772170637043467 1.833282946790439  6.349745343741922 0.8337884699976434 1.85258064714803  6.319633785391818 0.9050123755972446 1.676199453370036  6.201896723891644 0.8182260489081112 1.812863390836406  5.314764487597004 1.236320136318191 2.933833097832489  5.290310583825518 1.161780168637321 2.799566698359138  5.410136285370098 1.195180542592574 2.846746591432562  5.41369333107356 1.142191856741949 2.873735070855588  5.294272552835145 1.108055994202013 2.826030052286149  6.161319603973583 1.148058959290464 2.058204429395575  6.323536437354083 1.165300598280368 2.106559275560409  6.171190167475372 1.125132760151518 2.185800867725833  6.179459600096286 1.062487086378115 2.179387051251198  6.336623746315049 1.104124743437274 2.093882375291355  6.17108677646196 1.08689170626088 2.044806007345929  6.187831040292981 0.9998544453556117 2.172909460616998  6.350019123382889 1.043049287162094 2.081127253936307  6.181034308329772 1.025761129990022 2.03130865670329  6.196248318354983 0.9372529662853557 2.166408663554634  6.363530469050583 0.9820474790477808 2.068352907332675  6.19106388692509 0.9646668183795711 2.017781576337922  6.20466259248289 0.8746782592570916 2.159915112929108  6.377045045269574 0.9210989072768504 2.055593674591141  6.20109509141226 0.9035961517474397 2.004260719965151  6.213036055911598 0.8121166388612195 2.153449501797849  6.390442905515418 0.8601877126382316 2.042871511235989  6.211058004749342 0.8425265105674011 1.990768689333883  6.221367199981843 0.7495375203336994 2.14701676320521  6.403498659571271 0.7992646025976395 2.030200804880288  6.220899420351214 0.7814187994379462 1.977336615166474  6.457820676711317 1.201266504698215 2.099552866047445  6.405135925737722 1.163381868146555 2.226464660208136  6.419361174601331 1.10115325670739 2.221001229169262  6.469899596935292 1.13964315503935 2.087596488081422  6.482208343937089 1.078171540382223 2.07554291617566  6.433913675724912 1.03904312446805 2.215478947864923  6.494625342904719 1.016771522458691 2.063453523317585  6.448572549591374 0.9769956445049387 2.209935401997814  6.50707454039702 0.9554173992963089 2.051366508200621  6.463237453671527 0.9149963716248642 2.204401057236098  6.519488099146816 0.8941006066707224 2.039302540265141  6.477795071894212 0.8530464722652047 2.198900225834487  6.531729955632666 0.8329019000420455 2.027346522284781  6.49195112653836 0.7911053323329993 2.193432561813688  5.620491139018592 1.108360013235883 1.932111412459045  5.743490794359405 1.150927521775793 1.846512203317038  5.769949857647795 1.111628304201506 1.989988660860506  5.776437207104377 1.050669911177928 1.976337797194378  5.749840268317966 1.09202857103592 1.825293115801425  5.626607723745359 1.047921670816316 1.9152208613504  5.632702734033641 0.9874927762006215 1.898317134245381  5.756177318168287 1.033116023239252 1.80403374464408  5.782917410651536 0.9897122611589605 1.962671400502788  5.638795976746193 0.927084464650485 1.88140244803138  5.762522859606936 0.974211378222761 1.782747915145824  5.789405704013508 0.9287660764329457 1.948987617803325  5.644886452605486 0.8666940980521975 1.864495203473901  5.768873996278875 0.9153087387469154 1.761464726078013  5.795893478197645 0.8678326334822883 1.935308705853988  5.802374851791391 0.8069090380373904 1.9216562476382  5.775239304169983 0.8563987582069563 1.740208020821724  5.650977123534666 0.8063257893742095 1.847616936247266  5.808873588843137 0.7459912563510642 1.908039537671221  6.020892663022329 1.150709850940701 2.624950416556045  6.157217477744318 1.158430655284428 2.603805227505686  6.118098407504039 1.209239707996947 2.740353431196583  6.126877312481215 1.154036588324364 2.764718624284445  6.165642877662757 1.099274471744529 2.621256630702037  6.027499666256699 1.091932860452406 2.642153031955573  6.135768204049806 1.098795195799468 2.789059457838837  6.174133167051917 1.040094995318916 2.638666301774936  6.03409169320072 1.033120331455673 2.659344498455845  6.14470704117678 1.043524319503962 2.813389315607336  6.182664770490759 0.9809199790292729 2.65605580710055  6.040681942695593 0.9742914879016993 2.676522598596491  6.153646675195961 0.9882375055020218 2.837727239340427  6.191193495399675 0.9217534640396172 2.673444953281999  6.047281915812393 0.9154593928201499 2.693704660357695  6.16254611742557 0.9329395246979191 2.862096517050816  6.199682415734183 0.8625942130817084 2.690853837658523  6.053912683238826 0.8566292808327243 2.710904686795764  6.171358538163366 0.8776283766826648 2.886519294958319  6.208115678167009 0.803434461790731 2.708311938316898  6.060609952378864 0.7977907670590323 2.72812483653708  5.657327744242278 1.087601969659815 2.062178362559849  5.66403915099618 1.02628734646741 2.0
[...]
<PointData  Vectors="f_24"> 
<DataArray  type="Float64"  Name="f_24"  NumberOfComponents="3" format="ascii">6.4326748900269300e-03 -9.3368670650756116e-02 1.3164361625962512e-02  5.9812270878184873e-03 -9.7688516418173527e-02 1.6049982085385703e-02  6.8798950659881147e-03 -9.9285940304018827e-02 1.7238070005297677e-02  6.1705999524833506e-03 -9.7183486097871585e-02 1.5167664350174821e-02  5.2782808930459104e-03 -9.5499221995150971e-02 1.4290506069029891e-02  5.8379104439248387e-03 -9.1213761619755973e-02 1.1860791260424901e-02  5.4868124478243659e-03 -9.5470872213176849e-02 1.3139171017470162e-02  4.6217134704837591e-03 -9.3741415621145352e-02 1.2583228078838689e-02  5.2757515682190026e-03 -8.9526994788314274e-02 1.0582590398042130e-02  4.8354547875853202e-03 -9.4083607576183753e-02 1.1105412208459878e-02  4.0122377692298284e-03 -9.2335331977140236e-02 1.0830578512713874e-02  4.7510575891103668e-03 -8.8193259033648455e-02 9.2329398264319063e-03  4.2135496938356656e-03 -9.2979504301036284e-02 9.0247096106725322e-03  3.4442940895671194e-03 -9.1226785335804347e-02 9.0021924099098569e-03  4.2582207527904550e-03 -8.7153239069519411e-02 7.7891642158696619e-03  3.6201911103492680e-03 -9.2119502717357346e-02 6.8628045164749810e-03  2.9111704090843344e-03 -9.0370771031784647e-02 7.0789963364353880e-03  3.7927230482279711e-03 -8.6365102794133869e-02 6.2371231368678268e-03  3.0543476026265465e-03 -9.1474755784168790e-02 4.5939252133924014e-03  1.3232825498588421e-02 -1.5186977250288694e-01 4.7668428685691648e-02  1.4347970430551643e-02 -1.5347076367706300e-01 4.8601731303960276e-02  1.3031734886491630e-02 -1.4932832036775548e-01 4.6908169181878817e-02  1.2669222785860709e-02 -1.5038370445803578e-01 4.4802860832999440e-02  1.4033466651930409e-02 -1.5428132069285344e-01 4.7965299227349038e-02  1.2968771968071953e-02 -1.5288856018909705e-01 4.6061823725462643e-02  1.2235907704282886e-02 -1.5082664685384131e-01 4.2929433504813055e-02  1.3632822243370738e-02 -1.5438353586160414e-01 4.7344089155243733e-02  1.2628811691981653e-02 -1.5323683248536957e-01 4.4613762717709948e-02  1.1749396992017821e-02 -1.5082305881078403e-01 4.1062795592152583e-02  1.3155631445525102e-02 -1.5393287756022855e-01 4.6610281939314734e-02  1.2225411499347768e-02 -1.5308786003074401e-01 4.3125998650439576e-02  1.1211817544957040e-02 -1.5050632328684765e-01 3.8994572040753357e-02  1.2609391328876686e-02 -1.5304122770492601e-01 4.5620317357729631e-02  1.1765243660451697e-02 -1.5257186758257674e-01 4.1410495611517779e-02  1.0620384896597470e-02 -1.5000385240700131e-01 3.6524717474664181e-02  1.1996978690077481e-02 -1.5179730841283823e-01 4.4197442264984184e-02  1.1249543986640659e-02 -1.5180813307244156e-01 3.9276558198723971e-02  9.9741448455062266e-03 -1.4945215840257076e-01 3.3456241847742804e-02  1.1319911519764294e-02 -1.5028463807276984e-01 4.2125338498518627e-02  1.0666356487203186e-02 -1.5094853676492931e-01 3.6538605253672432e-02  8.4199603398820051e-03 -1.0928857671741657e-01 2.3573893839275807e-02  8.8723186096808689e-03 -1.1733266060182308e-01 2.8439556010560817e-02  9.6137027124059884e-03 -1.1717237165248924e-01 2.8771967672393216e-02  8.7496139013158759e-03 -1.1612270730352406e-01 2.5092899132683286e-02  8.0637476823130372e-03 -1.1619204747871738e-01 2.4798104614269068e-02  7.5813162446737824e-03 -1.0769945111880667e-01 2.0418264394228992e-02  6.7686910686893219e-03 -1.0640893424921154e-01 1.7427674562344113e-02  7.2479674607606468e-03 -1.1522344200405343e-01 2.1402889013957260e-02  7.8979268671340273e-03 -1.1522666550471779e-01 2.1653637459477029e-02  5.9737256148313395e-03 -1.0535788489124145e-01 1.4499280745085219e-02  6.4504923445465202e-03 -1.1443014344724226e-01 1.8115035456438507e-02  7.0472905828633196e-03 -1.1448223216329086e-01 1.8343580900201606e-02  6.2093445106361804e-03 -1.1387590777635040e-01 1.5041147765437949e-02  5.6720341149698846e-03 -1.1379340400054963e-01 1.4830778685005644e-02  5.1985644287089660e-03 -1.0451599736887945e-01 1.1560763328675186e-02  5.3932552134018713e-03 -1.1339314862745413e-01 1.1651727059139928e-02  4.9115932706122068e-03 -1.1329840940071950e-01 1.1468698652790208e-02  4.4422978872828006e-03 -1.0385516371030776e-01 8.5437237933047479e-03  4.5908922943964387e-03 -1.1302551698043246e-01 8.1096745610568666e-03  4.1733552093688765e-03 -1.1293082652515091e-01 7.9528867412274225e-03  3.7108215160003687e-03 -1.0338262513047279e-01 5.3950877443598695e-03  9.9952290686208881e-03 -1.2467819370333630e-01 3.2827501162699856e-02  9.2314079468470232e-03 -1.2432995923941829e-01 3.2272871779350794e-02  8.4781044361923481e-03 -1.2355031233377134e-01 2.8380694944516220e-02  9.2057120806809667e-03 -1.2409543323310175e-01 2.9015634961021389e-02  8.3899994271311833e-03 -1.2358781039294098e-01 2.5458714774823622e-02  7.7011908062281573e-03 -1.2289101521558862e-01 2.4780090573615954e-02  7.5710344072444959e-03 -1.2313237499634515e-01 2.2025003156147565e-02  6.9276433984116143e-03 -1.2233714695536943e-01 2.1309209045143128e-02  6.7633410834789182e-03 -1.2273604968964856e-01 1.8580229251142694e-02  6.1684159704041199e-03 -1.2188183773355232e-01 1.7843950103080843e-02  5.9819170892516545e-03 -1.2241757943250274e-01 1.5020758020242959e-02  5.4328736950045031e-03 -1.2152649938126364e-01 1.4285085257615291e-02  5.2395313257972411e-03 -1.2224006497610349e-01 1.1288556429293941e-02  4.7329176169076288e-03 -1.2124470504365249e-01 1.0559777569186083e-02  4.9555179808510970e-03 -9.5251297122994918e-02 1.4070313839264166e-02  3.8711091017412580e-03 -9.2056491258309392e-02 1.1407972278664287e-02  4.4497332726561676e-03 -9.8080413163497887e-02 1.5601535901230576e-02  3.6321516145199260e-03 -9.5808782803789100e-02 1.4173073884193298e-02  3.2128606508187293e-03 -8.9970220286418226e-02 1.0943830954717628e-02  4.2409088848055203e-03 -9.3007292732691996e-02 1.2888239410171923e-02  2.9384366990531621e-03 -9.3970619855543044e-02 1.2633404314810547e-02  2.6633012514540267e-03 -8.8205577935208238e-02 1.0241516779932139e-02  3.6260399698965422e-03 -9.1237820880168435e-02 1.1581641637002768e-02  2.3309673676616825e-03 -9.2464298228523187e-02 1.0997112290224136e-02  2.2022923763318938e-03 -8.6751975716026469e-02 9.3815673766066993e-03  3.0765950435722288e-03 -8.9810867581471221e-02 1.0169559363281892e-02  1.7822460692413257e-03 -9.1242067784149006e-02 9.2797205731122764e-03  1.8048583024134744e-03 -8.5585420813661425e-02 8.4084195194481584e-03  2.5791531978030693e-03 -8.8668813988070222e-02 8.6688037506126893e-03  1.2768602087179083e-03 -9.0275105506849904e-02 7.4847180272936799e-03  1.4563592255786362e-03 -8.4686377073523833e-02 7.3541654002613208e-03  2.1234962953092869e-03 -8.7782049460157538e-02 7.0835752910628118e-03  8.0996057207285575e-04 -8.9549797975937234e-02 5.6083430422193097e-03  1.1493778143965643e-03 -8.4041346239604117e-02 6.2457281925504520e-03  1.7021040869087860e-03 -8.7140560171025755e-02 5.4117583985283570e-03  1.7166066405395745e-02 -1.3631160476738535e-01 4.3371423438868704e-02  1.5813470575083251e-02 -1.3053280875011727e-01 4.0307519861633515e-02  1.5768026528213630e-02 -1.3514244402892542e-01 4.2610269581400489e-02  1.4552806083058993e-02 -1.3612531778849782e-01 4.0500423774096656e-02  1.4484009585043901e-02 -1.3149105912413681e-01 3.7834479663394080e-02  5.5652966132909674e-03 -1.0144136475687773e-01 1.8084221670341842e-02  5.1911075048920131e-03 -1.0541095240570883e-01 1.9860821035436665e-02  6.3266360065684464e-03 -1.0812883382560880e-01 2.1922765415983137e-02  5.5083885008010433e-03 -1.0613082489666471e-01 1.9123067625014277e-02  4.2553596374884503e-03 -1.0324883471969136e-01 1.7559985420964552e-02  4.7774197235011147e-03 -9.9260876086769478e-02 1.6023115148446749e-02  4.7340640894961697e-03 -1.0455426298005840e-01 1.6362934705838553e-02  3.4517645124302865e-03 -1.0145391720518789e-01 1.5205034651632270e-02  4.0558389273149427e-03 -9.7461595091723682e-02 1.3973813609241820e-02  4.0008455449700607e-03 -1.0328467710146684e-01 1.3628601294066765e-02  2.7349662005017802e-03 -9.9980858580397597e-02 1.2821067239891955e-02  3.3898433983368692e-03 -9.6010650829733410e-02 1.1890648271705908e-02  3.3052230453887708e-03 -1.0225947331107556e-01 1.0867382618614375e-02  2.0751020609784954e-03 -9.8782671650477674e-02 1.0391883780321055e-02  2.7721677698500039e-03 -9.4850128588584659e-02 9.7477668636755197e-03  2.6425237474235175e-03 -1.0144926689920934e-01 8.0341612355813025e-03  1.4512367121375367e-03 -9.7824791128959906e-02 7.9000824946721844e-03  2.1918994123970663e-03 -9.3937235846325531e-02 7.5261855161023556e-03  2.0103821108300116e-03 -1.0084643085731892e-01 5.0956499826178741e-03  8.4823850396124857e-04 -9.7079144913585838e-02 5.3342013981695193e-03  1.6395105829113347e-03 -9.3239545899399312e-02 5.2091923077242060e-03  4.5492624999209858e-03 -1.0666828780508322e-01 2.0423488480344348e-02  5.8314781076443563e-03 -1.1285952111853384e-01 2.3833320021853920e-02  4.8489894403137045e-03 -1.1097995574095662e-01 2.0806204665546835e-02  3.6360456848790949e-03 -1.0450839737254872e-01 1.8034601046455098e-02  2.8492186689053974e-03 -1.0267645899958205e-01 1.5668948388814694e-02  4.0141994919588699e-03 -1.0948309776788961e-01 1.7799489403916777e-02  2.1500664056649274e-03 -1.0115893650159483e-01 1.3271840993482189e-02  3.2673099144696180e-03 -1.0825465483032719e-01 1.4819797948969520e-02  1.5060860248508874e-03 -9.9911371041612212e-02 1.0819037169046404e-02  2.5661977521854889e-03 -1.0724769073967749e-01 1.1816819340814634e-02  8.8990715142996449e-04 -9.8899601277585139e-02 8.2922801951512397e-03  1.8883707560642591e-03 -1.0644176466850075e-01 8.7476684457437025e-03  2.7907587674129864e-04 -9.8098553158792845e-02 5.6761216697530578e-03  1.2141301562295119e-03 -1.0584561346017037e-01 5.5937214800969555e-03  8.0333624156708212e-03 -9.0856491650197796e-02 1.0877091044405585e-02  7.0721714477770519e-03 -8.8707458295405217e-02 9.1378808767101950e-03  7.3061996003533670e-03 -9.4781778907648676e-02 1.4139099861433274e-02  6.6642374417118701e-03 -9.2681507192972912e-02 1.2562761575175644e-02  6.5965969899836390e-03 -8.6628508193553902e-02 8.5450989952353291e-03  7.4550228297023602e-03 -8.8726649827991444e-02 9.8109871699312064e-03  6.9106546650266948e-03 -8.7030222333639204e-02 8.6687410445406045e-03  6.1738885868638663e-03 -8.4983197240241642e-02 7.8588770957258528e-03  6.0532359084608401e-03 -9.0967851320753357e-02 1.1008841653603569e-02  6.3990613916002472e-03 -8.5688206334729428e-02 7.4732365769146804e-03  5.7859163676442513e-03 -8.3697051361541958e-02 7.0690815561159758e-03  5.4690911986901942e-03 -8.9594459763463030e-02 9.4147812182417152e-03  5.9114012591056347e-03 -8.4644969965289710e-02 6.2003580288154244e-03  5.4279299196937324e-03 -8.2708890624069747e-02 6.1715204470299137e-03  4.9110919548638358e-03 -8.8513552812246363e-02 7.7503342625057639e-03  4.3774351182100163e-03 -8.7686471716744999e-02 5.9918415068129392e-03  5.0902243055451100e-03 -8.1985080533168983e-02 5.1701009471299617e-03  5.4423932830029477e-03 -8.3864749158875387e-02 4.8316516694429865e-03  3.8642510815066825e-03 -8.7081908904127425e-02 4.1169760691890786e-03  1.0835440200966405e-02 -1.3237554060679216e-01 3.7391974282747036e-02  1.0192750884420348e-02 -1.3264194779274949e-01 3.6796397446359305e-02  1.2010159458023768e-02 -1.4014286164709525e-01 4.2500806703236568e-02  1.1384782223308017e-02 -1.4092946774232989e-01 3.9225138834080103e-02  9.5096071634805067e-03 -1.3260849342940995e-01 3.2911884885321173e-02  1.0098625647721401e-02 -1.3237942289101562e-01 3.3627245845480866e-02  1.0735936549979968e-02 -1.4130541532223745e-01 3.6313252742859063e-02  8.7960291383176667e-03 -1.3253674922417413e-01 2.9405821951152749e-02  9.3283747671545261e-03 -1.3228825119528448e-01 3.0188457620910471e-02  1.0056389181111364e-02 -1.4143003603855428e-01 3.3510085709880691e-02  8.0774235474033642e-03 -1.3242473353122858e-01 2.6025852184719072e-02  8.5525540854034746e-03 -1.3213378437866363e-01 2.6868062587879517e-02  9.3578147954921607e-03 -1.4141435928939208e-01 3.0598803113200037e-02  7.3575653793798912e-03 -1.3230370356633503e-01 2.2591401232296228e-02  7.7771629022517644e-03 -1.3195708205315804e-01 2.3504653704392239e-02  8.6441608709892197e-03 -1.4136544670601836e-01 2.7413405156303784e-02  6.6429777506089955e-03 -1.3223109092685492e-01 1.8972444090598346e-02  7.0164881242362918e-03 -1.3181145746643583e-01 1.9980613649164515e-02  7.9131865176024791e-03 -1.4138171743199293e-01 2.3814198828549182e-02  5.9542216116286730e-03 -1.3229989512407889e-01 1.5085360658629518e-02  6.2925242564182545e-03 -1.3175336887105282e-01 1.6205391538846644e-02  8.2765858321343887e-03 -9.6947645128687809e-02 1.5702089814842220e-02  7.5311187815896167e-03 -9.4910814687712799e-02 1.3737135567281624e-02  6.8249196490632142e-03 -9.3210064072624763e-02 1.1840986294684986e-02  6.1488462990734001e-03 -9.1840932633850347e-02 9.9384635886475923e-03  5.4954901487431120e-03 -9.0756766167764444e-02 7.9873165335821381e-03  4.8608773438148390e-03 -8.9918141149875494e-02 5.9569012070478759e-03  4.9840680139895772e-03 -8.3321436867327667e-02 3.3555304922751601e-03  4.2391608056314405e-03 -8.9284004285067539e-02 3.8218165994522526e-03  1.8219780599425354e-02 -1.3917800456554497e-01 4.3514231051978401e-02  1.7479584293262872e-02 -1.4216741981135719e-01 4.4982132983092400e-02  1.8272795728116509e-02 -1.4122594254487944e-01 4.3062629373698369e-02  1.6883108339675944e-02 -1.4108995562121190e-01 4.4554852817021151e-02  1.6230200138667061e-02 -1.4257887873099723e-01 4.5263168464306634e-02  1.4422438109751669e-02 -1.2908436418571842e-01 3.8797926680247175e-02  1.3231096034615563e-02 -1.2978246051157233e-01 3.5656608282877235e-02  1.2024662577985828e-02 -1.3014342817149585e-01 3.2858593801678104e-02  1.3115904279149862e-02 -1.3195707463970061e-01 3.5625217357605300e-02  1.3307236916834209e-02 -1.3652188301271312e-01 3.8601613327977159e-02  1.0803222048250150e-02 -1.3023805183238873e-01 3.0166955241382978e-02  1.1733742516329965e-02 -1.3204313179803148e-01 3.3456510956619917e-02  1.2038323365534731e-02 -1.3649886145339898e-01 3.6706039499458908e-02  9.5756523890076078e-03 -1.3016283702925135e-01 2.7371358314618201e-02  1.0762842008246417e-02 -1.3616815130149607e-01 3.4629590175593042e-02  1.6475184353226240e-02 -1.4255093454486606e-01 4.5767683044326879e-02  1.7415089431991580e-02 -1.4448585313143214e-01 4.5277455394572792e-02  1.6246507993305712e-02 -1.4463587876310313e-01 4.6140426584573929e-02  1.5374647622485173e-02 -1.4328849227995266e-01 4.5104150099176399e-02  1.5053018540198013e-02 -1.4411867000863907e-01 4.6804651540088678e-02  1.4228713485391446e-02 -1.4334740731649367e-01 4.4436575774241066e-02  1.4940131669243713e-02 -1.4231898739770601e-01 4.5416799641618100e-02  1.3825405883902565e-02 -1.4303028265924511e-01 4.7248485443448299e-02  1.3052108162975085e-02 -1.4287564786031279e-01 4.3647633131867855e-02  1.4906166574361904e-02 -1.5467334136260069e-01 4.8592164992246556e-02  1.4866944105412795e-02 -1.5364134886906344e-01 4.8609824195029711e-02  1.5472422979859641e-02 -1.5225282691524225e-01 4.7494017619502359e-02  1.5328454217656521e-02 -1.5314025801023048e-01 4.8426807232725910e-02  1.4891175709069612e-02 -1.5127223048762986e-01 4.9103221151127488e-02  1.4450603034730430e-02 -1.5426982577431803e-01 4.9109908157473452e-02  1.4314196483906017e-02 -1.5345042830866049e-01 4.8687273878935379e-02  1.4236257150606358e-02 -1.4973647982599550e-01 5.0407167790942918e-02  1.3914792771612580e-02 -1.5329165498025210e-01 4.9413862141282239e-02  1.3692026582378877e-02 -1.5269202719049393e-01 4.8580589027089206e-02  1.3509903781834654e-02 -1.4765944819412641e-01 5.1429527726722574e-02  1.3306407893628183e-02 -1.5180078327280483e-01 4.9443037950736041e-02  1.3001769733465490e-02 -1.5144988451639452e-01 4.8196983060404125e-02  1.2705898370783562e-02 -1.4500234746313054e-01 5.2170124380350999e-02  1.2623947905172088e-02 -1.4981633149752230e-01 4.9099603275205898e-02  1.2241033785738599e-02 -1.4977138811731053e-01 4.7405179661469544e-02  1.1807117992841537e-02 -1.4165798216193318e-01 5.2621279397582411e-02  1.1844167916892268e-02 -1.4733251819851373e-01 4.8237581322613625e-02  1.1403801296229693e-02 -1.4767120374151904e-01 4.6036597242062542e-02  1.4145694648419685e-02 -1.5081780215452772e-01 4.8218920092557661e-02  1.3724990970768066e-02 -1.5180161104369724e-01 4.6934893923241759e-02  1.3221395806814085e-02 -1.5212174204853945e-01 4.5757680058737607e-02  1.2656059757314306e-02 -1.5191966678024174e-01 4.4533759080643394e-02  1.2031835329510290e-02 -1.5132895899438642e-01 4.3083018263771096e-02  1.1348123714302737e-02 -1.5046592334772840e-01 4.1206424397205545e-02  1.0601280928084428e-02 -1.4945578383143784e-01 3.8646224479139485e-02  1.3179806836337396e-02 -1.4296367822874459e-01 4.4730554547038011e-02  1.3376073374121793e-02 -1.4568633826182359e-01 4.6081748936633811e-02  1.4696436385966110e-02 -1.4847035599382602e-01 4.7879668499235112e-02  1.4086165595376536e-02 -1.4945064270977401e-01 4.6659502874951783e-02  1.2811561164264572e-02 -1.4675916145575377e-01 4.3772017793303961e-02  1.2528987078859374e-02 -1.4397450259562858e-01 4.2137687335653325e-02  1.3408984827783100e-02 -1.4973438461156391e-01 4.5549019900387684e-02  1.2198684057779630e-02 -1.4722685360124432e-01 4.1721828867983084e-02  1.1842503691597452e-02 -1.4443749492562821e-01 3.9877606933384817e-02  1.2678928263667207e-02 -1.4949794276056874e-01 4.4383272921746653e-02  1.1539616580798551e-02 -1.4728084819802495e-01 3.9709764635013543e-02  1.1116951049662576e-02 -1.4453128863432460e-01 3.7661424815255411e-02  1.1901408354924425e-02 -1.4887997796728344e-01 4.2986534130630340e-02  1.0841868412421796e-02 -1.4706088528904690e-01 3.7508926111391658e-02  1.0365998183505538e-02 -1.4438746034687516e-01 3.5270803020935625e-02  1.1078925261745330e-02 -1.4800472864838990e-01 4.1163098291170007e-02  1.0105246136276176e-02 -1.4670582822526210e-01 3.4923045752277934e-02  9.5970744229252666e-03 -1.4415295201388917e-01 3.2520969641922241e-02  1.0210383364242591e-02 -1.4699769134963794e-01 3.8689101665867733e-02  9.3204890647048417e-03 -1.4640391672528985e-01 3.1791901573724718e-02  8.8193142719040375e-03 -1.4403684324483701e-01 2.9269329441234192e-02  1.2049921593455269e-02 -1.0379387223264673e-01 2.1161447013682323e-02  1.1342916527984666e-02 -9.8515577279235989e-02 1.6980164692148865e-02  1.1373115762719746e-02 -1.0456151576195478e-01 2.1538547933243824e-02  1.0099074819073829e-02 -1.0323385002822549e-01 1.8339779727146753e-02  1.0135807563148341e-02 -9.6762689875097785e-02 1.4302732929989336e-02  1.0737162430439984e-02 -1.0253299872625932e-01 1.7858870120116239e-02  9.4595177600067214e-03 -1.0159149880868011e-01 1.4837055374604892e-02  8.9980515837929202e-03 -9.5437697384026077e-02 1.1764340886087033e-02  8.9362442317511784e-03 -1.0218975001767340e-01 1.5404159477601868e-02  8.2182765456750382e-03 -1.0086874811258539e-01 1.1920581036498215e-02  7.9120921859929926e-03 -9.4411176359596893e-02 9.2820463618779724e-03  7.8282241097402082e-03 -1.0137290971157729e-01 1.2565813605436410e-02  6.9926163643845322e-03 -1.0033060431151407e-01 8.9865960463699698e-03  6.8519654463936883e-03 -9.3631956985083656e-02 6.7752848855673637e-03  6.7465312784217857e-03 -1.0075331009442218e-01 9.7139927007999644e-03  5.7689348766904909e-03 -9.9970565197197797e-02 5.9409704873951436e-03  5.7994140530654072e-03 -9.3072474215720971e-02 4.1838115102361510e-03  5.6662713285811983e-03 -1.0031409158255050e-01 6.7648586597656938e-03  4.5372695629116522e-03 -9.9805918194459525e-02 2.7194267455245618e-03  4.7404455189510326e-03 -9.2721786864048542e-02 1.4644996138791666e-03  4.5565009656709926e-03 -1.0005459690346633e-01 3.6452561133185160e-03  4.1481309864613057e-03 -8.8017258021836589e-02 9.7367821764261179e-03  3.6737978942659802e-03 -8.6324776843538717e-02 9.2221779308002075e-03  3.2772006882935438e-03 -8.4958796324523356e-02 8.5380760047304889e-03  2.9388937347360859e-03 -8.3884237815532461e-02 7.7380978329127043e-03  3.7774304606