<?xml version="1.0"?>
<VTKFile type="UnstructuredGrid"  version="0.1"  >
<UnstructuredGrid>
<Piece  NumberOfPoints="696" NumberOfCells="2900">
<Points>
<DataArray  type="Float64"  NumberOfComponents="3"  format="ascii">8.305618931698151 2.437596726836075 1.136657103369128  8.210760883467648 2.376532609860462 1.123834859305424  8.245503399695226 2.509216825462968 1.078048599523687  8.265887319538253 2.485063386867563 1.027707646523515  8.231995623221341 2.354360038078393 1.074157730992279  8.326123310864117 2.414487322975192 1.087466876181903  8.346943641936415 2.391334013418923 1.038511361230087  8.25357913382863 2.33217968003205 1.024691101751453  8.286561723710847 2.46088001826117 0.9775931213226514  8.367909066074732 2.368195192328478 0.9897336669876637  8.275321918472695 2.310023939304246 0.9753578403807358  8.307374470301577 2.436707757164487 0.9276189890802244  8.388868600134094 2.345105814910148 0.9410618466260517  8.29705729271126 2.287909844346782 0.926084461623786  8.328181595813639 2.412573907803214 0.8777236645934708  8.409640278283465 2.322094666690491 0.8924143335925451  8.31859437079555 2.265834881063811 0.8767928954715665  8.348827014309174 2.38849829605071 0.8278331544687185  8.429927369203199 2.299126908727474 0.8436902597669693  8.339665234843554 2.243714226719836 0.8273842286329044  8.369075514718832 2.364445447135188 0.7778836751048661  8.134033103556552 2.472916088419065 1.048689527897003  8.155020676193143 2.449742987836728 0.997560486013961  8.176319630293458 2.426567572779487 0.9465924480265687  8.197761537437239 2.403410809631511 0.8957139500780704  8.219200967709458 2.380281987425977 0.8448654613600289  8.240480681730372 2.357166542598667 0.7939900454746847  8.261401364276262 2.333977218367616 0.7430391667422799  7.791810683480469 2.455633156735022 0.9357794172773297  7.763415218837585 2.360539852025566 0.9689824047414825  7.649167272342809 2.401352040697841 0.9258245031846253  7.660466316685352 2.377906629964961 0.8678557877103177  7.778127483448012 2.336741846726024 0.9133150219925097  7.807067973626362 2.433202385520922 0.8789807367162445  7.671834633537833 2.354560575907408 0.8096823527687232  7.793030876773267 2.313016370776336 0.8574945169393816  7.822493180636093 2.41086324509821 0.8220647573990675  7.683246118444786 2.331205142721842 0.7513865001498393  7.808012057184181 2.289277595584179 0.8015773137155549  7.837987793051381 2.388508517258253 0.7650721589891575  7.694661868934222 2.307742440012249 0.6930060031365229  7.822984194293552 2.265451317344752 0.7455811873498956  7.853473807298528 2.366064903672807 0.7080202393201822  7.706084265318697 2.284103787651047 0.6345578542319497  7.837892216497607 2.241480281635605 0.6894983886875171  7.868909101270495 2.343480239800865 0.6509071630953946  7.717538561033838 2.260237422774019 0.5760531033462037  7.852760802273172 2.217271699696043 0.6333289178796019  7.884302008741065 2.320686796799289 0.5937216827035011  7.674492196639685 2.513231050694638 0.8883583318028311  7.686558433507233 2.491466649989625 0.8289972262913518  7.69868779233375 2.469828649808956 0.7694455780625494  7.710847259139709 2.448168192508672 0.7097831195140472  7.723011050247581 2.426403679444539 0.6500519189869269  7.73519238985786 2.404475904619869 0.5902816623442636  7.747396635260458 2.382324097726066 0.5304843280059914  7.778399453806268 2.551773318984294 0.8971864244453256  7.793007565507498 2.530879180056191 0.8384942082479158  7.807736646891238 2.510064633052083 0.7796605861925299  7.822518419065073 2.489225949171565 0.7207450671103566  7.837305935212329 2.468312272090426 0.6617814640995107  7.85206972186723 2.447272234261938 0.6027842639753866  7.866807248951844 2.426035738732293 0.5437620026606503  8.656877247734389 2.642353599509046 1.135778512343985  8.551643646470774 2.607757546043326 1.134708912795387  8.622366310451055 2.725292676421732 1.076156905911098  8.632324920862798 2.693490284586971 1.02452570283136  8.564664314789425 2.578651407838798 1.085362442204406  8.666196257331361 2.610794300516967 1.086712692723889  8.642388404522517 2.661548463704356 0.9731824355556683  8.577848492892812 2.549435016470689 1.036273601666172  8.675630437429103 2.579111451691129 1.037909547856906  8.652490720282376 2.629560775446691 0.922044913174605  8.591105048705362 2.520187888471965 0.9874087408556567  8.685109170399459 2.547391256269032 0.9893241945219544  8.662575614630336 2.597616376625835 0.8710510496532267  8.604356246146518 2.490989852481631 0.938701091492484  8.694570090554496 2.515729580321165 0.9409054203875019  8.67258578338391 2.565819673635358 0.8201434485649367  8.617492398917745 2.461921292376049 0.8900868968159565  8.703927679005647 2.484222597515416 0.8926011050955445  8.682505529523731 2.534348978561495 0.7692261183581064  8.630391340309311 2.433151103381359 0.8414800416217312  8.71316426995617 2.453091914314219 0.8443073610017592  8.207328849189709 2.59590427500849 1.022262965121642  8.227352141393345 2.571457295385828 0.9699949474416264  8.247642617758144 2.546969195752479 0.9178984536832218  8.268055223925131 2.522479817531377 0.8659187985671136  8.288467134397896 2.498014486878652 0.8140028432842722  8.30875665399866 2.473592154891935 0.7620929600535313  8.328738569362562 2.449178395522789 0.7101475300874209  8.659675026387971 2.55925861245671 1.188908486142513  8.670047858566569 2.53046165206439 1.140530548032213  8.68054967697238 2.501560273210545 1.092422376997082  8.691114312527773 2.4726330004506 1.044549532392621  8.701668686670438 2.443759624187404 0.9968604765367659  8.712110701605779 2.415035199783221 0.9493035457881033  8.722335940231689 2.386673344580793 0.9017849060257753  7.683384574215961 2.291253904235464 0.9789015139441088  7.695234634262999 2.266709381156814 0.9225885117670045  7.707194179010024 2.242220882627455 0.8660843404323731  7.719210275984819 2.217714887209673 0.8094632089069057  7.731231850315132 2.193129534391133 0.7527429217138567  7.743218413138465 2.168388109076912 0.6959162636191744  7.755222352310818 2.143414587994108 0.6389862209601419  8.508631947838779 2.699522609399581 1.067666988173155  8.522273355559314 2.669226922928733 1.016352048920415  8.53607626186953 2.638806096511536 0.9652894095119695  8.549947811853512 2.608347069111821 0.9144216960348013  8.563812587586279 2.577928688949415 0.8636858292457443  8.577580200631138 2.547628192322966 0.8130226197066617  8.591170244548493 2.517592894420706 0.7623576610414573  8.098041190251221 2.570213855549826 0.9906428272019813  8.117724455321039 2.54726908853802 0.9370637991179819  8.137659380879814 2.52431294982143 0.8835952745865889  8.157708905381559 2.501366929580138 0.8301981014548612  8.177757706030224 2.478431402607821 0.7768270796878104  8.197689655913614 2.455489863752692 0.7234389137839186  8.217363696665362 2.432475632907744 0.6700045080577475  8.565466660407012 2.50238669749441 1.195897256331475  8.578828353492403 2.476373007031711 1.147107504699518  8.592361072623701 2.450268098774298 1.098592546629339  8.605980639079462 2.424147226305134 1.050308253721805  8.619594977960942 2.398085373923433 1.002199185449265  8.633062843616583 2.372159118323078 0.9542150019180344  8.646195817171362 2.346534048056291 0.9062767837439312  8.587004508618435 2.818091897977989 1.014860052570533  8.597649766671482 2.787075167102655 0.9599210586346647  8.608396693291798 2.755889754113984 0.9052381803603415  8.619180751491603 2.724639633000665 0.8507315525518885  8.62995572529363 2.693406945066662 0.7963447085573423  8.640687351766987 2.662289404568839 0.7420253675015012  8.651357849375561 2.631439601111129 0.6876939647674128  8.456850953979108 2.792965558775425 1.000889498620755  8.470344182992241 2.764637977010016 0.9453541580525497  8.48398191290155 2.736166345000115 0.8900377898758618  8.497679118316428 2.70764405785586 0.834888593766167  8.511371178690077 2.679138565630462 0.7798521613920308  8.525003418959143 2.65072327469464 0.7248743097738091  8.538518900902062 2.622505905164565 0.6698880933670874  8.889865782435798 2.531231623671275 1.241062206314453  8.777305677470119 2.556468856517548 1.21334119317401  8.874919685450941 2.62352340146785 1.177975798754055  8.879673009301282 2.591393929431283 1.130133768702997  8.784559961878591 2.527031942694795 1.165699220546942  8.894758887518488 2.501528354775312 1.194183646316198  8.884461236833243 2.559150708857076 1.082623425589786  8.791895274459119 2.497491856713571 1.118338800712398  8.899700580865169 2.471717454829392 1.147576134542608  8.889259844338506 2.526873393993676 1.035349506761899  8.799270011920731 2.467914809308023 1.071208834254586  8.904662248919374 2.441878086465645 1.101205601352596  8.894040136280301 2.494649874712961 0.9882489826337446  8.806636999479784 2.438393244209006 1.024267861847903  8.578428545389844 2.112594458980409 1.376793157753311  8.472385399577218 2.138489836059765 1.331774300815276  8.557099544387118 2.220746655271062 1.324443626999912  8.572468235072702 2.200201252785184 1.275370362840481  8.490289190810957 2.117272837595619 1.282893948528072  8.593340934653609 2.091020189043514 1.327539976109413  8.588045478345077 2.179641621922706 1.226601320375167  8.508467452935383 2.096079909217222 1.234306933258737  8.608438050108944 2.069486617218003 1.278587721770511  8.603716218630225 2.159094350621208 1.178076787670862  8.526768265679493 2.07491126704003 1.185950135453887  8.623609019062256 2.047985027710463 1.229883399251019  8.619362161774728 2.138592841554141 1.129744408159713  8.545061974277107 2.053801732797751 1.137750149805529  8.638765498177332 2.026557589220565 1.181360944248345  8.634833631324614 2.118191461938081 1.081550033857325  8.56315792865432 2.032757151531435 1.089647445364507  8.36236886216167 2.148669081583675 1.28390447001829  8.259426634192492 2.164218609591154 1.23606327691757  8.34474094709168 2.251598840723905 1.235126586763452  8.364642500397848 2.230773429235234 1.186057978637878  8.280306034319457 2.143705517461014 1.186535921903489  8.382342494014388 2.128118586682
[...]
<PointData  Vectors="f_24"> 
<DataArray  type="Float64"  Name="f_24"  NumberOfComponents="3" format="ascii">-9.2384718677016048e-03 -7.4909908264086070e-02 -1.3597048728171308e-02  -8.9977042689281181e-03 -7.2963991494991262e-02 -1.3101863040731195e-02  -1.0389831381637318e-02 -6.9562451575047909e-02 -5.4629501348163025e-03  -1.2730053948770680e-02 -6.5613671778562380e-02 -7.9923844660182812e-03  -1.1220008679381794e-02 -7.0174760021422006e-02 -1.5341837475199602e-02  -1.1477472225331554e-02 -7.1760810280615026e-02 -1.6097315694779148e-02  -1.3735687268723857e-02 -6.8695230027383244e-02 -1.8186403051384675e-02  -1.3451740241007575e-02 -6.7403685708729552e-02 -1.7178561702079348e-02  -1.5044066352512063e-02 -6.1900681863035399e-02 -1.0145764449761875e-02  -1.6042794301315780e-02 -6.5609286174604806e-02 -1.9952105754762629e-02  -1.5735827068964644e-02 -6.4586932772145930e-02 -1.8703557928298524e-02  -1.7377672516387464e-02 -5.8254955718094734e-02 -1.2025457878763152e-02  -1.8450789286240981e-02 -6.2383142717204743e-02 -2.1463018072220955e-02  -1.8132179950330445e-02 -6.1640201837663375e-02 -1.9973022853266159e-02  -1.9786538546399914e-02 -5.4491192003811278e-02 -1.3725766438823599e-02  -2.1034228121790774e-02 -5.8866566633218924e-02 -2.2748224052714414e-02  -2.0722999749715944e-02 -5.8462827892295760e-02 -2.1006677313475355e-02  -2.2337003023325270e-02 -5.0400460076927209e-02 -1.5311199281588415e-02  -2.3889380490423537e-02 -5.4878805387086144e-02 -2.3795689367028534e-02  -2.3620743501810464e-02 -5.4943357928299186e-02 -2.1797186691863285e-02  -2.5108737947703141e-02 -4.5740138955509164e-02 -1.6810066215712946e-02  -1.0388715067692136e-02 -6.6425237416747690e-02 -3.0525036205949056e-03  -1.2707604871295406e-02 -6.2580137670959574e-02 -5.3337402310776596e-03  -1.4994761364005880e-02 -5.8959760811407309e-02 -7.2477318256441792e-03  -1.7297955380258554e-02 -5.5400324815431820e-02 -8.9101815742909755e-03  -1.9675803173814278e-02 -5.1735082715254926e-02 -1.0406704920285746e-02  -2.2198132977357350e-02 -4.7783903702258178e-02 -1.1794111838906027e-02  -2.4942978257222539e-02 -4.3339543659079986e-02 -1.3121169739875259e-02  -1.1392861962984550e-02 -5.5068670639154944e-02 1.0016902856721438e-02  -1.0571805675198791e-02 -5.8404727747956714e-02 4.5349166829772034e-03  -1.0994054977770206e-02 -5.4118609354133533e-02 1.0993648170634165e-02  -1.2915665095757034e-02 -4.9840780491398493e-02 9.8397587252041958e-03  -1.2649328616259744e-02 -5.4645442937683412e-02 3.0920574584386092e-03  -1.3574021459558912e-02 -5.0678625384355781e-02 8.6444186889311977e-03  -1.4739767852057472e-02 -4.5837081074925630e-02 8.9022945710750881e-03  -1.4636419265987306e-02 -5.1070025783213659e-02 1.9420127737281351e-03  -1.5637288148849671e-02 -4.6592259410201058e-02 7.5068389385531797e-03  -1.6518801935436166e-02 -4.1941424419836025e-02 8.0715591524235623e-03  -1.6595234469154337e-02 -4.7555873991011334e-02 9.6973195285728910e-04  -1.7656092363137775e-02 -4.2622183549201553e-02 6.4866321947016619e-03  -1.8304048480639577e-02 -3.8006536615272722e-02 7.2743628635127643e-03  -1.8584875201784756e-02 -4.3984593807400912e-02 1.0218806784632696e-04  -1.9689552576025351e-02 -3.8599512144392542e-02 5.5022144950383958e-03  -2.0140994022208623e-02 -3.3892363403907305e-02 6.4553483399486956e-03  -2.0664662137117096e-02 -4.0226718057075971e-02 -7.1053439285681140e-04  -2.1792953730947928e-02 -3.4363115839168679e-02 4.4891563537999262e-03  -2.2068482312239266e-02 -2.9475812661932336e-02 5.5663391782238775e-03  -2.2899191196248194e-02 -3.6137012772509310e-02 -1.5310542647917788e-03  -2.4011915070782101e-02 -2.9767685104403165e-02 3.3670251726308077e-03  -1.1937067986573605e-02 -4.9611215837815470e-02 1.8199762034014230e-02  -1.3954564948351882e-02 -4.4764268894212311e-02 1.7268480689691806e-02  -1.5847980808353108e-02 -4.0326945585517068e-02 1.6434114534526287e-02  -1.7678919574427968e-02 -3.6070735809773775e-02 1.5599905430383313e-02  -1.9497268199245726e-02 -3.1797069003235486e-02 1.4704101731585437e-02  -2.1343344052719284e-02 -2.7332048331272518e-02 1.3695675708240367e-02  -2.3253398643796039e-02 -2.2506743295017041e-02 1.2533078582910986e-02  -1.2395167450444625e-02 -5.0247740751411668e-02 1.7708920003092734e-02  -1.4583728354599729e-02 -4.5300890053660711e-02 1.6675183316394549e-02  -1.6643223975288942e-02 -4.0788926707933305e-02 1.5744296426878381e-02  -1.8633716344913565e-02 -3.6466012193684567e-02 1.4814434331281937e-02  -2.0607508237163313e-02 -3.2119301918596160e-02 1.3818440951904017e-02  -2.2605189599841313e-02 -2.7563993956225073e-02 1.2702009637630239e-02  -2.4660747756344532e-02 -2.2635804393640640e-02 1.1421604733755806e-02  -1.3039989425441292e-02 -7.8206173136758317e-02 -1.2887785367206596e-02  -1.1730732395194250e-02 -7.7127381201417461e-02 -1.1424888775456740e-02  -1.4793092651674562e-02 -7.0950838651782172e-02 -3.0338851515703770e-03  -1.7302287832987043e-02 -6.5349081784320917e-02 -6.0721053912728539e-03  -1.4118433473156300e-02 -7.2636078640747573e-02 -1.4515355604602790e-02  -1.5448468427236734e-02 -7.3483486945825668e-02 -1.6127149027483162e-02  -1.9723033298755997e-02 -6.0265430162944049e-02 -8.7570026014916549e-03  -1.6464350945636041e-02 -6.8459378011069300e-02 -1.7155710340715707e-02  -1.7780001035823997e-02 -6.9111306584296539e-02 -1.8906063960583693e-02  -2.2107584182495438e-02 -5.5388313279791955e-02 -1.1247651710686493e-02  -1.8804345520378705e-02 -6.4385877646790102e-02 -1.9480864057858198e-02  -2.0090090862357270e-02 -6.4852138617090660e-02 -2.1368637140953051e-02  -2.4503447730892761e-02 -5.0400282090896857e-02 -1.3688435435026590e-02  -2.1188207395386859e-02 -6.0176133076089974e-02 -2.1602739569991019e-02  -2.2430327111188048e-02 -6.0441903911072251e-02 -2.3636782831737580e-02  -2.6942968279926607e-02 -4.4980011796224205e-02 -1.6233656899076514e-02  -2.3667457890434025e-02 -5.5540647197291286e-02 -2.3625593397149109e-02  -2.4850325550001592e-02 -5.5567413591362608e-02 -2.5838186499784414e-02  -2.9428574054170695e-02 -3.8802445641001548e-02 -1.9084094558021073e-02  -2.6291980277450937e-02 -5.0089966435444028e-02 -2.5665930418599169e-02  -2.7365164698600133e-02 -4.9840470635883323e-02 -2.8186174986252505e-02  -1.1933034216057230e-02 -6.3585945946965747e-02 3.5306809871810088e-03  -1.4386750178018524e-02 -5.8819376181374033e-02 1.1710078365566750e-03  -1.6761043108739184e-02 -5.4457895694911690e-02 -8.9511048921348164e-04  -1.9121259754765453e-02 -5.0251225948096813e-02 -2.7781750683213663e-03  -2.1519398955514430e-02 -4.5957653618397862e-02 -4.5876564811732226e-03  -2.4005447741790194e-02 -4.1329329377448390e-02 -6.4107634770405684e-03  -2.6624637116148927e-02 -3.6090591543042914e-02 -8.3470291138748199e-03  -1.1364331914827054e-02 -8.3215441087119479e-02 -2.0676341462997110e-02  -1.3697232513126897e-02 -7.9363784238133492e-02 -2.3713219306712694e-02  -1.5979717089463864e-02 -7.5678142573351273e-02 -2.6263940679980051e-02  -1.8254744444045352e-02 -7.2012164589177655e-02 -2.8437042812124825e-02  -2.0571862495876586e-02 -6.8172833839315938e-02 -3.0325005713131088e-02  -2.2987874376802810e-02 -6.3909058508174243e-02 -3.2000768607545159e-02  -2.5594601046354963e-02 -5.8829528834899232e-02 -3.3525184243562482e-02  -1.0299434789572289e-02 -5.9024408420243576e-02 3.0275324047171369e-03  -1.2210310238364748e-02 -5.5603022597819560e-02 1.7966417832477322e-03  -1.4036025298291064e-02 -5.2271004728947114e-02 8.3745093763453664e-04  -1.5836047845626304e-02 -4.8960985923113945e-02 5.6537558840957435e-05  -1.7662553654013691e-02 -4.5593728988656622e-02 -6.0578503453128068e-04  -1.9569491660800110e-02 -4.2075483033986734e-02 -1.1843268683171617e-03  -2.1613691272525971e-02 -3.8299802960712420e-02 -1.7158287156119200e-03  -1.3703451820884501e-02 -6.9367696307857898e-02 -6.4684344374435552e-04  -1.6182032378136774e-02 -6.3967053432845200e-02 -3.6054083205611064e-03  -1.8599329193388182e-02 -5.9089886065977704e-02 -6.2258287054624134e-03  -2.0995031616493475e-02 -5.4427905333668085e-02 -8.6591344696132846e-03  -2.3412624564810410e-02 -4.9672680808815005e-02 -1.1031967149125287e-02  -2.5884730312158793e-02 -4.4506552951001789e-02 -1.3480194094994522e-02  -2.8414315611150917e-02 -3.8584006619450779e-02 -1.6189959766283034e-02  -1.1991539210918436e-02 -6.0207144064097044e-02 6.3164588676630426e-03  -1.4409189798426963e-02 -5.5482133440056140e-02 4.3116183713590300e-03  -1.6749821329194205e-02 -5.1152878009382903e-02 2.5603830990936251e-03  -1.9062803703832759e-02 -4.6972531009517302e-02 9.5889591140238995e-04  -2.1404337704012014e-02 -4.2714290444334405e-02 -5.9081535964423081e-04  -2.3827055243423486e-02 -3.8157156978509028e-02 -2.1713400866989452e-03  -2.6379004594052589e-02 -3.3072992958030741e-02 -3.8657562356413798e-03  -1.0044717279488998e-02 -8.2481189178562481e-02 -2.1028151618229091e-02  -1.2336442271800004e-02 -7.9079091001120413e-02 -2.3803915747548553e-02  -1.4607017164462584e-02 -7.5772215346743416e-02 -2.6113297239752538e-02  -1.6895302808903560e-02 -7.2432346835544101e-02 -2.8056657818674415e-02  -1.9251786223298924e-02 -6.8911382696987891e-02 -2.9701379561110301e-02  -2.1736829778769270e-02 -6.5008885670541430e-02 -3.1084851365859732e-02  -2.4407888687436825e-02 -6.0464129730847527e-02 -3.2205763713860788e-02  -1.6821685841965667e-02 -6.2175948691522299e-02 8.0018806555178755e-03  -1.9403927052708200e-02 -5.5857127671798103e-02 5.5547174737201298e-03  -2.1882868947438017e-02 -5.0272560657912649e-02 3.2590695360261014e-03  -2.4309644891198093e-02 -4.4996230151004860e-02 9.5886719468491811e-04  -2.6727755147361681e-02 -3.9672130365197213e-02 -1.4744749663260955e-03  -2.9160791268608380e-02 -3.3997532339076035e-02 -4.1753765470845597e-03  -3.1599580892645612e-02 -2.7705914325445898e-02 -7.3137263238492395e-03  -1.5805478932225409e-02 -6.0019011405304912e-02 1.0947044246924746e-02  -1.8405062607045990e-02 -5.3861180478601771e-02 8.7801883609364782e-03  -2.0908821065466664e-02 -4.8397842154888265e-02 6.7161394886413074e-03  -2.3359926748427566e-02 -4.3238919405713505e-02 4.6448006364823288e-03  -2.5797669425826720e-02 -3.8041319280015813e-02 2.4456818376592977e-03  -2.8243096793734986e-02 -3.2506701704208073e-02 -7.5900371882231169e-06  -3.0692028221452537e-02 -2.6381255808830505e-02 -2.8577205398165259e-03  -1.3374680642365376e-02 -9.0521722762529871e-02 -3.2955300853643600e-02  -1.2277634818717872e-02 -8.6801179866261499e-02 -2.6097638026286743e-02  -1.4853897270377650e-02 -8.5014433283498933e-02 -2.4068715189342754e-02  -1.7182991901446325e-02 -8.0643166149444681e-02 -2.7354945456209642e-02  -1.4588586270125953e-02 -8.3111760646812416e-02 -2.9118237378043005e-02  -1.5611070330558694e-02 -8.7230400943367814e-02 -3.5863544885197239e-02  -1.9413446561689557e-02 -7.6487757774673273e-02 -3.0087172713120513e-02  -1.6817827527192616e-02 -7.9554707332992303e-02 -3.1638910207220892e-02  -1.7753622259627771e-02 -8.3992851234595475e-02 -3.8238121376633710e-02  -2.1600146378101669e-02 -7.2357235664065836e-02 -3.2442419646924174e-02  -1.9020220306973635e-02 -7.5985305749934978e-02 -3.3756460892899423e-02  -1.9857354193743904e-02 -8.0682671319235982e-02 -4.0182327437049005e-02  -2.3793403889955066e-02 -6.8006796108128084e-02 -3.4542426863580569e-02  -2.1249320901705657e-02 -7.2218884212178605e-02 -3.5560069898247518e-02  -9.2516690790546037e-03 -8.8631423319968025e-02 -3.5615295961488012e-02  -8.5557778411801746e-03 -8.5644424738365671e-02 -3.1928057941989149e-02  -8.5464947405291449e-03 -8.7595383528612153e-02 -3.4224122265464542e-02  -1.0585687773078785e-02 -8.7057397546310852e-02 -3.5651982764829962e-02  -1.0562061727514683e-02 -8.5645340625438354e-02 -3.2977781598411353e-02  -1.1228206974255793e-02 -8.9015365353695433e-02 -3.6339707276009346e-02  -1.2632964159674220e-02 -8.6175082151676893e-02 -3.6750716172690982e-02  -1.2589950423611773e-02 -8.5245987425671479e-02 -3.3800766475768851e-02  -1.3195508515405184e-02 -8.8931921189766477e-02 -3.6865947282769311e-02  -1.4726471202388264e-02 -8.5054438422979065e-02 -3.7535294635080478e-02  -1.4665915691814061e-02 -8.4613425472410533e-02 -3.4373535185348039e-02  -1.5194964496314604e-02 -8.8589460841982520e-02 -3.7165039738258195e-02  -1.6911057416490755e-02 -8.3795035997194595e-02 -3.7973401471983255e-02  -1.6828732120343012e-02 -8.3892863741787241e-02 -3.4655182789673541e-02  -1.7262738908149267e-02 -8.8165575888897937e-02 -3.7182732042092624e-02  -1.9246030395190492e-02 -8.2505278708710106e-02 -3.7989487732458145e-02  -1.9129721013259379e-02 -8.3225971773640925e-02 -3.4577664583554116e-02  -8.3578813284660731e-03 -8.2244506671387704e-02 -2.7811357012516250e-02  -8.3082102989299016e-03 -7.8818086916229699e-02 -2.3664613694978538e-02  -8.0631920687837828e-03 -8.0591434904996706e-02 -2.4836719635016023e-02  -1.0160122698658236e-02 -7.9323080093719828e-02 -2.6617362672538496e-02  -1.0376071695957256e-02 -7.8077767965223380e-02 -2.5029506635227877e-02  -1.0388943943230197e-02 -8.1896292692530820e-02 -2.9050375772463818e-02  -1.2292241566706528e-02 -7.7823334493146754e-02 -2.8043679904165286e-02  -1.2474827169534491e-02 -7.7019115317975964e-02 -2.6122544850846495e-02  -1.2460987474783353e-02 -8.1174805209654713e-02 -3.0027812520269488e-02  -1.4496273839546398e-02 -7.6151640063860340e-02 -2.9158228138559325e-02  -1.4638060536759829e-02 -7.5762313750931912e-02 -2.6965547662038656e-02  -1.4598516965469575e-02 -8.0234995326186900e-02 -3.0755818437022780e-02  -1.6822971908558085e-02 -7.4354905630186152e-02 -2.9963885598117856e-02  -1.6913716501520400e-02 -7.4408879383743479e-02 -2.7544382474472509e-02  -1.6843432210469304e-02 -7.9202516594402195e-02 -3.1202632314007436e-02  -1.9345724248970599e-02 -7.2474011305185687e-02 -3.0419578523529073e-02  -1.9365858837333952e-02 -7.3057117836837673e-02 -2.7806167218696110e-02  -1.9252386963022134e-02 -7.8203024910979954e-02 -3.1304322124180418e-02  -2.2153277536505658e-02 -7.0543538812847029e-02 -3.0432600830670977e-02  -2.2079482253033057e-02 -7.1819445373226307e-02 -2.7643584591603095e-02  -2.1880284382064220e-02 -7.7392169609891190e-02 -3.0981706363909782e-02  -8.5576896673977276e-03 -7.5175531737655427e-02 -1.9347012006165856e-02  -8.8893585629507433e-03 -7.1659561557785606e-02 -1.5066734441470470e-02  -8.7303443691886772e-03 -7.2596486978542249e-02 -1.4982474636643879e-02  -1.0897615268552855e-02 -7.0563245362152333e-02 -1.6815526993513609e-02  -1.1008257256850453e-02 -7.0167475121486189e-02 -1.6444617566786075e-02  -1.0654770667107858e-02 -7.4096183851249664e-02 -2.0755373931243878e-02  -1.3072898982586779e-02 -6.8415118222097990e-02 -1.8288423092826765e-02  -1.3117136574954438e-02 -6.8453152262426598e-02 -1.7534310213217559e-02  -1.2769552219384028e-02 -7.2744875662265965e-02 -2.1881289588183628e-02  -1.5301428405559659e-02 -6.6162712087099937e-02 -1.9471426567252360e-02  -1.5265671296051646e-02 -6.6594948385591241e-02 -1.8386946180736365e-02  -1.4940883141987759e-02 -7.1223177268425156e-02 -2.2762729076977226e-02  -1.7645498722866873e-02 -6.3801449793369186e-02 -2.0398372212180334e-02  -1.7511685457271709e-02 -6.4653297212184935e-02 -1.9015314985348419e-02  -1.7221833198623998e-02 -6.9612068595379412e-02 -2.3398635458079426e-02  -2.0183526475621986e-02 -6.1311165791115861e-02 -2.1062798564724275e-02  -1.9928044482104144e-02 -6.2676811386518413e-02 -1.9387364675864546e-02  -1.9682165117222410e-02 -6.7984372797608619e-02 -2.3748492453289916e-02  -2.3012018422768822e-02 -5.8659416478082170e-02 -2.1428208750369999e-02  -2.2609876338432804e-02 -6.0693082860056029e-02 -1.9407072122945922e-02  -2.2415576705843050e-02 -6.6406882782526114e-02 -2.3713944551372847e-02  -1.3926402664565199e-02 -8.1278606940082460e-02 -1.7602969186901775e-02  -1.6726826012909462e-02 -7.7651667470423957e-02 -1.3614109721526929e-02  -1.6311960540642861e-02 -7.6629841968998746e-02 -2.0889586901847775e-02  -1.9132836384370647e-02 -7.2181474845289015e-02 -1.6932216655683480e-02  -1.8606690055985177e-02 -7.2292534097257763e-02 -2.3695283526801336e-02  -2.1433138098461087e-02 -6.7153503953635105e-02 -1.9786478206624648e-02  -2.0864862508811016e-02 -6.8038941441632167e-02 -2.6156582988682935e-02  -2.3684433081129868e-02 -6.2268377609851683e-02 -2.2368691136496904e-02  -2.3140410184996643e-02 -6.3609833706006924e-02 -2.8398781910857113e-02  -2.5934664173883484e-02 -5.7226783595347080e-02 -2.4837427127309821e-02  -2.5479972529636213e-02 -5.8693795085323602e-02 -3.0553105773976401e-02  -2.8224757738166035e-02 -5.1716754606218995e-02 -2.7363561609052282e-02  -8.8904564880450225e-03 -8.0720262443528812e-02 -2.5637990828001177e-02  -8.8990667299702932e-03 -7.7299857658725005e-02 -2.1880271228900187e-02  -1.0950864585160118e-02 -7.6959159194749466e-02 -2.2808354293417279e-02  -1.0911143614822837e-02 -8.0748813478773829e-02 -2.6449468042637307e-02  -1.3013664702411935e-02 -7.6252465264954258e-02 -2.3575766416513311e-02  -1.2957521836464940e-02 -8.0364528998848092e-02 -2.7110679476702686e-02  -1.5122873924196372e-02 -7.5335176534144663e-02 -2.4169251042602650e-02  -1.5048271115006838e-02 -7.9758722923694320e-02 -2.7604324769134068e-02  -1.7322658794847574e-02 -7.4354352425883605e-02 -2.4552434351663408e-02  -1.7224545205321632e-02 -7.9095813653885336e-02 -2.7880346131284248e-02  -1.9666581486525333e-02 -7.3453297707215870e-02 -2.4662322099512420e-02  -1.9532302571130120e-02 -7.8532885079703907e-02 -2.7869336038095077e-02  -2.2212293970805944e-02 -7.2777481385957452e-02 -2.4412424607342314e-02  -2.2016262531165398e-02 -7.8235875196923252e-02 -2.7490343052889436e-02  -9.2988435725713664e-03 -6.8212294527657646e-02 -1.0703585254693539e-02  -9.6727942589429211e-03 -6.5166658934999927e-02 -6.6031804813309978e-03  -9.6610610013822679e-03 -6.5196525457501348e-02 -5.8042005764749830e-03  -1.1828919010745929e-02 -6.2455077421199941e-02 -7.3517794995901810e-03  -1.1697091394190931e-02 -6.2871711180690487e-02 -7.7566499312543124e-03  -1.1387642400251910e-02 -6.6360073129027683e-02 -1.1996408678741926e-02  -1.3936021864392781e-02 -5.9701638361170144e-02 -8.5654360254370752e-03  -1.3664458664670023e-02 -6.0464097262633534e-02 -8.6446297569955331e-03  -1.3443426032506159e-02 -6.4339817343286448e-02 -1.3014766512821723e-02  -1.6052136836088863e-02 -5.6906765262816426e-02 -9.5381625907170042e-03  -1.5632565290960562e-02 -5.7968065077115792e-02 -9.3310289210951462e-03  -1.5518158829763602e-02 -6.2205455904639981e-02 -1.3810851967969396e-02  -1.8242984508597990e-02 -5.4028590301432484e-02 -1.0320684721906778e-02  -1.7657775672654329e-02 -5.5403635990277644e-02 -9.8413085546449133e-03  -1.7670590190453792e-02 -5.9997361227612823e-02 -1.4406820958626524e-02  -2.0580101712781164e-02 -5.1008669561548592e-02 -1.0929678510952777e-02  -1.9802191466559607e-02 -5.2774432621576425e-02 -1.0158611215824068e-02  -1.9970110932937001e-02 -5.7740279357227371e-02 -1.4781244821755482e-02  -2.3132252217117143e-02 -4.7762326972733700e-02 -1.1374596969922482e-02  -2.2131119354716115e-02 -5.0073205852096646e-02 -1.0222388069192012e-02  -2.2513068876215507e-02 -5.5423208875822125e-02 -1.4854875354625317e-02  -1.1661155910420344e-02 -5.7487250066185033e-02 4.5732051112708304e-06  -1.1785706290870612e-02 -5.9804755036788337e-02 -3.5489006646636486e-03  -9.9195433152306587e-03 -6.2445447333260434e-02 -2.4847591468126679e-03  -1.3265857248468507e-02 -5.4497536296373446e-02 -7.2915390359549516e-04  -1.3581448976455374e-02 -5.7106863923845633e-02 -4.3609330126546924e-03  -1.4845502454346541e-02 -5.1478915819356916e-02 -1.2995913190431080e-03  -1.5363143720718285e-02 -5.4354449816589823e-02 -4.9922067397501308e-03  -1.6439841507350988e-02 -4.8405241281472763e-02 -1.7449204442765999e-03  -1.7180959435041356e-02 -5.1542958846278797e-02 -5.4727012227589354e-03  -1.9844628895124516e-02 -4.1928770136320577e-02 -2.2391402006547464e-03  -2.1165080896932139e-02 -4.5600210016866427e-02 -5.9424199380586316e-03  -1.9090867092288476e-02 -4.8645030379388242e-02 -5.7972600830202498e-03  -9.1869502029089875e-03 -7.4016196118180985e-02 -1.8176244407339965e-02  -9.3841884046596