<?xml version="1.0"?>
<VTKFile type="UnstructuredGrid"  version="0.1"  >
<UnstructuredGrid>
<Piece  NumberOfPoints="997" NumberOfCells="4363">
<Points>
<DataArray  type="Float64"  NumberOfComponents="3"  format="ascii">6.85927697485309 1.705631814807317 3.415777548643188  6.755979634133197 1.720516645470522 3.472960851723151  6.774640884423053 1.643437565701409 3.325026362984295  6.783237683439181 1.58851841230229 3.354206937947657  6.764982585255471 1.664476040624427 3.50412782346661  6.86838480599726 1.64973649251708 3.446396731212062  6.791875312796977 1.533598810987243 3.383342243258619  6.774017176661497 1.608432742029222 3.535253743442545  6.877530167307456 1.59384078344394 3.476968020960036  6.800539659777367 1.478684862846354 3.412441623388902  6.783072786523706 1.552390512893722 3.566345828666686  6.886697185428003 1.537949008593301 3.507501560500287  6.809217470306116 1.423777819257498 3.441515301256769  6.792136486827943 1.496350121491264 3.597409654397752  6.895872814956575 1.4820635461706 3.538006724692418  6.81789826041013 1.368876496622784 3.470571445183738  6.801196811743074 1.440309907097983 3.628447865236347  6.905045419139202 1.426182932729065 3.568491199194649  6.826580558984052 1.313975444399499 3.499613122680349  6.810251312120212 1.384272544157899 3.659457784145582  6.91419985259742 1.370300356637983 3.598959099891629  6.922849954344042 1.515369999233821 3.037944157662339  6.822895803690695 1.521314061370262 3.080370089301905  6.864060687842186 1.456588252250405 2.953375343635163  6.873766394529201 1.403476554501645 2.983646325744158  6.831980885317869 1.468117764281875 3.109624240646931  6.931928917858954 1.461728608925128 3.067336497354194  6.883537083679422 1.350364282090402 3.013841386199951  6.841124178219464 1.414919677169152 3.138817527842669  6.94106850115194 1.408086928881741 3.096657096976019  6.893341268838345 1.29726248451328 3.043985510933136  6.85030092551171 1.361728857563416 3.167966021716765  6.950238599594964 1.354455157763663 3.12592499215103  6.903150401668 1.244178273289527 3.074106434849339  6.859489818619156 1.308551611097121 3.197091251289118  6.95941373320454 1.300841774443105 3.155165967057411  6.912940200501258 1.191119732643149 3.104237730946874  6.868674185107411 1.255393787685109 3.226219092664391  6.968571964934531 1.247251948085013 3.184412231413023  6.922708329695618 1.138097665317629 3.134431081901669  6.877854759062106 1.202258306019394 3.255382280317952  6.977697785003233 1.193681395844586 3.213710276449535  6.638836764279573 1.430948544126064 3.227969002955318  6.719519857008538 1.40132512648945 3.148860505514656  6.620830415758601 1.355668733152867 3.097966725104373  6.7103360118106 1.453827981312601 3.119695430846401  6.630010937794522 1.483636263139645 3.199177300612288  6.630073922015664 1.304001458642186 3.127711317491729  6.647697591127049 1.378263794187946 3.256730979464025  6.728741111833766 1.348825706088097 3.177990183482887  6.639331593589816 1.252341215190803 3.157440173606721  6.656574377646432 1.325584787393846 3.285473827757358  6.737977852318735 1.29633497817846 3.207100731085631  6.64857748400157 1.2006919942942 3.187172109013833  6.665449757064536 1.272911952072019 3.314209032868822  6.747210431991824 1.24385606509869 3.236211524563613  6.727594931546933 1.448049960560157 2.98053628313602  6.737004785304364 1.395826523043678 3.010715457371623  6.746475861921311 1.343596855284548 3.040827810171403  6.755985294552258 1.291372219336766 3.070899761007609  6.765507195829916 1.239158513924025 3.100954148590876  6.77502022648271 1.186962858642313 3.131017423988956  6.784520184855094 1.134805047654034 3.161129872947346  6.674223758415772 1.618392130984562 3.442652575324438  6.683183266128516 1.563057761623374 3.472365512081603  6.692169786331167 1.507724576420681 3.502048076407704  6.701168486022461 1.452392452621891 3.531704680712071  6.710165718262607 1.397059473983185 3.561337052245103  6.719144293692368 1.341723477824013 3.590940910746591  6.886749078296035 1.663021663201669 3.329200554728421  6.895584076052031 1.607544486037228 3.358700661611862  6.904460645640236 1.552071238140072 3.388146490047558  6.913360774399202 1.496604525271633 3.417552170281807  6.922271089258007 1.441146980696464 3.446930483767245  6.93117988359416 1.385700772113063 3.476292065505162  6.940071539373325 1.33025648363633 3.505644879655778  6.868039236042506 1.627144839378125 3.265893058908872  6.847231939289813 1.590237195757325 3.201127191731985  6.855913518894471 1.535961393492363 3.229768457080073  6.876595978864493 1.572088466762598 3.294525287951062  6.885194954930828 1.517037928986003 3.323103403699514  6.864645819584317 1.481689692716815 3.258353355191062  6.893820895353565 1.461994373515586 3.351640859251731  6.87340844687986 1.427424456995676 3.286897026674644  6.902458237430343 1.406961692932287 3.380152405027143  6.882184287299599 1.373170706708437 3.315415729623656  6.911093915434036 1.351941584040024 3.408652226119213  6.890959226092989 1.318930243570833 3.343928158708307  6.919719424080197 1.29692493120866 3.437147090196892  6.899723333790509 1.264698406905587 3.372448662464945  7.481052668558082 1.451413701452307 2.771318773206332  7.449450234649408 1.491754576228627 2.854045688990558  7.36020971150046 1.451736254070421 2.798035228461266  7.36655238404501 1.39785536073763 2.82491697541411  7.455221263110364 1.439150106184755 2.881682776366556  7.486839447795153 1.39773642661681 2.79742941477459  7.372862525872685 1.344009456155578 2.851705031909871  7.460940802539751 1.386558412220229 2.909215816131561  7.492559624334355 1.344091150060932 2.823452697921497  7.379146617162816 1.29020037381613 2.878437808393822  7.466625097826268 1.333991484183915 2.936693584101099  7.498235279138591 1.290481465702768 2.849425605314932  7.385398683532515 1.236431674989582 2.905137467825203  7.472284503166398 1.28145702257994 2.964137370885825  7.503883071882496 1.236915244318108 2.875365245240967  7.391607214118448 1.182722692856097 2.931820098655434  7.477926979413297 1.22897086533518 2.991564712465527  7.509515559090707 1.183417705943985 2.901281905741916  7.397772808104497 1.129119379505412 2.958505160906264  7.483551295770869 1.176578382402689 3.019012412806094  7.515141402192381 1.130038204017402 2.927200005795664  6.721300336063759 1.566678932221558 3.195854850799979  6.730095842107499 1.513165189315112 3.224506079266309  6.738947565162009 1.45965659217752 3.25311071716499  6.747833637244753 1.406153266395909 3.281680608385787  6.756735454822074 1.352658315517474 3.310228700380542  6.765636390928421 1.299173100018106 3.338768611926724  6.774526217304349 1.245695003331909 3.367308409286257  7.409059181836195 1.402971416944892 2.680025371630008  7.415356877071835 1.347086718194794 2.703486212564621  7.421596986836077 1.291265405301318 2.726882377760236  7.427795637644608 1.235491307506312 2.75023408634859  7.433955458654794 1.179766064612622 2.773558221738806  7.440073424757399 1.124111795475994 2.796865943349458  7.446159758324376 1.068565073185318 2.820162045913725  6.701215934827885 1.506326944381693 3.09048242728125  6.75642111007504 1.191391625557787 3.265346419050365  7.464330603493565 1.785464346783971 3.385845072962563  7.362240339257648 1.794416855658056 3.428854482778681  7.406003365543847 1.729280910068973 3.306496600630532  7.414065618846602 1.675396735038247 3.337092602591421  7.37106182848206 1.739464873113291 3.461785523724749  7.473086965112691 1.731585941514888 3.417804508024191  7.379890604035181 1.684501055792345 3.494663056475758  7.481850642618825 1.677699983233033 3.449714169594537  7.422125112604469 1.621506200287026 3.367626651959021  7.490607682061386 1.623815419240662 3.481586831797081  7.388715748135414 1.62953960532171 3.527500934357488  7.430176044156081 1.567619562154075 3.398119835562937  7.499343854931996 1.569933811845084 3.51343065391125  7.397524637955914 1.574579959936635 3.560309783592813  7.438207632821333 1.513740433072874 3.428584025951959  7.508044661815166 1.516049566728262 3.545251608166274  7.406302370750592 1.519618720729517 3.593095396687962  7.446206763470923 1.459868118732385 3.459028217324662  7.516690005884177 1.46215256038869 3.577054862587136  7.41503301311094 1.46464922449934 3.625862111066185  7.45416070321171 1.405996381704936 3.48945987569124  6.660811738380776 1.550839989418094 3.316588745583079  6.669527855720207 1.496909741583619 3.345430334745784  6.678275619043247 1.442982163329146 3.374242148335056  6.687039218007519 1.38905819246878 3.403031119968631  6.695804098882471 1.335135485183044 3.431802891427109  6.704552229817407 1.281208770051222 3.460559451326404  7.381443283523693 1.516368753421078 2.915819910566096  7.387558549489016 1.463542892701733 2.943604586310512  7.393643762157831 1.410723775406217 2.971288663561347  7.399703124449221 1.357927032721926 2.998912757684453  7.405739519487517 1.305161146017629 3.026502314544261  7.411751753555704 1.252442882502207 3.054079611788609  7.417733466097387 1.199805394191537 3.081684170328751  7.28403969384003 1.742828722388946 3.361579688434735  7.292599391869124 1.688000600700711 3.393071532322236  7.301167012671425 1.633166681595026 3.424500173521867  7.309733522437719 1.57833429373415 3.455887784213805  7.31828778227941 1.523505834403299 3.48724705360761  7.326816638643834 1.468676139512049 3.518587649578765  7.33530382412312 1.41384075601661 3.549917451881448  7.275283896794437 1.488788866779423 2.887343537191877  7.282204794134429 1.435544605050877 2.915545716888192  7.289132166500407 1.382326099531225 2.943641611299909  7.296051230543476 1.329127683855762 2.971677572745826  7.302945977399649 1.275958722169596 2.999680398425182  7.309793955451154 1.22283515360657 3.027675903391261  7.316562968102311 1.169803938391131 3.05569137140249  6.621241254051949 1.536320208894643 3.170347868008209  7.742082267964967 1.917215448008957 3.518468773769284  7.636034779419287 1.931083200563851 3.56654747501805  7.665953029902002 1.852861716919157 3.442728222964846  
[...]
<PointData  Vectors="f_24"> 
<DataArray  type="Float64"  Name="f_24"  NumberOfComponents="3" format="ascii">1.2867730399322345e-02 -1.4224230816114938e-01 3.2032189228738281e-02  1.3145996703556454e-02 -1.3763377960915418e-01 2.9606372425138347e-02  1.3619780353034489e-02 -1.4902272978080217e-01 3.7492403296427716e-02  1.3730043460694476e-02 -1.4731023903926124e-01 4.1359648094938611e-02  1.3131862860101028e-02 -1.3454899456644984e-01 3.4765804665018468e-02  1.3019910324142002e-02 -1.3958165701736558e-01 3.6788186002455633e-02  1.3711794605471790e-02 -1.4516566857419991e-01 4.4658419619145059e-02  1.3021005423591360e-02 -1.3126183812858577e-01 3.9278488161121394e-02  1.3056380551907984e-02 -1.3664569347091760e-01 4.0915021742923767e-02  1.3594517464842987e-02 -1.4256492637040033e-01 4.7563850634445251e-02  1.2837482569007021e-02 -1.2767514533417701e-01 4.3396156144350120e-02  1.3008756588700729e-02 -1.3335381123336915e-01 4.4645522640100833e-02  1.3406526364204417e-02 -1.3945434194658807e-01 5.0225787607503035e-02  1.2599598466634552e-02 -1.2368511833546990e-01 4.7334886843547488e-02  1.2900915618766653e-02 -1.2962044699362468e-01 4.8176114685501939e-02  1.3174430665177914e-02 -1.3574605394553410e-01 5.2790680573958651e-02  1.2324158951527013e-02 -1.1918327386735428e-01 5.1296829867456338e-02  1.2754462386892955e-02 -1.2534291342235343e-01 5.1685041298037832e-02  1.2929392609250670e-02 -1.3132925646863960e-01 5.5421177279322005e-02  1.2036047480453066e-02 -1.1405771456778463e-01 5.5485159927289210e-02  1.2588791639893076e-02 -1.2042141207715422e-01 5.5363241202708718e-02  1.2448164868468985e-02 -1.5737656152778212e-01 4.5574301771376106e-02  1.3132694074885933e-02 -1.5717902927617203e-01 4.5644224512567798e-02  1.2156368026731517e-02 -1.5621706422360868e-01 4.6570730405051004e-02  1.2313132656335164e-02 -1.5693625473089998e-01 4.5968396097122229e-02  1.3314749949394980e-02 -1.5727309234277942e-01 4.6603572243609316e-02  1.2695627865342960e-02 -1.5766176891521191e-01 4.6094656625562842e-02  1.2360378068246924e-02 -1.5695621504275312e-01 4.5359361393882899e-02  1.3365257090208598e-02 -1.5670803696644775e-01 4.7343690561377126e-02  1.2821808957716807e-02 -1.5727296498279655e-01 4.6447899956335324e-02  1.2320643767051963e-02 -1.5641377693658631e-01 4.4635213177911651e-02  1.3312822435467199e-02 -1.5557468523328752e-01 4.7839928596501644e-02  1.2848760387474864e-02 -1.5631009301379170e-01 4.6588762480086789e-02  1.2206680274024198e-02 -1.5541208629660586e-01 4.3655113233191031e-02  1.3180175221325292e-02 -1.5391934358958051e-01 4.8051871367025982e-02  1.2790630258247917e-02 -1.5484050365122790e-01 4.6452570881797918e-02  1.2025862074502531e-02 -1.5403414469125096e-01 4.2240821114072846e-02  1.2984286312636584e-02 -1.5174347842855998e-01 4.7906948709695550e-02  1.2653936890052073e-02 -1.5289228033862517e-01 4.5943070956614082e-02  1.1781714882793689e-02 -1.5235491788506386e-01 4.0149043370389437e-02  1.2742843904268799e-02 -1.4899000068856422e-01 4.7291903521318977e-02  1.2434978397781725e-02 -1.5041582814650309e-01 4.4915367620046762e-02  1.4218511080213539e-02 -1.5412419155288901e-01 4.8301112629455537e-02  1.3752771368953651e-02 -1.5637564208771373e-01 4.8030943046866940e-02  1.3684938532125407e-02 -1.5649461931643255e-01 4.7995261994553229e-02  1.3812431354257550e-02 -1.5692766049447593e-01 4.7272796974349357e-02  1.4366726623487211e-02 -1.5511246276074764e-01 4.6718662434080592e-02  1.3435801437443072e-02 -1.5568866968623679e-01 4.7928491630501210e-02  1.3974225456487679e-02 -1.5258305310484910e-01 4.9578422966908613e-02  1.3595855620568101e-02 -1.5525632733637468e-01 4.8548107463613030e-02  1.3115925469125678e-02 -1.5438512758186063e-01 4.7592165246843239e-02  1.3654036123063181e-02 -1.5049854817476932e-01 5.0571585983235676e-02  1.3365637150611865e-02 -1.5361712364972632e-01 4.8784035120818886e-02  1.2736208950601874e-02 -1.5262325419888745e-01 4.6857210865251041e-02  1.3269752164830889e-02 -1.4782782464358363e-01 5.1279997305142239e-02  1.3077221813247969e-02 -1.5145876945561756e-01 4.8666597592652801e-02  1.2957999290648526e-02 -1.5613852585374582e-01 4.7353494672797022e-02  1.3020638436862814e-02 -1.5681065512065812e-01 4.6963831657955639e-02  1.2966567243243713e-02 -1.5679460116766586e-01 4.6545367780555520e-02  1.2822458790729624e-02 -1.5621183280897277e-01 4.5999787558871227e-02  1.2609737817114238e-02 -1.5516041761689714e-01 4.5200357619908302e-02  1.2343336968598824e-02 -1.5371181455018307e-01 4.3982028309105040e-02  1.2038978798295038e-02 -1.5192337022399929e-01 4.2095341324427500e-02  1.3845461096648859e-02 -1.4056061034190481e-01 3.8382573663279206e-02  1.3654351088997665e-02 -1.3782660557936610e-01 4.2417154205664345e-02  1.3384682958978093e-02 -1.3471958062723846e-01 4.6045816681177451e-02  1.3053972145138409e-02 -1.3115268996000204e-01 4.9463980208543555e-02  1.2677006164033324e-02 -1.2701916687717965e-01 5.2859074262485997e-02  1.2268078488122320e-02 -1.2218035331987849e-01 5.6431613101096956e-02  1.3023198268249579e-02 -1.4846699742009228e-01 3.6362327036213449e-02  1.3242776409187662e-02 -1.4660046927995640e-01 4.0331021129303091e-02  1.3335894308313414e-02 -1.4432222997275798e-01 4.3729168971542456e-02  1.3331925734928946e-02 -1.4160387101886460e-01 4.6735381773196520e-02  1.3258360767641676e-02 -1.3838738752741331e-01 4.9503324394051619e-02  1.3138224326922540e-02 -1.3457374486236670e-01 5.2180505261112509e-02  1.3005139934638874e-02 -1.3011166246943640e-01 5.4957763044342821e-02  1.3226907341983696e-02 -1.5212677408338343e-01 3.9392693230939663e-02  1.3331451317680890e-02 -1.5485375429693127e-01 4.2083368417540602e-02  1.3543119681545703e-02 -1.5411407616427550e-01 4.4583585413364345e-02  1.3451006821590403e-02 -1.5085188768549801e-01 4.2678151717689579e-02  1.3538718401598426e-02 -1.4908656871709247e-01 4.5451497010196532e-02  1.3619485108338695e-02 -1.5280121737822622e-01 4.6663024964951803e-02  1.3524337572266730e-02 -1.4683511386759418e-01 4.7846151046431418e-02  1.3589246572647764e-02 -1.5096032272545568e-01 4.8401763741301236e-02  1.3434704515905891e-02 -1.4406183930706473e-01 4.9975681449581297e-02  1.3480577054008009e-02 -1.4858207481063263e-01 4.9864607710639365e-02  1.3297056120460461e-02 -1.4069151660802262e-01 5.1954340742183150e-02  1.3318974380394715e-02 -1.4560974782769481e-01 5.1106030242473788e-02  1.3145246838138287e-02 -1.3661017500504202e-01 5.3935832362166258e-02  1.3132381554544027e-02 -1.4192851153243091e-01 5.2172961574301978e-02  6.6303756994701927e-03 -1.5141448543155356e-01 3.9465229728050062e-02  7.7856904700203313e-03 -1.5435670821660444e-01 4.1239438659149689e-02  7.8633080285058481e-03 -1.5266932410022441e-01 4.1341382323156185e-02  8.3210117990141479e-03 -1.5358383411471707e-01 3.9434333386979499e-02  8.3888882323781989e-03 -1.5516396934166501e-01 4.0011042059645695e-02  7.1956855656035252e-03 -1.5227343262742771e-01 3.7376474749241932e-02  8.6990842010134135e-03 -1.5389975824364366e-01 3.7700482990965692e-02  8.8964343491763319e-03 -1.5534059490177396e-01 3.8853851407769688e-02  7.6815126696691870e-03 -1.5257625228401420e-01 3.5479477500739973e-02  9.0116583215494490e-03 -1.5376159316053659e-01 3.5953824958004102e-02  9.3269543988036240e-03 -1.5502617325174564e-01 3.7642030547809104e-02  8.1012560358224590e-03 -1.5246098495213245e-01 3.3583426105195151e-02  9.2546953974836470e-03 -1.5327458109104949e-01 3.4024655713762383e-02  9.6915752222172611e-03 -1.5431650967779670e-01 3.6240396729671984e-02  8.4681088076854379e-03 -1.5202493716826060e-01 3.1518324263133855e-02  9.4259908904574079e-03 -1.5252229720656327e-01 3.1740094483303942e-02  9.9986579648781975e-03 -1.5328157823501543e-01 3.4497668843343529e-02  8.7935673003062230e-03 -1.5135231765681068e-01 2.9118429700501776e-02  9.5346205121493912e-03 -1.5159683452036340e-01 2.8930990880446660e-02  1.0246040625224676e-02 -1.5197203287821359e-01 3.2215602101079731e-02  9.0919501588079300e-03 -1.5058084144233591e-01 2.6239003903796566e-02  1.3947238408564202e-02 -1.5501402079830048e-01 4.3275673650104853e-02  1.4038004970113168e-02 -1.5439930706941132e-01 4.5606082112864377e-02  1.3995003385395395e-02 -1.5320092358567014e-01 4.7536952648250579e-02  1.3848427589179374e-02 -1.5146521416671882e-01 4.9135235682698813e-02  1.3625303570022481e-02 -1.4918746210675671e-01 5.0452873437964001e-02  1.3347911380813732e-02 -1.4631216657178323e-01 5.1528037373050672e-02  1.3030419400567506e-02 -1.4273122120179538e-01 5.2412286157365387e-02  6.0513341528694881e-03 -1.4739711306874370e-01 3.7900124285294552e-02  6.4203563048550105e-03 -1.4815462137430743e-01 3.4960458325380563e-02  6.7424672239904497e-03 -1.4847540166404552e-01 3.2303450770886526e-02  7.0179041413295914e-03 -1.4847517201254454e-01 2.9712722605523243e-02  7.2449992150961989e-03 -1.4824700579257780e-01 2.6996797936700481e-02  7.4211823102054075e-03 -1.4786753766476965e-01 2.3987247843608048e-02  7.5508503559819622e-03 -1.4740988410795033e-01 2.0541063942267977e-02  1.3749010770148675e-02 -1.5682089722600054e-01 4.6292561326709135e-02  1.2722433666211196e-02 -1.4870745980725322e-01 4.8081147262918116e-02  9.2410383983020754e-03 -1.3975058394689563e-01 2.6533370568240778e-02  9.6797149648584855e-03 -1.3701299478254866e-01 2.5377309651984668e-02  1.0004518022685881e-02 -1.4649960509967630e-01 3.1786866219856082e-02  1.0640950422390230e-02 -1.4430373148463213e-01 3.5745005834493852e-02  1.0273987901775857e-02 -1.3358578563748719e-01 3.0328536446522936e-02  9.8937607689715424e-03 -1.3667958341259157e-01 3.1175729311245428e-02  1.0773852842121154e-02 -1.3000429267080199e-01 3.4658853748924939e-02  1.0458869342706201e-02 -1.3341323691970119e-01 3.5215271145359196e-02  1.1175581859228876e-02 -1.4173709425699199e-01 3.9134019780753038e-02  1.0949241644509099e-02 -1.2985483421554880e-01 3.8889622502849282e-02  1.1192408497389939e-02 -1.2616906089289884e-01 3.8643649034303687e-02  1.1622070662247387e-02 -1.3878783923082896e-01 4.2163934429989898e-02  1.1357092064438801e-02 -1.2591048846477237e-01 4.2394000408322426e-02  1.1538831366588597e-02 -1.2196960244880377e-01 4.2468632412087495e-02  1.1979578825175042e-02 -1.3538160892131548e-01 4.4993553885031311e-02  1.1677191716909441e-02 -1.2148498012930155e-01 4.5911248118437255e-02  1.1816264332350539e-02 -1.1730095872410601e-01 4.6331911122670086e-02  1.2242653623481689e-02 -1.3144266051867720e-01 4.7778230298755636e-02  1.1896906793224044e-02 -1.1645756495955635e-01 4.9620443859438118e-02  1.2023671657793875e-02 -1.1206295171401798e-01 5.0423812757061093e-02  1.2404205369393080e-02 -1.2690417342839733e-01 5.0694369848871920e-02  1.4289053050359872e-02 -1.4988639147289859e-01 4.3477672531494461e-02  1.4145621170547984e-02 -1.4808842687232388e-01 4.6336887324127836e-02  1.3905484630282707e-02 -1.4580023923055127e-01 4.8822594656483594e-02  1.3593240941769752e-02 -1.4298182116967192e-01 5.1053345561793716e-02  1.3227171047951293e-02 -1.3954962965128298e-01 5.3140219617367833e-02  1.2819140258465898e-02 -1.3536895828674791e-01 5.5201308962846037e-02  8.8983405107884144e-03 -1.5600711348955590e-01 4.2321813293490801e-02  9.4532420073229935e-03 -1.5665134642834608e-01 4.1751383951418239e-02  9.9137950221649257e-03 -1.5664816101392209e-01 4.1155860560908655e-02  1.0292109370028203e-02 -1.5611984270325457e-01 4.0438097644411704e-02  1.0592917151626996e-02 -1.5514965568039740e-01 3.9501334870641808e-02  1.0817948957762830e-02 -1.5378402815655090e-01 3.8224477735876609e-02  1.0967511499406481e-02 -1.5203773353294844e-01 3.6465797526032850e-02  1.0578470414486023e-02 -1.4359323604699722e-01 3.0330587218774848e-02  1.1133604809388813e-02 -1.4092636415708998e-01 3.4761648173129149e-02  1.1580142603998329e-02 -1.3798042743803898e-01 3.8594450251904937e-02  1.1935860630559667e-02 -1.3467917258730555e-01 4.2055101544071306e-02  1.2211376216192900e-02 -1.3094653190141292e-01 4.5331587422667838e-02  1.2409951339625131e-02 -1.2669970146310766e-01 4.8599035991975299e-02  1.2525970050984563e-02 -1.2182938152809238e-01 5.2007515029014281e-02  9.3849849074787925e-03 -1.5553886575049145e-01 4.3279159983800837e-02  9.8186635507117020e-03 -1.5633861135260368e-01 4.2310054598096704e-02  1.0172888478590440e-02 -1.5647978349733932e-01 4.1374542570293396e-02  1.0450393172040384e-02 -1.5610360515951408e-01 4.0359219524088129e-02  1.0643505853098732e-02 -1.5530360076659749e-01 3.9132861591352514e-02  1.0740630404488178e-02 -1.5413898973657181e-01 3.7540636722097891e-02  1.0733587751951499e-02 -1.5262417573300374e-01 3.5367807029782206e-02  1.4379907748534921e-02 -1.5548636580162783e-01 4.4794316333121920e-02  5.8050841095680945e-03 -1.2235262184690572e-01 1.3083798232023214e-02  6.2050495119075960e-03 -1.1826218974411794e-01 1.1418244643891821e-02  7.2693888897589981e-03 -1.3181195312148564e-01 1.9912012377008056e-02  8.0072326036836079e-03 -1.2795932268645871e-01 2.4892236761760316e-02  6.9062603013050764e-03 -1.1311562028255209e-01 1.6812136869646284e-02  6.5509562699646081e-03 -1.1759901604131719e-01 1.8306471387240026e-02  8.6846966082232777e-03 -1.2403598902026611e-01 2.9280071199383646e-02  7.5551288567494660e-03 -1.0816312623313974e-01 2.1657814572396052e-02  7.2506289606057367e-03 -1.1295906702269930e-01 2.2961849985083285e-02  9.2923206990097040e-03 -1.1991616510269952e-01 3.3319548760959439e-02  8.1554277158477576e-03 -1.0320416147844268e-01 2.6232006149190665e-02  7.8993122548573387e-03 -1.0825662859250026e-01 2.7317770023497338e-02  9.8198828407203235e-03 -1.1547886582126977e-01 3.7229778784198600e-02  8.7117285277596920e-03 -9.8070656515932053e-02 3.0763733466362363e-02  8.4906708817454653e-03 -1.0334147141584403e-01 3.1604477948475616e-02  1.0258547872569346e-02 -1.1061023883464212e-01 4.1220013862640244e-02  9.2281510950404776e-03 -9.2620809089945355e-02 3.5462803480188175e-02  9.0188807923430314e-03 -9.8082023860264850e-02 3.6029396356822466e-02  1.0605454480133489e-02 -1.0523735519541651e-01 4.5515693874174007e-02  9.7115824534784526e-03 -8.6721986488265651e-02 4.0518535079721751e-02  9.4640684077133500e-03 -9.2347618896050615e-02 4.0749708275064959e-02  2.9434747479235939e-03 -1.1125988737520789e-01 4.3523454780500532e-03  1.7263243773502415e-03 -9.5852834208421833e-02 -4.1728450229538685e-03  3.4689267987073023e-03 -1.0691722731585528e-01 3.0817691480198826e-03  4.2026136862722977e-03 -1.0105423671384899e-01 8.1605114487009779e-03  2.4130554145040577e-03 -8.9228007608713633e-02 3.2240270725240471e-04  3.7367409095977718e-03 -1.0582099217572660e-01 9.4902293446676445e-03  4.9278049173990465e-03 -9.5549329183937937e-02 1.2811225174653858e-02  3.1338007715190496e-03 -8.3127983955451429e-02 4.5500607826718551e-03  4.5235163371122782e-03 -1.0065901154224619e-01 1.4130950824595187e-02  5.6371745027827521e-03 -9.0159694523435405e-02 1.7285149809319209e-02  3.8680905701858085e-03 -7.7251963812610708e-02 8.7280067461018782e-03  5.2853338332743399e-03 -9.5556760004420899e-02 1.8542389839474226e-02  6.3248122968601501e-03 -8.4686722056392452e-02 2.1797385263439998e-02  4.6112645631321541e-03 -7.1386968074584348e-02 1.3034936317587311e-02  6.0118897867323315e-03 -9.0331878019267411e-02 2.2945584915045520e-02  6.9904392126195463e-03 -7.8974438655120494e-02 2.6544107397451208e-02  6.6941024684515878e-03 -8.4832127502940197e-02 2.7545281492133880e-02  3.6121302537318275e-03 -1.0152973519150474e-01 4.1802870888598396e-04  4.3054712165282692e-03 -9.5123703080056729e-02 5.3255040704865723e-03  4.9713911800124419e-03 -8.9194475993668532e-02 9.8712200531649742e-03  5.6303677455037957e-03 -8.3458392029649303e-02 1.4302599276964088e-02  6.2869487006387663e-03 -7.7702854023350656e-02 1.8817543611102765e-02  6.9506032167115537e-03 -7.1770117438500355e-02 2.3594567956795182e-02  5.9100177328887020e-03 -1.2966793975334756e-01 1.7248991008237478e-02  7.1095267409687912e-03 -1.3804927608758805e-01 2.3296276880488079e-02  7.9032208443290085e-03 -1.3503263198753232e-01 2.7792945434787712e-02  6.7033723259504949e-03 -1.2571352344436673e-01 2.2174675017209704e-02  8.6318960368940868e-03 -1.3181259157634295e-01 3.1702132666995307e-02  7.4471124340425637e-03 -1.2172516076828825e-01 2.6507876493777831e-02  9.2881598265560049e-03 -1.2832319842633483e-01 3.5237027718493165e-02  8.1286076223258640e-03 -1.1756501306267314e-01 3.0502397841591773e-02  9.8508128103157715e-03 -1.2447088745721657e-01 3.8587910655744399e-02  8.7315953611893440e-03 -1.1310884086321671e-01 3.4372971761900024e-02  1.0295350023448252e-02 -1.2014803128612317e-01 4.1939626354367210e-02  9.2369245684073339e-03 -1.0823551262580290e-01 3.8324972611434575e-02  1.0596299144653676e-02 -1.1521360732465423e-01 4.5508282179060611e-02  9.6246609026327916e-03 -1.0286203796997467e-01 4.2575949469653041e-02  7.5312357777112936e-03 -1.2602787112192107e-01 1.6973646072361116e-02  8.2015748034132228e-03 -1.2149161566434111e-01 2.2248318926488781e-02  8.8039015417261737e-03 -1.1700007144695239e-01 2.6940768493371806e-02  9.3424112090217185e-03 -1.1240255121708033e-01 3.1320228244855586e-02  9.8213872389949532e-03 -1.0755545166931253e-01 3.5612574117145579e-02  1.0249443565095327e-02 -1.0232731782164381e-01 4.0028173653606433e-02  1.0633058409154511e-02 -9.6608663273596976e-02 4.4763335438244546e-02  9.9929836379180383e-03 -1.3322186941505115e-01 2.3594438217879630e-02  1.0501535965817248e-02 -1.2935746424489808e-01 2.8795815086926954e-02  1.0911980433154687e-02 -1.2540729857141619e-01 3.3410723784928528e-02  1.1248097350732948e-02 -1.2124202753119900e-01 3.7679004943786766e-02  1.1521908770482484e-02 -1.1674365672518679e-01 4.1812267901609732e-02  1.1746731103309104e-02 -1.1180607291547592e-01 4.6006157848741881e-02  1.1929666207497689e-02 -1.0633802532661833e-01 5.0449431966210420e-02  6.4604154212284381e-03 -1.1343617300746327e-01 9.3499410255035598e-03  7.0939577823342292e-03 -1.0785314668265088e-01 1.4740832093289918e-02  7.6717589659248842e-03 -1.0254408615231374e-01 1.9665912330321778e-02  8.2087597851214934e-03 -9.7286801185787669e-02 2.4355392961690061e-02  8.7161068391201340e-03 -9.1901015902603217e-02 2.9035659108811722e-02  9.2119855085175152e-03 -8.6233756803303460e-02 3.3904925893663930e-02  9.7136341230908956e-03 -8.0156009823947119e-02 3.9173537818044508e-02  6.2715057958265706e-03 -1.4742703851983993e-01 2.9264390695583137e-02  5.8541114412100879e-03 -1.4197316598072890e-01 2.4698220483790376e-02  7.0124740705980963e-03 -1.4379781247225373e-01 2.7025227258142923e-02  7.8528086591192064e-03 -1.4151072580893148e-01 3.0788271790235511e-02  6.7446611200591717e-03 -1.3962157173551992e-01 2.8512181418293508e-02  7.1900213570840060e-03 -1.4582814171011871e-01 3.2236715822780627e-02  8.6209539184754318e-03 -1.3890109073496967e-01 3.4022838120342097e-02  7.5778430718122401e-03 -1.3696916930299555e-01 3.1790698990365449e-02  8.0340714635071930e-03 -1.4381586480149944e-01 3.4750012608968650e-02  9.3091815970269241e-03 -1.3593563403991346e-01 3.6895230803948249e-02  8.3314917143406594e-03 -1.3398028031174447e-01 3.4701276675656437e-02  8.7922765559882553e-03 -1.4139359957667871e-01 3.6922663378462402e-02  9.8957298300341202e-03 -1.3255512953510823e-01 3.9552313307329702e-02  8.9829788978846702e-03 -1.3058977665522670e-01 3.7388155986687731e-02  9.4456197654646055e-03 -1.3853387405145051e-01 3.8842524410551769e-02  1.0349687584088652e-02 -1.2867304832149326e-01 4.2128301014199045e-02  9.5007367852673781e-03 -1.2670277800448437e-01 3.9987741102401879e-02  5.9315470408971144e-03 -1.3640487010894489e-01 2.1070201084390588e-02  6.7708626027861160e-03 -1.3329069907847629e-01 2.5544421988656661e-02  7.5616514138179625e-03 -1.3000086288353094e-01 2.9428627303171730e-02  8.2809279988816775e-03 -1.2645635251065979e-01 3.2942430850701532e-02  8.9062480162181538e-03 -1.2255821317728047e-01 3.6273282008054360e-02  9.4086640359840740e-03 -1.1819432404108068e-01 3.9601370332315540e-02  9.7545364040815871e-03 -1.1323198212511268e-01 4.3134252960319121e-02  1.0617867647715901e-02 -1.2416697523109979e-01 4.4748462507516192e-02  9.841322531