<?xml version="1.0"?>
<VTKFile type="UnstructuredGrid"  version="0.1"  >
<UnstructuredGrid>
<Piece  NumberOfPoints="1063" NumberOfCells="4454">
<Points>
<DataArray  type="Float64"  NumberOfComponents="3"  format="ascii">4.902612084868541 1.468473936384188 3.42062816584029  4.987450543129818 1.528213147709057 3.512544599353532  4.846791063340706 1.531330489665432 3.547134383861237  4.853068316176036 1.47563817048588 3.578937226236635  4.993283683593704 1.472548114457358 3.543505878340805  4.909063684707703 1.414478745310096 3.450508335155616  4.9155248118881 1.36050659706965 3.480374428385462  4.999102514985604 1.416913238540713 3.574449787616349  4.859351300090709 1.41999648301774 3.610721664877022  4.865643574429752 1.36437997671261 3.642495312665719  5.004916998585844 1.361313525184234 3.605371618035668  4.92199292505489 1.306574654451077 3.510216162906475  4.928468762876191 1.252663187744085 3.540027856680713  5.010738345879608 1.305735503617145 3.636259630882622  4.87194410777092 1.308806467172365 3.674225849076081  4.878260012216465 1.253240376118202 3.705899304212136  5.016578052654402 1.250175827139156 3.667090599737562  4.934953891227254 1.198770498909557 3.569787968003235  4.884598880223742 1.19768853631513 3.737484226492301  5.022450006436156 1.194630608855595 3.697844959501749  4.941457475053717 1.144889421628005 3.599476817362736  4.680102075918017 1.051658348921923 2.71859553639236  4.802975734908745 1.08318651267892 2.754090686589028  4.738830191058629 1.124524099431383 2.862993432204408  4.746618232273208 1.073084713777428 2.890257275480963  4.809932958583091 1.029119358074707 2.777671553987671  4.687782692303051 0.9973572700489221 2.741051065854985  4.754476736095483 1.02168411383308 2.917544750416081  4.816915723050887 0.975070367368573 2.801273868867032  4.695535053308907 0.9430599691986752 2.763509227925448  4.762363583659877 0.9703050156166292 2.944825035751215  4.823911546276761 0.9210303555616628 2.82487594553066  4.703312495378058 0.8887648500417146 2.785964952482801  4.770251871723918 0.9189382919576861 2.972087006599022  4.830914772240143 0.8669951873710252 2.848470950943216  5.369710649250088 1.528487488675564 3.581663195552252  5.305418388069705 1.592930139815659 3.706917393400191  5.445451760921396 1.586674469295638 3.673544751231765  5.300223625372677 1.650658735119875 3.672006282837094  5.364755732466444 1.584659857804327 3.549595309492608  5.374604817103725 1.472332571264312 3.613728437340523  5.31056380028965 1.535229905110487 3.741827496888904  5.450652839373535 1.529349530505238 3.707598764190328  5.379472881453724 1.416194347546097 3.645777052811621  5.315686614101891 1.477554030924115 3.776719382342949  5.45582932618354 1.472039276066012 3.741638322700835  5.384343157666537 1.360065616245267 3.677792398540987  4.831136494763791 1.891321263282532 4.02409832430761  4.956296533320759 1.807208560709913 3.93321244455076  4.976695644055694 1.905080337784034 4.030774555801235  4.979962450638258 1.856854442211778 4.090669182711963  4.960587427937094 1.752508535189705 3.983168645038238  4.832259636170821 1.8444177038843 4.084574171904148  4.983163962773374 1.80873616175799 4.150542499110324  4.964832578722372 1.697901701296356 4.033137763494349  4.833302281387864 1.797630892979079 4.145034796380754  4.98635141877436 1.760681548904528 4.21037274508027  4.969067115333534 1.643356217317888 4.083080711799456  4.834325764283654 1.750920072983061 4.205447846991601  4.989555464478743 1.712642314159139 4.270131005011024  4.973314800884469 1.5888353359326 4.132962855279136  4.83537278644879 1.704229596021124 4.265783110915522  4.977597406385909 1.53430591542656 4.182760541123017  4.83648009968689 1.65751132822525 4.326022499706714  4.992807822224806 1.664597379849434 4.329782901788564  4.981920087553079 1.479738342949227 4.232444850838651  4.837676109968289 1.610745243775453 4.386155058150572  4.996126535036341 1.616515242538312 4.389335454811041  5.355087835250101 1.485707127186717 3.371309182754758  5.405190149822639 1.420765017535311 3.246170556434023  5.508055343992956 1.475432542368829 3.328056431514578  5.512746510016086 1.422429312912982 3.357652809612957  5.409433040592582 1.368508151225227 3.275300972755077  5.359710067103734 1.431852201806816 3.400773592089601  5.364263871206574 1.378003842111564 3.430233905497482  5.413595493457856 1.316257990627231 3.304427805973766  5.517368291925361 1.369429418293356 3.387254479255842  5.368786773716559 1.324167798135344 3.459678855678164  5.417720790643353 1.264014734309139 3.333541780897936  5.521958220687521 1.316431015083032 3.41684818357909  5.373308908836392 1.270338572511933 3.489097008603978  5.421842589968976 1.21177497669125 3.362633859089506  5.526546827925221 1.263429907509508 3.446420016289366  5.377860574220583 1.216510707990865 3.518472003932076  5.425996273461631 1.159532532119985 3.391691370087039  5.531166247863347 1.210417790657968 3.475953740017865  5.382481312056941 1.16267495335455 3.547782666559625  5.43022976412536 1.107276311108367 3.420697561160245  5.535858199546478 1.157381631006962 3.505425379696942  4.932984353255196 0.991383876826032 2.316058901283675  5.058146722835554 0.9978618934830064 2.248768543440937  5.056716652649123 1.008595071950822 2.413087748003575  5.061178700670107 0.9466201059440015 2.421135886788293  5.062090765338733 0.9346407686130932 2.247932228597182  4.937200947535636 0.9292158145650143 2.317724882648696  4.941294994203971 0.8670511484484895 2.319388910199712  5.065904858164353 0.8713838717788165 2.247096908093197  5.065530848038268 0.8846265739544152 2.42920981830412  5.069858031534742 0.822632752667396 2.437285711328324  5.069685109401187 0.8081230407645419 2.246261669629565  4.945354081252185 0.8048971097195611 2.321055129501493  5.074196202733721 0.7606432884811583 2.44536745756885  5.073482954113252 0.7448649599899901 2.245434066876752  4.949430338025695 0.74275924518109 2.322730987972412  5.078587923162906 0.6986589152337173 2.453462247396989  5.077354064864689 0.6816039456860024 2.244623269751175  4.953581051882413 0.680648583132361 2.324426225384735  5.083132483812847 0.636662328466717 2.461571222654923  5.081388799153361 0.6183053310267925 2.243841654190033  4.957918838063984 0.6185684920888397 2.32614814339776  4.647122213012714 1.781784227920057 3.931000684098614  4.792717524673092 1.791577731519552 3.93428819870781  4.673589667587787 1.887419889754674 4.022633587923739  4.6725313241435 1.843400391190737 4.084752976614333  4.796312067345836 1.73804634311288 3.985374495963003  4.649840968344114 1.729424126331409 3.982373598755002  4.652504240867977 1.677191265277316 4.033776368063616  4.799858647011806 1.684635462198693 4.036465459858852  4.671373045305248 1.799548597349555 4.146839994495474  4.655170173494651 1.625038264130869 4.085157039583494  4.80340263677106 1.631301795012253 4.087521828311845  4.670194758964044 1.755773350593725 4.208877528058636  4.806969333078184 1.577988685196371 4.138516010107108  4.657865185216171 1.572914282246382 4.136465372690602  4.669047159683084 1.712026601290566 4.270825970054948  4.810581506038329 1.524669579275666 4.189407840785521  4.660616230188422 1.52077363601799 4.187669365243877  4.667978733042442 1.668254356489355 4.332660838216143  4.814246683914056 1.471306044320721 4.240178912007699  4.66345378259075 1.468586080316675 4.238740364383411  4.667028483598727 1.624406000534985 4.394362380144915  5.465322806991656 1.537099652105958 3.44676886193156  5.470340267864888 1.482227101614623 3.476990320271536  5.475293766051038 1.427368828831248 3.507214482672278  5.480219291643729 1.37251751746581 3.537427464104772  5.485145663012442 1.31766850115116 3.567613324593659  5.490102047624378 1.262814365573916 3.597751469432748  5.49512322591737 1.207945300830779 3.627813033575908  4.919681027274324 1.591333621672817 3.636926206684248  5.065975321512891 1.591315603734877 3.610966035385178  5.00656964441204 1.660452823540904 3.738040712456943  5.012539360195545 1.603102140474893 3.776353921610155  5.071815311959484 1.53417768170844 3.643963760770661  4.925554990786289 1.534142583215367 3.670447150726219  5.018493467067957 1.545797314361389 3.814666451996764  5.077632299422318 1.477075893475673 3.676949665110664  4.931415553733339 1.4769941066729 3.703964423886754  5.02444196312905 1.488536237284486 3.852957681679507  5.083440477350132 1.420008310338157 3.709915841947556  4.937272946119226 1.419887061173683 3.737463760689714  5.030400316151702 1.431302639602645 3.891202537459493  5.089255088341233 1.362965214483304 3.742843483368874  4.943139942045488 1.362806888598984 3.770924125505812  5.036379955714995 1.374080448640901 3.929372293368328  5.095090500652608 1.305936583103052 3.775708942362806  4.949029515679785 1.305739264545849 3.804319514396416  5.042378536972093 1.31685561871691 3.967447530998022  5.100952673556055 1.248912003818089 3.808490079356717  4.954952169305904 1.248668376749889 3.837624388786209  4.749793613621895 1.707503437541614 3.835732708246462  4.75404817722641 1.651832551777005 3.879955217077107  4.75827191335163 1.596249207351344 3.924199278210969  4.762495177131938 1.540729762953843 3.968427435535079  4.766736518890696 1.48523969693404 4.012602201144335  4.771012055932987 1.429747519031258 4.056688413307742  4.775346896318733 1.374225838424669 4.100657647386655  4.890454931991977 1.727152920525324 3.843600997669601  5.029354911273415 1.733842127572862 3.833789080004188  5.033668994578558 1.6766095418555 3.876658598748755  4.896159088369723 1.670925248938919 3.887694789135004  5.037944000250499 1.619439686983697 3.919533521265038  4.901845198372588 1.614771771320621 3.931799081664803  5.042203196001859 1.562317238516951 3.962386917837504  4.90752698256267 1.558675117061034 3.97588541546644  5.046470797459179 1.505218140613386 4.005190910779469  4.913224414842045 1.502605403757086 4.019921146471169  5.050766985778258 1.448119800340658 4.047917464073166  4.918954706481157 1.446535269077627 4.063875638800713  5.055126347735795 1.391004439
[...]
<PointData  Vectors="f_24"> 
<DataArray  type="Float64"  Name="f_24"  NumberOfComponents="3" format="ascii">2.4436078890036620e-04 -1.3601722268104834e-03 1.2789956402308291e-04  2.3720658733209800e-04 -1.2884749358083719e-03 7.2385187890166525e-05  2.3166861416157428e-04 -1.1784581184045558e-03 2.7359819125788540e-05  1.9769088983718350e-04 -1.1386079328599313e-03 9.9653612803382382e-05  2.0451378574913242e-04 -1.2524584868139881e-03 1.4410180309431844e-04  2.1248678788296144e-04 -1.3337358332826013e-03 1.9097924618915183e-04  1.8096126914792375e-04 -1.3046019674462462e-03 2.4686047715934541e-04  1.7291844596874155e-04 -1.2151259922080840e-03 2.0800792282592068e-04  1.6443326100412989e-04 -1.0987149379486970e-03 1.6457174869387452e-04  1.3152114821062788e-04 -1.0571354323698533e-03 2.2525954626091793e-04  1.4141594293537555e-04 -1.1752949660243785e-03 2.6740862011715799e-04  1.4955982321829470e-04 -1.2713016932585461e-03 2.9836443467694035e-04  1.1758538813818637e-04 -1.2333480022163120e-03 3.4819339715169527e-04  1.0963170565235615e-04 -1.1315681781941369e-03 3.2605451395721781e-04  9.8282662036127584e-05 -1.0125192091210329e-03 2.8544944651479357e-04  6.4348111995908032e-05 -9.6314494553894801e-04 3.4829270928270483e-04  7.7051145676392530e-05 -1.0824384908509799e-03 3.8698712675704533e-04  8.4702739786374768e-05 -1.1886214624048984e-03 3.9916233639316950e-04  2.9179115711934042e-05 -9.0745290979902052e-04 4.1760590992813760e-04  4.3322691405694873e-05 -1.0262938495665219e-03 4.5382058758255229e-04  5.0319348872159471e-05 -1.1355861954341843e-03 4.5426177066072981e-04  1.8758686432641787e-04 -1.3707708639522076e-03 2.6840039870579810e-04  1.9322553870136056e-04 -1.4433078184142615e-03 3.0428556618500329e-04  2.0837127061264411e-04 -1.4616589553188314e-03 3.1400545960772949e-04  1.8152400083387425e-04 -1.4746708049035904e-03 3.0164900260903015e-04  1.6719853728736908e-04 -1.4553433275005883e-03 2.7843588491544718e-04  1.6106433007013660e-04 -1.3810999857002786e-03 2.4103883600337114e-04  1.5469413496089238e-04 -1.4805281007439905e-03 2.9079339780447184e-04  1.4140690955627435e-04 -1.4617315750955595e-03 2.5628398463331244e-04  1.3490699262921817e-04 -1.3868603690746946e-03 2.1799055045494309e-04  1.2757652019694106e-04 -1.4811388319714439e-03 2.7932391409059450e-04  1.1564367595783322e-04 -1.4642777970306818e-03 2.3470141604835018e-04  1.0884262169300724e-04 -1.3896565771107235e-03 1.9594391291562736e-04  9.9915638237485887e-05 -1.4780701365661889e-03 2.6513567306779134e-04  8.9588694977014532e-05 -1.4645237868775155e-03 2.1129022698206503e-04  2.0188745611588932e-04 -1.3503452425540749e-03 1.7188266916763243e-04  1.8677604504762214e-04 -1.1296095134806321e-03 7.1012080614660079e-05  1.9072345938879020e-04 -1.2343541984252996e-03 1.1308871971345387e-04  2.1703695234896018e-04 -1.1838782383481723e-03 -9.3852908165421742e-06  2.2972425506140000e-04 -1.3913857497894510e-03 9.6061871860945826e-05  1.7451938944397738e-04 -1.3081756928138674e-03 2.3953532856632896e-04  1.5756590579270592e-04 -1.0777536108695731e-03 1.4337818678107698e-04  1.6371758624368979e-04 -1.1845040017436923e-03 1.8541819222066145e-04  1.4727040046143730e-04 -1.2635286696427513e-03 3.0273354084125727e-04  1.2878563931407574e-04 -1.0261104380016469e-03 2.1215978751379583e-04  1.3694252826938655e-04 -1.1339913503101060e-03 2.5375790526793805e-04  1.1974148058764699e-04 -1.2149808293098047e-03 3.6505013507681454e-04  1.7538965214594637e-04 -3.9416638985955007e-04 -3.2710371202473721e-04  1.8479673272279247e-04 -6.0876200872887515e-04 -2.4826342894843919e-04  1.7409421136958261e-04 -4.4460329271034903e-04 -3.1400424516339636e-04  1.4474531163181760e-04 -3.6428571187918667e-04 -2.8996116834153541e-04  1.5172462893660928e-04 -5.2949907266065148e-04 -1.9695748486835794e-04  1.4592213106120685e-04 -3.1475211220566643e-04 -3.0657112559555447e-04  1.1804048526076019e-04 -2.9787117898769810e-04 -2.5958822716600464e-04  1.2069350202944008e-04 -4.6219909588543105e-04 -1.4704514024627366e-04  1.1910092985200696e-04 -2.4916030864758449e-04 -2.7976555290236578e-04  9.2343552985076682e-05 -2.3900758498947327e-04 -2.2336783458315658e-04  9.0894958709834530e-05 -4.0160471426318675e-04 -9.4865017006685293e-05  9.3047621986507199e-05 -1.9132750335793837e-04 -2.4657645883473776e-04  6.6810546196680243e-05 -1.8441040579611755e-04 -1.8111149956634234e-04  6.1385108372436915e-05 -3.4454311004256810e-04 -3.8497916828278601e-05  6.6940238324990418e-05 -1.3785786735809091e-04 -2.0723892063017528e-04  3.1453094236892668e-05 -2.8899175147803865e-04 2.3357030733828873e-05  4.0254776356629128e-05 -8.6719717031009133e-05 -1.6172289998755461e-04  4.0826705841704629e-05 -1.3223265853016533e-04 -1.3281612141346087e-04  6.1073128716711423e-07 -2.3374869809821052e-04 9.1857072354953570e-05  1.2427982525681067e-05 -3.6691319833326867e-05 -1.1023906303655056e-04  1.4229327298337913e-05 -8.0707145211339221e-05 -7.8795086548743968e-05  2.4290574774810027e-04 -1.6016516027741554e-03 2.3100050731391975e-04  2.4260414912036202e-04 -1.7185355707582310e-03 3.2177570912111730e-04  2.4037443392115553e-04 -1.6955293850172846e-03 2.8086118918092855e-04  2.1756954092996719e-04 -1.6773995546783217e-03 3.3377711148741414e-04  2.1941520203312118e-04 -1.7084393543552515e-03 3.6346097694996122e-04  2.1724376073638469e-04 -1.5797555478232700e-03 2.8958633728365938e-04  1.9173693665226627e-04 -1.5532015818388036e-03 3.4116884212819268e-04  1.9610770869851467e-04 -1.6918919046893513e-03 3.9954252043170757e-04  1.9485140954280305e-04 -1.6539690325324955e-03 3.8012035458151732e-04  1.6607628363108303e-04 -1.5215180055655464e-03 3.8817706013311699e-04  1.7258517187302211e-04 -1.6689742102965392e-03 4.3149511799987870e-04  1.7186364901161297e-04 -1.6247577660820670e-03 4.2194456468470925e-04  1.4000180204729365e-04 -1.4836991145668031e-03 4.3292064824292895e-04  1.4867973325546899e-04 -1.6391653828749207e-03 4.6047612463741977e-04  1.4838512246982818e-04 -1.5889753247289940e-03 4.6121049872632205e-04  1.1308881713866228e-04 -1.4383109059837554e-03 4.7783695038375307e-04  1.2395434698112085e-04 -1.6013850623578805e-03 4.8747185242121658e-04  1.2410590441794346e-04 -1.5453546948777177e-03 4.9996335840893922e-04  8.5005299570790121e-05 -1.3833051917268551e-03 5.2562098645709317e-04  9.8187422367364079e-05 -1.5538919839439150e-03 5.1368383403018240e-04  9.8733012139514564e-05 -1.4919383428996721e-03 5.4004409994002148e-04  1.3742481358888737e-04 -1.2364348973568967e-03 1.5433820105775647e-04  1.2701006656760466e-04 -1.2330840248907758e-03 1.4823049021000742e-04  1.4146523523229766e-04 -1.3330701465321896e-03 2.1420692145696814e-04  1.2074538993316942e-04 -1.3258144304376218e-03 1.7294136679116376e-04  1.0941914609062368e-04 -1.2160148074817361e-03 1.1368236315786955e-04  1.1799209894559650e-04 -1.2221403830807631e-03 1.1934416542078598e-04  9.9000650528539939e-05 -1.2109662546518430e-03 8.7287019459483375e-05  9.2134831197744946e-05 -1.2029763878914225e-03 8.1895708355204084e-05  1.0032071294134141e-04 -1.3199658539362245e-03 1.3560511199598658e-04  8.0224708767999216e-05 -1.3154086233239960e-03 1.0001073452322248e-04  7.5175211509654867e-05 -1.1931167721884307e-03 5.1246329872140119e-05  8.0383110809705927e-05 -1.2023687867464634e-03 5.6514222119204771e-05  6.0212558422978979e-05 -1.3121181226512456e-03 6.4218217685691915e-05  5.8375682012452497e-05 -1.1859218151012753e-03 2.0406440380440740e-05  6.1874805567568703e-05 -1.1960183073163621e-03 2.5680567065201282e-05  4.0164850704846055e-05 -1.3103039561832440e-03 2.6810493952371002e-05  4.1569168736433037e-05 -1.1811243109935005e-03 -1.1606366436597457e-05  4.3345643227534000e-05 -1.1917898106475792e-03 -6.3315338353237083e-06  2.0089229431393887e-05 -1.3102239906029169e-03 -1.3314324845627436e-05  2.4656270140062652e-05 -1.1786248389002135e-03 -4.5574513370414119e-05  2.4679671397773473e-05 -1.1896592216955621e-03 -4.0400593522740144e-05  1.8306855436471320e-04 -4.7605461129916662e-04 -2.8366899070821538e-04  1.8326480612703469e-04 -5.3684133830051068e-04 -2.6503101337615364e-04  1.7590838473198215e-04 -3.2489468528410881e-04 -3.4633929498527149e-04  1.4845298519323863e-04 -2.4717343073722518e-04 -3.3467033722255296e-04  1.4878895312206365e-04 -4.5771191652307523e-04 -2.1892326604098857e-04  1.4959209074182764e-04 -3.9826977169477073e-04 -2.4225838122373809e-04  1.1854796641634809e-04 -3.3390337941715533e-04 -2.0001531022709467e-04  1.1774173333571948e-04 -3.9148188917556017e-04 -1.7266662926450715e-04  1.2263160871817943e-04 -1.8368205595449490e-04 -3.1393359683707614e-04  8.8456143483886700e-05 -2.7615855855491302e-04 -1.5411337895566187e-04  8.7413155599318625e-05 -3.3214026918555273e-04 -1.2374678450422107e-04  9.7212626574921468e-05 -1.2762694616664123e-04 -2.8631643124059331e-04  5.7312851105702201e-05 -2.7637649424127177e-04 -7.0174824144149541e-05  5.8375632347636651e-05 -2.2197919791932893e-04 -1.0343231090937785e-04  7.1629476222043897e-05 -7.6049339616450986e-05 -2.5209719613306753e-04  2.6621436992889951e-05 -2.2217624995522363e-04 -1.0876087132226580e-05  2.7655747773819084e-05 -1.6934953177701439e-04 -4.6984244228154623e-05  4.5208950998176805e-05 -2.6888792994519883e-05 -2.1154050842461903e-04  -5.0965270904188680e-06 -1.6843125769140476e-04 5.4874683867464566e-05  -4.0584514528581814e-06 -1.1714636772741702e-04 1.6016116727866255e-05  1.7508590341648577e-05 2.1166140831222782e-05 -1.6522132273486960e-04  2.3661781975304073e-04 -1.5606416838972953e-03 1.8815236141391745e-04  2.1153122319640826e-04 -1.5308205934862892e-03 2.5555065089415499e-04  1.8669122908633758e-04 -1.4977220527815182e-03 3.1512680791299192e-04  1.6180323233643194e-04 -1.4603732266216421e-03 3.7000897743524820e-04  1.3650683340739279e-04 -1.4175466533084048e-03 4.2315647963710445e-04  1.1044913191394826e-04 -1.3677479468143449e-03 4.7760550652570715e-04  8.3270223931885534e-05 -1.3093030470924492e-03 5.3677947877198693e-04  2.2220359616906038e-04 -1.0824443484355934e-03 -3.0151138938228652e-05  2.2614952224787126e-04 -1.1850477107082978e-03 9.0095808961788064e-06  2.0884481512427420e-04 -9.6080415839948602e-04 -9.1381838543187007e-05  1.7432847327784011e-04 -8.9877330756374754e-04 -1.6300456657863785e-05  1.9331528140855526e-04 -1.1383791227601375e-03 8.6922068942972214e-05  1.8781332457526865e-04 -1.0332192860205932e-03 4.6599038983762391e-05  1.4146648890986648e-04 -8.4162815377927130e-04 5.2384989050158693e-05  1.6155699879120096e-04 -1.0926640923946246e-03 1.5656868953036347e-04  1.5453815226111741e-04 -9.8639168599171838e-04 1.1579955796318440e-04  1.0935954041686913e-04 -7.8664237126216158e-04 1.1871211305135804e-04  1.3024038549335900e-04 -1.0461942045915079e-03 2.2233017916617324e-04  1.2178720912657433e-04 -9.3947737318349764e-04 1.8133026231448467e-04  7.7357998215143599e-05 -7.3169213733443347e-04 1.8627834222251360e-04  9.8787807916860272e-05 -9.9728095048735106e-04 2.8784532647912326e-04  8.8983153659211005e-05 -8.9090270294639754e-04 2.4695017235024954e-04  4.4888215900050551e-05 -6.7523532788530934e-04 2.5829290036042567e-04  6.6678237591000436e-05 -9.4436806767184166e-04 3.5669300025617989e-04  5.5550345378060165e-05 -8.3891091783686944e-04 3.1618013039504854e-04  1.1480103805732615e-05 -6.1637373595925147e-04 3.3761991378505342e-04  3.3378533104149256e-05 -8.8622405124712744e-04 4.3237973152701023e-04  2.0910355087357333e-05 -7.8237651720826362e-04 3.9273595363429893e-04  1.9439622191038750e-04 -6.8490395216249853e-04 -2.0106720512231866e-04  1.5864374512335975e-04 -6.1329941544186568e-04 -1.3859899150769073e-04  1.2489159045391495e-04 -5.4998985322250911e-04 -8.0681278389354113e-05  9.2326317822376974e-05 -4.9174242154364296e-04 -2.2945446810443423e-05  5.9992468041369392e-05 -4.3591863059002994e-04 3.7617320702542846e-05  2.7190150924419411e-05 -3.8070652333043858e-04 1.0328156638319538e-04  -6.5896475998375741e-06 -3.2504224338395556e-04 1.7597706155137260e-04  1.9585338373616276e-04 -7.3420241897315076e-04 -1.9013009658005981e-04  1.9772152014368898e-04 -8.0968330110413138e-04 -1.6734097718528634e-04  1.6376062770574333e-04 -7.3776738976586310e-04 -9.8686532961095162e-05  1.6015515730359107e-04 -6.6238550424116470e-04 -1.2498918490716878e-04  1.3136904560071127e-04 -6.7374725976931005e-04 -3.5063336119391746e-05  1.2720154289833310e-04 -5.9853778596629422e-04 -6.4742287317829872e-05  1.0008025663146375e-04 -6.1435205718315174e-04 2.7606691157861930e-05  9.5227595967216632e-05 -5.3977721892857022e-04 -4.9082649248411261e-06  6.9079585486861542e-05 -5.5693548601137670e-04 9.2562713441773811e-05  6.3534248940233992e-05 -4.8336392746297187e-04 5.7610996101520006e-05  3.7725548070358962e-05 -4.9970511760654465e-04 1.6236144228390476e-04  3.1466789362876489e-05 -4.2750358665306773e-04 1.2514062552529929e-04  5.4763656897183146e-06 -4.4157328689894162e-04 2.3917867112892060e-04  -1.5065448325895458e-06 -3.7104711023227941e-04 1.9974834464069169e-04  1.7415482757856941e-04 -1.6751600374105904e-03 3.7355122024913633e-04  1.9524115632253692e-04 -1.7377064531485576e-03 4.0969029025738366e-04  1.7924448168063161e-04 -1.7383993290252936e-03 4.0215213053924561e-04  2.1618812963872719e-04 -1.7255122312966156e-03 4.1504044574764771e-04  1.5993832417093750e-04 -1.7449248697995968e-03 3.8531183997719413e-04  1.5344549893181304e-04 -1.6828820544249749e-03 3.5258211619124130e-04  1.7401120930177709e-04 -1.7415270980060645e-03 4.0430135967276946e-04  1.4028743466057753e-04 -1.7455842392679417e-03 3.6777184443243964e-04  1.3247066552711927e-04 -1.6852046445182476e-03 3.3139256470573092e-04  1.5241766180976515e-04 -1.7386610337508648e-03 3.9734453304847759e-04  1.2040116677468410e-04 -1.7418021830303602e-03 3.4744409878905921e-04  1.1123758528648278e-04 -1.6836734093575165e-03 3.0765913257011927e-04  1.3048915782327671e-04 -1.7303164637660368e-03 3.8718402098480921e-04  1.0042806055485273e-04 -1.7348125395674500e-03 3.2222678230946184e-04  8.9756641090112406e-05 -1.6796605029048880e-03 2.7907424776115375e-04  1.0829986315756306e-04 -1.7174685067319056e-03 3.7187002640705959e-04  8.0546104797126852e-05 -1.7258106708134483e-03 2.8998593766331590e-04  6.8073991730257104e-05 -1.6747028192366756e-03 2.4348650409345763e-04  8.6078590339300825e-05 -1.7009201564823686e-03 3.4892160196550427e-04  2.2130976018534603e-04 -1.4296164344035165e-03 2.9687132416465393e-04  2.3056969362561337e-04 -1.4913646968372021e-03 3.1438258783077205e-04  2.0306645213281590e-04 -1.5003863926254227e-03 3.2030281770113950e-04  1.9305153801605723e-04 -1.4391983041187029e-03 2.9641158205544963e-04  1.7547159622136312e-04 -1.5021280016740165e-03 3.2540135588179193e-04  1.6477564100326314e-04 -1.4415173625989038e-03 2.9625443194258779e-04  1.4743477792439569e-04 -1.4977969757459921e-03 3.2886984175041744e-04  1.3616450249297822e-04 -1.4382252033505025e-03 2.9489523702716638e-04  1.1864368643063076e-04 -1.4882767565361547e-03 3.2955848040754017e-04  1.0685184420117000e-04 -1.4304288250609469e-03 2.9085753599960001e-04  8.8657944936250058e-05 -1.4741655376092121e-03 3.2568860229540406e-04  7.1441046449469619e-05 -1.4728420628925102e-03 2.4615939682168036e-04  7.6441926745700019e-05 -1.4190738104936996e-03 2.8227527129019730e-04  5.6806166571814452e-05 -1.4561241240564143e-03 3.1410423444435732e-04  4.2067789828958308e-05 -1.4673304407493975e-03 2.2096000795515303e-04  4.4664536379226358e-05 -1.4054190767847120e-03 2.6674081677130506e-04  4.8783344430771986e-05 -1.5531863461298317e-04 -1.4236636267954311e-04  6.6873059052309966e-05 -5.7777046646420524e-05 -2.7883278289250122e-04  7.1591239332839435e-05 -7.9214693801704230e-05 -2.8034889652577764e-04  8.7452812064956717e-05 -1.0185636142455127e-04 -3.1190433127793033e-04  7.2596411588624044e-05 -2.0776113601931085e-04 -1.8939414143951281e-04  5.1884328600019089e-05 -3.7994197847656826e-05 -2.4010939710601977e-04  2.4543502607218027e-05 -1.0382457986481926e-04 -8.9391371018634840e-05  4.5550984018173594e-05 -1.5749035304933396e-05 -2.3917702015418358e-04  2.2920357315592079e-04 -1.2941720443853464e-03 5.2577535079578818e-05  2.1536860476357902e-04 -1.0980772847297860e-03 -4.1220024767604493e-05  1.8317426834536874e-04 -1.0416695173754754e-03 3.7764381757064281e-05  1.9885717529753540e-04 -1.2501962027779067e-03 1.2986755442976551e-04  1.5215280607314125e-04 -9.8863126759793211e-04 1.0950874934849911e-04  1.6920098588218212e-04 -1.2060543927311239e-03 1.9881274225287741e-04  1.2170475183507412e-04 -9.3648872426911525e-04 1.7789887994246534e-04  1.3980246530600736e-04 -1.1602366129224947e-03 2.6350317105226735e-04  9.1257486199033884e-05 -8.8329591566670856e-04 2.4676578535428440e-04  1.1021359044377598e-04 -1.1112430106562513e-03 3.2756935553012649e-04  6.0295718576674852e-05 -8.2746544933091893e-04 3.1959611011329127e-04  7.9981491878636257e-05 -1.0575979120620413e-03 3.9453189665052802e-04  2.8211589629450138e-05 -7.6782080341833534e-04 3.9980541134483990e-04  4.8686020969285147e-05 -9.9786421317443513e-04 4.6798054823224986e-04  1.4954117568162316e-04 -2.1173065054417520e-04 -3.7812460704027761e-04  1.2843278055282742e-04 -1.5387016886877933e-04 -3.7042168394647900e-04  1.0778862714886328e-04 -1.0355406043974717e-04 -3.5368129301892103e-04  8.6912475268363101e-05 -5.7856935303511720e-05 -3.2933437592161293e-04  6.5318483782747953e-05 -1.4968281605628403e-05 -2.9823797713533334e-04  4.2690460656565369e-05 2.6290042224837749e-05 -2.6099714275111595e-04  2.2984446169355257e-04 -1.6453688301501400e-03 3.7633773200506152e-04  2.1395311409584764e-04 -1.6688011803931784e-03 3.9797869735105483e-04  2.3367045474476580e-04 -1.6979626971971493e-03 3.8449390440223422e-04  2.1016827453725182e-04 -1.7050450430232953e-03 3.9486985563872155e-04  1.9163579731954869e-04 -1.6827590025283443e-03 3.8776463222053793e-04  2.0542278824533280e-04 -1.6556283617086005e-03 3.7921174094876937e-04  1.8637872866517603e-04 -1.7042068986003335e-03 4.0321499981881768e-04  1.6908263494652044e-04 -1.6885341987754572e-03 3.7828266894559333e-04  1.8069308652098485e-04 -1.6579344901001406e-03 3.8123840997186808e-04  1.6226965830505919e-04 -1.6964399098909982e-03 4.0901646140003455e-04  1.4620893341808148e-04 -1.6879714154852559e-03 3.6758333335759180e-04  1.5562481086401565e-04 -1.6536133052360673e-03 3.8125102391055142e-04  1.3774472039442893e-04 -1.6823807282830003e-03 4.1143279720921942e-04  1.2297124986296120e-04 -1.6823894642410411e-03 3.5378690359243631e-04  1.3008441192692246e-04 -1.6434881557070996e-03 3.7799027215277452e-04  1.1270777881646556e-04 -1.6622716324165333e-03 4.0918078330730908e-04  9.9375696410926000e-05 -1.6728862212102684e-03 3.3475861750314253e-04  1.0398779634894975e-04 -1.6280470893019691e-03 3.6973249047186451e-04  8.7048938164613118e-05 -1.6360481725481658e-03 4.0019455781003502e-04  7.5494625063249403e-05 -1.6605409569152140e-03 3.0823099150466634e-04  7.7413153725999296e-05 -1.6075230286483730e-03 3.5404051269846503e-04  2.0673337303628322e-04 -1.8067430658843928e-03 4.3066656335704608e-04  2.1088707296544891e-04 -1.7568457588144901e-03 4.1122137756638140e-04  2.1554863819031185e-04 -1.7764820982011042e-03 4.0675189645260584e-04  2.3281078407295832e-04 -1.7522588720017588e-03 3.9674580463431170e-04  1.9413896244188688e-04 -1.7672299341684955e-03 4.2962250540575035e-04  1.8682827227134885e-04 -1.8035847647327470e-03 4.4037604893892629e-04  1.8878979398335123e-04 -1.7535063046880484e-03 4.2318940060770692e-04  1.7239157614961094e-04 -1.7510572324174701e-03 4.4898784862686678e-04  1.6651472172051667e-04 -1.7932130688488536e-03 4.4747648353444505e-04  1.6636274652857984e-04 -1.7431275687406884e-03 4.3234590135344121e-04  1.5020926923895215e-04 -1.7280467702062144e-03 4.6500121152947161e-04  1.4579919475838656e-04 -1.7762780098256239e-03 4.5123146492977308e-04  1.4354039067495213e-04 -1.7262105395849541e-03 4.3810698648200265e-04  1.2754797233595461e-04 -1.6977210274748049e-03 4.7746495552713195e-04  1.2474932768767678e-04 -1.7530749851392966e-03 4.5038560763646933e-04  1.203071