<?xml version="1.0"?>
<VTKFile type="UnstructuredGrid"  version="0.1"  >
<UnstructuredGrid>
<Piece  NumberOfPoints="960" NumberOfCells="4104">
<Points>
<DataArray  type="Float64"  NumberOfComponents="3"  format="ascii">6.949025300832863 2.148934704219669 4.009460308013538  6.953242297392698 2.230818648089161 4.079134276677272  6.840548603505403 2.195966651224284 4.078369188363792  6.853797107646364 2.144614141909101 4.13616913794137  6.968440595340857 2.181696133461791 4.138666373911964  6.962459193140765 2.095847160035122 4.063408912862005  6.975892824984577 2.042740538375712 4.1173295978896  6.983647911386505 2.1325566036195 4.198187324176396  6.86704166919098 2.093251487005111 4.193967545714151  6.989328669135735 1.989622626886168 4.171225446339082  6.998859700580828 2.083404744363202 4.25769162696457  6.88028558151756 2.041878787024033 4.251748328678534  7.014076114083156 2.03423709849119 4.317173412077135  7.002766635179873 1.936492792709076 4.22509318562829  6.893533462701373 1.990491779094387 4.309503623882001  7.029295865758338 1.985046233184347 4.376629330066704  7.016205609519839 1.883349412916085 4.278928483159283  6.906787486342266 1.939083646017428 4.367228829953139  7.029636053218448 1.830191710544305 4.332734792544878  7.044506450149917 1.935824541590048 4.436068143588789  6.920050105230691 1.887652559784698 4.424927471909819  6.842992358081182 2.101419571757881 3.983187784407237  6.855767069224882 2.046652543483451 4.034164784633528  6.868544650698927 1.991864473932881 4.085115212216051  6.881324401233124 1.937065867891651 4.136042879022313  6.894107054609428 1.882255869079407 4.186942263584239  6.906892961973583 1.827430614749864 4.237808195199427  6.919674054496015 1.772582796932619 4.288637030372534  7.770387370297348 2.916395362209368 4.114239276231005  7.749088863647986 3.021336541737583 4.117600757873099  7.649770391154993 2.977943531958256 4.141633204223855  7.666689511081853 2.982761010383214 4.221091628593651  7.766468710780987 3.028173302305289 4.195239914292971  7.787897679000459 2.915153514719344 4.191146614725576  7.683599666417891 2.987593393888026 4.300486160462469  7.783830454517751 3.03500842701905 4.272803364406879  7.805424134643955 2.913880773143771 4.267991458203156  7.700498345754356 2.992406859884283 4.379815296314055  7.80117885402685 3.041820100918962 4.350294388122862  7.822948994470151 2.912575185976773 4.344771567758952  7.818516490618102 3.048588645537564 4.427728799665644  7.840463121504788 2.911227243375305 4.421498137697552  7.717387226453662 2.9971800709852 4.459081167617963  7.835849492770503 3.055301397159667 4.505116281725866  7.857960942106604 2.90983410634598 4.498180812020925  7.734268758751052 3.001896099622873 4.538300118604146  7.853195533684761 3.061950278419348 4.582473709022223  7.875439136022266 2.908407323107809 4.574840353087378  7.75114628754545 3.00654559868325 4.617478083858899  7.65545345745675 2.85410992411247 4.13833169907562  7.674639839807348 2.847934322893389 4.216366329979082  7.693847011021663 2.841738778170165 4.294344724678292  7.713050484140778 2.835512537883707 4.372261973360028  7.732238957276956 2.829246659662395 4.450125690614372  7.751405378709181 2.82293808095367 4.527948419963705  7.770546970547794 2.816590884400966 4.605746202977956  7.951080551058793 1.83459866216173 3.90893732072967  8.05375323602364 1.819572938638051 3.849065379818211  7.99424442610298 1.746386360854811 3.762912378466916  8.044671908195705 1.867658284985938 3.808242552895867  7.939955832204015 1.8834091778955 3.866173104882109  8.003784013314453 1.696266267611691 3.799654934902754  7.962045473223767 1.785782814477189 3.951671723364677  8.062708867742087 1.77152323577468 3.889828318826535  6.974422049318843 2.311847365581785 4.138837512747422  6.861931626456389 2.303505451026112 4.161317445545106  6.874893605471212 2.259532518812024 4.227848805036245  6.989933922203209 2.266194648489034 4.203181134517604  6.887830605280613 2.215551823896556 4.294386918682208  7.005447117551583 2.220529883223086 4.267522939638055  6.900761877239828 2.171560835828382 4.360909867773421  7.020962131704501 2.174854850874634 4.331851263240247  6.913701777363236 2.127551843494108 4.427409047761855  7.036483138416687 2.129163024216585 4.396159052618339  6.926660607186028 2.083516137628316 4.493881239585398  7.052009879637695 2.083446307984471 4.460444946317564  6.93964743316061 2.039444363060093 4.560327837488043  7.067517127657468 2.037684754994776 4.524701684151787  7.890447906881499 1.75463236031874 3.820027440186157  7.900251942284462 1.703625398145725 3.858867387009232  7.798036590326902 1.779587050475569 3.886938994758258  7.807870815432105 1.728387445538302 3.928824803711649  7.696535185163316 3.11331829626707 4.115663523542921  7.712751714099261 3.126012728683114 4.193952352632741  7.728925819515378 3.138743610022998 4.272156048152744  7.74507189780387 3.151457615342832 4.350281645063442  7.761204946604013 3.164124400482957 4.428340675859164  7.777342031985698 3.176721935719268 4.506346819257853  7.793500840549059 3.189231718988298 4.58431037858384  7.686916804285789 2.129964433137649 3.799462359446247  7.550445519329314 2.077109004268988 3.774878146956058  7.647583121758853 2.057936230471978 3.727687679096481  7.658203149323453 2.006027653829419 3.77210058849575  7.562504544736325 2.024856389312909 3.821388351384929  7.698333319531908 2.081358707112964 3.849206249880934  7.668859460050929 1.954119399719053 3.816465264624357  7.574607389939469 1.97259703899786 3.867845753109961  7.709789754609751 2.032754517218994 3.898897439611975  7.679518070777594 1.902211753787861 3.860788518465631  7.586715808499137 1.920334329063835 3.914262340116348  7.721250097088531 1.984149816350979 3.948541714347077  7.690147941979085 1.850301177341688 3.905076821599753  7.598801016640519 1.868066887192658 3.960644349339601  7.732677634166936 1.935541670170941 3.998147946055178  7.700717863536938 1.798380427998504 3.949337809279529  7.61083310386419 1.815789498955642 4.006998579748131  7.744034978089638 1.886926127951736 4.047723614809275  7.71119559409227 1.746439996323771 3.993575842617213  7.622766027780889 1.763493234403903 4.053331033045906  7.75529167992393 1.838300595247458 4.097274699153575  7.895116652487554 2.078780127099489 3.694657388924841  7.785503090052012 2.105514145275134 3.752021029112458  7.748039767906868 2.035479965583437 3.677037336911431  7.796429304382096 2.056519647023861 3.798484725677115  7.906281482466446 2.029912853331896 3.737615666823526  7.758033839424993 1.98429079769034 3.71909704307313  7.807407731361856 2.007533241943816 3.844894708787397  7.917513491642423 1.981065132997495 3.7805166090582  7.768066247871623 1.933110910835276 3.76111428103659  7.818390565240366 1.958554696360964 3.891254721310311  7.928751620504087 1.932231233034682 3.823367173824131  7.77810121302026 1.881937561365961 3.803089704027087  7.829336072686844 1.909579785600219 3.937572815890502  7.788102942425678 1.830766307987824 3.845029035586196  7.840201988000611 1.860602458595126 3.983858332803808  7.850952796628427 1.811606872343928 4.030121606751155  7.581747488311321 2.15673203039996 3.8467537865818  7.594501520067229 2.108630960862225 3.899610374728931  7.607299315668691 2.060523745140935 3.952416161784603  7.620105804888533 2.012408468313912 4.005179602428227  7.632887315496617 1.964284019762699 4.057908835423797  7.645610720888695 1.916144902268631 4.11061256142823  7.658239061010598 1.867989495722123 4.16330356512832  8.208282926634508 2.588049917411364 3.986850966873611  8.216979568055228 2.688419682869126 4.012263580503842  8.101989188003644 2.628120741208744 4.005603128415264  8.110571556045162 2.608426692476167 4.074024582118631  8.112293387976163 1.934111483004783 3.870167273296056  8.211373936152382 1.984273427555671 3.910629222688013  8.181010938553925 1.874043794260011 3.779004237138389  8.204815025782572 2.029499593025982 3.865382466061621  8.119673735282374 1.887315746266311 3.913519364207866  8.217902482411274 1.939075224683767 3.955812908451191  8.188598317591675 1.8262212283352 3.818043309714667  8.126984310362063 1.840548284415588 3.956821093127332  8.224393734471548 1.89392551970469 4.00092397706386  8.196100142203715 1.778437867223521 3.857022130938724  6.747403369618056 2.231719763465835 4.125912884635836  6.757621306129385 2.18409583479949 4.188795932022477  6.767796578393113 2.136465692750692 4.251686083489747  6.777960373699574 2.08882387181601 4.314564225261575  6.788131033022895 2.041164411115238 4.377417586182595  6.798323450539172 1.993479841210207 4.440241154979073  6.808557416967874 1.945767766989011 4.503036954281829  8.194046781479052 2.490549397163909 3.947302720910075  8.089994295146937 2.511499020522443 3.969120286240206  8.145915062785917 2.384497502109611 3.901226205587233  8.098875158278812 2.48499726683249 4.03413966456109  8.15284625706124 2.350389827410276 3.960382143834996  7.385211990638379 2.20940288976362 3.946381064226127  7.252211741336693 2.14270653200757 3.920745045461095  7.354530629732052 2.124468936645216 3.877529221480833  7.368170309584267 2.072773230026579 3.929449227936057  7.26664373255903 2.090333293999494 3.973376599829871  7.401513946700385 2.160035115563812 4.00218305547591  7.381844632788281 2.021060240468727 3.981323176007167  7.28110654976657 2.037935596922487 4.025969604926927  7.41787229049294 2.110642648070039 4.057934986683434  7.395527184145911 1.969338030040412 4.033160074034034  7.295579022862413 1.98552463481307 4.078530559362044  7.434247652985766 2.061239758749535 4.113651969114113  7.409197166501196 1.917606543723675 4.084966152041591  7.310045487867193 1.933103194034941 4.131062652165639  7.450611562986787 2.011826921772009 4.169340624387567  7.422833456768292 1.865860100829508 4.136747295221121  7.324491776432088 1.880665297275306 4.18357227414822  7.466934288913347 1.962399451084347 4.225008973900704  7.436401359624425 1.814088223098608 4.188512458489217  7.338908655320088 1.82819874620572 4.23606925835109  7.48
[...]
<PointData  Vectors="f_24"> 
<DataArray  type="Float64"  Name="f_24"  NumberOfComponents="3" format="ascii">6.6070011261279774e-03 -6.8451332245629465e-02 -1.1724289684935024e-02  5.7210718477238133e-03 -5.7993760075146207e-02 -1.7332342980768280e-02  6.5774720697195062e-03 -5.9462622749844603e-02 -1.5419753840553784e-02  6.0819249547447744e-03 -5.2364025925543699e-02 -1.2803375469156683e-02  5.2975297490836801e-03 -5.0852857820245435e-02 -1.5149222661416929e-02  6.2745054826725648e-03 -6.1272873942318125e-02 -8.2216679464640410e-03  6.0897855649688117e-03 -5.4921061999747819e-02 -4.6673314851657490e-03  5.1135536989880721e-03 -4.4670546915108529e-02 -1.2681687434555361e-02  5.7817309566029285e-03 -4.6240945685365457e-02 -9.9576607656910905e-03  6.0088414102467689e-03 -4.9041749785198860e-02 -9.2474835246754319e-04  5.0689298267487179e-03 -3.9041486654846698e-02 -9.8223567319175881e-03  5.6052025793302367e-03 -4.0647044577145720e-02 -6.7605022868008563e-03  5.1281906106636112e-03 -3.3689469872248377e-02 -6.5347665356580873e-03  6.0070053554191188e-03 -4.3381782665056941e-02 3.1364090605949645e-03  5.5123626749732342e-03 -3.5308041265825978e-02 -3.1435418026670974e-03  5.2725975563233836e-03 -2.8452014893905961e-02 -2.7804579721934027e-03  6.0693494835732829e-03 -3.7776254112441857e-02 7.6207655536025794e-03  5.4764357473308916e-03 -3.0061042871381744e-02 9.3853934247259863e-04  6.1886524127136230e-03 -3.2106691776451923e-02 1.2613049611793811e-02  5.5009741647035646e-03 -2.3255751071193098e-02 1.4856844413997029e-03  5.4885807078992556e-03 -2.4817650828153581e-02 5.5210474280816546e-03  7.7017695219374739e-03 -7.3360248398164546e-02 -8.5166533189833197e-03  7.2591864983853217e-03 -6.6315553400346616e-02 -4.3709415198257811e-03  6.9507394205552235e-03 -6.0032898011682351e-02 -3.5277480479437771e-04  6.7300015384025467e-03 -5.4187900972782595e-02 3.7798644129621779e-03  6.5703132108853321e-03 -4.8540537091106596e-02 8.1814665164937368e-03  6.4530590770720290e-03 -4.2913195292152533e-02 1.2978685554968703e-02  6.3681627730195539e-03 -3.7185067467117347e-02 1.8281413890350245e-02  -6.9823342716163559e-03 -1.0732771299721982e-02 -4.0879672485806075e-02  -7.2466270486263081e-03 -3.8570669845552521e-03 -3.8984105814216942e-02  -5.8426776931783898e-03 -6.6436831456519107e-03 -3.7999521247872467e-02  -5.1117324077763438e-03 -8.2114353058039425e-03 -4.1483751901276171e-02  -6.4971444469860608e-03 -5.8537658760710208e-03 -4.2470611788632921e-02  -6.3616412634786472e-03 -1.1125594991022584e-02 -4.4572786712957113e-02  -4.2018662859811800e-03 -9.6628818197000491e-03 -4.3835582998442653e-02  -5.5829703782017777e-03 -7.7584696474637792e-03 -4.4811750587711814e-02  -5.5537067238806016e-03 -1.1559247253145428e-02 -4.7150478668729956e-02  -3.0721328740142286e-03 -1.1091160436502141e-02 -4.5258131232102976e-02  -4.4647233385194957e-03 -9.6126921209121353e-03 -4.6230642142343639e-02  -4.5330939571873695e-03 -1.2035963306063140e-02 -4.8798659327050298e-02  -3.0841284212527556e-03 -1.1478858980246490e-02 -4.6875614687432947e-02  -3.2528218041391016e-03 -1.2548112664378578e-02 -4.9664884441258085e-02  -1.6669456763135650e-03 -1.2541195442632484e-02 -4.5915771462736926e-02  -1.3687650450398797e-03 -1.3382100206398498e-02 -4.6869849423428325e-02  -1.6544600867021595e-03 -1.3122526979948059e-02 -4.9868301353649253e-02  4.9557588006075064e-05 -1.4053188979532521e-02 -4.5937829067244432e-02  7.5948436669901333e-04 -1.5353714225979342e-02 -4.6358306606345587e-02  3.3926268936432274e-04 -1.3779177624671284e-02 -4.9518492872878288e-02  2.1207929550032256e-03 -1.5652847025437091e-02 -4.5448215885311970e-02  -5.1721042633284435e-03 -1.4716844323908818e-02 -3.9372319927211935e-02  -4.6862316027266593e-03 -1.4341087938253895e-02 -4.2987472174758436e-02  -3.9685095260592121e-03 -1.4082108395838691e-02 -4.5499170431222653e-02  -3.0030545245556583e-03 -1.3866212602662130e-02 -4.7081199834900188e-02  -1.7648679596747555e-03 -1.3697083878201439e-02 -4.7884782348694810e-02  -2.1765645377474460e-04 -1.3588901263069048e-02 -4.8040326364303103e-02  1.6975038073284657e-03 -1.3577871739213761e-02 -4.7671765210210985e-02  5.3659679257273950e-03 -6.5378075683539580e-02 1.7628813872274662e-02  5.1015160669350707e-03 -7.1417879145278057e-02 1.9547131270032988e-02  6.6941024684515878e-03 -8.4832127502940197e-02 2.7545281492133880e-02  4.3348420549925498e-03 -7.7323717871644007e-02 1.5007850446265810e-02  4.6112645631321541e-03 -7.1386968074584348e-02 1.3034936317587311e-02  7.3268692108292002e-03 -7.8936744085217239e-02 3.2553315841329811e-02  6.1373930333849941e-03 -5.9129157049213295e-02 2.2649916274955335e-02  5.8529371007479689e-03 -6.5239037829150318e-02 2.4494176821488335e-02  4.7881476220479223e-03 -4.8493767631675656e-02 -2.2011611671822744e-02  5.4373464122390901e-03 -4.6488083577988816e-02 -2.1529047135426242e-02  4.9891113119583455e-03 -4.0001011466155076e-02 -2.0928111098606816e-02  4.3994433419876754e-03 -4.1922124924078721e-02 -2.1094527414230992e-02  4.7856518011621845e-03 -3.4489004219118713e-02 -1.9573208727330756e-02  4.2918204253035858e-03 -3.6357020445062241e-02 -1.9551349489440435e-02  4.7362837010172564e-03 -2.9482368321780562e-02 -1.7611186870006616e-02  4.3475001970973990e-03 -3.1288518718851722e-02 -1.7429290909523210e-02  4.7908787583386984e-03 -2.4745408124208380e-02 -1.5095826141972751e-02  4.5206188021072900e-03 -2.6468043482849188e-02 -1.4767171808608860e-02  4.9172443242241149e-03 -2.0138789802133843e-02 -1.2062259652970602e-02  4.7871444988721963e-03 -2.1758465024397614e-02 -1.1596664053243826e-02  5.0960475894623741e-03 -1.5577366785673402e-02 -8.5687699704841674e-03  5.1442050663025639e-03 -1.7091519168573450e-02 -7.9453311350048458e-03  6.9904392126195463e-03 -7.8974438655120494e-02 2.6544107397451208e-02  7.6501267627632043e-03 -7.2922779299351287e-02 3.1723460465833901e-02  6.9506032167115537e-03 -7.1770117438500355e-02 2.3594567956795182e-02  7.6370480200460009e-03 -6.5543862539685180e-02 2.8786380405245893e-02  -7.0961348823954905e-03 2.1787007384299461e-03 -3.5396231172822444e-02  -6.1780506815500612e-03 -1.2543682871559356e-03 -3.8421233615339861e-02  -5.1507665570275302e-03 -4.4359642108120515e-03 -4.0399741170524119e-02  -3.9395058795511266e-03 -7.4677164092291836e-03 -4.1469252907882379e-02  -2.4728447401586710e-03 -1.0432820099566996e-02 -4.1787209414435936e-02  -6.8122942617793061e-04 -1.3402804875047931e-02 -4.1487743980195821e-02  1.5088910105498794e-03 -1.6437383618045996e-02 -4.0684725581304072e-02  2.3341107699045831e-03 -8.4648574528550416e-02 -8.7391009126872293e-03  4.2154564758537776e-03 -9.1524264577758557e-02 -3.7557559811769513e-03  3.8711259303071629e-03 -9.6316335499697522e-02 -1.8466903649820563e-03  4.5001395072602540e-03 -8.9606818130813698e-02 2.9066948323146920e-03  4.7281884648359288e-03 -8.4575045090870951e-02 7.7509211406878861e-04  2.9098963302146385e-03 -7.7348867264867990e-02 -4.9831602441430898e-03  5.1087877037772405e-03 -8.3421950175112905e-02 7.3674779650225826e-03  5.2457579032095100e-03 -7.8208015732683808e-02 5.1004844017502994e-03  3.4807412625161411e-03 -7.0698610696925526e-02 -1.2707952553204403e-03  5.7130400857679682e-03 -7.7482909452995741e-02 1.1771602004325914e-02  5.7761541526153877e-03 -7.2118614943753739e-02 9.4283315941929898e-03  4.0891583019647881e-03 -6.4378244678762811e-02 2.5310674738587397e-03  6.3325009141120834e-03 -7.1570453101600373e-02 1.6303621687868093e-02  6.3393852734129810e-03 -6.6087118430780772e-02 1.3921715483373545e-02  4.7487035880241788e-03 -5.8166491812138489e-02 6.5584524857738831e-03  6.9836423007141255e-03 -6.5521604899010641e-02 2.1123066180235711e-02  6.9549830240891930e-03 -5.9949714032227382e-02 1.8729463107387382e-02  5.4760812157579816e-03 -5.1906898409574791e-02 1.0933235760024525e-02  7.6867770157949926e-03 -5.9210515840483001e-02 2.6379108827012377e-02  7.6508253808378465e-03 -5.3590540780673143e-02 2.3992654256233138e-02  6.2911836245078158e-03 -4.5495153321128232e-02 1.5757809234272755e-02  1.7263243773502415e-03 -9.5852834208421833e-02 -4.1728450229538685e-03  2.0281417435919886e-03 -8.9644758443946829e-02 -6.5583492819262165e-03  3.6121302537318275e-03 -1.0152973519150474e-01 4.1802870888598396e-04  2.6701623390510110e-03 -8.2600804591477020e-02 -2.4666936551673581e-03  2.4130554145040577e-03 -8.9228007608713633e-02 3.2240270725240471e-04  4.3054712165282692e-03 -9.5123703080056729e-02 5.3255040704865723e-03  3.3269134125996696e-03 -7.6199349873646752e-02 1.5200523398120104e-03  3.1338007715190496e-03 -8.3127983955451429e-02 4.5500607826718551e-03  4.9713911800124419e-03 -8.9194475993668532e-02 9.8712200531649742e-03  4.0069749690357795e-03 -7.0081288299519845e-02 5.5430696528908094e-03  3.8680905701858085e-03 -7.7251963812610708e-02 8.7280067461018782e-03  5.6303677455037957e-03 -8.3458392029649303e-02 1.4302599276964088e-02  4.7175007816134141e-03 -6.4022469764181758e-02 9.7497034035773575e-03  6.2869487006387663e-03 -7.7702854023350656e-02 1.8817543611102765e-02  5.4710416562483736e-03 -5.7864939247917253e-02 1.4276655857144547e-02  6.2877210647357190e-03 -5.1497601033238562e-02 1.9254890304471566e-02  2.7038783646748505e-03 -7.9894291787293945e-02 -1.0921802615614505e-02  3.1429562406123145e-03 -7.2386258559486175e-02 -7.5774799208807126e-03  3.6016738708963881e-03 -6.5521821351626236e-02 -4.1942417944498761e-03  4.1198235268055643e-03 -5.9047658342902397e-02 -6.6246967477169181e-04  4.7134074011353794e-03 -5.2745743903922518e-02 3.1333008340970843e-03  5.3975964852828844e-03 -4.6452573246042753e-02 7.2993807029988877e-03  6.1816433938653124e-03 -4.0046304319565143e-02 1.1924545086246727e-02  -9.5025347716084629e-03 -3.4589398053710134e-02 -4.2991330410244478e-02  -1.0708794406067234e-02 -2.6216461894018571e-02 -4.6282309742507140e-02  -8.7827352659988409e-03 -3.1958918328377571e-02 -4.2648151897279163e-02  -7.9969066055585788e-03 -2.7798783347270588e-02 -4.5081431483051326e-02  2.6953859195969509e-03 -6.6978077671444189e-02 7.2375198914574430e-03  1.1618747088855091e-03 -5.9164431400766153e-02 9.9878033184215543e-04  3.4191856683204471e-03 -7.8704378761988950e-02 1.4164982201531477e-02  2.3331204700793753e-04 -6.5111056056033748e-02 -2.9396297306713993e-03  3.5590811146281108e-03 -6.1001128590124777e-02 1.1658489831234829e-02  2.1043687110249430e-03 -5.3134086477276452e-02 5.2689361675796464e-03  4.2631671151465243e-03 -7.2956815262585697e-02 1.8739427485765875e-02  4.4353021892548760e-03 -5.4779757936897489e-02 1.6501145823214179e-02  3.0721103836275632e-03 -4.6915485920803232e-02 9.9955883959404069e-03  5.0831676574284151e-03 -6.6899318929128537e-02 2.3722632857617151e-02  6.6380757066142621e-03 -5.2753233278911203e-02 -1.7709150663397885e-02  6.0743956072617528e-03 -4.5844950324255410e-02 -1.6120349585446159e-02  5.7090450445881225e-03 -3.9887017883733798e-02 -1.4060035883591435e-02  5.4676830971174531e-03 -3.4469860088003325e-02 -1.1526621733820930e-02  5.3059974920613949e-03 -2.9348522583436624e-02 -8.5086259992961065e-03  5.1888586462063213e-03 -2.4363122138444347e-02 -4.9993662869309684e-03  5.0844785641774781e-03 -1.9416230430972164e-02 -9.9223462866020943e-04  -8.1432562231427471e-03 -4.4077873301401442e-02 -3.8227581317752175e-02  -7.2089761947966664e-03 -4.2059394577784244e-02 -3.7906748691533453e-02  -6.0245458173817110e-03 -5.5013088863815410e-02 -3.1439822727791909e-02  -6.5216004981416649e-03 -3.6534769531148495e-02 -3.9269320751292601e-02  -5.2283383860179909e-03 -4.8273149600789537e-02 -3.1111114618077848e-02  3.3488742903323553e-03 -6.9552715923419467e-02 -1.5289475796228027e-02  5.0846472977057527e-03 -7.6504029742572074e-02 -1.0231182029916498e-02  4.7092026174954619e-03 -8.0669873752544280e-02 -8.4034018698573854e-03  4.9582718514182009e-03 -7.3296965287727708e-02 -4.5049722020737062e-03  5.1894166944789072e-03 -6.9097203234816773e-02 -6.4332671339496191e-03  3.5074847913341262e-03 -6.2117107286079741e-02 -1.2413480631072518e-02  5.2467985861736777e-03 -6.6568935801184365e-02 -6.4122370261708778e-04  5.3726766319994127e-03 -6.2460053713434036e-02 -2.6743888982889989e-03  3.7817908599220938e-03 -5.5451070240788193e-02 -9.4083215755386158e-03  5.5935023225652273e-03 -6.0220691445890533e-02 3.3122921590116694e-03  5.6213265225924592e-03 -5.6238701141490779e-02 1.2129603056658315e-03  4.1599505956242677e-03 -4.9241047101124050e-02 -6.1422763750042129e-03  6.0111176920303686e-03 -5.4029765808859632e-02 7.5045228206113111e-03  5.9507158342038697e-03 -5.0203626124254094e-02 5.3695460623188794e-03  4.6500381127202138e-03 -4.3253250783041451e-02 -2.5236413175630007e-03  6.5120207287197420e-03 -4.7829488955365443e-02 1.2065659020099076e-02  6.3680599437380995e-03 -4.4180521964328923e-02 9.9144417873553679e-03  5.2609015752421743e-03 -3.7318532693086298e-02 1.5223026314165678e-03  7.1079957792059487e-03 -4.1508247014736051e-02 1.7106240535682021e-02  6.8804832783041954e-03 -3.8050216306551747e-02 1.4949763819232730e-02  6.0095647038821117e-03 -3.1321780162322933e-02 6.0584006954054331e-03  -9.9321278188352468e-03 -2.3058227943260914e-02 -4.5652049667407324e-02  -9.1297812793890310e-03 -2.0425918645093216e-02 -4.8814984211264019e-02  3.8247752931429269e-03 -6.4533377374541553e-02 -1.6670811932258871e-02  3.8249619504317021e-03 -5.7114269399486051e-02 -1.4156170071267451e-02  3.9881156482151426e-03 -5.0558268483851601e-02 -1.1395881858949615e-02  4.2755545773531375e-03 -4.4487016870841750e-02 -8.3245905250231515e-03  4.6856023384097313e-03 -3.8659817617812446e-02 -4.8634104049962799e-03  5.2162753272359634e-03 -3.2910282548704595e-02 -9.4857220817665632e-04  5.8613280934268729e-03 -2.7117365146414094e-02 3.4565258361619962e-03  2.9550974985766082e-03 -7.4705121107706413e-02 -1.3432235395664863e-02  4.4225791694273127e-03 -8.5456562437174130e-02 -6.1746788462161174e-03  4.7930849875205345e-03 -7.8244719471725038e-02 -2.0547196433507845e-03  3.2523979877394087e-03 -6.7186091241262735e-02 -1.0389912516049505e-02  5.2040266798587687e-03 -7.1650192971360452e-02 2.0242296213954436e-03  3.6098088025049804e-03 -6.0348842720798677e-02 -7.2747120205460189e-03  5.6511707540101283e-03 -6.5369537190081262e-02 6.1503077747479202e-03  4.0529930606620157e-03 -5.3949605912162649e-02 -3.9497341547474500e-03  6.1514834417018575e-03 -5.9190909044875707e-02 1.0480856452176975e-02  4.5934158544359213e-03 -4.7764084539951790e-02 -3.1895015236550620e-04  6.7237008197302429e-03 -5.2955073826070870e-02 1.5157461826260711e-02  5.2446090482074657e-03 -4.1624886399762119e-02 3.7059151190687611e-03  7.3869906368386699e-03 -4.6558747553957627e-02 2.0304762892926945e-02  6.0182684404528836e-03 -3.5411572716851948e-02 8.2018743397955316e-03  4.6082262714082440e-03 -5.4595432251543133e-02 -2.0230886956788253e-02  5.4277434025778249e-03 -6.3705434623103990e-02 -1.5281559177050458e-02  5.2024670592089794e-03 -5.6451795676075202e-02 -1.2566262943636207e-02  4.3333062971203798e-03 -4.7613704402792695e-02 -1.8546446396301305e-02  5.1182982869975996e-03 -5.0003543169273502e-02 -9.6715655930584531e-03  4.2636396916818807e-03 -4.1626424471156227e-02 -1.6510149222876015e-02  5.1599892876316262e-03 -4.4076842904271267e-02 -6.5035967727233648e-03  4.3602200245361281e-03 -3.6173704050344237e-02 -1.3996033010318154e-02  5.3073435285750465e-03 -3.8423102519944567e-02 -2.9617746704033009e-03  4.5816211437691408e-03 -3.0989976481186187e-02 -1.0996755052782583e-02  5.5458353939027158e-03 -3.2867503724088115e-02 1.0222062854953655e-03  4.9063536309897722e-03 -2.5916537255198102e-02 -7.5083583468183611e-03  5.8669955170696430e-03 -2.7291789718946073e-02 5.5147277949374801e-03  5.3289844151144759e-03 -2.0885301354984950e-02 -3.5068548840042554e-03  -9.5160895777192580e-03 9.7901007732738785e-03 -3.5625041426439491e-02  -9.4650341144106500e-03 1.8680107932645119e-02 -2.9512374673363984e-02  -8.3558351727401250e-03 1.0511323135538641e-02 -3.2343367706479165e-02  -8.6698111746531491e-03 1.2544551718764251e-02 -3.1133368220674213e-02  -8.6675108523220079e-03 5.2203049348804346e-03 -3.8355882785550105e-02  -7.4006924900241007e-03 5.5997757589896762e-03 -3.4847873931123659e-02  -6.3866369895459263e-03 1.0406197167972565e-03 -3.6288472797962767e-02  7.3197241555148541e-03 -9.2796242931984102e-02 -3.3065529785712591e-04  6.2354871540214038e-03 -8.0469717450692979e-02 -7.0209629741424095e-03  7.4998239735483392e-03 -8.7194495632223215e-02 -2.7253733064904599e-03  7.4729077016392979e-03 -8.0346977346522408e-02 2.2085995392655228e-03  6.2724851080196310e-03 -7.3337068451853629e-02 -2.6608267294438229e-03  7.4682286727909926e-03 -8.6094124049791790e-02 4.8316022330584249e-03  7.4675898375420238e-03 -7.4101955202864778e-02 6.8599561552757779e-03  6.3631727185969123e-03 -6.6911046393388227e-02 1.5528798860474674e-03  7.6072125817876800e-03 -7.9943202900731494e-02 9.6551783305146317e-03  7.4987387033821455e-03 -6.8178769380493859e-02 1.1474232255272157e-02  6.5089515181212089e-03 -6.0860757461175807e-02 5.8301547884078240e-03  7.7610299290737875e-03 -7.4062627710710427e-02 1.4400518747051611e-02  7.5708378139842207e-03 -6.2354833894562915e-02 1.6244651280268387e-02  6.7162430112969289e-03 -5.4954059114056389e-02 1.0332491412475154e-02  7.9443213545924655e-03 -6.8235967995659397e-02 1.9266033292923930e-02  7.6885344849411934e-03 -5.6454146516608614e-02 2.1337707105898655e-02  6.9924029135249224e-03 -4.9014465488708088e-02 1.5201731614983527e-02  8.1721133345744879e-03 -6.2288683131117330e-02 2.4428105347035718e-02  7.8592987797390691e-03 -5.0336123967100750e-02 2.6905616553501526e-02  7.3509137867937609e-03 -4.2915975521684580e-02 2.0563849416408174e-02  8.4665062123626452e-03 -5.6074387808544332e-02 3.0044765493532233e-02  -6.2740177640346270e-03 -1.7812779836170183e-02 -4.1168931680806743e-02  -5.7654033266083624e-03 -1.6608917766377618e-02 -4.4695307865690870e-02  -5.0630249678092982e-03 -1.5563763692939360e-02 -4.7138108330644433e-02  -4.1310050066443926e-03 -1.4643389296531873e-02 -4.8681231362360050e-02  -2.9392527298767296e-03 -1.3818094658786901e-02 -4.9456336213110803e-02  -1.4435166697638027e-03 -1.3079352852758349e-02 -4.9574533519581493e-02  3.9579968840435989e-04 -1.2437681968051589e-02 -4.9131483547103505e-02  -8.7889434734342714e-03 -2.0477702588062502e-02 -4.4415251716511665e-02  -9.5012020300613651e-03 -1.2566592029105669e-02 -4.4779106162978567e-02  -7.5840199917542759e-03 -1.8071627148228398e-02 -4.2868163042487348e-02  -7.0250434704488577e-03 -1.6656063291960455e-02 -4.6415662921182030e-02  -8.8147196735678824e-03 -1.2212393028227780e-02 -4.8457903357534610e-02  -8.1474887200133333e-03 -1.8471312562869525e-02 -4.7791651706567677e-02  -6.2852640261458490e-03 -1.5438281002649677e-02 -4.8888997191518034e-02  -7.9719782877811490e-03 -1.2014667982945202e-02 -5.1111307913404021e-02  -7.3469185348619013e-03 -1.6676936394153102e-02 -5.0169445165234777e-02  -5.3459638394234054e-03 -1.4374149646359207e-02 -5.0476181035135299e-02  -6.9712035955717608e-03 -1.1890166949382854e-02 -5.2843194228399261e-02  -6.3975790313099828e-03 -1.5060201041998560e-02 -5.1683684452057323e-02  -4.1746847968425005e-03 -1.3420395696405775e-02 -5.1290931428660196e-02  -5.7754952719429034e-03 -1.1817608416290992e-02 -5.3768687732713830e-02  -5.2671225639268869e-03 -1.3563720397222078e-02 -5.2425279182300964e-02  -2.7205413323273270e-03 -1.2553963599604515e-02 -5.1425017140036750e-02  -4.3211692043522943e-03 -1.1787055479445630e-02 -5.3974275309283982e-02  -3.8996446711313006e-03 -1.2152105181360829e-02 -5.2464321284180694e-02  -9.1877993887084760e-04 -1.1767751126594863e-02 -5.0970523458286426e-02  -2.5129858982597814e-03 -1.1799944889132861e-02 -5.3534371398438113e-02  -2.2193213407421708e-03 -1.0795632931539061e-02 -5.1883949259642743e-02  5.3816573933037843e-03 -3.5478487360176177e-02 -2.3015758471862661e-02  6.3534159114483381e-03 -3.9482254809287833e-02 -1.9408895705615641e-02  5.8213019738953707e-03 -4.1521774731936023e-02 -2.2670986583231720e-02  5.1365550528401048e-03 -3.0279474046658848e-02 -2.2415