<?xml version="1.0"?>
<VTKFile type="UnstructuredGrid"  version="0.1"  >
<UnstructuredGrid>
<Piece  NumberOfPoints="964" NumberOfCells="4110">
<Points>
<DataArray  type="Float64"  NumberOfComponents="3"  format="ascii">8.319643491173018 3.697186942580402 3.569799973543017  8.209755681804555 3.732754879551128 3.541608330734075  8.270531038319993 3.655607916605709 3.658887967374937  8.279966809966416 3.714032049478897 3.693263443202586  8.222105633827887 3.792418340455118 3.569103869429402  8.329425764164545 3.756137916606239 3.598389825516353  8.339177517575854 3.815096839711512 3.627265553317838  8.234380501651586 3.852145944569824 3.5968936791587  8.289359823353108 3.772407970281509 3.727930689872625  8.348944255094917 3.874170679501815 3.656298094777132  8.246670865252579 3.91199429267202 3.624826750457384  8.298751760038778 3.830823718163463 3.762719933414696  8.358768510170126 3.933412156074551 3.685376802541644  8.259078077095994 3.97200664084288 3.65279839758519  8.308199476171934 3.889355059938033 3.797554125869482  8.27173611683817 4.032219416636341 3.680717791354044  8.368694472652463 3.992920538793599 3.714434472500275  8.317750179764142 3.948104935278569 3.832372513710823  8.378862496575172 4.05275447471956 3.743389800844183  8.284705454966016 4.092837631944665 3.708578380777751  8.327469583138106 4.007184536229238 3.867117620846085  8.207475029603891 3.967695244631578 2.47057760246273  8.087444406710059 3.973848497477081 2.415720925543038  8.144792245278499 3.95270647435495 2.553652667827423  8.144909257366267 4.007286675836069 2.563094986742033  8.146856179120785 3.696657975811645 3.625773379941781  8.160639385365798 3.754930876751613 3.660324381249795  8.174296233844931 3.813180635239865 3.695121015437744  8.187931665162644 3.871474416916759 3.730064762263255  8.201638939810138 3.929849626774744 3.76505178952973  8.21553181455471 3.988333113030436 3.800013952474672  8.229765723839185 4.046979108667266 3.834898251947536  8.896527013464288 3.825852286775401 3.101628448577795  8.938308606269832 3.869509059736925 2.963256761118864  8.801977227266025 3.840976379840709 3.023592456374373  8.798755602450578 3.892653072206757 3.038368010073994  8.93408000014438 3.92021297714988 2.978987093091362  8.892515603372233 3.878431044328029 3.115853191099767  8.795622144649553 3.944544934728655 3.053242507970128  8.929925716709658 3.97111500184896 2.994779615506154  8.888590787016541 3.931217799346595 3.130214861599225  8.792541187855146 3.996672940811393 3.068180280852149  8.925810203751551 4.022218088025737 3.010629539438528  8.884729225248314 3.984218122616571 3.144651517136657  8.789471949704728 4.049060976350285 3.083166144770087  8.921685499713199 4.073544495789157 3.026540819790161  8.88087766539191 4.037455988452161 3.159121980107157  8.78635690080684 4.101746193247229 3.098185179174368  8.792762202218224 3.696396151763398 3.54146591703225  8.649744830251441 3.672964733707389 3.583513280730143  8.772640778136937 3.649472854130215 3.640855401501173  8.768990284976448 3.708087580819491 3.670532989788787  8.64860134322425 3.731883573329672 3.610532770724431  8.789870981311777 3.755710788400667 3.563911384505068  8.765571630786777 3.766629567148566 3.700487936337559  8.647636642476499 3.790828349223517 3.637857941620996  8.787171507784793 3.8150590159227 3.586636354598007  8.762273762901915 3.825185344661968 3.730576406756405  8.646770006396023 3.849861090051864 3.665334656727977  8.784572750769483 3.874499469085732 3.609501065423363  8.759004420881773 3.883812837929738 3.760690491040727  8.645934523379527 3.909033462922631 3.692846838781268  8.781995826586932 3.934074158555823 3.632392358239761  8.75567081591549 3.942537541486445 3.790745651090375  8.6450503800005 3.968396397900934 3.720303721661851  8.779361369686253 3.993824165368165 3.655209844140292  8.752145149065868 4.001352442682048 3.82066697091783  8.644018039044875 4.028006387372064 3.747621345754881  8.776556969528061 4.053774785769324 3.677840915060511  8.192452217606577 3.619956645927086 3.738570748849374  8.202833154207765 3.676026534712004 3.780728377804022  8.2131280938814 3.731965290572147 3.823087415838177  8.223404291215315 3.787899927998474 3.865529845486331  8.233734027858612 3.843899377123442 3.908008341188749  8.244190900812288 3.900034813009527 3.950495465243272  8.254813307308691 3.956398424076886 3.992953939653114  8.704216122225265 3.7139097771242 3.47690925955811  8.702904048026133 3.772792182075671 3.496871773958057  8.701752446665697 3.831796050183871 3.51714259596698  8.700691789023731 3.890957588251408 3.537560992726517  8.699660935229529 3.950308680867158 3.558008931715351  8.698591949943504 4.009886358890847 3.57837856155736  8.697421595166396 4.069721622432352 3.598557352382036  8.703504692983365 3.926478746397023 2.737216955425222  8.60492256597805 3.950696752948628 2.643635325104742  8.54741901508455 3.907162251800965 2.767589484694996  8.545346445110837 3.958421845110029 2.783376802012124  8.645507321494515 3.890054223807828 2.833896071609368  8.642897982633635 3.940682711941303 2.850276829734281  8.699752227741014 3.97686158163255 2.754762765166923  8.543358656859057 4.009931871893698 2.799130168393453  8.696094698030722 4.027489880064721 2.772246150982338  8.640374889413634 3.991607245492688 2.866683445457233  8.541414152917351 4.061720881216752 2.814926857845337  8.692463804676892 4.0783557654534 2.78976822223495  8.637882360016977 4.042779658946714 2.883131168861514  8.539464611417213 4.113783656772204 2.830831514211695  8.688817074205929 4.129450454608144 2.80739173885484  8.63539258684435 4.094221648588507 2.899664910417975  8.53746454070972 4.16613529995451 2.846899418579576  8.685103283464601 4.180772894767726 2.825191372646821  8.632861842035695 4.145967448748226 2.916340125174083  8.535363461800378 4.218779369874963 2.863197715476147  8.681273381289442 4.232320240054051 2.84328382523663  8.630219968111104 4.198101586165339 2.933269123136095  8.250236339754766 3.842448553084338 3.098512530096466  8.201854686704827 3.865531508799678 3.010230893182188  8.156792330062045 3.852510585632493 3.141619658163875  8.170038410439728 3.90976613473241 3.15200621492904  8.211085970337809 3.921022791536321 3.019991851769271  8.258965938832581 3.898370741094769 3.110017756952692  8.183148041244173 3.967278400747528 3.162643882038809  8.220211746683251 3.976767914619356 3.029942466370115  8.267607386536083 3.954556370766664 3.121742910132826  8.196331787259741 4.025097028581134 3.173354731592234  8.229388138603584 4.03280911240632 3.039972704457743  8.276325695511034 4.011030161651362 3.133528481548479  8.209676956327613 4.083213922305274 3.184054200681956  8.238713994576999 4.089164436180187 3.049999900466438  8.285203937457544 4.067822149602925 3.145303063118238  8.223306777504424 4.141639186773681 3.194668780525185  8.248289380775345 4.145865983545948 3.0599759540262  8.294343260168596 4.124967891518275 3.156999318845513  8.237443383260455 4.200349874887842 3.205076254559073  8.258262983508299 4.202987418994402 3.069818734707637  8.303866701237535 4.182608057225996 3.168574193183616  8.074454912253051 3.669681685058384 3.696799090824312  8.090162004287937 3.726703573630894 3.736932750052444  8.105678957843793 3.783661350281219 3.777259207558901  8.121134749618372 3.840614196370445 3.817691409274783  8.136634098866072 3.897604347296144 3.858154173037596  8.152325059141107 3.954653477305579 3.898575302310462  8.168404468128054 4.011872412753982 3.938950710960126  8.910680143292728 4.003566914142301 2.887523943345037  8.841212600020709 4.024305650680372 2.812261683004634  8.828488394984484 3.97702182795335 2.949809705238122  8.824858430285433 4.027933460796423 2.966012486417316  8.836894168489238 4.074569616046895 2.829906045595228  8.906236428437648 4.05380924853706 2.904661833501768  8.821222460450592 4.07908275470528 2.982288292506203  7.696637833463237 3.58797579244999 3.928827920415707  7.600270052275697 3.656449709165809 3.912206073106202  7.5955181378793 3.519693364885948 3.991503952125342  7.609801583245891 3.558408344535963 4.063241010711498  7.617670899451728 3.702731448321519 3.978279596747921  7.715371431676097 3.631306808415239 3.99445417997874  7.623909632085968 3.597165589887594 4.134755998232959  7.634821283754537 3.749000256460604 4.044160828373501  7.733834233940748 3.674616759729985 4.059919532550715  7.637898828103211 3.635884466910948 4.206120218788363  7.651827086105054 3.795207969643366 4.109908700464954  7.75216503322589 3.717873412645493 4.12528528721116  7.65183215422291 3.674516720745163 4.277377795915704  7.66877906673024 3.841315314925549 4.175552540233934  7.770461978232357 3.761048234921056 4.190566079412835  7.665769795886464 3.713013583158848 4.348549042032994  7.685746252556046 3.887275788283878 4.241105613850403  7.788804900690673 3.804098600603735 4.255750718928998  7.679766789647603 3.751316369826086 4.419649971059738  7.702788468015281 3.933057343684257 4.306570085439663  7.807239112727936 3.846956217341532 4.320810019059087  8.48481103148543 3.942604840100119 2.63608222708574  8.482024718052601 3.99457778539741 2.65099067645131  8.076357174882535 3.887786713823428 3.048361430753219  8.090186724526438 3.944884969503273 3.056655475797461  8.103876002510457 4.002334496219481 3.065198703935767  8.117617199347418 4.06005459451498 3.073808239872693  8.131532306653339 4.118065896138431 3.082391088707706  8.14575624751002 4.176389131965327 3.090872361238358  8.160486813763159 4.23502359315848 3.099157185982016  9.003056694475823 3.569947517023636 3.791386873810843  8.974074714784079 3.63017503845702 3.693390042021607  8.885083600362723 3.563630430213043 3.795366095478767  8.882681370729099 3.616719741218734 3.839688836318679  7.514149997505439 3.599049121657181 3.961435156667186  7.526445183976521 3.641079707947856 4.032853261494252  7.538573387581202 3.683097454646024 4.103971341937702  7.55056866606816 3.725069809670131 4.174915707657866  7.562492664851017 3.766945686151708 4.245736956131633  7.5
[...]
<PointData  Vectors="f_24"> 
<DataArray  type="Float64"  Name="f_24"  NumberOfComponents="3" format="ascii">-1.2749990577801549e-02 1.0170072008744614e-01 -5.9024645213888406e-03  -1.1614213949234269e-02 1.0467607809139558e-01 -1.1902233638062924e-03  -1.2983923964053620e-02 8.5225418696418920e-02 -1.0554360535661205e-02  -1.3597900674239494e-02 7.8040950423725261e-02 -3.2451000883787565e-03  -1.2667727818059237e-02 9.8893948862019812e-02 7.1205110052959125e-03  -1.3658695631679254e-02 9.5410595758128200e-02 2.4865824537380113e-03  -1.4444666121209326e-02 8.9648600626645453e-02 1.0568740844075343e-02  -1.3608779131342648e-02 9.3581117391045188e-02 1.5164765338730063e-02  -1.4114743543606208e-02 7.1604781526636546e-02 3.9151900990338547e-03  -1.5156958721628392e-02 8.4193598112402249e-02 1.8619258939774432e-02  -1.4446831578565595e-02 8.8527219854700870e-02 2.3140583714817253e-02  -1.4555826081803683e-02 6.5621105395749654e-02 1.1173499914841118e-02  -1.5814809607330678e-02 7.8891854813245343e-02 2.6869462457590414e-02  -1.5213841325270934e-02 8.3600497240412283e-02 3.1281626468484550e-02  -1.4927100809877315e-02 5.9883690007785199e-02 1.8711699394570101e-02  -1.5918256933884694e-02 7.8711329248389306e-02 3.9786447699964145e-02  -1.6442754695516214e-02 7.3619452697606863e-02 3.5549984954013319e-02  -1.5218306673146203e-02 5.4249940078607596e-02 2.6690058308253679e-02  -1.7041180048226599e-02 6.8305975909225283e-02 4.4831545182423271e-02  -1.6620914285162935e-02 7.3748512939929914e-02 4.8889173082953520e-02  -1.5403681448902945e-02 4.8588878055033459e-02 3.5290743674284537e-02  -1.4972606224214279e-02 2.0766434071020071e-01 3.8314963174122176e-02  -1.4088428033821064e-02 2.0144332378752916e-01 3.9305842460076505e-02  -1.2145030237776482e-02 2.0679512423850493e-01 3.5993081169483042e-02  -1.4456091797194256e-02 2.0854271907957983e-01 3.6304766800298482e-02  -1.1770988163179596e-02 8.9661269934887391e-02 -5.1675777369265272e-03  -1.2534328593478004e-02 8.2780316686361419e-02 2.0833189201302530e-03  -1.3226443592118164e-02 7.6506768335139017e-02 9.1553862018880945e-03  -1.3818535740912949e-02 7.0642295984045422e-02 1.6252883921914051e-02  -1.4306252117287428e-02 6.5026017185510793e-02 2.3557938398949114e-02  -1.4680480311829475e-02 5.9525040271445395e-02 3.1214168024240631e-02  -1.4913068038970773e-02 5.4015451717061569e-02 3.9398576226000327e-02  -2.3442653262509498e-02 1.9562217972772322e-01 1.7279691124471003e-02  -2.6557959553309675e-02 2.1369280174513908e-01 2.5752728613317205e-02  -2.1267483473262894e-02 2.0425373841826128e-01 2.1032271012495329e-02  -2.2630021454550942e-02 2.0334793080372660e-01 2.8233926574602358e-02  -2.7460385594029333e-02 2.1325252152072974e-01 3.2157299483660869e-02  -2.4394674893964845e-02 1.9418694713416695e-01 2.5477435343399756e-02  -2.3749204502300648e-02 2.0191145409370043e-01 3.4775023106130246e-02  -2.8160990336577135e-02 2.1213276841602793e-01 3.7897792343156406e-02  -2.5153534659723427e-02 1.9229062149604059e-01 3.2965518657765799e-02  -2.4705772558185794e-02 1.9987715474523657e-01 4.0880261345009841e-02  -2.8715045858883813e-02 2.1030614800070219e-01 4.3175105804562595e-02  -2.5774333909117004e-02 1.8985188558500588e-01 4.0005220521974444e-02  -2.5575059833771285e-02 1.9714476480729851e-01 4.6766013423997478e-02  -2.9166178554844407e-02 2.0769128760565053e-01 4.8166012560336237e-02  -2.6313495097439146e-02 1.8675989203969132e-01 4.6861312622959186e-02  -2.6433204264024988e-02 1.9355796880814272e-01 5.2655437622950434e-02  -1.8677372009705429e-02 1.1469445347177924e-01 -7.8595556407482069e-03  -1.6598244596887891e-02 1.0443550152688025e-01 -1.0415849327198424e-02  -1.8349892462533796e-02 9.4722633769610889e-02 -1.4611956807566386e-02  -1.8438806624313346e-02 8.7430036029629482e-02 -5.7312865416855588e-03  -1.7081353938920060e-02 9.7787000646311711e-02 -1.2032609574474825e-03  -1.9039662467884643e-02 1.0887083142556660e-01 2.1158712323927505e-03  -1.8484163204020042e-02 8.0866175630377915e-02 2.8471076031945726e-03  -1.7475275287103714e-02 9.1699061135828305e-02 7.6098573052911416e-03  -1.9319548298512058e-02 1.0348784620877638e-01 1.1561008287483023e-02  -1.8517811923895625e-02 7.4702705726878732e-02 1.1397652694414274e-02  -1.7822743862331278e-02 8.5923266212087276e-02 1.6344826239353911e-02  -1.9559431199735067e-02 9.8303515247134876e-02 2.0851187660358258e-02  -1.8563380258921559e-02 6.8729606043339414e-02 2.0171667164121259e-02  -1.8163829317042638e-02 8.0277953795495585e-02 2.5271208897971034e-02  -1.9797197066951482e-02 9.3141707184714706e-02 3.0287069435881983e-02  -1.8652353333977141e-02 6.2799046182276039e-02 2.9356950073156425e-02  -1.8540896360388654e-02 7.4631890522330158e-02 3.4623063676704313e-02  -2.0072645945101247e-02 8.7877732091405078e-02 4.0133780482652613e-02  -1.8816121595948171e-02 5.6819118078268102e-02 3.9113515037876502e-02  -1.9010251520156042e-02 6.8893363865863325e-02 4.4601231402146641e-02  -2.0423964742235429e-02 8.2450876740229495e-02 5.0626847429370458e-02  -1.2881236680345109e-02 7.0409663435836892e-02 -1.3485251269688846e-02  -1.3184285663931766e-02 6.2471919263395292e-02 -7.7273877759081160e-03  -1.3431276826127410e-02 5.5518993707010210e-02 -1.8562833708530161e-03  -1.3594558972202369e-02 4.9080972775431879e-02 4.2641518193644633e-03  -1.3655749710553569e-02 4.2923136542751122e-02 1.0745816651002441e-02  -1.3572387759433332e-02 3.6884182115719040e-02 1.7701775152491661e-02  -1.3289674056917358e-02 3.0842319632321254e-02 2.5269278462539436e-02  -1.7104533084575584e-02 1.2600129771253574e-01 -4.4444620804325588e-03  -1.7849445236047409e-02 1.2098465156678781e-01 5.6385065716049454e-03  -1.8459049428306212e-02 1.1621172952348711e-01 1.5134825047384146e-02  -1.8999174773108505e-02 1.1152974732209765e-01 2.4411020404242943e-02  -1.9524403763863479e-02 1.0679534743055612e-01 3.3786165856604725e-02  -2.0086834470950086e-02 1.0189582706430758e-01 4.3553114507500476e-02  -2.0732190613443897e-02 9.6754488257207047e-02 5.3986037930409868e-02  -2.2129111910181059e-02 2.2457157050394874e-01 3.4541538805244451e-02  -2.0838953537995822e-02 2.2351618674932655e-01 3.6710896611374680e-02  -1.6989609488253225e-02 2.1851146622397266e-01 3.1622581024292537e-02  -1.9082732475987012e-02 2.1926937218632231e-01 3.5131595973875607e-02  -1.8741612129119390e-02 2.1804862311263160e-01 2.9610518690533359e-02  -2.0631204318640944e-02 2.1834651561119658e-01 3.4115958993876906e-02  -2.3854348218656677e-02 2.2555817440621076e-01 3.7430771825358589e-02  -2.0895052713436051e-02 2.1928534798610183e-01 3.8188708077915606e-02  -2.5303409539452797e-02 2.2570694171941708e-01 3.9889237799893146e-02  -2.2241266480056081e-02 2.1796933159595669e-01 3.8115375696034889e-02  -2.2524825050489968e-02 2.1857492422985514e-01 4.0888749933531351e-02  -2.6559704013075978e-02 2.2504591995111808e-01 4.1969528056948896e-02  -2.3659413552811273e-02 2.1687793497961158e-01 4.1725679415905992e-02  -2.4069807528225462e-02 2.1710202016469848e-01 4.3294317911408572e-02  -2.7703029373291166e-02 2.2357356445556217e-01 4.3689306472559232e-02  -2.4986120577897019e-02 2.1502180669235213e-01 4.5041516422978718e-02  -2.5628044528160684e-02 2.1479886715675015e-01 4.5440448049678797e-02  -2.8809689971492556e-02 2.2125134151283668e-01 4.5022899615346675e-02  -2.6318488077335184e-02 2.1230359956630157e-01 4.8125005216357555e-02  -2.7305395507865537e-02 2.1157361493802260e-01 4.7334947479183057e-02  -2.9948912570255056e-02 2.1800674749563501e-01 4.5872281309491045e-02  -2.7747937827782957e-02 2.0854586053090804e-01 5.0976385577730113e-02  -8.4122603329753586e-03 1.7471636604081703e-01 1.6296662634645537e-02  -7.7704803095105688e-03 1.8326336014751354e-01 2.0005702930938504e-02  -7.7198419486364887e-03 1.6518550738840965e-01 1.5946092079343631e-02  -9.7269542654302432e-03 1.6435954179500908e-01 2.3812214541354213e-02  -9.9815029018907910e-03 1.8325028705316507e-01 2.6690884804024654e-02  -1.0506994463245867e-02 1.7387888844456051e-01 2.3887197709579901e-02  -1.1605387578481074e-02 1.6326143865882120e-01 3.1135505617575297e-02  -1.2017903540060762e-02 1.8281233582805465e-01 3.2850950375419907e-02  -1.2401617338457424e-02 1.7271098898913076e-01 3.0932035483226077e-02  -1.3424793832853532e-02 1.6186922537935222e-01 3.8179109360563179e-02  -1.3978081058519602e-02 1.8193110921764175e-01 3.8703890491274789e-02  -1.4208574778982403e-02 1.7118185440614922e-01 3.7683317977527588e-02  -1.5268210118200141e-02 1.6014337937974485e-01 4.5210825128547558e-02  -1.5963641824037807e-02 1.8056947067922488e-01 4.4479615282285674e-02  -1.6029507343237132e-02 1.6924364345057019e-01 4.4397094274715818e-02  -1.7241778956418305e-02 1.5805938522939522e-01 5.2521280141938548e-02  -1.8105635359997131e-02 1.7868026548459690e-01 5.0446133654389644e-02  -1.7989530382487153e-02 1.6685207876086661e-01 5.1357877189622141e-02  -1.9465694530257163e-02 1.5562612405229900e-01 6.0447383253326756e-02  -2.0580148635287961e-02 1.7624385875048115e-01 5.6948552141039444e-02  -2.0240763038232915e-02 1.6401061750716622e-01 5.8911036836697232e-02  -1.1649760605157359e-02 7.7032300109364557e-02 -7.3049478584033753e-03  -1.2202106323129390e-02 6.9629522969010316e-02 -1.1576461326410960e-03  -1.2669208125068774e-02 6.2971031972314087e-02 4.9245352566465962e-03  -1.3024680080171377e-02 5.6789422746420640e-02 1.1178588661119213e-02  -1.3246378760900859e-02 5.0891304813753195e-02 1.7712446800860728e-02  -1.3294746370308756e-02 4.5132134048121962e-02 2.4609254157419106e-02  -1.3091786212016584e-02 3.9369573355224834e-02 3.1984879370191635e-02  -2.9269545748045214e-02 2.2290770274130028e-01 4.0388576132881861e-02  -2.8543232758799900e-02 2.2706461099824585e-01 4.0897546390490251e-02  -2.6081051209129392e-02 2.1545050507034458e-01 3.8252681905316895e-02  -2.6977587392547350e-02 2.1387099852547278e-01 4.2932991646208951e-02  -2.9395453281092790e-02 2.2621204010986157e-01 4.3452080987308440e-02  -2.9899821653695747e-02 2.2164120855820954e-01 4.4083653079586289e-02  -2.7771382631670744e-02 2.1150791722033879e-01 4.7311424515540323e-02  -8.8335774634969652e-03 4.0889327270529935e-02 -8.5030898917793692e-03  -8.2947992210484888e-03 4.4653399640111661e-02 -1.2464596474899125e-03  -7.8221822155646378e-03 3.2308335348877407e-02 -1.1483043223528333e-02  -6.6767106806713246e-03 2.4890209842635336e-02 -1.0818077942944431e-02  -7.5442645087924840e-03 3.6862646605330257e-02 8.9166600622276508e-04  -8.2058290477405506e-03 3.3136721443263080e-02 -6.9088560233530136e-03  -5.5864768185322558e-03 1.8027256752916811e-02 -9.5299765672992014e-03  -6.7806013851038679e-03 2.9629984816180500e-02 3.5730878601525759e-03  -7.5245816463989047e-03 2.6000824783707417e-02 -4.7041470732553537e-03  -4.4101457957234436e-03 1.1556361085861418e-02 -7.6655062083095978e-03  -5.9112801496964181e-03 2.2778987007816071e-02 6.6938297719236163e-03  -6.7116093666580107e-03 1.9280139772832824e-02 -2.0049238779459846e-03  -3.0532464761490333e-03 5.3126455186685165e-03 -5.3137278544599324e-03  -4.8684642060309062e-03 1.6156139460389345e-02 1.0184685307718953e-02  -5.6894108380658925e-03 1.2807924811851421e-02 1.1219747807754770e-03  -1.4469758179268262e-03 -8.4699261093534384e-04 -2.5588765997528822e-03  -3.6016470247398733e-03 9.6308731901621567e-03 1.3978633621354666e-02  -4.3923870298407689e-03 6.4392430794413076e-03 4.6056052359951700e-03  4.6550830028779030e-04 -7.0473593232205376e-03 5.2160819632298609e-04  -2.0881369062076315e-03 3.0975881460688619e-03 1.7991765224624652e-02  -2.7835574043487978e-03 4.8908000299404998e-05 8.3614508127779087e-03  -1.7707524544833368e-02 2.1970882073565232e-01 3.5737552353105134e-02  -1.9804113776843584e-02 2.2121871193597520e-01 3.7059292004836333e-02  -6.8738490142190708e-03 1.7330756152309332e-01 2.0548329041861515e-02  -8.9984928901005838e-03 1.7336226906810220e-01 2.7469909017755360e-02  -1.1027539423974263e-02 1.7299770710042858e-01 3.3871447443837729e-02  -1.3018957213747269e-02 1.7223971882799513e-01 4.0007537098065385e-02  -1.5059218696049410e-02 1.7107537792236369e-01 4.6134316931135046e-02  -1.7262816815895487e-02 1.6950238950743302e-01 5.2533004456408197e-02  -1.9759268996723933e-02 1.6757482271920746e-01 5.9514918637977907e-02  -2.0620517323126079e-02 6.5784576989979152e-02 -2.6959713934920870e-02  -2.0905013044943140e-02 8.5541724359345608e-02 -1.9197256154988709e-02  -1.9404877738558517e-02 6.4550035646187040e-02 -2.6241672297691636e-02  -1.8914655196407070e-02 5.5694197062095191e-02 -2.0414477854913845e-02  -7.5477987804765364e-03 3.8146053698076367e-02 -3.9185412209503346e-03  -6.3287332345037268e-03 3.0481974197381263e-02 -2.5625332127385513e-03  -5.1814574361097755e-03 2.3325525976561051e-02 -6.6018815974874345e-04  -3.9815217987331066e-03 1.6546941227783357e-02 1.7329600267534655e-03  -2.6427184227238651e-03 9.9952435908420411e-03 4.5416578801574601e-03  -1.1133235699426270e-03 3.5363235032957138e-03 7.6974987735605347e-03  6.3546244802954233e-04 -2.9392327756140165e-03 1.1154651377580309e-02  -1.0432693735023198e-02 1.0988574608731005e-01 4.1589496556090864e-03  -1.1742658016396974e-02 1.0496975463020455e-01 1.2465776381628097e-02  -1.2878659782011671e-02 1.0039865515606618e-01 2.0446560778637331e-02  -1.3916719375907412e-02 9.6014371536881332e-02 2.8358226419962260e-02  -1.4874059103921512e-02 9.1704882349307848e-02 3.6413522963567105e-02  -1.5752170789835818e-02 8.7405224990815641e-02 4.4797246760414348e-02  -1.6494313722466958e-02 8.3131678845294585e-02 5.3622933853487348e-02  -2.6242725211057617e-02 2.2625320070331773e-01 3.4477317000526378e-02  -2.1662694232313047e-02 2.1978016195203090e-01 2.9903542922425107e-02  -2.3715353498492211e-02 2.1647753710759696e-01 2.7430739289962612e-02  -2.3282497630034611e-02 2.2002433326785567e-01 3.4613727460063685e-02  -2.7513368403569723e-02 2.2708598379804526e-01 3.7924310188796474e-02  -2.5014160861422791e-02 2.1631555561832497e-01 3.3136069235268691e-02  -2.4637028475131773e-02 2.1954764472404825e-01 3.8815855957661037e-02  -2.5801649640298296e-02 2.1833612433514932e-01 4.2597055494562691e-02  -2.6865633449055286e-02 2.1633760175112587e-01 4.6053725189846829e-02  -3.0135121380255037e-02 2.2451819971272519e-01 4.5619068357359030e-02  -2.8527217912161364e-02 2.0823474166951469e-01 5.1509693784137812e-02  -2.7909906550492237e-02 2.1344963345482248e-01 4.9253892400008450e-02  -3.0821549058026806e-02 2.2193062762483917e-01 4.7389302812895266e-02  -2.9309337964171036e-02 2.0385421937160353e-01 5.5635458660315877e-02  -2.9015426504070723e-02 2.0949431814834166e-01 5.2235745023167662e-02  -3.1500168768459361e-02 2.1833531894577954e-01 4.8722956440549262e-02  -1.9388922164396385e-02 8.3483533731789558e-02 -1.8700759128122420e-02  -1.9186784833114881e-02 7.5625731997783385e-02 -1.0496745157378995e-02  -2.0493660706767912e-02 7.7572351510970625e-02 -1.0892470347150516e-02  -1.8965327820506410e-02 6.8608285617879544e-02 -2.5093795580058385e-03  -1.0889411234275692e-02 9.3221043620633909e-02 1.1085761851994714e-03  -1.1908813891597387e-02 8.6634490870031652e-02 8.0483801925533768e-03  -1.2759575295333749e-02 8.0490828683085242e-02 1.4894028377458802e-02  -1.3474957658104735e-02 7.4674606806500121e-02 2.1768981763304388e-02  -1.4062410753341274e-02 6.9053108159675303e-02 2.8830697201092086e-02  -1.4510502217794865e-02 6.3529734000247001e-02 3.6207577321700019e-02  -1.4783677127931816e-02 5.8044273226306072e-02 4.3922159067747102e-02  -1.3854319656271949e-02 1.4837429403352959e-01 3.2989786010765229e-03  -1.1999700076390790e-02 1.5078714776355606e-01 5.6824472857531783e-03  -1.3487142371271289e-02 1.3222345403791647e-01 -9.5753412534527432e-04  -1.4718446272276267e-02 1.2785993665543224e-01 8.7256285405390207e-03  -1.3591401208616476e-02 1.4777565806587686e-01 1.5008178524536314e-02  -1.5254898178215596e-02 1.4491598411096676e-01 1.2951203827261384e-02  -1.5783666602853935e-02 1.2368966076581542e-01 1.7863401639959996e-02  -1.4987941588525499e-02 1.4472197145193430e-01 2.3748443310406431e-02  -1.6461780394504438e-02 1.4146617756558735e-01 2.1998231372118645e-02  -1.6748087905436110e-02 1.1957246802480771e-01 2.6777890753854113e-02  -1.6274305956169584e-02 1.4153450280862040e-01 3.2228356443696593e-02  -1.7555150923223919e-02 1.3790767439310178e-01 3.0771891555368358e-02  -1.7682660263327436e-02 1.1538599574380269e-01 3.5772146360184442e-02  -1.7538419532017190e-02 1.3811838705635376e-01 4.0751111092762388e-02  -1.8617903352655157e-02 1.3412972795241052e-01 3.9587909010745076e-02  -1.8660946961704106e-02 1.1103446717584617e-01 4.5143268505540471e-02  -1.8880302108083707e-02 1.3439915205934833e-01 4.9639741997155491e-02  -1.9741997515900701e-02 1.3003868335424179e-01 4.8767348055481989e-02  -1.9774518669269769e-02 1.0642853874170412e-01 5.5196743009333249e-02  -2.0421455966868441e-02 1.3035082631805170e-01 5.9242185668267659e-02  -2.1044344181941569e-02 1.2557360692568062e-01 5.8643790451334027e-02  -1.8916132021945531e-02 2.0965762555308667e-01 2.4066564247183821e-02  -2.0633719597361017e-02 2.0919393354838806e-01 3.0296956661350113e-02  -2.2074019354498681e-02 2.0815945719388759e-01 3.5942985822591901e-02  -2.3332498881720037e-02 2.0649564659949537e-01 4.1178008614425998e-02  -2.4507519334344436e-02 2.0410974314872871e-01 4.6164800848799578e-02  -2.5697353872988226e-02 2.0085194645110158e-01 5.1068912008331142e-02  -2.6992261727709820e-02 1.9650673606374033e-01 5.6075980834081190e-02  -1.0782616493507660e-02 8.0349430412882450e-02 -9.3488414044165611e-04  -1.1566600617658839e-02 7.3307762614609001e-02 5.0168690940741644e-03  -1.2188924581668960e-02 6.6821993818857076e-02 1.0984288909247781e-02  -1.2661026893887848e-02 6.0733080761188010e-02 1.7094194107241771e-02  -1.2979215475434080e-02 5.4883964998610701e-02 2.3447172070130227e-02  -1.3104872352348683e-02 4.9152497375080095e-02 3.0110179789019594e-02  -1.2940142073389428e-02 4.3488464879698943e-02 3.7078578113713824e-02  -1.1755240713928824e-02 1.3352179229651448e-01 1.6151321449971415e-03  -1.3170507728013659e-02 1.2958218243108971e-01 1.1025596520704955e-02  -1.4420277384827805e-02 1.2578998851243053e-01 1.9907371282975688e-02  -1.5570507764429916e-02 1.2202378698298254e-01 2.8572395957469257e-02  -1.6687351417229639e-02 1.1817949764861418e-01 3.7315498949633430e-02  -1.7842094187599602e-02 1.1418158614584457e-01 4.6426466431418310e-02  -1.9105571146836992e-02 1.0998383822656702e-01 5.6204177429244176e-02  -8.0775300819545537e-03 5.0055511757155571e-02 5.9705508184240037e-03  -7.2699432075931970e-03 4.2212175113369325e-02 8.5931563202745875e-03  -6.4778876813441902e-03 3.4871241097573905e-02 1.1689813819617981e-02  -5.6059664011071358e-03 2.7899826735237953e-02 1.5171565538849569e-02  -4.5978382789099671e-03 2.1156549778621202e-02 1.8969281412711831e-02  -3.4177760538627415e-03 1.4519516105992506e-02 2.3026068142089864e-02  -2.0488300573501908e-03 7.8861634340518776e-03 2.7286343412056789e-02  -2.9472779776879048e-02 2.3053711847428426e-01 4.0712565584862845e-02  -3.0385344503788127e-02 2.3032475782155351e-01 4.1303842700264708e-02  -3.1172512421893023e-02 2.2928483631580651e-01 4.1482081211398639e-02  -3.1887898587290159e-02 2.2743445248388364e-01 4.1154174631253114e-02  -3.2586355922254347e-02 2.2474963039537679e-01 4.0178263764546439e-02  -1.1136437070483604e-02 6.2276438941441893e-02 -9.5063021178618708e-03  -1.1475310774943983e-02 5.4317757201439068e-02 -5.3975835520869153e-03  -1.1640720550187479e-02 4.7087574201332583e-02 -9.9793513812965608e-04  -1.1668136020870868e-02 4.0349020237568804e-02 3.7097839055793714e-03  -1.1519063268748759e-02 3.3911601310923127e-02 8.7794295746611312e-03  -1.1134182411167114e-02 2.7625375144776376e-02 1.4244875465327773e-02  -1.0384024049145542e-02 2.1390852929392030e-02 2.0079101916461992e-02  -7.0637294467686658e-03 1.5736971780782100e-01 1.8179863346302377e-02  -9.0373141494572273e-03 1.5666019732360384e-01 2.5968842332168923e-02  -1.0914044013499232e-02 1.5568941217789242e-01 3.3231428414438789e-02  -1.2748463493513175e-02 1.5445657550588