<?xml version="1.0"?>
<VTKFile type="UnstructuredGrid"  version="0.1"  >
<UnstructuredGrid>
<Piece  NumberOfPoints="1018" NumberOfCells="4416">
<Points>
<DataArray  type="Float64"  NumberOfComponents="3"  format="ascii">9.094173925064778 3.680739223457439 3.609707729621877  8.974074714784079 3.63017503845702 3.693390042021607  9.084317025112236 3.627439826924734 3.70405588382302  9.082913863021151 3.684079227111119 3.739611611864856  8.972825159620786 3.68777162096141 3.727149345104348  9.092603799532878 3.738575932422564 3.63876107865531  9.081642680694999 3.740499543181694 3.775286901079671  8.971713691786661 3.745186745264281 3.761085090129324  9.091146337311054 3.796295879651527 3.668001403069121  9.080422894800144 3.796824793264273 3.811004212718834  8.970675018714399 3.80252304475256 3.795091095115665  9.089746064283009 3.853976273407076 3.697324202202906  9.079221103720979 3.853114763700719 3.846709808996577  8.969652156462031 3.859843879510161 3.82909398321589  9.088365329535279 3.91166346862527 3.726649839389772  9.078006095967552 3.909389081764435 3.882357467883452  8.968600608306199 3.917172031237474 3.863032797915008  9.086977039454791 3.969380426832473 3.755913006459457  9.076726087554711 3.965636916718212 3.91788752958675  8.967493775225321 3.9745230544923 3.896843728713279  9.08553622675373 4.027128515339742 3.785047074177867  9.934620869223124 3.893722256974707 3.20251320624355  9.866795192279152 3.921606578204871 3.113111358860062  9.826582413044678 3.86458465614687 3.249921202810234  9.822477909236369 3.91807358628391 3.271212235507683  9.860356257996092 3.973502932433574 3.132112009068786  9.92861826726979 3.946112066927183 3.224184323330544  9.818308047458123 3.971630877699502 3.292627886642588  9.853887762680918 4.025496044157539 3.151221112458557  9.922588942366817 3.998595693256586 3.245949656945938  9.81410229740287 4.02530509878747 3.314121361652903  9.847397976414888 4.077626474464172 3.170401935992226  9.916536521435074 4.051206812301688 3.267784093565078  9.809894438500972 4.079114304890538 3.3356409917651  9.84088936705289 4.129918753222813 3.189617716990079  9.910473769699379 4.103966600286645 3.289658899093128  9.805723444980469 4.133075608001336 3.357139265101383  9.834372912078761 4.182405509270577 3.208828018052984  9.904421796193928 4.15690422491158 3.311543053633461  9.801661441440991 4.187206364227761 3.378551975459983  9.827879006177616 4.23512901959733 3.227986887845084  9.898403936491572 4.210069561502609 3.333407740142931  8.987591692058965 3.847146714848024 3.054437152995741  8.938308606269832 3.869509059736925 2.963256761118864  8.896527013464288 3.825852286775401 3.101628448577795  8.892515603372233 3.878431044328029 3.115853191099767  8.93408000014438 3.92021297714988 2.978987093091362  8.982994217993078 3.898981413613638 3.069034684712581  8.978473352321386 3.95095282094022 3.08373368533469  8.929925716709658 3.97111500184896 2.994779615506154  8.888590787016541 3.931217799346595 3.130214861599225  8.974006646934336 4.003132814828959 3.098498755972897  8.925810203751551 4.022218088025737 3.010629539438528  8.884729225248314 3.984218122616571 3.144651517136657  8.96953537170085 4.055529910560666 3.113304315932727  8.921685499713199 4.073544495789157 3.026540819790161  8.88087766539191 4.037455988452161 3.159121980107157  8.965012167813233 4.10816858655315 3.128122563065066  8.917504387358493 4.125136224547095 3.042525043351042  8.876974048227517 4.090964005662689 3.173590004504922  8.913205175866649 4.177015785935831 3.058568706588044  8.960366753043406 4.161118729546361 3.142909829174596  8.872919135181176 4.144844291846601 3.188011662424925  8.990904526618728 3.703110878801826 3.556865444742028  8.988110986449346 3.761779809917843 3.581597130188125  8.985464613763671 3.820398943615236 3.60656360458235  8.982893111459145 3.879042815212806 3.631639139406527  8.980335530153495 3.937751713280983 3.656723440676499  8.977741085898524 3.99654388774092 3.681728322870159  8.975082618645859 4.055403828305302 3.706572553970174  9.464834165975125 3.509678280676943 3.806891115006415  9.358863483544365 3.563401046119201 3.774094414457075  9.383337203384682 3.455671376469039 3.865291915175391  9.390671115387587 3.496337577912266 3.921325552784612  9.362970254109488 3.612168951177063 3.821375905646348  9.472562424325815 3.553888864071617 3.85849134305187  9.397899498950853 3.536825924924611 3.977268278766124  9.367026670356442 3.660757343158181 3.868653918585233  9.480142547329347 3.597923338566543 3.910057254753796  9.405082008373627 3.577188014290841 4.03314665856418  9.371072289775951 3.709224792785952 3.91592027315982  9.487672774226297 3.641848413922416 3.961600193735869  9.412276640051466 3.617451994077123 4.088971382743197  9.375141243565119 3.757615072587064 3.963155172242622  9.495224949753641 3.6856978805827 4.013112212649236  9.419517305927577 3.657626029963379 4.144739538690294  9.379253553729855 3.805950256498333 4.010336192989061  9.502851285998982 3.729479310675794 4.064569315370041  9.426835404034028 3.697722128971895 4.20044581380513  9.383403052772875 3.854240157047294 4.057443616152565  9.510580408649112 3.773175880561477 4.115928282086077  9.974003808340562 3.745374381560763 3.484492712057105  9.870588387408359 3.772979871047733 3.430968638913205  9.899624348631358 3.687139509022197 3.560467769255372  9.900811071706725 3.735566552362967 3.600890466830168  9.869885001282148 3.824515618254137 3.463138968119012  9.97111120171621 3.79538168545173 3.520683398288771  9.968163673639406 3.845443604410274 3.556980099506475  9.869060700082711 3.876085582577085 3.495427939773633  9.901858586801948 3.784031748188293 3.641450137532036  9.965199186244559 3.895612952798092 3.593353992496278  9.868194229018371 3.927725299647491 3.527778089028659  9.902863257747947 3.832556365799246 3.682075511323692  9.962261633105808 3.945898314508669 3.629790096547046  9.867346305277 3.979452082024074 3.560163398730677  9.903898277522309 3.881166733582289 3.722756957264811  9.866572959134942 4.03126223374729 3.592545194557926  9.959378186058785 3.996332344890383 3.666288951647141  9.905039185548706 3.929902823193613 3.763494101993638  9.956513789992952 4.046903888409117 3.702848324585357  9.865947179062083 4.083239706439532 3.624946527510053  9.906360294811888 3.978793930098474 3.804314641527654  9.733437488808706 3.8859869902793 3.175477467232727  9.728467981459573 3.939157589068572 3.193841997950252  9.723445801632922 3.992429272785077 3.212367301305956  9.71840565148932 4.045819057188343 3.230965429207924  9.713359098090345 4.099359828811988 3.249581687477798  9.708325560667133 4.153078706484415 3.268160037083971  9.703345252139803 4.207000211139617 3.28663389615714  8.78635690080684 4.101746193247229 3.098185179174368  8.783133910646924 4.154796541790195 3.113227854068029  9.077373038589931 3.259683533263328 4.002848764150533  8.994165394544964 3.323734678912614 3.977723939903347  8.990427223869519 3.192860859896217 4.031499680485336  8.992289512074201 3.213051461251274 4.101154501737946  8.994454267453927 3.353867272433668 4.04314149033971  9.081953536894128 3.282808951975932 4.070966319241559  9.086513585021986 3.305865565842503 4.138857438150599  8.994825562452053 3.383866879397264 4.108315277989906  8.994183426202293 3.233190466056591 4.170577032774716  9.091065238851323 3.328821345575077 4.20658941318528  8.9952269766355 3.413743035862753 4.173344134930726  8.996090314952152 3.253255396903956 4.239864556233325  9.09561750526712 3.351668719377291 4.274226549158596  8.995632624533471 3.443509463730231 4.238277776942152  8.998004934222136 3.273229252043518 4.309051135439274  8.996022252196974 3.473168889477356 4.30314274820133  9.10017783189469 3.374402125127867 4.341777545327639  8.999920347497817 3.293096193145508 4.378151046694822  8.996363848837778 3.502704858437684 4.367928744123659  9.104761882133507 3.39702876895015 4.409242566705949  9.001823254483561 3.31282814614124 4.447162548023023  9.9834258898888 3.802470667077648 3.399939356932026  9.924849832001332 3.852351726832807 3.29873097493634  9.920847478743063 3.904862876036571 3.324489011224913  9.979351486450579 3.854241406162376 3.430777134960951  9.975241776634896 3.906100472069475 3.461715519217153  9.916775852425857 3.957481934883604 3.350373238881342  9.971113630218436 3.958067617405949 3.492731511247707  9.912678321498257 4.010208537383609 3.376327407583125  9.908590213271218 4.063063228105995 3.402318593916569  9.966993472375904 4.01017528451956 3.523808874884629  9.904551125480946 4.116087928922213 3.428320242429811  9.962903224445196 4.062447886839966 3.554930912612334  9.958847023064378 4.114891403561039 3.586076110819972  9.900608852439333 4.169316132047742 3.454311455223913  9.272520908050208 3.518843263545819 3.82520261269095  9.278074219012492 3.566475754665119 3.875052948658581  9.283561196056207 3.61386637660124 3.924828504348738  9.289028235579767 3.661120874674082 3.974561060107913  9.294510711627643 3.708276846263423 4.024246752149802  9.300036639506235 3.755350024525528 4.073874182388061  9.305645599577273 3.802349896655846 4.123404882238556  9.701875004047123 3.129814460679683 3.942288344804531  9.657481074899948 3.238665592837555 3.923641606782544  9.58974757138742 3.11045185651866 3.965843625218963  9.602554775511519 3.121169966912408 4.033734700644252  9.670540099379791 3.259048904076275 3.988767742627847  9.716065245513725 3.141108461906349 4.009288037263177  9.615222276364156 3.131823270205343 4.101533073149784  9.683401970867179 3.279334713668297 4.053868530915193  9.730082063378381 3.152311578971554 4.076257490106268  9.627817780370139 3.142410227990534 4.169265820107796  9.696177787937291 3.299537689842857 4.118951560048755  9.744020100548909 3.16343401035194 4.143203375628055  9.640396311875234 3.15291748081455 4.236948621514119  9.708954429455883 3.319662360024237 4.184009454250316  9.757948851493779 3.174477026273338 4.210125654364941  9.653015726794335 3.163355577260134 4.30457757173555  9.72
[...]
<PointData  Vectors="f_24"> 
<DataArray  type="Float64"  Name="f_24"  NumberOfComponents="3" format="ascii">-1.9180848512152158e-04 1.3530205958522279e-03 -2.2443474647849057e-04  -1.6375800634570915e-04 1.1230608153000737e-03 -2.9750381650864966e-04  -1.7647229840191827e-04 1.0947773235589068e-03 -3.1977737866496515e-04  -1.6887463056664210e-04 9.9702228295329856e-04 -1.9560256819242837e-04  -1.5953544783164271e-04 1.0295876654076381e-03 -1.6917174007934427e-04  -1.8574963388110901e-04 1.2722364729040724e-03 -8.5296214827081408e-05  -1.6154011710416149e-04 9.0870031169489681e-04 -7.5534927764850919e-05  -1.5540498757198506e-04 9.4487168708995493e-04 -4.6314656457319057e-05  -1.7995171664375278e-04 1.1967541117306483e-03 4.6673507190998590e-05  -1.5412875085540843e-04 8.2562042741653131e-04 4.4401055555012126e-05  -1.5118723398256859e-04 8.6516379831886095e-04 7.6090558761897277e-05  -1.7405878834907010e-04 1.1240189958956063e-03 1.7671057125368520e-04  -1.4658584367681390e-04 7.4503424618245473e-04 1.6696710749509623e-04  -1.4694537748712123e-04 7.8787755839466154e-04 2.0108089497590487e-04  -1.6799257400056970e-04 1.0521995587564927e-03 3.0849564601161518e-04  -1.3894579899748649e-04 6.6530534277648530e-04 2.9399177751833282e-04  -1.4284631055912111e-04 7.1144569514620200e-04 3.3067148262048014e-04  -1.6181647300296214e-04 9.8011611604271890e-04 4.4477600297710156e-04  -1.3129272557611972e-04 5.8568220060834864e-04 4.2682955181630759e-04  -1.3921607635831724e-04 6.3519102451255465e-04 4.6640922302816314e-04  -1.5569327168561315e-04 9.0719554344404537e-04 5.8757594021025211e-04  -4.8026035142709108e-04 2.2056664054994428e-03 -1.4039621377452827e-05  -5.0487158174836318e-04 2.4113673703330548e-03 8.6973214609013471e-05  -4.4251704902114914e-04 2.1446380131286183e-03 -3.1818104524295428e-05  -4.1563021218765829e-04 2.1071846455753178e-03 9.0998697623833225e-05  -4.7833452580980826e-04 2.3941651047458706e-03 1.9198943931207632e-04  -4.5214616394315289e-04 2.1731541809528157e-03 1.0094896808534519e-04  -3.9005013620312378e-04 2.0668330857908992e-03 2.0504558038223365e-04  -4.5223518253562832e-04 2.3708587493040207e-03 2.8906027545330941e-04  -4.2459769413456962e-04 2.1374402714522383e-03 2.0758735072340677e-04  -3.6464090838102015e-04 2.0225113911761967e-03 3.1480134406457780e-04  -4.2580226685268933e-04 2.3409125260973169e-03 3.8184158632936939e-04  -3.9696668596099710e-04 2.0970962839722902e-03 3.0980764014830020e-04  -3.3872498055479496e-04 1.9730137302948455e-03 4.2434063888857940e-04  -3.9830790390691636e-04 2.3034995374942527e-03 4.7369905671422908e-04  -3.6862566909069553e-04 2.0510556474624443e-03 4.1139571040696546e-04  -3.1185258355601432e-04 1.9173093359622479e-03 5.3753694638528234e-04  -3.6913154480970047e-04 2.2575805389144252e-03 5.6820149580822450e-04  -3.3914995357998089e-04 1.9981479280160703e-03 5.1610894069286219e-04  -2.8378770385972915e-04 1.8543169996010282e-03 6.5840803198652462e-04  -3.3797936465543245e-04 2.2023552172877273e-03 6.6920148813510679e-04  -3.0821077374497912e-04 1.9369957132142120e-03 6.2782130922513701e-04  -2.5066535566083288e-04 2.7001637693866150e-03 1.8289646092781731e-04  -2.4748626538253815e-04 2.8413952095671289e-03 2.4835259915406487e-04  -2.0743199331827393e-04 2.5907399856944613e-03 1.3947632754637105e-04  -2.2154617910663275e-04 2.5828516058884108e-03 2.4814222401839170e-04  -2.6099993795891322e-04 2.8424561808447794e-03 3.3427227527891564e-04  -2.6131040982329997e-04 2.6960445373263478e-03 2.8465686216170975e-04  -2.6967918067477250e-04 2.6841878193705829e-03 3.7917584546075413e-04  -2.7203079564839172e-04 2.8350726638786614e-03 4.1340642176663481e-04  -2.3322557937419425e-04 2.5682976046475085e-03 3.4970254578470977e-04  -2.7648103540566231e-04 2.6639613053719776e-03 4.6923154791853261e-04  -2.8129629225071728e-04 2.8185860585557914e-03 4.8794314118982119e-04  -2.4321788051855550e-04 2.5462370376411257e-03 4.4705561651798361e-04  -2.8224331750604609e-04 2.6341653463934395e-03 5.5769879908759235e-04  -2.8941407369963487e-04 2.7917377887055582e-03 5.6007118940372099e-04  -2.5231173745190549e-04 2.5155229641068717e-03 5.4341111997248674e-04  -2.8749697377853815e-04 2.5928847842449478e-03 6.4797198137979254e-04  -2.9696170802499285e-04 2.7524681778130322e-03 6.3225856993412975e-04  -2.6124075850419125e-04 2.4744247925529640e-03 6.4255987344603090e-04  -3.0469619878097933e-04 2.6982640386516558e-03 7.0692586688246475e-04  -2.9251805827860597e-04 2.5381478214755917e-03 7.4493548028801786e-04  -2.7094908387462891e-04 2.4209646669502553e-03 7.4956897383316476e-04  -1.7980389210496428e-04 1.4927489038288515e-03 -1.6285104844501343e-04  -1.7954530594047554e-04 1.4264957691573757e-03 -1.8847424939530139e-05  -1.7859702485871322e-04 1.3628378298352764e-03 1.1785212334696128e-04  -1.7727084241808764e-04 1.2999939144329542e-03 2.5206409971042403e-04  -1.7577637646246680e-04 1.2367766056556105e-03 3.8787763510433285e-04  -1.7432984545229853e-04 1.1724395421360131e-03 5.2857794646108086e-04  -1.7314092784798853e-04 1.1067579147422996e-03 6.7658970550077218e-04  -2.0206944315896862e-04 7.5644865108289664e-04 -5.9945883243477354e-04  -1.9782511088509079e-04 8.7102856396728491e-04 -4.8578448013469156e-04  -1.8154412691939674e-04 6.1376009593844456e-04 -6.5438703485421672e-04  -1.6617242896019876e-04 4.9419963321333795e-04 -6.0822532165553651e-04  -1.8183400220478992e-04 7.5255394960112006e-04 -3.9964552602671021e-04  -1.8498562343845055e-04 6.3478522305054116e-04 -5.3574526878646305e-04  -1.5034318422947233e-04 3.8734184700010740e-04 -5.5420309463946181e-04  -1.6607800756302915e-04 6.4555618262967986e-04 -3.1156740223001471e-04  -1.6772323778947650e-04 5.2597929444349442e-04 -4.6737494388159094e-04  -1.3355572568032604e-04 2.8789598871130720e-04 -4.9320133080960841e-04  -1.5001271422539287e-04 5.4554562166791326e-04 -2.2047357181883547e-04  -1.4972044350938590e-04 4.2468837889107427e-04 -3.9389702439864981e-04  -1.1551756820005946e-04 1.9268219661016821e-04 -4.2594543139245713e-04  -1.3321518391784680e-04 4.4933286860679878e-04 -1.2523188308739727e-04  -1.3054711635696818e-04 3.2752015626247749e-04 -3.1512637810775354e-04  -9.5997250208073603e-05 9.9580525774969981e-05 -3.5292954221687132e-04  -1.1542781137186980e-04 3.5484808799153192e-04 -2.5051888329486127e-05  -1.0987541733901931e-04 2.3234028428872368e-04 -2.3090544112963751e-04  -7.4902764860203095e-05 7.1619096323740415e-06 -2.7453866022812982e-04  -9.6494116790556611e-05 2.6057391869428341e-04 8.0709062707778114e-05  -8.7276041792117275e-05 1.3820978402835692e-04 -1.4082686465412899e-04  -3.6478165014517235e-04 1.5109481147362984e-03 -3.5100644624366269e-04  -3.7443395879696822e-04 1.6827312688676896e-03 -2.5418016527039845e-04  -3.2557143834463173e-04 1.3244737715396846e-03 -4.3314466329678463e-04  -2.9880905671422119e-04 1.2175594717763495e-03 -3.3347326364948374e-04  -3.4661820534688374e-04 1.6008911281800635e-03 -1.3375932073926902e-04  -3.3632471729581556e-04 1.4182205703225817e-03 -2.3946088373125120e-04  -3.0875838999411351e-04 1.3317615276959777e-03 -1.3333007712124117e-04  -3.1977333045701866e-04 1.5233043260188049e-03 -2.0445474096828282e-05  -2.7304821369190485e-04 1.1193807351492903e-03 -2.3597716653409539e-04  -2.8169137358871762e-04 1.2478232311986046e-03 -2.8282039115652613e-05  -2.9347733481335293e-04 1.4466957858993961e-03 9.0327654011637914e-05  -2.4763947986209046e-04 1.0253420163431354e-03 -1.3805281396244372e-04  -2.5464220843686712e-04 1.1638754029602619e-03 7.8984527822217534e-05  -2.6716497903293363e-04 1.3691669424437157e-03 2.0214262917553070e-04  -2.2202311481007991e-04 9.3279141032919215e-04 -3.7054695801708725e-05  -2.4040522914435493e-04 1.2892734587000873e-03 3.1811159600134961e-04  -2.2717874094698793e-04 1.0782221165875610e-03 1.9137377615526901e-04  -1.9569083865495336e-04 8.3969665984473345e-04 6.9457052705005083e-05  -1.9900362036298533e-04 9.8946163102002212e-04 3.1095436485743192e-04  -2.1291908115874232e-04 1.2054187658678656e-03 4.4126271128229423e-04  -1.6821102408900722e-04 7.4426289063129721e-04 1.8365122056022824e-04  -4.5396826288783039e-04 2.3430528445736306e-03 6.0599301453666818e-05  -4.3008392844704949e-04 2.3204312961745128e-03 1.7755052228137996e-04  -4.0685738584341847e-04 2.2919263638536405e-03 2.8586253577516838e-04  -3.8366472655833713e-04 2.2572732594786228e-03 3.8988675338961571e-04  -3.5970424034140690e-04 2.2156448596837778e-03 4.9358769362141527e-04  -3.3439309849383613e-04 2.1662043985908193e-03 6.0097509715476710e-04  -3.0729086313529798e-04 2.1087649698239589e-03 7.1638861219678793e-04  -2.5812604644184892e-04 2.6078696862540966e-03 6.2721110236229336e-04  -2.7302670995922547e-04 2.5555543597039518e-03 7.1698210181172519e-04  -1.3425691051183951e-04 2.6751713292100070e-04 -8.0734420281291738e-04  -1.3462648929067343e-04 3.4708074913482610e-04 -7.2566322623701478e-04  -1.2515982503343291e-04 1.8851906948581099e-04 -8.4968938609695913e-04  -1.1283633509238551e-04 1.0987071530840381e-04 -8.6432271782523995e-04  -1.2290011634784117e-04 2.4241280578525025e-04 -7.1565644639440002e-04  -1.2225208511067293e-04 1.7661389410384023e-04 -8.1417840398200132e-04  -1.0928001770462955e-04 9.2826065260382881e-05 -8.0615497509824022e-04  -1.1077831964275842e-04 1.4785233661551998e-04 -6.9232346752052165e-04  -9.9947303938630161e-05 3.8652353567446251e-05 -8.6324682240419717e-04  -9.5719194624906207e-05 1.4650349626913259e-05 -7.8706438831616457e-04  -9.8578278664949057e-05 5.9814717189861339e-05 -6.5895334795332109e-04  -8.6783792967794942e-05 -2.8539849008755788e-05 -8.5019535493726186e-04  -8.1596916808611758e-05 -5.9923310492894594e-05 -7.5938460488032009e-04  -8.6281424424895697e-05 -2.4097237142499702e-05 -6.1764648107785118e-04  -7.3527394525666371e-05 -9.3122993105121570e-05 -8.2769917390253581e-04  -7.4166721723427001e-05 -1.0582948522747015e-04 -5.6987525400133306e-04  -6.7007647798168423e-05 -1.3248832533210920e-04 -7.2472455246947115e-04  -6.0438628951152871e-05 -1.5615783719792573e-04 -7.9770906299023625e-04  -6.2456218594695648e-05 -1.8656719317632227e-04 -5.1627463447004426e-04  -5.1775227653147118e-05 -2.0447475817040814e-04 -6.8421648770067658e-04  -4.7675283391347471e-05 -2.1851102994044030e-04 -7.6294714048272478e-04  -4.0168811960719170e-04 1.7284564675787645e-03 -2.3867688750729915e-04  -4.3739441182304644e-04 1.9953872570646304e-03 -1.0436965210241135e-04  -4.0848248303742933e-04 1.9428566501600280e-03 1.6818740652573005e-05  -3.7262392152051104e-04 1.6551616851843908e-03 -1.1900024184923952e-04  -3.4451172992404952e-04 1.5844875878398932e-03 -6.5681234080312590e-06  -3.8058012872379301e-04 1.8894199064619732e-03 1.2974247170427611e-04  -3.1668590554539576e-04 1.5141049408150318e-03 1.0322717244201689e-04  -3.5294105300482189e-04 1.8334459026959314e-03 2.3895020983121369e-04  -3.2496223564092467e-04 1.7736385764844571e-03 3.4845097753742095e-04  -2.8872186932773233e-04 1.4422154624955175e-03 2.1433534096521419e-04  -2.9618778355406630e-04 1.7086391011930165e-03 4.6198083154590735e-04  -2.6038008514785659e-04 1.3669679313372848e-03 3.2997449724701323e-04  -2.3163275739528208e-04 1.2873363032577026e-03 4.5320941557019598e-04  -2.6642497492171001e-04 1.6380694329298008e-03 5.8290664454662008e-04  -1.7916745551668404e-04 7.4594480606658404e-04 -5.3612462496350295e-04  -1.6554029510527772e-04 6.2709448983488622e-04 -4.6078675007380724e-04  -1.5152669889056789e-04 5.2114534685387937e-04 -3.8211883553942620e-04  -1.3711849021744857e-04 4.2250189773078846e-04 -2.9898795064230903e-04  -1.2195605958868212e-04 3.2782321077355208e-04 -2.1094175077523579e-04  -1.0587734045376608e-04 2.3502418287097516e-04 -1.1780268711351492e-04  -8.8767156875993057e-05 1.4298749206077290e-04 -1.9710450008819572e-05  -1.7698109939993684e-04 2.2608769547164111e-04 -1.0796400774584652e-03  -1.8385776645752903e-04 3.3617304375580551e-04 -9.8237386950666386e-04  -1.6452629373131365e-04 1.9207931413442548e-04 -1.0552939938382640e-03  -1.5322212954717909e-04 1.3884131792743225e-04 -1.0911751437006143e-03  -1.7127060390199856e-04 2.5238589356872389e-04 -1.0014191372553132e-03  -1.6645697312905205e-04 1.6894531945621874e-04 -1.1154905972695544e-03  -1.3984342677309040e-04 8.9703246163458600e-05 -1.1095334398907406e-03  -1.5651540673933910e-04 1.7616465250943616e-04 -1.0046910026594868e-03  -1.5313348066212348e-04 1.1676335677329578e-04 -1.1335000360482947e-03  -1.2377671803866491e-04 4.2918970961552064e-05 -1.1144704793446365e-03  -1.3925978053654827e-04 1.0493919947441632e-04 -9.9583846275427042e-04  -1.3695676663054708e-04 6.7535745152286523e-05 -1.1383148200300370e-03  -1.0478919870758098e-04 -2.4408420450193784e-06 -1.1089942551552919e-03  -1.1922984327721122e-04 3.6761819451839036e-05 -9.7732936663030520e-04  -1.1770014064644217e-04 2.0143221829059079e-05 -1.1325769760147891e-03  -8.2593989146937996e-05 -4.6999308962129625e-05 -1.0952183917128174e-03  -9.6124486598791347e-05 -2.9782844246604328e-05 -9.5092059731348964e-04  -3.3198893234715480e-04 1.4848133581104373e-03 -3.2855495902500134e-04  -3.0589181973674021e-04 1.3894615702882210e-03 -2.1412733021929873e-04  -2.8105620228494499e-04 1.3003506440844093e-03 -1.0501393135200774e-04  -2.5661118287303406e-04 1.2143312084428232e-03 2.8872909443788580e-06  -2.3188085194658927e-04 1.1288696819038474e-03 1.1275950222919838e-04  -2.0640491925376985e-04 1.0421595723427454e-03 2.2737225495205696e-04  -1.7974048491603016e-04 9.5290401685821575e-04 3.4921304286863179e-04  -3.9299804319848817e-04 1.9132813664688307e-03 -1.1705089222676289e-04  -3.6655970177057158e-04 1.8547446881367227e-03 1.0679692490864255e-05  -3.4133227428636176e-04 1.7963039512233314e-03 1.3004582701395322e-04  -3.1646533718314245e-04 1.7361283880071810e-03 2.4603190523622047e-04  -2.9125877845692796e-04 1.6727217113972801e-03 3.6277593811122024e-04  -2.6528181760913043e-04 1.6049999219582851e-03 4.8389718305149465e-04  -2.3819029741422521e-04 1.5323767128695809e-03 6.1261928795246321e-04  -6.9876005395875851e-05 -1.3419600488503763e-04 -6.3599261159957734e-04  -6.0667171802035523e-05 -2.0914980305717320e-04 -5.8870949396102744e-04  -1.6993313778562705e-04 2.9217274434782854e-04 -9.6415494526917668e-04  -1.5701669436912722e-04 2.1203049126786700e-04 -9.8532930600859873e-04  -1.4224091780432797e-04 1.3871377282606757e-04 -9.9069461419132050e-04  -1.2531413742157641e-04 7.0238427464030604e-05 -9.8404248751669744e-04  -1.0591507117178304e-04 4.8385993531557518e-06 -9.6784620800181571e-04  -8.3764266424871822e-05 -5.8838433506197832e-05 -9.4388783878255819e-04  -5.8594488918217240e-05 -1.2207247730025022e-04 -9.1352160104794897e-04  -6.9614826735951645e-05 -9.5830749027041748e-05 -9.1785614005989835e-04  -5.7122211127075634e-05 -9.1123632916722058e-05 -1.0743726879588673e-03  -1.8583284858411257e-04 9.1449148367979535e-04 -4.4351238678257653e-04  -1.9604720343549648e-04 1.1664151040648718e-03 -2.9795553234623256e-04  -1.7318246027039821e-04 9.0421677271248656e-04 -4.0859342068630020e-04  -1.6292151809449941e-04 7.9236488501723565e-04 -3.0650911237656937e-04  -1.8543653633397217e-04 1.0689713667887098e-03 -1.7294412312525071e-04  -1.7315278921088646e-04 8.0031223100251125e-04 -3.4485468483941729e-04  -1.5274300616698435e-04 6.9238496953880698e-04 -2.0504563321062019e-04  -1.7516639618964794e-04 9.7995048179536125e-04 -5.1981682389637387e-05  -1.6060359443462676e-04 6.9752283441839300e-04 -2.4749997439979396e-04  -1.4239302007969427e-04 5.9911364138925851e-04 -1.0158051298141738e-04  -1.6475337596546610e-04 8.9521797789588484e-04 6.8557988268107988e-05  -1.4778660093457029e-04 6.0165950774041757e-04 -1.4800733446531514e-04  -1.3171584436504972e-04 5.0930874062624424e-04 5.5778306914245192e-06  -1.5402137335023350e-04 8.1246329559995058e-04 1.9159758283757069e-04  -1.3447879647249611e-04 5.0951530947948868e-04 -4.4916933252348232e-05  -1.2064404693851523e-04 4.2102449331901480e-04 1.1744365670748560e-04  -1.4283939352711071e-04 7.3018507817634631e-04 3.1923364881994215e-04  -1.2050067521478028e-04 4.1903429114054964e-04 6.2755418302459190e-05  -1.0906588320928789e-04 3.3313512288120649e-04 2.3478313067030169e-04  -1.3111908538617915e-04 6.4737094724914011e-04 4.5289209879840971e-04  -1.0561896661910573e-04 3.2927916676759239e-04 1.7595653847185503e-04  -1.5685334316556352e-04 8.5887692026388913e-04 -4.0023054869280068e-04  -1.4946200411760261e-04 7.4830866400655963e-04 -2.9806777311876638e-04  -1.4198996399358775e-04 6.5071956189450197e-04 -1.9569060362795995e-04  -1.3452804913471563e-04 5.5974398127360862e-04 -9.0874500531001315e-05  -1.2709950203178248e-04 4.7212182850726295e-04 1.7960763133486641e-05  -1.1980079816360618e-04 3.8591866825328497e-04 1.3174677172926772e-04  -1.1268513777462161e-04 2.9989229696323304e-04 2.5076343894139358e-04  -3.5184861201347108e-04 2.8632972104259535e-03 5.0674627356332843e-04  -3.2816169333528230e-04 2.6939378357076996e-03 4.8202286546582246e-04  -3.1717198802946514e-04 2.8399641732986501e-03 4.9621197370487106e-04  -3.2993011322299780e-04 2.7145956576693159e-03 3.9339223552010191e-04  -3.1980592456537147e-04 2.8134949367971383e-03 5.6790626909341971e-04  -3.4896668743839964e-04 2.8364140168449254e-03 5.7579263342007929e-04  -3.2524844499555623e-04 2.6632555908139544e-03 5.6894138421830626e-04  -3.3876169378972432e-04 2.7415645581408757e-03 7.1525514033154254e-04  -3.1504165081673564e-04 2.5645979113228905e-03 7.5256974110275514e-04  -3.2241792790720065e-04 2.7200502209620940e-03 7.1280764373560593e-04  -3.2100615578328046e-04 2.6208973306754320e-03 6.5760219774054418e-04  -1.3972342152887600e-04 7.3057251744741442e-04 -2.9224817137658724e-04  -1.3425784201543159e-04 6.3058951315643323e-04 -1.9345843150467835e-04  -1.2893871686601348e-04 5.3758741917343670e-04 -9.2093392029466399e-05  -1.2387212716383745e-04 4.4830550682852893e-04 1.3391071933597440e-05  -1.1930045499739393e-04 3.6071846876766368e-04 1.2399110029959279e-04  -1.1551552015373465e-04 2.7335365360276875e-04 2.4009852950497430e-04  -3.2992669225533490e-04 2.7294774149567787e-03 1.9915282033652472e-04  -3.0089484666436872e-04 2.8601529674214744e-03 2.5677607588128022e-04  -2.7489373954463279e-04 2.6194268656222347e-03 1.5241519785196412e-04  -2.8075690937890308e-04 2.6119793833567322e-03 2.6225239541384054e-04  -3.0798275470917140e-04 2.8623138887782684e-03 3.4264779292465222e-04  -3.3057581381406063e-04 2.7262449138829772e-03 3.0006180923866351e-04  -3.1332742207313964e-04 2.8558724229915968e-03 4.2183679686530099e-04  -2.8488623925012897e-04 2.5969113868014645e-03 3.6466779445504135e-04  -2.8768830593050090e-04 2.5737266156848002e-03 4.6253979832409968e-04  -2.8944283820672305e-04 2.5413160710494884e-03 5.5931724734762961e-04  -3.2148203283289384e-04 2.7746200029048823e-03 6.3924923349329343e-04  -2.9036634383401374e-04 2.4981226863155714e-03 6.5894991931753067e-04  -2.9073549650244400e-04 2.4427875970106706e-03 7.6633138310215133e-04  -2.5772551160957815e-04 1.5704932021897834e-03 -1.8268371247600178e-04  -2.4635967103827695e-04 1.6782416176307452e-03 -1.3660138903512557e-04  -2.2451276648897890e-04 1.3182044700028863e-03 -2.6863068889935472e-04  -2.1042683345001543e-04 1.2310456087679209e-03 -1.3451742663388251e-04  -2.3615306343561859e-04 1.6157378328910145e-03 8.4500025122871486e-06  -2.4298241168241487e-04 1.4980392195206166e-03 -4.1520602651663872e-05  -1.9781394339337411e-04 1.1505119762782285e-03 -6.8707958455632562e-06  -2.2643178741396850e-04 1.5544949801515908e-03 1.4474883859043967e-04  -2.2914529171582865e-04 1.4289368643611276e-03 9.1739557610808056e-05  -1.8533212431088105e-04 1.0733147938343619e-03 1.1944011518527153e-04  -2.1675297353557652e-04 1.4928487942609161e-03 2.7784714701424692e-04  -2.1547838408915156e-04 1.3606736565425770e-03 2.2226949463750742e-04  -1.7256747587243417e-04 9.9720173205872296e-04 2.4779060444109896e-04  -2.0677298858444594e-04 1.4296316520586655e-03 4.1202129158641744e-04  -2.0150538099975520e-04 1.2916622064868140e-03 3.5415031243599365e-04  -1