<?xml version="1.0"?>
<VTKFile type="UnstructuredGrid"  version="0.1"  >
<UnstructuredGrid>
<Piece  NumberOfPoints="954" NumberOfCells="4145">
<Points>
<DataArray  type="Float64"  NumberOfComponents="3"  format="ascii">9.850904131524921 1.726167302335155 1.972525638251317  9.785862974126916 1.704290192205449 2.060348973913038  9.743653944885722 1.741221562775228 1.926235500715024  9.745710942871922 1.689070311403944 1.905148269550998  9.788294721499913 1.649847979094624 2.047600987877935  9.852769098464083 1.672618769854572 1.954379391535095  9.747413444386536 1.637094312977516 1.88392284478203  9.790393154289985 1.595497590353434 2.034708245426453  9.854272599228427 1.619233802518522 1.936086367950948  9.748960623362205 1.585257961770524 1.862666780181131  9.792338479432409 1.541230487075422 2.021754424982781  9.855626611213973 1.565962787418255 1.917752196858533  9.750487319257227 1.533537567432861 1.841448894290203  9.794268317971765 1.487040345715662 2.008809139285025  9.856989129320263 1.512791439262414 1.899453812218128  9.7521381424219 1.481936643957248 1.820341185946113  9.796326880444138 1.432926174175502 1.995938943202618  9.858525337076911 1.459750322903204 1.88127882878612  9.754181940178542 1.430461322892599 1.799423443878255  9.798727547669129 1.378920320959055 1.983236308289197  9.860476322490655 1.40680823913118 1.863274904020841  8.895410063286967 1.533073795375506 2.265189620919304  8.829261961723663 1.519893364385529 2.351681881466638  8.785000649550204 1.508458591726102 2.218545167109312  8.800138778550526 1.452216962157738 2.214968025306426  8.84276415532578 1.464248753174139 2.354287853381695  8.909984542888278 1.477565453090246 2.262031543868289  8.8155917200756 1.396087273595136 2.211255137808454  8.856529518938723 1.408691026331007 2.356782764915007  8.924843985216095 1.422206698563671 2.258761701886309  8.831149601338334 1.340031352806665 2.207501496078323  8.870393481855743 1.353186757890479 2.359228118293865  8.939799469174652 1.366947694228204 2.255442227247299  8.846670433621679 1.284015247224772 2.203756867934394  8.884231833523902 1.297712513586374 2.361671956906095  8.954718633314984 1.311758280090648 2.252127783833031  8.862013279833953 1.227993731037308 2.2000715179152  8.897914283709735 1.24223943976896 2.364160189416463  8.96944191281813 1.256618725266207 2.248876616353454  8.876981943354807 1.171868364188725 2.196514999487009  8.911268026980755 1.186724861634997 2.366749582668999  8.983718650333959 1.201448954758979 2.24573256702803  9.032859261027092 1.652487851683533 1.886084267880581  9.017255972096189 1.617692023750645 1.986971295186179  8.908329320417753 1.620291473448971 1.891734035138775  8.921148339019815 1.567725453908666 1.869438842538521  9.028753353487362 1.564015512433149 1.970094573748742  9.045215752327346 1.60120136991791 1.862382756492755  9.057675126896557 1.550139964589735 1.838613264785015  9.040331634885572 1.510552373372666 1.95310964182216  8.93408116757205 1.51541683638344 1.847062371321303  9.070155636989861 1.499268144743736 1.814845585270473  9.051945848609538 1.457248358021274 1.936075301526091  8.947049461692361 1.463279577545841 1.82467299682304  9.082588305273614 1.448533837584026 1.791138014135962  9.063530966643663 1.404053000410836 1.919050725818988  8.959964377218522 1.411266560454347 1.802330296507852  9.094876228116304 1.397897838185491 1.767564138109118  9.075010867911097 1.35093461086047 1.902098750499668  8.97271801693951 1.359353536991356 1.780100356748482  9.086312599977925 1.297901997065273 1.885339600912399  9.106869646813966 1.347328117143821 1.744178814351769  8.985238674543698 1.307508624112989 1.758050937192706  8.791144904307437 1.545604317955716 2.021772746149184  8.808127409472743 1.527651683989079 2.115788215630238  8.696556422571053 1.495874613119582 2.096560907396565  8.711585913310445 1.438934281303991 2.086198240119265  8.825291630610813 1.472463323599591 2.106290869508111  8.807982098773286 1.491561696512089 2.005429055362284  8.825202590351054 1.437721924929501 1.988988754555877  8.842887932774554 1.417460238915369 2.096675681493565  8.726903355846202 1.382095297451204 2.075733694993439  8.842553920453717 1.3840059835708 1.972515045157183  8.860618015586786 1.362561259663163 2.087023558297969  8.742281535472896 1.325340422873819 2.065251022393002  8.859872052119004 1.330359988674701 1.956061586771367  8.878311127574189 1.307722726974787 2.077382979059333  8.757594619072249 1.268626324949081 2.054787955691678  8.876977027386342 1.276734235151221 1.939677662129262  8.895782313697268 1.252894956259735 2.067796288894749  8.772717118903651 1.211895784906056 2.044375085351681  8.912704733459 1.197935442170935 2.05830247164195  8.893543862395031 1.223004590373194 1.923406525816131  8.787558472290076 1.155023633801119 2.034047715703407  9.553213561971107 1.692242699470965 2.639569533554867  9.424701910508393 1.662423639804791 2.589161249319794  9.528409903984603 1.670580408474905 2.539473647540267  9.536711966467877 1.617831103271958 2.547952938444555  9.432785009215388 1.610125665712554 2.600180355191136  9.440870852430967 1.557862730038447 2.61106941567902  9.570035501171018 1.590233652626806 2.66929588324331  9.545017570771412 1.565134472277366 2.55632516033529  9.578444181143873 1.53930262850067 2.684055724145317  9.448951915157117 1.505644631339751 2.621889858043449  9.553312080189311 1.512481249081644 2.564633768560185  9.457019080937155 1.453474743461292 2.632687171475329  9.586837609042124 1.488437148764276 2.698785212298447  9.561594050334447 1.459882916295616 2.572916916339095  9.595209206964054 1.437646002129307 2.713515477497376  9.465056302883493 1.401386510885865 2.643502585752632  9.569866883757101 1.407344929642711 2.581212290080458  9.60353357279309 1.386910975642145 2.728275697480514  9.473062653760827 1.349380402070583 2.654389309961248  9.578090951448065 1.354916243976923 2.589567313902493  8.952552180600316 1.674521558992057 1.810109828037727  8.965119359282856 1.625553485336471 1.78132999236262  8.977778795383697 1.576848257142393 1.752519332935649  8.990468153276487 1.528325512211932 1.723726735232266  9.003109629622639 1.479916817520843 1.695004460827157  9.015616716150358 1.431575397143186 1.666411165809669  9.027886802143085 1.383244364305581 1.63796911507823  9.655160610237006 1.709022048422219 1.996653000289306  9.659374952347672 1.655708415607704 1.97949105198973  9.663382023678983 1.602588250176682 1.962240024513025  9.667271371402055 1.549611210093714 1.944950990749685  9.671142944571992 1.496769145444005 1.92769363001828  9.675099032984043 1.444094022060986 1.910552712124481  9.679223797452762 1.391609822749392 1.893596706991846  8.701524779605267 1.488457829763067 2.345573758274285  8.715349401346078 1.431900520465533 2.347482997708925  8.729430591955243 1.375378781185662 2.349334663214615  8.743595745268561 1.318881101916643 2.351160754731516  8.757732769472925 1.262390674130226 2.352995440824552  8.771737565159244 1.205881948831158 2.354870773403977  8.785455280787854 1.14928419978062 2.356810954340567  8.683821600419437 1.528885469873788 1.972135238911996  8.70048526055605 1.474071785583662 1.954427388570169  8.717503145740274 1.419407825529247 1.936607704445598  8.734625136573895 1.364832040946842 1.918768979649217  8.751698221661595 1.310299532776721 1.9009525457966  8.768575316611347 1.255747461624566 1.883185721895296  8.785061925871029 1.20104744983427 1.86548063836023  9.409877606585853 1.693143319431934 2.705364267881262  9.41830148626337 1.643382968073219 2.723074582575824  9.426759377885492 1.593637514868357 2.740687860703411  9.435227025009036 1.543922334411281 2.758244459305654  9.443678852163966 1.494242886421793 2.775774962700814  9.452094264296669 1.444605793396784 2.793305881439113  9.460455404707185 1.395017150803877 2.810881404730827  8.649345434657546 1.475232078862941 2.233320094402868  8.662698331538394 1.417576709224019 2.231401499013713  8.676291979030928 1.359924844263116 2.229399063284017  8.689963856524876 1.302291421729903 2.22736839890816  8.703605343142385 1.244658506842035 2.225350133361306  8.717118931892323 1.18698895076725 2.223380950372234  8.730400363340063 1.129212213803414 2.221498472413535  8.850413022153806 1.677329841143954 1.764828742562877  8.86393988667254 1.628944364317155 1.734656388380148  8.877589831439293 1.580822697384188 1.70443031363279  8.891287483528442 1.53286523396768 1.674220485642651  8.904938346217424 1.484991518253794 1.644071717520668  8.918442781135946 1.437128319315104 1.614020603647439  8.931683389801078 1.389267086620534 1.58414478640801  8.792711343228348 1.519035826489619 2.461228307255782  8.806734662091706 1.464308487888947 2.469386920907647  8.821055506917544 1.409653171102029 2.477462389916659  8.8354665144586 1.355043717973736 2.485498847948096  8.849841447398017 1.300461825702283 2.493537002258924  8.864040391419898 1.245885015003872 2.501617666408571  8.877850159991912 1.191235900488612 2.509790942097785  9.455729162562173 1.646105963844305 2.464703142038327  9.464202602823393 1.592590364371161 2.471546069851397  9.472686183476823 1.539142316260526 2.478234770982697  9.481161283249062 1.485769000797393 2.484847534371221  9.489616197275218 1.432473919937024 2.49143624068977  9.498033816251059 1.379274836391083 2.498048883372434  9.506391484799247 1.326172948983275 2.504752066561282  8.645719598915454 1.234714987407378 2.362366684654659  8.657558182537642 1.177008255315698 2.365457033079744  8.669278155297738 1.119222596081533 2.368604329828679  8.781075028593344 1.618105703770391 1.833016581986809  8.752879612485351 1.682959803461145 1.700281860557841  8.766631400483035 1.637067907472023 1.664894461659077  8.796550113533137 1.567539026072166 1.806477044136587  8.780477673391578 1.591458368555262 1.629480699635779  8.812240991359754 1.517236678734093 1.779859679021179  8.794344124129138 1.546023220420082 1.594143985518741  8.82801808533835 1.467092167352405 1.753241025798421  8.808133697630836 1.500683798653075 1.55890
[...]
<PointData  Vectors="f_24"> 
<DataArray  type="Float64"  Name="f_24"  NumberOfComponents="3" format="ascii">-2.3882563170171758e-02 -1.0629249227013179e-01 -3.2309190358295811e-02  -2.2137341850559371e-02 -1.0856512742606546e-01 -2.7494454250096390e-02  -2.3166410739133551e-02 -1.0568691391155148e-01 -3.3016911400346592e-02  -2.3497572394070600e-02 -1.0417710120779988e-01 -3.2306821400541176e-02  -2.2310850277222107e-02 -1.0685388185442168e-01 -2.7813042319845143e-02  -2.4078113813807749e-02 -1.0467849841065643e-01 -3.2010694336657410e-02  -2.3789805254657504e-02 -1.0307258111403145e-01 -3.1718726034069590e-02  -2.2471814707444429e-02 -1.0551203384120547e-01 -2.8103117554264530e-02  -2.4262326034519471e-02 -1.0348501193290895e-01 -3.1804759609117945e-02  -2.4064081631739152e-02 -1.0228367129317653e-01 -3.1259099506083535e-02  -2.2623741392926167e-02 -1.0448756639783977e-01 -2.8427732337845391e-02  -2.4439604317694343e-02 -1.0260214324772748e-01 -3.1687298618485814e-02  -2.4330253067943366e-02 -1.0175749038026929e-01 -3.0907620929801868e-02  -2.2768745071984235e-02 -1.0372170921475063e-01 -2.8827961951181244e-02  -2.4614988721073237e-02 -1.0197864037414778e-01 -3.1663369325792251e-02  -2.4596022532976422e-02 -1.0146576793222908e-01 -3.0655061721434732e-02  -2.2911488435040900e-02 -1.0317814208389041e-01 -2.9334029020560624e-02  -2.4794815768124350e-02 -1.0158674588675547e-01 -3.1739656869330092e-02  -2.4872137506030574e-02 -1.0139626329457320e-01 -3.0509142561473131e-02  -2.3055823799107058e-02 -1.0283328862326140e-01 -2.9981751017364167e-02  -2.4985898418508731e-02 -1.0140598608529028e-01 -3.1921076836931961e-02  -1.0778160302435860e-02 -1.1628898915914010e-01 -2.2879397731238363e-03  -9.1223924575371644e-03 -1.2039133884694743e-01 2.2105244440584165e-03  -1.0473548256991089e-02 -1.1463322069264588e-01 -1.5513222165613239e-03  -1.0800318666177037e-02 -1.1298706422786040e-01 -3.7391012482363368e-03  -9.0879439572530488e-03 -1.1909607815837027e-01 -3.4831791532304246e-04  -1.1028382779645641e-02 -1.1472560408799141e-01 -4.4282363353652533e-03  -1.1029219109980858e-02 -1.1165662150292702e-01 -5.7842838572209412e-03  -9.0026707653177006e-03 -1.1800303760480681e-01 -2.7122353476570862e-03  -1.1191120310761641e-02 -1.1344345642501442e-01 -6.4799131458557029e-03  -1.1185390493475403e-02 -1.1058154307412758e-01 -7.7927638100290658e-03  -8.8702502149594093e-03 -1.1708516327833812e-01 -5.0041657389623016e-03  -1.1292142165166587e-02 -1.1237226914729286e-01 -8.4893989101466321e-03  -1.1279284866322330e-02 -1.0971929763064189e-01 -9.8337763024788812e-03  -8.6977484883003914e-03 -1.1632301448359371e-01 -7.3087120937660836e-03  -1.1342901968869881e-02 -1.1148815523983992e-01 -1.0518012431397441e-02  -1.1314451589022445e-02 -1.0904274133619060e-01 -1.1962738902111331e-02  -8.4898228485340479e-03 -1.1570694148026414e-01 -9.6928936029206051e-03  -1.1346781902442480e-02 -1.1078030279212378e-01 -1.2615363776230643e-02  -1.1286261761920498e-02 -1.0853763733802184e-01 -1.4231095427066581e-02  -8.2502480511798554e-03 -1.1522772326906777e-01 -1.2209928575369714e-02  -1.1301918650540803e-02 -1.1026260683017393e-01 -1.4816670235237289e-02  -1.5793294957269242e-02 -1.0312820983850521e-01 -1.9748717157492383e-02  -1.4790863707997749e-02 -1.0613053291659898e-01 -1.4961449874692006e-02  -1.4702328195900583e-02 -1.0270721651399732e-01 -1.6348253580492241e-02  -1.5833607424261591e-02 -1.0110279517133094e-01 -1.6227769717349322e-02  -1.5636655628858995e-02 -1.0438392818414549e-01 -1.5385178340928861e-02  -1.6881688142705048e-02 -1.0161327093511066e-01 -1.9359780896001804e-02  -1.7868164508709712e-02 -1.0055659404166638e-01 -1.9127837321734998e-02  -1.6406347663985646e-02 -1.0300370630971570e-01 -1.5806182289946024e-02  -1.6855206266641005e-02 -9.9951288967221344e-02 -1.6212925711819957e-02  -1.8770217691081368e-02 -9.9828281353590523e-02 -1.9028918949992632e-02  -1.7100791682172017e-02 -1.0196721425520749e-01 -1.6278912073925518e-02  -1.7781947522022730e-02 -9.9122904354268931e-02 -1.6325509445737477e-02  -1.9601244454599945e-02 -9.9368911888717812e-02 -1.9041207758583843e-02  -1.7720068312084940e-02 -1.0120960194033191e-01 -1.6846426122311003e-02  -1.8621706941671878e-02 -9.8568008991445175e-02 -1.6559986501405961e-02  -2.0364999986975919e-02 -9.9152647827577323e-02 -1.9154171828930484e-02  -1.8273193929671319e-02 -1.0069274846776075e-01 -1.7526012620449390e-02  -1.9383788196262946e-02 -9.8259830913485890e-02 -1.6910884170900461e-02  -1.8776112979726249e-02 -1.0039185693359452e-01 -1.8330733790814922e-02  -2.1063288476510282e-02 -9.9175921873125739e-02 -1.9363096113707248e-02  -2.0081037497891575e-02 -9.8192387240745818e-02 -1.7377089432740161e-02  -1.2706698265452581e-02 -1.0658735636124622e-01 -8.7383890520622357e-03  -1.1880067658757563e-02 -1.1026685941684548e-01 -5.6869687445147230e-03  -1.1355456803598790e-02 -1.0944227170808186e-01 -3.9972987476517884e-03  -1.1979893425054920e-02 -1.0754863156237365e-01 -5.6693002391230108e-03  -1.2531161250289163e-02 -1.0845737305248206e-01 -7.2336454251621576e-03  -1.3639796775241256e-02 -1.0475413734094477e-01 -9.6871525366957097e-03  -1.4414364123400959e-02 -1.0327145824505747e-01 -1.0743447203218945e-02  -1.3037974783722884e-02 -1.0703223416932521e-01 -8.7796467711841290e-03  -1.2467885583230857e-02 -1.0609776881023768e-01 -7.3233706009612392e-03  -1.5086928014219738e-02 -1.0210973973601364e-01 -1.1856199861963816e-02  -1.3454776093700539e-02 -1.0589604786731910e-01 -1.0346216600352455e-02  -1.2876617902800827e-02 -1.0495532440063340e-01 -8.9976313149386922e-03  -1.5674638858698395e-02 -1.0122910341196954e-01 -1.3034278517783264e-02  -1.3796451911418749e-02 -1.0500357313806150e-01 -1.1963823462201373e-02  -1.3210785786083196e-02 -1.0406130244856844e-01 -1.0730142077834006e-02  -1.6179822762693054e-02 -1.0059326647559670e-01 -1.4292634728620284e-02  -1.4065541637233213e-02 -1.0432596077507365e-01 -1.3662650947346195e-02  -1.3469668390901602e-02 -1.0338082385098935e-01 -1.2553939758072306e-02  -1.4251486166846836e-02 -1.0384483456200991e-01 -1.5471529023771979e-02  -1.6595895295388172e-02 -1.0017099595617791e-01 -1.5636657144549936e-02  -1.3651498523396142e-02 -1.0289377187526375e-01 -1.4498267838516626e-02  -1.2859062419179496e-02 -1.2626037319986866e-01 -2.9394692946467303e-03  -1.2032634031114731e-02 -1.2593393096214398e-01 -1.7788029620192413e-03  -1.3729441882845630e-02 -1.2381489886189549e-01 -5.3438791805331008e-03  -1.3278078392114109e-02 -1.2315146546330218e-01 -7.2007478759261090e-03  -1.1438296140826585e-02 -1.2539667921517794e-01 -3.6640229502489692e-03  -1.0850534262893072e-02 -1.2480595564705592e-01 -5.3296304330007855e-03  -1.1424974328423973e-02 -1.2543116426850118e-01 -5.8454950191892101e-03  -1.2811557934872068e-02 -1.2247431742865493e-01 -8.9007994194742132e-03  -1.0733457581755711e-02 -1.2484630470093630e-01 -7.1250501482548207e-03  -1.0273039597979480e-02 -1.2417747367407105e-01 -6.9128452726911534e-03  -1.2344034826842636e-02 -1.2179719070496409e-01 -1.0516391742761887e-02  -9.7067585825265992e-03 -1.2353949757555227e-01 -8.5361249391459580e-03  -1.0070697792351032e-02 -1.2419990567807124e-01 -8.4791670786269029e-03  -1.1886324835552903e-02 -1.2114454871520956e-01 -1.2148090346574372e-02  -9.4414125705845463e-03 -1.2355569295764343e-01 -9.9971073771447407e-03  -9.1583485099516419e-03 -1.2292650908144208e-01 -1.0276543481460476e-02  -1.1442222594375396e-02 -1.2053112668344214e-01 -1.3876545797311641e-02  -8.8213790805542272e-03 -1.2302724239918253e-01 -1.1712329671928610e-02  -8.6153679874312189e-03 -1.2235494002299981e-01 -1.2195886128867650e-02  -1.1028223933630361e-02 -1.1993745286397202e-01 -1.5739146819882453e-02  -1.5472860011522436e-02 -1.0082938973087162e-01 -2.1529634098601012e-02  -1.6791048026357492e-02 -9.9662710205731572e-02 -2.0650520376798171e-02  -1.7987101342354449e-02 -9.8846839129685879e-02 -2.0029187208721294e-02  -1.9090678452557887e-02 -9.8345820961673380e-02 -1.9595475745044229e-02  -2.0116770585442399e-02 -9.8113375420795998e-02 -1.9291074388666368e-02  -2.1078282651132978e-02 -9.8130245624058851e-02 -1.9078804993688477e-02  -2.1985480348070463e-02 -9.8383828148016952e-02 -1.8925045719662484e-02  -2.1413968426110538e-02 -1.0711222784502823e-01 -2.8189056678102415e-02  -2.1771697665026523e-02 -1.0545785978854308e-01 -2.8004174419740593e-02  -2.2079686046135309e-02 -1.0420677051417580e-01 -2.7907022209917400e-02  -2.2372503867397149e-02 -1.0326959644032344e-01 -2.7887587341795198e-02  -2.2649502767070048e-02 -1.0259518484183042e-01 -2.7959588969414587e-02  -2.2912391224474259e-02 -1.0215303598932005e-01 -2.8135624505219142e-02  -2.3160910908542699e-02 -1.0192499332684488e-01 -2.8425402219066257e-02  -8.2205044338413587e-03 -1.2072432740679895e-01 4.3556064087443887e-03  -8.1589249509285925e-03 -1.1938070859994550e-01 1.6589403109233667e-03  -8.0477569642319561e-03 -1.1822899986475192e-01 -9.1155917216738044e-04  -7.9018469360866948e-03 -1.1726880155387598e-01 -3.4023667504786115e-03  -7.7187222497050404e-03 -1.1647451971998146e-01 -5.8960638931539527e-03  -7.4967328140961567e-03 -1.1582827235449780e-01 -8.4543270440797912e-03  -7.2347248851327732e-03 -1.1530262511035194e-01 -1.1115453459150361e-02  -1.2549427946275350e-02 -1.0457657158436245e-01 -8.0142813309615948e-03  -1.3524839789270111e-02 -1.0269949807841301e-01 -8.8720495313774558e-03  -1.4364846288503997e-02 -1.0123326008871267e-01 -9.8267351137468918e-03  -1.5102449050460142e-02 -1.0011702407899592e-01 -1.0873327519714159e-02  -1.5751031337480813e-02 -9.9289460780717334e-02 -1.2009403498913572e-02  -1.6313443100248470e-02 -9.8704383688799482e-02 -1.3240387590165457e-02  -1.6787413518527833e-02 -9.8320017118010306e-02 -1.4578858501770233e-02  -1.0677143722723693e-02 -1.2904866120814285e-01 1.8607884515707302e-03  -9.7706513251813697e-03 -1.2885577418380489e-01 4.3927306035368874e-04  -8.8952013388815723e-03 -1.2842414762916007e-01 -7.4425550203791122e-04  -8.0590212919563180e-03 -1.2782952240148651e-01 -1.8685493931549027e-03  -7.2571982497858165e-03 -1.2713383160576136e-01 -3.0663359122850829e-03  -6.4819765366180152e-03 -1.2639951887862710e-01 -4.4459372656425206e-03  -5.7275303233625657e-03 -1.2570642851261615e-01 -6.0923363074614637e-03  -9.3978322972196379e-03 -1.1579089537349795e-01 1.7144409849817418e-03  -9.5151882966984375e-03 -1.1420578247716733e-01 -7.5627663409854316e-04  -9.6046318623184378e-03 -1.1290265053183858e-01 -3.0660449611849059e-03  -9.6486807688802682e-03 -1.1185019251329431e-01 -5.3245896334634564e-03  -9.6401726474006546e-03 -1.1100729986926726e-01 -7.6100100672570762e-03  -9.5709159154919055e-03 -1.1034325947341342e-01 -9.9814336870333257e-03  -9.4309759247589754e-03 -1.0983937742185450e-01 -1.2486371992267434e-02  -1.4833749506862580e-02 -9.9044746405464457e-02 -2.1130061442728450e-02  -1.6274841635908741e-02 -9.8021321548121002e-02 -2.0090484332889052e-02  -1.7608708732137567e-02 -9.7356710494195323e-02 -1.9324934150485296e-02  -1.8839754476758407e-02 -9.6974956207022539e-02 -1.8785573985914270e-02  -1.9985011267599086e-02 -9.6841049262156129e-02 -1.8399556823388431e-02  -2.1056734967496497e-02 -9.6946208131167888e-02 -1.8114943757743286e-02  -2.2064032636846937e-02 -9.7301564886137545e-02 -1.7905424276488804e-02  -7.4013457223521843e-03 -1.2539913134616565e-01 6.6034647912642666e-03  -7.0678585213018305e-03 -1.2446138388224491e-01 3.8192046551222582e-03  -6.6932138349146556e-03 -1.2365285448533726e-01 1.2488547889834194e-03  -6.3014505734313442e-03 -1.2293184210026836e-01 -1.2252856094575896e-03  -5.8940865445857478e-03 -1.2229691787855569e-01 -3.7118579457612578e-03  -5.4691990640257301e-03 -1.2176443578190545e-01 -6.2997872213684325e-03  -5.0184020542886733e-03 -1.2138039111338120e-01 -9.0482198668694006e-03  -1.3861472774059859e-02 -1.2185495016313870e-01 -6.4098586953583352e-03  -1.3523548569902301e-02 -1.2098769402809419e-01 -8.3948061240186993e-03  -1.3167753857323225e-02 -1.2018902723627442e-01 -1.0150342083011731e-02  -1.2805588635979219e-02 -1.1946110502353872e-01 -1.1819995360828364e-02  -1.2440413528202113e-02 -1.1880643201583495e-01 -1.3508124738887009e-02  -1.2074510861907924e-02 -1.1822729116328733e-01 -1.5299870289636884e-02  -1.1714815912262755e-02 -1.1772862487219235e-01 -1.7273174079331422e-02  -6.5698668508048013e-03 -1.1752619963778134e-01 -4.2671144837332494e-03  -6.2664525180253774e-03 -1.1691608004113255e-01 -6.9560752970069103e-03  -5.9086563991529615e-03 -1.1643704773167290e-01 -9.7675742336103197e-03  -1.4069962310268667e-02 -1.0036008838867150e-01 -1.5902417441066605e-02  -1.4465534362182087e-02 -9.6544907827354531e-02 -2.1279260813433096e-02  -1.6106979531848448e-02 -9.5839341930640920e-02 -2.0067011655748083e-02  -1.5431238301996612e-02 -9.8904385938338391e-02 -1.5574380192980948e-02  -1.7598476602372199e-02 -9.5471589222514169e-02 -1.9223447952888745e-02  -1.6651089851986815e-02 -9.7828022937590284e-02 -1.5420854620368097e-02  -1.8990750370158800e-02 -9.5331375349380479e-02 -1.8624855496236346e-02  -1.7762368981498130e-02 -9.7090253927963749e-02 -1.5425148751545539e-02  -2.0303587221392520e-02 -9.5413431707367921e-02 -1.8159727821066399e-02  -1.8779016562750602e-02 -9.6638729485429439e-02 -1.5561938651880092e-02  -2.1544965548846096e-02 -9.5743330504860072e-02 -1.7767263028543433e-02  -1.9709461084011441e-02 -9.6442465391707255e-02 -1.5808362229870542e-02  -2.2728021335307495e-02 -9.6346227511475452e-02 -1.7411044144450966e-02  -2.0541146204698560e-02 -9.6482701021718242e-02 -1.6149101462159456e-02  -6.4785123818862584e-03 -1.2596881200822438e-01 8.5087167848982414e-03  -6.0854817074256036e-03 -1.2505218024915526e-01 5.6162064001786735e-03  -5.2127357260268086e-03 -1.2361628661526378e-01 3.0954320670034322e-04  -4.7539126088999174e-03 -1.2303519733430293e-01 -2.3195984521483417e-03  -4.2724330169305307e-03 -1.2256010746447613e-01 -5.0532181351440062e-03  -3.7577277204885627e-03 -1.2223877988134836e-01 -7.9445828099855530e-03  -2.2622549781768562e-02 -1.0478830038304279e-01 -3.4649607381413233e-02  -2.3095610733463705e-02 -1.0355839555543456e-01 -3.3432517982426628e-02  -2.3531983837801775e-02 -1.0267339418510152e-01 -3.2429186263416974e-02  -2.3939819226673660e-02 -1.0208136960775827e-01 -3.1602007783756429e-02  -2.4330817100917793e-02 -1.0173965164065683e-01 -3.0905734634413817e-02  -2.4710626790519410e-02 -1.0162828798532031e-01 -3.0307312211092539e-02  -2.5081379198791106e-02 -1.0173840737968069e-01 -2.9790877567630488e-02  -1.2212355890836357e-02 -1.2374960406545807e-01 -2.9354248245988999e-03  -1.1802850368793714e-02 -1.2294779878938816e-01 -5.0102304113490972e-03  -1.1383297421685326e-02 -1.2219046986792101e-01 -6.8654308145577889e-03  -1.0960851377535023e-02 -1.2147671422151513e-01 -8.6321709345415377e-03  -1.0539384817659252e-02 -1.2081484500449412e-01 -1.0416499662512386e-02  -1.0119729082730955e-02 -1.2021728307289201e-01 -1.2300801754935255e-02  -9.7020762804533867e-03 -1.1970017042101366e-01 -1.4346138954365054e-02  -1.3869712223526769e-02 -9.7645218572378498e-02 -1.6389645097285008e-02  -1.5359632801963988e-02 -9.6431490861215108e-02 -1.5677117090497468e-02  -2.4264272924144438e-02 -1.0985567856592011e-01 -2.8857493287534730e-02  -2.3229607939445049e-02 -1.1027524892472509e-01 -2.7067970187757581e-02  -2.5209140155231541e-02 -1.0687378677293460e-01 -3.2878046403018051e-02  -2.3294999188986226e-02 -1.0870537278220195e-01 -2.8051287670281387e-02  -2.5347703998444715e-02 -1.0517441655870334e-01 -3.3005992381706276e-02  -2.0705023370370862e-02 -1.0608740346391274e-01 -2.8581579031345665e-02  -2.1228839449891481e-02 -1.0453084560538287e-01 -2.8072275891041210e-02  -2.1689394211348974e-02 -1.0338883155132371e-01 -2.7679329292651489e-02  -2.2114073982354831e-02 -1.0256036528209442e-01 -2.7395994186268417e-02  -2.2513208219609317e-02 -1.0199261156768244e-01 -2.7218870952199031e-02  -2.2890519140336792e-02 -1.0165758712816880e-01 -2.7147646928537623e-02  -2.3240306054034970e-02 -1.0154760612835056e-01 -2.7182409517667452e-02  -1.8229826525681687e-02 -1.0891555614317963e-01 -2.0838600465772551e-02  -1.8165301060539315e-02 -1.0675345344428680e-01 -2.2820428274834239e-02  -1.9251143367023917e-02 -1.0701363668415484e-01 -2.4650226460137314e-02  -1.9791074337441525e-02 -1.0536002443333732e-01 -2.4573971390981778e-02  -1.8777056062986089e-02 -1.0507312708446720e-01 -2.2718962638618619e-02  -1.8664856843868573e-02 -1.0719853642518604e-01 -2.1305240328823697e-02  -2.0258512963492088e-02 -1.0412027217390125e-01 -2.4497421084715320e-02  -1.9348329809495593e-02 -1.0380337422413577e-01 -2.2667085856649057e-02  -1.9048691844922104e-02 -1.0585178098682937e-01 -2.1751195009573104e-02  -2.0687027660039464e-02 -1.0319763793257838e-01 -2.4509822771977156e-02  -1.9863913525123317e-02 -1.0285972559092602e-01 -2.2699892423197986e-02  -1.9393226686245171e-02 -1.0480802445293308e-01 -2.2229765243176908e-02  -2.1079884603084003e-02 -1.0253604400678190e-01 -2.4628852015961048e-02  -2.0337196178860730e-02 -1.0218548493229135e-01 -2.2833619514919291e-02  -1.9704559268501697e-02 -1.0401909954046393e-01 -2.2782134780833702e-02  -2.1443082177648173e-02 -1.0210219297517795e-01 -2.4867555896208662e-02  -2.0774474671549321e-02 -1.0174482360415675e-01 -2.3078960202398219e-02  -1.9986322297859672e-02 -1.0345249042914832e-01 -2.3440715021228950e-02  -2.1775102942335391e-02 -1.0187143172665897e-01 -2.5241792440501919e-02  -2.1179712186985823e-02 -1.0151915887214054e-01 -2.3453274285774595e-02  -2.0241636203620367e-02 -1.0308085942896178e-01 -2.4231703230289562e-02  -1.2910257460596999e-02 -1.1552107743984541e-01 -6.9612654872132518e-03  -1.1991776599289223e-02 -1.1521214745051507e-01 -5.1647653129583129e-03  -1.3835906842827919e-02 -1.1221147983946687e-01 -9.9068212197229392e-03  -1.4230956114631949e-02 -1.1053883911496561e-01 -1.1322051545020037e-02  -1.2300139193882557e-02 -1.1359698623563640e-01 -7.0171729456174206e-03  -1.3131318407379711e-02 -1.1393425589914666e-01 -8.7293957668445176e-03  -1.4570815580743345e-02 -1.0914545861855021e-01 -1.2618670629940340e-02  -1.2531166842150172e-02 -1.1222533568246819e-01 -8.8357846485162279e-03  -1.3304933918309244e-02 -1.1258711854559678e-01 -1.0420528919469568e-02  -1.4858995154208359e-02 -1.0801878729640431e-01 -1.3896398640718051e-02  -1.2705542500333646e-02 -1.1107850390899079e-01 -1.0612458010965395e-02  -1.3434849031083955e-02 -1.1146009773198552e-01 -1.2069075272749532e-02  -1.5094317189481303e-02 -1.0712603805825541e-01 -1.5221764970240796e-02  -1.2833356159900057e-02 -1.1013542876409511e-01 -1.2405074366305549e-02  -1.3527016837675730e-02 -1.1053115003722967e-01 -1.3733577317425997e-02  -1.5284144218109467e-02 -1.0643667148673909e-01 -1.6644695619339425e-02  -1.2917683570737758e-02 -1.0937973886391689e-01 -1.4261002676364046e-02  -1.3586034366536605e-02 -1.0978346288755302e-01 -1.5466426217379878e-02  -1.5437742335794842e-02 -1.0592159093111979e-01 -1.8214852068039227e-02  -1.2960727898458908e-02 -1.0880588176849953e-01 -1.6207803919781470e-02  -1.3619431334993819e-02 -1.0920108056190647e-01 -1.7296020077501178e-02  -1.6891144565780510e-02 -1.0970468412847803e-01 -1.7700959615825112e-02  -1.7343759820056218e-02 -1.0798155323310821e-01 -1.8399184439678334e-02  -1.7738696717023800e-02 -1.0660144668156504e-01 -1.9072888023711265e-02  -1.8090034597097512e-02 -1.0551720643842968e-01 -1.9764507866804833e-02  -1.8403393551484581e-02 -1.0468203724922982e-01 -2.0520729804054651e-02  -1.8683236952623940e-02 -1.0406465482089643e-01 -2.1378068013321434e-02  -1.8934263167301669e-02 -1.0364635998866369e-01 -2.2363691577779499e-02  -1.2888906926848470e-02 -1.1198153401404626e-01 -7.7952994371109710e-03  -1.3334139384538955e-02 -1.1033521501957598e-01 -9.3278655812393200e-03  -1.3733169866978600e-02 -1.0892441284322063e-01 -1.0740640560476279e-02  -1.4056668439690482e-02 -1.0778307472973100e-01 -1.2148694487088737e-02  -1.4315856013719975e-02 -1.0687992335560145e-01 -1.3605142082492621e-02  -1.4518520587012487e-02 -1.0618625486183170e-01 