<?xml version="1.0"?>
<VTKFile type="UnstructuredGrid"  version="0.1"  >
<UnstructuredGrid>
<Piece  NumberOfPoints="694" NumberOfCells="2875">
<Points>
<DataArray  type="Float64"  NumberOfComponents="3"  format="ascii">7.942863510534979 1.389919556947329 1.940959907789745  7.963620646833376 1.378370874575523 2.047418823898493  7.849989199692477 1.36308492061138 2.047228763556958  7.858131697061848 1.302278403813664 2.039522421197939  7.971808028995327 1.317835925855169 2.039498211596534  7.95154971187922 1.32922095891475 1.930885128722055  7.979898000330548 1.257283061675143 2.031651930826067  7.960166929365987 1.268503568183073 1.920868453077597  7.866200958446051 1.241476239815363 2.031907599565401  7.987944164897611 1.196730114377325 2.023838077426058  7.968752555680919 1.207783312664105 1.910882130199208  7.874231478348332 1.180679270441912 2.024331353070509  7.995974312189677 1.136186319768582 2.016046199499069  7.977326963326565 1.147067925590649 1.900919187930322  7.882238443261408 1.119891631777941 2.016776919856702  8.00402063908744 1.075659158487262 2.008268199172972  7.985912355161016 1.08636491215615 1.890978353520554  7.890233219842706 1.059120496073546 2.009232845376658  7.994541776316323 1.025673189216565 1.881048091207197  8.012147910110968 1.015165250965818 2.000470993416982  7.89824032246281 0.9983988421008605 2.001663107738845  7.791642661456647 1.372014718224905 1.929215280185241  7.800081931855297 1.310806000673973 1.919260021403625  7.808471446828672 1.24958140742015 1.909368990186379  7.816830784874786 1.188351182322745 1.899512695624238  7.825169054933262 1.127121977967172 1.88967870335272  7.833495093154307 1.06589988220053 1.879860350393235  7.841828118730501 1.004693222855209 1.870052292635684  7.881951635997163 1.398881734592015 1.844095142493143  7.890754477429987 1.337894702354729 1.831791241876866  7.899526864644648 1.276875017994744 1.819520277166504  7.908284069323284 1.215842318806973 1.807271255579743  7.917031383236488 1.154803559460072 1.795046724106758  7.925772354823337 1.093760170894382 1.782853116459668  7.934524555924086 1.032703475288981 1.770696683779939  8.370972186547618 1.431954345214552 2.395625148140771  8.229322304136105 1.411554413418902 2.384078005308129  8.311547245372507 1.417120945765815 2.312946495005906  8.319901132257138 1.357730104861194 2.315600368758128  8.237441910986728 1.35254192733091 2.390105502936414  8.379562489262224 1.373469604492473 2.401984092782018  8.328148624586905 1.298309730513592 2.31825855021572  8.245453046458739 1.293499463686076 2.396147704360829  8.388068260183115 1.31495110823505 2.408339594954306  8.336358769497936 1.238871579271758 2.32092427206843  8.253418678461678 1.234440004222928 2.402204777060531  8.396544440073249 1.256411675453621 2.414699192390785  8.344559805721342 1.179424406190122 2.323603966931788  7.729702777949115 1.343935011219532 2.059199713053708  7.738703747261761 1.282580609022635 2.05239029746307  7.747707566779225 1.221244801811295 2.045675712373194  7.756686228105053 1.159919894409087 2.039002098250728  7.765637132258677 1.098605958598629 2.032349978344834  7.774549113757718 1.037307366980233 2.025704325684036  7.783369668365824 0.9760522094136164 2.01902977474659  7.618676361055299 1.321865150653029 2.093174674665458  7.581323294528962 1.318468222215314 2.190168639730596  7.49604268969036 1.30712419584968 2.083456507200572  7.503046115949081 1.244020075882678 2.078485745715247  7.589238348516179 1.256437322185033 2.191457133895004  7.627511680817328 1.259726657892316 2.088194035386787  7.509962483384237 1.180919510299473 2.073590353524115  7.597111691380663 1.194428023316054 2.192811869337457  7.636348830221239 1.197608292712189 2.083299043926825  7.516816303357513 1.117839286606421 2.068729093447122  7.604940412680103 1.132437806805446 2.194196261423165  7.645151211213049 1.135510682250982 2.078441441560621  7.523637847078282 1.05478410970241 2.063885037781668  7.612737877753093 1.070469621481041 2.195591917699571  7.653922285465412 1.073433617441006 2.07360305576347  7.530460917554707 0.9917579674032968 2.059044241578009  7.62051703825546 1.008524821836688 2.196985491898622  7.662656823031969 1.011380323575165 2.068769761271157  7.537325083269063 0.9287428398397379 2.054179810736489  7.628262589058715 0.9466037588594562 2.198372679182307  7.671289485063079 0.9493438360217352 2.06390162582861  7.563519509086447 1.327903595464919 2.005503959378972  7.571743551128085 1.265810494339793 1.995629182226125  7.579956878433658 1.203704906917883 1.985856035198847  7.588134661835814 1.141597544527859 1.976126800375678  7.596282617364947 1.079494832392329 1.966420683269356  7.60440827118345 1.017391741447805 1.956717583389076  7.612483807895134 0.9552748380051561 1.946965059415643  8.224094423955492 1.40257777626457 2.259250363666011  8.232771652530234 1.342677438361828 2.259456087649202  8.241370656210375 1.282763504260473 2.259669003781476  8.249933644511691 1.222843387982148 2.259892112884914  8.258486535097269 1.162923852056597 2.260130164924528  7.472783713217192 1.325574148694825 1.9507003677029  7.480346291962874 1.262940991573119 1.939410533382333  7.487871878361736 1.200276663525669 1.928199969202878  7.495347361327994 1.137605890020412 1.917032408449919  7.502794133994468 1.074939401351529 1.905885050765604  7.510238354324328 1.012277811525406 1.894736983396233  7.517674810421677 0.9496108018324367 1.883565381137981  8.112875634656779 1.386234222422389 2.295073796612376  8.121331760949575 1.32631712844298 2.297293280279201  8.129706286405428 1.266394649824044 2.299535950586507  8.138034887074113 1.20647845145507 2.301794169670542  8.146352084877559 1.146573904914927 2.304066779170078  7.372673950421594 1.306131127314392 2.009103099477043  7.378153577420894 1.242669895340462 2.000370539896597  7.383530701370436 1.179190432101708 1.991685047564745  7.388832939692473 1.115716069039126 1.983028901512954  7.394101693084105 1.052255720759499 1.974389098957584  7.399376662074457 0.9888103071035732 1.965753855094956  7.404710177464877 0.925370203221942 1.957112658088696  7.708291555850102 1.503884655232981 1.50450192609333  7.616100673235017 1.529765613444289 1.437966389079266  7.717507037597563 1.574827380264316 1.397124832430124  7.725649269432249 1.524534138471628 1.355970866841405  7.620630599473222 1.47564239501382 1.400731111758914  7.715183960401904 1.447643778598905 1.472312984307403  7.733823308520392 1.474108763529769 1.314800610680714  7.625083176038945 1.421396650446372 1.363508328535648  7.722020537177315 1.391279096063778 1.440146222998372  7.742005816583291 1.423592114944971 1.273594707152998  7.629498455988865 1.367076923974627 1.326280925760773  7.728838333513629 1.33482332147034 1.407977685300095  7.750186365842902 1.373021364766248 1.232343471369397  7.633925472464087 1.312708310939601 1.289035998229937  7.735659492377212 1.278305571281878 1.375803097592597  7.75835637326533 1.322414410573938 1.191032245515611  7.638396952555616 1.258301589594774 1.251759743842004  7.742500250478156 1.221733433601411 1.343618865557725  7.766521634622587 1.271774509267387 1.149661231242045  7.642927980920284 1.203865730598204 1.214437415751687  7.74937298762678 1.165111628293875 1.311410976721603  7.465020982114342 1.303460860890387 2.212656640864608  7.472180622673243 1.240702204808174 2.214062527234285  7.479288212295073 1.177971602303265 2.215541355125231  7.486340841462424 1.115268877346741 2.217046254500604  7.493355393487387 1.052594973722539 2.218560216425158  7.500348054868423 0.9899529416478867 2.220073136536906  7.507329928200747 0.9273411944318968 2.221565778677366  7.809679426366146 1.542804634726387 1.459719715377063  7.821553067786694 1.631709608963947 1.362701624191126  7.820017443168648 1.490186071747032 1.42289429618911  7.834669236171861 1.58686448052029 1.318009895447993  7.830418180413524 1.437415007961043 1.386072652106517  7.847971005285262 1.541876914155562 1.273299459345904  7.840843099709089 1.384574361673165 1.349246050350621  7.861323754498653 1.496809914303404 1.228538803943382  7.851256708473552 1.331679250023233 1.312396173629553  7.874654763539969 1.451693689329293 1.183710518935831  7.861629424321601 1.278737253584341 1.275502798809821  7.887913675815279 1.406545470675287 1.138791328641404  7.871961591374253 1.225754101348839 1.238545705024856  8.683821600419437 1.528885469873788 1.972135238911996  8.696556422571053 1.495874613119582 2.096560907396565  8.572495479457881 1.486727784984313 2.016770458381187  8.585637886920573 1.429171495633634 2.003155921184354  8.711585913310445 1.438934281303991 2.086198240119265  8.70048526055605 1.474071785583662 1.954427388570169  8.598942989183758 1.37165670784951 1.989430014256936  8.726903355846202 1.382095297451204 2.075733694993439  8.717503145740274 1.419407825529247 1.936607704445598  8.612305453139635 1.314174961963648 1.975678068923437  8.734625136573895 1.364832040946842 1.918768979649217  8.476413632249328 1.485837544640133 1.941443632730611  8.455414213292359 1.453666697133784 2.057426611195962  8.365488839188256 1.450119413613482 1.984537033222287  8.377139270548362 1.390999174549245 1.972242253797439  8.467075621055935 1.3947577471155 2.047612786462651  8.489256651462513 1.428285889844807 1.925422829882219  8.388850748580047 1.331869477169191 1.959901936562413  8.478809448781725 1.335834807214068 2.037746253467065  8.502206651263011 1.37075804411324 1.909305386596174  8.400581851283924 1.272741377280519 1.947552279710187  8.490564766241388 1.276915504519978 2.027863378182603  8.515204770528127 1.313242022655537 1.89316669116737  8.412302099774653 1.21360672364397 1.935219079380577  8.502305994809495 1.217990180724825 2.017995134386239  8.528179205664561 1.255717165448689 1.877038051575906  8.423986266947386 1.154449665949886 1.922921198183709  8.514003928506929 1.15904167426373 2.0081664050758  8.541074065234852 1.198150112465747 1.860940116261154  8.435610034916706 1.095238823824412 1.910664439672933  8.525637555428167 1.1000
[...]
<PointData  Vectors="f_24"> 
<DataArray  type="Float64"  Name="f_24"  NumberOfComponents="3" format="ascii">-8.0655687613380156e-03 -1.0481227259815568e-01 7.2498616702023587e-03  -6.9461359081490932e-03 -1.1032322772805096e-01 9.6420773370220880e-03  -6.0827851908116055e-03 -1.1062202888166275e-01 1.1438408296237223e-02  -6.3099624904607993e-03 -1.0884136790960312e-01 8.6224225807263917e-03  -7.1502878354561868e-03 -1.0853132488059697e-01 6.9263622733734959e-03  -8.4162814079523050e-03 -1.0292785542674315e-01 4.8286845578982959e-03  -7.3693280474316355e-03 -1.0696267638499675e-01 4.2841675438716770e-03  -8.7883837681565560e-03 -1.0132933549543446e-01 2.5300646494345173e-03  -6.5401104945115619e-03 -1.0726877202856336e-01 5.8617709071282836e-03  -7.5815943711805512e-03 -1.0561648469653555e-01 1.6758968357826203e-03  -9.1445134850367885e-03 -9.9991237180828058e-02 2.5262449891825210e-04  -6.7560961055606371e-03 -1.0590668276193878e-01 3.1362577090384520e-03  -7.7699384536993373e-03 -1.0446514896055885e-01 -9.5066185160937438e-04  -9.4655586523602585e-03 -9.8875441325305596e-02 -2.0703421922274676e-03  -6.9503691885431816e-03 -1.0473251103058447e-01 3.9873897257500538e-04  -7.9189132626783804e-03 -1.0347759940423240e-01 -3.6398204157521300e-03  -9.7370308202109276e-03 -9.7940724241913177e-02 -4.4906095080655848e-03  -7.1160504691059256e-03 -1.0371782759587110e-01 -2.3923867892792290e-03  -9.9488806235889481e-03 -9.7138585330797625e-02 -7.0609919836350813e-03  -8.0167983937497293e-03 -1.0260227359921475e-01 -6.4189519872137535e-03  -7.2484592029497235e-03 -1.0280788736642664e-01 -5.2623559458638731e-03  -7.0849703523339453e-03 -1.0439616718646164e-01 9.3170070789560279e-03  -7.4492493993505871e-03 -1.0251356122382282e-01 6.7951802836248576e-03  -7.8135595758678442e-03 -1.0089864666731316e-01 4.3880398711593745e-03  -8.1575403059046866e-03 -9.9529096433443029e-02 2.0025250764323047e-03  -8.4738099835911136e-03 -9.8377115502926521e-02 -4.2460756616408677e-04  -8.7569760870608911e-03 -9.7404656560496072e-02 -2.9425589926401572e-03  -9.0023903074231172e-03 -9.6564240161417389e-02 -5.6067369688714598e-03  -8.7307506678168650e-03 -9.9940028552459217e-02 5.7855743650676514e-03  -9.2073206823391016e-03 -9.7965856297859241e-02 3.6491134326229364e-03  -9.6982618501854929e-03 -9.6367042704753103e-02 1.6435633550890224e-03  -1.0166799568702230e-02 -9.5060611755695301e-02 -3.5746469122221265e-04  -1.0595784477143638e-02 -9.3990382624617078e-02 -2.4307325988517738e-03  -1.0971737132798309e-02 -9.3109493713710786e-02 -4.6309201401006960e-03  -1.1283751545993665e-02 -9.2374805150386416e-02 -7.0073722804245763e-03  -5.3389489114100243e-03 -1.2574578767066225e-01 1.2520822579268674e-02  -4.5085807495873261e-03 -1.2652344918533795e-01 1.4861534920578094e-02  -6.0872616970332159e-03 -1.2211541733057626e-01 1.1001277837667692e-02  -5.7615534764545537e-03 -1.2082836807949668e-01 7.9420134215852818e-03  -4.0317519861454362e-03 -1.2550481154834359e-01 1.1615672824403983e-02  -4.8604872065999803e-03 -1.2471613750383991e-01 9.3754805164820969e-03  -5.4798125516708684e-03 -1.1974311632249415e-01 5.0405144798574830e-03  -3.6065876390579260e-03 -1.2461071628712095e-01 8.5476459433498353e-03  -4.4267507990142915e-03 -1.2383032680679133e-01 6.4286338568580034e-03  -5.2092416653142064e-03 -1.1881715983059477e-01 2.2070310847267160e-03  -3.2001602311199470e-03 -1.2382425215409013e-01 5.5593889026592878e-03  -4.0078773682168485e-03 -1.2306428998704554e-01 3.5644659297168479e-03  -4.9213240194193077e-03 -1.1802649743567430e-01 -6.3292384099595980e-04  -4.9849697788613596e-03 -1.1138856211773249e-01 1.3368635324473407e-02  -5.2706359637294696e-03 -1.0961247490989175e-01 1.0401808376586460e-02  -5.5162654898430570e-03 -1.0807162081746623e-01 7.4925557651136154e-03  -5.7380249372537403e-03 -1.0673458707412735e-01 4.6195926773319853e-03  -5.9398768535647581e-03 -1.0557528819287329e-01 1.7350383830924416e-03  -6.1236796334415370e-03 -1.0456912486191268e-01 -1.2030419643044054e-03  -6.2953346084882091e-03 -1.0368948979378394e-01 -4.2162396570843202e-03  -3.6815623547909542e-03 -1.1315796151968986e-01 1.5509634639439294e-02  -2.0726374452156456e-03 -1.1890629562483224e-01 1.9125555626088201e-02  -2.8571841557135267e-03 -1.1241008711446061e-01 1.6516737205437060e-02  -3.2259975702051960e-03 -1.1064428531259486e-01 1.3301590717559828e-02  -2.2517552758689881e-03 -1.1757441477123083e-01 1.5564482020034525e-02  -3.9872065290113947e-03 -1.1144072912603407e-01 1.2299978510893683e-02  -3.5330041920761650e-03 -1.0917242952358795e-01 1.0223344726574591e-02  -2.3849531715458890e-03 -1.1642377771663970e-01 1.2222420125758181e-02  -4.2337272825565949e-03 -1.0999290310224163e-01 9.2119994960828608e-03  -3.8050408265564448e-03 -1.0791183123538764e-01 7.1874928489863788e-03  -2.4951740622292944e-03 -1.1543344858117364e-01 8.9603739100195690e-03  -4.4526173539301186e-03 -1.0873521319629552e-01 6.1710475678335265e-03  -4.0630649175308238e-03 -1.0682490689456424e-01 4.1319981795335664e-03  -2.5947618868133035e-03 -1.1457521486555813e-01 5.6902176803381357e-03  -4.6559223957573217e-03 -1.0763768673023537e-01 3.1174757633580566e-03  -4.3211059606283941e-03 -1.0589075534186886e-01 1.0052709652336768e-03  -2.6951682493184747e-03 -1.1383173678322497e-01 2.3420911766403093e-03  -4.8516416085841313e-03 -1.0668379018942814e-01 1.5154245258115576e-06  -4.5901391303589806e-03 -1.0511668180911556e-01 -2.2364284811848181e-03  -2.8105963354467019e-03 -1.1317692210552911e-01 -1.1477175237937568e-03  -5.0423027704689918e-03 -1.0588978296580319e-01 -3.2114186281614675e-03  -4.3703485509475068e-03 -1.0820428206679995e-01 1.3741442236637287e-02  -4.8087403341623113e-03 -1.0626005801471904e-01 1.0923776889315055e-02  -5.1748669905731150e-03 -1.0456422130507290e-01 8.1310170524292718e-03  -5.5044367898480070e-03 -1.0311137075419065e-01 5.3564571489182079e-03  -5.8134381799607969e-03 -1.0186364672195765e-01 2.5622417079755083e-03  -6.1129971083853192e-03 -1.0079209812760657e-01 -2.8806119195784875e-04  -6.4166887059966113e-03 -9.9867347900732872e-02 -3.2101540000253046e-03  -6.1892001697437336e-03 -1.2004929773818843e-01 1.0989433787240961e-02  -5.9772040716663498e-03 -1.1862726126434893e-01 7.9395125377314107e-03  -5.7985730465976316e-03 -1.1741478041843365e-01 5.0230460666765165e-03  -5.6291720566886885e-03 -1.1637408899500334e-01 2.1685060655276889e-03  -5.4418570628362428e-03 -1.1547967813124334e-01 -6.9237823855697388e-04  -4.3917756288876977e-03 -1.0495091897462631e-01 1.3168453665282331e-02  -4.8579464554206492e-03 -1.0290847650376833e-01 1.0566050200082387e-02  -5.2680382760650667e-03 -1.0118599284405629e-01 8.0054351936566358e-03  -5.6364032155201390e-03 -9.9728224600767398e-02 5.4340416525127883e-03  -5.9851523006887964e-03 -9.8491409034767663e-02 2.8191969500296716e-03  -6.3275697962173125e-03 -9.7442752193532059e-02 1.3253819993115935e-04  -6.6746003173380362e-03 -9.6555009558990171e-02 -2.6585958055355269e-03  -4.8657903548601908e-03 -1.2273464805306852e-01 1.4032779456753975e-02  -4.5907909593954285e-03 -1.2146951612102189e-01 1.0792436747236678e-02  -4.3421759851606841e-03 -1.2038723585065705e-01 7.7029158596796342e-03  -4.1060929029627718e-03 -1.1943689255883640e-01 4.6780698472706356e-03  -3.8585419269862625e-03 -1.1859608629973455e-01 1.6503975316308494e-03  -2.9366971295198534e-03 -1.0787926777195345e-01 1.5727886277223813e-02  -3.3610947164322037e-03 -1.0591391543494084e-01 1.2814893421810181e-02  -3.7447037301158916e-03 -1.0423539917848573e-01 1.0030405890217279e-02  -4.0989865620806492e-03 -1.0282392934727830e-01 7.2705624423811312e-03  -4.4394964710327937e-03 -1.0163010031832824e-01 4.4781297779655461e-03  -4.7800614362776672e-03 -1.0061846208542072e-01 1.6072787681237080e-03  -5.1333695842078076e-03 -9.9757230183204246e-02 -1.3841996920598957e-03  -1.0614221375148074e-02 -8.3731032961001595e-02 -5.9575892375623638e-04  -1.0512473431999923e-02 -8.0507357001682781e-02 -9.3660932914216516e-04  -1.1290448863925082e-02 -7.9104200535662875e-02 -3.7216291748369689e-03  -1.2429097428256739e-02 -7.7451725856361009e-02 -3.4552988966022008e-03  -1.1350236652883254e-02 -7.8586553639674497e-02 -9.7475884518498108e-04  -1.1529962692920606e-02 -8.1710703839203938e-02 -9.2495703157726241e-04  -1.3554890721038253e-02 -7.6103138791688563e-02 -3.5764860580752987e-03  -1.2192313037017738e-02 -7.7075371714858260e-02 -1.3255668381777126e-03  -1.2435473699683848e-02 -8.0124361669074093e-02 -1.4782457752612387e-03  -1.4637473770187424e-02 -7.4989768755936687e-02 -3.9439166404681815e-03  -1.3032487407234547e-02 -7.5838973112082708e-02 -1.8837590385662934e-03  -1.3309283740765043e-02 -7.8866751728297296e-02 -2.2176238297570124e-03  -1.5681099375383600e-02 -7.4088112368211737e-02 -4.4692993948390290e-03  -1.3852456068317273e-02 -7.4828765261451297e-02 -2.5930688528641626e-03  -1.4148198692870657e-02 -7.7864779331675557e-02 -3.1150591823545250e-03  -1.6680931797429029e-02 -7.3390622217574863e-02 -5.1015181520645296e-03  -1.4637177032793675e-02 -7.4027402576391121e-02 -3.4196952842238653e-03  -1.4943697656981430e-02 -7.7079501845727288e-02 -4.1457245108402971e-03  -1.7630201003744256e-02 -7.2904730072036197e-02 -5.8058895282286204e-03  -1.5375747325956993e-02 -7.3430863069700508e-02 -4.3504216456530737e-03  -1.5681858834312726e-02 -7.6491058871658621e-02 -5.2987672981173115e-03  -8.9771874509280705e-04 -1.2004026177623910e-01 2.0933949614713895e-02  -1.1372822520010586e-03 -1.1870688267199445e-01 1.7267389902996276e-02  -1.3378110343014069e-03 -1.1755661633751366e-01 1.3802315293627326e-02  -1.5155124428287358e-03 -1.1656115446881959e-01 1.0429634228347258e-02  -1.6860940333973810e-03 -1.1569573448528014e-01 7.0538624119412660e-03  -1.8623079584660699e-03 -1.1494637602969231e-01 3.6012180432192687e-03  -2.0530383103330189e-03 -1.1429409986008629e-01 1.8070042634574112e-05  -1.1500787011561344e-02 -8.2057635351998767e-02 -3.6741820255234729e-03  -1.1734946547335656e-02 -7.8061211916250317e-02 -7.0448217310917520e-03  -1.2720946692182263e-02 -8.0294986801170531e-02 -3.5654133606714523e-03  -1.3249953974320295e-02 -7.6889547685899090e-02 -6.4850421633833102e-03  -1.3898899771869644e-02 -7.8942946026642175e-02 -3.8458190234035221e-03  -1.4669716478477495e-02 -7.5835791741857353e-02 -6.4030282590048539e-03  -1.5010692921851886e-02 -7.7867076562553469e-02 -4.3587181734070649e-03  -1.6020825943424181e-02 -7.4937762431587104e-02 -6.5846000143478193e-03  -1.6065658836188480e-02 -7.7025341332176978e-02 -5.0314609586851727e-03  -1.7322158086393560e-02 -7.4222132846415365e-02 -6.9114317776445893e-03  -1.7064610742260386e-02 -7.6400456788346921e-02 -5.8199798334161706e-03  -1.8577335639842724e-02 -7.3714057736897112e-02 -7.3149102146201307e-03  -1.8007516473321061e-02 -7.5975324582524748e-02 -6.6976123212620408e-03  -1.2549427946122503e-02 -1.0457657158493489e-01 -8.0142813304563236e-03  -1.1355456803408813e-02 -1.0944227170867925e-01 -3.9972987471748956e-03  -1.1489611644466928e-02 -1.0645317670359236e-01 -3.7201068539464421e-03  -1.2151446148858637e-02 -1.0445478697915547e-01 -5.2125030951925529e-03  -1.1979893424854240e-02 -1.0754863156297072e-01 -5.6693002386632224e-03  -1.3524839789105882e-02 -1.0269949807898550e-01 -8.8720495308877816e-03  -1.2758550694577884e-02 -1.0290507304717525e-01 -6.6752313434344365e-03  -1.2467885583024483e-02 -1.0609776881083613e-01 -7.3233706005128990e-03  -1.4364846288334135e-02 -1.0123326008928976e-01 -9.8267351132703285e-03  -1.3295261727900399e-02 -1.0170574024471443e-01 -8.1743396878429467e-03  -1.5102449050284515e-02 -1.0011702407956659e-01 -1.0873327519251550e-02  -1.1674986103167124e-02 -1.0347563785480618e-01 -3.9377156274452117e-03  -1.0325415606883312e-02 -1.0858353775537333e-01 1.7857803893949471e-04  -1.0560216268325354e-02 -1.0558722012673842e-01 -4.2519508205323023e-05  -1.1075445752239718e-02 -1.0357882881391155e-01 -1.8459058274715155e-03  -1.0723067074422587e-02 -1.0665332091745218e-01 -1.7867655639514472e-03  -1.2438292925137172e-02 -1.0144304509731628e-01 -5.1798614468262028e-03  -1.1579004098958012e-02 -1.0199827839464011e-01 -3.5935196487337363e-03  -1.1107737997899821e-02 -1.0511971665188416e-01 -3.6930797016699762e-03  -1.3163627432839659e-02 -9.9891453470649344e-02 -6.4195284628643309e-03  -1.2047713596901016e-02 -1.0075062391219669e-01 -5.3596780960507720e-03  -1.1457794163163025e-02 -1.0389655847955485e-01 -5.6021724805232001e-03  -1.3819806159178957e-02 -9.8705016865907741e-02 -7.7290329516508348e-03  -1.2458872457933994e-02 -9.9767690891776631e-02 -7.1989472828457267e-03  -1.1752305641176106e-02 -1.0292638963335957e-01 -7.5686574329733997e-03  -1.4400145800089963e-02 -9.7801115219760384e-02 -9.1374241253811377e-03  -1.2792990667083315e-02 -9.9001826846448510e-02 -9.1503006422717810e-03  -1.1973825960111411e-02 -1.0216723969541314e-01 -9.6368846525470217e-03  -1.4900239020608363e-02 -9.7128625450083106e-02 -1.0664918461843606e-02  -1.3031417867053790e-02 -9.8418369291286681e-02 -1.1243286441883344e-02  -1.2105701175799491e-02 -1.0159468240177465e-01 -1.1843298499218174e-02  -1.5318446210005828e-02 -9.6663206361742193e-02 -1.2330685754484150e-02  -1.1766991484117084e-02 -1.0013439316312051e-01 -4.2167715442948421e-03  -1.0683511083751053e-02 -1.0249206267556214e-01 -1.7628735079086623e-04  -1.1328040799749780e-02 -1.0043549759479566e-01 -1.7924624370365993e-03  -1.2711037433288145e-02 -9.8094237789997041e-02 -5.1799573916663788e-03  -1.1953500211884330e-02 -9.8837724621382905e-02 -3.3986213408461114e-03  -1.3594664059631195e-02 -9.6554935469403441e-02 -6.2266586944390266e-03  -1.2540471437033650e-02 -9.7576435004227774e-02 -5.0411457223108235e-03  -1.4405978918391864e-02 -9.5384048788259915e-02 -7.3735772743659580e-03  -1.3067563567678743e-02 -9.6580159950214531e-02 -6.7682008816764075e-03  -1.5140218479366628e-02 -9.4500072601374691e-02 -8.6328584253084900e-03  -1.3517012589289161e-02 -9.5802808223415789e-02 -8.6139531228853726e-03  -1.5791659766913515e-02 -9.3853393620253078e-02 -1.0014714177724674e-02  -1.3875876090582757e-02 -9.5218882469133792e-02 -1.0606659450479431e-02  -1.6350528122324771e-02 -9.3417911581047522e-02 -1.1530295332138217e-02  -7.4360151212486880e-03 -1.1746555786692015e-01 7.9017371058506258e-03  -7.3164283625904479e-03 -1.1590378011197663e-01 5.0686158604725312e-03  -7.2343931962863270e-03 -1.1458481152786215e-01 2.3645587454754957e-03  -7.1572676834944322e-03 -1.1347929953178867e-01 -2.8391185743903305e-04  -7.0544509074014095e-03 -1.1255467629298960e-01 -2.9450072133735150e-03  -6.8988588090881167e-03 -1.1178341644036859e-01 -5.6771828333538766e-03  -4.5911325412404721e-03 -1.1735486663641170e-01 -3.5411079383257265e-03  -5.2110124781259617e-03 -1.1471167177784085e-01 -3.6161836214261001e-03  -6.6671603089899448e-03 -1.1113737837443942e-01 -8.5223465309632821e-03  -4.1943185234507028e-03 -1.1679200290270489e-01 -6.5704427980349282e-03  -4.9132998381922807e-03 -1.1405665615781591e-01 -6.6437378220316496e-03  -1.1699797558031046e-02 -9.7344841794884202e-02 -4.0899532618892823e-03  -1.0779979408728704e-02 -9.9241989420952498e-02 -3.2589851436775919e-04  -1.1558571658143042e-02 -9.7171496963512238e-02 -1.7563820159486791e-03  -1.2759037443163597e-02 -9.5345784603605002e-02 -4.8975737318041283e-03  -1.2313850137679369e-02 -9.5545459089732623e-02 -3.1897330404947852e-03  -1.3758326670049047e-02 -9.3814973829593543e-02 -5.8024924197141526e-03  -1.3024112414169143e-02 -9.4271422330419130e-02 -4.6745502096537826e-03  -1.4684065518322296e-02 -9.2652895934048518e-02 -6.8325900035198081e-03  -1.3668995678303568e-02 -9.3272231316771134e-02 -6.2545089453786172e-03  -1.5529684075312491e-02 -9.1783343492102112e-02 -7.9863899137050838e-03  -1.4234007973687178e-02 -9.2495891635599736e-02 -7.9586095952072066e-03  -1.6290821930557260e-02 -9.1154888670223921e-02 -9.2643158971424961e-03  -1.4708814765335582e-02 -9.1907356323007144e-02 -9.8100846765727338e-03  -1.6960045646124557e-02 -9.0737315944103877e-02 -1.0675570105632391e-02  -9.3802064567087076e-03 -1.0796693029568047e-01 3.6815866552134466e-03  -7.8139068506004015e-03 -1.1398696163950992e-01 7.3749214339624463e-03  -8.0233714463186310e-03 -1.1082236045777109e-01 7.0927486033736569e-03  -8.1779843683667131e-03 -1.0905358096166858e-01 4.4830788494393528e-03  -7.8207141754422244e-03 -1.1231854530667547e-01 4.6741574538716685e-03  -9.6467597811745118e-03 -1.0610473713061257e-01 1.4058473444307196e-03  -8.3525305769819539e-03 -1.0756069556220142e-01 1.9820488748412989e-03  -7.8716329741182079e-03 -1.1090565488923988e-01 2.0870257491371839e-03  -9.9599072484076717e-03 -1.0456425026702354e-01 -7.3316657739821219e-04  -8.5276248423251828e-03 -1.0630612340137133e-01 -4.8129406728852079e-04  -7.9229994182779644e-03 -1.0972093246498295e-01 -4.6003427172981877e-04  -1.0257837937236359e-02 -1.0331276632181033e-01 -2.8525893875130932e-03  -8.6725295552003007e-03 -1.0525465828877037e-01 -2.9730158848817068e-03  -7.9453684495833215e-03 -1.0873123749290869e-01 -3.0307541213392924e-03  -1.0511208160271138e-02 -1.0229847899153209e-01 -5.0258826464010071e-03  -8.7614793462487302e-03 -1.0437256949113204e-01 -5.5479499787707415e-03  -7.9136511838676180e-03 -1.0790410696089757e-01 -5.6781028634722962e-03  -1.0696557067430112e-02 -1.0147848720826663e-01 -7.3065231177548992e-03  -8.7690564619857143e-03 -1.0362727625506073e-01 -8.2562904935782177e-03  -7.8035209415968391e-03 -1.0720673553348570e-01 -8.4503428257005284e-03  -1.0792079770072658e-02 -1.0081523164132518e-01 -9.7396540181522873e-03  -8.5113995740980775e-03 -9.4420984327831650e-02 5.6414954376825671e-03  -7.1477867829677407e-03 -1.0041833149256039e-01 8.5998316502278599e-03  -7.2394019065515096e-03 -9.6567074502346917e-02 7.9279326378745140e-03  -7.7626566447982128e-03 -9.4415323977880369e-02 6.0893548238379371e-03  -7.6254226459282074e-03 -9.8356554983490802e-02 6.3853724109560958e-03  -9.0611341007611583e-03 -9.2288869148565891e-02 3.9641868320722997e-03  -8.2698750983393795e-03 -9.2549540328543317e-02 4.2304384208802148e-03  -8.0801169491366877e-03 -9.6621625895994712e-02 4.2026055485750551e-03  -9.6282574994232158e-03 -9.0523508165065839e-02 2.3284316928565904e-03  -8.7580888482192819e-03 -9.0975864875942142e-02 2.3375114214206748e-03  -8.5102548714677869e-03 -9.5151564106971370e-02 2.0131692709577957e-03  -1.0179359194315599e-02 -8.9069228711782328e-02 6.5105743194583264e-04  -9.2249858174570151e-03 -8.9661247937541363e-02 3.7534124409000636e-04  -8.9154594322111303e-03 -9.3911160592915460e-02 -2.2989802642904924e-04  -1.0701768452575143e-02 -8.7875596856066274e-02 -1.1165268925895666e-03  -9.6694035176625014e-03 -8.8564342201761473e-02 -1.6820771221192426e-03  -9.2937111681803512e-03 -9.2865008189317949e-02 -2.5655698545272256e-03  -1.1190310142550817e-02 -8.6894625068837994e-02 -3.0072894103802977e-03  -1.0092754527032849e-02 -8.7641087896559292e-02 -3.8525074426652784e-03  -9.6439410628969217e-03 -9.1985578061161435e-02 -5.0235462283908022e-03  -1.1641283928015193e-02 -8.6080353912520904e-02 -5.0478112817804299e-03  -1.1728733869901749e-02 -9.4369285250789178e-02 -4.0395457129083732e-03  -1.0807876295276474e-02 -9.6136775276407252e-02 -3.0950699745546173e-04  -1.1686609170197943e-02 -9.4070360095159913e-02 -1.5946059503316274e-03  -1.2904293869446193e-02 -9.2398510563461267e-02 -4.6915866796247638e-03  -1.2532295253789108e-02 -9.2453473865969499e-02 -2.8717765896506724e-03  -1.3997739511084411e-02 -9.0934082010182063e-02 -5.4985246585909564e-03  -1.3324812318388396e-02 -9.1195920646326867e-02 -4.2255585272632607e-03  -1.5004272162022209e-02 -8.9824147496983517e-02 -6.4409442698314633e-03  -1.4048156005179075e-02 -9.0217751811892594e-02 -5.6891988059394778e-03  -1.5928267428462008e-02 -8.8994532094469059e-02 -7.5132690894276028e-03  -1.4692490940985486e-02 -8.9463925189977769e-02 -7.2852838710086108e-03  -1.6768537881879292e-02 -8.8401827911087957e-02 -8.7091562386640373e-03  -1.5252526741265563e-02 -8.8902440150708265e-02 -9.0360022911806850e-03  -1.