<?xml version="1.0"?>
<VTKFile type="UnstructuredGrid"  version="0.1"  >
<UnstructuredGrid>
<Piece  NumberOfPoints="1034" NumberOfCells="4469">
<Points>
<DataArray  type="Float64"  NumberOfComponents="3"  format="ascii">6.36569937289196 4.001045235570738 1.15646208010457  6.489876787156695 3.968842375809202 1.100481678989173  6.461494998480847 4.047460856620572 1.214315877764394  6.369525827340668 3.944980303322396 1.196860899573215  6.466615063703503 3.991198198445595 1.253096144483409  6.486831807787022 4.022489090909626 1.056887340707881  6.361923789088991 4.057024833150214 1.116020651997799  6.456416124015977 4.103644852605933 1.175487275491473  6.358254966665366 4.112921579471696 1.075503479007169  6.483877601796976 4.076075776380956 1.013222105786281  6.451373734064493 4.159732797502929 1.136556718901666  6.428590941215169 4.214921432922246 2.631812409407768  6.530764483731806 4.25194918132875 2.524068473558486  6.419406675993569 4.205967828306739 2.481753725718781  6.390292899445712 4.267424549390146 2.476705723277716  6.507756889337642 4.31763797384867 2.51721575548505  6.396265006913554 4.275948897654887 2.63150345042143  6.361733242036893 4.328729020701076 2.471631989917895  6.485255380016342 4.382925893856005 2.510355148875119  6.364532210981133 4.336931726951797 2.63109205134821  6.333477341594358 4.38987644604431 2.466594681633456  6.463011384840682 4.447892165566166 2.503532403336042  6.828309440057855 4.218263609012669 2.258354105292895  6.74586657189371 4.206282616837709 2.185594358679337  6.733412281732043 4.25120157494159 2.323741628143626  6.735653799507584 4.317935922036775 2.30688377115933  6.750199495680564 4.270607203670184 2.165774377462014  6.840165269298124 4.281885804047818 2.240001298399342  6.851635182107081 4.34516438069895 2.221812553550264  6.754355929858027 4.334445380099189 2.146178182054148  6.737788629186554 4.38406810970789 2.290206504479511  6.86292270134882 4.408119624364508 2.203762367562631  6.75842762819371 4.397937969861938 2.126739731987046  6.739872593080652 4.449853692710221 2.273657480777407  6.87414134931498 4.470830326677144 2.185821721925074  6.762467698048972 4.461167297545668 2.107418888575442  6.741939854448191 4.515362510337028 2.257221953408501  6.885426338254344 4.533313862736065 2.167981674160741  6.766537899549672 4.524156632965815 2.088192790117358  6.744020950770684 4.580621755355931 2.240905906630909  6.77067811707875 4.586900027158905 2.069052347503811  6.896854754737626 4.595494166833267 2.150274413747414  6.746136525315138 4.645621868036538 2.224749799814055  6.356462718759736 4.035304349075137 1.82067484517851  6.471637652441167 4.037108985945244 1.763805296911034  6.369050829662939 3.983547749721107 1.677050935669  6.357198508587206 4.044110464989201 1.65011387139156  6.462055049867159 4.098503749879158 1.738566838810449  6.34111976061353 4.096575465853004 1.799477501464601  6.326096247677894 4.157805967472506 1.778510859387479  6.452645103169371 4.159737848673586 1.71364408452616  6.345588993843263 4.104582535242765 1.623465869941414  6.311252306623349 4.218884402439375 1.757679073448985  6.44333982031392 4.220805552213272 1.688886523266082  6.334095872780841 4.164949803283259 1.596924989013301  6.296482507021746 4.279805534663522 1.736910419914982  6.43409383846797 4.281693806201044 1.664204582764516  6.322645219237498 4.225175027386309 1.570408699664451  6.424859568025592 4.342394622547496 1.639519517314485  6.281681618629505 4.340506845654118 1.716129086989315  6.311182509265048 4.28522092087708 1.543864277309505  6.266678589876293 4.40096551503181 1.695232181977155  6.415535779315552 4.402769284548292 1.614750907722355  6.299616256128354 4.345053881279282 1.517207838059711  6.22954816081508 4.019091153851382 1.89395089831353  6.256543886335306 3.978348683731157 1.741453082827983  6.239798705222205 4.039500902121226 1.719803546570341  6.208839443966969 4.079718641641276 1.877446690609185  6.188638579232532 4.140311734140022 1.861089734718401  6.223459608143853 4.100545200980853 1.69837891022618  6.168660249123916 4.200844563974486 1.844788962107896  6.207296435476046 4.161499640341808 1.67703847429066  6.148735768718803 4.261253012680008 1.82850471377035  6.19117822498084 4.222320792639147 1.655711347011134  6.128724927990167 4.321473992323151 1.812208343423722  6.175004655745601 4.282969416940674 1.634358967937418  6.509730653940379 3.989551468714543 1.648029937097091  6.502152335209696 4.049847238453049 1.619027889830988  6.494647283073411 4.110042093330772 1.590338426864516  6.487192775450334 4.170116114886303 1.561805022484494  6.479763613779903 4.230045282869062 1.533323765325948  6.472340350448581 4.289798290726162 1.504815772654476  6.464891524561206 4.349331230631266 1.476197360372843  6.13592747944629 4.01298335992382 2.083714326955133  6.243859412725136 4.078635919342954 2.17002887937067  6.231643908224388 4.051630074266047 2.025487287950667  6.207150861418306 4.111366330453637 2.013856138461418  6.216319374447822 4.137082704794157 2.161982123164749  6.107929442800984 4.070887283050194 2.076779426052044  6.183204916963791 4.171121778174772 2.002324563199875  6.189282340669039 4.195626683658507 2.153984968094894  6.080466064869229 4.128977440365476 2.069871875092686  6.159492693829831 4.230835568666313 1.990834232364296  6.697898266053205 4.099017404828223 1.880802695694323  6.585744613227277 4.128610753984817 1.966180907044145  6.690748409372921 4.141475455520474 1.987321475621865  6.69238462898605 4.203683866525089 1.963417180228485  6.579584251342544 4.191413740760018 1.943835507775306  6.699067618882652 4.16138424752432 1.858538864526218  6.693873151188368 4.265509409478605 1.939833094606362  6.573514868885333 4.253854536754841 1.921793518794428  6.700061576668314 4.223484706200118 1.836584767333719  6.695334825437231 4.327049980144861 1.916433803420918  6.567507397344844 4.31601729646512 1.899940497592228  6.701004365646807 4.285352529132965 1.814827475319135  6.696801463251889 4.388353623801561 1.893145903068163  6.561558166234856 4.377942977217389 1.878194431761751  6.701950862998714 4.347006878280984 1.793173606239286  6.698303486776353 4.449428454624766 1.869922957830269  6.55561581013706 4.439637198921434 1.856513700148368  6.702932628965637 4.408432670222746 1.771559686587478  6.699864989834349 4.510223715088871 1.84673795755147  6.54962045733178 4.501015384529748 1.834841137289576  6.704024039141832 4.469507500531041 1.749863163907147  6.437100061163116 3.934800511647613 1.561363388900435  6.428602785581957 3.994229954630836 1.530058510732187  6.42022910893325 4.053635367532241 1.499031435807184  6.411904944885149 4.112950208856653 1.468118011666083  6.403608132071742 4.172147166887781 1.437228489428672  6.395314875590135 4.231203501630608 1.406300220613553  6.38698757527945 4.290092321408071 1.375266782133579  6.627518513476136 4.211825903562075 2.215403582097231  6.620541735848988 4.277073326855589 2.197127261066446  6.613705530426337 4.341755678425685 2.179069296934287  6.606944910200085 4.406051497521323 2.161169839625109  6.600223212326989 4.470066631628675 2.143373103543341  6.593472602734042 4.533853876180566 2.125677633266163  6.586661524464913 4.597389777789473 2.108096333134603  6.279393440116539 4.201622293245148 2.546351101634833  6.245097587972038 4.258354855858705 2.546708457496594  6.211084347917674 4.31509306177179 2.54708038055015  6.554006701436572 4.166090109567939 2.09358790857206  6.660513999714381 4.180577269056974 2.089241894580611  6.658158703176268 4.244730165030305 2.06840299809989  6.543500577665526 4.22992587307581 2.074419016851381  6.655837914178238 4.30831878401302 2.047867930812003  6.533252945501239 4.29327877840625 2.055503276757428  6.653523904574283 4.371570346754786 2.027511185245722  6.523148317472195 4.356294122073062 2.036769860486893  6.651217760064343 4.434568245137917 2.007277857013876  6.513122639297064 4.419051757025959 2.018144837315099  6.648920112791436 4.497335731600165 1.987121654031059  6.503064728300682 4.481567848862493 1.999585901836671  6.646607825598446 4.55987440396187 1.966982388990109  6.492887990604557 4.543792326663636 1.981054175215275  6.045023645961355 3.875218996314583 1.601670477191759  6.146757604141928 3.876463687988092 1.539410672902792  6.05072778756143 3.816993651949412 1.453750525342978  6.038928027780043 3.88007193919009 1.424325226346472  6.133836224569852 3.939164667218571 1.513276247525616  6.02968613800151 3.939046643962609 1.580267854360715  6.027352786511203 3.943099569931244 1.394952546460537  6.121173972529717 4.001838796405857 1.487260618412507  6.014666985381367 4.002862770881962 1.558908315424109  6.015900709846358 4.006056295698167 1.365598557273572  6.108625820647899 4.064432667457139 1.461277065935408  6.146405700469193 3.964294970159395 1.793330944749525  6.126129393320211 4.025742156793748 1.776643810317882  6.10629167309835 4.087245117254464 1.760033388743074  6.086642792310076 4.148697772562776 1.743442896206497  6.067020582965464 4.210069933289661 1.726848241830317  6.047290040468973 4.271335649023044 1.710234757099518  6.458880433128973 4.121868098073777 2.002892747751644  6.349690540890327 4.105234829177167 2.07004678260262  6.447323299355091 4.150850075335446 2.11348390313922  6.428970025795404 4.213418464472048 2.097841197159939  6.327580910224412 4.166110413036763 2.056411103799773  6.444524320119239 4.184283267850669 1.983414072406057  6.411032043919745 4.275695570436516 2.082385633555111  6.305987761204176 4.226839788705708 2.042904765975096  6.430477584661499 4.246385680001496 1.964173848752508  6.393321500621242 4.337717313105565 2.067070522580195  6.284670746652537 4.287415371088613 2.029520408721003  6.416634250529913 4.308256473133884 1.945098979448846  6.375717498585003 4.39952414453027 2.051851618557318  6.263456932226793 4.347816665612873 2.016216783539967  6.402888552920092 4.369910986115801 1.926111979063615  6.358069949154124 4.461093196785421 2.036668520449816  6.242192298811499 4.407987678030584 2.002916567572
[...]
<PointData  Vectors="f_24"> 
<DataArray  type="Float64"  Name="f_24"  NumberOfComponents="3" format="ascii">-1.0478968825991312e-04 4.1145599431262965e-04 7.9129961775389424e-04  -1.1704773289495635e-04 3.3636842825199011e-04 8.3734930492295227e-04  -1.2228196180565887e-04 5.1276299211174339e-04 7.4252414352968916e-04  -1.0538924519010936e-04 4.6787545641029766e-04 8.5988694822255497e-04  -1.2139527018420636e-04 5.7026483424374083e-04 8.1337751203369116e-04  -1.1882808879207244e-04 2.8239922379241691e-04 7.6995944002265001e-04  -1.0444117976798385e-04 3.5784891968594369e-04 7.1791193691214683e-04  -1.2340287126603813e-04 4.5776248677903360e-04 6.6739206875565313e-04  -1.0424267272804417e-04 3.0617228710729492e-04 6.3849890916179201e-04  -1.2091864085425407e-04 2.3019562969961760e-04 6.9690818263932965e-04  -1.2510150349281531e-04 4.0405987827507204e-04 5.8684622052258622e-04  -2.0688500598032436e-04 2.0258732286805477e-03 6.9506532537521714e-04  -1.8853892486102490e-04 2.0145512143383512e-03 6.7193085213963625e-04  -2.0964688721750442e-04 2.0336078829061945e-03 6.8867729786148055e-04  -1.9111057332998682e-04 2.0320620848813223e-03 6.8188635062345674e-04  -1.7632834682702539e-04 2.0050849384305961e-03 6.7388519789406750e-04  -1.8510064573500323e-04 2.0268306014314674e-03 7.0556564891248810e-04  -1.7448222198751805e-04 2.0270438263973135e-03 6.7459717921574585e-04  -1.6616044318469318e-04 1.9944007794527596e-03 6.7428572570313295e-04  -1.6606946067493475e-04 2.0248180359347234e-03 7.1471758665908938e-04  -1.5727694742497916e-04 2.0195911890115870e-03 6.6728611213681037e-04  -1.5564709786215791e-04 1.9824572605463709e-03 6.7446755985352334e-04  -1.4381277302846283e-04 2.0038239498462412e-03 6.3338571409205034e-04  -1.5518638073919676e-04 1.9404125979047262e-03 6.5066762035051841e-04  -1.5830978380209588e-04 1.9993399263314102e-03 6.3540883582071154e-04  -1.7338731115240180e-04 1.9829214482653458e-03 6.1670970064164931e-04  -1.7218567309627676e-04 1.9203046512710148e-03 6.1354125071612006e-04  -1.6682560210212567e-04 1.9927388710417066e-03 6.0463176609845519e-04  -1.8578464477513284e-04 1.9767805908480142e-03 5.7585970133399648e-04  -1.8591777292612001e-04 1.8971804202227854e-03 5.7680660535622459e-04  -1.8542965993270901e-04 1.9642571182205645e-03 5.9698489241333816e-04  -2.0430058022783741e-04 1.9568826510056544e-03 5.4826267624699416e-04  -1.9893032319446692e-04 1.8710806547272997e-03 5.4153179500912303e-04  -1.9695629602838123e-04 1.9428663595997329e-03 5.7809614676643348e-04  -2.2458472660674019e-04 1.9340018899381682e-03 5.2272205672960874e-04  -2.1290732750564616e-04 1.8426012494726794e-03 5.0825750284254443e-04  -2.0938209288357351e-04 1.9192776794605890e-03 5.6104243208728326e-04  -2.4837468607493275e-04 1.9092608935704293e-03 5.0023264864300766e-04  -2.2907385266801781e-04 1.8123904141475354e-03 4.7764646013854627e-04  -2.2356801090173893e-04 1.8945438272934653e-03 5.4657402125108583e-04  -2.4880625512190880e-04 1.7806466288265814e-03 4.5062758013980614e-04  -2.7695571726574870e-04 1.8843007869557768e-03 4.8222936390088234e-04  -2.3985934803470062e-04 1.8714497992539884e-03 5.3519802678036370e-04  -1.6849937967892086e-04 1.5330250940748262e-03 8.0902055423710253e-04  -1.5881729275275315e-04 1.4494854626659970e-03 8.1200522746712985e-04  -1.5048501062639460e-04 1.3110352609218738e-03 8.6191153649882034e-04  -1.4472878042920724e-04 1.2581956320585725e-03 7.7657095829169716e-04  -1.5704072983646356e-04 1.4022778595063898e-03 7.3122342734639712e-04  -1.6074522353178090e-04 1.4954169995534026e-03 7.2795045577191283e-04  -1.5382761014317553e-04 1.4582758672240586e-03 6.5146761900991437e-04  -1.5552223046766148e-04 1.3572214545269203e-03 6.5495139906003119e-04  -1.4007718580162355e-04 1.2086253901167543e-03 6.9529630946103609e-04  -1.4685928961984674e-04 1.4208042117035313e-03 5.7729416165993436e-04  -1.5401101137595084e-04 1.3128609409569440e-03 5.8088406826891552e-04  -1.3576537719920539e-04 1.1605382719047847e-03 6.1586956345097892e-04  -1.3926686648338806e-04 1.3824357155128859e-03 5.0358987586436219e-04  -1.5227329225565853e-04 1.2683181894374517e-03 5.0723080374926507e-04  -1.3133873969396862e-04 1.1128880414577958e-03 5.3614045944465631e-04  -1.5020123443743226e-04 1.2228779534118311e-03 4.3237343138596992e-04  -1.3051214101030155e-04 1.3426846902311032e-03 4.2884591141209414e-04  -1.2651798217579394e-04 1.0647968130740278e-03 4.5436644479026066e-04  -1.2018633380143108e-04 1.3009423241589152e-03 3.5162728411295248e-04  -1.4773804287812809e-04 1.1758604929723417e-03 3.5505455023355495e-04  -1.2107505005032863e-04 1.0158428323083816e-03 3.6939295469793731e-04  -1.8486101169656110e-04 1.6475406526052548e-03 8.1511869180092252e-04  -1.6036237236626219e-04 1.4193468876605038e-03 8.6240800692252381e-04  -1.5037863228402104e-04 1.3784445016134152e-03 7.7299732080164966e-04  -1.7237037746174307e-04 1.6225983190896484e-03 7.3405831251195023e-04  -1.6049134152968771e-04 1.5958556520410273e-03 6.5744482029875555e-04  -1.4163127712907590e-04 1.3387835637788815e-03 6.8876938044022630e-04  -1.4829562327418620e-04 1.5671623670453574e-03 5.8294511060988613e-04  -1.3309361669300185e-04 1.2993531608201923e-03 6.0684628264187710e-04  -1.3488458096054141e-04 1.5365162974167227e-03 5.0864279512957884e-04  -1.2410349736322518e-04 1.2594433451509855e-03 5.2489067773873088e-04  -1.1952115969005012e-04 1.5037184979306715e-03 4.3301406622987148e-04  -1.1412156619826963e-04 1.2183350369420684e-03 4.4093607498447030e-04  -1.4795090609267514e-04 1.2686444328284655e-03 8.6059104544442498e-04  -1.4839879501800135e-04 1.2113564614975043e-03 7.7808870678579441e-04  -1.4906215471275331e-04 1.1580191335620541e-03 6.9949227638997202e-04  -1.4981213386691572e-04 1.1069819267613020e-03 6.2253810826022311e-04  -1.5058579030720348e-04 1.0569284652220843e-03 5.4529443107974296e-04  -1.5132371496865210e-04 1.0068513060705847e-03 4.6615661039510969e-04  -1.5193227999815571e-04 9.5595221759591734e-04 3.8372274928053239e-04  -2.2607324082672781e-04 1.8981628947751146e-03 8.0507991079350398e-04  -2.2508507152281453e-04 1.9470642996934696e-03 7.5338077912899743e-04  -2.0540473678475998e-04 1.8105380102591715e-03 7.7982656311548606e-04  -1.9092489419444614e-04 1.7987557613957728e-03 7.1165838084045541e-04  -2.0834887069702313e-04 1.9455360110003743e-03 7.0234993075889314e-04  -2.1057220943673774e-04 1.8989557685418674e-03 7.3930677548758031e-04  -1.7682267644648830e-04 1.7832686517476009e-03 6.4691581423451734e-04  -1.9197615828311665e-04 1.9389125593965355e-03 6.5358110466279869e-04  -1.9473695241747029e-04 1.8941387510754391e-03 6.7676823839894827e-04  -1.6184519622215293e-04 1.7646626952851116e-03 5.8388378775949966e-04  -1.5649965911792367e-04 1.6385866598223511e-03 7.4746857839017066e-04  -1.6694727157698798e-04 1.7231447116260949e-03 7.2283978331962701e-04  -1.5923068758492631e-04 1.7617488285927214e-03 7.0554916460958993e-04  -1.7152852992510586e-04 1.7286922194065908e-03 6.4477802639555711e-04  -1.7142532510121402e-04 1.6885818142122753e-03 6.5934981584060627e-04  -1.6861708067503602e-04 1.6023285649741591e-03 6.7455091626855517e-04  -1.8145428808382904e-04 1.6938460304955583e-03 5.8650065206630872e-04  -1.7468466761637544e-04 1.6533509184753104e-03 5.9891317373782552e-04  -1.7850284622261870e-04 1.5658725327936361e-03 6.0652911483620453e-04  -1.9069336693700899e-04 1.6571395883935140e-03 5.3020722696422713e-04  -1.7733389682526152e-04 1.6169701564419491e-03 5.4063813295584259e-04  -1.8770566504532120e-04 1.5287860990526811e-03 5.4140342301485121e-04  -2.0039763275507937e-04 1.6184210348164601e-03 4.7529311673614853e-04  -1.7976738077460814e-04 1.5791050336925567e-03 4.8366876074701712e-04  -1.9717807045155022e-04 1.4904863092744720e-03 4.7768656020292822e-04  -2.1155337168253727e-04 1.5774967799508709e-03 4.2160860371896091e-04  -1.8226438826964665e-04 1.5394051768160993e-03 4.2733972673860278e-04  -2.0773019768619754e-04 1.4501766928074530e-03 4.1422413843555651e-04  -2.2517306656748420e-04 1.5345745842885643e-03 3.7044558729097481e-04  -1.8486156359193249e-04 1.4967610962687741e-03 3.7153123977252673e-04  -2.2026915734516399e-04 1.4054269443816924e-03 3.5058407463929716e-04  -1.3794332725473220e-04 1.1172285458177014e-03 9.1362757819824067e-04  -1.3589252333066147e-04 1.0537186459982091e-03 8.3126089348255477e-04  -1.3447675342643996e-04 9.9554616843907880e-04 7.5224706567780038e-04  -1.3336549962217716e-04 9.4078513252324897e-04 6.7417403930041583e-04  -1.3237678718715183e-04 8.8796931641725325e-04 5.9513286174027794e-04  -1.3144005714800752e-04 8.3585302109878408e-04 5.1343844171229875e-04  -1.3064602320474127e-04 7.8323679466285514e-04 4.2759610158922187e-04  -1.7065388780213990e-04 1.9355155913364248e-03 6.6015834134995535e-04  -1.7643262882652386e-04 1.9132092680160904e-03 6.2687284537598471e-04  -1.8073345780819590e-04 1.8891264402587050e-03 5.9359835163856069e-04  -1.8426638323674099e-04 1.8630978833871488e-03 5.6124190398515645e-04  -1.8756450405100393e-04 1.8353294726388295e-03 5.3041696432044795e-04  -1.9090858768798285e-04 1.8061076303065155e-03 5.0152551235765354e-04  -1.9420773564334109e-04 1.7748572392785895e-03 4.7518795098323494e-04  -2.1463676425609708e-04 2.0840702667071220e-03 7.0946669671174696e-04  -1.9333997599760064e-04 2.0889886969539424e-03 7.0680004335019328e-04  -1.7101025998979370e-04 2.0903811472809506e-03 7.0377504819911084e-04  -1.7630923397665696e-04 1.8445007880153867e-03 6.9288171188430434e-04  -1.6494555487901855e-04 1.8522000396391659e-03 6.7580229879606035e-04  -1.7469049727175995e-04 1.8244913937868054e-03 6.2674337345417354e-04  -1.7667434887356516e-04 1.8180167826761635e-03 6.4305798639091724e-04  -1.8241279785767485e-04 1.7953604785686918e-03 5.7937471325655962e-04  -1.7665681096581173e-04 1.7899747820763195e-03 5.9503014315059660e-04  -1.8946728548263031e-04 1.7640186071733422e-03 5.3384076479977944e-04  -1.7603441780846189e-04 1.7601774638943857e-03 5.4869894769158625e-04  -1.9678524960859578e-04 1.7305122186737189e-03 4.9017066618700601e-04  -1.7486005336239040e-04 1.7285965322427126e-03 5.0394224027825970e-04  -2.0505305243222945e-04 1.6950011506250808e-03 4.4841379269542053e-04  -1.7318549110381803e-04 1.6953224472705348e-03 4.6068296241599246e-04  -2.1476952288036871e-04 1.6579672745155910e-03 4.0812100464155152e-04  -1.7100347071753106e-04 1.6603838025224689e-03 4.1883854650630087e-04  -1.3414485882937586e-04 1.1952878797430800e-03 9.5235911978668909e-04  -1.2670770241257989e-04 1.0771755391589667e-03 9.5764744600606937e-04  -1.0941726225006144e-04 9.1992765664516475e-04 1.0044462844062462e-03  -9.9903233148670626e-05 8.5401784668766908e-04 9.0983461370227161e-04  -1.1748384526504718e-04 1.0200945026166098e-03 8.6109212645223306e-04  -1.2328837840761816e-04 1.1484502616188603e-03 8.4817340319135934e-04  -9.1833604336766827e-05 7.9639497802550137e-04 8.1965213650712085e-04  -1.0958374580346713e-04 9.6885172055414929e-04 7.7023371418996785e-04  -1.1346926292474008e-04 1.1050086379837387e-03 7.5079641734332925e-04  -8.4658050769899029e-05 7.4383843149815841e-04 7.3043506238252957e-04  -1.0233406321367972e-04 9.2097031841356495e-04 6.8101430996619764e-04  -1.7052533771356711e-04 1.5117358053647050e-03 8.6605478628261096e-04  -1.5817603502992975e-04 1.4826654764695970e-03 7.7358511840131526e-04  -1.4657517038368738e-04 1.4526055199662697e-03 6.8636084154169842e-04  -1.3479229924293632e-04 1.4214867218660188e-03 6.0147336242950464e-04  -1.2207528458257905e-04 1.3888836694290019e-03 5.1637354111919880e-04  -1.0782222557280571e-04 1.3542756915306835e-03 4.2883712919595461e-04  -1.8008530988423735e-04 1.7572581245801832e-03 7.2935018944254545e-04  -1.9873760616129463e-04 1.8351132023445875e-03 7.3991698101580632e-04  -1.9009388986167465e-04 1.8622542437882479e-03 7.0596006134587884e-04  -1.8203365386757671e-04 1.8418093312557637e-03 6.5607029838170761e-04  -1.8640923872538252e-04 1.8188014697483493e-03 6.8141471620586608e-04  -1.7501103294286364e-04 1.7282780048231328e-03 6.6732336052942212e-04  -1.7452840414190502e-04 1.8192040333514460e-03 6.0804359754603810e-04  -1.7489602215738076e-04 1.7994876182788424e-03 6.2574052152430503e-04  -1.7008952116393834e-04 1.6979856852598766e-03 6.0814609530287947e-04  -1.6641152894491339e-04 1.7945613830610461e-03 5.6159133521426938e-04  -1.6275902439912912e-04 1.7777539539110491e-03 5.7176419985280910e-04  -1.6471718229989506e-04 1.6661256086346896e-03 5.5088538927001800e-04  -1.5690532400418374e-04 1.7680706618199923e-03 5.1643540972469535e-04  -1.4890234562468178e-04 1.7539183115643897e-03 5.1868095621400391e-04  -1.5842763106404173e-04 1.6325975639788202e-03 4.9475088799645021e-04  -1.4536181789439630e-04 1.7399174158078613e-03 4.7243381070722815e-04  -1.3240018851154594e-04 1.7281099647117259e-03 4.6579266585848936e-04  -1.5086844837894312e-04 1.5973225945076605e-03 4.3918934653927827e-04  -1.3108880608963676e-04 1.7102891746158784e-03 4.2913261287653022e-04  -1.1232733538009960e-04 1.7003172386615675e-03 4.1223944281142274e-04  -1.4164330119138550e-04 1.5605764473419451e-03 3.8423459893697636e-04  -1.7772867991455228e-04 2.3626807647875261e-03 4.8726002612532249e-04  -1.7772751462959540e-04 2.4609548331791221e-03 4.7597668814063125e-04  -1.5898735817562658e-04 2.4883413059134402e-03 4.9560551467189048e-04  -1.5244440464605398e-04 2.4528897403335620e-03 5.1368196381914211e-04  -1.5139158463185976e-04 2.3576119054644715e-03 5.2609201757193016e-04  -1.8897649905583151e-04 2.4887835636731035e-03 4.7563698760365200e-04  -2.0664790282721085e-04 2.3594686398186039e-03 4.4893515567669481e-04  -2.0506690815419367e-04 2.4603739575476458e-03 4.3806020838242968e-04  -2.2294009390473688e-04 2.4796330562219110e-03 4.5627816981079770e-04  -2.3933836854558906e-04 2.3470035114005754e-03 4.1024353144010776e-04  -2.3521940963064069e-04 2.4502563904448896e-03 3.9895573279074897e-04  -2.6270728545903428e-04 2.4595240325880185e-03 4.3798483613229544e-04  -2.7724961793854590e-04 2.3235099992690560e-03 3.6957532861001829e-04  -2.6945946376903115e-04 2.4276297985427976e-03 3.5712596445481215e-04  -1.9289065805518099e-04 2.3537118604363698e-03 4.6493934260108312e-04  -2.1917759055522346e-04 2.3500088154474333e-03 4.1299552296296599e-04  -2.4799065836762454e-04 2.3370635952575909e-03 3.5902902612257206e-04  -2.7982635338690475e-04 2.3131042282947922e-03 3.0057242133789820e-04  -1.6919188852497816e-04 1.6138452649816194e-03 7.6752443536321966e-04  -1.8477931235194668e-04 1.7050704949808310e-03 7.6884538733526249e-04  -1.7470193096933792e-04 1.6783683966436886e-03 6.9772763665012691e-04  -1.6660230579430873e-04 1.5765005652964264e-03 6.9413297219679906e-04  -1.6545051459732513e-04 1.6500002551571935e-03 6.3053816620703288e-04  -1.6415720735689154e-04 1.5393688353916505e-03 6.2488701189886446e-04  -1.5584748592145943e-04 1.6199864173707384e-03 5.6544138883335882e-04  -1.6138022241472775e-04 1.5017973567228707e-03 5.5801423337822702e-04  -1.4507283383718471e-04 1.5882999715073993e-03 5.0108533432883628e-04  -1.5807944657160979e-04 1.4632614768252412e-03 4.9210075707131231e-04  -1.3240978279555602e-04 1.5547569623481725e-03 4.3638633932148127e-04  -1.5408991694399073e-04 1.4232362949070292e-03 4.2600804967664557e-04  -1.1716300754564136e-04 1.5190976658491920e-03 3.7043343801352777e-04  -1.4926516510882702e-04 1.3810225753429809e-03 3.5878671456058089e-04  -1.6075288827699114e-04 1.5623765838451208e-03 7.6504756302244110e-04  -1.6564233635089987e-04 1.5201435702021000e-03 6.8999582047985430e-04  -1.6949578693184030e-04 1.4792387485034152e-03 6.1929601096705027e-04  -1.7292447254211292e-04 1.4382678363591254e-03 5.5110910187586184e-04  -1.7625749833851835e-04 1.3964480843954474e-03 4.8390312979504281e-04  -1.7975355332816196e-04 1.3530746194879842e-03 4.1640675286719217e-04  -1.8406422773422306e-04 1.3076823564163375e-03 3.4710510173302045e-04  -1.4523272384814545e-04 1.8195213043692225e-03 7.1340204342204149e-04  -1.4837783880869218e-04 1.7631614077517853e-03 7.1820234837845860e-04  -1.3666792982646779e-04 1.9026843933907676e-03 6.9041629306048865e-04  -1.6091720406958413e-04 1.8934679606507105e-03 6.2659681897668431e-04  -1.6961980012377808e-04 1.7403590498345192e-03 6.4502314633466844e-04  -1.6843922804833081e-04 1.8064986520708473e-03 6.3678705205506023e-04  -1.8300052575655909e-04 1.8788543571014820e-03 5.6744634425957830e-04  -1.8858940398394294e-04 1.7144485811370006e-03 5.7754040820032421e-04  -1.8997995974473120e-04 1.7891017425677265e-03 5.6654178609604638e-04  -2.0473033179212578e-04 1.8598283892544232e-03 5.1146620277952193e-04  -2.0700091493417092e-04 1.6856967712799091e-03 5.1342995073856939e-04  -2.1145047999055353e-04 1.7677785946460481e-03 4.9994067509180704e-04  -2.2785921377014431e-04 1.8367505700769139e-03 4.5737162044290141e-04  -2.2637202801651187e-04 1.6539230710501318e-03 4.5095752152886451e-04  -2.3427403445112186e-04 1.7422922141836800e-03 4.3483700532536454e-04  -2.5435606194511306e-04 1.8092932380279342e-03 4.0430339847045326e-04  -2.4819616093538281e-04 1.6184369586719936e-03 3.8875042104012550e-04  -2.5984993341562820e-04 1.7117067658675357e-03 3.6902729547518194e-04  -2.8740479537514091e-04 1.7751411819726284e-03 3.5267131420349117e-04  -2.7392695418136995e-04 1.5776259675155315e-03 3.2522583487417419e-04  -2.8914644524192509e-04 1.6753939201069102e-03 2.9871585504288010e-04  -1.5329926702720590e-04 1.6785605545108844e-03 7.4080854694292999e-04  -1.7425802362103465e-04 1.6531836884478646e-03 6.5752881049890854e-04  -1.9347331706190694e-04 1.6255912603825023e-03 5.8095292643493162e-04  -2.1235697053265738e-04 1.5956110387151837e-03 5.0790429435565519e-04  -2.3210499417939811e-04 1.5626802954625632e-03 4.3577546380800465e-04  -2.5376678103891187e-04 1.5258724140038392e-03 3.6218427384729091e-04  -2.7837463374090428e-04 1.4843589447427299e-03 2.8490600444636436e-04  -1.7437988707537470e-04 1.9285085526654618e-03 6.0590650557041314e-04  -1.5422291180200223e-04 1.9152548088446186e-03 5.5856459692514863e-04  -1.4483741474322876e-04 1.7433647538642001e-03 5.2115840417145951e-04  -1.3013936344280575e-04 1.8997615371565792e-03 5.1098026550502169e-04  -1.2479222791999121e-04 1.7195867321923490e-03 4.5757559513698011e-04  -1.6872749308213662e-04 1.8271865154288606e-03 7.2403944868989383e-04  -1.5456995946696068e-04 1.8834274834867097e-03 7.1019543601933365e-04  -1.5341033075408984e-04 1.9752210711481630e-03 6.9588710006774788e-04  -1.7424846567633623e-04 1.9795111214442164e-03 6.1127565729510809e-04  -1.7629237272740939e-04 1.8797894354954311e-03 6.2269170961553168e-04  -1.8820289850917730e-04 1.8208176584737893e-03 6.2651475522655816e-04  -1.9577938379008482e-04 1.9768428067549796e-03 5.3246238848635012e-04  -1.9804127620435833e-04 1.8702712612548322e-03 5.4202241876081354e-04  -2.0798490099984421e-04 1.8092954513326794e-03 5.3622863490947865e-04  -2.1836776259067848e-04 1.9679023202733193e-03 4.5659638295509133e-04  -2.2054140898763549e-04 1.8553563233120872e-03 4.6464100683817658e-04  -2.2842630288154550e-04 1.7928990601085071e-03 4.4915624919955344e-04  -2.4249975619544456e-04 1.9525857863430932e-03 3.8078307070932153e-04  -2.4449050258289369e-04 1.8348101726267253e-03 3.8748995136700241e-04  -2.4982683387517060e-04 1.7715234498910039e-03 3.6176287457201557e-04  -2.6865368281822545e-04 1.9302854892588384e-03 3.0188066049983026e-04  -2.7045906322893437e-04 1.8080543634144202e-03 3.0740350366862280e-04  -2.7242550982487104e-04 1.7447635631928642e-03 2.7065508030537066e-04  -2.9701776900832420e-04 1.9007992670786228e-03 2.1632702242461616e-04  -2.9867985336186765e-04 1.7755609859555050e-03 2.2078332708271077e-04  -2.9674106476165947e-04 1.7113328687119954e-03 1.7290363302478848e-04  -2.2441785659549533e-04 2.0072786172820596e-03 7.1570116305919159e-04  -2.0863949409043409e-04 2.0048719763770401e-03 6.8901805534177967e-04  -2.0107671887741149e-04 1.9502073589903442e-03 6.9352678273408184e-04  -1.8876402951118577e-04 1.9377135112304245e-03 6.5791910500169373e-04  -1.929148257