<?xml version="1.0"?>
<VTKFile type="UnstructuredGrid"  version="0.1"  >
<UnstructuredGrid>
<Piece  NumberOfPoints="997" NumberOfCells="4363">
<Points>
<DataArray  type="Float64"  NumberOfComponents="3"  format="ascii">6.85927697485309 1.705631814807317 3.415777548643188  6.755979634133197 1.720516645470522 3.472960851723151  6.774640884423053 1.643437565701409 3.325026362984295  6.783237683439181 1.58851841230229 3.354206937947657  6.764982585255471 1.664476040624427 3.50412782346661  6.86838480599726 1.64973649251708 3.446396731212062  6.791875312796977 1.533598810987243 3.383342243258619  6.774017176661497 1.608432742029222 3.535253743442545  6.877530167307456 1.59384078344394 3.476968020960036  6.800539659777367 1.478684862846354 3.412441623388902  6.783072786523706 1.552390512893722 3.566345828666686  6.886697185428003 1.537949008593301 3.507501560500287  6.809217470306116 1.423777819257498 3.441515301256769  6.792136486827943 1.496350121491264 3.597409654397752  6.895872814956575 1.4820635461706 3.538006724692418  6.81789826041013 1.368876496622784 3.470571445183738  6.801196811743074 1.440309907097983 3.628447865236347  6.905045419139202 1.426182932729065 3.568491199194649  6.826580558984052 1.313975444399499 3.499613122680349  6.810251312120212 1.384272544157899 3.659457784145582  6.91419985259742 1.370300356637983 3.598959099891629  6.922849954344042 1.515369999233821 3.037944157662339  6.822895803690695 1.521314061370262 3.080370089301905  6.864060687842186 1.456588252250405 2.953375343635163  6.873766394529201 1.403476554501645 2.983646325744158  6.831980885317869 1.468117764281875 3.109624240646931  6.931928917858954 1.461728608925128 3.067336497354194  6.883537083679422 1.350364282090402 3.013841386199951  6.841124178219464 1.414919677169152 3.138817527842669  6.94106850115194 1.408086928881741 3.096657096976019  6.893341268838345 1.29726248451328 3.043985510933136  6.85030092551171 1.361728857563416 3.167966021716765  6.950238599594964 1.354455157763663 3.12592499215103  6.903150401668 1.244178273289527 3.074106434849339  6.859489818619156 1.308551611097121 3.197091251289118  6.95941373320454 1.300841774443105 3.155165967057411  6.912940200501258 1.191119732643149 3.104237730946874  6.868674185107411 1.255393787685109 3.226219092664391  6.968571964934531 1.247251948085013 3.184412231413023  6.922708329695618 1.138097665317629 3.134431081901669  6.877854759062106 1.202258306019394 3.255382280317952  6.977697785003233 1.193681395844586 3.213710276449535  6.638836764279573 1.430948544126064 3.227969002955318  6.719519857008538 1.40132512648945 3.148860505514656  6.620830415758601 1.355668733152867 3.097966725104373  6.7103360118106 1.453827981312601 3.119695430846401  6.630010937794522 1.483636263139645 3.199177300612288  6.630073922015664 1.304001458642186 3.127711317491729  6.647697591127049 1.378263794187946 3.256730979464025  6.728741111833766 1.348825706088097 3.177990183482887  6.639331593589816 1.252341215190803 3.157440173606721  6.656574377646432 1.325584787393846 3.285473827757358  6.737977852318735 1.29633497817846 3.207100731085631  6.64857748400157 1.2006919942942 3.187172109013833  6.665449757064536 1.272911952072019 3.314209032868822  6.747210431991824 1.24385606509869 3.236211524563613  6.727594931546933 1.448049960560157 2.98053628313602  6.737004785304364 1.395826523043678 3.010715457371623  6.746475861921311 1.343596855284548 3.040827810171403  6.755985294552258 1.291372219336766 3.070899761007609  6.765507195829916 1.239158513924025 3.100954148590876  6.77502022648271 1.186962858642313 3.131017423988956  6.784520184855094 1.134805047654034 3.161129872947346  6.674223758415772 1.618392130984562 3.442652575324438  6.683183266128516 1.563057761623374 3.472365512081603  6.692169786331167 1.507724576420681 3.502048076407704  6.701168486022461 1.452392452621891 3.531704680712071  6.710165718262607 1.397059473983185 3.561337052245103  6.719144293692368 1.341723477824013 3.590940910746591  6.886749078296035 1.663021663201669 3.329200554728421  6.895584076052031 1.607544486037228 3.358700661611862  6.904460645640236 1.552071238140072 3.388146490047558  6.913360774399202 1.496604525271633 3.417552170281807  6.922271089258007 1.441146980696464 3.446930483767245  6.93117988359416 1.385700772113063 3.476292065505162  6.940071539373325 1.33025648363633 3.505644879655778  6.868039236042506 1.627144839378125 3.265893058908872  6.847231939289813 1.590237195757325 3.201127191731985  6.855913518894471 1.535961393492363 3.229768457080073  6.876595978864493 1.572088466762598 3.294525287951062  6.885194954930828 1.517037928986003 3.323103403699514  6.864645819584317 1.481689692716815 3.258353355191062  6.893820895353565 1.461994373515586 3.351640859251731  6.87340844687986 1.427424456995676 3.286897026674644  6.902458237430343 1.406961692932287 3.380152405027143  6.882184287299599 1.373170706708437 3.315415729623656  6.911093915434036 1.351941584040024 3.408652226119213  6.890959226092989 1.318930243570833 3.343928158708307  6.919719424080197 1.29692493120866 3.437147090196892  6.899723333790509 1.264698406905587 3.372448662464945  7.481052668558082 1.451413701452307 2.771318773206332  7.449450234649408 1.491754576228627 2.854045688990558  7.36020971150046 1.451736254070421 2.798035228461266  7.36655238404501 1.39785536073763 2.82491697541411  7.455221263110364 1.439150106184755 2.881682776366556  7.486839447795153 1.39773642661681 2.79742941477459  7.372862525872685 1.344009456155578 2.851705031909871  7.460940802539751 1.386558412220229 2.909215816131561  7.492559624334355 1.344091150060932 2.823452697921497  7.379146617162816 1.29020037381613 2.878437808393822  7.466625097826268 1.333991484183915 2.936693584101099  7.498235279138591 1.290481465702768 2.849425605314932  7.385398683532515 1.236431674989582 2.905137467825203  7.472284503166398 1.28145702257994 2.964137370885825  7.503883071882496 1.236915244318108 2.875365245240967  7.391607214118448 1.182722692856097 2.931820098655434  7.477926979413297 1.22897086533518 2.991564712465527  7.509515559090707 1.183417705943985 2.901281905741916  7.397772808104497 1.129119379505412 2.958505160906264  7.483551295770869 1.176578382402689 3.019012412806094  7.515141402192381 1.130038204017402 2.927200005795664  6.721300336063759 1.566678932221558 3.195854850799979  6.730095842107499 1.513165189315112 3.224506079266309  6.738947565162009 1.45965659217752 3.25311071716499  6.747833637244753 1.406153266395909 3.281680608385787  6.756735454822074 1.352658315517474 3.310228700380542  6.765636390928421 1.299173100018106 3.338768611926724  6.774526217304349 1.245695003331909 3.367308409286257  7.409059181836195 1.402971416944892 2.680025371630008  7.415356877071835 1.347086718194794 2.703486212564621  7.421596986836077 1.291265405301318 2.726882377760236  7.427795637644608 1.235491307506312 2.75023408634859  7.433955458654794 1.179766064612622 2.773558221738806  7.440073424757399 1.124111795475994 2.796865943349458  7.446159758324376 1.068565073185318 2.820162045913725  6.701215934827885 1.506326944381693 3.09048242728125  6.75642111007504 1.191391625557787 3.265346419050365  7.464330603493565 1.785464346783971 3.385845072962563  7.362240339257648 1.794416855658056 3.428854482778681  7.406003365543847 1.729280910068973 3.306496600630532  7.414065618846602 1.675396735038247 3.337092602591421  7.37106182848206 1.739464873113291 3.461785523724749  7.473086965112691 1.731585941514888 3.417804508024191  7.379890604035181 1.684501055792345 3.494663056475758  7.481850642618825 1.677699983233033 3.449714169594537  7.422125112604469 1.621506200287026 3.367626651959021  7.490607682061386 1.623815419240662 3.481586831797081  7.388715748135414 1.62953960532171 3.527500934357488  7.430176044156081 1.567619562154075 3.398119835562937  7.499343854931996 1.569933811845084 3.51343065391125  7.397524637955914 1.574579959936635 3.560309783592813  7.438207632821333 1.513740433072874 3.428584025951959  7.508044661815166 1.516049566728262 3.545251608166274  7.406302370750592 1.519618720729517 3.593095396687962  7.446206763470923 1.459868118732385 3.459028217324662  7.516690005884177 1.46215256038869 3.577054862587136  7.41503301311094 1.46464922449934 3.625862111066185  7.45416070321171 1.405996381704936 3.48945987569124  6.660811738380776 1.550839989418094 3.316588745583079  6.669527855720207 1.496909741583619 3.345430334745784  6.678275619043247 1.442982163329146 3.374242148335056  6.687039218007519 1.38905819246878 3.403031119968631  6.695804098882471 1.335135485183044 3.431802891427109  6.704552229817407 1.281208770051222 3.460559451326404  7.381443283523693 1.516368753421078 2.915819910566096  7.387558549489016 1.463542892701733 2.943604586310512  7.393643762157831 1.410723775406217 2.971288663561347  7.399703124449221 1.357927032721926 2.998912757684453  7.405739519487517 1.305161146017629 3.026502314544261  7.411751753555704 1.252442882502207 3.054079611788609  7.417733466097387 1.199805394191537 3.081684170328751  7.28403969384003 1.742828722388946 3.361579688434735  7.292599391869124 1.688000600700711 3.393071532322236  7.301167012671425 1.633166681595026 3.424500173521867  7.309733522437719 1.57833429373415 3.455887784213805  7.31828778227941 1.523505834403299 3.48724705360761  7.326816638643834 1.468676139512049 3.518587649578765  7.33530382412312 1.41384075601661 3.549917451881448  7.275283896794437 1.488788866779423 2.887343537191877  7.282204794134429 1.435544605050877 2.915545716888192  7.289132166500407 1.382326099531225 2.943641611299909  7.296051230543476 1.329127683855762 2.971677572745826  7.302945977399649 1.275958722169596 2.999680398425182  7.309793955451154 1.22283515360657 3.027675903391261  7.316562968102311 1.169803938391131 3.05569137140249  6.621241254051949 1.536320208894643 3.170347868008209  7.742082267964967 1.917215448008957 3.518468773769284  7.636034779419287 1.931083200563851 3.56654747501805  7.665953029902002 1.852861716919157 3.442728222964846  
[...]
<PointData  Vectors="f_24"> 
<DataArray  type="Float64"  Name="f_24"  NumberOfComponents="3" format="ascii">1.2867730399326512e-02 -1.4224230816116332e-01 3.2032189228688536e-02  1.3145996703560599e-02 -1.3763377960917189e-01 2.9606372425089650e-02  1.3619780353039367e-02 -1.4902272978081399e-01 3.7492403296375626e-02  1.3730043460700335e-02 -1.4731023903927432e-01 4.1359648094884335e-02  1.3131862860106112e-02 -1.3454899456646882e-01 3.4765804664967682e-02  1.3019910324147186e-02 -1.3958165701738084e-01 3.6788186002403758e-02  1.3711794605478592e-02 -1.4516566857421412e-01 4.4658419619088667e-02  1.3021005423597385e-02 -1.3126183812860609e-01 3.9278488161068499e-02  1.3056380551914104e-02 -1.3664569347093405e-01 4.0915021742869762e-02  1.3594517464850676e-02 -1.4256492637041571e-01 4.7563850634386742e-02  1.2837482569014054e-02 -1.2767514533419855e-01 4.3396156144295192e-02  1.3008756588707799e-02 -1.3335381123338685e-01 4.4645522640044698e-02  1.3406526364213054e-02 -1.3945434194660461e-01 5.0225787607442479e-02  1.2599598466642447e-02 -1.2368511833549264e-01 4.7334886843490492e-02  1.2900915618774633e-02 -1.2962044699364353e-01 4.8176114685443749e-02  1.3174430665187451e-02 -1.3574605394555170e-01 5.2790680573896027e-02  1.2324158951535822e-02 -1.1918327386737822e-01 5.1296829867397295e-02  1.2754462386901855e-02 -1.2534291342237347e-01 5.1685041297977602e-02  1.2929392609261056e-02 -1.3132925646865826e-01 5.5421177279257362e-02  1.2036047480462797e-02 -1.1405771456780980e-01 5.5485159927228120e-02  1.2588791639902827e-02 -1.2042141207717542e-01 5.5363241202646442e-02  1.2448164868474864e-02 -1.5737656152778060e-01 4.5574301771318181e-02  1.3132694074891859e-02 -1.5717902927617380e-01 4.5644224512510469e-02  1.2156368026737953e-02 -1.5621706422360485e-01 4.6570730404990948e-02  1.2313132656342523e-02 -1.5693625473089712e-01 4.5968396097059973e-02  1.3314749949401867e-02 -1.5727309234278222e-01 4.6603572243549746e-02  1.2695627865349789e-02 -1.5766176891521153e-01 4.6094656625502647e-02  1.2360378068255247e-02 -1.5695621504275131e-01 4.5359361393818437e-02  1.3365257090216385e-02 -1.5670803696645158e-01 4.7343690561315453e-02  1.2821808957724515e-02 -1.5727296498279716e-01 4.6447899956272999e-02  1.2320643767061257e-02 -1.5641377693658548e-01 4.4635213177845072e-02  1.3312822435475923e-02 -1.5557468523329243e-01 4.7839928596437792e-02  1.2848760387483496e-02 -1.5631009301379334e-01 4.6588762480022305e-02  1.2206680274034307e-02 -1.5541208629660605e-01 4.3655113233122302e-02  1.3180175221334882e-02 -1.5391934358958648e-01 4.8051871366960063e-02  1.2790630258257510e-02 -1.5484050365123062e-01 4.6452570881731284e-02  1.2025862074513555e-02 -1.5403414469125218e-01 4.2240821114002028e-02  1.2984286312647088e-02 -1.5174347842856692e-01 4.7906948709627563e-02  1.2653936890062556e-02 -1.5289228033862887e-01 4.5943070956545359e-02  1.1781714882805602e-02 -1.5235491788506600e-01 4.0149043370316551e-02  1.2742843904280196e-02 -1.4899000068857216e-01 4.7291903521248929e-02  1.2434978397793103e-02 -1.5041582814650775e-01 4.4915367619975964e-02  1.4218511080221371e-02 -1.5412419155289961e-01 4.8301112629395328e-02  1.3752771368961659e-02 -1.5637564208771987e-01 4.8030943046805136e-02  1.3684938532133959e-02 -1.5649461931643818e-01 4.7995261994489946e-02  1.3812431354264611e-02 -1.5692766049448106e-01 4.7272796974289669e-02  1.4366726623494142e-02 -1.5511246276075716e-01 4.6718662434022486e-02  1.3435801437452507e-02 -1.5568866968624345e-01 4.7928491630435860e-02  1.3974225456496417e-02 -1.5258305310486076e-01 4.9578422966846336e-02  1.3595855620577016e-02 -1.5525632733638189e-01 4.8548107463549151e-02  1.3115925469135989e-02 -1.5438512758186831e-01 4.7592165246775855e-02  1.3654036123072845e-02 -1.5049854817478206e-01 5.0571585983171359e-02  1.3365637150621694e-02 -1.5361712364973459e-01 4.8784035120752946e-02  1.2736208950613070e-02 -1.5262325419889619e-01 4.6857210865181652e-02  1.3269752164841444e-02 -1.4782782464359731e-01 5.1279997305075910e-02  1.3077221813258688e-02 -1.5145876945562681e-01 4.8666597592584848e-02  1.2957999290655204e-02 -1.5613852585374510e-01 4.7353494672737119e-02  1.3020638436870393e-02 -1.5681065512065845e-01 4.6963831657893557e-02  1.2966567243252214e-02 -1.5679460116766722e-01 4.6545367780491287e-02  1.2822458790739009e-02 -1.5621183280897516e-01 4.5999787558804892e-02  1.2609737817124541e-02 -1.5516041761690050e-01 4.5200357619839926e-02  1.2343336968609984e-02 -1.5371181455018748e-01 4.3982028309034603e-02  1.2038978798307096e-02 -1.5192337022400471e-01 4.2095341324355010e-02  1.3845461096654486e-02 -1.4056061034192294e-01 3.8382573663226741e-02  1.3654351089004245e-02 -1.3782660557938542e-01 4.2417154205609757e-02  1.3384682958985561e-02 -1.3471958062725900e-01 4.6045816681120795e-02  1.3053972145146808e-02 -1.3115268996002369e-01 4.9463980208484838e-02  1.2677006164042631e-02 -1.2701916687720241e-01 5.2859074262425240e-02  1.2268078488132545e-02 -1.2218035331990242e-01 5.6431613101034186e-02  1.3023198268254181e-02 -1.4846699742010264e-01 3.6362327036161796e-02  1.3242776409193266e-02 -1.4660046927996795e-01 4.0331021129249175e-02  1.3335894308319902e-02 -1.4432222997277067e-01 4.3729168971486404e-02  1.3331925734936389e-02 -1.4160387101887845e-01 4.6735381773138379e-02  1.3258360767650053e-02 -1.3838738752742827e-01 4.9503324393991369e-02  1.3138224326931831e-02 -1.3457374486238280e-01 5.2180505261050183e-02  1.3005139934649020e-02 -1.3011166246945358e-01 5.4957763044278483e-02  1.3226907341988637e-02 -1.5212677408339165e-01 3.9392693230886421e-02  1.3331451317686196e-02 -1.5485375429693729e-01 4.2083368417485903e-02  1.3543119681551932e-02 -1.5411407616428269e-01 4.4583585413307487e-02  1.3451006821596322e-02 -1.5085188768550734e-01 4.2678151717634179e-02  1.3538718401605277e-02 -1.4908656871710294e-01 4.5451497010138973e-02  1.3619485108345861e-02 -1.5280121737823452e-01 4.6663024964892774e-02  1.3524337572274508e-02 -1.4683511386760578e-01 4.7846151046371771e-02  1.3589246572655853e-02 -1.5096032272546503e-01 4.8401763741240118e-02  1.3434704515914603e-02 -1.4406183930707736e-01 4.9975681449519561e-02  1.3480577054016977e-02 -1.4858207481064303e-01 4.9864607710576186e-02  1.3297056120470063e-02 -1.4069151660803636e-01 5.1954340742119319e-02  1.3318974380404571e-02 -1.4560974782770619e-01 5.1106030242408507e-02  1.3145246838148788e-02 -1.3661017500505682e-01 5.3935832362100380e-02  1.3132381554554790e-02 -1.4192851153244332e-01 5.2172961574234615e-02  6.6303756994759121e-03 -1.5141448543153269e-01 3.9465229727987834e-02  7.7856904700258286e-03 -1.5435670821658748e-01 4.1239438659089078e-02  7.8633080285117306e-03 -1.5266932410020653e-01 4.1341382323094408e-02  8.3210117990209966e-03 -1.5358383411470009e-01 3.9434333386915418e-02  8.3888882323846416e-03 -1.5516396934164900e-01 4.0011042059582926e-02  7.1956855656102343e-03 -1.5227343262740772e-01 3.7376474749177498e-02  8.6990842010211816e-03 -1.5389975824362762e-01 3.7700482990899412e-02  8.8964343491836698e-03 -1.5534059490175894e-01 3.8853851407704705e-02  7.6815126696767894e-03 -1.5257625228399507e-01 3.5479477500673373e-02  9.0116583215580966e-03 -1.5376159316052146e-01 3.5953824957935657e-02  9.3269543988119194e-03 -1.5502617325173157e-01 3.7642030547742011e-02  8.1012560358309834e-03 -1.5246098495211419e-01 3.3583426105126324e-02  9.2546953974932660e-03 -1.5327458109103523e-01 3.4024655713691808e-02  9.6915752222264326e-03 -1.5431650967778351e-01 3.6240396729602845e-02  8.4681088076948852e-03 -1.5202493716824320e-01 3.1518324263062954e-02  9.4259908904679220e-03 -1.5252229720654983e-01 3.1740094483231222e-02  9.9986579648882259e-03 -1.5328157823500321e-01 3.4497668843272322e-02  8.7935673003166001e-03 -1.5135231765679419e-01 2.9118429700428709e-02  9.5346205121607901e-03 -1.5159683452035083e-01 2.8930990880371828e-02  1.0246040625235563e-02 -1.5197203287820227e-01 3.2215602101006428e-02  9.0919501588191762e-03 -1.5058084144232023e-01 2.6239003903721369e-02  1.3947238408569769e-02 -1.5501402079830828e-01 4.3275673650049688e-02  1.4038004970119743e-02 -1.5439930706942021e-01 4.5606082112807117e-02  1.3995003385402901e-02 -1.5320092358568016e-01 4.7536952648191168e-02  1.3848427589187803e-02 -1.5146521416672992e-01 4.9135235682637286e-02  1.3625303570031801e-02 -1.4918746210676886e-01 5.0452873437900433e-02  1.3347911380823922e-02 -1.4631216657179638e-01 5.1528037372985037e-02  1.3030419400578558e-02 -1.4273122120180953e-01 5.2412286157297719e-02  6.0513341528755796e-03 -1.4739711306872030e-01 3.7900124285230749e-02  6.4203563048620526e-03 -1.4815462137428476e-01 3.4960458325314470e-02  6.7424672239984598e-03 -1.4847540166402354e-01 3.2303450770818198e-02  7.0179041413385686e-03 -1.4847517201252328e-01 2.9712722605452699e-02  7.2449992151060755e-03 -1.4824700579255728e-01 2.6996797936627688e-02  7.4211823102162278e-03 -1.4786753766474986e-01 2.3987247843533042e-02  7.5508503559937436e-03 -1.4740988410793121e-01 2.0541063942190730e-02  1.3749010770154835e-02 -1.5682089722600456e-01 4.6292561326651611e-02  1.2722433666222777e-02 -1.4870745980726338e-01 4.8081147262848116e-02  9.2410383983049880e-03 -1.3975058394689899e-01 2.6533370568192095e-02  9.6797149648613946e-03 -1.3701299478255524e-01 2.5377309651936828e-02  1.0004518022689399e-02 -1.4649960509967766e-01 3.1786866219805213e-02  1.0640950422394662e-02 -1.4430373148463474e-01 3.5745005834440895e-02  1.0273987901779696e-02 -1.3358578563749507e-01 3.0328536446473046e-02  9.8937607689753553e-03 -1.3667958341259628e-01 3.1175729311194743e-02  1.0773852842125878e-02 -1.3000429267081129e-01 3.4658853748872946e-02  1.0458869342710913e-02 -1.3341323691970713e-01 3.5215271145306488e-02  1.1175581859234205e-02 -1.4173709425699579e-01 3.9134019780698026e-02  1.0949241644514720e-02 -1.2985483421555599e-01 3.8889622502794569e-02  1.1192408497395601e-02 -1.2616906089290936e-01 3.8643649034249695e-02  1.1622070662253684e-02 -1.3878783923083396e-01 4.2163934429932860e-02  1.1357092064445315e-02 -1.2591048846478087e-01 4.2394000408265686e-02  1.1538831366595139e-02 -1.2196960244881566e-01 4.2468632412031464e-02  1.1979578825182208e-02 -1.3538160892132164e-01 4.4993553884972219e-02  1.1677191716916840e-02 -1.2148498012931125e-01 4.5911248118378573e-02  1.1816264332357997e-02 -1.1730095872411914e-01 4.6331911122612077e-02  1.2242653623489757e-02 -1.3144266051868456e-01 4.7778230298694588e-02  1.1896906793232348e-02 -1.1645756495956729e-01 4.9620443859377458e-02  1.2023671657802203e-02 -1.1206295171403238e-01 5.0423812757001148e-02  1.2404205369401998e-02 -1.2690417342840590e-01 5.0694369848808853e-02  1.4289053050366157e-02 -1.4988639147291213e-01 4.3477672531439096e-02  1.4145621170555189e-02 -1.4808842687233853e-01 4.6336887324070389e-02  1.3905484630290848e-02 -1.4580023923056706e-01 4.8822594656424037e-02  1.3593240941778776e-02 -1.4298182116968880e-01 5.1053345561732064e-02  1.3227171047961221e-02 -1.3954962965130099e-01 5.3140219617304169e-02  1.2819140258476686e-02 -1.3536895828676693e-01 5.5201308962780415e-02  8.8983405107938372e-03 -1.5600711348954238e-01 4.2321813293431355e-02  9.4532420073293513e-03 -1.5665134642833359e-01 4.1751383951356601e-02  9.9137950221721716e-03 -1.5664816101391058e-01 4.1155860560844866e-02  1.0292109370036403e-02 -1.5611984270324408e-01 4.0438097644345736e-02  1.0592917151636055e-02 -1.5514965568038791e-01 3.9501334870573765e-02  1.0817948957772758e-02 -1.5378402815654230e-01 3.8224477735806540e-02  1.0967511499417208e-02 -1.5203773353294081e-01 3.6465797525960700e-02  1.0578470414489454e-02 -1.4359323604700247e-01 3.0330587218725037e-02  1.1133604809393230e-02 -1.4092636415709667e-01 3.4761648173077218e-02  1.1580142604003715e-02 -1.3798042743804692e-01 3.8594450251850938e-02  1.1935860630565915e-02 -1.3467917258731466e-01 4.2055101544015247e-02  1.2211376216200056e-02 -1.3094653190142322e-01 4.5331587422609773e-02  1.2409951339633201e-02 -1.2669970146311921e-01 4.8599035991915222e-02  1.2525970050993559e-02 -1.2182938152810513e-01 5.2007515028952185e-02  9.3849849074844772e-03 -1.5553886575047851e-01 4.3279159983740684e-02  9.8186635507183199e-03 -1.5633861135259169e-01 4.2310054598034288e-02  1.0172888478597972e-02 -1.5647978349732833e-01 4.1374542570228864e-02  1.0450393172048864e-02 -1.5610360515950408e-01 4.0359219524021418e-02  1.0643505853108063e-02 -1.5530360076658839e-01 3.9132861591283707e-02  1.0740630404498448e-02 -1.5413898973656370e-01 3.7540636722026927e-02  1.0733587751962599e-02 -1.5262417573299658e-01 3.5367807029709208e-02  1.4379907748540945e-02 -1.5548636580163624e-01 4.4794316333065923e-02  5.8050841095693192e-03 -1.2235262184690958e-01 1.3083798231979315e-02  6.2050495119087045e-03 -1.1826218974412515e-01 1.1418244643848949e-02  7.2693888897610269e-03 -1.3181195312148786e-01 1.9912012376961601e-02  8.0072326036865205e-03 -1.2795932268646235e-01 2.4892236761711903e-02  6.9062603013070843e-03 -1.1311562028256088e-01 1.6812136869601490e-02  6.5509562699666733e-03 -1.1759901604132246e-01 1.8306471387194292e-02  8.6846966082270542e-03 -1.2403598902027110e-01 2.9280071199333329e-02  7.5551288567523535e-03 -1.0816312623314994e-01 2.1657814572349332e-02  7.2506289606086727e-03 -1.1295906702270604e-01 2.2961849985035653e-02  9.2923206990143791e-03 -1.1991616510270579e-01 3.3319548760907175e-02  8.1554277158515081e-03 -1.0320416147845432e-01 2.6232006149142052e-02  7.8993122548611343e-03 -1.0825662859250831e-01 2.7317770023447881e-02  9.8198828407258763e-03 -1.1547886582127741e-01 3.7229778784144435e-02  8.7117285277643480e-03 -9.8070656515945195e-02 3.0763733466311845e-02  8.4906708817500884e-03 -1.0334147141585348e-01 3.1604477948424234e-02  1.0258547872575744e-02 -1.1061023883465111e-01 4.1220013862584157e-02  9.2281510950459923e-03 -9.2620809089959913e-02 3.5462803480135821e-02  9.0188807923485634e-03 -9.8082023860275702e-02 3.6029396356769258e-02  1.0605454480140747e-02 -1.0523735519542673e-01 4.5515693874116039e-02  9.7115824534848676e-03 -8.6721986488281624e-02 4.0518535079667475e-02  9.4640684077197217e-03 -9.2347618896062869e-02 4.0749708275009941e-02  2.9434747479236503e-03 -1.1125988737521066e-01 4.3523454780089411e-03  1.7263243773493289e-03 -9.5852834208429480e-02 -4.1728450229912275e-03  3.4689267987072676e-03 -1.0691722731586140e-01 3.0817691479797155e-03  4.2026136862731286e-03 -1.0105423671385669e-01 8.1605114486590705e-03  2.4130554145039441e-03 -8.9228007608722987e-02 3.2240270721341609e-04  3.7367409095986665e-03 -1.0582099217573085e-01 9.4902293446247812e-03  4.9278049174007370e-03 -9.5549329183947138e-02 1.2811225174610157e-02  3.1338007715197417e-03 -8.3127983955462378e-02 4.5500607826312236e-03  4.5235163371140285e-03 -1.0065901154225183e-01 1.4130950824550582e-02  5.6371745027852995e-03 -9.0159694523446132e-02 1.7285149809273717e-02  3.8680905701873130e-03 -7.7251963812623323e-02 8.7280067460595596e-03  5.2853338332769220e-03 -9.5556760004428018e-02 1.8542389839427839e-02  6.3248122968635164e-03 -8.4686722056404651e-02 2.1797385263392737e-02  4.6112645631344543e-03 -7.1386968074598572e-02 1.3034936317543315e-02  6.0118897867357498e-03 -9.0331878019275946e-02 2.2945584914997427e-02  6.9904392126237764e-03 -7.8974438655134205e-02 2.6544107397402195e-02  6.6941024684558335e-03 -8.4832127502950161e-02 2.7545281492084024e-02  3.6121302537315335e-03 -1.0152973519151416e-01 4.1802870884733226e-04  4.3054712165288304e-03 -9.5123703080067817e-02 5.3255040704461402e-03  4.9713911800138497e-03 -8.9194475993681230e-02 9.8712200531227284e-03  5.6303677455060682e-03 -8.3458392029663625e-02 1.4302599276920087e-02  6.2869487006419053e-03 -7.7702854023366560e-02 1.8817543611057010e-02  6.9506032167155453e-03 -7.1770117438517897e-02 2.3594567956747685e-02  5.9100177328903682e-03 -1.2966793975334745e-01 1.7248991008191654e-02  7.1095267409710897e-03 -1.3804927608758616e-01 2.3296276880439917e-02  7.9032208443322195e-03 -1.3503263198753171e-01 2.7792945434737624e-02  6.7033723259530007e-03 -1.2571352344436795e-01 2.2174675017162013e-02  8.6318960368981425e-03 -1.3181259157634359e-01 3.1702132666943245e-02  7.4471124340458779e-03 -1.2172516076829080e-01 2.6507876493728266e-02  9.2881598265609367e-03 -1.2832319842633669e-01 3.5237027718439208e-02  8.1286076223300342e-03 -1.1756501306267701e-01 3.0502397841540314e-02  9.8508128103215534e-03 -1.2447088745721964e-01 3.8587910655688562e-02  8.7315953611943505e-03 -1.1310884086322187e-01 3.4372971761846699e-02  1.0295350023454880e-02 -1.2014803128612742e-01 4.1939626354309464e-02  9.2369245684131417e-03 -1.0823551262580938e-01 3.8324972611379404e-02  1.0596299144661111e-02 -1.1521360732465971e-01 4.5508282179000964e-02  9.6246609026394529e-03 -1.0286203796998243e-01 4.2575949469596079e-02  7.5312357777130483e-03 -1.2602787112192759e-01 1.6973646072316141e-02  8.2015748034159133e-03 -1.2149161566434907e-01 2.2248318926441888e-02  8.8039015417297386e-03 -1.1700007144696178e-01 2.6940768493323025e-02  9.3424112090262201e-03 -1.1240255121709115e-01 3.1320228244804876e-02  9.8213872390003690e-03 -1.0755545166932472e-01 3.5612574117092934e-02  1.0249443565101608e-02 -1.0232731782165735e-01 4.0028173653551866e-02  1.0633058409161631e-02 -9.6608663273611922e-02 4.4763335438188036e-02  9.9929836379207739e-03 -1.3322186941506112e-01 2.3594438217832754e-02  1.0501535965820971e-02 -1.2935746424490940e-01 2.8795815086878059e-02  1.0911980433159385e-02 -1.2540729857142896e-01 3.3410723784877569e-02  1.1248097350738537e-02 -1.2124202753121320e-01 3.7679004943733732e-02  1.1521908770488963e-02 -1.1674365672520225e-01 4.1812267901554713e-02  1.1746731103316527e-02 -1.1180607291549269e-01 4.6006157848684816e-02  1.1929666207505999e-02 -1.0633802532663643e-01 5.0449431966151384e-02  6.4604154212293706e-03 -1.1343617300747387e-01 9.3499410254617721e-03  7.0939577823360481e-03 -1.0785314668266306e-01 1.4740832093246257e-02  7.6717589659276364e-03 -1.0254408615232748e-01 1.9665912330276213e-02  8.2087597851251536e-03 -9.7286801185802921e-02 2.4355392961642578e-02  8.7161068391246738e-03 -9.1901015902619954e-02 2.9035659108762359e-02  9.2119855085229640e-03 -8.6233756803321682e-02 3.3904925893612652e-02  9.7136341230971805e-03 -8.0156009823966853e-02 3.9173537817991343e-02  6.2715057958294433e-03 -1.4742703851982958e-01 2.9264390695531398e-02  5.8541114412124125e-03 -1.4197316598072124e-01 2.4698220483740912e-02  7.0124740706007729e-03 -1.4379781247224790e-01 2.7025227258092900e-02  7.8528086591227279e-03 -1.4151072580892690e-01 3.0788271790183491e-02  6.7446611200623575e-03 -1.3962157173551357e-01 2.8512181418242143e-02  7.1900213570877409e-03 -1.4582814171010949e-01 3.2236715822727018e-02  8.6209539184798085e-03 -1.3890109073496631e-01 3.4022838120288168e-02  7.5778430718162863e-03 -1.3696916930299036e-01 3.1790698990312179e-02  8.0340714635117796e-03 -1.4381586480149144e-01 3.4750012608913118e-02  9.3091815970321474e-03 -1.3593563403991130e-01 3.6895230803892440e-02  8.3314917143454872e-03 -1.3398028031174047e-01 3.4701276675601293e-02  8.7922765559936746e-03 -1.4139359957667191e-01 3.6922663378405017e-02  9.8957298300401744e-03 -1.3255512953510731e-01 3.9552313307272012e-02  8.9829788978903220e-03 -1.3058977665522384e-01 3.7388155986630769e-02  9.4456197654708626e-03 -1.3853387405144485e-01 3.8842524410492532e-02  1.0349687584095541e-02 -1.2867304832149348e-01 4.2128301014139523e-02  9.5007367852738330e-03 -1.2670277800448271e-01 3.9987741102343134e-02  5.9315470408991206e-03 -1.3640487010894095e-01 2.1070201084342936e-02  6.7708626027889454e-03 -1.3329069907847368e-01 2.5544421988607128e-02  7.5616514138216288e-03 -1.3000086288352949e-01 2.9428627303120323e-02  8.2809279988861860e-03 -1.2645635251065959e-01 3.2942430850648234e-02  8.9062480162234812e-03 -1.2255821317728145e-01 3.6273282007999223e-02  9.4086640359902461e-03 -1.1819432404108286e-01 3.9601370332258579e-02  9.7545364040885520e-03 -1.1323198212511609e-01 4.3134252960260383e-02  1.0617867647723617e-02 -1.2416697523110115e-01 4.4748462507454824e-02  9.841322531