<?xml version="1.0"?>
<VTKFile type="UnstructuredGrid"  version="0.1"  >
<UnstructuredGrid>
<Piece  NumberOfPoints="943" NumberOfCells="4059">
<Points>
<DataArray  type="Float64"  NumberOfComponents="3"  format="ascii">3.309510379629804 0.8863836409368193 2.616154815527406  3.444182813441553 0.9209586002677446 2.667203884134563  3.328980118271651 0.9521439490552337 2.762453947971372  3.332655598933088 0.8967213002316559 2.78851043660581  3.448401826589566 0.8642325253604897 2.690585360521831  3.31579258608076 0.8280953931305725 2.639930694748617  3.336298194938632 0.8413373348870876 2.81455400698196  3.452574480522336 0.80754298103268 2.713933865372631  3.322102618770432 0.7698559053450988 2.663701515376427  3.339910520426894 0.7859891466894402 2.840585789008104  3.456712043473359 0.750882338130715 2.737273256320213  3.328411795279227 0.7116554172552569 2.687465679565256  3.343493472723937 0.7306761786724061 2.866610772541831  3.46082049465365 0.6942531242978898 2.760607165345694  3.334688177644538 0.6534862464869524 2.711227281879887  3.347039831482192 0.6754069919168225 2.892629007199851  3.464900777326104 0.637659013888338 2.783938243179442  3.340883402761118 0.5953598670357796 2.734980830220038  3.350535924438287 0.6201925860512225 2.918629191040643  3.468950506189825 0.581140988175765 2.807258238499981  3.346915821363121 0.5372907205274948 2.758713401790215  4.830914772240143 0.8669951873710252 2.848470950943216  4.711095366839688 0.8344714265006634 2.808416188063085  4.770251871723918 0.9189382919576861 2.972087006599022  4.703312495378058 0.8887648500417146 2.785964952482801  4.778119940973102 0.8675761143008115 2.999323010154519  4.837928529660554 0.812963948594897 2.872056121445372  4.718864163875057 0.7801783953805086 2.830865595138155  4.785942263038891 0.8161982332003074 3.026530579640188  4.844962880415538 0.758942180829133 2.895621517956604  4.726585473682266 0.7258866725085849 2.853316758148127  3.183855021982071 0.9266916966011867 2.728975185596856  3.239595916759268 1.002106012142572 2.869780049231171  3.242634703182631 0.9484002630190136 2.898292522677149  3.189386137089473 0.8706620167084802 2.757012037780792  3.194936373316584 0.8146721391562888 2.785039328749702  3.24564902943293 0.8947284430644704 2.926789281089172  3.200478556964971 0.7587125935941077 2.813056172949324  3.248639770488599 0.841084093036562 2.95527783227224  3.205991414791407 0.7027836448635859 2.841069620471582  3.251601300209731 0.787467057677252 2.983757847202368  3.211446475162366 0.6468850656667584 2.869092265828673  3.254523002651907 0.7338816496550165 3.012227239516346  3.21676944213806 0.5910254165233325 2.897124200530571  3.257389477376745 0.6803333898725057 3.040686775433139  3.924235845684834 1.054631281481423 2.896407026829799  4.042648438318679 1.018677187878864 2.80291522239478  4.029734928942861 1.086480894916666 2.944184107613537  4.033581811572337 1.035450523225623 2.970238407666375  4.047032421962647 0.9656749557324483 2.826341469258864  3.927785224865167 1.003016755565553 2.922148426255673  4.051363953183974 0.9126517322100309 2.849739858872248  3.931274572950194 0.9513885441188332 2.947865002805727  4.037379158528795 0.9844007145567089 2.996288118415261  3.934733035938298 0.8997583137470264 2.973563971174869  4.055670271107773 0.8596259161615664 2.873116196267135  4.041152961911114 0.9333442221346975 3.022328649986522  3.938187963156937 0.8481354506971741 2.999251581215874  4.059975242076549 0.8066091746322046 2.896482761900796  4.044926575598378 0.8822876213032286 3.048360405467668  3.941666559112415 0.7965275955183193 3.024937364180309  4.064300864416618 0.7536103722465325 2.919855050203848  4.048724443084279 0.8312334234966833 3.074387343770027  3.945198747483074 0.744940545759847 3.050637823756019  4.068665734873053 0.700631522291109 2.943250376855835  4.052569985463395 0.7801836234384977 3.100417422232893  3.917567988818408 0.9895243592666594 2.76171074308338  3.922087497822786 0.9358718841143401 2.785146459244783  3.92654870632354 0.882200515798256 2.808540423514554  3.93097958570269 0.8285328957924153 2.831906957783342  3.935404964659423 0.7748816737466495 2.855261291474537  3.939847456323109 0.7212572559917418 2.878621369185009  3.944327511688839 0.6676594158387426 2.90201591724711  4.358478989280089 1.037284436718629 2.781353379484818  4.45230853778671 1.012400541590513 2.694290892315442  4.482284864998666 1.061905086215139 2.803104333200595  4.488601521213908 1.009480065210504 2.827862910145921  4.458541324074151 0.9568999751694327 2.713115379807013  4.363993185928181 0.9838375751784043 2.80413536624355  4.494947324322871 0.9570407877874865 2.852621502195785  4.464766785520603 0.9013826952036632 2.731914799427259  4.369487779399154 0.930373341240925 2.826899694305932  4.501308089077008 0.9045966431727638 2.877373319137379  4.470992650372068 0.8458677293861886 2.750704190563797  4.37497844968242 0.8769042331264161 2.849654950570768  4.477227408071798 0.7903615550608907 2.769487046624896  4.380477006225024 0.823438096001991 2.872403257802603  4.507673869629074 0.8521489698351448 2.902119536735071  4.483481045986071 0.7348668028986112 2.788268568055393  4.38599852936984 0.7699798820078559 2.895151403162465  4.514035553789819 0.7996978418786478 2.926865924930304  4.489751262828892 0.6793824297213956 2.807063911788437  4.391553746001064 0.716532185809617 2.917909467565603  4.520400245184372 0.7472433179061417 2.951627041262305  3.560434897967375 0.8726145473773337 2.481128775753542  3.594607238501702 0.8469055578849887 2.334883576455969  3.706376856012104 0.8739810427205204 2.433598346042467  3.711560646270068 0.8129018484560275 2.444223756241052  3.603720841959586 0.7838942477983135 2.340490675477463  3.567316497945888 0.8119638868023578 2.495410907469922  3.612825609746781 0.7209633243056661 2.346037668749796  3.574166530644203 0.7513618686579029 2.509657588532186  3.716577878573236 0.7518815353691248 2.454776067031997  3.580983437212224 0.6908012101870372 2.523892416115534  3.621903152389133 0.6581180763371084 2.351567636663879  3.721517206928818 0.6909008376255081 2.465309988041477  3.587767494232271 0.630283399295577 2.538124008672631  3.630941319481108 0.5953421404829822 2.357098876999284  3.726427137596251 0.6299744889264008 2.475843174794886  3.594510383249487 0.5698157095325015 2.552349433278836  3.639908698016319 0.5326575760000566 2.362637206459833  3.731358363973318 0.5691352719973563 2.486384712107461  3.601170731711666 0.5094292339679523 2.566570518575604  3.648736015206932 0.4700853276207325 2.368184946470569  3.736378821358559 0.5084502734845322 2.496946874957011  3.724370281775525 1.141282247703243 3.082711101866201  3.704081063170253 1.062356391008062 2.939199219735253  3.822384560095361 1.099806315808445 2.996032815519053  3.825412925076121 1.048949271364176 3.022795826828248  3.706968123709886 1.010837563877719 2.965983619177339  3.727026573158672 1.090783709578263 3.11052177784317  3.828381211514174 0.998084081419947 3.049547488054737  3.709793118079762 0.9593178684287758 2.992743592239803  3.729626638310848 1.040286956174908 3.138328061300475  3.831318955925492 0.9472196760542815 3.076287791341103  3.712585328409843 0.9078059984942044 3.019486152181014  3.732197460056686 0.9897968318171553 3.166126471285223  3.834251381274478 0.8963607685127712 3.103016720772792  3.715368143289176 0.8563072981058725 3.046215939620422  3.734762684313446 0.9393140643211506 3.193912245902549  3.83720413045812 0.8455098597451265 3.129737529124846  3.71816431234493 0.8048280998907978 3.072938506229869  3.737346177189691 0.8888375756289735 3.221682754786094  3.840206750118762 0.7946704576098146 3.156458887749065  3.721000676927003 0.7533737561695364 3.099668376551995  3.739976271795561 0.838365213967119 3.249438154501159  3.210601879748049 0.835509733660429 2.514573363730032  3.34290255657225 0.839990637507529 2.471713522390202  3.351598491880748 0.7782257343164107 2.489319065688067  3.220103168007693 0.7739816138681612 2.535717656657603  3.360370550837416 0.7165227767869893 2.506912655726519  3.229750395807351 0.7125073936418924 2.556870242848818  3.369159907701099 0.6548694261654322 2.524496668013365  3.239426685671219 0.6510644319093334 2.578021824333119  3.377913921416762 0.5932542606257767 2.542080416337595  3.249068624167983 0.5896477483208531 2.599179601266837  3.386569143991177 0.5316727873852849 2.559673668429884  3.258599008465749 0.5282475206830626 2.620353299402292  3.395030249935756 0.4701132864376824 2.57727185836777  3.267870960946247 0.4668209942185569 2.641540849578023  4.430686719128866 1.475875182254693 3.54300134515803  4.394279318787187 1.416210052499245 3.454013173467434  4.525939406320055 1.433381623113186 3.452600319701647  4.533413972678006 1.380908968682524 3.483711858823026  3.252207626418506 0.9196793074367959 3.09250719334383  3.115995800234012 0.8880590243216396 3.053622931827576  3.118677539236442 0.9537451500313532 3.167275811608131  3.113232870433986 0.9410834753000441 3.023750263422675  3.249870246320647 0.9719144654305467 3.063548501623789  3.120591502519848 0.9016425744719223 3.19754341266704  3.254523035092764 0.867466197179638 3.12145586944269  3.118731330681721 0.835059896707818 3.083487631378221  3.122476374307003 0.8495566650382377 3.227794342457984  3.25681578255324 0.8152750625951104 3.150391539117927  3.121428741313743 0.7820841059728256 3.113344276422415  3.124326101511409 0.7974774250651793 3.25802353414539  3.259076986023708 0.7631062938184803 3.179308910852404  3.124072895171965 0.7291285643152072 3.143193469611817  3.245124434881262 1.076455492413799 3.005605028218131  3.347662747127591 1.03347587099767 2.917401776827345  3.350263509551571 0.9809066375841948 2.945557665789177  3.247510140404717 1.024173560437458 3.034581711357327  3.352824897252879 0.9283543336480686 2.973694635986988  3.355357053277846 0.8758255227492013 3.001820954037063  3.357867031304811 0.8233188259820621 3.029937738503435  3.360358859624789 0.7708360498448086 3.058043801705015 
[...]
<PointData  Vectors="f_24"> 
<DataArray  type="Float64"  Name="f_24"  NumberOfComponents="3" format="ascii">2.1937459507696516e-02 -6.3938514678238106e-02 5.3637671306063913e-03  2.1431055027978152e-02 -6.9446085085659137e-02 9.5118189589603296e-03  2.2119453044621332e-02 -6.8019364348403291e-02 1.0522415308114390e-02  1.9812580625095607e-02 -6.8211346238442383e-02 8.9479778834700412e-03  1.9325679857374239e-02 -6.9440848693671717e-02 7.4613449810362938e-03  1.9750242508399664e-02 -6.3807001805486055e-02 3.3900285045676652e-03  1.7536971547806014e-02 -6.8114423703839078e-02 7.6250663139360185e-03  1.7228156695144090e-02 -6.9250671631523389e-02 5.8309024615991589e-03  1.7603704473684725e-02 -6.3556299855674139e-02 1.8648836478267939e-03  1.5290692151109512e-02 -6.7839575622395537e-02 6.3985860377936523e-03  1.5151436551854004e-02 -6.8991903560283077e-02 4.3667596257104683e-03  1.5497242124264047e-02 -6.3298607104990565e-02 5.3499032496209917e-04  1.3052616708532508e-02 -6.7485437789275335e-02 5.1034913213417379e-03  1.3089255979507381e-02 -6.8743104225843260e-02 2.8768117606714507e-03  1.3415561386807986e-02 -6.3109428664465408e-02 -8.0296963370901739e-04  1.0800963670019181e-02 -6.7130640597675068e-02 3.5812019765638285e-03  1.1040535980207348e-02 -6.8574692807489554e-02 1.1937075435800228e-03  1.1340176105738028e-02 -6.3062005377915301e-02 -2.3210795484704173e-03  8.5126047072232227e-03 -6.6850688450516879e-02 1.6783557540987070e-03  8.9909470868859143e-03 -6.8532775296592671e-02 -8.5901184343365085e-04  9.2564631201413217e-03 -6.3229901242489131e-02 -4.1728969809605018e-03  9.6901594570770917e-03 -1.1649023044625884e-01 2.3084158839762184e-02  9.4755539710440033e-03 -1.1087102925074035e-01 1.9699794606162061e-02  1.0401369394963722e-02 -1.1888637834721973e-01 2.8383199591221528e-02  1.1326624402723803e-02 -1.1088188972409464e-01 2.2026400302707496e-02  8.4203065683070479e-03 -1.1847965861736165e-01 2.6356207591730484e-02  7.8490801982035296e-03 -1.1637133385520314e-01 2.0467027313267994e-02  7.6061504614667068e-03 -1.1083592978492252e-01 1.7128124753375027e-02  6.3887200752932461e-03 -1.1807991751097809e-01 2.3847675538553929e-02  5.9755898658449000e-03 -1.1624570591675110e-01 1.7427894780323659e-02  5.6939435671613326e-03 -1.1082267674837322e-01 1.4163436394172892e-02  2.2813860367678681e-02 -6.2344777658042326e-02 7.0090633431645075e-03  2.2742600219681622e-02 -6.6880119432724192e-02 1.1538625060001147e-02  2.0255055952207855e-02 -6.7112328284210043e-02 1.0570554773884574e-02  2.0365590624687232e-02 -6.2548830308400930e-02 5.3992347882303553e-03  1.7990477668199219e-02 -6.2448374043963611e-02 4.1254276703738520e-03  1.7835078331122529e-02 -6.6948720001003645e-02 9.7274546198044421e-03  1.5657628563333713e-02 -6.2211568981535285e-02 2.9910637386212579e-03  1.5446923748242370e-02 -6.6532125747860646e-02 8.9049247471623665e-03  1.3334698852719108e-02 -6.1939235138477877e-02 1.8157423267201643e-03  1.3059259614265717e-02 -6.5953940804392416e-02 7.9723345747133804e-03  1.0980401717286977e-02 -6.1719711728336707e-02 4.2028837879483187e-04  1.0636554321907712e-02 -6.5283524725357645e-02 6.7908214717693049e-03  8.5597007668033066e-03 -6.1637984364350591e-02 -1.3797526568710807e-03  8.1557484500418432e-03 -6.4589984088846045e-02 5.2256367512867287e-03  1.9811984469743957e-02 -9.1022307800398536e-02 2.2976040080316843e-02  1.9108927747525654e-02 -9.2509189121345703e-02 2.2556490019403796e-02  1.9713974960999282e-02 -9.5505323866014194e-02 2.5223764341989054e-02  1.7574554148574523e-02 -9.5825693215814176e-02 2.4450572916698780e-02  1.7047274621397178e-02 -9.2856253432525931e-02 2.0676725170176220e-02  1.7700716664348217e-02 -9.1360002784036817e-02 2.1833915375113418e-02  1.5010617685340578e-02 -9.2860586820591132e-02 1.9047314085805275e-02  1.5604864267505125e-02 -9.1293445227919032e-02 2.0847681977537193e-02  1.5454116796870119e-02 -9.5676156952904629e-02 2.3751613410624088e-02  1.3523575149091228e-02 -9.0924966024733031e-02 1.9872317851988376e-02  1.2987416744104009e-02 -9.2664158537970151e-02 1.7501553756845246e-02  1.3345240191927099e-02 -9.5204752177627472e-02 2.3032797082718440e-02  1.1441942632234383e-02 -9.0344725850822261e-02 1.8775846649441378e-02  1.0970153435139733e-02 -9.2333158845993121e-02 1.5868212319042816e-02  1.1234433121372407e-02 -9.4482146877084686e-02 2.2168993667197604e-02  9.3580581983136128e-03 -8.9620718640419220e-02 1.7428720621187714e-02  8.9519862780666308e-03 -9.1941535520623285e-02 1.4002138753497539e-02  9.1156000999240479e-03 -9.3572877291759296e-02 2.1055022242274159e-02  7.2654094406753005e-03 -8.8807066354733788e-02 1.5698015392036180e-02  6.9219214782276547e-03 -9.1562948859366264e-02 1.1772968272841624e-02  6.9827926340333317e-03 -9.2519771841465578e-02 1.9586690837684911e-02  1.9269567012351045e-02 -8.7095354767044345e-02 1.9501066822234417e-02  1.7254612236465620e-02 -8.7357464962144651e-02 1.7457122554732894e-02  1.5250769644472719e-02 -8.7363878291019423e-02 1.5731824652153264e-02  1.3257623846232037e-02 -8.7191011817533220e-02 1.4116806512138558e-02  1.1270483775122568e-02 -8.6926996789545116e-02 1.2427498549858569e-02  9.2845235416172296e-03 -8.6649124406856945e-02 1.0502140867814924e-02  7.2887282562642368e-03 -8.6452754540226523e-02 8.2052570136684731e-03  1.8130063590132837e-02 -1.0220101039397009e-01 2.6472496143161030e-02  1.7342012504117665e-02 -1.0172539380360543e-01 2.4718686827831977e-02  1.8043056513686349e-02 -1.0709217353872535e-01 2.9061958316534423e-02  1.6019275583765081e-02 -1.0772312723723329e-01 2.6957029847659516e-02  1.5335528845417612e-02 -1.0183088282823770e-01 2.2013578041568650e-02  1.6091773049552588e-02 -1.0261308712914226e-01 2.4237539020828827e-02  1.4015460956652431e-02 -1.0796329364002281e-01 2.5160962338005900e-02  1.3388291788861143e-02 -1.0180019201477404e-01 1.9651967847377133e-02  1.4067720345716874e-02 -1.0270419066582941e-01 2.2330713659107587e-02  1.2022420618748629e-02 -1.0794053267380493e-01 2.3441328934275491e-02  1.1459117274739795e-02 -1.0166570593262965e-01 1.7405060160590641e-02  1.2050675861326802e-02 -1.0258699489990049e-01 2.0505285934117653e-02  9.5366493807217800e-03 -1.0147909651851550e-01 1.5096343066846072e-02  1.0035421838012090e-02 -1.0234988494569937e-01 1.8589871220181239e-02  1.0019307778100952e-02 -1.0774310692166923e-01 2.1605207583361749e-02  7.6065567952371873e-03 -1.0131217377192747e-01 1.2593141441525520e-02  8.0107773168290198e-03 -1.0206812983404012e-01 1.6436823755743506e-02  7.9969264522087753e-03 -1.0747722967261480e-01 1.9497863174197209e-02  5.6617515895228156e-03 -1.0123688330063052e-01 9.7987347112108263e-03  5.9774505720018353e-03 -1.0179964903204534e-01 1.3929035394129194e-02  5.9500081995196462e-03 -1.0724426861342562e-01 1.6967663930099526e-02  2.0586317578018421e-02 -6.7711048915644140e-02 3.6682843506843006e-03  2.0211408731205378e-02 -6.4966919535667716e-02 -2.8747946932480366e-03  1.9607835800367342e-02 -7.0009949006841571e-02 3.3148376545926350e-03  1.7901620641233993e-02 -6.8810571874182325e-02 1.2787228501681869e-03  1.8565557505364042e-02 -6.3340147275189204e-02 -4.2067588591294938e-03  1.8743838102121518e-02 -6.6833980398265699e-02 1.5816994804533041e-03  1.7024402921952231e-02 -6.2192700161505160e-02 -5.1658548872642249e-03  1.6936270891369384e-02 -6.6127187030949816e-02 -6.8197164932729513e-05  1.6212803241929159e-02 -6.7905743943276933e-02 -3.3486379049912544e-04  1.5169129497173871e-02 -6.5624691615075628e-02 -1.4851992708496901e-03  1.5554975601148296e-02 -6.1457674813267221e-02 -5.9689294366025523e-03  1.4581316265788801e-02 -6.7257587169687480e-02 -1.7663211284746354e-03  1.3447255146212209e-02 -6.5325579715895823e-02 -2.8896231857414435e-03  1.4154324259848748e-02 -6.1068958911804687e-02 -6.7817986167346186e-03  1.2982024277867321e-02 -6.6860269416855800e-02 -3.1936901453054290e-03  1.1767217278617313e-02 -6.5259603244875730e-02 -4.4232148568032559e-03  1.2828258133590431e-02 -6.1014971726566822e-02 -7.7204257909696027e-03  1.1415842318587190e-02 -6.6729787769415266e-02 -4.7577185370922728e-03  1.0129357101079541e-02 -6.5446959017993328e-02 -6.2209326064277008e-03  1.1583619794833383e-02 -6.1305505111280328e-02 -8.8740819596892662e-03  9.8807978327634105e-03 -6.6909831480565202e-02 -6.5706984121145949e-03  2.0660023930132550e-02 -8.5409131596143120e-02 2.0961774945290713e-02  2.0610373380799730e-02 -8.4291214979688708e-02 2.0277678756209061e-02  2.0354416714802454e-02 -8.8925715035669678e-02 2.2543053743036532e-02  1.8175404444183439e-02 -8.9038165772084732e-02 2.2302001089398137e-02  1.8441271998628481e-02 -8.4501845146286586e-02 1.9597156751457161e-02  1.8429332603760087e-02 -8.5155129464824703e-02 2.1518561120000342e-02  1.6025071999319858e-02 -8.8706677105786058e-02 2.2052783164485525e-02  1.6289249987605951e-02 -8.4292489717509037e-02 1.8982297852376723e-02  1.6234566537879854e-02 -8.4484604650323730e-02 2.1942548159989340e-02  1.3886851054960703e-02 -8.8035170053169839e-02 2.1726022130178844e-02  1.4150066208254644e-02 -8.3771222263085116e-02 1.8335032293462949e-02  1.4057353345909436e-02 -8.3473877657741752e-02 2.2225154519049817e-02  1.1751900637186136e-02 -8.7093199022625759e-02 2.1248104621121009e-02  1.2014590657550433e-02 -8.3014746145138013e-02 1.7550526492371349e-02  1.1883259870845722e-02 -8.2164963169679861e-02 2.2343995064289624e-02  9.6102995244561860e-03 -8.5922153695075831e-02 2.0532909704223806e-02  9.8736394748464660e-03 -8.2075303610706488e-02 1.6515085140473611e-02  9.6976912576555423e-03 -8.0570034231949986e-02 2.2262194473468649e-02  7.4546038276164933e-03 -8.4537391981271665e-02 1.9483134002547645e-02  7.7178973944774052e-03 -8.1004154830347355e-02 1.5107087882816993e-02  7.4820559906998091e-03 -7.8669515306237475e-02 2.1927460891481600e-02  2.2064075803233892e-02 -5.8832719934792457e-02 -4.5578262127490528e-04  2.1534219419035803e-02 -6.1641963007231487e-02 2.2003961664985695e-07  1.9559514130160202e-02 -6.0846337589565945e-02 -1.8246177166062153e-03  1.9922429756233102e-02 -5.8259837546257319e-02 -2.2559567771477692e-03  1.7639811409270810e-02 -6.0223146784087793e-02 -3.1645647527368324e-03  1.7854815018182372e-02 -5.7787405402920204e-02 -3.5364000333677841e-03  1.5779384667839097e-02 -5.9796429200078501e-02 -4.2780530761823074e-03  1.5842312740906358e-02 -5.7462261501761737e-02 -4.5799987117102082e-03  1.3970923683485716e-02 -5.9587755788981199e-02 -5.3640452964606091e-03  1.3870104491912040e-02 -5.7322631669942913e-02 -5.5982771036056410e-03  1.2210337778881130e-02 -5.9625741676546072e-02 -6.5805694909293489e-03  1.1925334631757038e-02 -5.7410163436953376e-02 -6.7509675997193524e-03  1.0504003761390442e-02 -5.9949663091734579e-02 -8.0594961910054851e-03  9.9966490402543153e-03 -5.7761318921110846e-02 -8.1548307924711547e-03  1.9408150120225790e-02 -8.6181564505700387e-02 1.3641501262373417e-02  1.9845662953946575e-02 -9.2989616635720210e-02 1.8261554806088605e-02  2.0005946973910047e-02 -9.7881681085562403e-02 1.9738252630884551e-02  1.7501015189815266e-02 -9.5231593480967561e-02 2.4071953898377758e-02  1.5247237055445458e-02 -6.6996089421437352e-02 1.2843709201699020e-02  1.5634163062523378e-02 -6.1820816555782331e-02 9.1878469765818947e-03  1.5341018176375712e-02 -6.0752157860941160e-02 1.1644768604591285e-02  1.8153008309212584e-02 -6.2434861755495299e-02 9.5953792599468395e-03  1.7658692304508505e-02 -6.7724459551530419e-02 1.3057199617562965e-02  1.2843502128086052e-02 -5.9545868651024854e-02 1.1598977581778471e-02  1.2834477595419086e-02 -6.6031382800237112e-02 1.2479376585033310e-02  1.3116201368125770e-02 -6.1009262006218354e-02 8.6467212050020097e-03  1.0301257088433033e-02 -5.8113625739663152e-02 1.1354663576611693e-02  1.0382542063886056e-02 -6.4860816342932961e-02 1.1890543065933939e-02  1.0548316684817720e-02 -6.0047468160078034e-02 7.8752009006619224e-03  7.6659003505401445e-03 -5.6442704751745398e-02 1.0871776171116844e-02  7.8571069154528828e-03 -6.3482268961412444e-02 1.0992163712265295e-02  7.8795911878218952e-03 -5.8946075005474198e-02 6.7491805970983417e-03  2.2627950544759915e-02 -6.8195039309727964e-02 1.3255492726446499e-02  2.2217338472861104e-02 -7.1479591927863573e-02 1.4296065653784527e-02  1.9821644412236158e-02 -7.1666403885475516e-02 1.3572621451642139e-02  2.0106709629635972e-02 -6.8155305433084748e-02 1.3177541614259344e-02  1.7479430927340178e-02 -7.1451925303859534e-02 1.2940718760251190e-02  1.5161888707933478e-02 -7.0956176866133855e-02 1.2291449388772186e-02  1.2844993268560107e-02 -7.0256953864415883e-02 1.1517641076556130e-02  1.0505620657386101e-02 -6.9410377264700451e-02 1.0499820312101010e-02  8.1194994641955540e-03 -6.8451495286966257e-02 9.0888296867889899e-03  2.0158246256850060e-02 -9.9541944506081864e-02 2.6480903442096731e-02  2.0118271425681081e-02 -1.0540656282239182e-01 2.9105913774947326e-02  2.0238924343056013e-02 -1.0076204477574352e-01 2.6027795553342722e-02  1.7902417968040294e-02 -9.9924195039527569e-02 2.7994899719585201e-02  1.7851220407041884e-02 -1.0527089644758850e-01 2.9983398206890992e-02  1.7896088318148755e-02 -9.9161177281623852e-02 2.7596138565112782e-02  1.5620285265584595e-02 -9.8695259300344979e-02 2.9657557809201832e-02  1.5628946167859224e-02 -1.0464460854955807e-01 3.0702666881949611e-02  1.5672773356577123e-02 -9.8345188229315650e-02 2.8514159475412127e-02  1.3353018495390804e-02 -9.7104746071964815e-02 3.1086265466856278e-02  1.3412821169889164e-02 -1.0360968240541017e-01 3.1254885214321855e-02  1.3463102870172678e-02 -9.7155381404168323e-02 2.9255708688071008e-02  1.1067571265164769e-02 -9.5152935683135070e-02 3.2336534531161226e-02  1.1174628092083586e-02 -1.0221005882556110e-01 3.1617956439319875e-02  1.1241926615578690e-02 -9.5622811266358312e-02 2.9823493202832972e-02  8.7295468045279576e-03 -9.2806184734483640e-02 3.3450294487511398e-02  8.8837558307050830e-03 -1.0045724121978884e-01 3.1750938462445290e-02  8.9831167261823271e-03 -9.3742822992736966e-02 3.0200036510024217e-02  6.3060416844596063e-03 -9.0002357854363765e-02 3.4459998440140582e-02  6.5051820596676311e-03 -9.8338207553610391e-02 3.1596947745281961e-02  6.6588892123322545e-03 -9.1457495327192453e-02 3.0345436628577815e-02  1.8380484661769517e-02 -8.0685541246792267e-02 1.2260189652419472e-02  1.7807414715659192e-02 -8.3801457024977502e-02 1.3230379590171140e-02  1.8572401780997262e-02 -8.7118992112317606e-02 1.7801854265753494e-02  1.6608433835144338e-02 -8.7213594947259998e-02 1.5264521912801091e-02  1.5890917282445322e-02 -8.3235715720125239e-02 1.0535126892408852e-02  1.6505816669979866e-02 -8.0161963446826523e-02 9.6652701164574913e-03  1.4663776604070831e-02 -8.7127576217613911e-02 1.3152304384301261e-02  1.4051783780092083e-02 -8.2786653305948490e-02 8.2983232226000753e-03  1.4663527406584016e-02 -7.9715097832528614e-02 7.5268271559721343e-03  1.2744860869817156e-02 -8.6982992823047611e-02 1.1215895831134871e-02  1.2253358561506578e-02 -8.2454998878273303e-02 6.2359005500398339e-03  1.2843750301766280e-02 -7.9352040307191701e-02 5.5575105246127897e-03  1.0837288049462761e-02 -8.6847360518937239e-02 9.2522515641327782e-03  1.0473875312503171e-02 -8.2258908824983420e-02 4.1539607651840298e-03  1.1037260125542141e-02 -7.9102666731389534e-02 3.5588075520947221e-03  8.9296176229518263e-03 -8.6778129116105426e-02 7.0849078953790874e-03  8.6956036655003541e-03 -8.2234097987016752e-02 1.9063435571508081e-03  9.2400142311592683e-03 -7.9012133506166676e-02 1.3781539398545427e-03  7.0087116422087679e-03 -8.6840636365447574e-02 4.5190288658429612e-03  6.9084409491683490e-03 -8.2437552445219123e-02 -6.1831386548736223e-04  7.4557582638902949e-03 -7.9166190395122488e-02 -1.0810193158019104e-03  1.7528192245881789e-02 -9.4097434398166507e-02 2.0074209736205152e-02  1.5558245482321471e-02 -9.3945798124159194e-02 1.7346496283549340e-02  1.3624676614722281e-02 -9.3734112951828819e-02 1.4980767437479227e-02  1.1719259351651055e-02 -9.3514195397045655e-02 1.2759749674897835e-02  9.8281187767799739e-03 -9.3320939637554362e-02 1.0504080823654545e-02  7.9392537495163434e-03 -9.3199767974991715e-02 8.0680781978303209e-03  6.0522372400417289e-03 -9.3215232111323307e-02 5.3272349517836208e-03  1.9480148848307989e-02 -1.0464635377068440e-01 2.9258516998191372e-02  1.9663066310715113e-02 -1.0964092279458965e-01 3.1428742228560964e-02  1.7481731323426231e-02 -1.1005140673526032e-01 3.1238613372794148e-02  1.7324351292403239e-02 -1.0506377059070662e-01 2.8701385888885905e-02  1.5338463898136060e-02 -1.0992100359752274e-01 3.1050794355895854e-02  1.5189607592039649e-02 -1.0497899606047945e-01 2.8212434398572111e-02  1.3197766700450779e-02 -1.0937270611860639e-01 3.0774099220645501e-02  1.3059206405484703e-02 -1.0451315242999959e-01 2.7678939553350913e-02  1.1031837309149466e-02 -1.0849017686704251e-01 3.0311888307763584e-02  1.0915487717115441e-02 -1.0375123642859979e-01 2.6989028806491330e-02  8.8129638736501141e-03 -1.0733239468949350e-01 2.9553606432210357e-02  8.7408249564352621e-03 -1.0276219605624086e-01 2.6014109691590622e-02  6.5146034369569427e-03 -1.0594193423252461e-01 2.8373091214013577e-02  6.5167384696357012e-03 -1.0160127347511043e-01 2.4591810646980614e-02  2.0056729095487523e-02 -8.5653062422054588e-02 2.0063479035282290e-02  1.7970271415071366e-02 -8.5978974885377674e-02 1.8614848614596745e-02  1.5895326510835365e-02 -8.5941881623695024e-02 1.7380173338727337e-02  1.3830590013450576e-02 -8.5644412693176297e-02 1.6203880653867034e-02  1.1770488097258884e-02 -8.5179526948763726e-02 1.4929572802794069e-02  9.7101109984120120e-03 -8.4620784092059698e-02 1.3404915606238499e-02  7.6469143876410958e-03 -8.4037025049747902e-02 1.1453743931221422e-02  1.2072722720589043e-02 -6.1439412991089244e-02 -8.9148999361333137e-03  1.4571275064001637e-02 -5.7926663682789634e-02 -9.9644380123278756e-03  1.9912297726667354e-02 -1.0195609446461441e-01 2.8036064319964270e-02  1.7712348720860627e-02 -1.0203641864501158e-01 2.8261627164191352e-02  1.5531664132918165e-02 -1.0164192808017587e-01 2.8420608323699966e-02  1.3360813683323269e-02 -1.0085626540631761e-01 2.8471600882026316e-02  1.1179381242241325e-02 -9.9746691039743929e-02 2.8354917972565841e-02  8.9687165798085083e-03 -9.8351299475976359e-02 2.7990271631219001e-02  6.7079978152786235e-03 -9.6687662248121906e-02 2.7255829171609531e-02  2.0119701378013520e-02 -9.4152196802467558e-02 2.3056519283785142e-02  2.0218902357995918e-02 -9.3410489042550199e-02 2.3980182883690991e-02  1.7986519759926742e-02 -9.2940883170562275e-02 2.5080886254090853e-02  1.7811903547613396e-02 -9.3017065412646135e-02 2.5247621341427693e-02  1.5778641724905940e-02 -9.2062650116589706e-02 2.5982203815685556e-02  1.5548315695910997e-02 -9.1555524859064388e-02 2.7110809697179290e-02  1.3588174197369704e-02 -9.0826977709999937e-02 2.6711020139408320e-02  1.3304542977572475e-02 -8.9776210305784060e-02 2.8731195549302931e-02  1.1395573341375396e-02 -8.9261826401834263e-02 2.7274307057626471e-02  1.1052747492073776e-02 -8.7665568419399001e-02 3.0187350236511437e-02  9.1804510371689043e-03 -8.7363832088616658e-02 2.7661937066796722e-02  8.7618087353100067e-03 -8.5178965868573542e-02 3.1548118224981957e-02  6.9147986641838353e-03 -8.5102496971790356e-02 2.7835953059995359e-02  6.3912349254624367e-03 -8.2236588461705770e-02 3.2888634717562017e-02  8.6385915786586897e-03 -1.0745810750908164e-01 1.4907534880710628e-02  6.9260588222438239e-03 -1.0737053393725514e-01 1.1952029594383120e-02  5.2129288727953554e-03 -1.0740842473194939e-01 8.6857411968744112e-03  2.0367391379309440e-02 -8.7546355655953284e-02 2.1282106001827200e-02  2.0130345698763295e-02 -8.8889858663156684e-02 2.0977117623158723e-02  1.7850455402286584e-02 -8.7669768771219958e-02 2.3126564838621275e-02  1.8119168693001800e-02 -8.6818139729434016e-02 2.2713025308959300e-02  1.5620273611379206e-02 -8.6146540906229613e-02 2.4951643773178281e-02  1.5915767765824297e-02 -8.5722740649793572e-02 2.3887559896284629e-02  1.3411194757802388e-02 -8.4330117372716062e-