<?xml version="1.0"?>
<VTKFile type="UnstructuredGrid"  version="0.1"  >
<UnstructuredGrid>
<Piece  NumberOfPoints="963" NumberOfCells="4046">
<Points>
<DataArray  type="Float64"  NumberOfComponents="3"  format="ascii">11.46918238537791 3.73144422164939 3.690194489027493  11.34371061177841 3.833511991213953 3.624466178810795  11.35291028153968 3.700808976165242 3.712626405680792  11.35681082491192 3.740928279920273 3.781021273376167  11.34473509392808 3.881579040355123 3.687341419570479  11.47180675023099 3.772836754733573 3.76066206336606  11.34547945836829 3.930155655795188 3.750051684343204  11.47404260221692 3.814443242983587 3.831407470748881  11.36022369092216 3.781632713248555 3.849542419029982  11.34618252976586 3.978959755774821 3.81278426391396  11.47599470384265 3.856380046820278 3.902415013121464  11.36348271973778 3.822643717379771 3.91824786588638  11.34684031348935 4.027945674179016 3.875607689522013  11.47789784378288 3.898645463317317 3.973709511716842  11.36675242175493 3.863833160843714 3.98721199949969  11.47965987768687 3.941261307144691 4.045192685947126  11.34740185876545 4.077055397616475 3.938712801316399  11.37004611918152 3.905134767778785 4.056456018808102  11.48088569169225 3.984144492222966 4.117032307301804  11.34791824705297 4.126127915275148 4.002179110151451  11.37316019227145 3.946266847151567 4.126251059751003  10.10045521657062 3.293531735918288 3.825672093657032  9.999230122857304 3.338935986229512 3.810729469843685  9.994608010491566 3.225259736244798 3.855491712405533  10.00328720448549 3.243528652932193 3.919760468420326  10.00404089133932 3.364408668619846 3.872219962209264  10.1040087490871 3.313722129144391 3.889571991261783  10.01176718085974 3.261617343990179 3.984158431946041  10.00867100552684 3.389730705202493 3.933875881713112  10.10739282852106 3.333746126972152 3.953620347215611  10.02017767936987 3.279636607614367 4.048637589784755  10.01324026731882 3.415010847291644 3.995624725730937  10.11072689706094 3.353724727905309 4.017766154144434  10.02860884934516 3.297634790674067 4.113166503951819  10.01784198890073 3.440294933427788 4.057427395824183  10.11408566871473 3.37371346543202 4.081993663837004  10.03714507755204 3.315637275164977 4.177727736049881  10.02256601064767 3.465601877383448 4.119267409944608  10.11754272014504 3.393758414603044 4.146333550073638  10.04591182118902 3.333713936424501 4.24230775208205  10.0274831095871 3.491010323740006 4.181202787987784  10.12117405315929 3.413916307591572 4.210831668926923  9.893096170225924 3.330077343770696 3.833672421559524  9.905774755572454 3.356428025994557 3.894331500217075  9.918170480203765 3.382655957839717 3.955147568735568  9.930475934842628 3.408841909501477 4.016034100584051  9.942793908941693 3.435019784023454 4.076962643743848  9.955226458833868 3.461218868689701 4.137926192204388  9.968088342313413 3.487478009283688 4.198904696657757  11.2460374211805 3.753234248156851 3.688371533731913  11.246950230679 3.796984388653835 3.752457297276558  11.24739810228192 3.841478305703868 3.816401638955701  11.24782373449721 3.886212732215935 3.880458645456128  11.24837716116403 3.931070738069276 3.944705613065913  11.24901263347475 3.975936109096617 4.009241594164979  11.24965736812706 4.020500473484151 4.074327679052863  11.23488067840873 3.181947927377417 4.119538649159544  11.36139073162702 3.121656749519426 4.109976076527269  11.23921129221637 3.002344781110382 4.104050438440328  11.23222857827469 3.180646150449876 4.041434083969869  11.35667077794471 3.122992841876151 4.031007269388716  11.24234667037797 2.99384081514369 4.18127299065784  11.2377756742007 3.182972219798195 4.198169367651423  11.36633527582819 3.120105591611802 4.189550292673322  11.24587211410469 2.984989219893052 4.258998770081665  11.24107425390007 3.183676113235569 4.277322800640301  11.37166941232595 3.118322870106639 4.269763176705788  11.25008938314555 2.975803801660739 4.33712249278377  11.2449656447581 3.183972191623649 4.356978592369575  11.37766425104687 3.116215873987768 4.350706065646009  11.47206802735888 3.281571553081779 3.858209434965001  11.34074641460891 3.387181987332938 3.84588647698514  11.35500450917771 3.238260676811364 3.872873545626046  11.36156460657662 3.245856584399645 3.95084202431302  11.34706285000672 3.407076371554694 3.922010706913197  11.47947433031264 3.292928636974558 3.937640768831663  11.48685856854962 3.30430084716357 4.017578788165071  11.35299796752508 3.427378229879045 3.998703022342482  11.36792484280101 3.253659195871822 4.029509765246524  11.49424574789093 3.31575000169321 4.098033864884108  11.35879376370454 3.447772712114262 4.075858170172287  11.37436242580762 3.261375564357332 4.108759290271545  11.50167921392777 3.327215520648995 4.178986788607098  11.36462954089132 3.468097324999603 4.15350362148506  11.38094561419627 3.268938980285742 4.188527550170105  11.50921111185247 3.33860826150489 4.260591420184443  11.37072949462245 3.48819328855428 4.231714862573078  11.38782925334891 3.276286809060495 4.26887902831423  11.37735441341649 3.507996117335765 4.310502272003195  11.51730762033774 3.349846875835158 4.343316699955087  11.39533624570067 3.283346168554954 4.349872971761497  11.10128810863083 3.167616347254959 3.890210656066237  10.99768839394744 3.236201096457173 3.882692402997097  11.01264015688984 3.103512938842689 3.880227554981657  11.00681124425663 3.099437675137855 3.953230799629381  10.99156075224353 3.240678136461127 3.956419494312618  11.09833586354203 3.167599747574433 3.965380242030613  11.00014887612324 3.09564388716859 4.026854877791121  10.98470045859888 3.245594588665201 4.030631441065367  11.09469812453957 3.167873355485007 4.041253344569966  10.99340484624467 3.091670569349452 4.100963747960155  10.97784672239451 3.250376814430231 4.105295344384887  11.09111940942176 3.167922446066708 4.117654828260862  10.98683049450282 3.087443271307842 4.175488334763539  10.97117607261415 3.254936975470192 4.180366036948178  11.0877916528414 3.167681597412376 4.194517333025276  10.98052669585031 3.0829493174169 4.250367529772609  10.96475212831028 3.25925504230042 4.25579375185621  11.08479451560887 3.167119401114933 4.271783123578453  10.97454505473578 3.078172456116209 4.325538612496379  10.95857347735059 3.263313567831136 4.33153176767031  11.08221838920974 3.166201316830718 4.34936226946498  11.22027256534307 3.40222901225823 3.85454117254729  11.10646757849812 3.449300911462444 3.847526579787437  11.12816760235449 3.300719467809368 3.88211795634372  11.12831729586418 3.312382080016084 3.957410545420423  11.10667032579176 3.474435834057848 3.919497229380423  11.22508676287257 3.423093684747557 3.929043891133441  11.12788672981287 3.324540546424619 4.033326386387512  11.10620822668665 3.500203122043558 3.991812209566691  11.22932654476267 3.444509010139467 4.004039534416878  11.12751858140675 3.336559236704844 4.109780686064419  11.10567604691895 3.526019293577355 4.064523855388624  11.23347257611505 3.466007375020362 4.079503782722763  11.12736677405303 3.348343991980814 4.186686156153021  11.10533847834396 3.551670037266237 4.137667848234967  11.23778983842065 3.487322875493047 4.15544533091413  11.12753611581866 3.359859673118375 4.263941351153577  11.10528348545215 3.577127065984915 4.211210022139908  11.24243611324325 3.508424579682648 4.231867231824618  11.12813036138452 3.371073283511951 4.341412006902889  11.10561566951118 3.60238570524308 4.285094363195813  11.24761151437109 3.529301308677793 4.308722205060391  11.33833691247257 3.606449898726171 3.765428245767453  11.22737042915379 3.651319631365714 3.745762915125434  11.24501673406783 3.514393842378047 3.815030730490832  11.2494863354982 3.544466093569929 3.886844892315334  11.22967829200146 3.68924190319141 3.812944655494883  11.34341226225927 3.642117170971847 3.8360626872306  11.25335836328585 3.575163964777782 3.958940426505383  11.2313585020569 3.727969754621862 3.88019942862092  11.3479480184488 3.678338840373875 3.906863352158182  11.25701621002787 3.606080972148116 4.031346210269246  11.2328706258029 3.767034542358842 3.947660464179648  11.3522103071009 3.714888153531346 3.977921198182944  11.26077022373748 3.636923988621573 4.104185629210338  11.23452846260831 3.806143300636851 4.015450352149493  11.3564973264638 3.751515802618091 4.049388909058175  11.26478455745907 3.667586407845545 4.177494266261454  11.23641587419255 3.845196745526386 4.083531442332861  11.36085872654446 3.788151871485925 4.121336943976075  11.26922531575589 3.698012872189707 4.251240888311938  11.23846742649318 3.883940717901376 4.152075690308184  11.36543766038788 3.82463596333 4.193943880873625  11.2484879794237 3.292781410738197 3.87676485721799  11.25391051909211 3.305787681231517 3.953091198831205  11.2589458857849 3.319260493462451 4.030111769035293  11.26400520847206 3.332660905387012 4.107664491043499  11.26928910858101 3.345818489521982 4.185709558926394  11.27491539398902 3.358744322675563 4.264236040252678  11.28110530232843 3.37139824588056 4.343183179080557  11.11357531471332 3.021541592705498 4.104690842319654  11.11076467463587 3.013622769508598 4.180608982433681  11.10833633596535 3.005385522218571 4.256904058196389  11.10640862693329 2.996835461749688 4.333431198721572  11.12972298639628 3.559160763293529 3.799701555511974  11.13157586993024 3.592676465822859 3.867964576162187  11.13273226985218 3.626998075786641 3.936413773506048  11.1337299115799 3.661546132854512 4.005170182272516  11.13490614898046 3.696004165112172 4.074329246551769  11.13631446178138 3.730310265307658 4.143843158498667  11.13808670488373 3.764350715728959 4.213705755506349  11.02592719204289 3.356927700447487 3.871529562720231  11.02074413812643 3.372527044954023 3.944757657083393  11.01491273544522 3.388642555400844 4.018418868626366  11.00910022103363 3.40469931224681 4.092529665098298  11.00349587504219 3.420561977145282 4.167050727569352  10.99812914900095 3.436212546924387 4.241926036529883  10.99296280228038 3.451632859702217 4.31706724573
[...]
<PointData  Vectors="f_24"> 
<DataArray  type="Float64"  Name="f_24"  NumberOfComponents="3" format="ascii">-4.1242068259193711e-04 8.6378494650214200e-04 -9.2276910127132904e-04  -4.1021434564462571e-04 1.0154015344686262e-03 -7.3848393655368406e-04  -3.9123664851363363e-04 8.2706084216238010e-04 -9.1905611459779872e-04  -3.6390603668936817e-04 7.1694219531503675e-04 -8.7831394476215352e-04  -3.8340562771679106e-04 9.0840443763360028e-04 -6.7525100216789746e-04  -3.8106432265027620e-04 7.5039166834907833e-04 -8.7723521678818622e-04  -3.5564629614516068e-04 8.0909142165637351e-04 -6.1241238121927078e-04  -3.4843630303880855e-04 6.4473624262937799e-04 -8.3062433297481544e-04  -3.3456363583916698e-04 6.1518539862096206e-04 -8.3454909975629922e-04  -3.2783721794025746e-04 7.1324535387167745e-04 -5.4872686976601369e-04  -3.1538772928106390e-04 5.4325738959516018e-04 -7.8143606819417431e-04  -3.0454256187083272e-04 5.1784226012820209e-04 -7.8760949749621890e-04  -3.0036002555462011e-04 6.1832020688380382e-04 -4.8284773368379423e-04  -2.8250482337022220e-04 4.4294170675435304e-04 -7.2870709199660075e-04  -2.7460211964391412e-04 4.2190228044018153e-04 -7.3692274953070453e-04  -2.5039975804114602e-04 3.4139693531533082e-04 -6.7144898654028723e-04  -2.7344444286246411e-04 5.2180779577604413e-04 -4.1383531487069835e-04  -2.4537098354611555e-04 3.2492455142736610e-04 -6.8220753732326140e-04  -2.1941418703494363e-04 2.3629292493511600e-04 -6.0916029381784590e-04  -2.4742095419234117e-04 4.2203530505721567e-04 -3.4121316585828933e-04  -2.1746121127032725e-04 2.2466564810616130e-04 -6.2316064345287799e-04  -2.3783239349693542e-04 4.7146878592906126e-04 -1.0553412007615511e-03  -2.3830125137587753e-04 5.4962036839318706e-04 -9.7869857299475176e-04  -2.1871506976464073e-04 3.8909223867485474e-04 -1.0863380305225483e-03  -2.0614578396356328e-04 3.0975953223388300e-04 -1.1126469550804779e-03  -2.2126464237728482e-04 4.4685402160194571e-04 -9.8285402333909326e-04  -2.2094322886039740e-04 3.8161798819533551e-04 -1.0734513881692643e-03  -1.9175287339313188e-04 2.3826492331918421e-04 -1.1248093780694586e-03  -2.0384193272572664e-04 3.5333302032993088e-04 -9.7589842352425993e-04  -2.0372048658395180e-04 2.9869606779161237e-04 -1.0775973834925737e-03  -1.7558782246129620e-04 1.7174472192474949e-04 -1.1244847784745301e-03  -1.8535668591352608e-04 2.6644533457578518e-04 -9.5849994722860515e-04  -1.8596476259802916e-04 2.2143486825246570e-04 -1.0703558839062178e-03  -1.5759118000422640e-04 1.0826363967362972e-04 -1.1131507216897614e-03  -1.6551414902981381e-04 1.8370757364158440e-04 -9.3161382794063052e-04  -1.6746737298026039e-04 1.4785408123021610e-04 -1.0527445381690117e-03  -1.3733379470000064e-04 4.6408156922627270e-05 -1.0916967031661408e-03  -1.4398613717124661e-04 1.0312065498585977e-04 -8.9572313152017145e-04  -1.4800543078537944e-04 7.6110216436739490e-05 -1.0248928538934118e-03  -1.1393463050296541e-04 -1.4786657448146211e-05 -1.0601189128179225e-03  -1.2043160674062439e-04 2.3268054377761755e-05 -8.4936803164614239e-04  -1.2726634071491549e-04 3.9467219880088222e-06 -9.8726275309577328e-04  -2.2214299232581756e-04 5.1892736226013376e-04 -9.5976721800331889e-04  -2.0983109144441262e-04 4.1750007605083507e-04 -9.6419561663197470e-04  -1.9389409966774946e-04 3.2555897821914511e-04 -9.5699592644392199e-04  -1.7608015333207187e-04 2.4028897864549566e-04 -9.3944742649838310e-04  -1.5639093633991520e-04 1.5908746616568256e-04 -9.1260460318427522e-04  -1.3427474179693641e-04 8.0010102186187681e-05 -8.7687932946793081e-04  -1.0729841353397937e-04 1.7522738842483275e-06 -8.3215607994778973e-04  -3.8342527778543388e-04 8.9203609266496307e-04 -8.1493119130640894e-04  -3.5808807460832023e-04 7.8465736555013543e-04 -7.6356632880927476e-04  -3.3127618144511233e-04 6.8530539275048717e-04 -7.0944995729875385e-04  -3.0405058909333910e-04 5.8994752789920434e-04 -6.5296584515439474e-04  -2.7717056071085451e-04 4.9575939502875636e-04 -5.9336728994851683e-04  -2.5118837185541637e-04 4.0045149142796090e-04 -5.3004295674186140e-04  -2.2650828790715343e-04 3.0194535913846378e-04 -4.6296748199469573e-04  -2.4031351131799093e-04 1.8011069050249533e-04 -1.4022449923430989e-03  -2.4996751255858501e-04 1.8528401203933350e-04 -1.4599787333943507e-03  -2.3449136361404765e-04 1.6255324736973609e-04 -1.4508583197956040e-03  -2.6645756210493226e-04 2.1231265553062369e-04 -1.3949631089579177e-03  -2.8226412257503102e-04 2.0688167469373359e-04 -1.4505437230099203e-03  -2.0970562264527093e-04 1.5788972796167849e-04 -1.4512686661310482e-03  -2.1438373444604319e-04 1.4754197098927401e-04 -1.4013913147366366e-03  -2.1741616716380478e-04 1.6280120054628034e-04 -1.4615848393491936e-03  -1.8614545594016366e-04 1.5161350785458292e-04 -1.4453366397633597e-03  -1.8990940070337043e-04 1.1403823857930306e-04 -1.3943090671333835e-03  -1.8587291299635461e-04 1.3922986183184950e-04 -1.4571592491011808e-03  -1.6462624952669078e-04 1.4433417858512648e-04 -1.4342698916240846e-03  -1.6770914952266754e-04 7.8996620762129200e-05 -1.3826890914783972e-03  -1.5615279638033636e-04 1.1442375431879021e-04 -1.4474079127762321e-03  -3.8713786306961330e-04 3.8719623709598604e-04 -1.3737122472007957e-03  -3.5659280311293746e-04 4.7314320818662254e-04 -1.2450296014196705e-03  -3.4924026469215151e-04 3.4070745262838848e-04 -1.3516642110561108e-03  -3.2169595768163326e-04 2.9251362291638432e-04 -1.3796695028561443e-03  -3.3047116036961487e-04 3.9413790720790816e-04 -1.2556107812075592e-03  -3.5061678107290275e-04 3.2810303687545516e-04 -1.3963083317837658e-03  -3.1105215027502618e-04 2.7399291614995530e-04 -1.4077796936796114e-03  -2.9992174057224554e-04 3.2236230104266733e-04 -1.2559192547915807e-03  -2.9022692981365048e-04 2.4745526584874986e-04 -1.3945915085978357e-03  -2.7003721537601633e-04 2.2201326265360778e-04 -1.4105364585507484e-03  -2.6759495396279137e-04 2.5363017197436571e-04 -1.2477884700795251e-03  -2.5681498593898856e-04 2.0389698676098826e-04 -1.3997108290922254e-03  -2.2881083915946387e-04 1.7027304069783828e-04 -1.4063095616711299e-03  -2.3496085304700013e-04 1.8549653314898796e-04 -1.2330091987211133e-03  -2.2308649183499151e-04 1.6030287932926370e-04 -1.3974969794354585e-03  -1.8829930437966867e-04 1.1734855033228409e-04 -1.3964248101486457e-03  -2.0316262157409119e-04 1.1639575782760111e-04 -1.2128626690838668e-03  -1.9019400469491820e-04 1.1577106421893377e-04 -1.3895507386524110e-03  -1.7311049582320522e-04 4.5309983648740181e-05 -1.1882778550059171e-03  -1.4897961462444299e-04 6.1958884603197786e-05 -1.3823276949662315e-03  -1.5905831700825608e-04 6.9810121735130207e-05 -1.3772705080824343e-03  -2.8877155244540236e-04 2.6163501235976872e-04 -1.3221463673292893e-03  -2.8193243171771289e-04 3.1352466412037000e-04 -1.2673869523697435e-03  -2.7426015172238278e-04 2.1226022323278632e-04 -1.3289291088780303e-03  -2.5842839142216508e-04 1.9536053594861510e-04 -1.3650146608354815e-03  -2.6482903174823404e-04 2.6704285324390608e-04 -1.2992380371962694e-03  -2.7119234272118809e-04 2.3125077303420486e-04 -1.3557452547088471e-03  -2.4083021917684471e-04 1.7765019774250163e-04 -1.3864426217815127e-03  -2.4599188053575508e-04 2.2187767991811965e-04 -1.3153100786224333e-03  -2.5080029073779741e-04 2.0028350940943314e-04 -1.3738844440609301e-03  -2.2313250050124257e-04 1.5849491506133594e-04 -1.3959824286786454e-03  -2.2708499945160845e-04 1.7736127062063542e-04 -1.3197273765478571e-03  -2.2983216917122932e-04 1.6917944512419687e-04 -1.3806978125364792e-03  -2.0690428051769839e-04 1.3789767974813389e-04 -1.3960799293091346e-03  -2.0970269744277056e-04 1.3274467577618223e-04 -1.3150807702875954e-03  -2.0997827262352251e-04 1.3744938630470851e-04 -1.3787383696295889e-03  -1.9373029180158407e-04 1.1587462479092723e-04 -1.3886408222398470e-03  -1.9544618726682937e-04 8.7275528945769841e-05 -1.3033367736049301e-03  -1.9265887809604383e-04 1.0465422154938994e-04 -1.3699559899407029e-03  -1.8529158116728706e-04 9.2360922011851691e-05 -1.3751237582761240e-03  -1.8580485922464561e-04 4.0265747531851295e-05 -1.2863075159474998e-03  -1.7898442094458115e-04 7.0417158448106036e-05 -1.3565541418099378e-03  -3.3009919684831590e-04 4.7240820752988592e-04 -1.1975394110030756e-03  -3.1496912235934196e-04 5.0851224411854723e-04 -1.1276584793704100e-03  -3.0289485676838747e-04 3.6948800448879704e-04 -1.2532744686584525e-03  -2.8449961451245071e-04 3.0873741448664104e-04 -1.2766746532303357e-03  -2.9613674649024458e-04 4.2025630332190658e-04 -1.1278994106297289e-03  -3.0889568531187951e-04 3.9129684494314363e-04 -1.2063873337159487e-03  -2.6245893666072855e-04 2.5203658595831033e-04 -1.2852536405742244e-03  -2.7356274535534524e-04 3.4041176464522316e-04 -1.1163996554379074e-03  -2.8352620510910568e-04 3.1780096853551153e-04 -1.2036815728377920e-03  -2.3931916726037595e-04 1.9688855392105406e-04 -1.2832962821300925e-03  -2.4998920880869559e-04 2.6395914331130539e-04 -1.0962299794483250e-03  -2.5652065149597408e-04 2.4744657827004612e-04 -1.1922828258602166e-03  -2.1690675610695344e-04 1.4189771483219356e-04 -1.2734578745268461e-03  -2.2708913331107456e-04 1.8827581881524570e-04 -1.0692824919072597e-03  -2.2958456564782580e-04 1.7780346570647634e-04 -1.1741739622497238e-03  -1.9653539366130675e-04 8.6154870866660919e-05 -1.2575570023615967e-03  -2.0605072121163465e-04 1.1185721800756526e-04 -1.0367981130727810e-03  -2.0388191010352666e-04 1.0741560315347786e-04 -1.1506442581783766e-03  -1.7900758071756064e-04 2.9147417212987534e-05 -1.2370176608954137e-03  -1.8761774522394115e-04 3.3893033425212768e-05 -9.9989447410575279e-04  -1.8014003640281795e-04 3.5461538518302316e-05 -1.1225442779069618e-03  -3.7682067373938420e-04 7.0541440545310774e-04 -1.0286050488407944e-03  -3.6505491442131153e-04 7.6253911070943035e-04 -9.3847830222344090e-04  -3.4708709230045102e-04 5.9028016705349137e-04 -1.0992967871491222e-03  -3.2445698690716221e-04 4.9418168812453566e-04 -1.0881359898851741e-03  -3.4134678718600016e-04 6.5592480017197306e-04 -9.0407250898532634e-04  -3.5008273475001467e-04 6.0073136943767280e-04 -1.0020454654752740e-03  -2.9802487994659235e-04 4.0675864827594303e-04 -1.0688553431220510e-03  -3.1528212662299958e-04 5.5792231438340676e-04 -8.6506800189779407e-04  -3.2060574313714016e-04 5.0463418609818548e-04 -9.7062948644788076e-04  -2.7013674215151188e-04 3.2337623524566133e-04 -1.0427472048302302e-03  -2.8819631732251327e-04 4.6463361194102638e-04 -8.2146502445152052e-04  -2.9001604606267774e-04 4.1276377830938289e-04 -9.3415058152490832e-04  -2.4228541591038864e-04 2.4096772254897169e-04 -1.0108642393577665e-03  -2.6125860037079285e-04 3.7288847918756586e-04 -7.7352060589386891e-04  -2.5939078797047876e-04 3.2199187697725361e-04 -8.9293375183546405e-04  -2.1558619061585909e-04 1.5763441344504480e-04 -9.7397982188595917e-04  -2.3539667404911773e-04 2.8052021795489142e-04 -7.2126848904252041e-04  -2.2963027020703354e-04 2.3003710801397444e-04 -8.4704643060402819e-04  -1.9094678611665422e-04 7.2096236999766135e-05 -9.3270335437728869e-04  -2.1130308870009911e-04 1.8568920472401265e-04 -6.6476233583545705e-04  -2.0140863416859091e-04 1.3502967791162728e-04 -7.9680682165920210e-04  -3.2567711421429483e-04 3.7424558609205146e-04 -1.2875073847999148e-03  -3.0401294430782555e-04 3.1508548391345948e-04 -1.3101169287357446e-03  -2.7795844002293722e-04 2.6038571580178158e-04 -1.3189074353341271e-03  -2.5011088507931751e-04 2.0706960401499603e-04 -1.3180209218673455e-03  -2.2220809353020856e-04 1.5357218556352295e-04 -1.3097562263729076e-03  -1.9544700403836848e-04 9.9029237707691154e-05 -1.2957500184584893e-03  -1.7071283440783653e-04 4.2977575033371307e-05 -1.2773612023829187e-03  -2.2670268159800440e-04 1.5612777939161721e-04 -1.4261380220083725e-03  -2.0736462719521466e-04 1.4720642260583494e-04 -1.4256654564381484e-03  -1.9043561771578396e-04 1.3666706368479988e-04 -1.4183325699907413e-03  -1.7700673173206779e-04 1.2495139944288804e-04 -1.4054506195707321e-03  -3.3524805708712389e-04 6.3845170413806052e-04 -1.0197569899433395e-03  -3.1480174694219275e-04 5.3832652250750091e-04 -9.9894788435818415e-04  -2.9120839311162652e-04 4.4745991150665448e-04 -9.7079298796307403e-04  -2.6653367260506724e-04 3.6102654652277221e-04 -9.3603853500614208e-04  -2.4224508980421643e-04 2.7583948386825650e-04 -8.9579915858595098e-04  -2.1940023733389193e-04 1.8997579832760232e-04 -8.5067041608305352e-04  -1.9873718460785514e-04 1.0218977266768079e-04 -8.0101813566212034e-04  -2.9491432543414953e-04 4.1468623079270796e-04 -1.1907402495628446e-03  -2.7660038460339628e-04 3.4249867765340214e-04 -1.2080309770738163e-03  -2.5594498696810943e-04 2.7538813638637718e-04 -1.2101685800807486e-03  -2.3499435136781978e-04 2.1054073349588751e-04 -1.2019699324137443e-03  -2.1539685756333268e-04 1.4617738412687594e-04 -1.1858188707698919e-03  -1.9853222116020074e-04 8.1122367040382273e-05 -1.1633220769709013e-03  -1.8570861476223413e-04 1.4567933636241102e-05 -1.1362445920621968e-03  -2.4893039818592072e-04 2.0052153650493943e-04 -1.3451325048016633e-03  -2.3351553835897608e-04 1.7948071810881605e-04 -1.3690133757152886e-03  -2.1802630238689516e-04 1.5721302334377308e-04 -1.3804944339476407e-03  -2.0398932059020086e-04 1.3362771032494926e-04 -1.3818659786338945e-03  -1.9312448496033329e-04 1.0863950723826844e-04 -1.3748459806194448e-03  -1.8782215010026382e-04 8.2189711740113036e-05 -1.3608016523350181e-03  -4.1975040632056263e-04 3.0035275686078546e-04 -1.4908544013003829e-03  -3.7882721257434553e-04 2.7485764670355278e-04 -1.4394100346428256e-03  -3.4258178441861189e-04 2.4828159242225697e-04 -1.4706960520847426e-03  -3.7139524647848032e-04 2.6760286574831703e-04 -1.5198007677034609e-03  -3.0325609697543139e-04 2.2334305534756679e-04 -1.4900038532425475e-03  -3.2183477902318375e-04 2.3733176688593352e-04 -1.5367694504289165e-03  -2.6243613510086632e-04 1.9845797704738625e-04 -1.4994812543163497e-03  -2.7178237056812657e-04 2.0831564420437053e-04 -1.5445717841585012e-03  -2.2136102595377670e-04 1.7290797574396862e-04 -1.5014735058853097e-03  -2.2219853599564137e-04 1.7919404439419116e-04 -1.5450720375741747e-03  -1.8101772504190730e-04 1.4636738714318047e-04 -1.4976196884454024e-03  -1.7384094509690661e-04 1.4927375707592350e-04 -1.5396741284904793e-03  -1.4210978827368698e-04 1.1859169554679834e-04 -1.4888532088306134e-03  -1.2679106915057580e-04 1.1801014164853851e-04 -1.5292097630152240e-03  -1.8614586533294511e-04 1.3400852965452152e-04 -1.3876580353773019e-03  -4.2730154320876659e-04 7.3257828271119073e-04 -1.1036321430180776e-03  -4.0380106184273944e-04 7.1690756836864341e-04 -1.0758256398203034e-03  -3.7107497012020378e-04 6.0952358388819696e-04 -1.0501829492522647e-03  -3.8822302564937047e-04 6.1986052938207005e-04 -1.0742474317257200e-03  -3.3655102809247928e-04 5.1022833640217418e-04 -1.0206566271439526e-03  -3.4813168028089678e-04 5.1560568854823680e-04 -1.0433128787509900e-03  -3.0110178021826447e-04 4.1547661118040351e-04 -9.8664122542477120e-04  -3.0747892895472150e-04 4.1636226827749851e-04 -1.0083753685855292e-03  -2.6559374303054454e-04 3.2205268074033560e-04 -9.4785768227132535e-04  -2.6702773604615499e-04 3.1847148041502273e-04 -9.6868388103771817e-04  -2.3080813094793022e-04 2.2749721551773645e-04 -9.0428136622798983e-04  -2.2741389804854806e-04 2.1901682087376826e-04 -9.2392846783756477e-04  -1.9742713421423149e-04 1.2985096448161771e-04 -8.5574667825554797e-04  -1.8909869254101535e-04 1.1584699034129046e-04 -8.7340698951072354e-04  -3.3502051229002925e-04 7.0172575056000319e-04 -5.8987791193447080e-04  -3.2172314506180929e-04 5.3805981365519966e-04 -8.1537835105441163e-04  -3.5834174312443095e-04 6.4334245018005316e-04 -8.6395311104251566e-04  -3.0546587044470502e-04 6.0173632322061332e-04 -5.2607480489860021e-04  -2.8528650285180663e-04 4.3383693012838268e-04 -7.6313477937999658e-04  -2.7644128190933322e-04 5.0019325238781400e-04 -4.5867590888992114e-04  -2.4949857086980587e-04 3.2783706791838114e-04 -7.0582127489089979e-04  -2.4823083592286305e-04 3.9554305519894859e-04 -3.8659984996058770e-04  -2.1469731042426265e-04 2.1824167498739263e-04 -6.4233005801439904e-04  -2.5632950565608565e-04 4.1962760755668226e-04 -1.1579344322855988e-03  -2.6368205963801577e-04 5.0917752947646114e-04 -1.0837669432418983e-03  -2.4566483961885175e-04 3.6556066158552667e-04 -1.1884177097216343e-03  -2.2864536458490440e-04 2.9829963986931766e-04 -1.2205090205374880e-03  -2.4363022617381866e-04 4.1598442947427439e-04 -1.0926269829437598e-03  -3.5436686632569402e-04 1.5947219735952844e-03 8.7628088751922839e-05  -3.1211751905898947e-04 1.2513370191492175e-03 -8.8122765214377019e-05  -3.0527663276190000e-04 1.3282720628541404e-03 -8.6644931480187050e-06  -3.4049210479170013e-04 1.3320767553516783e-03 -1.8638826891246758e-04  -3.8378299492721043e-04 1.6587550836444846e-03 -1.5971957317394031e-05  -2.7711735949156738e-04 1.2478169850504049e-03 9.6617134635893688e-05  -3.2469572008457585e-04 1.5283942442304820e-03 1.9157143125666409e-04  -2.8389876545923510e-04 1.1704191930801495e-03 1.1906836118406054e-05  -2.4875046733323385e-04 1.1649088626877017e-03 2.0684383894671354e-04  -2.9457651473608005e-04 1.4579639139810573e-03 2.9929242568214052e-04  -2.5568031810025593e-04 1.0873582553484562e-03 1.1675937947488951e-04  -2.2000231636090211e-04 1.0783901690051810e-03 3.2490747498911736e-04  -2.6400995863307819e-04 1.3817117798330986e-03 4.1439921561541428e-04  -2.2736192136450298e-04 1.0004659445584537e-03 2.2966049491506685e-04  -2.5505946827429464e-04 2.7438934309920491e-04 -1.2753589128904606e-03  -2.3789530305125096e-04 2.2609592910223519e-04 -1.2924956249971886e-03  -2.2094570471869083e-04 1.7874322255857016e-04 -1.2976544903116061e-03  -2.0566034671711577e-04 1.3154907270562679e-04 -1.2932071501616323e-03  -1.9357826009419338e-04 8.3554169981910498e-05 -1.2808928319800340e-03  -1.8639866740266482e-04 3.3759067666436493e-05 -1.2625417800557193e-03  -3.1165895857880794e-04 2.7724849617007184e-04 -1.3444800620221022e-03  -3.3932918330418821e-04 2.4944911097009060e-04 -1.3980374092009602e-03  -2.9106384354573802e-04 2.4491456862155381e-04 -1.3769790216034527e-03  -3.1283570292920841e-04 2.2807034356107071e-04 -1.4309305576370164e-03  -2.7207665660601468e-04 5.2546366542339899e-04 -1.0773476032220684e-03  -2.5267807468046027e-04 4.3168722636709574e-04 -1.0830682174250907e-03  -2.3982477081738608e-04 3.4152571908978616e-04 -1.1803940440407127e-03  -2.3328392225242103e-04 3.4769980296216424e-04 -1.0762560159565196e-03  -2.2421200971626490e-04 3.3274014229579536e-04 -1.0875101060809653e-03  -2.2271357296471244e-04 2.7196322724907683e-04 -1.1870744366336465e-03  -2.1476012565859384e-04 2.6910371439527474e-04 -1.0586226163245556e-03  -2.0568740358095790e-04 2.5500586490804036e-04 -1.0711335676802246e-03  -2.0614529815289782e-04 2.0654415309415405e-04 -1.1814023648423128e-03  -1.9795369468313153e-04 1.9304345760657611e-04 -1.0316957708941560e-03  -1.8857135921809316e-04 1.7988211700882320e-04 -1.0449109992752799e-03  -1.9110910616157052e-04 1.4286060269216259e-04 -1.1653948928022550e-03  -1.8369156252472720e-04 1.1750043344818671e-04 -9.9649591507104565e-04  -1.7354933672332785e-04 1.0552055807297971e-04 -1.0097305790452667e-03  -1.7850162823799333e-04 7.9326620856484746e-05 -1.1403988209059623e-03  -1.7244613909355271e-04 4.1112369636621891e-05 -9.5350142674590331e-04  -1.6126368395952970e-04 3.0600096383706211e-05 -9.6639270403834894e-04  -1.6889779434628248e-04 1.4704683920029639e-05 -1.1083259229674892e-03  -2.8656023457612577e-04 6.5021204938817806e-04 -9.7720528576714159e-04  -2.6401109006246105e-04 5.4446769614759831e-04 -9.6015617367696158e-04  -2.4243579199425796e-04 4.4958019623618132e-04 -9.3390094243579486e-04  -2.2180294702079832e-04 3.6074886033788436e-04 -8.9910358775111736e-04  -2.0269958661079724e-04 2.7481460160832486e-04 -8.5612631900912188e-04  -1.8598718396912106e-04 1.8959242079551143e-04 -8.0507859238040968e-04  -1.7308960109129452e-04 1.034