<?xml version="1.0"?>
<VTKFile type="UnstructuredGrid"  version="0.1"  >
<UnstructuredGrid>
<Piece  NumberOfPoints="954" NumberOfCells="4145">
<Points>
<DataArray  type="Float64"  NumberOfComponents="3"  format="ascii">9.850904131524921 1.726167302335155 1.972525638251317  9.785862974126916 1.704290192205449 2.060348973913038  9.743653944885722 1.741221562775228 1.926235500715024  9.745710942871922 1.689070311403944 1.905148269550998  9.788294721499913 1.649847979094624 2.047600987877935  9.852769098464083 1.672618769854572 1.954379391535095  9.747413444386536 1.637094312977516 1.88392284478203  9.790393154289985 1.595497590353434 2.034708245426453  9.854272599228427 1.619233802518522 1.936086367950948  9.748960623362205 1.585257961770524 1.862666780181131  9.792338479432409 1.541230487075422 2.021754424982781  9.855626611213973 1.565962787418255 1.917752196858533  9.750487319257227 1.533537567432861 1.841448894290203  9.794268317971765 1.487040345715662 2.008809139285025  9.856989129320263 1.512791439262414 1.899453812218128  9.7521381424219 1.481936643957248 1.820341185946113  9.796326880444138 1.432926174175502 1.995938943202618  9.858525337076911 1.459750322903204 1.88127882878612  9.754181940178542 1.430461322892599 1.799423443878255  9.798727547669129 1.378920320959055 1.983236308289197  9.860476322490655 1.40680823913118 1.863274904020841  8.895410063286967 1.533073795375506 2.265189620919304  8.829261961723663 1.519893364385529 2.351681881466638  8.785000649550204 1.508458591726102 2.218545167109312  8.800138778550526 1.452216962157738 2.214968025306426  8.84276415532578 1.464248753174139 2.354287853381695  8.909984542888278 1.477565453090246 2.262031543868289  8.8155917200756 1.396087273595136 2.211255137808454  8.856529518938723 1.408691026331007 2.356782764915007  8.924843985216095 1.422206698563671 2.258761701886309  8.831149601338334 1.340031352806665 2.207501496078323  8.870393481855743 1.353186757890479 2.359228118293865  8.939799469174652 1.366947694228204 2.255442227247299  8.846670433621679 1.284015247224772 2.203756867934394  8.884231833523902 1.297712513586374 2.361671956906095  8.954718633314984 1.311758280090648 2.252127783833031  8.862013279833953 1.227993731037308 2.2000715179152  8.897914283709735 1.24223943976896 2.364160189416463  8.96944191281813 1.256618725266207 2.248876616353454  8.876981943354807 1.171868364188725 2.196514999487009  8.911268026980755 1.186724861634997 2.366749582668999  8.983718650333959 1.201448954758979 2.24573256702803  9.032859261027092 1.652487851683533 1.886084267880581  9.017255972096189 1.617692023750645 1.986971295186179  8.908329320417753 1.620291473448971 1.891734035138775  8.921148339019815 1.567725453908666 1.869438842538521  9.028753353487362 1.564015512433149 1.970094573748742  9.045215752327346 1.60120136991791 1.862382756492755  9.057675126896557 1.550139964589735 1.838613264785015  9.040331634885572 1.510552373372666 1.95310964182216  8.93408116757205 1.51541683638344 1.847062371321303  9.070155636989861 1.499268144743736 1.814845585270473  9.051945848609538 1.457248358021274 1.936075301526091  8.947049461692361 1.463279577545841 1.82467299682304  9.082588305273614 1.448533837584026 1.791138014135962  9.063530966643663 1.404053000410836 1.919050725818988  8.959964377218522 1.411266560454347 1.802330296507852  9.094876228116304 1.397897838185491 1.767564138109118  9.075010867911097 1.35093461086047 1.902098750499668  8.97271801693951 1.359353536991356 1.780100356748482  9.086312599977925 1.297901997065273 1.885339600912399  9.106869646813966 1.347328117143821 1.744178814351769  8.985238674543698 1.307508624112989 1.758050937192706  8.791144904307437 1.545604317955716 2.021772746149184  8.808127409472743 1.527651683989079 2.115788215630238  8.696556422571053 1.495874613119582 2.096560907396565  8.711585913310445 1.438934281303991 2.086198240119265  8.825291630610813 1.472463323599591 2.106290869508111  8.807982098773286 1.491561696512089 2.005429055362284  8.825202590351054 1.437721924929501 1.988988754555877  8.842887932774554 1.417460238915369 2.096675681493565  8.726903355846202 1.382095297451204 2.075733694993439  8.842553920453717 1.3840059835708 1.972515045157183  8.860618015586786 1.362561259663163 2.087023558297969  8.742281535472896 1.325340422873819 2.065251022393002  8.859872052119004 1.330359988674701 1.956061586771367  8.878311127574189 1.307722726974787 2.077382979059333  8.757594619072249 1.268626324949081 2.054787955691678  8.876977027386342 1.276734235151221 1.939677662129262  8.895782313697268 1.252894956259735 2.067796288894749  8.772717118903651 1.211895784906056 2.044375085351681  8.912704733459 1.197935442170935 2.05830247164195  8.893543862395031 1.223004590373194 1.923406525816131  8.787558472290076 1.155023633801119 2.034047715703407  9.553213561971107 1.692242699470965 2.639569533554867  9.424701910508393 1.662423639804791 2.589161249319794  9.528409903984603 1.670580408474905 2.539473647540267  9.536711966467877 1.617831103271958 2.547952938444555  9.432785009215388 1.610125665712554 2.600180355191136  9.440870852430967 1.557862730038447 2.61106941567902  9.570035501171018 1.590233652626806 2.66929588324331  9.545017570771412 1.565134472277366 2.55632516033529  9.578444181143873 1.53930262850067 2.684055724145317  9.448951915157117 1.505644631339751 2.621889858043449  9.553312080189311 1.512481249081644 2.564633768560185  9.457019080937155 1.453474743461292 2.632687171475329  9.586837609042124 1.488437148764276 2.698785212298447  9.561594050334447 1.459882916295616 2.572916916339095  9.595209206964054 1.437646002129307 2.713515477497376  9.465056302883493 1.401386510885865 2.643502585752632  9.569866883757101 1.407344929642711 2.581212290080458  9.60353357279309 1.386910975642145 2.728275697480514  9.473062653760827 1.349380402070583 2.654389309961248  9.578090951448065 1.354916243976923 2.589567313902493  8.952552180600316 1.674521558992057 1.810109828037727  8.965119359282856 1.625553485336471 1.78132999236262  8.977778795383697 1.576848257142393 1.752519332935649  8.990468153276487 1.528325512211932 1.723726735232266  9.003109629622639 1.479916817520843 1.695004460827157  9.015616716150358 1.431575397143186 1.666411165809669  9.027886802143085 1.383244364305581 1.63796911507823  9.655160610237006 1.709022048422219 1.996653000289306  9.659374952347672 1.655708415607704 1.97949105198973  9.663382023678983 1.602588250176682 1.962240024513025  9.667271371402055 1.549611210093714 1.944950990749685  9.671142944571992 1.496769145444005 1.92769363001828  9.675099032984043 1.444094022060986 1.910552712124481  9.679223797452762 1.391609822749392 1.893596706991846  8.701524779605267 1.488457829763067 2.345573758274285  8.715349401346078 1.431900520465533 2.347482997708925  8.729430591955243 1.375378781185662 2.349334663214615  8.743595745268561 1.318881101916643 2.351160754731516  8.757732769472925 1.262390674130226 2.352995440824552  8.771737565159244 1.205881948831158 2.354870773403977  8.785455280787854 1.14928419978062 2.356810954340567  8.683821600419437 1.528885469873788 1.972135238911996  8.70048526055605 1.474071785583662 1.954427388570169  8.717503145740274 1.419407825529247 1.936607704445598  8.734625136573895 1.364832040946842 1.918768979649217  8.751698221661595 1.310299532776721 1.9009525457966  8.768575316611347 1.255747461624566 1.883185721895296  8.785061925871029 1.20104744983427 1.86548063836023  9.409877606585853 1.693143319431934 2.705364267881262  9.41830148626337 1.643382968073219 2.723074582575824  9.426759377885492 1.593637514868357 2.740687860703411  9.435227025009036 1.543922334411281 2.758244459305654  9.443678852163966 1.494242886421793 2.775774962700814  9.452094264296669 1.444605793396784 2.793305881439113  9.460455404707185 1.395017150803877 2.810881404730827  8.649345434657546 1.475232078862941 2.233320094402868  8.662698331538394 1.417576709224019 2.231401499013713  8.676291979030928 1.359924844263116 2.229399063284017  8.689963856524876 1.302291421729903 2.22736839890816  8.703605343142385 1.244658506842035 2.225350133361306  8.717118931892323 1.18698895076725 2.223380950372234  8.730400363340063 1.129212213803414 2.221498472413535  8.850413022153806 1.677329841143954 1.764828742562877  8.86393988667254 1.628944364317155 1.734656388380148  8.877589831439293 1.580822697384188 1.70443031363279  8.891287483528442 1.53286523396768 1.674220485642651  8.904938346217424 1.484991518253794 1.644071717520668  8.918442781135946 1.437128319315104 1.614020603647439  8.931683389801078 1.389267086620534 1.58414478640801  8.792711343228348 1.519035826489619 2.461228307255782  8.806734662091706 1.464308487888947 2.469386920907647  8.821055506917544 1.409653171102029 2.477462389916659  8.8354665144586 1.355043717973736 2.485498847948096  8.849841447398017 1.300461825702283 2.493537002258924  8.864040391419898 1.245885015003872 2.501617666408571  8.877850159991912 1.191235900488612 2.509790942097785  9.455729162562173 1.646105963844305 2.464703142038327  9.464202602823393 1.592590364371161 2.471546069851397  9.472686183476823 1.539142316260526 2.478234770982697  9.481161283249062 1.485769000797393 2.484847534371221  9.489616197275218 1.432473919937024 2.49143624068977  9.498033816251059 1.379274836391083 2.498048883372434  9.506391484799247 1.326172948983275 2.504752066561282  8.645719598915454 1.234714987407378 2.362366684654659  8.657558182537642 1.177008255315698 2.365457033079744  8.669278155297738 1.119222596081533 2.368604329828679  8.781075028593344 1.618105703770391 1.833016581986809  8.752879612485351 1.682959803461145 1.700281860557841  8.766631400483035 1.637067907472023 1.664894461659077  8.796550113533137 1.567539026072166 1.806477044136587  8.780477673391578 1.591458368555262 1.629480699635779  8.812240991359754 1.517236678734093 1.779859679021179  8.794344124129138 1.546023220420082 1.594143985518741  8.82801808533835 1.467092167352405 1.753241025798421  8.808133697630836 1.500683798653075 1.55890
[...]
<PointData  Vectors="f_24"> 
<DataArray  type="Float64"  Name="f_24"  NumberOfComponents="3" format="ascii">-2.0681800653982169e-04 -1.5234725605185672e-03 -3.7910607460616151e-04  -1.8562426928682785e-04 -1.5570912845503846e-03 -3.3309515041524400e-04  -2.0123763802052050e-04 -1.5038316007852516e-03 -3.7277039604353556e-04  -2.0895873084155920e-04 -1.4859473097583603e-03 -3.7593128636383973e-04  -1.9064305464888258e-04 -1.5395433176511669e-03 -3.4589656800370949e-04  -2.1273680793823987e-04 -1.5055086559141646e-03 -3.8610384711425705e-04  -2.1609139524697853e-04 -1.4719547754936894e-03 -3.7995440842545199e-04  -1.9535150814798633e-04 -1.5253114786736165e-03 -3.5770286842653879e-04  -2.1837386708807756e-04 -1.4914587733191650e-03 -3.9348702698090431e-04  -2.2296746618221964e-04 -1.4608351676295556e-03 -3.8503376527658875e-04  -1.9992747468662689e-04 -1.5137673331920766e-03 -3.6951465740926807e-04  -2.2388098336488521e-04 -1.4801175129734723e-03 -4.0147700423798075e-04  -2.2976981336561900e-04 -1.4520236931789350e-03 -3.9108046997629245e-04  -2.0445992013118093e-04 -1.5043280427465252e-03 -3.8200539701589530e-04  -2.2938114499177452e-04 -1.4709591651265481e-03 -4.1030748238137719e-04  -2.3663998362866511e-04 -1.4452656889880726e-03 -3.9810598499694707e-04  -2.0904394339774335e-04 -1.4966773476327371e-03 -3.9566861353642030e-04  -2.3498987606191275e-04 -1.4637481216991702e-03 -4.2017786072019324e-04  -2.4373886264176319e-04 -1.4404997965556511e-03 -4.0628792807574220e-04  -2.1375098830994296e-04 -1.4905940723062010e-03 -4.1101644683786027e-04  -2.4081965180672036e-04 -1.4583753463506526e-03 -4.3124606485291263e-04  -6.9933385134048306e-05 -1.6339690015571412e-03 -5.0223979904503429e-05  -4.9728622781489603e-05 -1.6878881094783487e-03 -6.8852127039973929e-06  -7.0534312122676472e-05 -1.6054911078314249e-03 -3.8131131960593309e-05  -7.4911740273329373e-05 -1.5903018795245184e-03 -7.2267876389952421e-05  -4.9487086032652006e-05 -1.6780883308546981e-03 -4.2319156861350263e-05  -7.3377960541535456e-05 -1.6200517458505989e-03 -8.2847544587939659e-05  -7.8461720371798122e-05 -1.5777785556673049e-03 -1.0411212864838464e-04  -4.8982469082219654e-05 -1.6692681158060373e-03 -7.4889115250870703e-05  -7.6104325095673243e-05 -1.6082618653124896e-03 -1.1362513811140728e-04  -8.1436661906147836e-05 -1.5673330402882768e-03 -1.3518290853648009e-04  -4.8254452128472217e-05 -1.6613229081997977e-03 -1.0640802515623601e-04  -7.8402165122557581e-05 -1.5979620897544041e-03 -1.4361451493505068e-04  -8.3953968513391042e-05 -1.5585829648262996e-03 -1.6655401743145788e-04  -4.7371259879323239e-05 -1.6542343577146358e-03 -1.3814573954079040e-04  -8.0394234740737051e-05 -1.5889990013067776e-03 -1.7382611359982464e-04  -8.6055331178582322e-05 -1.5513371878886906e-03 -1.9908711904226723e-04  -4.6383913527458066e-05 -1.6480743850683288e-03 -1.7109745745132174e-04  -8.2126462395483739e-05 -1.5813671654098186e-03 -2.0505051440044970e-04  -8.7701772245509448e-05 -1.5455567187922634e-03 -2.3357162945713427e-04  -4.5332148491404772e-05 -1.6428862888768442e-03 -2.0605887085789671e-04  -8.3584671764098319e-05 -1.5753953821584959e-03 -2.3784283789816198e-04  -1.3553328704660604e-04 -1.4319013386027818e-03 -1.9912346999625567e-04  -1.2139793262848925e-04 -1.4824110135535174e-03 -1.5996468485155255e-04  -1.2627941168851181e-04 -1.4229630600787026e-03 -1.6299324612612895e-04  -1.4152605797058783e-04 -1.4028663345529366e-03 -1.7462540293613211e-04  -1.3327744163559241e-04 -1.4623977876498651e-03 -1.7682726697092370e-04  -1.5061248417196413e-04 -1.4126377399898526e-03 -2.0756348303042709e-04  -1.6450510804752743e-04 -1.3981348784477059e-03 -2.1737157739039307e-04  -1.4426451031427563e-04 -1.4461884001543293e-03 -1.9318204180556747e-04  -1.5549450233882955e-04 -1.3875308589529902e-03 -1.8707044660974464e-04  -1.7748619490530549e-04 -1.3869169489237258e-03 -2.2837898562211726e-04  -1.5447098931176820e-04 -1.4333691567484149e-03 -2.0978957530937180e-04  -1.6844928603462867e-04 -1.3754702257157065e-03 -2.0065032360999137e-04  -1.8976334847993500e-04 -1.3783344253590504e-03 -2.4044006702768616e-04  -1.6395241468536797e-04 -1.4232129860054805e-03 -2.2726767252912418e-04  -1.8052840031191817e-04 -1.3661165342074028e-03 -2.1539607630515840e-04  -2.0142108791973778e-04 -1.3721357906316361e-03 -2.5351532577779645e-04  -1.7284141461014409e-04 -1.4153314632733744e-03 -2.4593538517350059e-04  -1.9186437909224940e-04 -1.3591959481607239e-03 -2.3132851602585908e-04  -1.8132978737843826e-04 -1.4095223025481986e-03 -2.6604950842209070e-04  -2.1249957495022155e-04 -1.3682975912156601e-03 -2.6761432573268220e-04  -2.0262113337921097e-04 -1.3546727508407890e-03 -2.4850669093160057e-04  -1.0245266374665641e-04 -1.4850280601637232e-03 -9.7307411581235397e-05  -8.9523199721830020e-05 -1.5421607783092585e-03 -7.4132717889871112e-05  -8.6740743508948825e-05 -1.5261167683093958e-03 -5.5749037322525283e-05  -9.5026600427850839e-05 -1.5063084932866227e-03 -8.6226311970151017e-05  -9.7999198961585659e-05 -1.5236164452804037e-03 -1.0276442155065229e-04  -1.1461638632118418e-04 -1.4642617176729130e-03 -1.2028383855922259e-04  -1.2514422099826073e-04 -1.4471215927413441e-03 -1.4369048416605008e-04  -1.0509552632997763e-04 -1.5088148672304262e-03 -1.3061147774945993e-04  -1.0199153864774169e-04 -1.4908331655793707e-03 -1.1572511399540835e-04  -1.3468117571361271e-04 -1.4331673540214605e-03 -1.6735841656997442e-04  -1.1138397603610936e-04 -1.4966703914190442e-03 -1.5827078524697480e-04  -1.0824703546000225e-04 -1.4782294237686089e-03 -1.4508148325682266e-04  -1.4343384563417070e-04 -1.4219167485371963e-03 -1.9160705645137114e-04  -1.1703458452439056e-04 -1.4867047507602946e-03 -1.8636303337125353e-04  -1.1385287733617662e-04 -1.4678783877656635e-03 -1.7498669740129768e-04  -1.5143272123814300e-04 -1.4129888308835987e-03 -2.1676804482687138e-04  -1.2208937765748200e-04 -1.4786499600665131e-03 -2.1543719543269413e-04  -1.1880230639500002e-04 -1.4594596364028301e-03 -2.0600114599978275e-04  -1.2644409468968792e-04 -1.4723819251209525e-03 -2.4600099029325334e-04  -1.5859998765502085e-04 -1.4060546993780005e-03 -2.4304134794617680e-04  -1.2306634836980774e-04 -1.4528404975737072e-03 -2.3859545148339923e-04  -7.1847708083226850e-05 -1.7807749642982955e-03 -1.1687456764540315e-04  -6.5303021789054971e-05 -1.7769265538279354e-03 -9.0698393696301408e-05  -8.3704225475307787e-05 -1.7542448876392220e-03 -1.2884003269604503e-04  -7.7980389468577853e-05 -1.7515348565360757e-03 -1.4816616588597597e-04  -5.7760701567674326e-05 -1.7755176480190528e-03 -1.0909884466999399e-04  -5.0608201188854097e-05 -1.7715576521850846e-03 -1.2495882671207382e-04  -5.3521790293809918e-05 -1.7766642512139993e-03 -1.3908777822450202e-04  -7.2352460331145369e-05 -1.7470080649037779e-03 -1.6539711129398305e-04  -4.5096659183272599e-05 -1.7701484525539197e-03 -1.4886319037483729e-04  -4.3824543719335722e-05 -1.7656339571414223e-03 -1.4019203625239424e-04  -6.6953354556260729e-05 -1.7409621159015208e-03 -1.8182359439741596e-04  -3.7375607229934284e-05 -1.7583760715363360e-03 -1.5631720747674225e-04  -3.7190694895744951e-05 -1.7616965587037244e-03 -1.5998581432703871e-04  -6.1863582124310263e-05 -1.7339713524227064e-03 -1.9879696349552834e-04  -2.9829879836690529e-05 -1.7522334071901735e-03 -1.7352397895472037e-04  -3.1306005366523762e-05 -1.7503704467057033e-03 -1.7429466965643005e-04  -5.7093749888540285e-05 -1.7264023066019755e-03 -2.1736814089794079e-04  -2.2659319735695163e-05 -1.7433823508383999e-03 -1.8978657632832217e-04  -2.5398086329984688e-05 -1.7418920624195735e-03 -1.9488214285922161e-04  -5.2870488300283495e-05 -1.7180339172878424e-03 -2.3801308717459133e-04  -1.3588089749197189e-04 -1.3885991562176076e-03 -2.0429443430040171e-04  -1.5364025904325608e-04 -1.3714626244657518e-03 -2.0754517273397421e-04  -1.6994821014967268e-04 -1.3580321542597787e-03 -2.1338248942371363e-04  -1.8523646182014511e-04 -1.3477857390883198e-03 -2.2105059203572053e-04  -1.9973124332927803e-04 -1.3402197339615089e-03 -2.2996694691320612e-04  -2.1361009112590235e-04 -1.3351608016171079e-03 -2.3978825385763855e-04  -2.2701653588496078e-04 -1.3325052334675668e-03 -2.5019712014637073e-04  -1.8139229943907499e-04 -1.5257839601016310e-03 -3.2579801190761094e-04  -1.8882446689140331e-04 -1.5074809339357673e-03 -3.3434240037243627e-04  -1.9559940546996351e-04 -1.4930509156144936e-03 -3.4324155543654711e-04  -2.0216811688339434e-04 -1.4814418043904765e-03 -3.5263512351858399e-04  -2.0860162627306947e-04 -1.4721049623717852e-03 -3.6284857734250478e-04  -2.1497876776142320e-04 -1.4647607883563848e-03 -3.7415195875078685e-04  -2.2135595333591069e-04 -1.4592931877075832e-03 -3.8675738233801145e-04  -4.2300617997397802e-05 -1.6871753822769355e-03 1.8280764305209279e-05  -4.1842896953171808e-05 -1.6767216333667416e-03 -1.9306057897065364e-05  -4.1130122862232413e-05 -1.6671556935594217e-03 -5.4660387125189871e-05  -4.0320049742422699e-05 -1.6586549121732220e-03 -8.8886556430450966e-05  -3.9363393693407345e-05 -1.6511498354273046e-03 -1.2324995023602894e-04  -3.8241171234408850e-05 -1.6446247123594053e-03 -1.5867470404963723e-04  -3.6965068594650484e-05 -1.6388801073434918e-03 -1.9575673449936671e-04  -1.0467147606214993e-04 -1.4500598759260030e-03 -8.5463340104793332e-05  -1.1739699132817437e-04 -1.4281629303792328e-03 -1.0798318686853088e-04  -1.2869477379912774e-04 -1.4106604980507335e-03 -1.3096832164321569e-04  -1.3896712433793943e-04 -1.3967086498832620e-03 -1.5460949094520574e-04  -1.4838369965321989e-04 -1.3855850011501951e-03 -1.7907471478152383e-04  -1.5698608946863562e-04 -1.3767898406874355e-03 -2.0457431881276615e-04  -1.6475354531976063e-04 -1.3698900523940046e-03 -2.3137149114875723e-04  -4.8608084672809860e-05 -1.8081280619081403e-03 -6.6691462328600414e-05  -3.7033752670224333e-05 -1.8089352698036640e-03 -7.5878277978102404e-05  -2.6145697540084597e-05 -1.8051685078425707e-03 -8.2955035107723675e-05  -1.5957754189897030e-05 -1.7980166982099752e-03 -8.9882470160809893e-05  -6.3601954614350091e-06 -1.7884255080100918e-03 -9.8166906018266116e-05  2.7804018429990569e-06 -1.7773009699252552e-03 -1.0908575885614156e-04  1.1569675893639277e-05 -1.7657524142370470e-03 -1.2364123681812874e-04  -6.0463403871411358e-05 -1.6159576244739356e-03 -3.1630999248857707e-06  -6.2500421262303769e-05 -1.6017460276571117e-03 -4.0450720166021694e-05  -6.4433228792074829e-05 -1.5897549086939524e-03 -7.5257519060407233e-05  -6.6079210932490335e-05 -1.5797338125445334e-03 -1.0914499298808832e-04  -6.7352052230051693e-05 -1.5713436510752597e-03 -1.4328999171249365e-04  -6.8158766343110247e-05 -1.5643758534821357e-03 -1.7859461869840760e-04  -6.8392425646583794e-05 -1.5587613162818274e-03 -2.1580560274358487e-04  -1.3232753384140279e-04 -1.3556705185525163e-03 -1.9134254565188915e-04  -1.5128718732170063e-04 -1.3395357133774756e-03 -1.9306269072140802e-04  -1.6894898186644387e-04 -1.3271410140934571e-03 -1.9765131388857721e-04  -1.8547147660469247e-04 -1.3176115109744813e-03 -2.0450033307848329e-04  -2.0110021448380307e-04 -1.3105800959367139e-03 -2.1284048549145547e-04  -2.1600029588349809e-04 -1.3059852350604218e-03 -2.2215964616439048e-04  -2.3027212203202008e-04 -1.3040280599772552e-03 -2.3222554907107191e-04  -2.7549479520332631e-05 -1.7536875846966892e-03 3.3156734518849917e-05  -2.3434107369711666e-05 -1.7486633039125268e-03 -1.8578073402882692e-06  -1.9305043144458887e-05 -1.7433409142277156e-03 -3.4021951343378585e-05  -1.5324496644373794e-05 -1.7376859973998538e-03 -6.5084929886986777e-05  -1.1474247102738930e-05 -1.7319682726456953e-03 -9.6554535085386709e-05  -7.7444327740093974e-06 -1.7266240639874553e-03 -1.2966064819097675e-04  -4.0841863301569797e-06 -1.7224668382616042e-03 -1.6522859888479959e-04  -8.7843450475657718e-05 -1.7296733769376952e-03 -1.2899305193926947e-04  -8.3852300020190043e-05 -1.7249618840025746e-03 -1.5233435625604412e-04  -7.9888616339745508e-05 -1.7193614380877802e-03 -1.7280259520391014e-04  -7.6060499404127969e-05 -1.7131582866844717e-03 -1.9224581549442593e-04  -7.2381006066673690e-05 -1.7066091612655751e-03 -2.1207569272940709e-04  -6.8872166026046712e-05 -1.6999276721136407e-03 -2.3344148234996745e-04  -6.5628559780682219e-05 -1.6933556055703962e-03 -2.5739840953484261e-04  -2.8300835825997732e-05 -1.6606762087376086e-03 -1.0549016209061625e-04  -2.6181931633674339e-05 -1.6545953654782610e-03 -1.4250181102629808e-04  -2.3656179331044940e-05 -1.6494737859375356e-03 -1.8139498085940352e-04  -1.2381185382381602e-04 -1.3808306698633560e-03 -1.4879434660459265e-04  -1.3243893582061595e-04 -1.3114571930188616e-03 -1.8367147264068548e-04  -1.5344148795476138e-04 -1.2972651391378949e-03 -1.8335652677878452e-04  -1.4152474961850165e-04 -1.3610431760539574e-03 -1.5829193616875422e-04  -1.7271965312117877e-04 -1.2864479259062905e-03 -1.8689506764828093e-04  -1.5761866958204196e-04 -1.3453540549486747e-03 -1.6944157043918595e-04  -1.9091332330536858e-04 -1.2779179403306720e-03 -1.9288372989488447e-04  -1.7253867132173878e-04 -1.3331650087818881e-03 -1.8210657808855391e-04  -2.0827776528691068e-04 -1.2716703267380575e-03 -2.0016339302455100e-04  -1.8648975489966683e-04 -1.3238645344388141e-03 -1.9606268137688254e-04  -2.2492041365810797e-04 -1.2680124029258064e-03 -2.0812734355783730e-04  -1.9958559019688489e-04 -1.3171246167623068e-03 -2.1112911369072765e-04  -2.4100553419011700e-04 -1.2672315957750133e-03 -2.1641887671925347e-04  -2.1168595843820768e-04 -1.3127654977941093e-03 -2.2721286459561368e-04  -1.9523748384352251e-05 -1.7570135453979035e-03 5.5724817411850247e-05  -1.4887576787503411e-05 -1.7523090678701527e-03 1.9063803562983091e-05  -5.8022523530139055e-06 -1.7422304535853060e-03 -4.7937791621460995e-05  -1.4490890586250920e-06 -1.7370800999704763e-03 -8.1454683742975863e-05  2.8865490854563800e-06 -1.7324005989377868e-03 -1.1664485448660714e-04  7.3341179600272556e-06 -1.7290421719853251e-03 -1.5422101216461097e-04  -1.9792158698265282e-04 -1.4784218421695818e-03 -3.7443692509445353e-04  -2.0750680858336112e-04 -1.4624898068948784e-03 -3.7285061606135458e-04  -2.1650551076577844e-04 -1.4499134694575641e-03 -3.7323082245221669e-04  -2.2512294205004357e-04 -1.4400406591286521e-03 -3.7519678097356506e-04  -2.3356893324098809e-04 -1.4324288635557440e-03 -3.7833554147541652e-04  -2.4197229520110254e-04 -1.4269174547931797e-03 -3.8237924750682246e-04  -2.5041407131048661e-04 -1.4234665997247286e-03 -3.8722375683501953e-04  -7.0310852226473374e-05 -1.7499912119377280e-03 -8.9844121190806836e-05  -6.5348457892671694e-05 -1.7460732743128714e-03 -1.1368681106846500e-04  -6.0546617768080065e-05 -1.7408932972407076e-03 -1.3474791634732173e-04  -5.5949430359750172e-05 -1.7347574714765758e-03 -1.5482445432333009e-04  -5.1569131177084122e-05 -1.7280257797763739e-03 -1.7535633441996440e-04  -4.7397583251638671e-05 -1.7210450506029054e-03 -1.9745260010364557e-04  -4.3428474080712734e-05 -1.7141415891147632e-03 -2.2193497973761124e-04  -1.2564196792927805e-04 -1.3341895495743907e-03 -1.4457624477987171e-04  -1.4478982577679141e-04 -1.3156731987826742e-03 -1.4991632469782374e-04  -2.0404824387841607e-04 -1.5934946898104384e-03 -3.7552166459438899e-04  -1.9320936855126884e-04 -1.5943671402972421e-03 -3.5020792276764252e-04  -2.1862349093454105e-04 -1.5443635967858623e-03 -4.0195017807535019e-04  -1.9616260552551891e-04 -1.5802367384992000e-03 -3.6798518101429468e-04  -2.2345940333537976e-04 -1.5266519082957433e-03 -4.1261656507257416e-04  -1.7660503341117439e-04 -1.5010278078009807e-03 -3.1759358717241748e-04  -1.8609497107074729e-04 -1.4829151618586920e-03 -3.2337626552592650e-04  -1.9475775942534148e-04 -1.4688882127342365e-03 -3.2994273387731239e-04  -2.0299514717920893e-04 -1.4577741937636247e-03 -3.3736815682130171e-04  -2.1099484356257775e-04 -1.4490040279560626e-03 -3.4574980865940838e-04  -2.1886052727580261e-04 -1.4423130347229339e-03 -3.5519519841336976e-04  -2.2659083483867783e-04 -1.4376689303632773e-03 -3.6580559737003362e-04  -1.4807162452553591e-04 -1.5450505662541660e-03 -2.4449959423862171e-04  -1.5127891048379328e-04 -1.5041887018325741e-03 -2.5207904098875042e-04  -1.6108287031734638e-04 -1.5135401212731077e-03 -2.7721265328903917e-04  -1.7026071789363423e-04 -1.4951862279276367e-03 -2.8762645415215878e-04  -1.6128365081201132e-04 -1.4850485934353361e-03 -2.6250405217991349e-04  -1.5561321490114847e-04 -1.5269477770246142e-03 -2.6007463913523254e-04  -1.7857916315283765e-04 -1.4809152382782619e-03 -2.9753779506401198e-04  -1.7071137063514184e-04 -1.4700336964103046e-03 -2.7293730431745438e-04  -1.6254462297635597e-04 -1.5123474366059448e-03 -2.7475610770803197e-04  -1.8645778697598983e-04 -1.4695959653277476e-03 -3.0805818799605329e-04  -1.7952038493370602e-04 -1.4581297796807974e-03 -2.8396045993620450e-04  -1.6906919017310956e-04 -1.5004657186853212e-03 -2.8943135437940965e-04  -1.9400287433304629e-04 -1.4606169490338284e-03 -3.1953526133569763e-04  -1.8793218550791887e-04 -1.4487023086591456e-03 -2.9590406099850984e-04  -1.7531234432037116e-04 -1.4907872834995536e-03 -3.0476207343401937e-04  -2.0134229870769695e-04 -1.4536553372001670e-03 -3.3224848326349459e-04  -1.9607164271210047e-04 -1.4413988544776113e-03 -3.0901238188387679e-04  -1.8136469690140398e-04 -1.4830108216437794e-03 -3.2126489448527283e-04  -2.0852139521828402e-04 -1.4485164110854081e-03 -3.4649070439213666e-04  -2.0402286962850158e-04 -1.4360805945039499e-03 -3.2356521966870754e-04  -1.8730038925095051e-04 -1.4769298363689497e-03 -3.3935570590417724e-04  -8.9327267146598727e-05 -1.6306742536177923e-03 -1.0223163511186980e-04  -8.1936507398447148e-05 -1.6220253313564909e-03 -7.9865997665940823e-05  -1.0293922518762321e-04 -1.5812380527001886e-03 -1.2564136957078553e-04  -1.0890340396757213e-04 -1.5648825251746391e-03 -1.5136179150620680e-04  -8.6363135426730702e-05 -1.6070745723645806e-03 -1.0955685482839478e-04  -9.2925399074168238e-05 -1.6162008658143715e-03 -1.3037315627434254e-04  -1.1431824221397660e-04 -1.5510261718756091e-03 -1.7506955294865656e-04  -9.0101911264871948e-05 -1.5939851440156844e-03 -1.3792202984998781e-04  -9.6104437732603203e-05 -1.6034815638874115e-03 -1.5677037848477884e-04  -1.1927843771578702e-04 -1.5394644571864562e-03 -1.9815381858495653e-04  -9.3415333249869051e-05 -1.5825927509669723e-03 -1.6546609038692968e-04  -9.8971365488738326e-05 -1.5923523553699290e-03 -1.8233133607872614e-04  -1.2381110150989149e-04 -1.5298552540903205e-03 -2.2161717785122148e-04  -9.6427265254881431e-05 -1.5727420039579126e-03 -1.9315592731192172e-04  -1.0160916839312110e-04 -1.5826551406427096e-03 -2.0803737233958402e-04  -1.2801963890205401e-04 -1.5219236226182448e-03 -2.4623727374238088e-04  -9.9183454013793699e-05 -1.5643448851044202e-03 -2.2175564284811192e-04  -1.0408204941018404e-04 -1.5743045887059604e-03 -2.3470945200493824e-04  -1.3202273684504150e-04 -1.5154303633957767e-03 -2.7275993149548971e-04  -1.0173410231739314e-04 -1.5574219025671612e-03 -2.5174076911913386e-04  -1.0648006200813922e-04 -1.5671922292044733e-03 -2.6283455835757153e-04  -1.3430829430507865e-04 -1.5531132752666038e-03 -2.0962233054640375e-04  -1.4178050015547613e-04 -1.5352191816765137e-03 -2.2773352957536214e-04  -1.4856872378803771e-04 -1.5205060244172616e-03 -2.4485442129481048e-04  -1.5492533236576383e-04 -1.5084341299831593e-03 -2.6179078229443856e-04  -1.6096632627164703e-04 -1.4985091474489906e-03 -2.7929661563560570e-04  -1.6678222732384907e-04 -1.4904451406244749e-03 -2.9795132370196928e-04  -1.7245172927752596e-04 -1.4841091291829423e-03 -3.1818520999287787e-04  -9.5082181835408461e-05 -1.5735568936791589e-03 -1.0016817034844312e-04  -1.0144936569669271e-04 -1.5573433700585627e-03 -1.2759913441362275e-04  -1.0737637410718993e-04 -1.5432657906970942e-03 -1.5304035336250062e-04  -1.1261424145842394e-04 -1.5315550636754798e-03 -1.7798437346689460e-04  -1.1732044784686590e-04 -1.5218771926169615e-03 -2.0330049405103452e-04  -1.2160189826228311e-04 -1.5139726725567192e