<?xml version="1.0"?>
<VTKFile type="UnstructuredGrid"  version="0.1"  >
<UnstructuredGrid>
<Piece  NumberOfPoints="964" NumberOfCells="4110">
<Points>
<DataArray  type="Float64"  NumberOfComponents="3"  format="ascii">8.319643491173018 3.697186942580402 3.569799973543017  8.209755681804555 3.732754879551128 3.541608330734075  8.270531038319993 3.655607916605709 3.658887967374937  8.279966809966416 3.714032049478897 3.693263443202586  8.222105633827887 3.792418340455118 3.569103869429402  8.329425764164545 3.756137916606239 3.598389825516353  8.339177517575854 3.815096839711512 3.627265553317838  8.234380501651586 3.852145944569824 3.5968936791587  8.289359823353108 3.772407970281509 3.727930689872625  8.348944255094917 3.874170679501815 3.656298094777132  8.246670865252579 3.91199429267202 3.624826750457384  8.298751760038778 3.830823718163463 3.762719933414696  8.358768510170126 3.933412156074551 3.685376802541644  8.259078077095994 3.97200664084288 3.65279839758519  8.308199476171934 3.889355059938033 3.797554125869482  8.27173611683817 4.032219416636341 3.680717791354044  8.368694472652463 3.992920538793599 3.714434472500275  8.317750179764142 3.948104935278569 3.832372513710823  8.378862496575172 4.05275447471956 3.743389800844183  8.284705454966016 4.092837631944665 3.708578380777751  8.327469583138106 4.007184536229238 3.867117620846085  8.207475029603891 3.967695244631578 2.47057760246273  8.087444406710059 3.973848497477081 2.415720925543038  8.144792245278499 3.95270647435495 2.553652667827423  8.144909257366267 4.007286675836069 2.563094986742033  8.146856179120785 3.696657975811645 3.625773379941781  8.160639385365798 3.754930876751613 3.660324381249795  8.174296233844931 3.813180635239865 3.695121015437744  8.187931665162644 3.871474416916759 3.730064762263255  8.201638939810138 3.929849626774744 3.76505178952973  8.21553181455471 3.988333113030436 3.800013952474672  8.229765723839185 4.046979108667266 3.834898251947536  8.896527013464288 3.825852286775401 3.101628448577795  8.938308606269832 3.869509059736925 2.963256761118864  8.801977227266025 3.840976379840709 3.023592456374373  8.798755602450578 3.892653072206757 3.038368010073994  8.93408000014438 3.92021297714988 2.978987093091362  8.892515603372233 3.878431044328029 3.115853191099767  8.795622144649553 3.944544934728655 3.053242507970128  8.929925716709658 3.97111500184896 2.994779615506154  8.888590787016541 3.931217799346595 3.130214861599225  8.792541187855146 3.996672940811393 3.068180280852149  8.925810203751551 4.022218088025737 3.010629539438528  8.884729225248314 3.984218122616571 3.144651517136657  8.789471949704728 4.049060976350285 3.083166144770087  8.921685499713199 4.073544495789157 3.026540819790161  8.88087766539191 4.037455988452161 3.159121980107157  8.78635690080684 4.101746193247229 3.098185179174368  8.792762202218224 3.696396151763398 3.54146591703225  8.649744830251441 3.672964733707389 3.583513280730143  8.772640778136937 3.649472854130215 3.640855401501173  8.768990284976448 3.708087580819491 3.670532989788787  8.64860134322425 3.731883573329672 3.610532770724431  8.789870981311777 3.755710788400667 3.563911384505068  8.765571630786777 3.766629567148566 3.700487936337559  8.647636642476499 3.790828349223517 3.637857941620996  8.787171507784793 3.8150590159227 3.586636354598007  8.762273762901915 3.825185344661968 3.730576406756405  8.646770006396023 3.849861090051864 3.665334656727977  8.784572750769483 3.874499469085732 3.609501065423363  8.759004420881773 3.883812837929738 3.760690491040727  8.645934523379527 3.909033462922631 3.692846838781268  8.781995826586932 3.934074158555823 3.632392358239761  8.75567081591549 3.942537541486445 3.790745651090375  8.6450503800005 3.968396397900934 3.720303721661851  8.779361369686253 3.993824165368165 3.655209844140292  8.752145149065868 4.001352442682048 3.82066697091783  8.644018039044875 4.028006387372064 3.747621345754881  8.776556969528061 4.053774785769324 3.677840915060511  8.192452217606577 3.619956645927086 3.738570748849374  8.202833154207765 3.676026534712004 3.780728377804022  8.2131280938814 3.731965290572147 3.823087415838177  8.223404291215315 3.787899927998474 3.865529845486331  8.233734027858612 3.843899377123442 3.908008341188749  8.244190900812288 3.900034813009527 3.950495465243272  8.254813307308691 3.956398424076886 3.992953939653114  8.704216122225265 3.7139097771242 3.47690925955811  8.702904048026133 3.772792182075671 3.496871773958057  8.701752446665697 3.831796050183871 3.51714259596698  8.700691789023731 3.890957588251408 3.537560992726517  8.699660935229529 3.950308680867158 3.558008931715351  8.698591949943504 4.009886358890847 3.57837856155736  8.697421595166396 4.069721622432352 3.598557352382036  8.703504692983365 3.926478746397023 2.737216955425222  8.60492256597805 3.950696752948628 2.643635325104742  8.54741901508455 3.907162251800965 2.767589484694996  8.545346445110837 3.958421845110029 2.783376802012124  8.645507321494515 3.890054223807828 2.833896071609368  8.642897982633635 3.940682711941303 2.850276829734281  8.699752227741014 3.97686158163255 2.754762765166923  8.543358656859057 4.009931871893698 2.799130168393453  8.696094698030722 4.027489880064721 2.772246150982338  8.640374889413634 3.991607245492688 2.866683445457233  8.541414152917351 4.061720881216752 2.814926857845337  8.692463804676892 4.0783557654534 2.78976822223495  8.637882360016977 4.042779658946714 2.883131168861514  8.539464611417213 4.113783656772204 2.830831514211695  8.688817074205929 4.129450454608144 2.80739173885484  8.63539258684435 4.094221648588507 2.899664910417975  8.53746454070972 4.16613529995451 2.846899418579576  8.685103283464601 4.180772894767726 2.825191372646821  8.632861842035695 4.145967448748226 2.916340125174083  8.535363461800378 4.218779369874963 2.863197715476147  8.681273381289442 4.232320240054051 2.84328382523663  8.630219968111104 4.198101586165339 2.933269123136095  8.250236339754766 3.842448553084338 3.098512530096466  8.201854686704827 3.865531508799678 3.010230893182188  8.156792330062045 3.852510585632493 3.141619658163875  8.170038410439728 3.90976613473241 3.15200621492904  8.211085970337809 3.921022791536321 3.019991851769271  8.258965938832581 3.898370741094769 3.110017756952692  8.183148041244173 3.967278400747528 3.162643882038809  8.220211746683251 3.976767914619356 3.029942466370115  8.267607386536083 3.954556370766664 3.121742910132826  8.196331787259741 4.025097028581134 3.173354731592234  8.229388138603584 4.03280911240632 3.039972704457743  8.276325695511034 4.011030161651362 3.133528481548479  8.209676956327613 4.083213922305274 3.184054200681956  8.238713994576999 4.089164436180187 3.049999900466438  8.285203937457544 4.067822149602925 3.145303063118238  8.223306777504424 4.141639186773681 3.194668780525185  8.248289380775345 4.145865983545948 3.0599759540262  8.294343260168596 4.124967891518275 3.156999318845513  8.237443383260455 4.200349874887842 3.205076254559073  8.258262983508299 4.202987418994402 3.069818734707637  8.303866701237535 4.182608057225996 3.168574193183616  8.074454912253051 3.669681685058384 3.696799090824312  8.090162004287937 3.726703573630894 3.736932750052444  8.105678957843793 3.783661350281219 3.777259207558901  8.121134749618372 3.840614196370445 3.817691409274783  8.136634098866072 3.897604347296144 3.858154173037596  8.152325059141107 3.954653477305579 3.898575302310462  8.168404468128054 4.011872412753982 3.938950710960126  8.910680143292728 4.003566914142301 2.887523943345037  8.841212600020709 4.024305650680372 2.812261683004634  8.828488394984484 3.97702182795335 2.949809705238122  8.824858430285433 4.027933460796423 2.966012486417316  8.836894168489238 4.074569616046895 2.829906045595228  8.906236428437648 4.05380924853706 2.904661833501768  8.821222460450592 4.07908275470528 2.982288292506203  7.696637833463237 3.58797579244999 3.928827920415707  7.600270052275697 3.656449709165809 3.912206073106202  7.5955181378793 3.519693364885948 3.991503952125342  7.609801583245891 3.558408344535963 4.063241010711498  7.617670899451728 3.702731448321519 3.978279596747921  7.715371431676097 3.631306808415239 3.99445417997874  7.623909632085968 3.597165589887594 4.134755998232959  7.634821283754537 3.749000256460604 4.044160828373501  7.733834233940748 3.674616759729985 4.059919532550715  7.637898828103211 3.635884466910948 4.206120218788363  7.651827086105054 3.795207969643366 4.109908700464954  7.75216503322589 3.717873412645493 4.12528528721116  7.65183215422291 3.674516720745163 4.277377795915704  7.66877906673024 3.841315314925549 4.175552540233934  7.770461978232357 3.761048234921056 4.190566079412835  7.665769795886464 3.713013583158848 4.348549042032994  7.685746252556046 3.887275788283878 4.241105613850403  7.788804900690673 3.804098600603735 4.255750718928998  7.679766789647603 3.751316369826086 4.419649971059738  7.702788468015281 3.933057343684257 4.306570085439663  7.807239112727936 3.846956217341532 4.320810019059087  8.48481103148543 3.942604840100119 2.63608222708574  8.482024718052601 3.99457778539741 2.65099067645131  8.076357174882535 3.887786713823428 3.048361430753219  8.090186724526438 3.944884969503273 3.056655475797461  8.103876002510457 4.002334496219481 3.065198703935767  8.117617199347418 4.06005459451498 3.073808239872693  8.131532306653339 4.118065896138431 3.082391088707706  8.14575624751002 4.176389131965327 3.090872361238358  8.160486813763159 4.23502359315848 3.099157185982016  9.003056694475823 3.569947517023636 3.791386873810843  8.974074714784079 3.63017503845702 3.693390042021607  8.885083600362723 3.563630430213043 3.795366095478767  8.882681370729099 3.616719741218734 3.839688836318679  7.514149997505439 3.599049121657181 3.961435156667186  7.526445183976521 3.641079707947856 4.032853261494252  7.538573387581202 3.683097454646024 4.103971341937702  7.55056866606816 3.725069809670131 4.174915707657866  7.562492664851017 3.766945686151708 4.245736956131633  7.5
[...]
<PointData  Vectors="f_24"> 
<DataArray  type="Float64"  Name="f_24"  NumberOfComponents="3" format="ascii">-8.7913670934407136e-05 1.3430356607694084e-03 -1.2121047259229394e-04  -7.8946299164073871e-05 1.3866899262148426e-03 -5.6326500228350342e-05  -9.0105881369436099e-05 1.1246574424606660e-03 -1.8517646779478764e-04  -9.8831006140512784e-05 1.0397822123666240e-03 -7.1759666197442550e-05  -9.2380778404318195e-05 1.3236530859679254e-03 6.5299780844910499e-05  -9.9942276868837738e-05 1.2734927420512752e-03 2.7278682709681901e-06  -1.1071822829327002e-04 1.2084820087721879e-03 1.2120525532901782e-04  -1.0475828124844974e-04 1.2644425903512756e-03 1.8205342457878316e-04  -1.0642210583789340e-04 9.6293579052381128e-04 3.7405244673773096e-05  -1.2075169062880490e-04 1.1460354078497957e-03 2.3837947842956576e-04  -1.1617454008514068e-04 1.2071757903408136e-03 2.9716525013791185e-04  -1.1320639571171405e-04 8.9086748121302434e-04 1.4630120781951327e-04  -1.3024960148161658e-04 1.0848320948192724e-03 3.5755084917229660e-04  -1.2697447155088826e-04 1.1508000435218302e-03 4.1389073087202104e-04  -1.1928023866633711e-04 8.2133696837276033e-04 2.5786082537966089e-04  -1.3724411187093677e-04 1.0945777685711082e-03 5.3485346265885986e-04  -1.3947754074656462e-04 1.0237941833059379e-03 4.8183958337160305e-04  -1.2453413445175389e-04 7.5277335992925555e-04 3.7450754631981328e-04  -1.4845225991493244e-04 9.6226597695070915e-04 6.1348901459127615e-04  -1.4769487880079605e-04 1.0373006290338893e-03 6.6320496770590719e-04  -1.2861881448782364e-04 6.8381041268845825e-04 4.9887269017577160e-04  -1.2446589914133065e-04 2.7766634832602282e-03 4.8975969683120611e-04  -1.1855176100791956e-04 2.6964589192458545e-03 5.1388048310635199e-04  -9.1844520278249963e-05 2.7572413790743142e-03 4.5431095126861730e-04  -1.2068376950713115e-04 2.7820054545147667e-03 4.6286748197322462e-04  -8.0601430246108810e-05 1.1872847090790692e-03 -1.1243397870662793e-04  -9.0763124339548557e-05 1.1065921632303971e-03 -9.9889312940083996e-07  -1.0019222004879762e-04 1.0321697347055081e-03 1.0594110195166753e-04  -1.0861903991972864e-04 9.6182819466702270e-04 2.1181442197046649e-04  -1.1604736738350806e-04 8.9391192330625009e-04 3.1946578202424257e-04  -1.2241893976765362e-04 8.2699625841549482e-04 4.3108758447222846e-04  -1.2750156027749830e-04 7.5967206957480401e-04 5.4919504473593169e-04  -2.0743199331827393e-04 2.5907399856944613e-03 1.3947632754637105e-04  -2.4748626538253815e-04 2.8413952095671289e-03 2.4835259915406487e-04  -1.8304417999265242e-04 2.7053683306957226e-03 1.9005050453154202e-04  -2.0175557109864577e-04 2.7020490046311676e-03 2.8564716178927792e-04  -2.6099993795891322e-04 2.8424561808447794e-03 3.3427227527891564e-04  -2.2154617910663275e-04 2.5828516058884108e-03 2.4814222401839170e-04  -2.1762948142946788e-04 2.6917091768283580e-03 3.7454158753459611e-04  -2.7203079564839172e-04 2.8350726638786614e-03 4.1340642176663481e-04  -2.3322557937419425e-04 2.5682976046475085e-03 3.4970254578470977e-04  -2.3164098624024594e-04 2.6735033708316213e-03 4.5927078952418270e-04  -2.8129629225071728e-04 2.8185860585557914e-03 4.8794314118982119e-04  -2.4321788051855550e-04 2.5462370376411257e-03 4.4705561651798361e-04  -2.4477594853608906e-04 2.6461970086025361e-03 5.4248139596974293e-04  -2.8941407369963487e-04 2.7917377887055582e-03 5.6007118940372099e-04  -2.5231173745190549e-04 2.5155229641068717e-03 5.4341111997248674e-04  -2.5812604644184892e-04 2.6078696862540966e-03 6.2721110236229336e-04  -1.4491767835361706e-04 1.5107919213756002e-03 -1.5241575786376183e-04  -1.2289101828804114e-04 1.3742574376578974e-03 -1.8308528350314575e-04  -1.3908328539360385e-04 1.2448400596895715e-03 -2.3687770206110896e-04  -1.4214079079785568e-04 1.1625018357908489e-03 -1.0356975356655350e-04  -1.3070379190515625e-04 1.3017547706520205e-03 -4.7850361018618718e-05  -1.5147777609247911e-04 1.4508652706393644e-03 -9.4767732247081135e-06  -1.4436363106227451e-04 1.0871447789775968e-03 2.3963015742633306e-05  -1.3729352888372108e-04 1.2338234529837503e-03 8.0923343669560296e-05  -1.5677169354170973e-04 1.3936612927222705e-03 1.2606319886894433e-04  -1.4629310208897020e-04 1.0154271363592027e-03 1.5002312978501181e-04  -1.4320928861435503e-04 1.1683693455427247e-03 2.0793692090017300e-04  -1.6143907545192770e-04 1.3374133715936044e-03 2.5927556757081701e-04  -1.4828230135426247e-04 9.4548835625846768e-04 2.7826813274731740e-04  -1.4897737332444927e-04 1.1039189939862637e-03 3.3694058381907185e-04  -1.6600960319289044e-04 1.2808600038220078e-03 3.9417925916631610e-04  -1.5074249084123871e-04 8.7601215112338932e-04 4.1135335941085225e-04  -1.5512877787442740e-04 1.0394507178320509e-03 4.7108451008435516e-04  -1.7100518224616749e-04 1.2232013061230650e-03 5.3423460409541710e-04  -1.5404306245991089e-04 8.0623819204761829e-04 5.5146240577190280e-04  -1.6235241036637062e-04 9.7428111714855802e-04 6.1300998081316167e-04  -1.7688583303853960e-04 1.1642363007117410e-03 6.8237707212348629e-04  -8.9414305199622392e-05 9.2877929392281514e-04 -2.2853946822600063e-04  -9.4420545467137923e-05 8.2937546963098442e-04 -1.3319025920023641e-04  -9.8754632751922253e-05 7.4174551731379221e-04 -3.9488511720757543e-05  -1.0214108810632597e-04 6.6020693684842912e-04 5.5663837541547596e-05  -1.0445007339483169e-04 5.8184920920557024e-04 1.5444722034474234e-04  -1.0526096925151754e-04 5.0463162371831079e-04 2.5878609109524864e-04  -1.0394263527435275e-04 4.2706137279898803e-04 3.7077183042188376e-04  -1.2955402023556896e-04 1.6594432821640816e-03 -1.1090131200663549e-04  -1.4063454390304513e-04 1.6105137913786165e-03 3.0495179238392993e-05  -1.4997585803937200e-04 1.5619550818332210e-03 1.6457665793446032e-04  -1.5840018191638587e-04 1.5129488429937205e-03 2.9590287675668327e-04  -1.6660092785537344e-04 1.4626571119052412e-03 4.2856524785897911e-04  -1.7522875731265306e-04 1.4104966519334714e-03 5.6629470763373162e-04  -1.8484705318237493e-04 1.3562367088525166e-03 7.1249473997592465e-04  -1.9802504457238829e-04 2.9947960817568132e-03 3.8717911888663331e-04  -1.8451789676854715e-04 2.9856307440244171e-03 4.3109891493772729e-04  -1.3727956658755164e-04 2.9044529690242090e-03 3.5267231794539652e-04  -1.6427883452066542e-04 2.9171551052274963e-03 4.0230580358578840e-04  -1.5630307113456514e-04 2.8961675721827476e-03 3.1571991723884250e-04  -1.8098317760546157e-04 2.9038065615955605e-03 3.7773459513648665e-04  -2.2108644035029234e-04 3.0097076627625076e-03 4.3017144820401131e-04  -1.8821130794266836e-04 2.9211951197836619e-03 4.4675224236170299e-04  -2.4104187643006876e-04 3.0150086833422999e-03 4.6792910448598352e-04  -2.0256886350902831e-04 2.9035775471048502e-03 4.3423221893630024e-04  -2.1023476008818215e-04 2.9162974784271421e-03 4.8720330609774488e-04  -2.5886520591675473e-04 3.0103439513103646e-03 5.0124380967936605e-04  -2.2210246600990393e-04 2.8945022691609893e-03 4.8654409279246457e-04  -2.3159580365389972e-04 2.9015529748400988e-03 5.2455051632281288e-04  -2.7558860500719165e-04 2.9950643904151824e-03 5.3047942222999602e-04  -2.4084472089999366e-04 2.8755562886364008e-03 5.3596730057072666e-04  -2.5368613102860098e-04 2.8755886021965653e-03 5.5946048897608967e-04  -2.9231601917145374e-04 2.9679867501959546e-03 5.5550824805891469e-04  -2.6016872427708489e-04 2.8450655626394887e-03 5.8355160389358973e-04  -2.7817063729631170e-04 2.8365672297180791e-03 5.9232368989745206e-04  -3.1017204711345956e-04 2.9272632823928750e-03 5.7525355110058928e-04  -2.8157631720079803e-04 2.8000058221448092e-03 6.2978541286506516e-04  -4.4278015602696739e-05 2.3077579812662021e-03 1.6425161963106756e-04  -3.8247029251853593e-05 2.4227079960508135e-03 2.1622459476116726e-04  -3.9805669356065572e-05 2.1848491581119697e-03 1.6742444376249713e-04  -6.3534573232801591e-05 2.1846010700856187e-03 2.6975655780044126e-04  -6.4696204799516083e-05 2.4302997960026877e-03 3.0268076017784336e-04  -6.9450401794084299e-05 2.3066859713702335e-03 2.6313743967678005e-04  -8.6420204046861211e-05 2.1797618651273128e-03 3.6673747776491260e-04  -8.9712292240952084e-05 2.4320452960306378e-03 3.8404884396801256e-04  -9.2852097875583260e-05 2.3005072212894466e-03 3.5661879115189178e-04  -1.0912868340643259e-04 2.1704437428638193e-03 4.6121599902796919e-04  -1.1431499527997828e-04 2.4278455806878690e-03 4.6260637192580451e-04  -1.1567428255733032e-04 2.2891797756312109e-03 4.4747739658577881e-04  -1.3250608255048040e-04 2.1565999545470737e-03 5.5618816335302587e-04  -1.3962336013235627e-04 2.4174521313807622e-03 5.4097919537830135e-04  -1.3901264877422652e-04 2.2724743657842254e-03 5.3863359226743567e-04  -1.5766625068676084e-04 2.1384328934938609e-03 6.5497080431917533e-04  -1.6713136642151696e-04 2.4006233898951073e-03 6.2235220459960913e-04  -1.6424494682637961e-04 2.2503088864250604e-03 6.3342870481362923e-04  -1.8583578258720776e-04 2.1166448410240776e-03 7.6135235920378485e-04  -1.9883500676525179e-04 2.3776948608686716e-03 7.1087836210469136e-04  -1.9305899734984612e-04 2.2233484303574129e-03 7.3594448656749711e-04  -7.9708522251352559e-05 1.0203963518632757e-03 -1.4476549679906089e-04  -8.7368069165798449e-05 9.2924972214285663e-04 -4.5720911427729583e-05  -9.4074933961808873e-05 8.4663953636361731e-04 4.9901138801921178e-05  -9.9606732804356334e-05 7.6949064415442582e-04 1.4599505457111981e-04  -1.0378588920688159e-04 6.9544194341443369e-04 2.4463499582658491e-04  -1.0621896700174469e-04 6.2270909796748833e-04 3.4735295050363787e-04  -1.0614921043728387e-04 5.4943632941186979e-04 4.5598129016754152e-04  -2.8761443213409321e-04 2.9813817587445021e-03 4.5492639722270858e-04  -2.7997304110763502e-04 3.0375202164816292e-03 4.7244816430899728e-04  -2.4730468745346221e-04 2.8752555422735617e-03 4.2282958400281025e-04  -2.6069366799561162e-04 2.8611432247459645e-03 4.8942803161913784e-04  -2.9290371879863092e-04 3.0307610808095746e-03 5.1222051256039362e-04  -2.9781170877032697e-04 2.9702963473561945e-03 5.0925034616462316e-04  -2.7302821439191002e-04 2.8368081788859912e-03 5.5329846304513232e-04  -5.0518247081752769e-05 5.3767479459136810e-04 -1.8287341996159418e-04  -4.6915050839866477e-05 5.8957923544463939e-04 -7.9362936157773931e-05  -3.8712854589779230e-05 4.2018051007817157e-04 -2.3570898757779656e-04  -2.4922188287094910e-05 3.1270645776471253e-04 -2.1229006235136654e-04  -3.8706546233664960e-05 4.8089963405311374e-04 -3.4472897854019504e-05  -4.3588569358441643e-05 4.2831833113601766e-04 -1.4508742976091405e-04  -1.1572784823233054e-05 2.1427932741894750e-04 -1.8198414500431227e-04  -3.0067320264362182e-05 3.8065681042063863e-04 1.5376876475228892e-05  -3.5764433684832463e-05 3.2849340775755609e-04 -1.0145570567307367e-04  2.9136776805449252e-06 1.2181809125134501e-04 -1.4501048774407315e-04  -2.0101139513166251e-05 2.8578404256466292e-04 6.9712434455669790e-05  -2.6301514700122879e-05 2.3463986784816359e-04 -5.2610969756497672e-05  1.9599646422695113e-05 3.2562546618991394e-05 -1.0213690688654874e-04  -8.1551056281237987e-06 1.9382603789482660e-04 1.2824125642142041e-04  -1.4388031962263221e-05 1.4407251196087105e-04 1.1607691119628328e-06  3.9251923576385455e-05 -5.5745692483484809e-05 -5.4102650554833912e-05  6.2663279419426215e-06 1.0277875231660101e-04 1.9054054431987032e-04  6.6802669052499159e-07 5.4557304611976234e-05 5.9394608802109082e-05  6.2517475600503463e-05 -1.4498343324538491e-04 -1.5739844191320935e-06  2.3325101658224347e-05 1.0988218758978401e-05 2.5580771943432986e-04  1.9224192298975244e-05 -3.5846114064285722e-05 1.2129007719599371e-04  -1.4834459040977406e-04 2.9303549077021192e-03 4.2379569524820577e-04  -1.7568576520754777e-04 2.9516865529844315e-03 4.4683904664694285e-04  -3.2853994438557188e-05 2.2954691148068503e-03 2.3326732135145584e-04  -5.7841337759085129e-05 2.3044529221203204e-03 3.2238685941986001e-04  -8.2429619641583222e-05 2.3074389216249753e-03 4.0647217574146907e-04  -1.0712848592323808e-04 2.3049968522823351e-03 4.8824592123107986e-04  -1.3283641061028866e-04 2.2972613050725741e-03 5.7057913417664222e-04  -1.6079220711748407e-04 2.2845823273879009e-03 6.5669592937270195e-04  -1.9239639581236840e-04 2.2680255032251225e-03 7.5010658455815975e-04  -1.5685334316556352e-04 8.5887692026388913e-04 -4.0023054869280068e-04  -1.6375800634570915e-04 1.1230608153000737e-03 -2.9750381650864966e-04  -1.4506806664788316e-04 8.4305009723103792e-04 -3.9054766353682313e-04  -1.3972342152887600e-04 7.3057251744741442e-04 -2.9224817137658724e-04  -3.7699887967716825e-05 4.9965704109392571e-04 -1.2639784375415342e-04  -2.3418977677154192e-05 3.9035692734495583e-04 -9.3250535293658686e-05  -9.6618945696981752e-06 2.8922486110727038e-04 -5.4497397323452680e-05  4.8365974005244992e-06 1.9368097806122899e-04 -1.0343247098943297e-05  2.0973281615551270e-05 1.0122607268193322e-04 3.8723902631893080e-05  3.9262376724385673e-05 9.7547530409340496e-06 9.2206876832140157e-05  5.9961297521331401e-05 -8.2394045043142391e-05 1.4986295796257099e-04  -6.9887823710603080e-05 1.4594877193775250e-03 1.7826343776597845e-05  -8.5546572808633408e-05 1.4080193116290712e-03 1.3708836853482231e-04  -9.9833129139281846e-05 1.3586371089400100e-03 2.5121991617086742e-04  -1.1338721485290693e-04 1.3102810842904886e-03 3.6394760506705315e-04  -1.2630366180638351e-04 1.2621487010542984e-03 4.7813373455761281e-04  -1.3855686829559243e-04 1.2137986935858395e-03 5.9614992224175619e-04  -1.4953236713689114e-04 1.1654945980902303e-03 7.1925104244121782e-04  -2.4720630126923886e-04 3.0207292966013773e-03 3.7792862887263851e-04  -1.9042590102891585e-04 2.9221530218734373e-03 3.1404910477123471e-04  -2.1394953424251869e-04 2.8769435674874141e-03 2.7466712401343941e-04  -2.1213269096560442e-04 2.9293171553201320e-03 3.7890849253044835e-04  -2.6498952884526232e-04 3.0340257548807491e-03 4.2789664917572098e-04  -2.3197410209399992e-04 2.8803424020604389e-03 3.5181048525357808e-04  -2.3082529833730236e-04 2.9280476777128997e-03 4.3828283914349272e-04  -2.4743158488971581e-04 2.9176445071725787e-03 4.9319773248454981e-04  -2.6307900898257054e-04 2.8970114737111724e-03 5.4489737437056268e-04  -3.0464299589619590e-04 3.0129393191065897e-03 5.4768483348370859e-04  -2.8526976946813005e-04 2.8002602316273993e-03 6.1621093889802298e-04  -2.7893356500506686e-04 2.8643381626136852e-03 5.9446623471649731e-04  -3.1607023950189445e-04 2.9826190751334890e-03 5.7884779723438805e-04  -2.9848702926985282e-04 2.7483382819370275e-03 6.8010005776195320e-04  -2.9633628434480927e-04 2.8165710405801091e-03 6.4277890258222813e-04  -3.2799774427597620e-04 2.9373467722193288e-03 6.0544803531339465e-04  -1.4803546977692361e-04 1.0957129654980188e-03 -2.8893870559480863e-04  -1.4702476761537149e-04 1.0035058415233005e-03 -1.6228768084295989e-04  -1.5953544783164271e-04 1.0295876654076381e-03 -1.6917174007934427e-04  -1.4554877434133434e-04 9.1986740437027511e-04 -4.0818993100247987e-05  -7.4661649856727128e-05 1.2399089224024078e-03 -2.4866217578723632e-05  -8.7107233432200088e-05 1.1628127304929708e-03 8.1015828474199314e-05  -9.8051998714463303e-05 1.0899362376747138e-03 1.8357176913546587e-04  -1.0772848273140336e-04 1.0200848486839357e-03 2.8539952681049609e-04  -1.1621028945753491e-04 9.5194102932746199e-04 3.8898918823565613e-04  -1.2343237797487040e-04 8.8450607737529873e-04 4.9623055835101881e-04  -1.2920760489560778e-04 8.1698219291826335e-04 6.0751497921098202e-04  -9.7343384364895183e-05 1.9547270877712120e-03 -1.4378768091660398e-05  -7.9083959310960206e-05 1.9879959991780938e-03 1.9817212261595853e-05  -9.3464850482244646e-05 1.7417478870051385e-03 -6.3873045650166783e-05  -1.0970285373847613e-04 1.7007038127854084e-03 7.0282216293288810e-05  -9.9200529502847221e-05 1.9633157754620533e-03 1.4540489067599356e-04  -1.1566335181577543e-04 1.9250884292845842e-03 1.1646652278668579e-04  -1.2410963656472312e-04 1.6596565949660253e-03 1.9782642349679700e-04  -1.1733590095388773e-04 1.9360590457964113e-03 2.6463436811030084e-04  -1.3186296323673780e-04 1.8933343935677389e-03 2.4058445815797370e-04  -1.3743046981197322e-04 1.6177517962349341e-03 3.2271629590676851e-04  -1.3439697037774000e-04 1.9059187684656762e-03 3.8130621843382098e-04  -1.4683237840378694e-04 1.8588894279166022e-03 3.6195607885365611e-04  -1.5046318391566209e-04 1.5743283358233789e-03 4.4873948959742394e-04  -1.5135059378850363e-04 1.8724496103015866e-03 4.9903183033254007e-04  -1.6152803202266751e-04 1.8211916400538890e-03 4.8439227815358994e-04  -1.6402056875960635e-04 1.5289679375682130e-03 5.7958936422584993e-04  -1.6929874684140433e-04 1.8354741703465920e-03 6.2169233182671104e-04  -1.7701645811213083e-04 1.7798788764443467e-03 6.1181810344634955e-04  -1.7909423177405785e-04 1.4813091014505796e-03 7.1907360905310979e-04  -1.8956196401533347e-04 1.7953914310629732e-03 7.5340706714179049e-04  -1.9464545456502762e-04 1.7349544249586908e-03 7.4828180122705264e-04  -1.5653939134382329e-04 2.7776213856808485e-03 2.3454470931803521e-04  -1.7920947641918334e-04 2.7781740331701259e-03 3.1776572162568972e-04  -1.9875866672989303e-04 2.7715674787198931e-03 3.9500096869690991e-04  -2.1632189204176433e-04 2.7569306445514416e-03 4.6817685747239322e-04  -2.3314286336862850e-04 2.7329536323126408e-03 5.3934058689510448e-04  -2.5059699766175888e-04 2.6976031864987026e-03 6.1081984557280651e-04  -2.7012490082197263e-04 2.6478725412957642e-03 6.8550551563210612e-04  -7.3600150404009315e-05 1.0690534241951245e-03 -5.5805794656376528e-05  -8.3526754263131350e-05 9.8265553005593060e-04 3.9420642790553869e-05  -9.1767639969149117e-05 9.0260440584206676e-04 1.3237617795454660e-04  -9.8514433725420555e-05 8.2684822610677657e-04 2.2561282806323984e-04  -1.0375371906000262e-04 7.5352484231919464e-04 3.2108937708691816e-04  -1.0712439360956181e-04 6.8116467583786890e-04 4.2008117376791411e-04  -1.0769605302076876e-04 6.0912685555222768e-04 5.2271127599590726e-04  -7.7340808469344316e-05 1.7611265243225281e-03 -2.6742941035908068e-05  -9.5172895566119503e-05 1.7249779120381600e-03 1.0276710367245922e-04  -1.1140276515278889e-04 1.6883448648190328e-03 2.2597606542429811e-04  -1.2669361320000557e-04 1.6505939937100467e-03 3.4670166409685307e-04  -1.4173855353682903e-04 1.6112260120372175e-03 4.6854891554882837e-04  -1.5728283288190292e-04 1.5699990726475766e-03 5.9504327026410728e-04  -1.7401292064555740e-04 1.5269857435161775e-03 7.2977934529720083e-04  -4.6932401196154285e-05 6.6452197558711050e-04 2.2819901713024069e-05  -3.8403064451176185e-05 5.5632094321900573e-04 7.4035269841418543e-05  -2.9656113426422828e-05 4.5552579212457912e-04 1.2916656707902697e-04  -1.9879439479994399e-05 3.5979336250706404e-04 1.8804065900767064e-04  -8.6012300622168268e-06 2.6686887900777056e-04 2.5039010126094968e-04  4.4689818694224493e-06 1.7490868397781532e-04 3.1593030764523553e-04  1.9430958884074205e-05 8.2390473446149746e-05 3.8427400882774430e-04  -2.9405814680581597e-04 3.0921849272494803e-03 4.9077213807971096e-04  -3.0781823207397539e-04 3.0926855337059253e-03 5.0558301610278359e-04  -3.2019773132765700e-04 3.0822149534600551e-03 5.1517902636070880e-04  -3.3198983698805247e-04 3.0602261140725731e-03 5.1848168582019577e-04  -3.4406425901073451e-04 3.0255031439650614e-03 5.1362084185848202e-04  -7.4238874051201482e-05 8.2467165939596819e-04 -1.8095455597292191e-04  -7.9142628228729545e-05 7.2036975897900616e-04 -1.0776601693799017e-04  -8.2035897376035239e-05 6.2572841336187921e-04 -3.3554497850873873e-05  -8.3361137506414109e-05 5.3724544939060101e-04 4.2903568067955772e-05  -8.2775885476881332e-05 4.5232708828524699e-04 1.2303906065863485e-04  -7.9703927368936030e-05 3.6892778007300501e-04 2.0780564487330377e-04  -7.2855242588334111e-05 2.8558600240716984e-04 2.9718084549407972e-04  -3.7331654248650826e-05 2.0874990105720641e-03 2.0664272504677511e-04  -6.0393042788435537e-05 2.0885880844164731e-03 3.0790228300681030e-04  -8.2994849106943325e-05 2.0851545357223424e-03 4.0389805873292334e-04  -1.0568932922173600e-04 2.0775808790610088