<?xml version="1.0"?>
<VTKFile type="UnstructuredGrid"  version="0.1"  >
<UnstructuredGrid>
<Piece  NumberOfPoints="1020" NumberOfCells="4359">
<Points>
<DataArray  type="Float64"  NumberOfComponents="3"  format="ascii">1.584888979483782 3.971873803048069 2.81805364813742  1.704589237651633 3.954768489740561 2.893389942584836  1.715408841158685 3.988306171441774 2.769973055781669  1.714167204545384 4.051216040728891 2.786196891033152  1.703640590982044 4.017080313249979 2.912142386588269  1.583429463856866 4.034245349245229 2.834717634993238  1.713051795102597 4.114075718146214 2.802339031270728  1.702829985391363 4.079360550549228 2.930812926266258  1.582094707263336 4.096603241440952 2.851291969631515  1.712008630220043 4.176857338584278 2.818418340494244  1.702094495581182 4.141591416487471 2.949424525139237  1.580832205226649 4.158928619491455 2.867804714065569  1.710979495598554 4.239567081180092 2.834465843035621  1.701371301387602 4.203770883452809 2.968008199909121  1.579587865525417 4.22121513459572 2.884296872488574  1.709910108931396 4.302204138890175 2.850509711557904  1.700597866968399 4.265891147974536 2.986594679845594  1.578305037920851 4.28345425226337 2.900807280331195  1.708714785254853 4.364760046885119 2.866601862397621  1.699685988150501 4.327938806256348 3.005236971467744  1.576903205957737 4.345636209256211 2.917386135441189  1.610051260649452 3.993723909842683 2.736480296799805  1.608507442698195 4.056529562666935 2.751644469554441  1.607083498132808 4.119286433882954 2.766714201987571  1.605722169216507 4.181992657076385 2.781726702148423  1.604379323569362 4.244641272009106 2.796713986484989  1.603006792448967 4.30722601386621 2.811707081494227  1.60151946712847 4.369731964529948 2.826757786004123  1.987468767806829 3.939361863931348 2.94047746729852  2.03000960766754 3.873621139314178 3.096191694873636  2.110866497666702 3.908468831025487 2.996496724821364  2.033733895944988 3.934703850481522 3.122042966661602  1.990431205481781 4.001859598579787 2.961872504872961  2.115942447903105 3.970466896821391 3.020048585339632  2.037557743138968 3.995658652198269 3.147779008590848  1.993460865503365 4.064245565894355 2.983180305439555  2.121063089350546 4.03230960318229 3.043501261469542  2.041419540991455 4.056503645562186 3.173439592758339  1.996524383756653 4.126526289519311 3.004429610427925  2.126189983154883 4.094021590214163 3.066885016131175  2.045281258258851 4.117253553184647 3.199059101590754  1.999585534795445 4.188704093258796 3.025643884623565  2.131306130730075 4.155624186480527 3.090227677289403  2.049106753230587 4.177910813176296 3.224666617900446  2.002608917236097 4.250774434309328 3.04684583697423  1.557173090726218 4.417030851944532 2.204402899423582  1.431237518425383 4.409319189624541 2.24112785554446  1.445716002179307 4.425815716726098 2.07480656561398  1.432104057195599 4.342373600862693 2.235804647185559  1.558930103010755 4.34988143787316 2.200208031626306  1.445295843345506 4.494324645663866 2.076071226651876  1.555419768257079 4.484091657980334 2.20859716332214  1.430436296812557 4.476147326020878 2.246486311877536  1.919987943948726 3.90262064029318 3.042671593526039  1.922273538220464 3.963769746351899 3.067426324798315  1.924662552385997 4.024829409686822 3.092073379954246  1.927106709342586 4.085802149897925 3.116655317069005  1.929556740068439 4.146695638998404 3.141200834335533  1.93196981427269 4.207508150319939 3.165734408249731  1.934288534222665 4.268221996329353 3.190296816702141  2.052846248166896 4.238463518978497 3.250294273586858  2.005566633045115 4.312719473282402 3.068053120853627  1.933878422109528 4.041395451381709 2.559202751773089  1.830219118856849 4.014756033932712 2.673228403006872  1.954028649108205 4.012311587079421 2.683451630612435  1.955453359373013 4.076769560916749 2.698901882737422  1.829225117922233 4.078800159547035 2.688145254926487  1.935350930083875 4.106920337720289 2.57205841908016  1.956949485855542 4.141058587164675 2.714267117487951  1.828357157262635 4.142721917964458 2.702973012556971  1.936873975027073 4.172290875786557 2.584854765872153  1.958471090404606 4.205202542396854 2.729585504171451  1.827538381941847 4.206525039246869 2.71774137169168  1.938410014607018 4.237516971035232 2.597614053839131  1.959982453862412 4.269222551292978 2.744877165787583  1.826720371305151 4.270221920714594 2.73248058386132  1.93993428010679 4.302615246253986 2.610352144850293  1.961453308242245 4.333121259686704 2.760159804491141  1.825858618646273 4.333816983332292 2.747209606469115  1.941418638360313 4.367584120516048 2.623084238562385  1.962877450487027 4.396895304925929 2.775422805124166  1.824899753274564 4.397297099380144 2.761945859990996  1.942879895017105 4.432407878084915 2.635783758515561  1.86800476227513 3.988937950544881 2.775210698415616  1.985626431981972 3.984186800129843 2.787294050591691  1.987507122595744 4.047822069521103 2.80520924756939  1.868044662686948 4.05234590849579 2.792414748099433  1.989458109360207 4.111303548381746 2.823042092252815  1.868198585985758 4.115628038426228 2.809533155438244  1.991435525999425 4.174649589502641 2.84081860803304  1.868404106121636 4.17879997574773 2.826594684294744  1.993403735587293 4.237877674387779 2.858563468368799  1.868612013021934 4.241870050303458 2.84362371371727  1.995337520198946 4.300995051706556 2.876294732652263  1.868776175707221 4.304838707416362 2.860643769289156  1.997210394157165 4.363997585278755 2.894017610446721  1.868846771089676 4.367692644993942 2.877673781535626  1.335931704804483 4.495792128634202 2.109712333869233  2.183748887542621 4.169444381863468 2.822102897303541  2.082572981013214 4.198819916338494 2.748229622598906  2.183245064181509 4.210111202223752 2.651412482298298  2.176046009899418 4.14471755695685 2.638600422083093  2.078172342145465 4.13435658202628 2.732566251708402  2.190117861856007 4.233373141625988 2.838932211608062  2.086955895360149 4.26315267029897 2.76386829961577  2.190421960369692 4.275368020307885 2.664203332635676  2.196471665678748 4.297174774575949 2.855737758123826  2.091317543115951 4.327356614581508 2.779486780898774  2.197583367127545 4.340489223734131 2.676977734916  2.202830619050887 4.360850871194905 2.872504052837258  2.095675922419815 4.39142142893845 2.795067781364508  2.204779195565326 4.405463265361826 2.689697545604033  1.487883823741617 3.991438362627462 2.735137011493554  1.59896801152505 4.014500103405909 2.643630061910434  1.597328493620479 4.077837889312884 2.656963879786598  1.486778025031248 4.054275851949986 2.750269626210231  1.59579199570176 4.141124238016673 2.6702103877712  1.485765080631687 4.11710031452157 2.765294326631595  1.594314754638994 4.204344991982198 2.683399573411837  1.484806472907306 4.179898676817153 2.780256970691806  1.592856988828903 4.267495542969611 2.696561292263094  1.483867329472248 4.2426568060571 2.795206015175102  1.591378148584018 4.330574992751136 2.709725949349186  1.482911634197956 4.305367086603388 2.810191508453549  1.589802681118187 4.393583442990373 2.722950444496391  1.481889261958609 4.368030416768423 2.825272262561016  1.815652529613887 4.040123485273897 2.549833952118177  1.813840688858683 4.105098833455 2.562214363582861  1.812164685230456 4.169906737019103 2.574520341924132  1.810533417271928 4.234587529670053 2.586776158739096  1.808899577224037 4.299152249565325 2.599005179287428  1.807215070065758 4.363599142872465 2.611227011494644  1.805436384761011 4.427897005240951 2.623430340797329  1.824955829824101 3.830181562124401 3.211192792508633  1.956781173048354 3.797516577484055 3.270007886411588  1.938524922536266 3.850848374990288 3.159071637676128  1.94121267423333 3.911205108706687 3.186476404696213  1.959724676086324 3.854235061081602 3.305365864687321  1.825281111501761 3.889048915151329 3.241890618710682  1.944025975159396 3.971472753765307 3.213761163570661  1.962807573300166 3.910908715034192 3.340612410987877  1.825791424800911 3.947899054159854 3.272488797665982  1.946901547724229 4.031672260349946 3.240977679805786  1.96595184489307 3.967533965016658 3.37579533563432  1.826389006429548 4.006727159599778 3.303031730200863  1.949785570879264 4.091802958994069 3.268157936335981  1.969097359866758 4.024105160651991 3.410947494788418  1.826994608574317 4.065521970206164 3.333553837106236  1.952626221765797 4.15185451620498 3.295333696606592  1.972192017537931 4.080608638234631 3.446091509498141  1.827535233222717 4.124262617273016 3.364082484475627  1.955357576583214 4.211807518111059 3.32254233905988  1.975170196237928 4.137018164774666 3.481260559246141  1.827920606698323 4.182914603024715 3.394648498462958  1.699264733459368 4.036579097727432 2.548972356610576  1.776611466699632 4.060401727705872 2.424955124995062  1.774099084210437 4.126197722060902 2.435024160803549  1.697153700152976 4.100879947291604 2.560777285113002  1.771728172480778 4.191845163537267 2.445030881652202  1.695163576522087 4.165087658683881 2.572509070868648  1.769407799673954 4.257353965158649 2.454997943900445  1.693234186914792 4.229194471343273 2.584187655913971  1.767084988503971 4.322739539940159 2.464941848039612  1.691316575207125 4.293202459027811 2.595836183567308  1.764712432598664 4.388009451889936 2.474878299032413  1.689361242781477 4.357116996633323 2.607479089052191  1.76224918081621 4.453160869829701 2.484784508603936  1.68730418332641 4.420937779211975 2.619140340695258  1.904166624299965 4.064595568082007 2.425043570583483  1.905510461970631 4.131449786631325 2.434342968928914  1.906903013785497 4.198102497182004 2.443590172905312  1.908300534638569 4.264603280115675 2.452809933492286  1.909683872469098 4.330973281238476 2.46201045838266  1.91102547258364 4.397211442528839 2.471206641645906  1.912357977706011 4.463310550179576 2.480361193321706  1.851385169847942 3.578407018520207 3.686544906664007  1.730245695843181 3.663752561712205 3.621893546518023  1.848280171283655 3.68676069671199 3.604202333255032  1.847307722325901 3.642508888137616 3.55469
[...]
<PointData  Vectors="f_24"> 
<DataArray  type="Float64"  Name="f_24"  NumberOfComponents="3" format="ascii">3.0684655891064137e-02 1.1499970738426003e-01 3.9283217436872034e-02  2.9485392488017605e-02 1.1567502201266187e-01 4.0722798169233410e-02  2.9469584895619183e-02 1.1666355881128826e-01 4.0299245751344824e-02  2.8518663398614651e-02 1.1670558918009419e-01 4.0062159104996428e-02  2.8436196695851908e-02 1.1531424512527862e-01 4.1310197922658214e-02  2.9733207726780498e-02 1.1492844216183744e-01 3.9484851475063448e-02  2.7557664792784355e-02 1.1642856599638725e-01 3.9595302018535110e-02  2.7379440067312490e-02 1.1473693910956020e-01 4.1603134041227091e-02  2.8783747719020050e-02 1.1457667979946119e-01 3.9416310387699834e-02  2.6604485620090854e-02 1.1587210266702336e-01 3.8989006577163636e-02  2.6333044770367950e-02 1.1394833326775579e-01 4.1727085981022254e-02  2.7851331768294359e-02 1.1396429226287194e-01 3.9188894668209420e-02  2.5682409768603802e-02 1.1505004891640756e-01 3.8317007396338913e-02  2.5313675476388020e-02 1.1293999658264793e-01 4.1794774441563570e-02  2.6944883086782327e-02 1.1309520303103919e-01 3.8896385909587203e-02  2.4817942630104086e-02 1.1395099654808591e-01 3.7645012944871659e-02  2.4340168886949894e-02 1.1168649351902295e-01 4.1906196250320667e-02  2.6077759180247250e-02 1.1194668272042332e-01 3.8624768380209298e-02  2.4045967501947357e-02 1.1253999120756593e-01 3.7033241402063308e-02  2.3434967783049824e-02 1.1016185685813379e-01 4.2159490895118182e-02  2.5270497755974054e-02 1.1046117441033078e-01 3.8468980365977040e-02  3.0517886898208252e-02 1.1537693423065271e-01 3.9174540311915980e-02  2.9619102028128824e-02 1.1553746688935149e-01 3.8780398025573329e-02  2.8721494260749932e-02 1.1535027821437822e-01 3.8168455764194344e-02  2.7838050081114216e-02 1.1486620443135585e-01 3.7424799408213957e-02  2.6984090488776032e-02 1.1409873866633688e-01 3.6614259938014919e-02  2.6178761803760341e-02 1.1303390743739448e-01 3.5793541676328547e-02  2.5449157609713908e-02 1.1163592809508573e-01 3.5009980453260078e-02  2.7330474042199571e-02 1.1896793094262012e-01 4.4269417683574827e-02  2.7340782370641446e-02 1.1563798757865114e-01 4.5247038560652091e-02  2.6835806283753403e-02 1.2008869467292872e-01 4.6240559557366945e-02  2.5683124938686314e-02 1.1444694735307248e-01 4.6616199132799928e-02  2.5945882958978601e-02 1.1841987158243059e-01 4.4895356411607509e-02  2.5161428814326786e-02 1.1938372152744291e-01 4.7104649880221235e-02  2.4038278167521038e-02 1.1326674824205085e-01 4.7669996683607982e-02  2.4537600316179568e-02 1.1771526003190504e-01 4.5236972370823525e-02  2.3478042764789687e-02 1.1857284088881212e-01 4.7670766959402533e-02  2.2410021672863708e-02 1.1205681050519400e-01 4.8567354491039015e-02  2.3126161355734826e-02 1.1684815668839915e-01 4.5424734311663925e-02  2.1803903329589269e-02 1.1763729441142017e-01 4.8081830671962700e-02  2.0796127194273213e-02 1.1076647807415062e-01 4.9439927010337663e-02  2.1729549854377375e-02 1.1580732438649735e-01 4.5562507405744433e-02  2.0138398379875810e-02 1.1656986835665463e-01 4.8449870476313349e-02  1.9193515874270994e-02 1.0934944925633985e-01 5.0398708521451868e-02  2.0364137988647221e-02 1.1457739145134653e-01 4.5738213950894162e-02  2.8939437504658282e-02 9.1123517489388864e-02 1.1908475644907832e-02  3.0037218293003456e-02 9.2985055801675431e-02 1.3171001779443917e-02  3.0483483169756211e-02 8.0980105734413499e-02 7.6918525327371017e-03  3.0521486984405464e-02 9.3902906828446223e-02 1.7385855108243479e-02  2.9316225694225224e-02 9.2108807362476286e-02 1.6393837366195031e-02  3.0167448715905647e-02 7.9679389413181242e-02 2.4118231290743354e-03  2.8636650745534325e-02 8.9929860463489830e-02 7.1617366430018654e-03  2.9580721771091972e-02 9.1804828758935642e-02 8.6830671438043946e-03  2.7843446694885463e-02 1.1538544617874393e-01 4.3664212074875079e-02  2.6441125551184465e-02 1.1438532726988433e-01 4.4875519372563247e-02  2.5022691070451034e-02 1.1333063726934635e-01 4.5794310542280323e-02  2.3612194547130840e-02 1.1218723268891101e-01 4.6553990981261666e-02  2.2218177356763159e-02 1.1092462005185827e-01 4.7284158402852029e-02  2.0849363215279353e-02 1.0951044912735121e-01 4.8089176281322372e-02  1.9507218299946935e-02 1.0790752690824498e-01 4.9040155080760595e-02  1.7597945399199719e-02 1.0774196577617300e-01 5.1548461153734071e-02  1.9047244004393497e-02 1.1317721556278036e-01 4.6033074726640810e-02  2.7294306992342626e-02 1.1561770637386944e-01 4.0474133541852073e-02  2.8369286346927505e-02 1.1717688659318741e-01 4.0724466748767181e-02  2.7300897276711644e-02 1.1875588913555186e-01 4.2051987756350759e-02  2.6288636082865094e-02 1.1893946133664915e-01 4.0891628720487988e-02  2.7468849080708263e-02 1.1739760270972723e-01 3.9622791040655900e-02  2.6454588179774672e-02 1.1594340536174345e-01 3.8330621260755489e-02  2.5225586020916197e-02 1.1877668962614227e-01 3.9596277807062347e-02  2.6531096602752862e-02 1.1725326277915858e-01 3.8374371115733621e-02  2.5548357709519107e-02 1.1588233269324438e-01 3.6142748275352278e-02  2.4143924116714899e-02 1.1832564742155798e-01 3.8209432481265307e-02  2.5589767921137777e-02 1.1680173623129274e-01 3.7029277177219030e-02  2.4622491774827199e-02 1.1550799799570402e-01 3.3909633984685057e-02  2.3078002756503645e-02 1.1761772386095391e-01 3.6759372741643703e-02  2.4678291391899379e-02 1.1607327848553496e-01 3.5617556286040471e-02  2.3714783995747977e-02 1.1486396804153852e-01 3.1619549329563401e-02  2.2059045205519059e-02 1.1667001859399710e-01 3.5259754311431746e-02  2.3833983419171215e-02 1.1507685544875250e-01 3.4157766988904034e-02  2.2860513262175405e-02 1.1397796050613589e-01 2.9252642762922360e-02  2.1125399999729448e-02 1.1549366120220192e-01 3.3710473638934438e-02  2.3102446602021431e-02 1.1381427188446512e-01 3.2654773052631147e-02  2.2085382420387083e-02 1.1289177652249201e-01 2.6768368396147584e-02  2.8102968908979800e-02 1.1850534009454343e-01 4.1886150479680681e-02  2.7204168749046135e-02 1.2009394419688722e-01 4.3307836010755413e-02  2.6026828959147479e-02 1.2004892041928905e-01 4.2916099627669645e-02  2.7061757495218376e-02 1.1848777227820224e-01 4.1525266406263694e-02  2.4805261965456411e-02 1.1971656418508879e-01 4.2323096913143232e-02  2.5986060253269369e-02 1.1817351675307684e-01 4.0962024451822072e-02  2.3568780178181006e-02 1.1913831311914862e-01 4.1607350240252985e-02  2.4905601316499187e-02 1.1759640830200696e-01 4.0268424943068336e-02  2.2345828808012700e-02 1.1833251498355761e-01 4.0833022740043703e-02  2.3850118067221329e-02 1.1677292157305731e-01 3.9510932473954312e-02  2.1163765839096443e-02 1.1730060330942439e-01 4.0050392253805113e-02  2.2850525984965456e-02 1.1569925103469378e-01 3.8740040284894056e-02  2.0057094999275597e-02 1.1602331686320658e-01 3.9279069648921514e-02  2.1938834623862945e-02 1.1435143065210120e-01 3.7986837898451788e-02  3.0891782927318458e-02 8.1595658329478571e-02 3.1816466901534281e-03  2.1674346244216939e-02 1.2228048312504876e-01 4.2929137653618478e-02  2.2765501693579437e-02 1.2012597775099523e-01 3.9696035682894405e-02  2.2002110405103980e-02 1.2003628659301468e-01 3.7721859457625337e-02  2.3296085365210207e-02 1.2033784946369239e-01 3.9817782285992746e-02  2.4031175183588285e-02 1.2055945999548352e-01 4.1078201357043473e-02  2.0162864183958157e-02 1.2161946866828936e-01 4.1865243302439438e-02  2.1502191788935209e-02 1.1945051027623808e-01 3.8258305729188716e-02  2.0695395930694322e-02 1.1950014905806018e-01 3.5578516744813250e-02  1.8666826254433243e-02 1.2075363917702799e-01 4.0792289219782604e-02  2.0270245693723706e-02 1.1854847780843827e-01 3.6790521444108888e-02  1.9397901831900859e-02 1.1875194724806429e-01 3.3397370286185321e-02  1.7203259416332002e-02 1.1967739543110782e-01 3.9752656522597289e-02  1.9105204655604915e-02 1.1747386923372038e-01 3.5327510373527909e-02  1.8121758975987078e-02 1.1778486892661531e-01 3.1167615996519533e-02  3.1747394224067513e-02 1.1395291495495602e-01 3.8132005332986711e-02  3.0695539474971150e-02 1.1429896703414082e-01 3.8566248798352305e-02  2.9868312578432997e-02 1.1464883564338561e-01 3.7462269772937547e-02  3.0838902829050021e-02 1.1414889929523370e-01 3.7802093436466261e-02  2.9040663443934724e-02 1.1461257523298604e-01 3.6217401357661161e-02  2.9952484090316187e-02 1.1399360515481810e-01 3.7257034118991728e-02  2.8227685801642716e-02 1.1424685768758083e-01 3.4869781573532016e-02  2.9087286939717884e-02 1.1353524622875993e-01 3.6577795537234468e-02  2.7444936327760055e-02 1.1357649415469100e-01 3.3451711887296405e-02  2.8242663378876400e-02 1.1278540870247201e-01 3.5831985517324312e-02  2.6712700267417181e-02 1.1259598794180493e-01 3.1989463397725605e-02  2.7419613600885059e-02 1.1172482203620521e-01 3.5079797092356257e-02  2.6060394596746934e-02 1.1127518875472910e-01 3.0503726216743101e-02  2.6621815617907035e-02 1.1031714503452295e-01 3.4372025400056551e-02  2.8452886180745044e-02 1.1417884022326404e-01 3.9450789476288946e-02  2.7689329491721322e-02 1.1454849043643416e-01 3.7364702505531831e-02  2.6888142544372388e-02 1.1451409271067520e-01 3.5230480144658939e-02  2.6082581188448008e-02 1.1415140485879595e-01 3.3045793738823923e-02  2.5307786194185819e-02 1.1350216155532493e-01 3.0797576595341415e-02  2.4607131063183636e-02 1.1258658155423608e-01 2.8467147458256962e-02  2.4040320364504000e-02 1.1139948869424615e-01 2.6032086975937202e-02  2.8461338350447164e-02 1.0705367150629201e-01 4.2348656676134223e-02  2.7676500602082973e-02 1.0630294375559805e-01 4.4107052497327874e-02  2.7804807446557452e-02 1.1144011896126843e-01 4.3897162982921178e-02  2.6249724094790722e-02 1.0993829938570139e-01 4.5532140141710635e-02  2.5986549945995828e-02 1.0416879305328572e-01 4.5721033758224172e-02  2.7038041763776964e-02 1.0520134333533285e-01 4.4044448395155610e-02  2.4706446933002790e-02 1.0854470606974095e-01 4.6828183133025308e-02  2.4329832969623839e-02 1.0224193635509801e-01 4.7187416508367032e-02  2.5618854010615373e-02 1.0351485758795939e-01 4.5470776175968147e-02  2.3175917092817355e-02 1.0716377254560953e-01 4.7983199245548724e-02  2.2694896532560745e-02 1.0037327872186949e-01 4.8603094302452840e-02  2.4213721352676416e-02 1.0187188870092764e-01 4.6797125501590348e-02  2.1660618300223537e-02 1.0573281057514138e-01 4.9131434239866462e-02  2.1073284021238585e-02 9.8499317896964617e-02 5.0052348989848269e-02  2.2823485374664203e-02 1.0020023027420541e-01 4.8142428113718549e-02  2.0159794765746922e-02 1.0420152218109831e-01 5.0391927962162908e-02  1.9458138089523125e-02 9.6599155592765856e-02 5.1614866358114769e-02  2.1448624551999328e-02 9.8451823058555848e-02 4.9608247678438647e-02  1.8668825763554591e-02 1.0251099804649773e-01 5.1881878173922667e-02  1.7841923153187639e-02 9.4719538154734051e-02 5.3394884525813140e-02  2.0093623054222114e-02 9.6602900157483171e-02 5.1290162615907818e-02  2.9660448008299183e-02 1.1309951416617557e-01 3.8596691956683291e-02  2.8796969780020103e-02 1.0903858770496017e-01 3.7792199912536996e-02  2.8168659616453415e-02 1.0942077662828821e-01 3.4749057273385245e-02  2.8916355131573913e-02 1.1351321244951039e-01 3.6633261997196714e-02  2.7511137457894286e-02 1.0940888568962656e-01 3.1761970328378991e-02  2.8155512827068404e-02 1.1352198445322949e-01 3.4614390752321894e-02  2.6849573663148218e-02 1.0907138278666954e-01 2.8776793529715728e-02  2.7400458747727594e-02 1.1319316118444860e-01 3.2534270278489798e-02  2.6217500624393292e-02 1.0845266665564958e-01 2.5738767215357339e-02  2.6679184145977537e-02 1.1256298235774122e-01 3.0385925471438091e-02  2.5658860508848431e-02 1.0757570870515651e-01 2.2587320262169936e-02  2.6027424741798980e-02 1.1164064284935472e-01 2.8157648207777924e-02  2.5237745548126383e-02 1.0644209110937140e-01 1.9244129979417032e-02  2.5496693708673676e-02 1.1041528302219238e-01 2.5837524727082065e-02  2.7433588765894034e-02 1.1003907653483710e-01 3.8547392401686940e-02  2.6772017613155036e-02 1.1032549766473507e-01 3.5336251371528585e-02  2.6043226254222989e-02 1.1022450840511652e-01 3.2180439150428800e-02  2.5294086503403531e-02 1.0981392586279896e-01 2.9024153476787880e-02  2.4562860477524668e-02 1.0914159274698296e-01 2.5815010608528439e-02  2.3885274912615335e-02 1.0824198472139462e-01 2.2502666426486535e-02  2.3293329414048602e-02 1.0713816170616865e-01 1.9036664991494354e-02  2.6945195196333861e-02 7.7171413410041911e-02 3.8377675082288447e-02  2.7347622403746982e-02 8.0177213987525503e-02 3.9207496089124792e-02  2.6246598836666087e-02 8.3298710781158705e-02 4.1349767024733190e-02  2.7639892821174773e-02 8.6174351887981976e-02 4.0231807525446729e-02  2.5698396865302571e-02 7.4253583790731742e-02 3.9376941846075875e-02  2.6148416190420392e-02 7.7419213591146799e-02 4.0325276448846405e-02  2.4876980328008256e-02 8.0523861732689342e-02 4.2562993514906187e-02  2.4948968161704100e-02 7.4731496785933660e-02 4.1546803462222129e-02  2.4454738661353642e-02 7.1408985592975885e-02 4.0488319284574199e-02  2.3516059763305314e-02 7.7822227340624481e-02 4.3865612893145209e-02  2.3749289519832097e-02 7.2098680529749992e-02 4.2871047790877449e-02  2.3209859277831261e-02 6.8616929145405806e-02 4.1700428567858779e-02  2.2151375044665952e-02 7.5173692784727048e-02 4.5262528133803999e-02  2.2544475356352706e-02 6.9514655520752131e-02 4.4304945614378227e-02  2.1957184990803624e-02 6.5839254061262412e-02 4.2983014094653792e-02  2.0778651420543068e-02 7.2593400490578663e-02 4.6769862513535009e-02  3.3010843561430352e-02 1.0317310810396273e-01 3.6171922219087216e-02  3.1951142710707335e-02 9.9555281146662275e-02 3.6894689365580539e-02  3.2044256372261666e-02 1.0535271297149437e-01 3.7424285016489166e-02  3.1004187028989657e-02 1.0408923442491298e-01 3.9057717832118213e-02  3.0892493515147397e-02 9.7613225949558055e-02 3.8621766504546504e-02  3.1982971055340280e-02 1.0179213407253482e-01 3.7844267143154885e-02  2.9848038177700861e-02 9.5825413651606239e-02 4.0107260940841424e-02  3.0978709829083535e-02 1.0045615826645525e-01 3.9192544844069699e-02  2.9974468279030497e-02 1.0282928304399182e-01 4.0356483336183871e-02  2.8804788622148327e-02 9.4081315552873065e-02 4.1509177057181976e-02  2.9985682563729101e-02 9.9083723396352283e-02 4.0389487117842897e-02  2.8956116261609158e-02 1.0151598980227232e-01 4.1497758349530810e-02  2.7766966220434015e-02 9.2304363874119028e-02 4.2933076749202242e-02  2.8996695834437307e-02 9.7610990872936329e-02 4.1569684088507614e-02  2.7946665598882970e-02 1.0008962763728296e-01 4.2623825400645639e-02  2.6737001312987022e-02 9.0441205189444554e-02 4.4475400292893902e-02  2.8006976469400410e-02 9.5988182344050904e-02 4.2853231760182429e-02  2.6946700156783934e-02 9.8503439191506059e-02 4.3860695050805143e-02  2.5718154815943629e-02 8.8444280192026076e-02 4.6233554440844774e-02  2.7019687796912700e-02 9.4179473840317551e-02 4.4351906651636235e-02  2.5961747937795977e-02 9.6732110859212017e-02 4.5339249588018715e-02  2.8389213156404341e-02 1.0191648505468617e-01 4.2288618673693400e-02  2.6866465216555467e-02 9.9529687428914854e-02 4.3837353476177086e-02  2.5370167431717650e-02 9.7355030807816156e-02 4.5312592003937779e-02  2.3888730468340499e-02 9.5270462520099616e-02 4.6770763639105872e-02  2.2418660345178344e-02 9.3210457408500369e-02 4.8276455001800445e-02  2.0957447873722015e-02 9.1149453542335362e-02 4.9888418313792718e-02  1.9503519227258619e-02 8.9097848890066514e-02 5.1666531172542135e-02  3.3675063261651386e-02 1.0425665488446061e-01 3.4969950399194372e-02  3.2585716542171871e-02 1.0659025922898796e-01 3.5870568016905684e-02  3.2493230048938976e-02 1.0251102922707672e-01 3.5233926011212238e-02  3.1849764773731908e-02 1.0294780601478858e-01 3.1855034167388586e-02  3.1859384112135271e-02 1.0711863470526509e-01 3.3206374244322531e-02  3.2919300904985002e-02 1.0476825689441492e-01 3.2098194151182112e-02  3.1224511275911682e-02 1.0297748691375322e-01 2.8569964404941882e-02  3.1160178669946696e-02 1.0722723973456139e-01 3.0564223770021857e-02  3.2216178964551354e-02 1.0486330712459509e-01 2.9268564480896073e-02  3.0616589070853482e-02 1.0267879775126532e-01 2.5299394384050274e-02  3.0482061728015531e-02 1.0698762527433232e-01 2.7901809838428625e-02  3.1538082550269082e-02 1.0461284504993183e-01 2.6425828536572337e-02  3.0025432373345567e-02 1.0208825253539790e-01 2.1970843570568034e-02  2.9820938691883955e-02 1.0643238890070832e-01 2.5177637528229747e-02  3.0864216210694118e-02 1.0404960313607352e-01 2.3520054197841572e-02  2.9453863467040438e-02 1.0121282408150631e-01 1.8514476516984641e-02  2.9174071922656572e-02 1.0556415145149727e-01 2.2349494863343325e-02  3.0173868236427946e-02 1.0317868628887299e-01 2.0502150554071032e-02  2.8910295007030160e-02 1.0000847018448666e-01 1.4870387100786385e-02  2.8534421681468931e-02 1.0439445405030431e-01 1.9381811710507710e-02  2.9446958300410095e-02 1.0202320963429820e-01 1.7328626576031275e-02  3.4512369943160530e-02 9.1620640135596010e-02 3.3786288342311149e-02  3.3804542281872116e-02 9.7763885160400521e-02 3.5435904554203500e-02  3.3780252683314652e-02 9.2424770799900163e-02 3.4694947452389428e-02  3.4791252708403643e-02 9.9335646980435371e-02 3.3755222354609343e-02  3.2843483120836736e-02 9.0592499393085113e-02 3.6201182928182495e-02  3.3605932052229191e-02 8.9757941346055636e-02 3.5291676862505041e-02  3.2856184430598144e-02 9.6251605040389890e-02 3.6824332350325506e-02  3.1917192224086829e-02 8.8845510825772064e-02 3.7605690967941266e-02  3.2711497130581225e-02 8.7969609486778955e-02 3.6699575274092185e-02  3.1923502795271903e-02 9.4728848698797788e-02 3.8071178434697296e-02  3.0992684202823851e-02 8.7089855553882448e-02 3.9021438859558021e-02  3.1817092153020837e-02 8.6164998097042408e-02 3.8126402122663390e-02  3.0988762805209537e-02 9.3130021990332587e-02 3.9302790249634463e-02  3.0060174629429167e-02 8.5254095250878348e-02 4.0549041373936306e-02  3.0909718249592513e-02 8.4273226904268486e-02 3.9668895368500247e-02  3.0033054118813515e-02 9.1406790900657703e-02 4.0623194072240576e-02  2.9109742748337407e-02 8.3231480336687036e-02 4.2272625847800380e-02  2.9967857713168324e-02 8.2226760056106671e-02 4.1383752589777126e-02  2.9034289779551938e-02 8.9538116042532742e-02 4.2098434878729156e-02  2.8636534070665826e-02 1.1742858999481047e-01 4.1690297407235566e-02  2.7549860412427189e-02 1.1717099762604943e-01 4.1987294628737078e-02  2.6449126398340714e-02 1.1668012672000640e-01 4.2003590596559962e-02  2.5348042972802499e-02 1.1596818531237842e-01 4.1855425121108222e-02  2.4274271032972462e-02 1.1503523561702493e-01 4.1641334989860189e-02  2.3253473815910128e-02 1.1386345865357470e-01 4.1448325236600941e-02  2.2305988461117452e-02 1.1239381281004382e-01 4.1373128666912944e-02  2.5756783932405273e-02 6.8251503201923844e-02 3.8123458935237629e-02  2.4679633846583861e-02 6.5460418677217455e-02 3.9207075592061102e-02  2.3604485766093038e-02 6.2707421783498682e-02 4.0384640372888012e-02  2.9496013386539045e-02 1.1582851437281338e-01 3.9648606989287703e-02  2.8646911428416418e-02 1.1610313649485821e-01 3.8608766783622017e-02  2.7777521673466504e-02 1.1600152212799429e-01 3.7406016088924299e-02  2.6916694905119571e-02 1.1558384777270007e-01 3.6100726121222990e-02  2.6089589869996353e-02 1.1487505528301754e-01 3.4724983356180718e-02  2.5327845558624103e-02 1.1387477376257481e-01 3.3306075868482235e-02  2.4677617824439207e-02 1.1255732253204262e-01 3.1871294446010091e-02  3.2000876660112414e-02 1.1274595648774863e-01 3.7543685644396092e-02  3.1156620442950173e-02 1.1314868208782025e-01 3.6414782991708833e-02  3.0335862575376571e-02 1.1315593255570854e-01 3.5143991841408269e-02  2.9537243800203145e-02 1.1282643828965926e-01 3.3768031445705914e-02  2.8759690544122449e-02 1.1218430493572579e-01 3.2316482016480484e-02  2.8004766055212644e-02 1.1122140471939385e-01 3.0814401261686372e-02  2.7272852593701758e-02 1.0990231982366075e-01 2.9294956648861534e-02  3.1020203957372375e-02 1.0241292935715784e-01 3.8292439095433832e-02  2.9930191139