<?xml version="1.0"?>
<VTKFile type="UnstructuredGrid"  version="0.1"  >
<UnstructuredGrid>
<Piece  NumberOfPoints="949" NumberOfCells="4059">
<Points>
<DataArray  type="Float64"  NumberOfComponents="3"  format="ascii">5.402918909482917 2.243528021096917 1.011976667639334  5.379425003637693 2.39572027624683 0.9652633235387037  5.52907998028894 2.384025407040352 0.967173068745708  5.528517355552086 2.366840169578951 0.9080577412460787  5.379442180700587 2.378303046256443 0.9061339070510999  5.402511587187947 2.225100416277317 0.9547785402576925  5.527884766860235 2.349753976245521 0.8490118247953485  5.379385759153642 2.360989018890285 0.8470700676502831  5.402044930328969 2.206799338754962 0.8976158315746752  5.527229949671312 2.332741298224752 0.7900379684662701  5.379294484131769 2.343760454752045 0.7880955098821724  5.401576074500954 2.188585030357211 0.840482127496155  5.379213770547203 2.326574388442459 0.7291911674153402  5.401118772057029 2.170404199749932 0.7834250302977354  5.526590182123279 2.315768056950167 0.7311523117410365  5.379156133055583 2.309364839388086 0.6704093878308425  5.400687746811999 2.152177514004141 0.7264612484444326  5.525980785606465 2.298768697023315 0.6723846511595915  5.379151544468373 2.292045986493209 0.6117959524632721  5.400311186792324 2.133813827666956 0.6696428597822749  5.525436962987882 2.281660192244893 0.6137726776848073  4.786983214811 1.884382493512087 1.136928227852321  4.93053526947514 1.974278757717681 1.103738957629154  4.918641539883173 1.825513181575037 1.159212577780355  4.9189268104954 1.80361276479185 1.104190297393644  4.93121306909751 1.953886971893096 1.048330970320182  4.787735379935856 1.863156345683027 1.082395302734342  4.931917764285224 1.933602713808838 0.9929154703486526  4.78853528553343 1.842012900292067 1.02785440192556  4.91922538501619 1.781814266578224 1.049166729426529  4.789361040803463 1.820912176451162 0.9733274509871975  4.932637487215899 1.913384574854575 0.9375362973911328  4.919538122035306 1.760060157856438 0.9941538723866663  4.790197925639892 1.799815535276468 0.9188311513436032  4.933364214295916 1.893175493475659 0.8821969533341009  4.919862999122697 1.738310292134182 0.9391690015900327  4.791033157842948 1.778683081514852 0.8643789012579338  4.934089143802618 1.872925179651368 0.8269227385862782  4.920203343792782 1.716523236547463 0.8842295675230211  4.791854648643156 1.757470695748378 0.8099931187107831  4.934815738329742 1.852571999538611 0.7717419977978707  4.92057502102533 1.694648573667344 0.8293492615991598  4.78599486165572 2.023061793146026 1.082524463706253  4.894405497906132 2.101677550971678 1.057620330608495  4.895978814888014 2.081391306284647 1.001841604182173  4.787569576296042 2.002124784358094 1.027537175457687  4.89759029147333 2.061223216552628 0.9460836282988559  4.789202592880151 1.981285979116597 0.9725627473397975  4.790864905241028 1.960498541102514 0.9176094053394569  4.899221538169881 2.041123121979065 0.8903517723862977  4.900854844509192 2.021041339676754 0.8346686302438545  4.792531748614952 1.93972347410594 0.8627050646639375  4.902470702141046 2.000923657905195 0.7790650167617523  4.794179000234265 1.918912872925146 0.8078689591053233  4.904056002385256 1.980699422187433 0.723581879406672  4.795777236717369 1.898007180447521 0.7531392563304993  5.578501448909284 1.728299400042676 1.214746759453062  5.597376131098953 1.865165419991613 1.150717872153484  5.715482288840001 1.808672219723738 1.186793918789053  5.72115317674027 1.782864678069984 1.133586320672846  5.600103805792603 1.841514489553034 1.096350232387745  5.58289992551788 1.701389878246826 1.161444129561497  5.60286776988926 1.817963762113207 1.041939471370682  5.587362997065465 1.674556352895244 1.108086590115903  5.726960588019788 1.757130015107042 1.080351568204795  5.605658582640483 1.794457857334943 0.9875329293090331  5.591859012409835 1.64775478298721 1.054716226152935  5.732830620289239 1.731435778736612 1.027129080376793  5.608452728405335 1.770952963057502 0.9331540035358822  5.596353758702639 1.62094985067334 1.001355171958211  5.738698081081012 1.705745771176436 0.9739354372221452  5.611225306401502 1.747402107195155 0.8788126690771674  5.600814098538505 1.594104436684286 0.9480071216415143  5.744498762362547 1.680019088604944 0.9207708986368014  5.605212527770016 1.567171194546637 0.8946709443601256  5.613965230776102 1.723735995182972 0.8245025656531825  5.750166290714558 1.65419791524968 0.8676188329369396  6.24788326942454 1.738984873881676 0.9708556690154542  6.362021348657262 1.670975207165629 1.025143868334318  6.203691911658977 1.609156108004659 1.034829802672502  6.256690422743075 1.710775936506654 0.9200054559464246  6.370142224470033 1.640945212756055 0.9749623108460997  6.213077794410689 1.578873326829883 0.9850190553148758  5.133341453516713 2.418936475347998 0.9534801298832076  5.075301733863841 2.524182671726107 0.9185292413105022  5.218897387525037 2.552904144775617 0.916385428331101  5.221427900211205 2.535264716656441 0.8546034036229342  5.079183363385154 2.505051382985989 0.8572939742547334  5.135365851474166 2.399907777529987 0.89409507716287  5.223946174028836 2.517688894905021 0.792940573942134  5.083071017849179 2.485988739381323 0.7961795588318862  5.137366806131279 2.380948962740324 0.8347824891087007  5.226422389574909 2.500198097244074 0.7314163057654434  5.086931188919936 2.46701820709528 0.7351955142509844  5.139336979560076 2.362085822595911 0.7755689272462839  5.228879561170442 2.482759105224657 0.6700190252711388  5.09077899534944 2.448109598612141 0.674327710521464  5.141310210821548 2.343284639459207 0.7164511817050974  5.231326911744344 2.465314597100261 0.608764853789818  5.094596890540566 2.429198571541168 0.6135984009664667  5.143270545285755 2.324472028720943 0.6574674266359342  5.233767169232658 2.447805395681938 0.5476854694855482  5.098353089789406 2.410222193787358 0.553054056691728  5.145212555042763 2.30556971326668 0.5986719999840585  4.856337497479197 2.680208700966711 0.8534559004802439  4.96981583037611 2.72763370120867 0.8542841617322269  4.978329803399727 2.603846721006456 0.8849193412793007  4.983995396120761 2.585533259524325 0.8214099410596482  4.976706190784066 2.71262920583289 0.7875470237652668  4.864899633809443 2.663035951088048 0.7878103191459452  4.989679220901792 2.567303798436076 0.7580793799296675  4.983603274218536 2.697724872074985 0.7210392824178136  4.873512912690616 2.645956892851059 0.7223341868046192  4.995344748953766 2.54914430217962 0.6949000363627381  4.990490766195546 2.682871193344882 0.6547325902157985  4.882134474237772 2.628941335253899 0.6570308895243501  5.000992060982445 2.531046335002831 0.6318555482999171  4.997347526382589 2.668053728692989 0.5885869146064212  4.890737953491624 2.611971058564245 0.5918678277437036  5.006585983754952 2.512949334474249 0.5689647070769878  5.004149054933904 2.653227252238886 0.5225909158953012  4.89927574486325 2.594994365859309 0.5268414453114002  5.012077689665998 2.494802691615322 0.5062615239846566  5.83218550784072 1.775961878215842 1.219255897708189  5.830857510463925 1.89142555998139 1.160603869151395  5.960948735885658 1.853244441756633 1.197946508831842  5.96950362783626 1.825943398595952 1.146010901478331  5.837596561343365 1.866097273269382 1.107542296738516  5.840196886768614 1.74877550507157 1.167068322013077  5.978303379156613 1.798696673433359 1.094135127381028  5.84451741632305 1.840839924309293 1.054490466346554  5.848428113193755 1.721650306350594 1.114894703539116  5.987221486660988 1.771509059703226 1.042323147325408  5.851524129704394 1.815631605249543 1.001473082912043  5.856756822554791 1.69456710928857 1.062750405891398  5.996139282176776 1.744353822430299 0.9905780455664622  5.858531408356185 1.790438759848267 0.94850219926515  5.865082381724606 1.667497455542071 1.010645007388195  6.004934599460292 1.71719691429049 0.938895468184637  5.86545332919221 1.76522120094908 0.8955797995540602  5.8733050123739 1.640404420857702 0.9585727697493417  6.013465137017754 1.68999218201608 0.8872546991113679  5.872188382075273 1.739920284040039 0.8427011819323385  5.881304869667435 1.613240948864387 0.9065151642613416  5.130510713089661 2.061313313403173 1.074204824646324  5.239346033080009 2.167800850919171 1.038135153803121  5.273926665664891 2.02440088245063 1.086625568211646  5.273624729747964 2.004901698400488 1.030782789320083  5.239270748243613 2.148820528978118 0.9816103803790988  5.130764393593727 2.041727822582515 1.018252516933429  5.273286906150227 1.985540543038191 0.9749280170494533  5.239168117119702 2.129983419284777 0.9250988567837507  5.131008054902971 2.022277330518047 0.962302038034762  5.272940575413265 1.966252796716991 0.9190955263947794  5.23906105819565 2.111234681206653 0.868623718543035  5.131250972221701 2.00290229793795 0.9063770905664473  5.272599877663937 1.946977338129462 0.8633068296055055  5.238959646893926 2.092512526445048 0.8122094389640565  5.131498105202125 1.983544699325188 0.850502627292151  5.272277412744754 1.927649071460791 0.8075853756274396  5.238871634986118 2.073746256766064 0.755887826778135  5.13175231707799 1.964140246517949 0.7947069483459785  5.271994777979173 1.908184247134917 0.7519560919009338  5.238814500703456 2.054841635754924 0.699703413730058  5.132017469359677 1.944608127986527 0.7390313952760862  5.734969650647464 1.63418648001084 1.141661513054676  5.742083185549266 1.605197352576786 1.089611163025068  5.74918429632189 1.576212911643752 1.037586867100693  5.756202083651353 1.547201176161137 0.9855842617362387  5.76307555851341 1.518115845127269 0.9335803143613863  5.088469379821668 2.79176499782371 0.852572208134546  5.115376907747489 2.656876919423869 0.8819186724210318  5.119972049069553 2.641227863994893 0.8173068048934945  5.095071396736966 2.780284735795491 0.7845518773410119  5.124564465616872 2.625667846137118 0.7529087278324158  5.101665406083623 2.768876965185369 0.7167845467739261  5.129133039242435 2.610166046735453 0.688674
[...]
<PointData  Vectors="f_24"> 
<DataArray  type="Float64"  Name="f_24"  NumberOfComponents="3" format="ascii">6.1139249743176471e-03 -6.4662953457190323e-02 -8.1489727448945323e-03  6.0024525187176003e-03 -5.9707591038757342e-02 3.6327006860509339e-03  4.7406968970778963e-03 -5.8180381606547427e-02 6.8811539787937562e-03  6.4798385415758318e-03 -5.2927892440684916e-02 6.2143958631482596e-03  7.9507162354492730e-03 -5.4275813751955712e-02 2.8956357301081798e-03  8.1279934959077611e-03 -6.0361055893379742e-02 -9.1204813627217968e-03  8.1522310055055745e-03 -4.8013769626380078e-02 5.7314923816927108e-03  9.8001035823046187e-03 -4.9191721346524803e-02 2.3608732228393094e-03  1.0042704245423171e-02 -5.6228004916534832e-02 -9.7744744502282106e-03  9.7812541925366946e-03 -4.3232108262994139e-02 5.3476144764786886e-03  1.1602441618499914e-02 -4.4254211654891476e-02 1.9296922087702656e-03  1.1905231776203680e-02 -5.2142659755463956e-02 -1.0202559225949042e-02  1.3394823865897753e-02 -3.9270393653825085e-02 1.5699748302436000e-03  1.3746399255813809e-02 -4.7972263750193180e-02 -1.0434334588926484e-02  1.1397518363831457e-02 -3.8407799980930947e-02 5.0067997372284139e-03  1.5199512322629909e-02 -3.4037730877944532e-02 1.2235392541207124e-03  1.5607030576973374e-02 -4.3616826647294743e-02 -1.0516484188831096e-02  1.3031889518130297e-02 -3.3364150939457236e-02 4.6587735823572134e-03  1.7039632374803861e-02 -2.8372286064419699e-02 8.6918165925976008e-04  1.7536655467985360e-02 -3.8934735260735071e-02 -1.0447992047036484e-02  1.4709549374708881e-02 -2.7924725119570004e-02 4.2828937343524541e-03  1.1576364367956638e-02 -7.8171978118828353e-02 -4.9588959446291096e-02  1.0360374691268614e-02 -7.5735937115997326e-02 -4.0904115620684127e-02  1.0849916428004260e-02 -7.6580891385933686e-02 -4.4207487110550295e-02  1.3517579816749576e-02 -7.6172723792295213e-02 -4.4304415428227363e-02  1.3035861566438054e-02 -7.3882318772327163e-02 -4.1674647665389128e-02  1.4391394450598604e-02 -7.7253731839201617e-02 -5.0047464288449993e-02  1.5565724969197921e-02 -7.1812137978374629e-02 -4.2042743160600304e-02  1.7034350837063752e-02 -7.6007921663380634e-02 -5.0139631443713320e-02  1.6040533560658071e-02 -7.5397233947229664e-02 -4.4138196856247924e-02  1.9583097068094205e-02 -7.4533223015771921e-02 -4.9892198392482670e-02  1.8009586166514269e-02 -6.9576244744470453e-02 -4.2048147152412084e-02  1.8480194379312143e-02 -7.4389630741845778e-02 -4.3696523079039665e-02  2.2093608392210758e-02 -7.2919453676629609e-02 -4.9296079601529257e-02  2.0417331852906322e-02 -6.7214056599160035e-02 -4.1707120946632883e-02  2.0890260286745569e-02 -7.3288504590618364e-02 -4.2959354541908724e-02  2.4626920015519041e-02 -7.1253606651739104e-02 -4.8307091651442202e-02  2.2844772998443539e-02 -6.4768697187055857e-02 -4.0986053376219370e-02  2.3337356929162157e-02 -7.2213091174446978e-02 -4.1871705821793267e-02  2.7228393141482045e-02 -6.9645712097722468e-02 -4.6824517002273046e-02  2.5352171854291849e-02 -6.2295490195551494e-02 -3.9824692436592979e-02  2.5890916272311465e-02 -7.1311299265745420e-02 -4.0386081748615715e-02  1.1519611264727361e-02 -7.7247396237291349e-02 -4.5293732784285244e-02  1.0524175176433634e-02 -7.4724725794422214e-02 -3.6462705081863056e-02  1.3167799651094264e-02 -7.1483010926773657e-02 -3.7622156097814032e-02  1.4308995748171682e-02 -7.4817124138536195e-02 -4.6319585973910796e-02  1.5690244456026858e-02 -6.8207797572285400e-02 -3.8336481724999670e-02  1.6936270634511693e-02 -7.2234237979750940e-02 -4.6876321638486568e-02  1.9471545149574186e-02 -6.9502733502064901e-02 -4.7039689193632613e-02  1.8125904776055801e-02 -6.4848955857327847e-02 -3.8675060897083606e-02  2.0512484903953573e-02 -6.1350230029480785e-02 -3.8674078866644458e-02  2.1957880877066561e-02 -6.6615069194858489e-02 -4.6826360961866868e-02  2.2888908735133894e-02 -5.7649964610720812e-02 -3.8333818854161116e-02  2.4439092271552974e-02 -6.3556918630003650e-02 -4.6218646738680549e-02  2.5294745311654813e-02 -5.3680906134009373e-02 -3.7587883036644600e-02  2.6948724351052337e-02 -6.0310257176751300e-02 -4.5182164671325589e-02  6.9904697865872112e-03 -7.2631239975558370e-02 -1.9546376115025833e-02  6.2473361605605692e-03 -7.0787184301912914e-02 -1.8683438309818386e-02  5.5330906359293570e-03 -7.1544489817590706e-02 -1.5987505985732928e-02  6.9048482244600858e-03 -7.0645485932024604e-02 -1.5838879713599836e-02  7.9069455280162369e-03 -6.9613166002478688e-02 -1.8782720554701798e-02  8.5027382216528481e-03 -7.2255521858031344e-02 -1.9022636270888446e-02  9.4898848113900095e-03 -6.8188921962992019e-02 -1.8721779488709248e-02  9.9614871667185762e-03 -7.1585157089722351e-02 -1.8491213762467124e-02  8.2246651758806823e-03 -6.9478874077271380e-02 -1.5591445382336802e-02  1.1027916460812552e-02 -6.6626583561457633e-02 -1.8491785113006001e-02  1.1389533420908470e-02 -7.0769544703882317e-02 -1.7906331938706815e-02  9.5017355779914749e-03 -6.8174478043783349e-02 -1.5238057173006190e-02  1.2545971540964420e-02 -6.5013981963690765e-02 -1.8081329073622789e-02  1.2802669833861644e-02 -6.9936267067897948e-02 -1.7215864784610319e-02  1.0753519062496678e-02 -6.6831988612873483e-02 -1.4749890708546182e-02  1.4065077774634940e-02 -6.3431337705559906e-02 -1.7462287243918267e-02  1.4215409874575988e-02 -6.9193072823312732e-02 -1.6373374291955886e-02  1.1990621464655529e-02 -6.5538747432121708e-02 -1.4085535602850002e-02  1.5627076853479433e-02 -6.8634000934009107e-02 -1.5320449635316700e-02  1.5617485560767187e-02 -6.1947608853682688e-02 -1.6611264693042416e-02  1.3216628466302354e-02 -6.4359028804511415e-02 -1.3191491973801707e-02  3.4736528927451996e-03 -6.4045934227694473e-02 -5.9129725890287891e-03  1.8045892502216274e-03 -6.7326525673560345e-02 -4.4621090233801196e-03  4.4006158852584526e-03 -6.8927109330270298e-02 -5.7175901752265440e-03  3.9985719005407455e-03 -6.2359204366546059e-02 -5.4714151900472690e-03  2.2335666107151085e-03 -6.6075066188556450e-02 -3.9690484110203646e-03  4.9281945339821063e-03 -6.7983765339514390e-02 -5.0521822714394609e-03  8.3802556931366484e-03 -6.1974591234457185e-02 -1.7887281449042952e-03  8.9444253193588161e-03 -5.7778329758617977e-02 7.0162383631440037e-03  7.4827877001179431e-03 -5.4672329727558727e-02 1.4098463382096450e-02  9.3887117837103892e-03 -4.8247804428616016e-02 1.3795385035123018e-02  1.1032707512254995e-02 -5.1222959153396273e-02 6.4568395221809797e-03  1.0529764892423491e-02 -5.6070674420186102e-02 -2.7092900931204394e-03  1.1261511693587530e-02 -4.2395541643259947e-02 1.3506044571284424e-02  1.3057949372019444e-02 -4.5228270681139882e-02 5.9589377618926636e-03  1.2619627565605316e-02 -5.0600990727238226e-02 -3.3769095384804560e-03  1.3117492010936701e-02 -3.6806084401060132e-02 1.3153492865435688e-02  1.5078417555579399e-02 -3.9500291131497216e-02 5.4756086011156250e-03  1.4673772251118208e-02 -4.5301262802195999e-02 -3.9132849334285414e-03  1.4975967175926957e-02 -3.1200958099566505e-02 1.2692525412821964e-02  1.7098136976668121e-02 -3.3754311031570998e-02 4.9338531510171009e-03  1.6710081075488440e-02 -3.9947236876664273e-02 -4.3819068145406941e-03  1.6848860534495042e-02 -2.5323826088611317e-02 1.2067447235748725e-02  1.9124157769818337e-02 -2.7725731428786364e-02 4.2654871172765306e-03  1.8744930240305397e-02 -3.4308296236098074e-02 -4.8375275674637534e-03  1.8741090487936245e-02 -1.8913723377043230e-02 1.1211349033916872e-02  2.1152175599616442e-02 -2.1126871619444213e-02 3.3862517186370447e-03  2.0785183693433653e-02 -2.8146593592838616e-02 -5.3282468825678895e-03  1.1528084244217704e-02 -5.0365581539230285e-02 1.7296018764820672e-02  1.0114310614117614e-02 -4.7065374970682555e-02 2.5353161120111899e-02  1.0126087388298354e-02 -5.4008502557741443e-02 1.2652181269823995e-02  1.2162972326879145e-02 -4.7010654797599263e-02 1.2533124089432897e-02  1.1930289833514084e-02 -4.0046780450368018e-02 2.6156775136051399e-02  1.3470039827467242e-02 -4.3105251404812583e-02 1.7732770029976332e-02  1.4181831884687189e-02 -4.0685052478505533e-02 1.2346692071784467e-02  1.3796630175664326e-02 -3.3804305772844427e-02 2.6664961441455418e-02  1.5460417032580307e-02 -3.6598354193824831e-02 1.7964989550716300e-02  1.6212307304736596e-02 -3.4656579909840037e-02 1.2039495493305529e-02  1.5708898491639228e-02 -2.7913994548336121e-02 2.6789939797530974e-02  1.7497212740290993e-02 -3.0435137402517042e-02 1.7908812355194408e-02  1.8262707902029593e-02 -2.8617832893148724e-02 1.1553146495842694e-02  1.7673074889246337e-02 -2.2026834167642863e-02 2.6533427766561379e-02  1.9576958363792245e-02 -2.4284626978304635e-02 1.7542444575618734e-02  2.0333639333064146e-02 -2.2301320296279323e-02 1.0816297180000699e-02  1.9693955112471379e-02 -1.5898249645896142e-02 2.5879894312844921e-02  2.1707340100947121e-02 -1.7887166516949573e-02 1.6829294285161122e-02  2.2423710462996838e-02 -1.5475656617502697e-02 9.7367132070578632e-03  4.5957124229714800e-03 -7.2319343287275295e-02 -1.3244568192218961e-02  4.0619541440601948e-03 -7.0287504411757115e-02 -1.2222136969138661e-02  2.9587772232967605e-03 -7.1427490483291292e-02 -1.0032774764995960e-02  3.9848548910635670e-03 -7.0184588176386578e-02 -1.0147674681650242e-02  5.3323332457350242e-03 -6.8819468254389338e-02 -1.2428763202352557e-02  5.7192682455838991e-03 -7.1525962598341195e-02 -1.2984231185606005e-02  4.9531816187557880e-03 -6.8730509749152791e-02 -1.0136331972496164e-02  6.5293559314138251e-03 -6.7156190228830931e-02 -1.2468398108090520e-02  6.7973609481335366e-03 -7.0466629537394534e-02 -1.2681606645846246e-02  5.8733147676593217e-03 -6.7156048471368746e-02 -1.0002756915652958e-02  7.6749281068756864e-03 -6.5372799417458008e-02 -1.2354657119474550e-02  7.8400842145373139e-03 -6.9272582629472418e-02 -1.2306460256058686e-02  6.7532886027826967e-03 -6.5530694909756868e-02 -9.7336279829815867e-03  8.7844810461942067e-03 -6.3531121572329888e-02 -1.2084081634336238e-02  8.8541173883084304e-03 -6.8043398036453151e-02 -1.1824038766914654e-02  7.5969358309319456e-03 -6.3911103058388430e-02 -9.3008300497688205e-03  9.8679743739703094e-03 -6.1681567629388451e-02 -1.1635708449587062e-02  9.8422735328356371e-03 -6.6866802778386955e-02 -1.1191100019831274e-02  8.4017418658461091e-03 -6.2343414752677913e-02 -8.6653657725754060e-03  1.0932017959686888e-02 -5.9868490380212483e-02 -1.0977263193870771e-02  1.0796294200665404e-02 -6.5829199728463281e-02 -1.0333052861103130e-02  8.6680552014586996e-03 -7.2144420888202929e-02 -2.9090503598441647e-02  7.5984201321068218e-03 -6.8761420059052294e-02 -1.8948240653200117e-02  7.7580204264680172e-03 -7.0947760988894493e-02 -2.5260290328695426e-02  1.0004455676525395e-02 -6.8617951057853843e-02 -2.6017412436609644e-02  9.8481098364078725e-03 -6.5062156264036580e-02 -2.0009115895336625e-02  1.1104452899617546e-02 -6.9441298384231492e-02 -3.0019910023270813e-02  1.2144938293673241e-02 -6.6157060337632287e-02 -2.6434728696441791e-02  1.1996614424012970e-02 -6.1422977626393475e-02 -2.0689678507185567e-02  1.3412057347915892e-02 -6.6646183740936046e-02 -3.0553268242857194e-02  1.4218371196546556e-02 -6.3585406651455234e-02 -2.6557662271777777e-02  1.4079961351729384e-02 -5.7767601604473674e-02 -2.1070201891235308e-02  1.5646523010190594e-02 -6.3757218053663994e-02 -3.0754488619944495e-02  1.6270996909782103e-02 -6.0924560046017824e-02 -2.6403393646804343e-02  1.6142654916689963e-02 -5.4021679414405256e-02 -2.1195500808589399e-02  1.7853856845489482e-02 -6.0765049836913158e-02 -3.0649044190960407e-02  1.8349446934351560e-02 -5.8192878239055404e-02 -2.5954947237214639e-02  1.8221469261066756e-02 -5.0102423803310078e-02 -2.1074939102679938e-02  2.0077945152514442e-02 -5.7657977480961443e-02 -3.0223726661005024e-02  2.0500341313375362e-02 -5.5413463222929039e-02 -2.5163483393644385e-02  2.0359972896242584e-02 -4.5920300688432072e-02 -2.0677695899545670e-02  2.2358722145981710e-02 -5.4426490319085266e-02 -2.9435438408093154e-02  8.3738883722528964e-03 -7.2138340565553696e-02 -1.4137702991836386e-02  9.5067235112473239e-03 -7.1355883401485007e-02 -1.3522692805013631e-02  1.0623270635227142e-02 -7.0572332141484451e-02 -1.2831343345379205e-02  1.1722413920793156e-02 -6.9888233587663981e-02 -1.2014421330225563e-02  1.2801223143282945e-02 -6.9404453963099869e-02 -1.1041519031235594e-02  8.7459033897499313e-03 -4.2459671313711228e-02 3.4619612971547212e-02  8.5946893612985614e-03 -4.9977201352233137e-02 2.1922041538925841e-02  1.0408135725008162e-02 -4.3163303580844532e-02 2.2339992304229540e-02  1.0310869594460514e-02 -3.5902725098259938e-02 3.6142684010345372e-02  1.2240850968920781e-02 -3.7032214774980615e-02 2.2516962482925149e-02  1.1968867701399214e-02 -3.0134925197615153e-02 3.7112645042431537e-02  1.4091251426462087e-02 -3.1205579065306105e-02 2.2472238570144708e-02  1.3688672159909787e-02 -2.4665572860253816e-02 3.7563013657587366e-02  1.5968199231514661e-02 -2.5379168985658628e-02 2.2168787224373643e-02  2.2581204941547941e-03 -6.8855171048467917e-02 -7.2375865203629704e-03  3.3660265046811392e-03 -6.6795684944736949e-02 -7.7738178705033861e-03  4.4026054200536685e-03 -6.4613423106229834e-02 -8.1011692075670175e-03  5.3798912387667290e-03 -6.2339295210957074e-02 -8.2523981833970920e-03  6.3128872422315366e-03 -5.9993433729588104e-02 -8.2432023026600340e-03  7.2121259236757503e-03 -5.7586834997570030e-02 -8.0677981178933576e-03  8.0871023570396310e-03 -5.5132066263672702e-02 -7.7012215381914535e-03  1.1710052603042134e-02 -7.5228244466989058e-02 -3.7882960869859802e-02  1.4417275165936138e-02 -7.1307351874761463e-02 -3.9257397697587404e-02  1.6994686477964854e-02 -6.7452147747920702e-02 -4.0140102210867605e-02  1.9485903561676819e-02 -6.3557204168903994e-02 -4.0637261661035040e-02  2.1922480723095678e-02 -5.9513819075277037e-02 -4.0807059763876496e-02  2.4325317965187828e-02 -5.5189298819173740e-02 -4.0667536586767750e-02  2.6706595958380912e-02 -5.0409534098399579e-02 -4.0188762595896210e-02  4.9123414691857985e-03 -5.4086308149339908e-02 1.5583709145877306e-02  6.6224753562167012e-03 -4.8261684958904025e-02 1.5282910377871696e-02  8.2665048714907433e-03 -4.2891132079708863e-02 1.5006372743541498e-02  9.8722388525921551e-03 -3.7729010935648719e-02 1.4706365318225948e-02  1.1470006567757134e-02 -3.2542825372127777e-02 1.4341230799075028e-02  1.3081925262601086e-02 -2.7117827940291873e-02 1.3862755879174255e-02  1.4724502818304872e-02 -2.1227201012440262e-02 1.3234212842637020e-02  1.1564263362872633e-02 -5.8722393511607872e-02 1.6075697996985560e-03  1.3743766322330216e-02 -5.1728875370050616e-02 9.9462253065574755e-04  1.5918832467423660e-02 -4.5322319551702080e-02 5.1904747672791780e-04  1.8092233275411606e-02 -3.9203365025175602e-02 3.6716894204973372e-05  2.0268956805131626e-02 -3.3061766695145101e-02 -5.2857266977653105e-04  2.2449516423276791e-02 -2.6629037004237313e-02 -1.2617343093658990e-03  2.3914229593463412e-02 -1.1028447771853234e-02 1.5688854763848594e-02  2.4626833629606566e-02 -1.9665412353053045e-02 -2.2715243691317356e-03  4.0466766004487315e-03 -6.6243359892469808e-02 -8.5985969733651905e-03  3.1189422948083223e-03 -6.7498381108672484e-02 -7.9191318761152440e-03  4.9274189500812396e-03 -6.9379963919423679e-02 -1.4142648161128748e-02  6.4384724931790937e-03 -6.7626147530724309e-02 -1.4478400305072752e-02  4.4436598636521151e-03 -6.5070856108972883e-02 -8.5434174388628551e-03  5.5880517824113164e-03 -6.3386391303295708e-02 -9.3083977899053039e-03  7.8627943698311303e-03 -6.5693788792654598e-02 -1.4596158711795228e-02  5.6726913520857448e-03 -6.2555060872591467e-02 -8.9226276317197050e-03  7.0392401795421290e-03 -6.0486309198371294e-02 -9.7481310371620965e-03  9.2346401276152991e-03 -6.3646025107306534e-02 -1.4529873307749934e-02  6.8421689462600131e-03 -5.9970774380556355e-02 -9.1087043617801098e-03  8.4328461290934017e-03 -5.7534655374869813e-02 -9.9743898174220278e-03  1.0578150112465129e-02 -6.1533630509447074e-02 -1.4281405860893171e-02  7.9741479821176086e-03 -5.7316435162385812e-02 -9.1267299716271434e-03  9.7989392505531316e-03 -5.4513060774532614e-02 -1.0018465523764142e-02  1.1912825109248664e-02 -5.9397083303474811e-02 -1.3837131274714818e-02  9.0863270852585415e-03 -5.4580525731570059e-02 -8.9765033406128524e-03  1.1164055758584861e-02 -5.1401234613386859e-02 -9.8851433893327161e-03  1.3248300108962521e-02 -5.7280031077072670e-02 -1.3175627766622721e-02  1.0190259252085342e-02 -5.1724982973356738e-02 -8.6197607295758743e-03  1.2550211024088006e-02 -4.8179046923949899e-02 -9.5627066563224745e-03  -5.6623125572412487e-04 -5.9481705069435190e-02 1.1144199267571620e-02  -1.8972492555068498e-03 -5.7000798263569151e-02 1.7142895470705837e-02  -1.7028618622132897e-03 -6.2112493234399005e-02 9.1640520823941009e-03  -1.0028579084443061e-03 -5.8303440456185580e-02 7.9713760489761795e-03  -1.2571995831633252e-03 -5.2376884899832443e-02 1.6059985993825091e-02  3.1286893370267041e-04 -5.5182316512305873e-02 1.0128433685440121e-02  -6.5735535771476730e-04 -4.8065975051942468e-02 1.5143643710266205e-02  1.1304538178087545e-03 -5.1114973897338205e-02 9.3155187323021808e-03  -3.6768930363617196e-04 -5.4642997350051688e-02 7.0252660952242908e-03  1.8964572386919016e-03 -4.7133242861944730e-02 8.6196713674587359e-03  -9.1617724438125062e-05 -4.3885889247447525e-02 1.4292627961598359e-02  2.2158094580324142e-04 -5.1037258301430528e-02 6.2185051030878118e-03  2.6307878398844661e-03 -4.3105623972178472e-02 7.9800472368487425e-03  8.4644396113989166e-03 -7.2762166905927322e-02 -2.9832200737966684e-02  7.3134089849504671e-03 -7.0775502714598718e-02 -2.3723199131238416e-02  9.3900821337573395e-03 -6.8996378170095907e-02 -2.4224362332129924e-02  1.0705044760102776e-02 -7.1741530028764836e-02 -3.0067291109733246e-02  1.2837081529772398e-02 -7.0442230460543750e-02 -3.0064324461660866e-02  1.1378494422654305e-02 -6.7016815958004933e-02 -2.4444666673045588e-02  1.4907290731627347e-02 -6.8959614087882953e-02 -2.9832976025787054e-02  1.3301587706675244e-02 -6.4904547181251354e-02 -2.4415636086006505e-02  1.6962610065463887e-02 -6.7405841504544428e-02 -2.9354006767229136e-02  1.5212173345590540e-02 -6.2721941914595875e-02 -2.4138805944355347e-02  1.9044207216971060e-02 -6.5882296527129666e-02 -2.8593441779008272e-02  1.7146303751739370e-02 -6.0519015352477883e-02 -2.3592575225844858e-02  2.1196068379470252e-02 -6.4505182270848296e-02 -2.7490150797763655e-02  1.9141298278097157e-02 -5.8355582131397084e-02 -2.2731101097045667e-02  1.3633983766734813e-02 -8.1056661044701772e-02 -5.7918892940307012e-02  1.2522697221586165e-02 -7.9600284233432225e-02 -5.3820386254555999e-02  1.3623818497688600e-02 -8.1641338476883332e-02 -6.1663127138216603e-02  1.6578107348500178e-02 -8.1255132683288725e-02 -6.2057399232402263e-02  1.5413620643449186e-02 -7.8124850616305377e-02 -5.4596116559932420e-02  1.6567475577683365e-02 -7.9049598684144559e-02 -5.8986404944621186e-02  1.9370228840079773e-02 -8.0479426726636369e-02 -6.2061413621009830e-02  1.8137021365969074e-02 -7.6368927930051622e-02 -5.4918670025650013e-02  1.9350452819789563e-02 -7.6831429538373755e-02 -5.9543929634153107e-02  2.2069990783813449e-02 -7.9428328334253784e-02 -6.1697947741821656e-02  2.0763455241742692e-02 -7.4400956885180947e-02 -5.4846429578913503e-02  2.2042809171234135e-02 -7.4414440213271232e-02 -5.9663842204286680e-02  7.1080058465399039e-03 -6.4965788345038217e-02 -8.9781928840755084e-03  9.2489400400190096e-03 -6.0231101093370119e-02 -1.0001402786116890e-02  1.1292874006181199e-02 -5.5717451738889041e-02 -1.0708030122020925e-02  1.3281937769215914e-02 -5.1271887616711920e-02 -1.1176881061842453e-02  1.5248542898575430e-02 -4.6746581672792872e-02 -1.1474119267338772e-02  1.7228632240332314e-02 -4.1993757411869052e-02 -1.1626647290095011e-02  1.9251941212408825e-02 -3.6853807024075223e-02 -1.1647817959931207e-02  3.9256536168066148e-03 -7.3550620850250006e-02 -3.8640165342211027e-03  2.1972433239195875e-03 -7.2725161077711778e-02 -3.4684588664211876e-03  2.4710105532135063e-0