<?xml version="1.0"?>
<VTKFile type="UnstructuredGrid"  version="0.1"  >
<UnstructuredGrid>
<Piece  NumberOfPoints="945" NumberOfCells="4047">
<Points>
<DataArray  type="Float64"  NumberOfComponents="3"  format="ascii">4.873568306354763 2.974639002367988 0.6722999655919009  4.851306776570583 2.771900293154121 0.6837477350422345  4.962797925284274 2.858514698176455 0.6798111205590183  4.843521516621431 2.781842784593771 0.7532801393072164  4.880382228919934 2.978634506368365 0.5996339798982626  4.859086882358516 2.761970267253339 0.6143829702742524  4.887156881809866 2.982580393679036 0.5271957003041294  4.866828159728683 2.752062490643786 0.5452154866531981  4.976219049453461 2.847393387007213 0.5384750965050916  4.98285040471854 2.841799469860263 0.4680650084130542  4.893878821355813 2.986481289898671 0.4549328513053388  4.874502658587133 2.742135600302739 0.4761878719129477  4.882053048121235 2.732132608100691 0.4072860272503801  4.900534241582029 2.990314871835532 0.3827595389055295  4.989456808370991 2.836150255856923 0.397882056176699  3.991541217480066 3.698556371658856 1.338207427536615  4.060714809303454 3.728606006988149 1.41515125202811  4.080048611877761 3.664302473949722 1.281925884378632  4.068574280932948 3.803880642204564 1.388777533080252  3.998485250475829 3.771287279839985 1.302273199381589  4.085126691681688 3.736092660097749 1.244824380231953  4.090196836218716 3.80770264771449 1.207595249243451  4.076379752410499 3.87904807206725 1.362223893017007  4.005390843172163 3.843844935978267 1.266234846768009  4.095265813690426 3.879179223265395 1.170305369885368  4.084173728449354 3.954173149286275 1.335573267985906  4.012278852909829 3.916298426332924 1.230125258313313  4.100348991048904 3.95058672782868 1.132997327357653  4.092002784165613 4.029292952809569 1.308900840828561  4.019171912743835 3.988695077793561 1.193989442292742  4.105460013727268 4.021962323985676 1.095711099570032  4.09990701194763 4.104426596647175 1.282263795677475  4.026086927496404 4.061063344925469 1.157865609609095  4.110600760888282 4.093339944131435 1.058468460267769  4.107922957487274 4.17957420511393 1.255703355068646  4.033069475306254 4.133414894587321 1.121786892770985  4.190893101958958 3.696714739879053 1.365050046211961  4.169529763305832 3.628124615009745 1.220226622475653  4.172520951722637 3.698366950060533 1.180664768001333  4.196800930119218 3.770082972776359 1.335807466422174  4.202670818676204 3.843301296671298 1.306379396143864  4.175527689470416 3.768377143626642 1.14097337892361  4.208541518404242 3.91645779930616 1.276843895840576  4.1785488760881 3.838249765218564 1.101223174002235  4.214446975961749 3.98959523820072 1.247278437066202  4.181589531719256 3.908041434438896 1.061460649187771  4.220416465104409 4.062734897487825 1.217743710522166  4.184656564226708 3.977794606646579 1.021725522928574  4.226480739844852 4.135884431190777 1.188313377416915  4.187717879216183 4.04754450228771 0.9820448504324897  3.931412379326278 3.577081442199834 1.129995577669352  3.966455845632824 3.648367204503438 1.232128213160263  4.054502654668797 3.592713683634576 1.157694394965241  4.05742208541257 3.660772380766883 1.111844130110373  3.971893192211119 3.719049608669608 1.189940469883077  3.934875404591823 3.643267991264837 1.079766260815741  4.060382816045188 3.728578408963903 1.065946502349653  3.977325330580149 3.78953416868051 1.147688442168531  3.938375014839333 3.709230423925003 1.029526123411727  4.063362408433351 3.796216509048264 1.020033998130984  3.982754745937776 3.859892640190606 1.105408098682956  3.941884822456843 3.775027366646086 0.9793021135572931  4.066345602210845 3.863747834220761 0.974130170672052  3.988185798351529 3.930169540811651 1.063126334183889  3.945386218938568 3.840716094466235 0.9290998177645479  4.069317617527465 3.931213373514891 0.9282502549365373  3.993622789497401 4.000402773556885 1.020863538509163  3.948860932595968 3.906331897206754 0.8789243917472892  4.072278385642289 3.998663017951587 0.8824048374789772  3.999082999559012 4.070619609823418 0.9786474328484638  3.952302194647454 3.971891868749494 0.8287874394634251  4.709524096346447 3.030528688036755 0.8065758533703065  4.859928352991076 2.966519487149783 0.8183280400299996  4.733283786945953 2.888674728201619 0.8035550651292183  4.742644950593084 2.88699552847934 0.7308039699302495  4.866740759856238 2.970598572727202 0.7452098626654561  4.71765521189012 3.040384835648037 0.7320178373682973  4.725806969042818 3.050195291183732 0.6577506160322433  4.752050743280193 2.885342586023683 0.6583489837492126  4.733953186811149 3.059921594594488 0.5837128138774452  4.761445270030214 2.883679904383109 0.5861482486135013  4.742061800793913 3.069570159566869 0.5098493644625902  4.770803359181032 2.881992620221226 0.5140878462430618  4.750101149920225 3.079159201121689 0.436128967847333  4.780098261258271 2.880271056324534 0.4421743021095001  4.758022200295426 3.088661099344434 0.3625718031084363  4.789213945589674 2.878461392703021 0.3704265041673108  4.826193148315443 3.114464495331196 0.8320526159675583  4.832762776549809 3.130571591078948 0.75822187859904  4.839320707889831 3.146585836301525 0.6847057941302398  4.845870892362726 3.162479751045523 0.6114269808382855  4.85241052951528 3.178244847439229 0.5383156908470513  4.858889485120624 3.193914423191619 0.465352312603208  4.86531251603007 3.209527417697009 0.392553808873009  3.511517512117915 3.322787742548778 0.8999018652337446  3.588560958859979 3.42594012214533 0.9650718213152492  3.646918929858691 3.33001940675391 0.9004691850861948  3.647040596742558 3.368426197089497 0.8258154306616122  3.590181783458994 3.475062424138547 0.8964795986506564  3.510398687848614 3.359176286199274 0.8243143809239407  3.509448877178209 3.395402847067939 0.7487838395477394  3.591953688158991 3.523993605002844 0.8279674512333594  3.647322881677399 3.406628153438631 0.7512835989696642  3.647647647309975 3.44468633057993 0.6768185146595115  3.593762929102924 3.572790224754173 0.7595279994241251  3.508556777366187 3.431495288797144 0.6733501999861553  3.595542509637744 3.621489012764939 0.6911396453792104  3.507631233729533 3.467491076198367 0.5979684371340185  3.647942731551888 3.482620944566297 0.6024364831313659  3.597230214744755 3.670117706393692 0.6227957372601054  3.506602754394577 3.503424110372953 0.5226341338548032  3.648138196172595 3.520472902351038 0.5281130505875464  3.598768046097824 3.71869386395531 0.5544811658464326  3.505399101686442 3.539334628729083 0.4473313983107071  3.64817914804955 3.55828150023294 0.4538532727949677  3.722150852668974 3.025328029388652 0.8162656323410604  3.825497730722695 3.170559946372454 0.830524936866567  3.855976599379781 3.042696080718812 0.8087432398391544  3.845184779579091 3.052093179773321 0.7299172408399719  3.819694539218697 3.193127185184028 0.7517648164465378  3.717385575816528 3.03136733852616 0.7367612734449445  3.834474024867039 3.061436868657389 0.6513024694563077  3.814001527133627 3.21558721435092 0.6731698539744165  3.712692393589652 3.037321700532373 0.6574393264470378  3.823803577156641 3.070685881123105 0.5728731881528679  3.808367856621188 3.237908244736189 0.5947318971638968  3.708039097034201 3.043178682832513 0.5782840791996033  3.813154866962269 3.079859545839802 0.494566055722708  3.802733957204932 3.260104526630825 0.516403241612171  3.703425520406717 3.048977531395446 0.4992388214497565  3.80251017659085 3.089005134860646 0.4163419765803373  3.797060590219882 3.282241537300454 0.4381609908706087  3.698801969886401 3.054751946766937 0.4202857295767784  3.791810095424464 3.098125269887166 0.3382018200612978  3.791277474873271 3.304350378947188 0.3599972154496439  3.694048339761023 3.060522073309135 0.3414431730927923  3.613978903694048 2.952514415113171 0.8195264997886784  3.580121626854475 3.109349398107173 0.8299207321424331  3.576430238206139 3.121687512580356 0.7496587120343093  3.608735911520156 2.950784156008273 0.7411754984154317  3.572844608242656 3.133906647667594 0.6695459627596004  3.603556461224597 2.948964491425909 0.6629820687923857  3.569311355322124 3.145991750525289 0.5895679050565785  3.598430185743037 2.947072952789833 0.5849426390389307  3.565781366058651 3.157988010062097 0.5096839848255219  3.593355946758626 2.945154902100816 0.5070015828052367  3.56221233223808 3.169974956585922 0.42987521418371  3.588253779036063 2.943225550054813 0.4291584439513304  3.558491611000645 3.181967588205337 0.3501269559309986  3.583031582718157 2.941315641147 0.3514128589479311  3.692477864614612 3.618227034307833 1.15938709504195  3.830496660259865 3.630525602130526 1.190727329277817  3.791202834654334 3.545393849999184 1.079275782092797  3.794945857606941 3.607547525234301 1.022623476334862  3.836124684937444 3.69914451340782 1.143247697548408  3.69914801365655 3.684524647212672 1.107904095818776  3.798745583471922 3.669483412717658 0.9659907226962552  3.841772607943631 3.767556490987258 1.095763523028808  3.705845320659209 3.750631011442995 1.056423121561937  3.802544811375585 3.731264581136482 0.9094139283895938  3.847411744600024 3.835832646551498 1.048285434563335  3.712524441506969 3.816604228116699 1.004982232804214  3.806320730417269 3.792938061390375 0.8528735990905361  3.853038578404292 3.904015565911011 1.000817785367405  3.719182439393344 3.882485428565706 0.9535631061284778  3.810049069139841 3.854537927992062 0.7963613739180102  3.858647282501265 3.972137301583453 0.9533636549129701  3.725808486819928 3.948301218014351 0.9021547405299291  3.81370790530106 3.916087262142919 0.7398583325655452  3.864222336607093 4.040233055435963 0.9059313819757229  3.732383134400222 4.014074537921222 0.8507567345323257  3.739834660808588 3.690161040573626 1.268867674987203  3.748488310007684 3.761473443459082 1.225959936328856  3.757106998644006 3.832617976191251 1.183030744711913  3.765696714849381 3.903645583811699 1.140100862940664  3.774271179934011 3.974596110559133 1.097176030359337  3.782841877116125 4.045500654368438 
[...]
<PointData  Vectors="f_24"> 
<DataArray  type="Float64"  Name="f_24"  NumberOfComponents="3" format="ascii">1.3847918118145690e-02 -2.3425789715291089e-02 5.0790342754964975e-02  1.5413078687151973e-02 -2.9983753463462041e-02 3.1339280779470582e-02  1.3567452843466218e-02 -2.6208305568357727e-02 4.2916280260246409e-02  1.3548822599859144e-02 -3.6128242611085166e-02 3.0193042774707444e-02  1.5483209241509879e-02 -1.9087576279786484e-02 5.2350442846570325e-02  1.7360015758948789e-02 -2.4114625696977469e-02 3.1920055312504893e-02  1.7221282623977045e-02 -1.4659862632906558e-02 5.3161582120144490e-02  1.9373338094280601e-02 -1.8244416000749417e-02 3.2009411751480824e-02  1.7182732823066958e-02 -1.5747386102592759e-02 4.3975510641546728e-02  1.9125450738279731e-02 -1.0256473010602412e-02 4.3664281836545402e-02  1.9074847841857711e-02 -1.0030402851956484e-02 5.3323788631318050e-02  2.1471800691069128e-02 -1.2162863574816609e-02 3.1616193013287067e-02  2.3659703118991772e-02 -5.7069254782657619e-03 3.0735815351547367e-02  2.1050454888214543e-02 -5.0519010579233598e-03 5.2890145616322187e-02  2.1095261177873560e-02 -4.4154199202139392e-03 4.2924457280539285e-02  1.2262582449027665e-02 3.3616920178765858e-02 5.6318769270198313e-02  1.1419142793895535e-02 4.5207342010011281e-02 5.7406033591398758e-02  1.1774302566967897e-02 2.8305675567469574e-02 5.7951933368756349e-02  1.0000752696262246e-02 3.9774484877144106e-02 5.0400222346227402e-02  1.1095421212624622e-02 2.7385539093489043e-02 5.0785117439316935e-02  1.0884035334252942e-02 2.2164850574025886e-02 5.3080329265470648e-02  1.0086290691233481e-02 1.7071048008209702e-02 4.8009699851915083e-02  8.7334477123440675e-03 3.5264852293585752e-02 4.3374525001713897e-02  1.0072256946930005e-02 2.2201100231957267e-02 4.5131823946586332e-02  9.3712713673134111e-03 1.2798163803138812e-02 4.2659844112353358e-02  7.5633544281853426e-03 3.1449161146348895e-02 3.6223743292023970e-02  9.1622380479965734e-03 1.7824985412108311e-02 3.9268627526187851e-02  8.7164217521778706e-03 9.1506622782522844e-03 3.6924585959508677e-02  6.4607435985906255e-03 2.8136727636272719e-02 2.8779473632973188e-02  8.3298577574644189e-03 1.4056054075119586e-02 3.3076734761056457e-02  8.1037032698526058e-03 5.9633396919914457e-03 3.0718827264760832e-02  5.4005454132284216e-03 2.5194674891051972e-02 2.0913244069207592e-02  7.5481313080823041e-03 1.0736298215702355e-02 2.6449150461942014e-02  7.5193047428448890e-03 3.1110628028990905e-03 2.3960857776570640e-02  4.3683155042893388e-03 2.2505897095559880e-02 1.2543525804033151e-02  6.8003475292668725e-03 7.7516139614640543e-03 1.9274439992381393e-02  1.0563269787099200e-02 4.1457650369352721e-02 6.0045031429705083e-02  1.1363025962217790e-02 2.2350323248702651e-02 5.9547206786638995e-02  1.0776020659350382e-02 1.6222338910900261e-02 5.5426378024829560e-02  9.4370404391481456e-03 3.5632225988431784e-02 5.3493097188114125e-02  8.4005473938674330e-03 3.0805190728193568e-02 4.6914928991621363e-02  1.0241554596853992e-02 1.1217378912064105e-02 5.1070333584945657e-02  7.4627478558736172e-03 2.6711863258360977e-02 4.0199456610924784e-02  9.7589073640341039e-03 7.0673578241392454e-03 4.6361542015153134e-02  6.5861437824277788e-03 2.3162923338861899e-02 3.3192752329461311e-02  9.3236949585047205e-03 3.5609270527546754e-03 4.1216579580167417e-02  5.7481192876410285e-03 2.0016588578749106e-02 2.5773692394704339e-02  8.9278672762134696e-03 5.3414747054561008e-04 3.5572648844521618e-02  4.9220186402857751e-03 1.7146615322199962e-02 1.7844942323032523e-02  8.5555697856325285e-03 -2.1378456973602279e-03 2.9395379466356505e-02  1.3839553618282150e-02 7.0631953128990500e-03 5.4039827994056391e-02  1.2889351027790222e-02 1.9753761431234813e-02 5.5390916832162171e-02  1.2653333353502275e-02 1.2644970792265460e-02 5.6906555560066463e-02  1.2263254370153407e-02 6.6899921657882768e-03 5.4326538148215288e-02  1.2099288354662960e-02 1.3619169728614976e-02 5.1700053490832364e-02  1.3534295588231842e-02 1.2892149042745872e-03 5.2430590007680265e-02  1.1944772622327418e-02 1.9301717075965723e-03 5.1353545420590160e-02  1.1447206528542791e-02 8.6506318130909979e-03 4.7656005176662096e-02  1.3308590098997578e-02 -3.2557030157493831e-03 5.0309695222547197e-02  1.1670972614136577e-02 -1.9474023533285467e-03 4.7877527584782434e-02  1.0870627942007887e-02 4.5243832974221684e-03 4.3210180511927980e-02  1.3140142951192176e-02 -6.8973444699786763e-03 4.7610845577727171e-02  1.1434047366752333e-02 -5.1600278227412529e-03 4.3865829685325076e-02  1.0354478552732515e-02 1.0377264945314164e-03 3.8286524935768999e-02  1.3013009153837731e-02 -9.8714152412513068e-03 4.4310142403562243e-02  1.1226931391543155e-02 -7.8764452799159959e-03 3.9291825532246007e-02  9.8834569970586272e-03 -1.9691255575156686e-03 3.2823552886818243e-02  1.2916664265298358e-02 -1.2348298871514922e-02 4.0400524542958907e-02  1.1051584047702788e-02 -1.0214764303564980e-02 3.4124019885565904e-02  9.4507040586290902e-03 -4.6565597569143934e-03 2.6803466062701176e-02  1.2849846874477867e-02 -1.4429644633956405e-02 3.5851208394116818e-02  1.2349263278777086e-02 -2.9607338393493311e-02 4.6272640432121481e-02  1.0890283275220116e-02 -3.2702641505506364e-02 4.4807247946751692e-02  1.2763037360157645e-02 -3.7450227048237583e-02 3.4930981251770639e-02  1.4341853322153039e-02 -3.1500365590133382e-02 3.7920320132499914e-02  1.2305048014439530e-02 -2.7874403947563176e-02 4.8346231932006933e-02  1.3724819807959674e-02 -2.5681882865917948e-02 5.0277929363629834e-02  1.5213012123090531e-02 -2.1946588343092720e-02 5.2982508960098477e-02  1.6076131048208625e-02 -2.6022755730202948e-02 3.9979645004172171e-02  1.6841072281616638e-02 -1.8195434493680062e-02 5.4714877633741367e-02  1.7925480868675073e-02 -2.0718060085507514e-02 4.1263613661762795e-02  1.8598390310067471e-02 -1.4300253647465370e-02 5.5656025228316044e-02  1.9863885392635824e-02 -1.5384901116135176e-02 4.1899793166877156e-02  2.0520708589544096e-02 -1.0149124118955279e-02 5.5922850141727896e-02  2.1928556664725599e-02 -9.8533640150562339e-03 4.1963231026703192e-02  2.2646327556240936e-02 -5.6878930529797164e-03 5.5631095235106696e-02  2.4181374003315839e-02 -3.9916097841315081e-03 4.1503501690938603e-02  1.0582140241342913e-02 -2.4197332154494343e-02 5.5028620507808684e-02  1.1761279862549918e-02 -2.1935448921699841e-02 5.9213402695297970e-02  1.3028217142822185e-02 -1.9667012078199635e-02 6.1933467274100443e-02  1.4421493032596606e-02 -1.7228823427818920e-02 6.3587075865035508e-02  1.5945210047397525e-02 -1.4522407154523236e-02 6.4408481543689014e-02  1.7614854071501353e-02 -1.1511226058756039e-02 6.4529890182626282e-02  1.9434451832511680e-02 -8.1816360503772327e-03 6.4053245817825649e-02  1.9631959531917879e-02 -2.7179125186496757e-02 3.3424700019498044e-02  1.8106234874416264e-02 -1.7958275887717395e-02 4.0889492617103666e-02  1.8529743912084621e-02 -2.4318413818437676e-02 3.7551260150964508e-02  1.9818220814485938e-02 -2.5114748138171317e-02 4.1755752616094308e-02  1.8823501240723493e-02 -2.0620092387093097e-02 4.3978893363580636e-02  2.0997396232532148e-02 -2.7379906663582709e-02 3.7845905130776125e-02  2.2285153223528722e-02 -2.6773417726636779e-02 4.0795472858372123e-02  1.9526286257317248e-02 -2.2257804507477646e-02 4.5861397866790249e-02  2.1053438952283239e-02 -2.5000489080344843e-02 4.4428944922801375e-02  2.2271913305906631e-02 -2.4277553680544819e-02 4.5992872070464555e-02  2.0279343081419435e-02 -2.3142634185310023e-02 4.6708795566589523e-02  2.3542344865971346e-02 -2.5623865066104652e-02 4.2600854795404028e-02  2.1040035239466140e-02 -2.3497494193848573e-02 4.6668127648231084e-02  2.4791417243750970e-02 -2.4049124403897219e-02 4.3475670111058795e-02  2.3457820113097848e-02 -2.3074105574504278e-02 4.6650905584987502e-02  2.1817537380621466e-02 -2.3443439961777078e-02 4.5847283550560267e-02  2.6040093778906929e-02 -2.2114247424891570e-02 4.3564002408270318e-02  2.4639124466942185e-02 -2.1481890341959440e-02 4.6544689658492816e-02  2.2580301843176030e-02 -2.3037373386050011e-02 4.4330333334197218e-02  2.7246736980782324e-02 -1.9866953264438075e-02 4.3001137291170097e-02  2.5857556631224726e-02 -1.9627833526644801e-02 4.5874519937429054e-02  1.9829440699944457e-02 -4.1960527613899526e-02 1.5873239500297499e-02  1.8247055017440755e-02 -3.1437652773402519e-02 3.1809736444004151e-02  1.8551642145746471e-02 -3.8518364279112344e-02 2.1935730625201724e-02  2.1281507386911879e-02 -3.3409399374953595e-02 2.5877830143087293e-02  2.0405438190848064e-02 -2.8847448504155142e-02 3.6493112745270589e-02  2.2319657730342498e-02 -3.6031348148222182e-02 1.9913110155413295e-02  2.3715513267008648e-02 -2.8595464416173309e-02 2.8529080807723272e-02  2.2395236174063533e-02 -2.6124357172791376e-02 3.9529777382907083e-02  2.4761063451762329e-02 -3.0571709921821372e-02 2.2608705339520498e-02  2.5999053618267265e-02 -2.3762487054797075e-02 3.0128461983308624e-02  2.4264026745501568e-02 -2.3096444357527793e-02 4.1408111492723630e-02  2.7061507908342785e-02 -2.5151036541734995e-02 2.4268890931871737e-02  2.8173523421344920e-02 -1.8737715008616269e-02 3.0897574253030934e-02  2.6046910157753188e-02 -1.9735426812609189e-02 4.2399849468038986e-02  2.9266207328522392e-02 -1.9577851556784071e-02 2.5112757033054298e-02  3.0250739727895132e-02 -1.3436428156349453e-02 3.1002685308907461e-02  2.7760148943372299e-02 -1.6038337887695882e-02 4.2675055209489658e-02  3.1410865707714369e-02 -1.3740991564773200e-02 2.5268929814978639e-02  3.2178293139821866e-02 -7.8139107412873946e-03 3.0482882995463024e-02  2.9425099990668276e-02 -1.1998301059475504e-02 4.2332074386487450e-02  3.3557656493108844e-02 -7.5476588121178093e-03 2.4764295206036853e-02  2.0997573250853694e-02 -4.8053586666871678e-02 5.0810000928668666e-03  2.0598937536073364e-02 -3.9190481229833228e-02 1.9268785388090671e-02  2.2867829793883854e-02 -3.4590895680348566e-02 2.3870063945508530e-02  2.3646057029133076e-02 -4.0801147200749517e-02 8.2244056128505470e-03  2.5014872430049021e-02 -3.0095979943402164e-02 2.6869094849364620e-02  2.6206577292993295e-02 -3.4101255600905794e-02 1.0260716289023428e-02  2.7072946436793803e-02 -2.5483109310164318e-02 2.8717087756193159e-02  2.8650629151144118e-02 -2.7579509877134843e-02 1.1401503576109809e-02  2.9070174482044273e-02 -2.0637656460726274e-02 2.9704701030278356e-02  3.1018684455825712e-02 -2.0968044411763094e-02 1.1820342125557248e-02  3.1043019681250644e-02 -1.5496899434351638e-02 2.9991328274464428e-02  3.3350242134767227e-02 -1.4097364571580518e-02 1.1607385468477434e-02  3.3037604704238187e-02 -1.0054519180847458e-02 2.9681849056807888e-02  3.5704175008127295e-02 -6.8517387313612654e-03 1.0799257696219439e-02  1.5545544502321632e-02 5.8740535302002324e-03 4.9448392210707813e-02  1.4220643456823657e-02 1.2137482323165437e-02 5.2509707547622443e-02  1.5354010201264581e-02 -1.4067499259774652e-03 5.0034924584049283e-02  1.5250091287772872e-02 -6.6110495623275967e-03 5.0008162995730750e-02  1.3557172865695136e-02 6.1158249626487278e-03 4.9981422302412835e-02  1.4950706632307883e-02 9.2238446583447705e-05 4.7925477721734666e-02  1.5255536619153983e-02 -1.0551002365377463e-02 4.9190236901853097e-02  1.3033351776768997e-02 1.2809782964777342e-03 4.7018402745769398e-02  1.4550364916658407e-02 -4.4430361191400694e-03 4.5902896096387334e-02  1.5326077566341540e-02 -1.3597829071482730e-02 4.7652486258844752e-02  1.2608725814129335e-02 -2.6604246656064877e-03 4.3553736101185847e-02  1.4258105020115514e-02 -8.0882198126036638e-03 4.3277578826229263e-02  1.5440723008310724e-02 -1.5994027537573535e-02 4.5415895349872060e-02  1.2255178082712365e-02 -5.9407644120930605e-03 3.9533525031566083e-02  1.4044867161817869e-02 -1.1080243176139728e-02 4.0023695269862963e-02  1.5585267209733652e-02 -1.7902885799774566e-02 4.2498550767228048e-02  1.1948847996047085e-02 -8.7313527420708106e-03 3.4919969354909916e-02  1.3888864855960725e-02 -1.3589778459133287e-02 3.6130673057978832e-02  1.5751013624758843e-02 -1.9443239220144633e-02 3.8926109941431537e-02  1.1654252167614326e-02 -1.1167156542932060e-02 2.9675193605704406e-02  1.3766694869874896e-02 -1.5729443740480104e-02 3.1559170940176955e-02  1.4477058006460196e-02 1.9578613645875795e-02 5.1111452648331133e-02  1.3420519218832038e-02 1.3498284039779025e-02 4.7388932826765866e-02  1.2556455888586992e-02 8.5276629559213231e-03 4.3339328338159962e-02  1.1825673804165103e-02 4.3998576897319184e-03 3.8881224560805019e-02  1.1190682130708325e-02 9.0277272845250528e-04 3.3935726127773486e-02  1.0621689059918301e-02 -2.1288150505643349e-03 2.8436565858126782e-02  1.0094591866018269e-02 -4.8278981421534528e-03 2.2336593854739333e-02  2.1777980664445109e-02 -9.3340315144972621e-03 2.4772743773724095e-02  2.3914229593483341e-02 -1.1028447771921938e-02 1.5688854763855894e-02  2.2423710463015362e-02 -1.5475656617571675e-02 9.7367132070686428e-03  2.1707340100966935e-02 -1.7887166517015798e-02 1.6829294285168026e-02  1.9693955112491994e-02 -1.5898249645963800e-02 2.5879894312850142e-02  1.1584690499037403e-02 4.8500515359371923e-04 6.1783730583859657e-02  1.0031225291291992e-02 6.5232130509571429e-03 6.5314558043396198e-02  1.1540853772477204e-02 -4.4898991174226579e-03 6.2015014362744404e-02  1.2098623608128370e-02 -8.7599324899026096e-03 6.3180532527691943e-02  1.0283595700575767e-02 9.8252828896563146e-04 6.4131367459989361e-02  1.1902738413658938e-02 -4.5023005752849073e-03 6.1538620214237949e-02  1.2666349161111159e-02 -1.1729487890285254e-02 6.3254103623542876e-02  1.0468650077484409e-02 -3.2030238654653940e-03 6.2378473764831979e-02  1.2229275349256849e-02 -8.1572094418150085e-03 6.0571447662930891e-02  1.3283520192816116e-02 -1.3840007580288905e-02 6.2494776665250919e-02  1.0697076924650098e-02 -6.4610201471142145e-03 5.9972521108999095e-02  1.2580133144861836e-02 -1.0924949453971619e-02 5.8874469879849040e-02  1.3979320322727095e-02 -1.5334143128048587e-02 6.1043509059538821e-02  1.0984891736387793e-02 -9.0703403741142323e-03 5.6945706902765673e-02  1.2974607445972015e-02 -1.3058791768921182e-02 5.6523063257015956e-02  1.4769084601171012e-02 -1.6359043007968897e-02 5.9010061470754209e-02  1.1351228589656598e-02 -1.1199639453645166e-02 5.3360910684864142e-02  1.3431534546602193e-02 -1.4711642465116101e-02 5.3590519666456900e-02  1.5673954680527291e-02 -1.7018820637625189e-02 5.6491217400517456e-02  1.1807438900874389e-02 -1.2929436921046662e-02 4.9233651969241954e-02  1.3967300744072115e-02 -1.5993715611523070e-02 5.0173163331229599e-02  1.1803664894040684e-02 -4.2922659955199678e-02 2.8419478860943287e-02  1.0447961124902172e-02 1.1635178049152647e-02 6.3722671946186582e-02  1.0377909136377875e-02 5.8915670931667949e-03 6.1383286663150231e-02  1.0342757780578625e-02 1.3547020329383493e-03 5.8628633525051162e-02  1.0330821281855501e-02 -2.2721717467508611e-03 5.5353790699279593e-02  1.0360582140049418e-02 -5.2397750402432691e-03 5.1532281769964869e-02  1.0451217540276893e-02 -7.7121169367638269e-03 4.7170215716472029e-02  1.0652434888098803e-02 -9.8037110358316429e-03 4.2291135365579872e-02  1.1555479860423384e-02 -1.0647610729438478e-02 6.0867748822019008e-02  1.1986708554472102e-02 -1.7144535108299334e-02 5.8192235957251814e-02  1.3398073649723060e-02 -1.9025928139426492e-02 5.4395989611543454e-02  1.4462666222559543e-02 -1.9222971057554123e-02 5.8340354615521221e-02  1.2919072202904818e-02 -1.7735011497586103e-02 6.1993253994849083e-02  1.2373727152950357e-02 -1.3309445182064937e-02 6.3636382373782996e-02  1.3197691606548274e-02 -1.5037704312839757e-02 6.5049830183377136e-02  1.3984786273599422e-02 -1.7621923230957844e-02 6.4310316091421210e-02  1.5665134436249145e-02 -1.8720412796397735e-02 6.0757020902531600e-02  1.4117497476581128e-02 -1.6039808994106626e-02 6.5450246616937741e-02  1.5174194848148245e-02 -1.7046922191015557e-02 6.5536486202205591e-02  1.6962687946682171e-02 -1.7775428598367272e-02 6.2061769750842759e-02  1.5144623324109053e-02 -1.6487887220070663e-02 6.5067886284685794e-02  1.6498014756566478e-02 -1.6058300036916544e-02 6.5918073934776916e-02  1.8376266517793213e-02 -1.6434990772388511e-02 6.2531070485201720e-02  1.8000396368977895e-02 -1.4706076410277007e-02 6.5633708151388248e-02  1.6306854122760901e-02 -1.6514063196461724e-02 6.4053689449290685e-02  1.9927567433727839e-02 -1.4750592754567920e-02 6.2361302231835121e-02  1.7638905310948291e-02 -1.6174025258229037e-02 6.2477902449759745e-02  1.9731611910332601e-02 -1.3051235211350921e-02 6.4941187420548482e-02  2.1599390405954672e-02 -1.2758477035113814e-02 6.1733492294362854e-02  2.0161139174728906e-02 -4.9276238135142494e-02 3.0130088306093896e-03  2.1252739940288142e-02 -5.8066511556774864e-02 -1.2561252110439753e-02  2.4176859686029145e-02 -4.9319847166068728e-02 -1.1407958610883137e-02  2.3082121688920043e-02 -4.1690271081132588e-02 5.6119788082676283e-03  2.5769600606129421e-02 -3.4632513406944586e-02 7.3132880312076556e-03  2.6932363566753863e-02 -4.1308186967932724e-02 -1.0844402520850459e-02  2.8328223814029434e-02 -2.7811863930864773e-02 8.2262087084015983e-03  2.9588069703645869e-02 -3.3618952384020302e-02 -1.0825981140674425e-02  3.0789502033668783e-02 -2.0954423122915317e-02 8.4838029622876510e-03  3.2176943866829816e-02 -2.5910386348813267e-02 -1.1294996325464209e-02  1.6891612811583481e-02 -2.5893782333219179e-02 3.9208318467886041e-02  1.5695739674211465e-02 -1.8462243610931777e-02 4.7507906473138260e-02  1.6454307437702525e-02 -2.5531568914421817e-02 4.1112829912496318e-02  1.8392855286025942e-02 -2.4420199264307069e-02 4.5496287819407816e-02  1.7088601044053544e-02 -2.0009717058429632e-02 5.0927176223632867e-02  1.8833197366164484e-02 -2.5139152608483345e-02 4.3627166892584904e-02  2.0555239279236397e-02 -2.3835552638316004e-02 4.6522634845114270e-02  1.8298737301496528e-02 -2.0701228353277146e-02 5.2854825723900489e-02  2.0137789082907420e-02 -2.2807556362822244e-02 4.8358414839025650e-02  1.9451166118035636e-02 -2.0728745753133875e-02 5.3762143657505486e-02  2.2186796948367629e-02 -2.2058727451466201e-02 4.8239464220756770e-02  2.1794604662000068e-02 -2.0780123399553357e-02 5.0043633438661174e-02  2.3725955153610066e-02 -1.9884258209828344e-02 4.9079689920730321e-02  2.0538843989569788e-02 -2.0263023032474663e-02 5.3827824190539247e-02  2.3385139664894181e-02 -1.8414264471062973e-02 5.0866158906964491e-02  2.5192312504010907e-02 -1.7339189771946935e-02 4.9216876319671490e-02  2.1578607997996692e-02 -1.9380665983600002e-02 5.3211314289885368e-02  2.4899507513654197e-02 -1.5711219874105932e-02 5.1016025015410506e-02  2.6570333373450029e-02 -1.4442752434322050e-02 4.8705886957496683e-02  2.2562882002711532e-02 -1.8195363476948140e-02 5.2113207656236692e-02  2.6280161117466071e-02 -1.2632211215522300e-02 5.0509490363501747e-02  2.0672578954977278e-02 -2.7432390334837777e-02 3.0981322006397992e-02  1.9147070411309058e-02 -2.0970129814572018e-02 3.7405372922902580e-02  1.9941917968521055e-02 -2.3077194910321449e-02 4.0884985477142366e-02  2.1798297920872633e-02 -2.7885403972922815e-02 3.5482138405851793e-02  2.0740812373378114e-02 -2.4241974130041474e-02 4.3140977451672988e-02  2.2815067477988997e-02 -2.7563784215326115e-02 3.8546735633843775e-02  2.1559890094121657e-02 -2.4719348740269501e-02 4.4319233542363161e-02  2.3881548210457459e-02 -2.6780352122819744e-02 4.0449745382482236e-02  2.2413627407583354e-02 -2.4704216132149015e-02 4.4586084852804804e-02  2.4995136691356622e-02 -2.5602922555727936e-02 4.1398458830091467e-02  2.3301598787570293e-02 -2.4307580305185546e-02 4.4042437653809184e-02  2.6162639095182693e-02 -2.4089255012975277e-02 4.1519602679084500e-02  2.4162568738100403e-02 -2.3542027637604365e-02 4.2749664282023599e-02  2.7354695161417829e-02 -2.2237700193199626e-02 4.0872101473540243e-02  1.3951090975921376e-02 -3.3446654113887656e-02 3.8426733379083561e-02  1.5461850685794728e-02 -2.8411713925093354e-02 4.2175247271550823e-02  1.7147206449701032e-02 -2.3664203700087268e-02 4.4735448564108812e-