<?xml version="1.0"?>
<VTKFile type="UnstructuredGrid"  version="0.1"  >
<UnstructuredGrid>
<Piece  NumberOfPoints="954" NumberOfCells="4145">
<Points>
<DataArray  type="Float64"  NumberOfComponents="3"  format="ascii">9.850904131524921 1.726167302335155 1.972525638251317  9.785862974126916 1.704290192205449 2.060348973913038  9.743653944885722 1.741221562775228 1.926235500715024  9.745710942871922 1.689070311403944 1.905148269550998  9.788294721499913 1.649847979094624 2.047600987877935  9.852769098464083 1.672618769854572 1.954379391535095  9.747413444386536 1.637094312977516 1.88392284478203  9.790393154289985 1.595497590353434 2.034708245426453  9.854272599228427 1.619233802518522 1.936086367950948  9.748960623362205 1.585257961770524 1.862666780181131  9.792338479432409 1.541230487075422 2.021754424982781  9.855626611213973 1.565962787418255 1.917752196858533  9.750487319257227 1.533537567432861 1.841448894290203  9.794268317971765 1.487040345715662 2.008809139285025  9.856989129320263 1.512791439262414 1.899453812218128  9.7521381424219 1.481936643957248 1.820341185946113  9.796326880444138 1.432926174175502 1.995938943202618  9.858525337076911 1.459750322903204 1.88127882878612  9.754181940178542 1.430461322892599 1.799423443878255  9.798727547669129 1.378920320959055 1.983236308289197  9.860476322490655 1.40680823913118 1.863274904020841  8.895410063286967 1.533073795375506 2.265189620919304  8.829261961723663 1.519893364385529 2.351681881466638  8.785000649550204 1.508458591726102 2.218545167109312  8.800138778550526 1.452216962157738 2.214968025306426  8.84276415532578 1.464248753174139 2.354287853381695  8.909984542888278 1.477565453090246 2.262031543868289  8.8155917200756 1.396087273595136 2.211255137808454  8.856529518938723 1.408691026331007 2.356782764915007  8.924843985216095 1.422206698563671 2.258761701886309  8.831149601338334 1.340031352806665 2.207501496078323  8.870393481855743 1.353186757890479 2.359228118293865  8.939799469174652 1.366947694228204 2.255442227247299  8.846670433621679 1.284015247224772 2.203756867934394  8.884231833523902 1.297712513586374 2.361671956906095  8.954718633314984 1.311758280090648 2.252127783833031  8.862013279833953 1.227993731037308 2.2000715179152  8.897914283709735 1.24223943976896 2.364160189416463  8.96944191281813 1.256618725266207 2.248876616353454  8.876981943354807 1.171868364188725 2.196514999487009  8.911268026980755 1.186724861634997 2.366749582668999  8.983718650333959 1.201448954758979 2.24573256702803  9.032859261027092 1.652487851683533 1.886084267880581  9.017255972096189 1.617692023750645 1.986971295186179  8.908329320417753 1.620291473448971 1.891734035138775  8.921148339019815 1.567725453908666 1.869438842538521  9.028753353487362 1.564015512433149 1.970094573748742  9.045215752327346 1.60120136991791 1.862382756492755  9.057675126896557 1.550139964589735 1.838613264785015  9.040331634885572 1.510552373372666 1.95310964182216  8.93408116757205 1.51541683638344 1.847062371321303  9.070155636989861 1.499268144743736 1.814845585270473  9.051945848609538 1.457248358021274 1.936075301526091  8.947049461692361 1.463279577545841 1.82467299682304  9.082588305273614 1.448533837584026 1.791138014135962  9.063530966643663 1.404053000410836 1.919050725818988  8.959964377218522 1.411266560454347 1.802330296507852  9.094876228116304 1.397897838185491 1.767564138109118  9.075010867911097 1.35093461086047 1.902098750499668  8.97271801693951 1.359353536991356 1.780100356748482  9.086312599977925 1.297901997065273 1.885339600912399  9.106869646813966 1.347328117143821 1.744178814351769  8.985238674543698 1.307508624112989 1.758050937192706  8.791144904307437 1.545604317955716 2.021772746149184  8.808127409472743 1.527651683989079 2.115788215630238  8.696556422571053 1.495874613119582 2.096560907396565  8.711585913310445 1.438934281303991 2.086198240119265  8.825291630610813 1.472463323599591 2.106290869508111  8.807982098773286 1.491561696512089 2.005429055362284  8.825202590351054 1.437721924929501 1.988988754555877  8.842887932774554 1.417460238915369 2.096675681493565  8.726903355846202 1.382095297451204 2.075733694993439  8.842553920453717 1.3840059835708 1.972515045157183  8.860618015586786 1.362561259663163 2.087023558297969  8.742281535472896 1.325340422873819 2.065251022393002  8.859872052119004 1.330359988674701 1.956061586771367  8.878311127574189 1.307722726974787 2.077382979059333  8.757594619072249 1.268626324949081 2.054787955691678  8.876977027386342 1.276734235151221 1.939677662129262  8.895782313697268 1.252894956259735 2.067796288894749  8.772717118903651 1.211895784906056 2.044375085351681  8.912704733459 1.197935442170935 2.05830247164195  8.893543862395031 1.223004590373194 1.923406525816131  8.787558472290076 1.155023633801119 2.034047715703407  9.553213561971107 1.692242699470965 2.639569533554867  9.424701910508393 1.662423639804791 2.589161249319794  9.528409903984603 1.670580408474905 2.539473647540267  9.536711966467877 1.617831103271958 2.547952938444555  9.432785009215388 1.610125665712554 2.600180355191136  9.440870852430967 1.557862730038447 2.61106941567902  9.570035501171018 1.590233652626806 2.66929588324331  9.545017570771412 1.565134472277366 2.55632516033529  9.578444181143873 1.53930262850067 2.684055724145317  9.448951915157117 1.505644631339751 2.621889858043449  9.553312080189311 1.512481249081644 2.564633768560185  9.457019080937155 1.453474743461292 2.632687171475329  9.586837609042124 1.488437148764276 2.698785212298447  9.561594050334447 1.459882916295616 2.572916916339095  9.595209206964054 1.437646002129307 2.713515477497376  9.465056302883493 1.401386510885865 2.643502585752632  9.569866883757101 1.407344929642711 2.581212290080458  9.60353357279309 1.386910975642145 2.728275697480514  9.473062653760827 1.349380402070583 2.654389309961248  9.578090951448065 1.354916243976923 2.589567313902493  8.952552180600316 1.674521558992057 1.810109828037727  8.965119359282856 1.625553485336471 1.78132999236262  8.977778795383697 1.576848257142393 1.752519332935649  8.990468153276487 1.528325512211932 1.723726735232266  9.003109629622639 1.479916817520843 1.695004460827157  9.015616716150358 1.431575397143186 1.666411165809669  9.027886802143085 1.383244364305581 1.63796911507823  9.655160610237006 1.709022048422219 1.996653000289306  9.659374952347672 1.655708415607704 1.97949105198973  9.663382023678983 1.602588250176682 1.962240024513025  9.667271371402055 1.549611210093714 1.944950990749685  9.671142944571992 1.496769145444005 1.92769363001828  9.675099032984043 1.444094022060986 1.910552712124481  9.679223797452762 1.391609822749392 1.893596706991846  8.701524779605267 1.488457829763067 2.345573758274285  8.715349401346078 1.431900520465533 2.347482997708925  8.729430591955243 1.375378781185662 2.349334663214615  8.743595745268561 1.318881101916643 2.351160754731516  8.757732769472925 1.262390674130226 2.352995440824552  8.771737565159244 1.205881948831158 2.354870773403977  8.785455280787854 1.14928419978062 2.356810954340567  8.683821600419437 1.528885469873788 1.972135238911996  8.70048526055605 1.474071785583662 1.954427388570169  8.717503145740274 1.419407825529247 1.936607704445598  8.734625136573895 1.364832040946842 1.918768979649217  8.751698221661595 1.310299532776721 1.9009525457966  8.768575316611347 1.255747461624566 1.883185721895296  8.785061925871029 1.20104744983427 1.86548063836023  9.409877606585853 1.693143319431934 2.705364267881262  9.41830148626337 1.643382968073219 2.723074582575824  9.426759377885492 1.593637514868357 2.740687860703411  9.435227025009036 1.543922334411281 2.758244459305654  9.443678852163966 1.494242886421793 2.775774962700814  9.452094264296669 1.444605793396784 2.793305881439113  9.460455404707185 1.395017150803877 2.810881404730827  8.649345434657546 1.475232078862941 2.233320094402868  8.662698331538394 1.417576709224019 2.231401499013713  8.676291979030928 1.359924844263116 2.229399063284017  8.689963856524876 1.302291421729903 2.22736839890816  8.703605343142385 1.244658506842035 2.225350133361306  8.717118931892323 1.18698895076725 2.223380950372234  8.730400363340063 1.129212213803414 2.221498472413535  8.850413022153806 1.677329841143954 1.764828742562877  8.86393988667254 1.628944364317155 1.734656388380148  8.877589831439293 1.580822697384188 1.70443031363279  8.891287483528442 1.53286523396768 1.674220485642651  8.904938346217424 1.484991518253794 1.644071717520668  8.918442781135946 1.437128319315104 1.614020603647439  8.931683389801078 1.389267086620534 1.58414478640801  8.792711343228348 1.519035826489619 2.461228307255782  8.806734662091706 1.464308487888947 2.469386920907647  8.821055506917544 1.409653171102029 2.477462389916659  8.8354665144586 1.355043717973736 2.485498847948096  8.849841447398017 1.300461825702283 2.493537002258924  8.864040391419898 1.245885015003872 2.501617666408571  8.877850159991912 1.191235900488612 2.509790942097785  9.455729162562173 1.646105963844305 2.464703142038327  9.464202602823393 1.592590364371161 2.471546069851397  9.472686183476823 1.539142316260526 2.478234770982697  9.481161283249062 1.485769000797393 2.484847534371221  9.489616197275218 1.432473919937024 2.49143624068977  9.498033816251059 1.379274836391083 2.498048883372434  9.506391484799247 1.326172948983275 2.504752066561282  8.645719598915454 1.234714987407378 2.362366684654659  8.657558182537642 1.177008255315698 2.365457033079744  8.669278155297738 1.119222596081533 2.368604329828679  8.781075028593344 1.618105703770391 1.833016581986809  8.752879612485351 1.682959803461145 1.700281860557841  8.766631400483035 1.637067907472023 1.664894461659077  8.796550113533137 1.567539026072166 1.806477044136587  8.780477673391578 1.591458368555262 1.629480699635779  8.812240991359754 1.517236678734093 1.779859679021179  8.794344124129138 1.546023220420082 1.594143985518741  8.82801808533835 1.467092167352405 1.753241025798421  8.808133697630836 1.500683798653075 1.55890
[...]
<PointData  Vectors="f_24"> 
<DataArray  type="Float64"  Name="f_24"  NumberOfComponents="3" format="ascii">-2.3882563170170113e-02 -1.0629249227022268e-01 -3.2309190358238683e-02  -2.2137341850558330e-02 -1.0856512742615179e-01 -2.7494454250038530e-02  -2.3166410739131536e-02 -1.0568691391164250e-01 -3.3016911400290359e-02  -2.3497572394069337e-02 -1.0417710120789175e-01 -3.2306821400482945e-02  -2.2310850277221832e-02 -1.0685388185450850e-01 -2.7813042319785212e-02  -2.4078113813806836e-02 -1.0467849841074804e-01 -3.2010694336598200e-02  -2.3789805254656928e-02 -1.0307258111412415e-01 -3.1718726034009367e-02  -2.2471814707444939e-02 -1.0551203384129286e-01 -2.8103117554202469e-02  -2.4262326034519294e-02 -1.0348501193300122e-01 -3.1804759609056703e-02  -2.4064081631739322e-02 -1.0228367129327005e-01 -3.1259099506021300e-02  -2.2623741392927471e-02 -1.0448756639792769e-01 -2.8427732337781217e-02  -2.4439604317694926e-02 -1.0260214324782047e-01 -3.1687298618422517e-02  -2.4330253067944254e-02 -1.0175749038036366e-01 -3.0907620929737610e-02  -2.2768745071986334e-02 -1.0372170921483910e-01 -2.8827961951114957e-02  -2.4614988721074614e-02 -1.0197864037424152e-01 -3.1663369325726880e-02  -2.4596022532978028e-02 -1.0146576793232426e-01 -3.0655061721368462e-02  -2.2911488435043783e-02 -1.0317814208397948e-01 -2.9334029020492199e-02  -2.4794815768126432e-02 -1.0158674588684996e-01 -3.1739656869262639e-02  -2.4872137506032895e-02 -1.0139626329466922e-01 -3.0509142561404846e-02  -2.3055823799110673e-02 -1.0283328862335098e-01 -2.9981751017293688e-02  -2.4985898418511576e-02 -1.0140598608538548e-01 -3.1921076836862433e-02  -1.0778160302438220e-02 -1.1628898915920402e-01 -2.2879397730616478e-03  -9.1223924575400440e-03 -1.2039133884700667e-01 2.2105244441210739e-03  -1.0473548256993665e-02 -1.1463322069270983e-01 -1.5513222164985905e-03  -1.0800318666180394e-02 -1.1298706422792484e-01 -3.7391012481713991e-03  -9.0879439572567680e-03 -1.1909607815842983e-01 -3.4831791525821379e-04  -1.1028382779648802e-02 -1.1472560408805577e-01 -4.4282363353008595e-03  -1.1029219109985050e-02 -1.1165662150299194e-01 -5.7842838571537320e-03  -9.0026707653222491e-03 -1.1800303760486658e-01 -2.7122353475900101e-03  -1.1191120310765600e-02 -1.1344345642507921e-01 -6.4799131457891493e-03  -1.1185390493480432e-02 -1.1058154307419296e-01 -7.7927638099596491e-03  -8.8702502149648321e-03 -1.1708516327839805e-01 -5.0041657388929994e-03  -1.1292142165171324e-02 -1.1237226914735811e-01 -8.4893989100778867e-03  -1.1279284866328156e-02 -1.0971929763070773e-01 -9.8337763024072735e-03  -8.6977484883066225e-03 -1.1632301448365380e-01 -7.3087120936945462e-03  -1.1342901968875449e-02 -1.1148815523990553e-01 -1.0518012431326492e-02  -1.1314451589029119e-02 -1.0904274133625690e-01 -1.1962738902037468e-02  -8.4898228485411602e-03 -1.1570694148032448e-01 -9.6928936028469210e-03  -1.1346781902448895e-02 -1.1078030279218987e-01 -1.2615363776157533e-02  -1.1286261761928033e-02 -1.0853763733808861e-01 -1.4231095426990475e-02  -8.2502480511878144e-03 -1.1522772326912835e-01 -1.2209928575293783e-02  -1.1301918650548016e-02 -1.1026260683024043e-01 -1.4816670235161958e-02  -1.5793294957268469e-02 -1.0312820983858659e-01 -1.9748717157434821e-02  -1.4790863707997809e-02 -1.0613053291667601e-01 -1.4961449874633026e-02  -1.4702328195900274e-02 -1.0270721651407642e-01 -1.6348253580433840e-02  -1.5833607424262031e-02 -1.0110279517141109e-01 -1.6227769717288881e-02  -1.5636655628859811e-02 -1.0438392818422340e-01 -1.5385178340867814e-02  -1.6881688142704961e-02 -1.0161327093519316e-01 -1.9359780895942265e-02  -1.7868164508710340e-02 -1.0055659404174996e-01 -1.9127837321673474e-02  -1.6406347663987231e-02 -1.0300370630979452e-01 -1.5806182289882936e-02  -1.6855206266642195e-02 -9.9951288967302571e-02 -1.6212925711757468e-02  -1.8770217691082693e-02 -9.9828281353675233e-02 -1.9028918949929117e-02  -1.7100791682174335e-02 -1.0196721425528715e-01 -1.6278912073860393e-02  -1.7781947522024624e-02 -9.9122904354351227e-02 -1.6325509445672976e-02  -1.9601244454601985e-02 -9.9368911888803590e-02 -1.9041207758518339e-02  -1.7720068312088007e-02 -1.0120960194041244e-01 -1.6846426122243758e-02  -1.8621706941674549e-02 -9.8568008991528497e-02 -1.6559986501339448e-02  -2.0364999986978671e-02 -9.9152647827664198e-02 -1.9154171828863014e-02  -1.8273193929675153e-02 -1.0069274846784212e-01 -1.7526012620380105e-02  -1.9383788196266315e-02 -9.8259830913570295e-02 -1.6910884170831888e-02  -1.8776112979730836e-02 -1.0039185693367673e-01 -1.8330733790743528e-02  -2.1063288476513724e-02 -9.9175921873213654e-02 -1.9363096113637814e-02  -2.0081037497895693e-02 -9.8192387240831278e-02 -1.7377089432669551e-02  -1.2706698265453857e-02 -1.0658735636131822e-01 -8.7383890520011630e-03  -1.1880067658759470e-02 -1.1026685941691401e-01 -5.6869687444527544e-03  -1.1355456803601081e-02 -1.0944227170814934e-01 -3.9972987475889914e-03  -1.1979893425058024e-02 -1.0754863156244183e-01 -5.6693002390580012e-03  -1.2531161250291831e-02 -1.0845737305255129e-01 -7.2336454250980856e-03  -1.3639796775243284e-02 -1.0475413734101773e-01 -9.6871525366325519e-03  -1.4414364123403769e-02 -1.0327145824513140e-01 -1.0743447203153692e-02  -1.3037974783726364e-02 -1.0703223416939522e-01 -8.7796467711178851e-03  -1.2467885583234762e-02 -1.0609776881030657e-01 -7.3233706008939735e-03  -1.5086928014223299e-02 -1.0210973973608849e-01 -1.1856199861896429e-02  -1.3454776093704818e-02 -1.0589604786738979e-01 -1.0346216600284048e-02  -1.2876617902805573e-02 -1.0495532440070303e-01 -8.9976313148691645e-03  -1.5674638858702725e-02 -1.0122910341204536e-01 -1.3034278517713787e-02  -1.3796451911423821e-02 -1.0500357313813290e-01 -1.1963823462130756e-02  -1.3210785786088778e-02 -1.0406130244863876e-01 -1.0730142077762270e-02  -1.6179822762698151e-02 -1.0059326647567346e-01 -1.4292634728548682e-02  -1.4065541637239058e-02 -1.0432596077514573e-01 -1.3662650947273392e-02  -1.3469668390908027e-02 -1.0338082385106036e-01 -1.2553939757998385e-02  -1.4251486166853507e-02 -1.0384483456208260e-01 -1.5471529023697054e-02  -1.6595895295394018e-02 -1.0017099595625562e-01 -1.5636657144476210e-02  -1.3651498523403369e-02 -1.0289377187533544e-01 -1.4498267838440465e-02  -1.2859062419180695e-02 -1.2626037319992783e-01 -2.9394692945884041e-03  -1.2032634031116261e-02 -1.2593393096220298e-01 -1.7788029619601900e-03  -1.3729441882846843e-02 -1.2381489886195832e-01 -5.3438791804741427e-03  -1.3278078392116149e-02 -1.2315146546336481e-01 -7.2007478758650354e-03  -1.1438296140828995e-02 -1.2539667921523678e-01 -3.6640229501877990e-03  -1.0850534262896292e-02 -1.2480595564711451e-01 -5.3296304329376121e-03  -1.1424974328426873e-02 -1.2543116426855952e-01 -5.8454950191268061e-03  -1.2811557934874943e-02 -1.2247431742871745e-01 -8.9007994194110242e-03  -1.0733457581759481e-02 -1.2484630470099421e-01 -7.1250501481903436e-03  -1.0273039597983572e-02 -1.2417747367412939e-01 -6.9128452726258099e-03  -1.2344034826846328e-02 -1.2179719070502647e-01 -1.0516391742696597e-02  -9.7067585825314981e-03 -1.2353949757561045e-01 -8.5361249390785241e-03  -1.0070697792355612e-02 -1.2419990567812879e-01 -8.4791670785604300e-03  -1.1886324835557436e-02 -1.2114454871527183e-01 -1.2148090346506938e-02  -9.4414125705899951e-03 -1.2355569295770058e-01 -9.9971073770762000e-03  -9.1583485099573439e-03 -1.2292650908149999e-01 -1.0276543481390938e-02  -1.1442222594380734e-02 -1.2053112668350431e-01 -1.3876545797242129e-02  -8.8213790805604670e-03 -1.2302724239923932e-01 -1.1712329671858089e-02  -8.6153679874377154e-03 -1.2235494002305744e-01 -1.2195886128796072e-02  -1.1028223933636559e-02 -1.1993745286403409e-01 -1.5739146819810892e-02  -1.5472860011521103e-02 -1.0082938973095479e-01 -2.1529634098544574e-02  -1.6791048026356808e-02 -9.9662710205816005e-02 -2.0650520376739871e-02  -1.7987101342354424e-02 -9.8846839129771560e-02 -2.0029187208661092e-02  -1.9090678452558543e-02 -9.8345820961760325e-02 -1.9595475744982157e-02  -2.0116770585443731e-02 -9.8113375420884233e-02 -1.9291074388602360e-02  -2.1078282651134969e-02 -9.8130245624148349e-02 -1.9078804993622595e-02  -2.1985480348073162e-02 -9.8383828148107755e-02 -1.8925045719594732e-02  -2.1413968426109233e-02 -1.0711222784511501e-01 -2.8189056678045183e-02  -2.1771697665025957e-02 -1.0545785978863058e-01 -2.8004174419681283e-02  -2.2079686046135479e-02 -1.0420677051426407e-01 -2.7907022209856039e-02  -2.2372503867398068e-02 -1.0326959644041241e-01 -2.7887587341731752e-02  -2.2649502767071710e-02 -1.0259518484192007e-01 -2.7959588969349122e-02  -2.2912391224476667e-02 -1.0215303598941043e-01 -2.8135624505151589e-02  -2.3160910908545884e-02 -1.0192499332693601e-01 -2.8425402218996674e-02  -8.2205044338446963e-03 -1.2072432740685643e-01 4.3556064088078753e-03  -8.1589249509327749e-03 -1.1938070860000319e-01 1.6589403109891377e-03  -8.0477569642370145e-03 -1.1822899986480988e-01 -9.1155917209939077e-04  -7.9018469360926085e-03 -1.1726880155393425e-01 -3.4023667504083669e-03  -7.7187222497118162e-03 -1.1647451972004003e-01 -5.8960638930815072e-03  -7.4967328141037713e-03 -1.1582827235455662e-01 -8.4543270440050507e-03  -7.2347248851412299e-03 -1.1530262511041096e-01 -1.1115453459073362e-02  -1.2549427946276715e-02 -1.0457657158443470e-01 -8.0142813309002619e-03  -1.3524839789272254e-02 -1.0269949807848623e-01 -8.8720495313139736e-03  -1.4364846288506924e-02 -1.0123326008878687e-01 -9.8267351136813105e-03  -1.5102449050463838e-02 -1.0011702407907111e-01 -1.0873327519646463e-02  -1.5751031337485264e-02 -9.9289460780793481e-02 -1.2009403498843727e-02  -1.6313443100253698e-02 -9.8704383688876671e-02 -1.3240387590093466e-02  -1.6787413518533880e-02 -9.8320017118088479e-02 -1.4578858501696103e-02  -1.0677143722725291e-02 -1.2904866120819697e-01 1.8607884516286402e-03  -9.7706513251837549e-03 -1.2885577418385849e-01 4.3927306041362414e-04  -8.8952013388847694e-03 -1.2842414762921311e-01 -7.4425550197595753e-04  -8.0590212919603617e-03 -1.2782952240153908e-01 -1.8685493930909181e-03  -7.2571982497906884e-03 -1.2713383160581346e-01 -3.0663359122191352e-03  -6.4819765366236981e-03 -1.2639951887867867e-01 -4.4459372655746062e-03  -5.7275303233690518e-03 -1.2570642851266725e-01 -6.0923363073916202e-03  -9.3978322972227222e-03 -1.1579089537355917e-01 1.7144409850454437e-03  -9.5151882967024013e-03 -1.1420578247722893e-01 -7.5627663403260317e-04  -9.6046318623232638e-03 -1.1290265053190052e-01 -3.0660449611166715e-03  -9.6486807688860275e-03 -1.1185019251335665e-01 -5.3245896333929347e-03  -9.6401726474072118e-03 -1.1100729986932999e-01 -7.6100100671842681e-03  -9.5709159154993371e-03 -1.1034325947347659e-01 -9.9814336869582312e-03  -9.4309759247672448e-03 -1.0983937742191796e-01 -1.2486371992190076e-02  -1.4833749506861072e-02 -9.9044746405547779e-02 -2.1130061442672442e-02  -1.6274841635907852e-02 -9.8021321548205642e-02 -2.0090484332831223e-02  -1.7608708732137365e-02 -9.7356710494281282e-02 -1.9324934150425591e-02  -1.8839754476758848e-02 -9.6974956207109858e-02 -1.8785573985852688e-02  -1.9985011267600206e-02 -9.6841049262244724e-02 -1.8399556823324986e-02  -2.1056734967498294e-02 -9.6946208131257830e-02 -1.8114943757677936e-02  -2.2064032636849366e-02 -9.7301564886228833e-02 -1.7905424276421566e-02  -7.4013457223555401e-03 -1.2539913134621999e-01 6.6034647913270021e-03  -7.0678585213060589e-03 -1.2446138388229927e-01 3.8192046551871997e-03  -6.6932138349197296e-03 -1.2365285448539159e-01 1.2488547890505658e-03  -6.3014505734372743e-03 -1.2293184210032265e-01 -1.2252856093882402e-03  -5.8940865445925002e-03 -1.2229691787860997e-01 -3.7118579456897290e-03  -5.4691990640333334e-03 -1.2176443578195974e-01 -6.2997872212947024e-03  -5.0184020542971188e-03 -1.2138039111343547e-01 -9.0482198667934648e-03  -1.3861472774061200e-02 -1.2185495016320329e-01 -6.4098586952986997e-03  -1.3523548569904472e-02 -1.2098769402815873e-01 -8.3948061239569084e-03  -1.3167753857326223e-02 -1.2018902723633894e-01 -1.0150342082947824e-02  -1.2805588635983025e-02 -1.1946110502360317e-01 -1.1819995360762326e-02  -1.2440413528206769e-02 -1.1880643201589938e-01 -1.3508124738818825e-02  -1.2074510861913397e-02 -1.1822729116335173e-01 -1.5299870289566614e-02  -1.1714815912269048e-02 -1.1772862487225663e-01 -1.7273174079259018e-02  -6.5698668508120221e-03 -1.1752619963783768e-01 -4.2671144836599747e-03  -6.2664525180335037e-03 -1.1691608004118906e-01 -6.9560752969313354e-03  -5.9086563991620012e-03 -1.1643704773172958e-01 -9.7675742335324531e-03  -1.4069962310268270e-02 -1.0036008838875093e-01 -1.5902417441008513e-02  -1.4465534362180253e-02 -9.6544907827438825e-02 -2.1279260813377651e-02  -1.6106979531847272e-02 -9.5839341930726712e-02 -2.0067011655690938e-02  -1.5431238301996894e-02 -9.8904385938419090e-02 -1.5574380192920931e-02  -1.7598476602371647e-02 -9.5471589222601502e-02 -1.9223447952829809e-02  -1.6651089851987756e-02 -9.7828022937672204e-02 -1.5420854620306165e-02  -1.8990750370158838e-02 -9.5331375349469352e-02 -1.8624855496175576e-02  -1.7762368981499747e-02 -9.7090253928046932e-02 -1.5425148751481621e-02  -2.0303587221393183e-02 -9.5413431707458293e-02 -1.8159727821003897e-02  -1.8779016562752906e-02 -9.6638729485513858e-02 -1.5561938651814201e-02  -2.1544965548847352e-02 -9.5743330504951971e-02 -1.7767263028479124e-02  -1.9709461084014449e-02 -9.6442465391792909e-02 -1.5808362229802676e-02  -2.2728021335309316e-02 -9.6346227511568835e-02 -1.7411044144384834e-02  -2.0541146204702279e-02 -9.6482701021805117e-02 -1.6149101462089640e-02  -6.4785123818901346e-03 -1.2596881200827695e-01 8.5087167849618832e-03  -6.0854817074303324e-03 -1.2505218024920778e-01 5.6162064002445401e-03  -5.2127357260332496e-03 -1.2361628661531616e-01 3.0954320677067991e-04  -4.7539126089071937e-03 -1.2303519733435528e-01 -2.3195984520757358e-03  -4.2724330169387013e-03 -1.2256010746452844e-01 -5.0532181350691607e-03  -3.7577277204975759e-03 -1.2223877988140058e-01 -7.9445828099085278e-03  -2.2622549781766057e-02 -1.0478830038313469e-01 -3.4649607381358208e-02  -2.3095610733461888e-02 -1.0355839555552741e-01 -3.3432517982369639e-02  -2.3531983837800655e-02 -1.0267339418519539e-01 -3.2429186263358042e-02  -2.3939819226673209e-02 -1.0208136960785312e-01 -3.1602007783695520e-02  -2.4330817100918046e-02 -1.0173965164075269e-01 -3.0905734634350989e-02  -2.4710626790520367e-02 -1.0162828798541718e-01 -3.0307312211027723e-02  -2.5081379198792754e-02 -1.0173840737977848e-01 -2.9790877567563750e-02  -1.2212355890838036e-02 -1.2374960406551941e-01 -2.9354248245390554e-03  -1.1802850368796223e-02 -1.2294779878944946e-01 -5.0102304112871364e-03  -1.1383297421688650e-02 -1.2219046986798221e-01 -6.8654308144937230e-03  -1.0960851377539204e-02 -1.2147671422157623e-01 -8.6321709344752851e-03  -1.0539384817664281e-02 -1.2081484500455511e-01 -1.0416499662444017e-02  -1.0119729082736799e-02 -1.2021728307295292e-01 -1.2300801754864777e-02  -9.7020762804600202e-03 -1.1970017042107449e-01 -1.4346138954292442e-02  -1.3869712223526003e-02 -9.7645218572459017e-02 -1.6389645097227519e-02  -1.5359632801963886e-02 -9.6431490861297015e-02 -1.5677117090438116e-02  -2.4264272924143633e-02 -1.0985567856600825e-01 -2.8857493287475895e-02  -2.3229607939444341e-02 -1.1027524892481130e-01 -2.7067970187698884e-02  -2.5209140155230101e-02 -1.0687378677302645e-01 -3.2878046402960166e-02  -2.3294999188986289e-02 -1.0870537278228845e-01 -2.8051287670220568e-02  -2.5347703998444035e-02 -1.0517441655879585e-01 -3.3005992381646289e-02  -2.0705023370369290e-02 -1.0608740346399990e-01 -2.8581579031289078e-02  -2.1228839449890645e-02 -1.0453084560547088e-01 -2.8072275890982608e-02  -2.1689394211348845e-02 -1.0338883155141260e-01 -2.7679329292590853e-02  -2.2114073982355442e-02 -1.0256036528218418e-01 -2.7395994186205714e-02  -2.2513208219610666e-02 -1.0199261156777301e-01 -2.7218870952134343e-02  -2.2890519140338829e-02 -1.0165758712826027e-01 -2.7147646928470905e-02  -2.3240306054037763e-02 -1.0154760612844288e-01 -2.7182409517598718e-02  -1.8229826525681260e-02 -1.0891555614326007e-01 -2.0838600465714174e-02  -1.8165301060538399e-02 -1.0675345344436928e-01 -2.2820428274776702e-02  -1.9251143367022893e-02 -1.0701363668423876e-01 -2.4650226460079947e-02  -1.9791074337441244e-02 -1.0536002443342200e-01 -2.4573971390922350e-02  -1.8777056062985964e-02 -1.0507312708455051e-01 -2.2718962638559076e-02  -1.8664856843868934e-02 -1.0719853642526718e-01 -2.1305240328763287e-02  -2.0258512963492518e-02 -1.0412027217398667e-01 -2.4497421084653821e-02  -1.9348329809496211e-02 -1.0380337422421990e-01 -2.2667085856587461e-02  -1.9048691844923252e-02 -1.0585178098691117e-01 -2.1751195009510602e-02  -2.0687027660040685e-02 -1.0319763793266454e-01 -2.4509822771913579e-02  -1.9863913525124691e-02 -1.0285972559101096e-01 -2.2699892423134357e-02  -1.9393226686247086e-02 -1.0480802445301553e-01 -2.2229765243112275e-02  -2.1079884603085981e-02 -1.0253604400686880e-01 -2.4628852015895392e-02  -2.0337196178862857e-02 -1.0218548493237710e-01 -2.2833619514853583e-02  -1.9704559268504358e-02 -1.0401909954054706e-01 -2.2782134780766988e-02  -2.1443082177650875e-02 -1.0210219297526558e-01 -2.4867555896140956e-02  -2.0774474671552148e-02 -1.0174482360424332e-01 -2.3078960202330467e-02  -1.9986322297863117e-02 -1.0345249042923207e-01 -2.3440715021160154e-02  -2.1775102942338875e-02 -1.0187143172674738e-01 -2.5241792440432148e-02  -2.1179712186989389e-02 -1.0151915887222786e-01 -2.3453274285704821e-02  -2.0241636203624572e-02 -1.0308085942904621e-01 -2.4231703230218664e-02  -1.2910257460598490e-02 -1.1552107743991318e-01 -6.9612654871526710e-03  -1.1991776599291066e-02 -1.1521214745058164e-01 -5.1647653128970659e-03  -1.3835906842828904e-02 -1.1221147983953811e-01 -9.9068212196628432e-03  -1.4230956114633790e-02 -1.1053883911503741e-01 -1.1322051544957711e-02  -1.2300139193885128e-02 -1.1359698623570343e-01 -7.0171729455539939e-03  -1.3131318407381966e-02 -1.1393425589921483e-01 -8.7293957667817328e-03  -1.4570815580745916e-02 -1.0914545861862253e-01 -1.2618670629875910e-02  -1.2531166842153567e-02 -1.1222533568253570e-01 -8.8357846484506276e-03  -1.3304933918312296e-02 -1.1258711854566546e-01 -1.0420528919404575e-02  -1.4858995154211740e-02 -1.0801878729647715e-01 -1.3896398640651432e-02  -1.2705542500337832e-02 -1.1107850390905881e-01 -1.0612458010897646e-02  -1.3434849031087810e-02 -1.1146009773205466e-01 -1.2069075272682431e-02  -1.5094317189485474e-02 -1.0712603805832874e-01 -1.5221764970172056e-02  -1.2833356159905043e-02 -1.1013542876416361e-01 -1.2405074366235643e-02  -1.3527016837680397e-02 -1.1053115003729926e-01 -1.3733577317356697e-02  -1.5284144218114460e-02 -1.0643667148681298e-01 -1.6644695619268492e-02  -1.2917683570743495e-02 -1.0937973886398583e-01 -1.4261002676291984e-02  -1.3586034366542077e-02 -1.0978346288762302e-01 -1.5466426217308439e-02  -1.5437742335800602e-02 -1.0592159093119416e-01 -1.8214852067966174e-02  -1.2960727898465469e-02 -1.0880588176856901e-01 -1.6207803919707234e-02  -1.3619431335000055e-02 -1.0920108056197692e-01 -1.7296020077427608e-02  -1.6891144565780544e-02 -1.0970468412855582e-01 -1.7700959615766312e-02  -1.7343759820056981e-02 -1.0798155323318664e-01 -1.8399184439617407e-02  -1.7738696717025330e-02 -1.0660144668164410e-01 -1.9072888023648215e-02  -1.8090034597099802e-02 -1.0551720643850936e-01 -1.9764507866739681e-02  -1.8403393551487665e-02 -1.0468203724931016e-01 -2.0520729803987392e-02  -1.8683236952627802e-02 -1.0406465482097739e-01 -2.1378068013252070e-02  -1.8934263167306314e-02 -1.0364635998874529e-01 -2.2363691577708025e-02  -1.2888906926849804e-02 -1.1198153401411598e-01 -7.7952994370502071e-03  -1.3334139384541050e-02 -1.1033521501964634e-01 -9.3278655811764328e-03  -1.3733169866981516e-02 -1.0892441284329150e-01 -1.0740640560411257e-02  -1.4056668439694197e-02 -1.0778307472980249e-01 -1.2148694487021565e-02  -1.4315856013724459e-02 -1.0687992335567348e-01 -1.3605142082423295e-02  -1.4518520587017794e-02 -1.0618625486190428e-01 