<?xml version="1.0"?>
<VTKFile type="UnstructuredGrid"  version="0.1"  >
<UnstructuredGrid>
<Piece  NumberOfPoints="997" NumberOfCells="4363">
<Points>
<DataArray  type="Float64"  NumberOfComponents="3"  format="ascii">6.85927697485309 1.705631814807317 3.415777548643188  6.755979634133197 1.720516645470522 3.472960851723151  6.774640884423053 1.643437565701409 3.325026362984295  6.783237683439181 1.58851841230229 3.354206937947657  6.764982585255471 1.664476040624427 3.50412782346661  6.86838480599726 1.64973649251708 3.446396731212062  6.791875312796977 1.533598810987243 3.383342243258619  6.774017176661497 1.608432742029222 3.535253743442545  6.877530167307456 1.59384078344394 3.476968020960036  6.800539659777367 1.478684862846354 3.412441623388902  6.783072786523706 1.552390512893722 3.566345828666686  6.886697185428003 1.537949008593301 3.507501560500287  6.809217470306116 1.423777819257498 3.441515301256769  6.792136486827943 1.496350121491264 3.597409654397752  6.895872814956575 1.4820635461706 3.538006724692418  6.81789826041013 1.368876496622784 3.470571445183738  6.801196811743074 1.440309907097983 3.628447865236347  6.905045419139202 1.426182932729065 3.568491199194649  6.826580558984052 1.313975444399499 3.499613122680349  6.810251312120212 1.384272544157899 3.659457784145582  6.91419985259742 1.370300356637983 3.598959099891629  6.922849954344042 1.515369999233821 3.037944157662339  6.822895803690695 1.521314061370262 3.080370089301905  6.864060687842186 1.456588252250405 2.953375343635163  6.873766394529201 1.403476554501645 2.983646325744158  6.831980885317869 1.468117764281875 3.109624240646931  6.931928917858954 1.461728608925128 3.067336497354194  6.883537083679422 1.350364282090402 3.013841386199951  6.841124178219464 1.414919677169152 3.138817527842669  6.94106850115194 1.408086928881741 3.096657096976019  6.893341268838345 1.29726248451328 3.043985510933136  6.85030092551171 1.361728857563416 3.167966021716765  6.950238599594964 1.354455157763663 3.12592499215103  6.903150401668 1.244178273289527 3.074106434849339  6.859489818619156 1.308551611097121 3.197091251289118  6.95941373320454 1.300841774443105 3.155165967057411  6.912940200501258 1.191119732643149 3.104237730946874  6.868674185107411 1.255393787685109 3.226219092664391  6.968571964934531 1.247251948085013 3.184412231413023  6.922708329695618 1.138097665317629 3.134431081901669  6.877854759062106 1.202258306019394 3.255382280317952  6.977697785003233 1.193681395844586 3.213710276449535  6.638836764279573 1.430948544126064 3.227969002955318  6.719519857008538 1.40132512648945 3.148860505514656  6.620830415758601 1.355668733152867 3.097966725104373  6.7103360118106 1.453827981312601 3.119695430846401  6.630010937794522 1.483636263139645 3.199177300612288  6.630073922015664 1.304001458642186 3.127711317491729  6.647697591127049 1.378263794187946 3.256730979464025  6.728741111833766 1.348825706088097 3.177990183482887  6.639331593589816 1.252341215190803 3.157440173606721  6.656574377646432 1.325584787393846 3.285473827757358  6.737977852318735 1.29633497817846 3.207100731085631  6.64857748400157 1.2006919942942 3.187172109013833  6.665449757064536 1.272911952072019 3.314209032868822  6.747210431991824 1.24385606509869 3.236211524563613  6.727594931546933 1.448049960560157 2.98053628313602  6.737004785304364 1.395826523043678 3.010715457371623  6.746475861921311 1.343596855284548 3.040827810171403  6.755985294552258 1.291372219336766 3.070899761007609  6.765507195829916 1.239158513924025 3.100954148590876  6.77502022648271 1.186962858642313 3.131017423988956  6.784520184855094 1.134805047654034 3.161129872947346  6.674223758415772 1.618392130984562 3.442652575324438  6.683183266128516 1.563057761623374 3.472365512081603  6.692169786331167 1.507724576420681 3.502048076407704  6.701168486022461 1.452392452621891 3.531704680712071  6.710165718262607 1.397059473983185 3.561337052245103  6.719144293692368 1.341723477824013 3.590940910746591  6.886749078296035 1.663021663201669 3.329200554728421  6.895584076052031 1.607544486037228 3.358700661611862  6.904460645640236 1.552071238140072 3.388146490047558  6.913360774399202 1.496604525271633 3.417552170281807  6.922271089258007 1.441146980696464 3.446930483767245  6.93117988359416 1.385700772113063 3.476292065505162  6.940071539373325 1.33025648363633 3.505644879655778  6.868039236042506 1.627144839378125 3.265893058908872  6.847231939289813 1.590237195757325 3.201127191731985  6.855913518894471 1.535961393492363 3.229768457080073  6.876595978864493 1.572088466762598 3.294525287951062  6.885194954930828 1.517037928986003 3.323103403699514  6.864645819584317 1.481689692716815 3.258353355191062  6.893820895353565 1.461994373515586 3.351640859251731  6.87340844687986 1.427424456995676 3.286897026674644  6.902458237430343 1.406961692932287 3.380152405027143  6.882184287299599 1.373170706708437 3.315415729623656  6.911093915434036 1.351941584040024 3.408652226119213  6.890959226092989 1.318930243570833 3.343928158708307  6.919719424080197 1.29692493120866 3.437147090196892  6.899723333790509 1.264698406905587 3.372448662464945  7.481052668558082 1.451413701452307 2.771318773206332  7.449450234649408 1.491754576228627 2.854045688990558  7.36020971150046 1.451736254070421 2.798035228461266  7.36655238404501 1.39785536073763 2.82491697541411  7.455221263110364 1.439150106184755 2.881682776366556  7.486839447795153 1.39773642661681 2.79742941477459  7.372862525872685 1.344009456155578 2.851705031909871  7.460940802539751 1.386558412220229 2.909215816131561  7.492559624334355 1.344091150060932 2.823452697921497  7.379146617162816 1.29020037381613 2.878437808393822  7.466625097826268 1.333991484183915 2.936693584101099  7.498235279138591 1.290481465702768 2.849425605314932  7.385398683532515 1.236431674989582 2.905137467825203  7.472284503166398 1.28145702257994 2.964137370885825  7.503883071882496 1.236915244318108 2.875365245240967  7.391607214118448 1.182722692856097 2.931820098655434  7.477926979413297 1.22897086533518 2.991564712465527  7.509515559090707 1.183417705943985 2.901281905741916  7.397772808104497 1.129119379505412 2.958505160906264  7.483551295770869 1.176578382402689 3.019012412806094  7.515141402192381 1.130038204017402 2.927200005795664  6.721300336063759 1.566678932221558 3.195854850799979  6.730095842107499 1.513165189315112 3.224506079266309  6.738947565162009 1.45965659217752 3.25311071716499  6.747833637244753 1.406153266395909 3.281680608385787  6.756735454822074 1.352658315517474 3.310228700380542  6.765636390928421 1.299173100018106 3.338768611926724  6.774526217304349 1.245695003331909 3.367308409286257  7.409059181836195 1.402971416944892 2.680025371630008  7.415356877071835 1.347086718194794 2.703486212564621  7.421596986836077 1.291265405301318 2.726882377760236  7.427795637644608 1.235491307506312 2.75023408634859  7.433955458654794 1.179766064612622 2.773558221738806  7.440073424757399 1.124111795475994 2.796865943349458  7.446159758324376 1.068565073185318 2.820162045913725  6.701215934827885 1.506326944381693 3.09048242728125  6.75642111007504 1.191391625557787 3.265346419050365  7.464330603493565 1.785464346783971 3.385845072962563  7.362240339257648 1.794416855658056 3.428854482778681  7.406003365543847 1.729280910068973 3.306496600630532  7.414065618846602 1.675396735038247 3.337092602591421  7.37106182848206 1.739464873113291 3.461785523724749  7.473086965112691 1.731585941514888 3.417804508024191  7.379890604035181 1.684501055792345 3.494663056475758  7.481850642618825 1.677699983233033 3.449714169594537  7.422125112604469 1.621506200287026 3.367626651959021  7.490607682061386 1.623815419240662 3.481586831797081  7.388715748135414 1.62953960532171 3.527500934357488  7.430176044156081 1.567619562154075 3.398119835562937  7.499343854931996 1.569933811845084 3.51343065391125  7.397524637955914 1.574579959936635 3.560309783592813  7.438207632821333 1.513740433072874 3.428584025951959  7.508044661815166 1.516049566728262 3.545251608166274  7.406302370750592 1.519618720729517 3.593095396687962  7.446206763470923 1.459868118732385 3.459028217324662  7.516690005884177 1.46215256038869 3.577054862587136  7.41503301311094 1.46464922449934 3.625862111066185  7.45416070321171 1.405996381704936 3.48945987569124  6.660811738380776 1.550839989418094 3.316588745583079  6.669527855720207 1.496909741583619 3.345430334745784  6.678275619043247 1.442982163329146 3.374242148335056  6.687039218007519 1.38905819246878 3.403031119968631  6.695804098882471 1.335135485183044 3.431802891427109  6.704552229817407 1.281208770051222 3.460559451326404  7.381443283523693 1.516368753421078 2.915819910566096  7.387558549489016 1.463542892701733 2.943604586310512  7.393643762157831 1.410723775406217 2.971288663561347  7.399703124449221 1.357927032721926 2.998912757684453  7.405739519487517 1.305161146017629 3.026502314544261  7.411751753555704 1.252442882502207 3.054079611788609  7.417733466097387 1.199805394191537 3.081684170328751  7.28403969384003 1.742828722388946 3.361579688434735  7.292599391869124 1.688000600700711 3.393071532322236  7.301167012671425 1.633166681595026 3.424500173521867  7.309733522437719 1.57833429373415 3.455887784213805  7.31828778227941 1.523505834403299 3.48724705360761  7.326816638643834 1.468676139512049 3.518587649578765  7.33530382412312 1.41384075601661 3.549917451881448  7.275283896794437 1.488788866779423 2.887343537191877  7.282204794134429 1.435544605050877 2.915545716888192  7.289132166500407 1.382326099531225 2.943641611299909  7.296051230543476 1.329127683855762 2.971677572745826  7.302945977399649 1.275958722169596 2.999680398425182  7.309793955451154 1.22283515360657 3.027675903391261  7.316562968102311 1.169803938391131 3.05569137140249  6.621241254051949 1.536320208894643 3.170347868008209  7.742082267964967 1.917215448008957 3.518468773769284  7.636034779419287 1.931083200563851 3.56654747501805  7.665953029902002 1.852861716919157 3.442728222964846  
[...]
<PointData  Vectors="f_24"> 
<DataArray  type="Float64"  Name="f_24"  NumberOfComponents="3" format="ascii">1.8615031506761571e-04 -1.8285531595095927e-03 2.0198784221086099e-04  1.8789641600600461e-04 -1.7599065839849905e-03 1.6844987642102493e-04  1.9509470998088993e-04 -1.9247480504688038e-03 2.8148835879671590e-04  1.9503833018316843e-04 -1.9041774726989641e-03 3.3945563275672880e-04  1.8661005165914970e-04 -1.7231670412759675e-03 2.4288270922841857e-04  1.8697760073225814e-04 -1.7966504396305333e-03 2.7155821837027898e-04  1.9346735816570121e-04 -1.8780323784735281e-03 3.9036583603986824e-04  1.8415372182035045e-04 -1.6834559151058205e-03 3.0919440778227197e-04  1.8641342532609191e-04 -1.7609298295495788e-03 3.3323524069633198e-04  1.9066980263237259e-04 -1.8458732205194591e-03 4.3645453707971270e-04  1.8079070496953401e-04 -1.6396594173257856e-03 3.7071694822966882e-04  1.8481478690304535e-04 -1.7204049613121796e-03 3.9008839509976863e-04  1.8694844819392852e-04 -1.8068544931095479e-03 4.7977236898642041e-04  1.7673830415885453e-04 -1.5905117546064530e-03 4.3045676681084037e-04  1.8245631592454187e-04 -1.6739636659625686e-03 4.4485184581165944e-04  1.8259740325090784e-04 -1.7596516607450462e-03 5.2246347045119127e-04  1.7219986238771280e-04 -1.5346457978705989e-03 4.9134180025671339e-04  1.7959379965720279e-04 -1.6202121129438429e-03 5.0012180618905536e-04  1.7797412842241020e-04 -1.7025929208439212e-03 5.6704680080161900e-04  1.6749638722102439e-04 -1.4706414909911917e-03 5.5639458430909860e-04  1.7647886624978855e-04 -1.5578362876507517e-03 5.5876040554770495e-04  1.8305423820657820e-04 -2.0688679654101566e-03 4.2277386978592529e-04  1.9019499152221771e-04 -2.0591628764446584e-03 4.1799981628992233e-04  1.7796907447162566e-04 -2.0601599958243442e-03 4.5050803672277615e-04  1.7870478978545187e-04 -2.0697370321874809e-03 4.5234917769292781e-04  1.9099796175131798e-04 -2.0602047487514779e-03 4.3955143201829499e-04  1.8478765651603433e-04 -2.0724120871101833e-03 4.3890162092410294e-04  1.7794091259841041e-04 -2.0705012486541465e-03 4.5298399421705993e-04  1.9017536850654258e-04 -2.0532182197570427e-03 4.5781709422095109e-04  1.8499909727504919e-04 -2.0676762625800775e-03 4.5228052245463473e-04  1.7596446440736545e-04 -2.0637521883016961e-03 4.5141893157276330e-04  1.8802839792818882e-04 -2.0388695929430480e-03 4.7264333901866001e-04  1.8392199818322193e-04 -2.0554522783430762e-03 4.6251148507484935e-04  1.7293371653725117e-04 -2.0504977087378779e-03 4.4613948100544513e-04  1.8478859875189289e-04 -2.0173684975544823e-03 4.8366676234457072e-04  1.8169271432524921e-04 -2.0362252856168266e-03 4.6894190693215308e-04  1.6892922030567242e-04 -2.0315407102478276e-03 4.3500204880504966e-04  1.8062247624774634e-04 -1.9883419984841602e-03 4.9008274158687110e-04  1.7835173430030550e-04 -2.0099956508182770e-03 4.7045806720788676e-04  1.6397443527285652e-04 -2.0075686493428333e-03 4.1480868651675568e-04  1.7569990188258275e-04 -1.9505224997550820e-03 4.9044566866076364e-04  1.7378143984595569e-04 -1.9756253124806611e-03 4.6516527537057012e-04  1.9772821116420628e-04 -2.0045396392106988e-03 4.5786017108984713e-04  1.9307560246043052e-04 -2.0442128922955730e-03 4.6599946632118651e-04  1.9042419005889393e-04 -2.0478018509355015e-03 4.7499820601883499e-04  1.9540271303842302e-04 -2.0510312541719504e-03 4.4765468053936566e-04  2.0126958475423658e-04 -2.0167416951438338e-03 4.2906154774564225e-04  1.8553211993306383e-04 -2.0375998910195487e-03 4.8207203769812940e-04  1.9294902822670620e-04 -1.9852418393711594e-03 4.8266729039916461e-04  1.8948141129234203e-04 -2.0300708900827858e-03 4.8094328461482190e-04  1.7962699575515249e-04 -2.0205444444861336e-03 4.8540988960657120e-04  1.8712724396241072e-04 -1.9586111306363414e-03 5.0386653602263931e-04  1.8486999562959897e-04 -2.0088325559809309e-03 4.9213294067040815e-04  1.7281235014399718e-04 -1.9967859380766429e-03 4.8349752755303353e-04  1.8035411307231112e-04 -1.9236919905619247e-03 5.2160081880258909e-04  1.7939290015312145e-04 -1.9801190291395270e-03 4.9877733025446023e-04  1.8605345883892352e-04 -2.0526588556641851e-03 4.5740016869751126e-04  1.8541496330603014e-04 -2.0614464680159231e-03 4.6185405058896329e-04  1.8324556366717623e-04 -2.0616081149128773e-03 4.6488166202285168e-04  1.7983580260558317e-04 -2.0542815504633245e-03 4.6559569271920303e-04  1.7543304945865504e-04 -2.0403885478553108e-03 4.6266264869414394e-04  1.7021040989523110e-04 -2.0205573992253196e-03 4.5411830881374903e-04  1.6434766483308915e-04 -1.9952178070798236e-03 4.3670102950636768e-04  1.9457767355967869e-04 -1.8045986876992809e-03 2.9419738892561546e-04  1.9081963367264303e-04 -1.7716417858945825e-03 3.5424829207690020e-04  1.8607378602167763e-04 -1.7336838346470431e-03 4.0937889278914595e-04  1.8052577022687662e-04 -1.6895885836249241e-03 4.6226758507513795e-04  1.7433926158226222e-04 -1.6379325324976401e-03 5.1562281399308580e-04  1.6767878108412166e-04 -1.5768849006921051e-03 5.7247106405335687e-04  1.8903142973529340e-04 -1.9200092220550088e-03 2.6522714912295047e-04  1.9052665739712483e-04 -1.8975039545008510e-03 3.2480231689711571e-04  1.9051860057885957e-04 -1.8696147608547823e-03 3.7726183457077771e-04  1.8931931040231788e-04 -1.8358841289288972e-03 4.2490287701988332e-04  1.8723250580920345e-04 -1.7954315648451725e-03 4.6984796451397749e-04  1.8450813199059218e-04 -1.7467670197630803e-03 5.1427404871441553e-04  1.8158321434249501e-04 -1.6890242956659985e-03 5.6099176583470267e-04  1.9170695671696784e-04 -1.9743191514760344e-03 3.1143263265536581e-04  1.9299959523829226e-04 -2.0165450034538381e-03 3.5439828693163575e-04  1.9416629495090217e-04 -2.0074191352954045e-03 3.9525764460866569e-04  1.9310205259289405e-04 -1.9588875999967722e-03 3.6227479014541551e-04  1.9289842152537631e-04 -1.9372286799616788e-03 4.0673329948432818e-04  1.9372458754968080e-04 -1.9912123644915411e-03 4.3077326625050143e-04  1.9143443942413519e-04 -1.9091830162891168e-03 4.4647282846201080e-04  1.9196120333347326e-04 -1.9681387989255311e-03 4.6193652219926124e-04  1.8898717338312448e-04 -1.8740696361822205e-03 4.8305896586035922e-04  1.8915979807665229e-04 -1.9377750757583626e-03 4.8967955439403396e-04  1.8586155372761671e-04 -1.8306484150079206e-03 5.1817969160401441e-04  1.8559072404187020e-04 -1.8990387115660342e-03 5.1487916847174045e-04  1.8246566160923860e-04 -1.7771255923028459e-03 5.5414655502790801e-04  1.8157451527337667e-04 -1.8500009262396766e-03 5.3839369076605337e-04  1.1968183143538920e-04 -2.0297039113192179e-03 3.8768810693843556e-04  1.3404293016859391e-04 -2.0610444886326089e-03 3.9579154461610552e-04  1.3275123175493278e-04 -2.0402713028034782e-03 4.0666841480234542e-04  1.3716515699753297e-04 -2.0542263176529011e-03 3.9098029116770895e-04  1.4007043663849316e-04 -2.0726017397256539e-03 3.8927664335985121e-04  1.2535209771986550e-04 -2.0433750605284204e-03 3.6932521982408677e-04  1.4059659699139910e-04 -2.0599689342341606e-03 3.7619203735949616e-04  1.4501114678564084e-04 -2.0758629536908714e-03 3.8249479673245176e-04  1.3004879367768852e-04 -2.0491635784370293e-03 3.5212044372472925e-04  1.4315614598900360e-04 -2.0592071855988726e-03 3.6038546717692910e-04  1.4901687005854918e-04 -2.0722880385253954e-03 3.7423730558789985e-04  1.3390734229292304e-04 -2.0488128919532592e-03 3.3408707279423532e-04  1.4476177554825949e-04 -2.0532078331442225e-03 3.4163188045054261e-04  1.5216928896825439e-04 -2.0629327775049176e-03 3.6301482263603220e-04  1.3705631678669446e-04 -2.0435473063215893e-03 3.1327597823273772e-04  1.4535723404133130e-04 -2.0429885359405250e-03 3.1781582280739166e-04  1.5452976273523485e-04 -2.0485633405519206e-03 3.4699906007817888e-04  1.3961414686849237e-04 -2.0344336103477025e-03 2.8765664656222733e-04  1.4504507882973951e-04 -2.0297078908619558e-03 2.8675134201673348e-04  1.5602868739793797e-04 -2.0297181285790222e-03 3.2360690620901982e-04  1.4174595214392607e-04 -2.0233013255549662e-03 2.5540194247306161e-04  1.9903442953495381e-04 -2.0156326982940453e-03 3.7177196561708408e-04  1.9854166649101117e-04 -2.0080250702706947e-03 4.1028124968936247e-04  1.9644757475182671e-04 -1.9932541176656158e-03 4.4368093035488304e-04  1.9305529932547505e-04 -1.9715505249074216e-03 4.7280985413184791e-04  1.8863314415098036e-04 -1.9425272759214477e-03 4.9843805719853348e-04  1.8340469642066657e-04 -1.9050980434696485e-03 5.2122543607461310e-04  1.7746114019837140e-04 -1.8573806706833483e-03 5.4207910756051778e-04  1.1005439965358655e-04 -1.9796437459810509e-03 3.8127385478750847e-04  1.1353959970806919e-04 -1.9937853092093314e-03 3.5054519055088048e-04  1.1635125187519431e-04 -2.0011493565756078e-03 3.2229182631639822e-04  1.1846927344792308e-04 -2.0033668078993359e-03 2.9402389482522165e-04  1.1987407555772887e-04 -2.0017714265632876e-03 2.6348531546867911e-04  1.2053556557300273e-04 -1.9974657534136083e-03 2.2860966913808840e-04  1.2052180559738373e-04 -1.9914868847428942e-03 1.8759243028688364e-04  1.9616883511176504e-04 -2.0498539045686031e-03 4.2601081716181586e-04  1.7286425503667893e-04 -1.9424683779688770e-03 4.9942467229065776e-04  1.5070112959209765e-04 -1.8106323672367533e-03 1.2335370953494331e-04  1.5395495101342492e-04 -1.7681334090990405e-03 1.0654879627541321e-04  1.5975686421560006e-04 -1.9081142380300475e-03 2.0127508539916796e-04  1.6688728645065503e-04 -1.8806069593301081e-03 2.6191913591199634e-04  1.6104725003809010e-04 -1.7256710440099175e-03 1.8011684867218894e-04  1.5842150530576729e-04 -1.7722980679608492e-03 1.9307798957317860e-04  1.6701182837753470e-04 -1.6809146222813076e-03 2.4562127366630572e-04  1.6511470514396460e-04 -1.7311930148053755e-03 2.5501976755319320e-04  1.7285257830603560e-04 -1.8481728931273001e-03 3.1529089279541217e-04  1.7095422842405852e-04 -1.6861288309908923e-03 3.1240565900195031e-04  1.7202429203731461e-04 -1.6327200398560844e-03 3.0683525261303865e-04  1.7780737545394521e-04 -1.8106321639909772e-03 3.6415256598707835e-04  1.7584727592884328e-04 -1.6358942738661042e-03 3.6800882405339016e-04  1.7621561181533379e-04 -1.5796747941904440e-03 3.6643848844453635e-04  1.8171377263284465e-04 -1.7668945213193381e-03 4.1076857566448342e-04  1.7974022105220628e-04 -1.5792281482449296e-03 4.2453129809523775e-04  1.7964612944490325e-04 -1.5204451345042333e-03 4.2734761680621836e-04  1.8448530894668867e-04 -1.7158408222538741e-03 4.5743335741401156e-04  1.8247871171477194e-04 -1.5145514954723479e-03 4.8473246919774899e-04  1.8233097078490924e-04 -1.4537391650221480e-03 4.9242311320739504e-04  1.8600345174286362e-04 -1.6564571838520120e-03 5.0680415501130698e-04  2.0050605323842239e-04 -1.9378107816815917e-03 3.7170445130358049e-04  1.9713407381048318e-04 -1.9158938297393101e-03 4.1677438475856948e-04  1.9254942085469083e-04 -1.8875994117409861e-03 4.5722549166884085e-04  1.8699587781650554e-04 -1.8521962384036043e-03 4.9468989570622878e-04  1.8065721434406081e-04 -1.8083424721642791e-03 5.3082952575813139e-04  1.7363990611348070e-04 -1.7539189373824129e-03 5.6755988469330183e-04  1.4678788103982731e-04 -2.0752581840432823e-03 3.9896832919730432e-04  1.5221196598041954e-04 -2.0840613837284677e-03 4.0111240434592509e-04  1.5659523620543869e-04 -2.0845763559879009e-03 4.0203020240462837e-04  1.5998722478423558e-04 -2.0779981602769317e-03 4.0074182023965661e-04  1.6237850882587894e-04 -2.0651287736118242e-03 3.9619039026189690e-04  1.6373840025416618e-04 -2.0463333066845757e-03 3.8691946341408792e-04  1.6402133966164436e-04 -2.0215489311890501e-03 3.7107576837647172e-04  1.6432633473805432e-04 -1.8610632796831339e-03 1.7817489463501130e-04  1.7055091286916551e-04 -1.8280680577693375e-03 2.4471348168078692e-04  1.7552898978399393e-04 -1.7912534128541606e-03 3.0357167319378060e-04  1.7942604676188882e-04 -1.7496465953689962e-03 3.5780136693195339e-04  1.8237531478492637e-04 -1.7022181077655870e-03 4.1005518604978050e-04  1.8441299845228172e-04 -1.6478252067752127e-03 4.6290966381270875e-04  1.8546732077638829e-04 -1.5849657085069315e-03 5.1873222027686234e-04  1.5061096761597494e-04 -2.0683515845595982e-03 4.1602963395531278e-04  1.5467068009406077e-04 -2.0794529935691335e-03 4.1296314076124817e-04  1.5780420990654410e-04 -2.0821106016640223e-03 4.0926699491013516e-04  1.5995777685542308e-04 -2.0777208022355990e-03 4.0380501958365336e-04  1.6098064559093278e-04 -2.0672473500437279e-03 3.9513651245608292e-04  1.6068060853827960e-04 -2.0512572293628897e-03 3.8138236244675104e-04  1.5889971589200228e-04 -2.0297087718512681e-03 3.5969666334301187e-04  2.0317525532240411e-04 -2.0214749142502941e-03 3.9573096846455297e-04  1.1300243215350170e-04 -1.5683364442444529e-03 -6.6864671068994348e-05  1.1534554956810537e-04 -1.5087472282490663e-03 -8.8387642964447545e-05  1.2982232903032507e-04 -1.7016602654111878e-03 2.8685442702708131e-05  1.3896485938364597e-04 -1.6531599528375022e-03 1.0331899417168587e-04  1.2468526978571534e-04 -1.4441334719677611e-03 -8.2806323025648757e-06  1.2261762577937569e-04 -1.5083607308063655e-03 1.1171222552740170e-05  1.4738665634823271e-04 -1.6034649589050194e-03 1.7020501389089745e-04  1.3333455476813519e-04 -1.3817674442641753e-03 6.4373024106315782e-05  1.3164635017370068e-04 -1.4495935282370345e-03 8.1582260146565103e-05  1.5502144174532546e-04 -1.5510972654897083e-03 2.3275040030047375e-04  1.4142899987088647e-04 -1.3193268792337800e-03 1.3355704786516934e-04  1.4011121356137581e-04 -1.3899765225827544e-03 1.4820220869863354e-04  1.6178645384836972e-04 -1.4945897883134247e-03 2.9409953307507847e-04  1.4912279730465067e-04 -1.2548362578643519e-03 2.0263080450095349e-04  1.4801212738213527e-04 -1.3277453421417671e-03 2.1437766687161104e-04  1.6761812822514585e-04 -1.4325457702937250e-03 3.5732581794896466e-04  1.5656689610900318e-04 -1.1866503361479975e-03 2.7468735827378853e-04  1.5535832382026747e-04 -1.2613557401145621e-03 2.8317994692634500e-04  1.7252429127090298e-04 -1.3640902137712469e-03 4.2572325481362309e-04  1.6396452149056227e-04 -1.1132969102992706e-03 3.5253691062433091e-04  1.6201778582769903e-04 -1.1892764347523888e-03 3.5712915859118107e-04  8.2998218869047269e-05 -1.4160624980280095e-03 -1.8672114020730970e-04  6.7111948251874159e-05 -1.2028751939970757e-03 -2.9869437272835562e-04  8.6615521839666473e-05 -1.3542876892145925e-03 -2.0228059334825553e-04  9.6530949350356668e-05 -1.2797672461312389e-03 -1.2596245468784128e-04  7.6693090737093273e-05 -1.1177559148755291e-03 -2.3019957877230146e-04  9.3252146284876500e-05 -1.3469327000196695e-03 -1.0949578534319759e-04  1.0626780494183201e-04 -1.2098795962735534e-03 -5.5744638606254181e-05  8.6617111919257568e-05 -1.0399176262875062e-03 -1.6592066507368957e-04  1.0340458596299590e-04 -1.2812379728399325e-03 -3.9145681900988555e-05  1.1587546659668609e-04 -1.1417171356269411e-03 1.2181292633895823e-05  9.6777080904388520e-05 -9.6551175440466282e-04 -1.0234625791164080e-04  1.1332426880618688e-04 -1.2164412019271330e-03 2.8272282124239016e-05  1.2540697225964234e-04 -1.0729036462325205e-03 8.1044177922419438e-05  1.0725585684970728e-04 -8.9187429446060289e-04 -3.6698090680467062e-05  1.2298384660163234e-04 -1.1503876262752542e-03 9.6054387466572335e-05  1.3498122006392159e-04 -1.0016200800177664e-03 1.5372719586563517e-04  1.3237743221488472e-04 -1.0813122042261788e-03 1.6723128451038156e-04  8.5943610878791020e-05 -1.2788773282150861e-03 -2.3611792964874640e-04  9.5785282974975800e-05 -1.1972976954127458e-03 -1.6227551408095866e-04  1.0514203867030817e-04 -1.1221011116401276e-03 -9.3830765630510679e-05  1.1445573816992945e-04 -1.0497739218088573e-03 -2.6957125391634101e-05  1.2393455332126215e-04 -9.7771517405669298e-04 4.1351211697527968e-05  1.3383109519089675e-04 -9.0405173991231025e-04 1.1372052077419363e-04  1.1639588541892379e-04 -1.6746542924080707e-03 -8.9712829493842640e-06  1.3016988210098638e-04 -1.7945693087120999e-03 7.7848181489797939e-05  1.3961402581036812e-04 -1.7562594235314758e-03 1.4616473935953625e-04  1.2618128627809306e-04 -1.6245499053477966e-03 6.5179540536858946e-05  1.4834637355581176e-04 -1.7151374788248886e-03 2.0699248830916724e-04  1.3538473896833309e-04 -1.5737293029789369e-03 1.3157460758988032e-04  1.5627506575909046e-04 -1.6703807825676094e-03 2.6316063447472663e-04  1.4391142961520651e-04 -1.5205839013687800e-03 1.9376348883487409e-04  1.6315267862816407e-04 -1.6207712823803207e-03 3.1736523979262110e-04  1.5160516557493446e-04 -1.4636101680505444e-03 2.5484063137199732e-04  1.6868407882336957e-04 -1.5648836357593906e-03 3.7233753506098828e-04  1.5827757671209108e-04 -1.4013213014809559e-03 3.1784087337924659e-04  1.7258163496845449e-04 -1.5008877381790609e-03 4.3133677474686567e-04  1.6372356051500857e-04 -1.3327120349617627e-03 3.8595430983780356e-04  1.3036900824612378e-04 -1.6165100206493187e-03 -1.1932949708415886e-05  1.3899430494809955e-04 -1.5597308164588515e-03 6.6386580861426732e-05  1.4677712490165961e-04 -1.5032242508543803e-03 1.3695037000128097e-04  1.5382199041116186e-04 -1.4452579147829902e-03 2.0356021857683120e-04  1.6024879089431167e-04 -1.3841347763633122e-03 2.6949204681333975e-04  1.6623907118591937e-04 -1.3182958146162166e-03 3.3785365427637781e-04  1.7192843638242137e-04 -1.2464628414671499e-03 4.1160902988426667e-04  1.5578031112605819e-04 -1.7114176457142419e-03 8.1804871580091741e-05  1.6191770083345871e-04 -1.6637730574881812e-03 1.5836882382822749e-04  1.6686031588122256e-04 -1.6147155198942154e-03 2.2726613404459853e-04  1.7092606711639877e-04 -1.5627197255595954e-03 2.9185904333100865e-04  1.7428754099347020e-04 -1.5063448180325683e-03 3.5519514583935425e-04  1.7714327021891221e-04 -1.4442686122497828e-03 4.2016591348075286e-04  1.7962154553189511e-04 -1.3753290608763263e-03 4.8959049433209949e-04  1.1629637454105850e-04 -1.4401410991023442e-03 -1.1445764081090334e-04  1.2505371897383102e-04 -1.3701284776645177e-03 -3.4659508836227298e-05  1.3304551633014936e-04 -1.3035259358847907e-03 3.8654057345497762e-05  1.4056692109390464e-04 -1.2376654506051294e-03 1.0891099640269770e-04  1.4786425195727819e-04 -1.1704366127326974e-03 1.7944771877734036e-04  1.5528507457633685e-04 -1.1000470015558668e-03 2.5319147996144407e-04  1.6312717606981975e-04 -1.0250868066893216e-03 3.3319425082042073e-04  1.2423172072733183e-04 -1.9432600556372407e-03 1.7401151339530265e-04  1.1915843190140526e-04 -1.8597767285563989e-03 1.0208356760388766e-04  1.3072647282754408e-04 -1.8823655838307667e-03 1.3490248397032904e-04  1.4040936789831566e-04 -1.8525978651631719e-03 1.9372518226199950e-04  1.2939526159608873e-04 -1.8290139304685600e-03 1.6171048187235939e-04  1.3455354162487547e-04 -1.9216083826795430e-03 2.2276913175928864e-04  1.4931656092330350e-04 -1.8186937936442509e-03 2.4577490801109267e-04  1.3906265583869107e-04 -1.7943807506150564e-03 2.1453166365276833e-04  1.4411680622312327e-04 -1.8947945902488678e-03 2.6558391322110595e-04  1.5735240324618187e-04 -1.7800739547362207e-03 2.9328087571306368e-04  1.4787470359097846e-04 -1.7552968038792940e-03 2.6276358880564639e-04  1.5275573885490095e-04 -1.8626116228352978e-03 3.0404438151283126e-04  1.6423345914051306e-04 -1.7358396307662308e-03 3.3833663048458263e-04  1.5553663329209488e-04 -1.7107915131607456e-03 3.0846513380916374e-04  1.6019807697859010e-04 -1.8244516630030734e-03 3.3945470688401778e-04  1.6955300058427042e-04 -1.6847009701111200e-03 3.8298947037771961e-04  1.6163421212725624e-04 -1.6594709951632466e-03 3.5371628345102726e-04  1.1851705371777483e-04 -1.7745392075760637e-03 4.6527799396535949e-05  1.2847565607444262e-04 -1.7347057940374656e-03 1.1473260402697190e-04  1.3791985573516577e-04 -1.6924133894816429e-03 1.7539387274098775e-04  1.4658599165978832e-04 -1.6466933861425568e-03 2.3145867692276240e-04  1.5421296310606382e-04 -1.5962658863909517e-03 2.8559966153813833e-04  1.6045354389275399e-04 -1.5396449845357467e-03 3.4049923435674459e-04  1.6490148353912463e-04 -1.4750886909018746e-03 3.9932178849147524e-04  1.7258186540715920e-04 -1.6248190806835705e-03 4.293070992070