<?xml version="1.0"?>
<VTKFile type="UnstructuredGrid"  version="0.1"  >
<UnstructuredGrid>
<Piece  NumberOfPoints="1020" NumberOfCells="4418">
<Points>
<DataArray  type="Float64"  NumberOfComponents="3"  format="ascii">2.957001636327565 3.331464299290024 0.8767269349677969  3.000783051010208 3.203750655107275 0.8586236765208732  2.848678121822029 3.232114494871337 0.8452472430537005  2.857653399636142 3.246843115139344 0.7637935884590156  3.008495329447965 3.217730855008415 0.7779449422406489  2.966693089353639 3.357122527119087 0.7969178277083777  3.016318687133043 3.231583663261269 0.697305292967204  2.97646910383617 3.382677897146618 0.7171308110907721  2.86674365385331 3.261471793296028 0.6823814850302772  3.024186229212587 3.245349515690334 0.616716279312635  2.986264668262604 3.408172793999967 0.6373837911253138  2.875863346783012 3.276039587134662 0.6009982413899518  3.032032370221103 3.259059408714159 0.5361692109227219  2.996025743456513 3.433630544943798 0.5576667999905613  2.884955814270927 3.290574848554593 0.5196398368130033  2.893988823529623 3.305078871276485 0.4382831891948534  3.039802890805909 3.272749808800531 0.4556526946537864  3.005731862640629 3.459059125448225 0.477956497781009  2.902965431132187 3.319562493550493 0.356894677791182  3.047469798035703 3.286451828473374 0.3751288311689135  3.015389660924009 3.484455570802974 0.3982183808653313  3.179214107900854 3.03617855153557 0.8528137542545382  3.278440755230003 3.169005856729401 0.8615816796601879  3.307547427420377 3.045302268486585 0.8440821367485494  3.300543182469791 3.050541679021938 0.7649890185403561  3.274495043251769 3.183290791309249 0.7815071365073698  3.179087127441906 3.039508770332678 0.7737493498578153  3.293651420504612 3.055648528355261 0.6860146343733233  3.270709358430306 3.197427649178184 0.7014940657473254  3.179068295387259 3.042681275405387 0.694761164634993  3.286826154306355 3.060629903296842 0.6071314051693989  3.266989047819271 3.211445226513176 0.6215611611213063  3.179119934725088 3.045740701091636 0.615849849792793  3.280036412508429 3.065563869736264 0.5283139387549678  3.263255724843749 3.225376329506217 0.541695067250479  3.179210633050573 3.048753534937278 0.5369925316448753  3.273209398172618 3.07049467647006 0.4495526378181295  3.259455795527118 3.239276840710881 0.4618747065386433  3.179265274461393 3.051756441736649 0.458180046726125  3.266273750766088 3.075467507039201 0.3708576807786728  3.255515279679896 3.253211069252856 0.3820969109535029  3.1791532223454 3.054785109149623 0.3794269044351742  2.573948854758965 3.603525721673367 0.9896083884241657  2.661596166966952 3.70706529106924 1.100160066950673  2.734125521392809 3.614527079647563 1.019116253810849  2.741292019952726 3.673877669412157 0.9575022781892061  2.66816754194622 3.772132982787244 1.045362645588486  2.58001795820155 3.659237835802264 0.92500656823599  2.674757333452036 3.837220520205572 0.9906020536582455  2.586104785382333 3.714978738960895 0.8604261087361054  2.748488416056998 3.733234405993048 0.8959237419042076  2.681376409065393 3.902292354169867 0.9358243221355843  2.592207350759732 3.770709227081752 0.7958298978447852  2.75570486521274 3.792578675254782 0.8343475345539069  2.687991516917423 3.96734833820146 0.8810134527533285  2.598312631686386 3.826418908466527 0.7311958300664213  2.7629237377599 3.851897810914452 0.7727444114793609  2.694565115958364 4.032391696809924 0.8261534507941974  2.604392736151734 3.882112791236356 0.6665103921690444  2.770114375004584 3.911187142146747 0.711101453398117  2.701058425590654 4.097422707953821 0.7712287526996364  2.610388746040901 3.937799566032052 0.6017627969637567  2.777238856797811 3.970438179702756 0.6494178561871604  2.542116427993332 3.005293433471897 0.804925745310703  2.686165934355897 2.95470857258614 0.8194821543002921  2.592735726966057 2.868687383456193 0.820172682528268  2.597082943383878 2.855099358098035 0.7434900698070946  2.691612761764322 2.948955439519786 0.7406696470838889  2.548109162980375 3.0001671555838 0.7250488582192478  2.554201336598476 2.995002801738392 0.6451685897403886  2.697192253813117 2.943151885448774 0.6618666623993925  2.601539341657705 2.841474196076519 0.6668132593609976  2.560337392716307 2.989818087714738 0.5652817527595129  2.702829498106638 2.937316647511996 0.5830730705873266  2.606038012705068 2.827825086667584 0.5901465285543023  2.566475826221459 2.984609672695038 0.4853864211059324  2.70846170622523 2.931467615583265 0.5042867848359569  2.610529708704795 2.814157887503261 0.5134855717446914  2.614981241621973 2.800458161733081 0.4368224269558254  2.714046827421115 2.925599325863438 0.4254979723462211  2.572586771782732 2.979367562140797 0.4054688856554479  2.61936227896052 2.786716924298234 0.3601404431295215  2.719547442187174 2.919696136804033 0.3466855159553062  2.578637439656131 2.97407792433878 0.3255179385113581  2.901445569454301 3.451498730769702 0.9268714878165617  2.802931475036309 3.350017311218497 0.8661165391699234  2.811694316855128 3.378584919351408 0.7865610980989155  2.911517939962289 3.488360396435851 0.8505462264014521  2.820547625696001 3.407082528230382 0.7070307614651639  2.921659570641957 3.525151027793939 0.7742441228645163  2.829414494376054 3.435545108037739 0.6275231943485352  2.931802633654304 3.561899191328754 0.6979717626824322  2.838260688803335 3.463976275541941 0.5480230834590482  2.941925412380634 3.598606927219374 0.6217076626998532  2.847072617622363 3.492369869112246 0.4685051527922555  2.952018960398575 3.635277063421886 0.5454287368380704  2.855833770822368 3.520717776795963 0.3889548789974635  2.962084360234567 3.671910869504906 0.4691263060347586  3.293692565451235 2.927590962353801 0.8407610859497247  3.394720682955727 2.851849901291966 0.845489989719323  3.270176649715034 2.795052701267756 0.8661642120184279  3.266628202651244 2.780628283820695 0.7930836143832095  3.389219650933562 2.840140625727656 0.7704321027653407  3.28890557653737 2.922728585236655 0.7634755105724147  3.263178035791628 2.766137958132169 0.7201199448634495  3.383787030343434 2.828349520669732 0.6955020927347897  3.284189957437077 2.917743274285037 0.6863135649017182  3.259810764544264 2.751604375995139 0.6472648908544701  3.378443856868513 2.81651810152222 0.620690455555829  3.279570601316932 2.912693875381575 0.6092447459975742  3.256472110445849 2.737044490207458 0.5744973046699285  3.373132317252573 2.804660699198003 0.5459766548915991  3.274988213606887 2.907607260378443 0.5322508341587235  3.253091844800758 2.722485899009148 0.5018069728421301  3.367785810226914 2.792809385673467 0.4713548646789337  3.270360086352559 2.902524416843733 0.4553354209072567  3.249608569750634 2.707970883277991 0.429191071272443  3.36236361476128 2.781007660342954 0.3968116202714431  3.265626875234735 2.897494909683828 0.3785044980129631  2.93422248174319 2.8144810387701 0.8552243223230117  2.948279754414577 2.962251065999844 0.8390889022246154  3.056526270064895 2.849641053571059 0.8571012579842974  3.058986503275746 2.837731452774838 0.7821090956679305  2.954450067213738 2.956944039560175 0.761007523744898  2.939303657046851 2.79979263557812 0.78107654382325  3.06159654502813 2.825753367358871 0.7071908537896656  2.960757608837134 2.951526522388404 0.6829833238174864  2.94455580559154 2.785033124340665 0.7069876609718385  3.064309962648716 2.813710741698061 0.6323388796569789  2.967157939943943 2.946055316548467 0.6050024635543629  2.949894918304975 2.770227197795933 0.6329537609843983  3.067043546528907 2.801636058739057 0.5575478262983415  2.973570457453079 2.94055524131775 0.5270605737482754  2.955235830106217 2.755397759213162 0.5589725420375198  3.069704949598969 2.789557703827653 0.4828150615063349  2.979912144986157 2.935047000425173 0.4491524548075777  2.960488457063422 2.740564243864346 0.4850409786942974  3.072169171354697 2.777509266668471 0.4081280080624444  2.986086255977259 2.929562167490126 0.3712539220466072  2.96553794227571 2.725744018273608 0.411136471447327  3.330783383374958 2.122041728024408 1.108579997867051  3.300552942699741 2.270622312990229 1.049289299535241  3.427695613498731 2.262237779753202 1.046191208901116  3.423597084532243 2.238048654430592 0.9885679366834934  3.297706522627931 2.246483971508183 0.9912942630397066  3.328511951557188 2.099845146547191 1.052260616178745  3.4195565506985 2.213885317179087 0.9310003874300817  3.29494674844546 2.222382579889587 0.9333523592215506  3.326325244338597 2.077679457691201 0.9959727099334545  3.415533584823503 2.189750547326644 0.8734854404440318  3.292222133403299 2.198304792544338 0.8754604866557719  3.324180232899009 2.055528882610119 0.9397209858293259  3.411504643732318 2.165625793607625 0.8160281856538857  3.289492128810087 2.174232199908779 0.8176255381579589  3.322033398205594 2.03337842514701 0.8835131600950553  3.407442531086926 2.141491753355861 0.7586444289436555  3.28670706694956 2.150148971204795 0.7598670847621286  3.319833028784898 2.011213282712299 0.827364739588503  3.403315843837199 2.117321556237978 0.7013743990859553  3.283806569237787 2.126028173007174 0.7022273997115612  3.317509750094108 1.989008651531841 0.7713115300873361  2.971606608172654 3.554445968760059 0.9878310484940392  3.133624974694714 3.504196640444869 0.9874722643599971  3.041716989624162 3.415356625286794 0.9269781216320283  3.051321482280003 3.452039682231114 0.8512180670226044  3.142209644731321 3.548655617201431 0.9153294571120886  2.982135395871843 3.604886913563755 0.9188033259714944  3.061008412196625 3.488620567824655 0.7755042336797274  3.150885404951747 3.593009600126321 0.8432379467709175  2.992697125577122 3.655272902502797 0.8498196470283206  3.070713134025941 3.525136648651499 0.6998309763752362  3.15956450053562 3.637290019680254 0.7711993518778295  3.003247076912602 3.705620964657691 0.7808784647975839  3.08038778842804 3.561608495772992 0.624192045947434  3.168210606204032 3.681511545033207 0.6991951773650197  3.013783958498211 3.755923857583185 0.71193721
[...]
<PointData  Vectors="f_24"> 
<DataArray  type="Float64"  Name="f_24"  NumberOfComponents="3" format="ascii">2.4982486985462675e-02 -3.5606804317417216e-02 1.9549941572169483e-02  2.5393328062833679e-02 -4.2669579104721876e-02 9.9853736041808534e-03  2.6807881959582090e-02 -4.2087046731577579e-02 8.9745951835963414e-03  2.7980939963464485e-02 -3.7690995441965219e-02 1.3881192722448971e-02  2.6724658434551667e-02 -3.8177461530111555e-02 1.4900472137173694e-02  2.5858161776698505e-02 -3.3546393643435833e-02 2.4498814442909300e-02  2.8114037829154098e-02 -3.3805495709630692e-02 1.8482488302420504e-02  2.6950981848834626e-02 -3.1212347500441526e-02 2.7895664018953055e-02  2.9295003006391554e-02 -3.3409841673392428e-02 1.7343458959436349e-02  2.9622750167000698e-02 -2.9347526780162725e-02 2.0967212690400392e-02  2.8178788315852455e-02 -2.8562798063980651e-02 3.0164434279072713e-02  3.0714656265442619e-02 -2.9000855872674459e-02 1.9684928755472404e-02  3.1245895126828686e-02 -2.4680485197223687e-02 2.2562305312676532e-02  2.9549363945873628e-02 -2.5596220359343700e-02 3.1531433155544908e-02  3.2267178374537818e-02 -2.4363388402718286e-02 2.1161625101621763e-02  3.3977792838890512e-02 -1.9443943732623876e-02 2.1929647424161602e-02  3.3022973677612456e-02 -1.9742070176591884e-02 2.3406155889634180e-02  3.1085266682105074e-02 -2.2321003708103686e-02 3.2127133424617912e-02  3.5906845208320083e-02 -1.4219187338102915e-02 2.2068703274574795e-02  3.5043228553426432e-02 -1.4476079481784110e-02 2.3542608791531888e-02  3.2858408065453926e-02 -1.8788025145062618e-02 3.2100990213378013e-02  2.4129590813821617e-02 -5.0691591811803792e-02 -1.2556621435689810e-03  2.2399553690184690e-02 -4.1120313127962736e-02 1.4660832757892114e-02  2.2771702604279184e-02 -4.7807110685576797e-02 4.1263148151310493e-03  2.5318700441638455e-02 -4.1489811073882096e-02 8.1028029585687444e-03  2.4494718257478613e-02 -3.6927762153563727e-02 1.9396077922225675e-02  2.6272744091634558e-02 -4.3887116503971875e-02 2.7763437455293485e-03  2.7526995228645035e-02 -3.5490058739193329e-02 1.0841090684367788e-02  2.6358776472997236e-02 -3.2780632832847378e-02 2.2689571030361726e-02  2.8330583633368746e-02 -3.7473147709683186e-02 5.7028703593919759e-03  2.9621191556304344e-02 -2.9556093644091053e-02 1.2610935946597799e-02  2.8156191137644344e-02 -2.8483720718001038e-02 2.4887064133525750e-02  3.0320507485263690e-02 -3.1176405579150992e-02 7.7002284494806505e-03  3.1689224970341892e-02 -2.3503695349988731e-02 1.3605822802275579e-02  2.9959523059032035e-02 -2.3941523913464494e-02 2.6208375292534988e-02  3.2315433390991723e-02 -2.4797516519292451e-02 8.9245644458963002e-03  3.3759129618392239e-02 -1.7191073696533974e-02 1.3924825907107754e-02  3.1796680420893522e-02 -1.9092899769490867e-02 2.6785492944847444e-02  3.4366776881568604e-02 -1.8177382119119460e-02 9.4760753878185573e-03  3.5765295023344253e-02 -1.0524436984573898e-02 1.3576780489359664e-02  3.3623599803843586e-02 -1.3885496080076958e-02 2.6636866398602219e-02  3.6507613465587105e-02 -1.1166695933071451e-02 9.3324690592172608e-03  2.5366642134020422e-02 -1.9981619390128890e-02 2.8088571281051827e-02  2.3297480900959941e-02 -9.3393833714506026e-03 3.3328601207956360e-02  2.3868597709194712e-02 -1.7298464506590654e-02 3.1315313410913592e-02  2.4095511082099275e-02 -2.1049185828537743e-02 3.3073200825187513e-02  2.3478856454519761e-02 -1.4084175141368484e-02 3.3261127629334260e-02  2.5840070948801926e-02 -2.3206337046775851e-02 3.0429470856371117e-02  2.3672055869723003e-02 -1.7496593784284316e-02 3.2517445212404829e-02  2.6305182765851504e-02 -2.5210915478160952e-02 3.1708942801858743e-02  2.4414134099122940e-02 -2.3432337075836383e-02 3.3931244774081916e-02  2.3912655468229977e-02 -2.0044378191901985e-02 3.1125233100362019e-02  2.6856042285696925e-02 -2.6415651716422635e-02 3.2071797337994395e-02  2.4825673229581617e-02 -2.4994915423629020e-02 3.3853968226811963e-02  2.4224794093097846e-02 -2.1962749339859630e-02 2.9070177981667375e-02  2.7501383532250807e-02 -2.7058956616165739e-02 3.1649554770212585e-02  2.5327624715573177e-02 -2.6009356087534886e-02 3.2969188446379645e-02  2.4605537946258024e-02 -2.3406506687035925e-02 2.6363521679712541e-02  2.8230044390216775e-02 -2.7272122637212279e-02 3.0538783264876041e-02  2.5914423051866760e-02 -2.6618754520726873e-02 3.1383369067200663e-02  2.5037336133088405e-02 -2.4486869357998854e-02 2.3046370214532291e-02  2.8996898279503393e-02 -2.7095823453801054e-02 2.8785462456639776e-02  2.6586708511859843e-02 -2.6833760901071989e-02 2.9135158435075737e-02  3.2010668488489463e-02 -5.5565942168859676e-02 -2.0374263057084296e-02  3.0791836360185055e-02 -5.8070094796937165e-02 -2.2989062604182080e-02  3.2708963168248763e-02 -6.2996948161874178e-02 -3.5256297583961413e-02  3.4292726465629093e-02 -5.3571665133263412e-02 -3.3993339457196681e-02  3.2403231527329927e-02 -4.9317860969690930e-02 -2.0284572891086785e-02  3.3458914268413013e-02 -4.7216237420388704e-02 -1.7542539208075313e-02  3.4882924980416244e-02 -3.9464503262057901e-02 -1.5622336317226027e-02  3.3989871835201968e-02 -4.1168114393805362e-02 -1.8444603847882421e-02  3.5835730993328437e-02 -4.4795673885650554e-02 -3.3343485059197438e-02  3.6336963910342142e-02 -3.1917827613441488e-02 -1.4453779641380844e-02  3.5613235379537367e-02 -3.3279574647837908e-02 -1.7291193124717129e-02  3.7398509970401922e-02 -3.6310246760256598e-02 -3.3163069017281790e-02  3.7860075703477158e-02 -2.4310524459249631e-02 -1.3893224690865805e-02  3.7307526597067799e-02 -2.5376290715957039e-02 -1.6705130683816932e-02  3.9011376356571176e-02 -2.7774893303841544e-02 -3.3401668271888445e-02  4.0705395579808991e-02 -1.8953536455236588e-02 -3.4048453935342053e-02  3.9105406365597659e-02 -1.7247574986233437e-02 -1.6622445468567944e-02  3.9484560332881641e-02 -1.6461622678074217e-02 -1.3859648803543699e-02  4.2502584152619781e-02 -9.6739955255821224e-03 -3.5097702599243275e-02  4.1038052959586381e-02 -8.7438551560275225e-03 -1.7031308609298686e-02  4.1231892233285189e-02 -8.2381387418908967e-03 -1.4321830596843889e-02  2.4301297664980667e-02 -2.8712621387250996e-02 2.5756787799360168e-02  2.6365327388938115e-02 -3.5653039786331386e-02 1.7475248359954523e-02  2.7146860627696001e-02 -3.3690377416491120e-02 2.2554381137873468e-02  2.4795532331735298e-02 -2.9245377313342362e-02 3.0148788741190209e-02  2.8153027715145051e-02 -3.1343749903270317e-02 2.5989860330970622e-02  2.5550415074692696e-02 -2.9129331355417561e-02 3.3023426700239687e-02  2.9303528279293778e-02 -2.8715711040866426e-02 2.8254598574039655e-02  2.6455600383891571e-02 -2.8404433241967557e-02 3.4750993176360920e-02  3.0591672334845263e-02 -2.5794177026576687e-02 2.9605132593170009e-02  2.7504800802439788e-02 -2.7212603346463381e-02 3.5592767975102260e-02  3.2038294325563585e-02 -2.2590091358421896e-02 3.0213648853173004e-02  2.8721090997296084e-02 -2.5652354403003542e-02 3.5701056099101923e-02  3.3655955734490005e-02 -1.9118793612815783e-02 3.0230181913774499e-02  3.0163836445062032e-02 -2.3778435846861620e-02 3.5077073482949549e-02  2.3596628887004902e-02 -5.4780022084630293e-02 -8.6976267625466699e-03  2.2843491633091573e-02 -5.8552318570347851e-02 -1.4113499776298213e-02  2.4096415908189315e-02 -6.4780018414814913e-02 -2.5774894239256826e-02  2.6741388172830293e-02 -5.5497144187191337e-02 -2.4902017699078318e-02  2.5667664814750114e-02 -4.9792395789769427e-02 -1.2569375447021303e-02  2.6251280816679746e-02 -4.6757199973393219e-02 -5.9808506511761696e-03  2.9255578527567810e-02 -4.7040179201084262e-02 -2.4483974047711157e-02  2.8248761557440216e-02 -4.1838956906794955e-02 -1.1764391748528117e-02  2.8669116521167805e-02 -3.9297479732925938e-02 -4.2903295942331738e-03  3.1676304612399349e-02 -3.8927479566928991e-02 -2.4503735213333707e-02  3.0747600981356517e-02 -3.4157866335122723e-02 -1.1563800104859618e-02  3.0967680506077688e-02 -3.2031400209684611e-02 -3.3219639375446659e-03  3.4064283351837317e-02 -3.0787107476542033e-02 -2.4948375647260670e-02  3.3199472968027124e-02 -2.6416695283163615e-02 -1.1896124270736099e-02  3.3233822587038268e-02 -2.4694874342883005e-02 -2.9715700082400881e-03  3.6466460083288528e-02 -2.2344798268034007e-02 -2.5818907036833306e-02  3.5644047589317718e-02 -1.8378675913745458e-02 -1.2732916975100646e-02  3.5510355161781845e-02 -1.7084493145978964e-02 -3.1942527597378836e-03  3.8922528660860024e-02 -1.3390615621962082e-02 -2.7161822265956818e-02  3.8104181736205667e-02 -9.8838337565051015e-03 -1.4069698321639720e-02  3.7805945127866399e-02 -9.0469674456410583e-03 -3.9697197384403757e-03  2.8548968643652927e-02 -6.5884141628122034e-02 -3.3895095747402196e-02  2.7589584854588251e-02 -5.6827844729278487e-02 -1.5656292744989937e-02  2.6658507438150198e-02 -6.3203441764445617e-02 -2.5968429386843097e-02  2.8858626065412715e-02 -5.4070344987473526e-02 -2.4321131943433900e-02  2.9404465693020410e-02 -4.8492156312034525e-02 -1.2674865053347766e-02  3.0545519730180187e-02 -5.6419630594842708e-02 -3.2791107772376087e-02  3.0994077213484936e-02 -4.5650573691173355e-02 -2.3327518744085809e-02  3.1239154502386100e-02 -4.0777464904702396e-02 -1.0620464101522295e-02  3.2537049411692311e-02 -4.7672713898367518e-02 -3.2206337743811361e-02  3.3106695706538423e-02 -3.7509874635654548e-02 -2.2844914055251481e-02  3.3119277746646199e-02 -3.3276004695158533e-02 -9.3109513749622310e-03  3.4528065338960606e-02 -3.9228399823736798e-02 -3.2049226863088316e-02  3.5243012407625424e-02 -2.9328940879988222e-02 -2.2829276580451772e-02  3.5068690546903182e-02 -2.5718246015589322e-02 -8.6263022703182840e-03  3.6560149722322945e-02 -3.0732352807079928e-02 -3.2286079323546865e-02  3.7451740475773272e-02 -2.0852306595340618e-02 -2.3270828277505175e-02  3.7136601856216339e-02 -1.7898280577718077e-02 -8.5000967215251473e-03  3.8678760497625905e-02 -2.1918265563516851e-02 -3.2921369127294382e-02  3.9796796188400221e-02 -1.1869801903910309e-02 -2.4191694922480203e-02  3.9411135404366117e-02 -9.6532367897929402e-03 -8.9052085640069327e-03  4.0931393888227301e-02 -1.2589351381427341e-02 -3.3979302529543190e-02  2.3601999249248062e-02 -1.0016479640913752e-01 -1.0643285891656963e-01  2.3834344961903522e-02 -9.6556334073941416e-02 -9.3169349089238684e-02  2.2234791298311643e-02 -9.5008234293732036e-02 -8.8743341032043413e-02  2.4907229657413966e-02 -8.9081492382746263e-02 -9.1551858329411220e-02  2.6392884135139613e-02 -9.0498869077749802e-02 -9.5981857007749596e-02  2.6121377330549200e-02 -9.6144109798961153e-02 -1.0890801949585016e-01  2.7495108218883062e-02 -8.3453614570307783e-02 -9.3663663917602280e-02  2.8840240606455368e-02 -8.4758119273621993e-02 -9.8060339086014206e-02  2.8536320747153881e-02 -9.2191928657054958e-02 -1.1056211498708966e-01  3.0029798722113570e-02 -7.7860719447758450e-02 -9.5200738422052178e-02  3.1227090686650621e-02 -7.9056972005161583e-02 -9.9549626610541522e-02  3.0888359364706668e-02 -8.8128148660588143e-02 -1.1152333192750812e-01  3.2551012880376727e-02 -7.2027883026908518e-02 -9.6279445273305814e-02  3.3593698418179128e-02 -7.3113412856007504e-02 -1.0055844634615903e-01  3.3217311598441726e-02 -8.3784959530537537e-02 -1.1187059825889409e-01  3.5108276872810658e-02 -6.5657957985652715e-02 -9.6996719052427030e-02  3.5983737661567775e-02 -6.6614646496934299e-02 -1.0117144150519568e-01  3.5560179792540648e-02 -7.8976127880368965e-02 -1.1163900601356687e-01  3.7769816585923585e-02 -5.8412211775763410e-02 -9.7426464002298235e-02  3.8444230432973896e-02 -5.9196438830797941e-02 -1.0148057876822326e-01  3.7955629688212221e-02 -7.3480695969273105e-02 -1.1080542863344767e-01  2.2591670873241477e-02 -2.0964456466036244e-02 3.2539632113276880e-02  2.1446015351876357e-02 -2.1599522542210228e-02 3.3154207049299729e-02  2.3303952702139891e-02 -2.9310281670750078e-02 2.6617897441743116e-02  2.3891304625440958e-02 -2.9431476965921462e-02 3.1162888967481268e-02  2.1804242538128051e-02 -2.3901490941140840e-02 3.6619618792806001e-02  2.2789566351770867e-02 -2.3663029634298595e-02 3.5470134595547133e-02  2.4657034382372250e-02 -2.9018197181045594e-02 3.4315488570005812e-02  2.2330466219144328e-02 -2.5387837062217488e-02 3.8669359738631233e-02  2.3202765717191282e-02 -2.5300912793360022e-02 3.6980775906460726e-02  2.5591502135453106e-02 -2.8122597157173898e-02 3.6292353494932934e-02  2.3007709859707931e-02 -2.6144241019586331e-02 3.9681761446062731e-02  2.3757534038772937e-02 -2.6227049643178620e-02 3.7493759852858563e-02  2.6663608803374633e-02 -2.6827677782095331e-02 3.7322236189565039e-02  2.3813861299426153e-02 -2.6350189511732677e-02 3.9840218007941117e-02  2.4447136303796916e-02 -2.6642351835157861e-02 3.7168058628294733e-02  2.7895601111493640e-02 -2.5200930989498077e-02 3.7561179861564792e-02  2.4757095189374658e-02 -2.6150310611549724e-02 3.9247974653896581e-02  2.5290969839892787e-02 -2.6681363035154934e-02 3.6118480563229909e-02  2.9342545492548409e-02 -2.3266830493045770e-02 3.7059686590507901e-02  2.5872029578057586e-02 -2.5671294292074390e-02 3.7889609855017208e-02  2.6339816019893839e-02 -2.6557160244556247e-02 3.4539485441576791e-02  2.9144438648942138e-02 -5.4220393141373370e-02 -1.3841926860209745e-02  2.8544316245421631e-02 -4.6753492538359150e-02 -4.0657777418127218e-04  2.7357149534724262e-02 -4.8122421806487514e-02 -1.0469917894900451e-03  2.8817449362940013e-02 -4.1772007508534471e-02 3.3717467628325217e-03  2.9840944800913240e-02 -4.0746925781271037e-02 4.0805079884386770e-03  3.0762400446851371e-02 -4.6312975723988362e-02 -1.0449405498786347e-02  3.0375053425106734e-02 -3.5690184380577784e-02 6.3965172426804200e-03  3.1249235012184202e-02 -3.5039010737909271e-02 7.2540816517153058e-03  3.2397123479177538e-02 -3.8869519734220939e-02 -8.0931185084399428e-03  3.2018553006067041e-02 -2.9671738109260545e-02 8.4724024943108323e-03  3.2745863352653677e-02 -2.9356332612616533e-02 9.3992543269187274e-03  3.4080585811595954e-02 -3.1621310265312542e-02 -6.5492684031876061e-03  3.3776029938632240e-02 -2.3535134112088206e-02 9.7762491915054477e-03  3.4355701784451555e-02 -2.3534748867546019e-02 1.0737156608359916e-02  3.5855198803627669e-02 -2.4312595344294651e-02 -5.6717219653176030e-03  3.5688961073241487e-02 -1.7144735153191017e-02 1.0417890571156916e-02  3.6110161892954878e-02 -1.7460915426813991e-02 1.1414098816163155e-02  3.7757046806701104e-02 -1.6764887702803301e-02 -5.3638361774147039e-03  3.7810278705379931e-02 -1.0406347473478961e-02 1.0485176631976177e-02  3.8041761496703186e-02 -1.1062045090852171e-02 1.1523343958029952e-02  3.9824262020381578e-02 -8.8449126484638069e-03 -5.5794988719992961e-03  2.9162122927233941e-02 -8.7614541472906107e-02 -7.5363682873526655e-02  2.7121054448038247e-02 -8.1200714621068801e-02 -6.0532210332166748e-02  2.7574164488860162e-02 -9.0766400838437608e-02 -8.1149703417061847e-02  2.9865811021962719e-02 -8.2641809991544510e-02 -8.3817495434799244e-02  2.9497695943266188e-02 -7.1894498131557058e-02 -6.2143040853146002e-02  3.1298372509099011e-02 -7.8759843066025070e-02 -7.7707485094860640e-02  3.2058019693304872e-02 -7.5126049850214038e-02 -8.5928832046563264e-02  3.1769783095469462e-02 -6.3385755404875829e-02 -6.3579539314541189e-02  3.3348188435152637e-02 -7.0621208994027573e-02 -7.9593779859319813e-02  3.4185734231500071e-02 -6.7792153488485218e-02 -8.7621718051506661e-02  3.3977688754831301e-02 -5.5164741778144767e-02 -6.4913000885976749e-02  3.5347823550680217e-02 -6.2724950054406287e-02 -8.1184283732665508e-02  3.6287633802919085e-02 -6.0255098256873668e-02 -8.9038627270039444e-02  3.6170894416477903e-02 -4.6826018202598671e-02 -6.6243327554312031e-02  3.7329330041176605e-02 -5.4658616417336436e-02 -8.2609472463247471e-02  3.8392592486691503e-02 -5.2136001334330564e-02 -9.0322140522056796e-02  3.8386890153032219e-02 -3.8025281685947841e-02 -6.7687468691127808e-02  3.9318822173566255e-02 -4.6058048593818013e-02 -8.4016844791980752e-02  4.0518449462197820e-02 -4.3064979765146387e-02 -9.1659435752293628e-02  4.0664706238712385e-02 -2.8461707677997727e-02 -6.9377578367266976e-02  4.1328400269219454e-02 -3.6622162999808978e-02 -8.5560310643456566e-02  2.4127555550391325e-02 -4.3002085894001625e-02 1.0834178296697300e-02  2.5725376182428952e-02 -3.8255893344421317e-02 1.5728228790522034e-02  2.7367171216420058e-02 -3.3715388397428034e-02 1.9202975392029056e-02  2.9037214719148375e-02 -2.9102334855090568e-02 2.1610806739188641e-02  3.0765791831120118e-02 -2.4288131542175094e-02 2.3143235062122333e-02  3.2596565155135815e-02 -1.9189661576703380e-02 2.3912850166863266e-02  3.4597666521673696e-02 -1.3753951858235887e-02 2.3966038889979446e-02  2.7311783995776873e-02 -7.2218448548884595e-02 -4.3133321282951949e-02  2.9588935122634333e-02 -6.2515054599693101e-02 -4.3159072274865776e-02  3.1768461450749408e-02 -5.3644059415088804e-02 -4.3379857966272709e-02  3.3919077723881016e-02 -4.5108458469136192e-02 -4.3823767423653327e-02  3.6077518000769242e-02 -3.6522299722274457e-02 -4.4517039373444471e-02  3.8286815568041331e-02 -2.7583339437728630e-02 -4.5514025917790690e-02  4.0597790511206440e-02 -1.8044747415869880e-02 -4.6884128946394814e-02  2.5782928795349602e-02 -4.9443202166618294e-02 -1.1013823544806713e-03  2.7548000769581554e-02 -4.2866775999054509e-02 3.0856095236466404e-03  2.9306997891287725e-02 -3.6589007344221228e-02 6.0450584361372139e-03  3.1114505594214623e-02 -3.0411754867742776e-02 8.0908493284857236e-03  3.2989119932720183e-02 -2.4117264712833719e-02 9.3694302587260647e-03  3.4988166150394968e-02 -1.7557800122636389e-02 9.9650916670356374e-03  3.7233728884177662e-02 -1.0626809826439309e-02 9.9727125404640172e-03  2.2127612921171564e-02 -3.4042347940346454e-02 2.3559694446741542e-02  2.3493713584754241e-02 -3.2367251609813290e-02 2.8494716280835677e-02  2.4862560811362497e-02 -3.0387352141727480e-02 3.1937552394355612e-02  2.6252782480005812e-02 -2.8025022352415066e-02 3.4222229043716197e-02  2.7696801612932087e-02 -2.5296654459010602e-02 3.5577562339904827e-02  2.9214178342530605e-02 -2.2219348248765088e-02 3.6137925878359206e-02  3.0849336707487067e-02 -1.8810162599630940e-02 3.5935294148876251e-02  2.5533901099871775e-02 -2.9737121280481046e-02 2.3329267163665231e-02  2.6173096423719910e-02 -3.0027335135214848e-02 2.7768567727237802e-02  2.6980353335423625e-02 -2.9688599018870415e-02 3.0608362192857928e-02  2.7913329527612503e-02 -2.8733217135064146e-02 3.2317499043568759e-02  2.8971464352751844e-02 -2.7301154768304185e-02 3.3167853329502416e-02  3.0160404033298956e-02 -2.5503833725001677e-02 3.3324899077220152e-02  3.1523613596154139e-02 -2.3398852636168678e-02 3.2817180027421872e-02  3.0337194793172772e-02 -5.1214856294870478e-02 -1.0711894701251716e-02  2.9578790015226720e-02 -4.4290111532676923e-02 1.5250266143774917e-03  3.0785130034658336e-02 -3.9045821611802943e-02 6.1559422580429986e-03  3.1750618956971857e-02 -4.3832526730865302e-02 -7.0156953077033209e-03  3.2051021652351235e-02 -3.3970578466706938e-02 9.3367849519711416e-03  3.3228529759501940e-02 -3.6908494934802707e-02 -4.5154334884468100e-03  3.3395432523612850e-02 -2.8834328356217277e-02 1.1471232746419367e-02  3.4746283817244226e-02 -3.0094386749269991e-02 -2.8772991345793978e-03  3.4842227480769691e-02 -2.3503383130249658e-02 1.2792494610618333e-02  3.6361697872139734e-02 -2.3189647673519137e-02 -1.9395504550363144e-03  3.6408236113509414e-02 -1.7893931875589051e-02 1.3463520737797318e-02  3.8094062790251071e-02 -1.6031105990000755e-02 -1.5855393194218696e-03  3.8116839088767847e-02 -1.1962429525760621e-02 1.3561952868660182e-02  3.9981094183932031e-02 -8.5249195177343560e-03 -1.7340714593801116e-03  2.5863437826950445e-02 -5.6233771014581796e-02 -1.2415677339808183e-02  2.7911806850478831e-02 -4.8120293054402553e-02 -9.2982170979292456e-03  2.9925824765076464e-02 -4.0579974627609081e-02 -7.0579484999414325e-03  3.1931004611758358e-02 -3.3262457119444269e-02 -5.5689719350485653e-03  3.3970365127188935e-02 -2.5900131933371064e-02 -4.7230057318380829e-03  3.6093358947036795e