<?xml version="1.0"?>
<VTKFile type="UnstructuredGrid"  version="0.1"  >
<UnstructuredGrid>
<Piece  NumberOfPoints="968" NumberOfCells="4184">
<Points>
<DataArray  type="Float64"  NumberOfComponents="3"  format="ascii">10.63466443309029 2.40110381633999 3.522723604796444  10.54725485047735 2.328993176542256 3.450128961523271  10.65740971157491 2.331263174391724 3.447750906643321  10.65785089364024 2.287970157534074 3.487698234413719  10.54902029292025 2.28633373622652 3.489751002849701  10.63481157850055 2.358947290965796 3.565806856580581  10.65771707645725 2.244525559934601 3.527690075171925  10.55032837056613 2.243588427443266 3.529381311506091  10.6343954821987 2.316676178983172 3.608932732674373  10.65738080905151 2.200892769570538 3.567713869408353  10.55144453506648 2.200720867997409 3.56901262536094  10.6337735883993 2.274234879891481 3.652088994909125  10.6571158270118 2.15708596171349 3.607770717177103  10.55261053759159 2.157727734358333 3.608629661761074  10.63321382074632 2.231625019926884 3.695274829941322  10.65714739735403 2.113133706437825 3.647882742113115  10.55402582199866 2.114645491168501 3.64824275701149  10.63294322088776 2.188865959600459 3.738510037514444  10.65769410288581 2.069062217600059 3.688092116352069  10.55592177287646 2.071504096343644 3.687875979450851  10.63319915499756 2.145966031957449 3.781832817129321  10.48248309297318 2.184887968269668 3.285991548284267  10.39163410013394 2.220848143792308 3.342615390556269  10.40551595589035 2.133802160685357 3.223893315908657  10.40988983807781 2.089676379701861 3.255234144087097  10.3960070941263 2.177849958472393 3.377838090192046  10.48646451330311 2.140761681758718 3.319263675196207  10.41399860871648 2.045514045818498 3.286556704983237  10.40009929414558 2.13482358730456 3.413046109051646  10.49012913986647 2.096581760535316 3.352520894710195  10.41798578509117 2.001297163285727 3.317860528190084  10.4040643347849 2.091746485985573 3.44823108087012  10.49365314869946 2.052323085446162 3.385762674549059  10.42198689348132 1.957034551071707 3.349152008842085  10.40804184608123 2.048621924003262 3.483390913091249  10.49720573536601 2.007993250300787 3.418997537217989  10.42614487154544 1.912748088089549 3.380430560129369  10.41217980640455 2.005473113258669 3.518515757249288  10.50096065793855 1.963618413326412 3.452223073897106  10.43063262212487 1.868461862819047 3.411670750149567  10.41666573530122 1.962342935542526 3.553579490346768  10.50510855817727 1.919224021457545 3.48542820705659  10.96015102626148 2.24476764532159 3.332605193699599  10.97133608475358 2.322232570414888 3.433243688480085  10.84736047586136 2.307854493063652 3.419897571549045  10.8478539060525 2.261469225959241 3.457705095317975  10.97190275004993 2.274791339147167 3.471971296781261  10.961627470762 2.196237782197406 3.36684059158195  10.84770464895464 2.214763217281008 3.495599772600215  10.971744257335 2.226916406948251 3.510789863764705  10.96248731883501 2.147317546381259 3.40102806037566  10.8473630509282 2.167754688386741 3.533593215156777  10.9713955416401 2.178658997693599 3.549780335531479  10.96316503121099 2.098057327643328 3.435368844408428  10.84713309123 2.120477544992053 3.571726116257813  10.97116780009625 2.130061638338414 3.588994675138483  10.96399275209431 2.048499342029388 3.469913123096842  10.84725050838665 2.07297060663925 3.610045757742301  10.97129518916429 2.081147600919325 3.628471237363068  10.96518550871988 1.998674646843764 3.504712023718087  10.84788935941648 2.025211585293154 3.648538077144551  10.97195212359921 2.031895946477884 3.668234072404974  10.9668445590167 1.948553711790464 3.539747262858032  10.4857741404746 2.352520911544397 3.56380890360632  10.48794745811372 2.31151189872338 3.606511335892026  10.48994243107649 2.270408226064786 3.649200257331383  10.49197264968439 2.229196423413705 3.691857099826545  10.49421564570415 2.187913732434148 3.734486920285571  10.49689500404515 2.146617499675637 3.777100297460225  10.82814780794954 2.237862688789833 3.328222401293788  10.82964544145707 2.191038008919653 3.362501003677856  10.83055738557071 2.143863802310904 3.396802763311708  10.8312788820499 2.096422361662588 3.431178772507587  10.83210454460437 2.048744399059906 3.465673757914985  10.83327209840294 2.000854053649681 3.500338002441995  10.83495631714372 1.952722866405791 3.535210000712967  10.3023970177275 2.085242304213464 3.364021057520377  10.30839908603034 2.042035019867256 3.397018204135919  10.31440512060896 1.998808720501484 3.429981089831571  10.32051487523468 1.955580101496978 3.462897614183205  10.3268318611447 1.91238612561696 3.495732793643246  11.19422349447981 2.168894199571907 3.194356284908914  11.09966066134657 2.213342197270237 3.272760096716611  11.08473599879349 2.138117407723074 3.154061072050727  11.08798003568461 2.08791602260946 3.183438347547059  11.10191978149299 2.162875090196303 3.304983899835008  11.19717773225186 2.116835080315608 3.224635374950715  11.09082948041087 2.037242646625213 3.212671262117642  11.10362654440938 2.111862745086519 3.337117593648611  11.19975006859664 2.064250418596472 3.254791642514801  11.0935860960892 1.986251972633685 3.242048804373256  11.10518047838037 2.060474743317829 3.369475478893681  11.20221929150871 2.011329367689412 3.285134561225521  11.09640733059232 1.935043235103663 3.271717995714704  11.10688352497255 2.00876440935934 3.402114334302998  11.2047545332979 1.958111842923693 3.315796874101366  11.09951903063494 1.883565843488789 3.301682226905476  11.10890368599381 1.956722068972797 3.435037431024717  11.20752199568148 1.90451297283462 3.346776379547649  11.10297476759743 1.83179042415422 3.331913243768024  11.11130685343843 1.904336436449569 3.468292712642224  11.21061873400956 1.850452527631083 3.378177636504615  11.57541229398096 2.397759506263418 3.498567821929565  11.46618780322006 2.474018099904171 3.58749821580792  11.4543002120373 2.386489661278586 3.489213010545857  11.45537792256957 2.33339605611844 3.533455413816295  11.46701199374217 2.423848565385487 3.638587173036723  11.57639027355719 2.343541975473953 3.545195038783712  11.45591573490757 2.279375620128902 3.577944337034222  11.46683237726445 2.372624873303039 3.689972845612852  11.57717618196231 2.288375054243539 3.592298926544846  11.45637256173956 2.224907238389743 3.623096148974686  11.46634062579481 2.320944077112729 3.742181040117805  11.57794143363812 2.232628906563499 3.640053847533459  11.45698186303519 2.169951442035612 3.668779375413893  11.46601323880985 2.268561441897495 3.794971377517592  11.57868725549601 2.176275177570449 3.688347325104718  11.4575904264673 2.114297133653503 3.71488572953056  11.46565556556824 2.215565403699849 3.848392637204505  11.57938367478177 2.119263686819132 3.737058052948771  11.45827299299679 2.057999582220625 3.761651390425691  11.33155593571571 2.070839644263712 2.993402167940042  11.22224303185358 2.114152020185915 3.090751061261083  11.21940448951583 2.052695333472356 2.975893347266531  11.22425106551483 2.000510676453912 3.002132166788395  11.22631970241341 2.06194248442402 3.118788202259475  11.33559711021548 2.016638891654183 3.020252026768329  11.22894040954965 1.947935526374516 3.028241294834051  11.23012654914903 2.009229709457522 3.146675267674842  11.33949106227472 1.962103075046309 3.047032018110533  11.2336008888641 1.895047807932354 3.054472578211975  11.23386558914796 1.95616725170696 3.17471903037007  11.34333627081185 1.907238457833293 3.073955501093351  11.23833016217422 1.841908586266658 3.080941388001405  11.23761611257183 1.902835413552647 3.203048788037071  11.34718772828657 1.852051987051006 3.101086868575006  11.24317406632188 1.788536253670801 3.107720811671737  11.24147756750963 1.849216565823527 3.231702897066626  11.35107116972265 1.796541376212857 3.128486181901997  11.24813976393025 1.734925561014929 3.134820909093086  11.24564397281641 1.795236024289796 3.260682937523517  11.35505702478798 1.740675141378991 3.156229495915853  11.44277874797928 2.03399462074796 2.897164462505686  11.32359480668379 2.009678384874403 2.865647881707392  11.3284596140647 1.955374762013474 2.890409713283425  11.44644355165136 1.977598347034693 2.923093502154531  11.45004233035801 1.920910153579024 2.949146741868278  11.33327380447158 1.900719432191449 2.915157974158923  11.45361314995559 1.863897156928836 2.975378259215564  11.33807476279095 1.845776233991189 2.940036215609206  11.45718558761673 1.80653244503112 3.001760061716642  11.34293676064276 1.790545712115755 2.96510004388292  11.46075219459067 1.748755268363927 3.028246273969871  11.34787023221006 1.734990962539615 2.99034919498636  11.46430242131868 1.690496128658092 3.054810816088764  11.35288694964118 1.679107325562754 3.015814612580752  11.34275019667294 2.451007298585803 3.566407370808347  11.3433502967663 2.401948034667151 3.614760033191668  11.34301694766881 2.352108518792078 3.663409434152228  11.34238704621252 2.301717567921824 3.712655071180107  11.34189165703889 2.250728653621713 3.762435454929811  11.34160734904361 2.19918288560303 3.812731434335227  11.06845122711773 2.277625220470918 3.372635845628563  11.06990998453418 2.22800943538528 3.408441135824528  11.0707088747792 2.177753292701783 3.444318883549796  11.07133262016316 2.1271262904842 3.480405424844579  11.07213431963223 2.076133105466725 3.516765889561094  11.07328253822653 2.024770231863377 3.553454929372513  11.07492290041495 1.972986381101677 3.590551925999614  10.99254410415695 2.180641920770929 3.233500907835608  10.99528389151786 2.131557162334467 3.264433007360261  10.99753108560795 2.081934052760837 3.295340325841799  10.99963538170725 2.032016506997067 3.326367522029507  11.00184682834251 1.98185095064813 3.357630477589407  11.00439932435249 1.931415845913643 3.389160267688368  11.0073802722292 1.880613495936869 3.420998802318277  11.10366789174665 2.084564259881246 3.058664776145408  11.1080777300438 2.034056197588573 3.085939848070756  11.11222518537463 1.983035667785511 3.113105011111851  
[...]
<PointData  Vectors="f_24"> 
<DataArray  type="Float64"  Name="f_24"  NumberOfComponents="3" format="ascii">-2.6642409490165435e-02 -5.4257373921472986e-02 -5.6388176412243390e-02  -2.5175685630195874e-02 -6.5828323704873556e-02 -4.9296303892762884e-02  -2.6324348207362448e-02 -6.4586068351936698e-02 -5.0580389392457153e-02  -2.5394222168519651e-02 -5.9242793379799388e-02 -4.6895857612503832e-02  -2.4226717308878310e-02 -6.0467389448074949e-02 -4.5650654824378523e-02  -2.5770596749351896e-02 -4.8501454926141913e-02 -5.3224904570281090e-02  -2.4473741947060212e-02 -5.4207438686258415e-02 -4.3344592119935604e-02  -2.3285785034195830e-02 -5.5437974670738348e-02 -4.2157513795772567e-02  -2.4895297606128450e-02 -4.3193110336976627e-02 -5.0084970769065852e-02  -2.3562576252383137e-02 -4.9345042316375688e-02 -3.9783372629764543e-02  -2.2353805017946381e-02 -5.0579350321869818e-02 -3.8660560887658957e-02  -2.4022862713755432e-02 -3.8131169574403878e-02 -4.6837131864292968e-02  -2.2661711141204181e-02 -4.4517539577922503e-02 -3.6091704565970696e-02  -2.1427527558415049e-02 -4.5753573316632323e-02 -3.5037347993192490e-02  -2.3163534292567952e-02 -3.3157255868749513e-02 -4.3372535746772072e-02  -2.1773155245918021e-02 -3.9602121370282142e-02 -3.2161602984854668e-02  -2.0505185293267187e-02 -4.0834990940038451e-02 -3.1178691337093275e-02  -2.2329788968312440e-02 -2.8135399543947753e-02 -3.9591091894665628e-02  -2.0896774486299521e-02 -3.4486094777159464e-02 -2.7908093840735976e-02  -1.9581408815622658e-02 -3.5695786981595874e-02 -2.6991428731438553e-02  -2.1537964459594404e-02 -2.2959790229223481e-02 -3.5377859758002624e-02  -2.3278068718033108e-02 -8.7645498791384432e-02 -3.5416426610824309e-02  -2.2563243417663210e-02 -8.2673169680843137e-02 -3.7774830297091458e-02  -2.2055850824772870e-02 -9.5614982444110028e-02 -3.0037347858104760e-02  -2.0861281181759006e-02 -9.2253959457488419e-02 -2.6268077542332059e-02  -2.1439839026216358e-02 -7.8167584173961260e-02 -3.3864611725603268e-02  -2.2165412134996829e-02 -8.3658281746335814e-02 -3.1476959349641197e-02  -1.9735451549540400e-02 -8.8877315297227200e-02 -2.2811079869185041e-02  -2.0363319702449069e-02 -7.3826799172722696e-02 -3.0211564361332349e-02  -2.1102820488639769e-02 -7.9767657771707495e-02 -2.7833020292012591e-02  -1.8653499469363809e-02 -8.5418280201861277e-02 -1.9536914948396249e-02  -1.9313553996782487e-02 -6.9516621708365867e-02 -2.6672845174138118e-02  -2.0071360014759423e-02 -7.5863411558350899e-02 -2.4333018849318742e-02  -1.7593063318969912e-02 -8.1806089151250511e-02 -1.6343011644764156e-02  -1.8274670960877766e-02 -6.5129611412608049e-02 -2.3128845349227666e-02  -1.9052325457573391e-02 -7.1847129248385710e-02 -2.0862312234925743e-02  -1.6534098907690808e-02 -7.7963144677921759e-02 -1.3143374698978990e-02  -1.7232788818982846e-02 -6.0565969703036800e-02 -1.9473616105089787e-02  -1.8027645185598566e-02 -6.7623795871772752e-02 -1.7319593801412875e-02  -1.5452846416017567e-02 -7.3795674040475032e-02 -9.8581025884676553e-03  -1.6172799184497898e-02 -5.5753226357221720e-02 -1.5614321307058894e-02  -1.6984930172092499e-02 -6.3107435025710631e-02 -1.3603127004749709e-02  -2.8476549447604277e-02 -7.6075981735194517e-02 -4.6420334958196939e-02  -2.9236206298172297e-02 -6.3401539506858756e-02 -5.3339627516241800e-02  -2.7966252287145395e-02 -6.6249812066194180e-02 -5.0642211073971835e-02  -2.7068576649540738e-02 -6.1210160099852480e-02 -4.6559341249669373e-02  -2.8380515867482536e-02 -5.8218961478616653e-02 -4.9213192241998931e-02  -2.7617869271715098e-02 -7.1696401386647332e-02 -4.2004192516758583e-02  -2.6179574014182614e-02 -5.6464578206127478e-02 -4.2641471788487428e-02  -2.7516982088703033e-02 -5.3347882998105188e-02 -4.5204917079115538e-02  -2.6789118956631924e-02 -6.7503828703572397e-02 -3.7828142858724857e-02  -2.5297556818147542e-02 -5.1857607236476422e-02 -3.8731288918466292e-02  -2.6653799756832373e-02 -4.8624560350460928e-02 -4.1187157196557966e-02  -2.5974425150306620e-02 -6.3349633790311208e-02 -3.3730362796137552e-02  -2.4424830008086970e-02 -4.7245960029549144e-02 -3.4710072299766408e-02  -2.5797362592881311e-02 -4.3905857246889869e-02 -3.7040228179493942e-02  -2.5165280567561187e-02 -5.9116721895213664e-02 -2.9585809446882567e-02  -2.3561797921843642e-02 -4.2504683401185149e-02 -3.0463968474365305e-02  -2.4951872400075181e-02 -3.9071745722629066e-02 -3.2651140769891791e-02  -2.4353511662038089e-02 -5.4693913279178150e-02 -2.5272290639812737e-02  -2.2705389733358835e-02 -3.7533118113421700e-02 -2.5869760435438652e-02  -2.4119356722536071e-02 -3.4026323277944567e-02 -2.7912522858096180e-02  -2.3523894626526064e-02 -4.9990195062473000e-02 -2.0653987184973056e-02  -2.4155779162822359e-02 -5.0855874301899924e-02 -5.1352821109076539e-02  -2.3286117529204630e-02 -4.5484900918081994e-02 -4.8292057005893153e-02  -2.2409717073333890e-02 -4.0351096182116658e-02 -4.5143012313639895e-02  -2.1529677094889399e-02 -3.5306933085654399e-02 -4.1790581141266485e-02  -2.0653205180979833e-02 -3.0215669187916686e-02 -3.8125963847848394e-02  -1.9798040759668085e-02 -2.4957458321386988e-02 -3.4040605259847909e-02  -2.7235008276193164e-02 -7.7878322541965195e-02 -4.4221156981878181e-02  -2.6321154357419198e-02 -7.3551462940631057e-02 -3.9961876882093329e-02  -2.5429895647410047e-02 -6.9381267408693825e-02 -3.5953221111616487e-02  -2.4555080640077928e-02 -6.5258420705652215e-02 -3.2041196415715352e-02  -2.3687554497107074e-02 -6.1062369070878746e-02 -2.8095882451191698e-02  -2.2816925285404487e-02 -5.6681182405493864e-02 -2.3998285512110733e-02  -2.1931642832416123e-02 -5.2002252397215863e-02 -1.9629705711423112e-02  -1.8603967584554543e-02 -8.2090364744452804e-02 -2.4689962302382091e-02  -1.7505521544225959e-02 -7.8110040087456076e-02 -2.1264779785669978e-02  -1.6426188126815882e-02 -7.4005960092055734e-02 -1.7879787791431775e-02  -1.5345062181702606e-02 -6.9687662645413637e-02 -1.4427955923409888e-02  -1.4239210227441670e-02 -6.5093714623972829e-02 -1.0797280179518247e-02  -2.9540952124379245e-02 -8.9555250613116658e-02 -4.2575437851844117e-02  -2.9363261088761038e-02 -8.1840725141270249e-02 -4.5377835879855499e-02  -2.8572009249354626e-02 -9.3992515046718988e-02 -3.8697284437447063e-02  -2.7902359097385501e-02 -9.0944467611011312e-02 -3.4557179500080401e-02  -2.8609031367243524e-02 -7.7857924124744876e-02 -4.0788874726072913e-02  -2.8952850234223830e-02 -8.6100569405683947e-02 -3.8036580299710278e-02  -2.7300239702032908e-02 -8.7850202660460300e-02 -3.0659682666912685e-02  -2.7899762352712500e-02 -7.4005614543347420e-02 -3.6447465980221257e-02  -2.8427878973291135e-02 -8.2668588521252528e-02 -3.3749749116750674e-02  -2.6735280960285018e-02 -8.4639470532155633e-02 -2.6903862615351125e-02  -2.7214881390705960e-02 -7.0133234048606399e-02 -3.2220616791582002e-02  -2.7935959517172180e-02 -7.9158985898652057e-02 -2.9596033362813662e-02  -2.6179123505235505e-02 -8.1241484463361088e-02 -2.3194987384866712e-02  -2.6535044211460124e-02 -6.6142894508571928e-02 -2.7978897093613970e-02  -2.7449106086811226e-02 -7.5481271205556200e-02 -2.5457990758004465e-02  -2.5604376728831486e-02 -7.7584192265393259e-02 -1.9437064228166902e-02  -2.5840484532703666e-02 -6.1937600550585184e-02 -2.3594663615902144e-02  -2.6937786087606511e-02 -7.1548404377324640e-02 -2.1211856270566046e-02  -2.4978465417519528e-02 -7.3582168770998241e-02 -1.5529176558616936e-02  -2.5111032215153574e-02 -5.7401231162862651e-02 -1.8938246634329498e-02  -2.6369446097858747e-02 -6.7278743131175628e-02 -1.6707536044511192e-02  -3.6519068906424729e-02 -5.0038285789055760e-02 -6.8519669294090188e-02  -3.6638527792256632e-02 -3.8326396500660019e-02 -7.2860929416992321e-02  -3.4865516969101715e-02 -5.2549331446720707e-02 -6.5638850013465186e-02  -3.3681259699136108e-02 -4.6465043209757889e-02 -6.0942715614813230e-02  -3.5036989177320628e-02 -3.1845729555946861e-02 -6.9255288060036793e-02  -3.5093343067109699e-02 -4.3484343381316258e-02 -6.3649009635176113e-02  -3.2469187180930115e-02 -4.0813457942902601e-02 -5.6347060565528719e-02  -3.3381221758347589e-02 -2.5961797899751567e-02 -6.5499102772589718e-02  -3.3652961304298221e-02 -3.7516116134352864e-02 -5.8969102583613195e-02  -3.1248725988646631e-02 -3.5363873999711130e-02 -5.1714552024737258e-02  -3.1713842720617433e-02 -2.0324369773924794e-02 -6.1564744922144150e-02  -3.2201458868418908e-02 -3.1830849214803572e-02 -5.4279790181805496e-02  -3.0028576478016166e-02 -2.9950720542104826e-02 -4.6898253283363799e-02  -3.0052210045454390e-02 -1.4763365331335357e-02 -5.7338885415887782e-02  -3.0744699873341583e-02 -2.6203911593862147e-02 -4.9391082373692795e-02  -2.8807919704256564e-02 -2.4440320153657356e-02 -4.1743095466815969e-02  -2.8413743657126130e-02 -9.1219224915027215e-03 -5.2731343716362934e-02  -2.9280165259331373e-02 -2.0444251223945813e-02 -4.4115162774323084e-02  -2.7586957930085303e-02 -1.8674457641307849e-02 -3.6140971056394494e-02  -2.9064575920963089e-02 -1.0650902195363975e-01 -3.5949913416417935e-02  -2.9134951285857316e-02 -9.9016214364547980e-02 -3.8295283746520997e-02  -2.8675187092450920e-02 -1.0755839769428183e-01 -3.3793892601983760e-02  -2.8393780158015306e-02 -1.0560415557024184e-01 -3.0530895761130064e-02  -2.8716670621983392e-02 -9.6309279700926440e-02 -3.4219665734593466e-02  -2.9018959924074255e-02 -1.0431049969834985e-01 -3.2309385763245310e-02  -2.8208535708474473e-02 -1.0345423227679851e-01 -2.7436256568166850e-02  -2.8381329006329795e-02 -9.3505414320877653e-02 -3.0378863947059277e-02  -2.9061323320682415e-02 -1.0193405015717047e-01 -2.8868617816772201e-02  -2.8074191188300936e-02 -1.0109917596465470e-01 -2.4459237260117710e-02  -2.8090874464612316e-02 -9.0557451149914731e-02 -2.6681588037870723e-02  -2.9147650534675076e-02 -9.9370739093920774e-02 -2.5553241423692329e-02  -2.7953233124484819e-02 -9.8525372044772380e-02 -2.1557238651100836e-02  -2.7808996740391473e-02 -8.7411508463111867e-02 -2.3037517939769932e-02  -2.9238970178989656e-02 -9.6598059904018388e-02 -2.2300650739189524e-02  -2.7808998072473640e-02 -9.5701111572540673e-02 -1.8697841081207523e-02  -2.7499475563262082e-02 -8.4000003625877173e-02 -1.9360170894320489e-02  -2.9292543518938157e-02 -9.3573043671066641e-02 -1.9059816549446978e-02  -2.7607460401056758e-02 -9.2576390138076142e-02 -1.5866447351423261e-02  -2.7120900361394765e-02 -8.0222042129290363e-02 -1.5565179634648369e-02  -2.9264479287557828e-02 -9.0241426658793145e-02 -1.5771061022941492e-02  -2.8800820715213032e-02 -1.1317907464645620e-01 -3.4093318982204517e-02  -2.8777000550707477e-02 -1.1399490290363089e-01 -3.2154188815556234e-02  -2.8881683854675613e-02 -1.1256630876854277e-01 -2.9564509107418747e-02  -2.9255632159511546e-02 -1.1141410689437863e-01 -3.1006856114552589e-02  -2.9779175059965829e-02 -1.0941306792460823e-01 -2.8074696210934239e-02  -2.9078304430791454e-02 -1.1088225557134920e-01 -2.7080410306195950e-02  -3.0336854581453389e-02 -1.0719845958401610e-01 -2.5243869048249819e-02  -2.9323415175412770e-02 -1.0896871393526489e-01 -2.4679956344601378e-02  -3.0892624510013265e-02 -1.0478274320503909e-01 -2.2478056981685327e-02  -2.9577132915539366e-02 -1.0684080285166191e-01 -2.2350101041064434e-02  -3.1406220658624702e-02 -1.0215644704183299e-01 -1.9750482638886385e-02  -2.9799807509368729e-02 -1.0450068696473756e-01 -2.0089182098301798e-02  -3.1836788089823660e-02 -9.9270378773414297e-02 -1.7042557936623709e-02  -2.9947946883524618e-02 -1.0192668010839806e-01 -1.7931514562624658e-02  -3.4542321201797767e-02 -4.2494509040089307e-02 -6.8878209677530444e-02  -3.3300427461983258e-02 -3.6333311362474682e-02 -6.5288019499009864e-02  -3.2010044299122381e-02 -3.0633261592267525e-02 -6.1575673555749409e-02  -3.0693923128837976e-02 -2.5166415133680065e-02 -5.7687447529367206e-02  -2.9376020015990417e-02 -1.9776864753880029e-02 -5.3535814930410618e-02  -2.8080745001889378e-02 -1.4337486761421598e-02 -4.9040741881161004e-02  -2.9696458616246608e-02 -7.0345533662229454e-02 -5.0675393894087518e-02  -2.8881909936772407e-02 -6.5602533343579558e-02 -4.6188136055552727e-02  -2.8069654053374218e-02 -6.1110105407789973e-02 -4.1853150525598327e-02  -2.7265233243319458e-02 -5.6693670869755672e-02 -3.7567518764060635e-02  -2.6464579530435847e-02 -5.2221557931701412e-02 -3.3197449233655502e-02  -2.5661734971243640e-02 -4.7580328919917078e-02 -2.8613301464350056e-02  -2.4853888986224721e-02 -4.2685044549912787e-02 -2.3667620926085910e-02  -2.8230999326345676e-02 -8.6852754164212911e-02 -4.1183275022620307e-02  -2.7431566581650402e-02 -8.3292175489036654e-02 -3.6866292324720606e-02  -2.6681863905682862e-02 -7.9750514917719256e-02 -3.2804033244688814e-02  -2.5957535193698002e-02 -7.6164331807375391e-02 -2.8876130864286281e-02  -2.5241110745632723e-02 -7.2433625846432259e-02 -2.4964922827806421e-02  -2.4510809115544398e-02 -6.8459978293675769e-02 -2.0954553025261016e-02  -2.3739184351978467e-02 -6.4139407092033848e-02 -1.6709831929779928e-02  -2.8292181856283020e-02 -1.0199567267538602e-01 -3.4767691229532029e-02  -2.7734911898818534e-02 -9.9636556626013673e-02 -3.1143385765037512e-02  -2.7263015948901046e-02 -9.7119463289015495e-02 -2.7731426866628744e-02  -2.6835334749290937e-02 -9.4433993416357609e-02 -2.4459094555168290e-02  -2.6420719175085899e-02 -9.1535665187507373e-02 -2.1260224395333413e-02  -2.5986494541257236e-02 -8.8364488629937857e-02 -1.8075018429708468e-02  -2.5493508929416188e-02 -8.4870267048064232e-02 -1.4830401159458204e-02  -2.9113022617292345e-02 -1.2370221721089504e-01 -3.0710261936134291e-02  -2.8792253431686687e-02 -1.1838071327165364e-01 -3.1707016320488945e-02  -2.9305069565540905e-02 -1.2192991650592128e-01 -3.0458688240972219e-02  -3.0019738130324821e-02 -1.2129166904424504e-01 -2.9484966870409631e-02  -2.9440576068258405e-02 -1.1717853707869476e-01 -2.9571405388968439e-02  -3.0339580317460896e-02 -1.2282394461229662e-01 -2.9606936492661096e-02  -3.0785815220980318e-02 -1.2038303901030367e-01 -2.8509284639438644e-02  -3.0144478466657659e-02 -1.1569106254081332e-01 -2.7500461862784875e-02  -3.1561739628484277e-02 -1.2166542097301740e-01 -2.8480948045058740e-02  -3.1572904347245044e-02 -1.1926053280797169e-01 -2.7564107679329583e-02  -3.0874276580108360e-02 -1.1397107166677942e-01 -2.5491182871195079e-02  -3.2765575002377541e-02 -1.2028747521484390e-01 -2.7366761503438392e-02  -3.2355754750701786e-02 -1.1796992388874465e-01 -2.6686984187214879e-02  -3.1595836759304392e-02 -1.1205155832340585e-01 -2.3548377095165701e-02  -3.3929748488069372e-02 -1.1874756856030259e-01 -2.6319753793604843e-02  -3.3107758572376626e-02 -1.1654551734599188e-01 -2.5916145800021828e-02  -3.2269624583657792e-02 -1.0996034281299791e-01 -2.1686018919588147e-02  -3.5032688303240501e-02 -1.1708752023750996e-01 -2.5392277638094873e-02  -3.3793237282243579e-02 -1.1499970232684986e-01 -2.5279701884288162e-02  -3.2857522899808540e-02 -1.0774197807350316e-01 -1.9913804889675743e-02  -3.6064620681728152e-02 -1.1538493829734345e-01 -2.4620290978218731e-02  -3.3874115869356486e-02 -3.3562515559093016e-02 -7.1982921409801615e-02  -3.2835904395166156e-02 -4.6305819256049867e-02 -6.5275150009024757e-02  -3.1822337943990253e-02 -4.0342897369680358e-02 -6.1646241397565166e-02  -3.2748791315637835e-02 -2.7438420883519464e-02 -6.9514148088324110e-02  -3.1532319834550168e-02 -2.1787934786717051e-02 -6.6830390927583153e-02  -3.0751317585841032e-02 -3.4791588955707865e-02 -5.7951603345103041e-02  -3.0271050895033468e-02 -1.6432319098909229e-02 -6.3878839495678269e-02  -2.9655815111752519e-02 -2.9475217368111092e-02 -5.4110067795158562e-02  -2.9010032246491315e-02 -1.1216387413358378e-02 -6.0607375707971943e-02  -2.8560387480501836e-02 -2.4234622049896775e-02 -5.0027275689661581e-02  -2.7486295249726189e-02 -1.8945760004112432e-02 -4.5615137069504763e-02  -1.9957960821665056e-02 -6.6057486464389262e-02 -3.4218481938195391e-02  -1.8945365121113156e-02 -6.1358057907199393e-02 -3.0712920854846448e-02  -1.7934498541403936e-02 -5.6647251014249916e-02 -2.7155939633760812e-02  -1.6916716116211431e-02 -5.1801410568490719e-02 -2.3438388506670276e-02  -1.5886571378172641e-02 -4.6690064743086970e-02 -1.9451841965956451e-02  -3.3292281277689267e-02 -5.5332587850236710e-02 -6.2239175686225931e-02  -3.2287577315366855e-02 -4.9536590580296920e-02 -5.7752245674110372e-02  -3.1255952469047429e-02 -4.4114053864126021e-02 -5.3329843494422532e-02  -3.0216273165960053e-02 -3.8859279521071835e-02 -4.8856027862325457e-02  -2.9175097770548129e-02 -3.3630347365222905e-02 -4.4203346578773228e-02  -2.8136107457614551e-02 -2.8298069177415987e-02 -3.9256254129222165e-02  -2.7102209426621487e-02 -2.2746671174654676e-02 -3.3924395708570691e-02  -2.8518506571686843e-02 -1.2052698492393900e-01 -3.1811250519543185e-02  -2.9706189225987403e-02 -1.1912679861455491e-01 -2.9654232403940453e-02  -3.0895019395417420e-02 -1.1741617813475193e-01 -2.7533882265167210e-02  -3.2074618160779431e-02 -1.1547798835221013e-01 -2.5459839731449812e-02  -3.3214810604130653e-02 -1.1335211778763939e-01 -2.3430731129786074e-02  -3.4288511226468858e-02 -1.1107693363696274e-01 -2.1474777382166899e-02  -3.5278292345675394e-02 -1.0869523886219629e-01 -1.9666822545184433e-02  -3.1211718546883260e-02 -1.2443855930317123e-01 -3.0688939487312702e-02  -3.0907958739536858e-02 -1.2275390308583498e-01 -3.0533755032812353e-02  -3.0004614702372999e-02 -1.2502837099686542e-01 -3.0825858298017358e-02  -3.1717432293312371e-02 -1.2210987185559062e-01 -3.0417039275630661e-02  -3.2409754044938295e-02 -1.2360051131959113e-01 -3.0435948076187377e-02  -3.2538961543727749e-02 -1.2127494659994531e-01 -3.0289473339851811e-02  -3.3588597902078320e-02 -1.2256599388592854e-01 -3.0147786942761705e-02  -3.3352365577856084e-02 -1.2029320272393518e-01 -3.0213201019151811e-02  -3.4730871324914286e-02 -1.2138878842864582e-01 -2.9903659527410961e-02  -3.4131253864474041e-02 -1.1920385874238359e-01 -3.0252440891926982e-02  -3.5814409659712235e-02 -1.2011759315806529e-01 -2.9785568088781571e-02  -3.4848877918985756e-02 -1.1803929414879508e-01 -3.0491493772971952e-02  -3.6823683562805638e-02 -1.1879365779526953e-01 -2.9898951206228295e-02  -2.8870011227030215e-02 -1.1800532585369924e-01 -3.0590683481067221e-02  -2.9163343185292304e-02 -1.1705009681574126e-01 -2.8773485759562241e-02  -2.9528563756784379e-02 -1.1582671040788221e-01 -2.7017966454547106e-02  -2.9934991996015143e-02 -1.1437253190793036e-01 -2.5327718659046060e-02  -3.0351166838663374e-02 -1.1272086718706828e-01 -2.3717218941029756e-02  -3.0742876698063061e-02 -1.1089320928691240e-01 -2.2206401940794769e-02  -3.1064585430432619e-02 -1.0891186226279440e-01 -2.0815760129586788e-02  -3.2168676106743552e-02 -3.7631130664515809e-02 -6.8322196941559707e-02  -3.1227815176822094e-02 -3.1601304977936839e-02 -6.5650099883178215e-02  -3.0204885656213092e-02 -2.6028525119381671e-02 -6.2791622325087448e-02  -2.9145851375499181e-02 -2.0742364539504590e-02 -5.9697008022395748e-02  -2.8096878027889533e-02 -1.5590108913762633e-02 -5.6302584503067979e-02  -2.7096658147107548e-02 -1.0452556790445357e-02 -5.2547837039452087e-02  -3.3921287339702677e-02 -1.1766370576557324e-01 -3.4502670335062553e-02  -3.5848771767889157e-02 -1.1849078668336578e-01 -3.5985264508600512e-02  -3.5349388808154539e-02 -1.1626645428573185e-01 -4.0359933472153837e-02  -3.5131026995998051e-02 -1.1943793474541810e-01 -3.5022682725106620e-02  -3.4502710304341218e-02 -6.3174580533365485e-02 -6.1022237540961449e-02  -3.3130106751769972e-02 -6.6147368606177773e-02 -5.8193877011704871e-02  -3.2319788827517383e-02 -6.0777126161927569e-02 -5.2908420926932431e-02  -3.3580686297264732e-02 -5.7252347311635643e-02 -5.5457589002503263e-02  -3.1522134584940062e-02 -5.5733133432361706e-02 -4.7823041232237164e-02  -3.2677108776592231e-02 -5.1819113075938304e-02 -5.0188161293508844e-02  -3.0727607142189365e-02 -5.0807603330075807e-02 -4.2793828315541030e-02  -3.1770774905110669e-02 -4.6587830301309661e-02 -4.5016509166690345e-02  -2.9930056394346150e-02 -4.584636561