<?xml version="1.0"?>
<VTKFile type="UnstructuredGrid"  version="0.1"  >
<UnstructuredGrid>
<Piece  NumberOfPoints="725" NumberOfCells="3014">
<Points>
<DataArray  type="Float64"  NumberOfComponents="3"  format="ascii">9.850904131524921 1.726167302335155 1.972525638251317  9.785862974126916 1.704290192205449 2.060348973913038  9.743653944885722 1.741221562775228 1.926235500715024  9.745710942871922 1.689070311403944 1.905148269550998  9.788294721499913 1.649847979094624 2.047600987877935  9.852769098464083 1.672618769854572 1.954379391535095  9.747413444386536 1.637094312977516 1.88392284478203  9.790393154289985 1.595497590353434 2.034708245426453  9.854272599228427 1.619233802518522 1.936086367950948  9.748960623362205 1.585257961770524 1.862666780181131  9.792338479432409 1.541230487075422 2.021754424982781  9.855626611213973 1.565962787418255 1.917752196858533  9.750487319257227 1.533537567432861 1.841448894290203  9.794268317971765 1.487040345715662 2.008809139285025  9.856989129320263 1.512791439262414 1.899453812218128  9.7521381424219 1.481936643957248 1.820341185946113  9.796326880444138 1.432926174175502 1.995938943202618  9.858525337076911 1.459750322903204 1.88127882878612  9.754181940178542 1.430461322892599 1.799423443878255  9.798727547669129 1.378920320959055 1.983236308289197  9.860476322490655 1.40680823913118 1.863274904020841  9.553213561971107 1.692242699470965 2.639569533554867  9.424701910508393 1.662423639804791 2.589161249319794  9.528409903984603 1.670580408474905 2.539473647540267  9.536711966467877 1.617831103271958 2.547952938444555  9.432785009215388 1.610125665712554 2.600180355191136  9.473062653760827 1.349380402070583 2.654389309961248  9.60353357279309 1.386910975642145 2.728275697480514  9.578090951448065 1.354916243976923 2.589567313902493  9.569866883757101 1.407344929642711 2.581212290080458  9.465056302883493 1.401386510885865 2.643502585752632  9.655160610237006 1.709022048422219 1.996653000289306  9.659374952347672 1.655708415607704 1.97949105198973  9.663382023678983 1.602588250176682 1.962240024513025  9.667271371402055 1.549611210093714 1.944950990749685  9.671142944571992 1.496769145444005 1.92769363001828  9.675099032984043 1.444094022060986 1.910552712124481  9.679223797452762 1.391609822749392 1.893596706991846  9.455729162562173 1.646105963844305 2.464703142038327  9.464202602823393 1.592590364371161 2.471546069851397  9.472686183476823 1.539142316260526 2.478234770982697  9.440870852430967 1.557862730038447 2.61106941567902  9.545017570771412 1.565134472277366 2.55632516033529  9.481161283249062 1.485769000797393 2.484847534371221  9.448951915157117 1.505644631339751 2.621889858043449  9.553312080189311 1.512481249081644 2.564633768560185  9.489616197275218 1.432473919937024 2.49143624068977  9.457019080937155 1.453474743461292 2.632687171475329  9.561594050334447 1.459882916295616 2.572916916339095  9.498033816251059 1.379274836391083 2.498048883372434  9.506391484799247 1.326172948983275 2.504752066561282  9.644739914381923 1.763135031047443 1.86660778579581  9.648843077351945 1.712709113840767 1.842324533094317  9.65271924480658 1.662516111837941 1.817937604977192  9.656473550630377 1.61248204355024 1.793528236712163  9.660204486782218 1.562566083299952 1.769164772372644  9.664020971084501 1.512758595904494 1.744921224868267  9.668036702492726 1.463085955830614 1.720873302028596  9.343557764095182 1.63405080791576 2.502881283001611  9.352186891467195 1.580721595323721 2.510432151061258  9.360828096199663 1.527443755857396 2.517826996589772  9.369464393330803 1.474225176051311 2.525144674581485  9.378082709701905 1.421074864056539 2.532441401815434  9.386669218027651 1.368005614548961 2.539771903301751  9.395213886439496 1.315037451849161 2.547197770661448  9.549199318891315 1.716908557029893 1.946922126910429  9.55527146534447 1.664704417816453 1.927131169352558  9.561237920538463 1.612690107171009 1.907241637473697  9.567122717301299 1.56084273873619 1.887325139290032  9.572985354556879 1.509135989788155 1.867444320805263  9.578888078434494 1.457569701700702 1.847666223327346  9.584830840140272 1.406132209015742 1.828083595825955  9.432113043466211 1.665999956185867 2.065821185384923  9.351503897609533 1.679911474246883 1.983448394405636  9.458278341789516 1.691464959625278 1.990287624722736  9.465480926567821 1.638119699545256 1.974007493886053  9.358843548748027 1.626932672866679 1.965793336049253  9.439442768907472 1.611995583602189 2.052490928773707  9.472586037096397 1.584980823759147 1.957614259160525  9.366093195937975 1.574126554506637 1.948050373889382  9.44669591401936 1.558160887570049 2.039045930424586  9.479622741105523 1.532008973149951 1.941184227209815  9.373293881242809 1.521482583204007 1.930283391053766  9.453897679931417 1.504483120652105 2.025554504034431  9.486635627718911 1.479180159432457 1.924779008958397  9.38045875115494 1.468971813705314 1.9125476235515  9.461073515004939 1.450951431746803 2.012079623923819  9.493670131786892 1.426489656183846 1.908463585822437  9.387594967038476 1.416577600407096 1.894911567576647  9.468242681608864 1.39758936650534 1.998693495836169  9.500727676851497 1.373913419548562 1.892336423237377  9.394746463123051 1.364333441710874 1.877442476072961  9.475407065654467 1.344390798271685 1.985505942300805  9.11214620372659 1.588293304063767 2.252701024986394  9.000197744523787 1.563487758176139 2.241105754111488  9.100786564773536 1.59655797260275 2.162235874504805  9.111671072792758 1.54160319014955 2.154872445774124  9.013471666234988 1.508606858168571 2.235613562065776  9.122810264370356 1.533431438037958 2.247557514103654  9.122610574738191 1.486818351363199 2.147358301292171  9.026986415211452 1.453904581498191 2.229994457274339  9.133554836410349 1.478709153656569 2.242285595181734  9.133582455161438 1.432167288956068 2.139772361580826  9.040593476145938 1.399323850311412 2.224314595212299  9.144334722927182 1.424104426814782 2.236944225259596  9.144535349075818 1.377621239214115 2.132175097685672  9.05418152222769 1.344830614928621 2.218629552769183  9.155091821118376 1.369596195177566 2.231592201560253  9.15540296415805 1.323175793564036 2.124629554289075  9.067610475963887 1.290412534228347 2.212996704693476  9.165751463096742 1.315176429878443 2.226289923682825  9.166125660739761 1.268881533946093 2.117231506692127  9.080625274926776 1.236051106501982 2.207498589299881  9.176235028172616 1.260901617016401 2.221127184251312  9.332449193735284 1.64664748352998 2.092589429242944  9.340535331922247 1.592434312797047 2.080455177191337  9.348558129061743 1.538404384645579 2.068219720965586  9.356543182476052 1.484515481383561 2.055932752109178  9.36449905479228 1.430757397377117 2.043655761327724  9.372426733032087 1.377139736899424 2.031460259783279  9.380353307446821 1.323717395552284 2.019429869180711  8.988587133454107 1.573924921107412 2.155787736940046  9.001683923408081 1.518952868385396 2.148392452718904  9.01496488476791 1.464191087129713 2.140857296444271  9.028341262931303 1.409563830106773 2.13325793165718  9.054936396184857 1.30054008486761 2.118099185245004  9.067835642963145 1.246109320538523 2.110687350063333  9.542580974636996 1.688208837503834 2.04639890872549  9.5484728823476 1.634501502409575 2.032295483470386  9.554223174562283 1.58096497966285 2.018074515503456  9.559885062472132 1.527566649396447 2.003797209848442  9.56551926393759 1.474285379968733 1.989525827628074  9.571186560914281 1.421109063887562 1.975324012389907  9.576968237450723 1.368024773788048 1.961291841077271  9.65999149027896 1.682624496290816 2.107675356772573  9.664328590035348 1.627966047524761 2.097078121106789  9.668457457975885 1.573458494509105 2.086340958869899  9.672478193788551 1.519071866069431 2.075547582288761  9.676477710523933 1.464802636576216 2.064763157344534  9.680545781269123 1.410674126799156 2.054059083224159  9.684817530232289 1.356700869819027 2.043531511587764  9.607522690569416 1.80147180664887 1.788850096381914  9.525696897275658 1.762228339263147 1.846150898481274  9.530940012559109 1.713045168647444 1.819529680778521  9.611625725021218 1.75485987268644 1.757923883954173  9.536022037968994 1.664106944489633 1.792857352157748  9.615546924458091 1.708481209350913 1.726963069374622  9.541008514539097 1.615335099828045 1.766197596236488  9.619360993043788 1.662262418108174 1.696038137608106  9.545963991858258 1.56669008187225 1.739606655971095  9.623161420284617 1.616159719039022 1.665204371642079  9.550958413592674 1.518152432269418 1.713148500707504  9.627049486027213 1.570151444879748 1.63453290383716  9.556099488649464 1.469744490997043 1.686882205823738  9.631104002644182 1.524267553511648 1.604123308043806  9.085187396046894 1.262138490125186 2.00317583145294  9.086312599977925 1.297901997065273 1.885339600912399  8.989249721766932 1.266146760185124 1.90391282509419  9.075010867911097 1.35093461086047 1.902098750499668  9.0732921378171 1.316165882917821 2.015118615070053  9.423984324377159 1.711634385966853 1.91599040344173  9.430596702734332 1.660313228580282 1.893161596990617  9.437090466712673 1.609227971892623 1.870293625164734  9.443510197379361 1.558322579025014 1.847421116923196  9.449889866863609 1.50757234933552 1.824612383630081  9.456254483494249 1.456984280034922 1.801953353468764  9.462724737933293 1.406566525860062 1.779497329534533  9.324284098458035 1.62824874394862 2.190707965546839  9.292798682698297 1.6158127088304 2.305365340678089  9.210207646655304 1.60733194967281 2.221016879410276  9.219311335940622 1.552375087998374 2.215345257793109  9.301972028336277 1.561186348974783 2.303265742747921  9.332652782427036 1.573433908228008 2.184115717270545  9.228387712186619 1.497560877770936 2.2095362565942  9.311154450364477 1.506658672410562 2.301003594992439  9.340979439281568 1.518754685360735 2.177381171617558  9.237451004426871 1.442881559370281 2.203655473920263  9.320327672257667 1.452243079292807 2.298662909141499  9.349274631513826 1.46421128583822 2.170577464
[...]
<PointData  Vectors="f_24"> 
<DataArray  type="Float64"  Name="f_24"  NumberOfComponents="3" format="ascii">-2.3882563169930059e-02 -1.0629249227068602e-01 -3.2309190357479041e-02  -2.2137341850311080e-02 -1.0856512742663318e-01 -2.7494454249305959e-02  -2.3166410738907569e-02 -1.0568691391208541e-01 -3.3016911399534603e-02  -2.3497572393846606e-02 -1.0417710120832774e-01 -3.2306821399744654e-02  -2.2310850276976445e-02 -1.0685388185498852e-01 -2.7813042319067290e-02  -2.4078113813568697e-02 -1.0467849841120629e-01 -3.2010694335854614e-02  -2.3789805254435244e-02 -1.0307258111455186e-01 -3.1718726033288291e-02  -2.2471814707201485e-02 -1.0551203384177037e-01 -2.8103117553498525e-02  -2.4262326034283320e-02 -1.0348501193345314e-01 -3.1804759608328848e-02  -2.4064081631518526e-02 -1.0228367129368836e-01 -3.1259099505317155e-02  -2.2623741392686029e-02 -1.0448756639840152e-01 -2.8427732337091095e-02  -2.4439604317461127e-02 -1.0260214324826492e-01 -3.1687298617710344e-02  -2.4330253067724336e-02 -1.0175749038077177e-01 -3.0907620929050410e-02  -2.2768745071746851e-02 -1.0372170921530817e-01 -2.8827961950438886e-02  -2.4614988720842869e-02 -1.0197864037467774e-01 -3.1663369325030506e-02  -2.4596022532758933e-02 -1.0146576793272163e-01 -3.0655061720698477e-02  -2.2911488434806067e-02 -1.0317814208444270e-01 -2.9334029019830843e-02  -2.4794815767896345e-02 -1.0158674588727727e-01 -3.1739656868582551e-02  -2.4872137505814337e-02 -1.0139626329505526e-01 -3.0509142560752711e-02  -2.3055823798874574e-02 -1.0283328862380745e-01 -2.9981751016647733e-02  -2.4985898418282929e-02 -1.0140598608580348e-01 -3.1921076836199123e-02  -1.2859062418865504e-02 -1.2626037320039810e-01 -2.9394692940428323e-03  -1.2032634030813930e-02 -1.2593393096269490e-01 -1.7788029614259834e-03  -1.3729441882550665e-02 -1.2381489886245345e-01 -5.3438791799036234e-03  -1.3278078391819739e-02 -1.2315146546386697e-01 -7.2007478752834217e-03  -1.1438296140525231e-02 -1.2539667921573708e-01 -3.6640229496378361e-03  -8.6153679871347737e-03 -1.2235494002356752e-01 -1.2195886128172287e-02  -8.8213790802720224e-03 -1.2302724239968407e-01 -1.1712329671211505e-02  -1.1028223933349356e-02 -1.1993745286454068e-01 -1.5739146819177378e-02  -1.1442222594094206e-02 -1.2053112668401522e-01 -1.3876545796618785e-02  -9.1583485096546277e-03 -1.2292650908201438e-01 -1.0276543480779499e-02  -2.1413968425883032e-02 -1.0711222784557389e-01 -2.8189056677319593e-02  -2.1771697664800235e-02 -1.0545785978908521e-01 -2.8004174418972766e-02  -2.2079686045910214e-02 -1.0420677051471339e-01 -2.7907022209163669e-02  -2.2372503867173210e-02 -1.0326959644085537e-01 -2.7887587341055238e-02  -2.2649502766847233e-02 -1.0259518484235566e-01 -2.7959588968688665e-02  -2.2912391224252641e-02 -1.0215303598983776e-01 -2.8135624504507805e-02  -2.3160910908322341e-02 -1.0192499332735423e-01 -2.8425402218370463e-02  -1.3861472773778189e-02 -1.2185495016371393e-01 -6.4098586947222997e-03  -1.3523548569619605e-02 -1.2098769402867741e-01 -8.3948061233743796e-03  -1.3167753857041555e-02 -1.2018902723686294e-01 -1.0150342082358774e-02  -1.0850534262592849e-02 -1.2480595564761773e-01 -5.3296304323703922e-03  -1.2811557934578326e-02 -1.2247431742922621e-01 -8.9007994188147303e-03  -1.2805588635699494e-02 -1.1946110502413015e-01 -1.1819995360166905e-02  -1.0273039597680779e-02 -1.2417747367463912e-01 -6.9128452720435525e-03  -1.2344034826552608e-02 -1.2179719070554169e-01 -1.0516391742089518e-02  -1.2440413527924514e-02 -1.1880643201642721e-01 -1.3508124738217430e-02  -9.7067585822334726e-03 -1.2353949757611582e-01 -8.5361249384843761e-03  -1.1886324835269682e-02 -1.2114454871578358e-01 -1.2148090345893920e-02  -1.2074510861632057e-02 -1.1822729116387823e-01 -1.5299870288959939e-02  -1.1714815911988107e-02 -1.1772862487277976e-01 -1.7273174078647834e-02  -2.2622549781561727e-02 -1.0478830038355329e-01 -3.4649607380596872e-02  -2.3095610733258443e-02 -1.0355839555593629e-01 -3.3432517981627496e-02  -2.3531983837597095e-02 -1.0267339418559321e-01 -3.2429186262634489e-02  -2.3939819226469303e-02 -1.0208136960823899e-01 -3.1602007782989897e-02  -2.4330817100713772e-02 -1.0173965164112612e-01 -3.0905734633662991e-02  -2.4710626790316003e-02 -1.0162828798577787e-01 -3.0307312210357710e-02  -2.5081379198588698e-02 -1.0173840738012599e-01 -2.9790877566912528e-02  -1.2212355890550093e-02 -1.2374960406603176e-01 -2.9354248239965336e-03  -1.1802850368506085e-02 -1.2294779878997118e-01 -5.0102304107356764e-03  -1.1383297421398399e-02 -1.2219046986850933e-01 -6.8654308139324887e-03  -1.0960851377249781e-02 -1.2147671422210560e-01 -8.6321709339047276e-03  -1.0539384817376003e-02 -1.2081484500508401e-01 -1.0416499661865463e-02  -1.0119729082449323e-02 -1.2021728307347915e-01 -1.2300801754279594e-02  -9.7020762801731386e-03 -1.1970017042159628e-01 -1.4346138953701732e-02  -2.0705023370162549e-02 -1.0608740346444116e-01 -2.8581579030565834e-02  -2.1228839449683328e-02 -1.0453084560590521e-01 -2.8072275890278286e-02  -2.1689394211140581e-02 -1.0338883155183923e-01 -2.7679329291904281e-02  -2.2114073982146085e-02 -1.0256036528260236e-01 -2.7395994185536468e-02  -2.2513208219400269e-02 -1.0199261156818196e-01 -2.7218870951482520e-02  -2.2890519140127633e-02 -1.0165758712865917e-01 -2.7147646927837197e-02  -2.3240306053826196e-02 -1.0154760612883089e-01 -2.7182409516984314e-02  -1.8229826525465356e-02 -1.0891555614373591e-01 -2.0838600465045220e-02  -1.8165301060347236e-02 -1.0675345344482381e-01 -2.2820428274101655e-02  -1.9251143366818206e-02 -1.0701363668469301e-01 -2.4650226459384677e-02  -1.9791074337234562e-02 -1.0536002443387119e-01 -2.4573971390246131e-02  -1.8777056062791016e-02 -1.0507312708499882e-01 -2.2718962637903729e-02  -1.8664856843650261e-02 -1.0719853642574120e-01 -2.1305240328111114e-02  -2.0258512963283563e-02 -1.0412027217443023e-01 -2.4497421083995188e-02  -1.9348329809297744e-02 -1.0380337422466143e-01 -2.2667085855950158e-02  -1.9048691844702297e-02 -1.0585178098738218e-01 -2.1751195008873771e-02  -2.0687027659829542e-02 -1.0319763793310159e-01 -2.4509822771271939e-02  -1.9863913524922852e-02 -1.0285972559144492e-01 -2.2699892422514498e-02  -1.9393226686024105e-02 -1.0480802445348232e-01 -2.2229765242490242e-02  -2.1079884602872832e-02 -1.0253604400729840e-01 -2.4628852015270795e-02  -2.0337196178657885e-02 -1.0218548493280254e-01 -2.2833619514251446e-02  -1.9704559268279520e-02 -1.0401909954100831e-01 -2.2782134780159915e-02  -2.1443082177435964e-02 -1.0210219297568672e-01 -2.4867555895534174e-02  -2.0774474671344228e-02 -1.0174482360465927e-01 -2.3078960201746965e-02  -1.9986322297636559e-02 -1.0345249042968667e-01 -2.3440715020568832e-02  -2.1775102942122638e-02 -1.0187143172715918e-01 -2.5241792439844545e-02  -2.1179712186778766e-02 -1.0151915887263330e-01 -2.3453274285141355e-02  -2.0241636203396366e-02 -1.0308085942949301e-01 -2.4231703229644349e-02  -1.2910257460358681e-02 -1.1552107744043862e-01 -6.9612654866074040e-03  -1.1991776599054017e-02 -1.1521214745110843e-01 -5.1647653123822589e-03  -1.3835906842610764e-02 -1.1221147984005263e-01 -9.9068212190991309e-03  -1.4230956114409887e-02 -1.1053883911555498e-01 -1.1322051544407614e-02  -1.2300139193643419e-02 -1.1359698623623748e-01 -7.0171729450486395e-03  -1.3131318407137287e-02 -1.1393425589974647e-01 -8.7293957662453667e-03  -1.4570815580517323e-02 -1.0914545861914114e-01 -1.2618670629337589e-02  -1.2531166841908003e-02 -1.1222533568307437e-01 -8.8357846479518859e-03  -1.3304933918063975e-02 -1.1258711854620053e-01 -1.0420528918875228e-02  -1.4858995153979048e-02 -1.0801878729699471e-01 -1.3896398640124269e-02  -1.2705542500088639e-02 -1.1107850390959993e-01 -1.0612458010406094e-02  -1.3434849030836707e-02 -1.1146009773259065e-01 -1.2069075272159563e-02  -1.5094317189248679e-02 -1.0712603805884321e-01 -1.5221764969656082e-02  -1.2833356159653182e-02 -1.1013542876470421e-01 -1.2405074365750873e-02  -1.3527016837426952e-02 -1.1053115003783386e-01 -1.3733577316840610e-02  -1.5284144217874128e-02 -1.0643667148732218e-01 -1.6644695618764332e-02  -1.2917683570488675e-02 -1.0937973886452262e-01 -1.4261002675815319e-02  -1.3586034366286267e-02 -1.0978346288815384e-01 -1.5466426216799925e-02  -1.5437742335556236e-02 -1.0592159093169570e-01 -1.8214852067475536e-02  -1.2960727898207297e-02 -1.0880588176910024e-01 -1.6207803919240434e-02  -1.3619431334741269e-02 -1.0920108056250145e-01 -1.7296020076927959e-02  -1.6891144565567531e-02 -1.0970468412904170e-01 -1.7700959615125782e-02  -1.7343759819839974e-02 -1.0798155323367176e-01 -1.8399184438993361e-02  -1.7738696716804989e-02 -1.0660144668212698e-01 -1.9072888023038928e-02  -1.8090034596876508e-02 -1.0551720643898861e-01 -1.9764507866144521e-02  -1.8403393551261693e-02 -1.0468203724978434e-01 -2.0520729803406530e-02  -1.8683236952399269e-02 -1.0406465482144509e-01 -2.1378068012686421e-02  -1.8934263167075163e-02 -1.0364635998920509e-01 -2.2363691577158940e-02  -1.2888906926635567e-02 -1.1198153401463637e-01 -7.7952994365177580e-03  -1.3334139384320973e-02 -1.1033521502017031e-01 -9.3278655806574729e-03  -1.3733169866756142e-02 -1.0892441284381689e-01 -1.0740640559903912e-02  -1.4056668439464081e-02 -1.0778307473032614e-01 -1.2148694486525235e-02  -1.4518520586778657e-02 -1.0618625486242254e-01 -1.5151071579808818e-02  -1.4671798480905026e-02 -1.0567413454997519e-01 -1.6828571880245766e-02  -1.9611725372317600e-02 -1.0845021149065054e-01 -2.3856635623751093e-02  -1.9991100011275392e-02 -1.0677834335232250e-01 -2.4140534490638250e-02  -2.0339492551879255e-02 -1.0543419310697548e-01 -2.4386841618021994e-02  -2.0650484736984717e-02 -1.0439912717967020e-01 -2.4675065025167069e-02  -2.0934379080119064e-02 -1.0362637903542414e-01 -2.5043525450419036e-02  -2.1196170768171263e-02 -1.0308021002170671e-01 -2.5519764523405715e-02  -2.1437807548457102e-02 -1.0273815169424594e-01 -2.6127880626429456e-02  -2.0239945131589214e-02 -1.0987453271977522e-01 -2.3410762468978972e-02  -2.0439657801264385e-02 -1.0820239985787491e-01 -2.4041142632770560e-02  -2.0630700928491997e-02 -1.0688024613872703e-01 -2.4615319967542772e-02  -2.0800313292419388e-02 -1.0584024305156044e-01 -2.5203610374869477e-02  -2.0953366726711317e-02 -1.0503982270985938e-01 -2.5856544472628529e-02  -2.1092615422048495e-02 -1.0445153648261474e-01 -2.6616377237955360e-02  -2.1220950679655144e-02 -1.0405467346887773e-01 -2.7516657915368239e-02  -2.2889123102756377e-02 -1.0371803436774403e-01 -3.8597131149470422e-02  -2.1294779756100585e-02 -1.0436240092077485e-01 -3.3625544205369132e-02  -2.1963501226903458e-02 -1.0323289234266374e-01 -3.2306956913101280e-02  -2.3475250769792250e-02 -1.0299261259730462e-01 -3.6822892815392132e-02  -2.2567937413977307e-02 -1.0245924147996499e-01 -3.1207220784403165e-02  -2.4022070941304589e-02 -1.0259417988553723e-01 -3.5415311721152365e-02  -2.3131564728257493e-02 -1.0197478340310166e-01 -3.0298041239214785e-02  -2.4542663423311708e-02 -1.0240905253265123e-01 -3.4215347375955364e-02  -2.3666929845328446e-02 -1.0173893565965760e-01 -2.9514948345196287e-02  -2.5045061611730216e-02 -1.0243259036294475e-01 -3.3119868037425240e-02  -2.4181607032293377e-02 -1.0173539542879054e-01 -2.8815389325569915e-02  -2.5534998813242886e-02 -1.0268490925341348e-01 -3.2066492038070313e-02  -2.4685031497555212e-02 -1.0195867157522583e-01 -2.8170746635554921e-02  -2.6011667525049416e-02 -1.0318867813723537e-01 -3.1025087458217727e-02  -1.6757308450364234e-02 -1.0274476814764556e-01 -1.7891333398970762e-02  -1.8776112979531447e-02 -1.0039185693409960e-01 -1.8330733790261778e-02  -1.7704048972301129e-02 -1.0022568509078722e-01 -1.6814396575714069e-02  -1.8273193929482061e-02 -1.0069274846827966e-01 -1.7526012619874035e-02  -1.6452747800196371e-02 -1.0316205770649349e-01 -1.6582965148188307e-02  -1.9551025096920752e-02 -1.0526356737433568e-01 -2.7602732448192006e-02  -2.0244650652495273e-02 -1.0375176658484664e-01 -2.6878437028765679e-02  -2.0869995570082633e-02 -1.0270612907304467e-01 -2.6353637926291622e-02  -2.1445671856729895e-02 -1.0197351951652488e-01 -2.5949952451881295e-02  -2.1985799988435036e-02 -1.0150357006557997e-01 -2.5651235575635742e-02  -2.2497931577172232e-02 -1.0127367256342282e-01 -2.5444742290722879e-02  -2.2990943246207974e-02 -1.0127559890680765e-01 -2.5321829585835814e-02  -1.5751175593215011e-02 -1.1283701005567055e-01 -1.3653846603359185e-02  -1.4084887618309377e-02 -1.1695809357807183e-01 -8.7995267548446349e-03  -1.4240030919811391e-02 -1.1411368310952370e-01 -1.0157730515724503e-02  -1.4474274475393319e-02 -1.1252551414101152e-01 -1.1680696169708507e-02  -1.4134118571179652e-02 -1.1555379553640517e-01 -1.0591730112245614e-02  -1.6001490876471541e-02 -1.1122861217172245e-01 -1.4937010473200540e-02  -1.4666558846109283e-02 -1.1120143705323327e-01 -1.3106395813599863e-02  -1.4142829422576818e-02 -1.1434926150090066e-01 -1.2250860380531388e-02  -1.6210739484983763e-02 -1.0991940862331431e-01 -1.6118106326320041e-02  -1.4820142459545058e-02 -1.1010825880402243e-01 -1.4503088324698208e-02  -1.4129334187421565e-02 -1.1333448342864151e-01 -1.3858393316384044e-02  -1.6382247267269535e-02 -1.0885413818849748e-01 -1.7281680218600121e-02  -1.4937581828406552e-02 -1.0922167167566220e-01 -1.5932034265213744e-02  -1.4093745539975085e-02 -1.1248791677940827e-01 -1.5484679169779034e-02  -1.6522112653590857e-02 -1.0799998153592026e-01 -1.8490418591644974e-02  -1.5024319655577349e-02 -1.0851981190963894e-01 -1.7446068799441907e-02  -1.4037818510623417e-02 -1.1179533060457171e-01 -1.7189824480346047e-02  -1.6634136037721223e-02 -1.0733243008969477e-01 -1.9797187762221880e-02  -1.5086791849994639e-02 -1.0798150736596185e-01 -1.9091836520789128e-02  -1.3960351128216539e-02 -1.1124327699218693e-01 -1.9014583763575985e-02  -1.6719906824727168e-02 -1.0683563051220522e-01 -2.1251253750293755e-02  -2.1909573830111006e-02 -1.0310367437970562e-01 -3.9757935438983219e-02  -2.0270481880161863e-02 -1.0340998039153851e-01 -3.4210412786034664e-02  -2.1118900794602925e-02 -1.0262772190864289e-01 -3.2566761777186960e-02  -2.2709132461066050e-02 -1.0284549585645014e-01 -3.7822518374791898e-02  -2.1908496245213429e-02 -1.0210969527282568e-01 -3.1261045771442182e-02  -2.3448666017642956e-02 -1.0279327915952949e-01 -3.6295565000174806e-02  -2.2654691376802955e-02 -1.0184318990948038e-01 -3.0172990272904220e-02  -2.4149250976371568e-02 -1.0290116832154532e-01 -3.4976650858969019e-02  -2.3367330741780042e-02 -1.0181262250374459e-01 -2.9205696046145764e-02  -2.4827188914387562e-02 -1.0320140210703101e-01 -3.3725762616721604e-02  -2.4054964477110342e-02 -1.0202063956638217e-01 -2.8297288064419428e-02  -2.5491595412552276e-02 -1.0374535462516421e-01 -3.2461465399793603e-02  -2.4715540243893681e-02 -1.0247889702414094e-01 -2.7405192222853550e-02  -2.6148830844029379e-02 -1.0457888933274410e-01 -3.1148258365242217e-02  -1.8913518605761178e-02 -1.0390865341315132e-01 -2.8778507999030169e-02  -1.9799168741123238e-02 -1.0268260158971521e-01 -2.7652454185323323e-02  -2.0605895036024776e-02 -1.0184357220156628e-01 -2.6769052912304452e-02  -2.1355689314781233e-02 -1.0130455329023515e-01 -2.6057037402851025e-02  -2.2060236306361766e-02 -1.0102322042238321e-01 -2.5463510002894350e-02  -2.2730767108698539e-02 -1.0098427643464376e-01 -2.4955186175908164e-02  -2.3379512931140226e-02 -1.0118367508241329e-01 -2.4512135340232527e-02  -2.6828776693402046e-02 -1.0376918210817314e-01 -4.0946127058056767e-02  -2.5167463242232575e-02 -1.0575733563144538e-01 -3.4912927194029858e-02  -2.4966239888462190e-02 -1.0473415873197832e-01 -3.7035598743767273e-02  -2.5211681534350088e-02 -1.0342723274882820e-01 -3.5963776099481884e-02  -2.5346954695639509e-02 -1.0419578690374573e-01 -3.4428528552963814e-02  -2.6978581287942210e-02 -1.0266852223734003e-01 -3.9576155087905018e-02  -2.5432239249549952e-02 -1.0246767398060720e-01 -3.5120668124713553e-02  -2.5499383954572182e-02 -1.0298242601730212e-01 -3.4101194058091491e-02  -2.7106125214196201e-02 -1.0191044979445586e-01 -3.8527899428883926e-02  -2.5642511480484586e-02 -1.0180788726155648e-01 -3.4441099951897966e-02  -2.5640816276730309e-02 -1.0209785224342691e-01 -3.3886825850064375e-02  -2.7228331763278817e-02 -1.0140420410040592e-01 -3.7667503047328979e-02  -2.5850782993432568e-02 -1.0140131499963141e-01 -3.3874609264944490e-02  -2.5781445838768870e-02 -1.0148193868452891e-01 -3.3767238325844565e-02  -2.7352737733769561e-02 -1.0112519756225480e-01 -3.6916262835719894e-02  -2.6064231873576649e-02 -1.0122648340379478e-01 -3.3389772379144346e-02  -2.5931387767256377e-02 -1.0110039702429806e-01 -3.3733156438618538e-02  -2.7485934094787997e-02 -1.0107147025392990e-01 -3.6225719596506084e-02  -2.6289769729353658e-02 -1.0127453992055803e-01 -3.2962916282382348e-02  -2.6100782094465980e-02 -1.0093931348842604e-01 -3.3780677854689314e-02  -2.7634629212961871e-02 -1.0125461446653516e-01 -3.5564825909607946e-02  -1.9474980612374120e-02 -1.0229290940966200e-01 -3.5791153568037776e-02  -1.8024137850122485e-02 -1.0256756629505971e-01 -2.9937963216686198e-02  -1.9110034036355368e-02 -1.0169446545033071e-01 -2.8483905773709468e-02  -2.0526743806484206e-02 -1.0198467483393876e-01 -3.3934639690214749e-02  -2.0118207359536386e-02 -1.0109798851662703e-01 -2.7306000578835837e-02  -2.1494613264964307e-02 -1.0186563675172380e-01 -3.2451721661097395e-02  -2.1057062469281733e-02 -1.0076331839343566e-01 -2.6343579337095847e-02  -2.2417983022319458e-02 -1.0192421042891343e-01 -3.1193862391034520e-02  -2.1943913981924367e-02 -1.0067939616805545e-01 -2.5517888271994988e-02  -2.3305856010996787e-02 -1.0218569231832848e-01 -3.0038735211582030e-02  -2.2791946491696569e-02 -1.0084218232601548e-01 -2.4770143703385376e-02  -2.4167038889938482e-02 -1.0268668836136677e-01 -2.8907390109188406e-02  -2.3610784843994637e-02 -1.0126381617773676e-01 -2.4053018926818173e-02  -2.5012957411644134e-02 -1.0345552307217482e-01 -2.7754977764411312e-02  -1.6931245816053549e-02 -1.0271586662408966e-01 -2.4631200420128747e-02  -1.6139891209814003e-02 -1.0537733007916414e-01 -1.9135941444939637e-02  -1.5793294957133840e-02 -1.0312820983903222e-01 -1.9748717156810452e-02  -1.7004263855475252e-02 -1.0373069298254137e-01 -1.9087517433866927e-02  -1.8061605364340344e-02 -1.0150259963698803e-01 -2.3653836014283437e-02  -1.6881688142562305e-02 -1.0161327093563255e-01 -1.9359780895339823e-02  -1.7789403795441010e-02 -1.0249202890623671e-01 -1.9104638255194838e-02  -1.9086805330242158e-02 -1.0066358947003286e-01 -2.2999826972740004e-02  -1.7868164508560647e-02 -1.0055659404217046e-01 -1.9127837321092255e-02  -1.8501564859487025e-02 -1.0158480674952118e-01 -1.9228931168230583e-02  -2.0028919103396922e-02 -1.0012712400158384e-01 -2.2515550102977681e-02  -1.8770217690924903e-02 -9.9828281354083559e-02 -1.9028918949361331e-02  -1.9149459639186243e-02 -1.0095111817554032e-01 -1.9462730772495114e-02  -2.0909223215070272e-02 -9.9858862293250167e-02 -2.2140809305787212e-02  -1.9601244454437172e-02 -9.9368911889194639e-02 -1.9041207757969095e-02  -1.9741497929931382e-02 -1.0055718292560281e-01 -1.9807938898995764e-02  -2.1735121114723015e-02 -9.9844899945226190e-02 -2.1839658457060204e-02  -2.0364999986805517e-02 -9.9152647828038551e-02 -1.9154171828339013e-02  -2.0284364234342343e-02 -1.0038296952999869e-01 -2.0268059508766038e-02  -2.2504694643640851e-02 -1.0008539138559004e-01 -2.1586253078688802e-02  -2.1063288476332830e-02 -9.9175921873572992e-02 -1.9363096113137388e-02  -2.6920017008456351e-02 -1.0449837829417385e-01 -3.8647831242514370e-02  -2.5209140154970191e-02 -1.0687378677351574e-01 -3.2878046402179437e-02  -2.7027227856423391e-02 -1.0307177308961471e-01 -3.7826278707231188e-02  -2.5347703998189884e-02 -1.0517441655928281e-01 -3.3005992380874837e-02  -2.7117153049809030e-02 -1.0201892471534699e-01 -3.7222687148579264e-02  -2.5441254329180693e-02 -1.0390990208779491e-01 -3.3183153116231087e-02  -2.7189384358578539e-02 -1.0125758797590985e-01 -3.6771743274313422e-02  -2.5520095307129658e-02 -1.029591399