<?xml version="1.0"?>
<VTKFile type="UnstructuredGrid"  version="0.1"  >
<UnstructuredGrid>
<Piece  NumberOfPoints="943" NumberOfCells="4059">
<Points>
<DataArray  type="Float64"  NumberOfComponents="3"  format="ascii">3.309510379629804 0.8863836409368193 2.616154815527406  3.444182813441553 0.9209586002677446 2.667203884134563  3.328980118271651 0.9521439490552337 2.762453947971372  3.332655598933088 0.8967213002316559 2.78851043660581  3.448401826589566 0.8642325253604897 2.690585360521831  3.31579258608076 0.8280953931305725 2.639930694748617  3.336298194938632 0.8413373348870876 2.81455400698196  3.452574480522336 0.80754298103268 2.713933865372631  3.322102618770432 0.7698559053450988 2.663701515376427  3.339910520426894 0.7859891466894402 2.840585789008104  3.456712043473359 0.750882338130715 2.737273256320213  3.328411795279227 0.7116554172552569 2.687465679565256  3.343493472723937 0.7306761786724061 2.866610772541831  3.46082049465365 0.6942531242978898 2.760607165345694  3.334688177644538 0.6534862464869524 2.711227281879887  3.347039831482192 0.6754069919168225 2.892629007199851  3.464900777326104 0.637659013888338 2.783938243179442  3.340883402761118 0.5953598670357796 2.734980830220038  3.350535924438287 0.6201925860512225 2.918629191040643  3.468950506189825 0.581140988175765 2.807258238499981  3.346915821363121 0.5372907205274948 2.758713401790215  4.830914772240143 0.8669951873710252 2.848470950943216  4.711095366839688 0.8344714265006634 2.808416188063085  4.770251871723918 0.9189382919576861 2.972087006599022  4.703312495378058 0.8887648500417146 2.785964952482801  4.778119940973102 0.8675761143008115 2.999323010154519  4.837928529660554 0.812963948594897 2.872056121445372  4.718864163875057 0.7801783953805086 2.830865595138155  4.785942263038891 0.8161982332003074 3.026530579640188  4.844962880415538 0.758942180829133 2.895621517956604  4.726585473682266 0.7258866725085849 2.853316758148127  3.183855021982071 0.9266916966011867 2.728975185596856  3.239595916759268 1.002106012142572 2.869780049231171  3.242634703182631 0.9484002630190136 2.898292522677149  3.189386137089473 0.8706620167084802 2.757012037780792  3.194936373316584 0.8146721391562888 2.785039328749702  3.24564902943293 0.8947284430644704 2.926789281089172  3.200478556964971 0.7587125935941077 2.813056172949324  3.248639770488599 0.841084093036562 2.95527783227224  3.205991414791407 0.7027836448635859 2.841069620471582  3.251601300209731 0.787467057677252 2.983757847202368  3.211446475162366 0.6468850656667584 2.869092265828673  3.254523002651907 0.7338816496550165 3.012227239516346  3.21676944213806 0.5910254165233325 2.897124200530571  3.257389477376745 0.6803333898725057 3.040686775433139  3.924235845684834 1.054631281481423 2.896407026829799  4.042648438318679 1.018677187878864 2.80291522239478  4.029734928942861 1.086480894916666 2.944184107613537  4.033581811572337 1.035450523225623 2.970238407666375  4.047032421962647 0.9656749557324483 2.826341469258864  3.927785224865167 1.003016755565553 2.922148426255673  4.051363953183974 0.9126517322100309 2.849739858872248  3.931274572950194 0.9513885441188332 2.947865002805727  4.037379158528795 0.9844007145567089 2.996288118415261  3.934733035938298 0.8997583137470264 2.973563971174869  4.055670271107773 0.8596259161615664 2.873116196267135  4.041152961911114 0.9333442221346975 3.022328649986522  3.938187963156937 0.8481354506971741 2.999251581215874  4.059975242076549 0.8066091746322046 2.896482761900796  4.044926575598378 0.8822876213032286 3.048360405467668  3.941666559112415 0.7965275955183193 3.024937364180309  4.064300864416618 0.7536103722465325 2.919855050203848  4.048724443084279 0.8312334234966833 3.074387343770027  3.945198747483074 0.744940545759847 3.050637823756019  4.068665734873053 0.700631522291109 2.943250376855835  4.052569985463395 0.7801836234384977 3.100417422232893  3.917567988818408 0.9895243592666594 2.76171074308338  3.922087497822786 0.9358718841143401 2.785146459244783  3.92654870632354 0.882200515798256 2.808540423514554  3.93097958570269 0.8285328957924153 2.831906957783342  3.935404964659423 0.7748816737466495 2.855261291474537  3.939847456323109 0.7212572559917418 2.878621369185009  3.944327511688839 0.6676594158387426 2.90201591724711  4.358478989280089 1.037284436718629 2.781353379484818  4.45230853778671 1.012400541590513 2.694290892315442  4.482284864998666 1.061905086215139 2.803104333200595  4.488601521213908 1.009480065210504 2.827862910145921  4.458541324074151 0.9568999751694327 2.713115379807013  4.363993185928181 0.9838375751784043 2.80413536624355  4.494947324322871 0.9570407877874865 2.852621502195785  4.464766785520603 0.9013826952036632 2.731914799427259  4.369487779399154 0.930373341240925 2.826899694305932  4.501308089077008 0.9045966431727638 2.877373319137379  4.470992650372068 0.8458677293861886 2.750704190563797  4.37497844968242 0.8769042331264161 2.849654950570768  4.477227408071798 0.7903615550608907 2.769487046624896  4.380477006225024 0.823438096001991 2.872403257802603  4.507673869629074 0.8521489698351448 2.902119536735071  4.483481045986071 0.7348668028986112 2.788268568055393  4.38599852936984 0.7699798820078559 2.895151403162465  4.514035553789819 0.7996978418786478 2.926865924930304  4.489751262828892 0.6793824297213956 2.807063911788437  4.391553746001064 0.716532185809617 2.917909467565603  4.520400245184372 0.7472433179061417 2.951627041262305  3.560434897967375 0.8726145473773337 2.481128775753542  3.594607238501702 0.8469055578849887 2.334883576455969  3.706376856012104 0.8739810427205204 2.433598346042467  3.711560646270068 0.8129018484560275 2.444223756241052  3.603720841959586 0.7838942477983135 2.340490675477463  3.567316497945888 0.8119638868023578 2.495410907469922  3.612825609746781 0.7209633243056661 2.346037668749796  3.574166530644203 0.7513618686579029 2.509657588532186  3.716577878573236 0.7518815353691248 2.454776067031997  3.580983437212224 0.6908012101870372 2.523892416115534  3.621903152389133 0.6581180763371084 2.351567636663879  3.721517206928818 0.6909008376255081 2.465309988041477  3.587767494232271 0.630283399295577 2.538124008672631  3.630941319481108 0.5953421404829822 2.357098876999284  3.726427137596251 0.6299744889264008 2.475843174794886  3.594510383249487 0.5698157095325015 2.552349433278836  3.639908698016319 0.5326575760000566 2.362637206459833  3.731358363973318 0.5691352719973563 2.486384712107461  3.601170731711666 0.5094292339679523 2.566570518575604  3.648736015206932 0.4700853276207325 2.368184946470569  3.736378821358559 0.5084502734845322 2.496946874957011  3.724370281775525 1.141282247703243 3.082711101866201  3.704081063170253 1.062356391008062 2.939199219735253  3.822384560095361 1.099806315808445 2.996032815519053  3.825412925076121 1.048949271364176 3.022795826828248  3.706968123709886 1.010837563877719 2.965983619177339  3.727026573158672 1.090783709578263 3.11052177784317  3.828381211514174 0.998084081419947 3.049547488054737  3.709793118079762 0.9593178684287758 2.992743592239803  3.729626638310848 1.040286956174908 3.138328061300475  3.831318955925492 0.9472196760542815 3.076287791341103  3.712585328409843 0.9078059984942044 3.019486152181014  3.732197460056686 0.9897968318171553 3.166126471285223  3.834251381274478 0.8963607685127712 3.103016720772792  3.715368143289176 0.8563072981058725 3.046215939620422  3.734762684313446 0.9393140643211506 3.193912245902549  3.83720413045812 0.8455098597451265 3.129737529124846  3.71816431234493 0.8048280998907978 3.072938506229869  3.737346177189691 0.8888375756289735 3.221682754786094  3.840206750118762 0.7946704576098146 3.156458887749065  3.721000676927003 0.7533737561695364 3.099668376551995  3.739976271795561 0.838365213967119 3.249438154501159  3.210601879748049 0.835509733660429 2.514573363730032  3.34290255657225 0.839990637507529 2.471713522390202  3.351598491880748 0.7782257343164107 2.489319065688067  3.220103168007693 0.7739816138681612 2.535717656657603  3.360370550837416 0.7165227767869893 2.506912655726519  3.229750395807351 0.7125073936418924 2.556870242848818  3.369159907701099 0.6548694261654322 2.524496668013365  3.239426685671219 0.6510644319093334 2.578021824333119  3.377913921416762 0.5932542606257767 2.542080416337595  3.249068624167983 0.5896477483208531 2.599179601266837  3.386569143991177 0.5316727873852849 2.559673668429884  3.258599008465749 0.5282475206830626 2.620353299402292  3.395030249935756 0.4701132864376824 2.57727185836777  3.267870960946247 0.4668209942185569 2.641540849578023  4.430686719128866 1.475875182254693 3.54300134515803  4.394279318787187 1.416210052499245 3.454013173467434  4.525939406320055 1.433381623113186 3.452600319701647  4.533413972678006 1.380908968682524 3.483711858823026  3.252207626418506 0.9196793074367959 3.09250719334383  3.115995800234012 0.8880590243216396 3.053622931827576  3.118677539236442 0.9537451500313532 3.167275811608131  3.113232870433986 0.9410834753000441 3.023750263422675  3.249870246320647 0.9719144654305467 3.063548501623789  3.120591502519848 0.9016425744719223 3.19754341266704  3.254523035092764 0.867466197179638 3.12145586944269  3.118731330681721 0.835059896707818 3.083487631378221  3.122476374307003 0.8495566650382377 3.227794342457984  3.25681578255324 0.8152750625951104 3.150391539117927  3.121428741313743 0.7820841059728256 3.113344276422415  3.124326101511409 0.7974774250651793 3.25802353414539  3.259076986023708 0.7631062938184803 3.179308910852404  3.124072895171965 0.7291285643152072 3.143193469611817  3.245124434881262 1.076455492413799 3.005605028218131  3.347662747127591 1.03347587099767 2.917401776827345  3.350263509551571 0.9809066375841948 2.945557665789177  3.247510140404717 1.024173560437458 3.034581711357327  3.352824897252879 0.9283543336480686 2.973694635986988  3.355357053277846 0.8758255227492013 3.001820954037063  3.357867031304811 0.8233188259820621 3.029937738503435  3.360358859624789 0.7708360498448086 3.058043801705015 
[...]
<PointData  Vectors="f_24"> 
<DataArray  type="Float64"  Name="f_24"  NumberOfComponents="3" format="ascii">2.0484265915446858e-04 -7.6465644268115449e-04 -3.9048006114888140e-05  2.0426532624728653e-04 -8.2500561348936854e-04 6.7580487369192341e-06  2.1211700036734697e-04 -7.8990103043342691e-04 3.3147688024671553e-06  1.8226548079902725e-04 -7.9024815456031150e-04 -4.4351529187883471e-06  1.7697041102226769e-04 -8.2416838131376844e-04 -7.1948694505295272e-06  1.7721019149507356e-04 -7.6189103685958927e-04 -5.1156211936466813e-05  1.5280305314530862e-04 -7.8708814468165654e-04 -9.4035386442215837e-06  1.4985334869449792e-04 -8.2084909012767899e-04 -1.6412206843801759e-05  1.5007319896641013e-04 -7.5745915938612034e-04 -5.8190178008682810e-05  1.2365564360785711e-04 -7.8175819148855040e-04 -1.3321742362246476e-05  1.2298916916024969e-04 -8.1651157441819022e-04 -2.3740730599774174e-05  1.2339501667442973e-04 -7.5276862592873583e-04 -6.3008462322180272e-05  9.4515956692471214e-05 -7.7547785865974075e-04 -1.8034521446647977e-05  9.6242380133338087e-05 -8.1219335642004637e-04 -3.1374284400607964e-05  9.6974403721466207e-05 -7.4879861422945870e-04 -6.7893647435253340e-05  6.5063163949659293e-05 -7.6925248656814678e-04 -2.5342493380330113e-05  6.9546578119131575e-05 -8.0883747829381555e-04 -4.1228152774241634e-05  7.0580853368455238e-05 -7.4649395191573849e-04 -7.4767458887481275e-05  3.4948536384483072e-05 -7.6408227122425575e-04 -3.7025028643024508e-05  4.2683383008045850e-05 -8.0715304537358858e-04 -5.5305126438023795e-05  4.4089466730009680e-05 -7.4680751130056379e-04 -8.5297236461900130e-05  8.9588694977014532e-05 -1.4645237868775155e-03 2.1129022698206503e-04  8.2610317850397122e-05 -1.3907361902215898e-03 1.7253114617423357e-04  9.9915638237485887e-05 -1.4780701365661889e-03 2.6513567306779134e-04  1.0884262169300724e-04 -1.3896565771107235e-03 1.9594391291562736e-04  7.1441046449469619e-05 -1.4728420628925102e-03 2.4615939682168036e-04  6.3028794237753101e-05 -1.4637229612658900e-03 1.8408410503352414e-04  5.5946279590375133e-05 -1.3911746124772222e-03 1.4579399609018247e-04  4.2067789828958308e-05 -1.4673304407493975e-03 2.2096000795515303e-04  3.5835795181404336e-05 -1.4625929150004990e-03 1.5132805740020880e-04  2.8511018324129847e-05 -1.3916576115496060e-03 1.1390674774727691e-04  2.1509911830646001e-04 -7.2401061278692675e-04 -3.8193428265485804e-05  2.2044113995910890e-04 -7.5601497011100005e-04 -2.8270249715343836e-06  1.8822036561924130e-04 -7.5586228499830408e-04 -3.4189810679852626e-06  1.8410835460488505e-04 -7.2371033985870468e-04 -4.5431832269000278e-05  1.5394360451926762e-04 -7.1982500723471381e-04 -4.9013185605585927e-05  1.5677305984545414e-04 -7.5119200172440981e-04 -2.6983707665356445e-06  1.2421931702839069e-04 -7.1429480322489250e-04 -5.1067377149150605e-05  1.2563854783951788e-04 -7.4360446293418570e-04 -1.7667194273840937e-06  9.4534084998888922e-05 -7.0834210404179074e-04 -5.3571713147258172e-05  9.4374604480138756e-05 -7.3416988552894597e-04 -2.0749895266203855e-06  6.4366981745250700e-05 -7.0305517325047577e-04 -5.8494116456097159e-05  6.2479047550898965e-05 -7.2373774961826754e-04 -5.2065504221044732e-06  3.3309757311808101e-05 -6.9955820159244995e-04 -6.7831552299185032e-05  2.9597398671219397e-05 -7.1318568957240978e-04 -1.2730092432236531e-05  2.0649950406324377e-04 -1.0777434669639945e-03 1.5380893243107125e-04  1.9805108005866679e-04 -1.1126052887979068e-03 1.6462180451127061e-04  2.0972670396819456e-04 -1.1338242066060438e-03 1.7748755884132835e-04  1.8012547941303949e-04 -1.1374915180797428e-03 1.7673650016422678e-04  1.6974596385939248e-04 -1.1177760858412545e-03 1.5011390878992290e-04  1.7739399408922961e-04 -1.0815483828391969e-03 1.4876114521700904e-04  1.4175427857055319e-04 -1.1182968780747457e-03 1.3826007848699088e-04  1.4851535276424335e-04 -1.0802778819035913e-03 1.4520866481958013e-04  1.5073845236896795e-04 -1.1353217702164433e-03 1.7647693291363161e-04  1.1973160668209369e-04 -1.0751495749449587e-03 1.4155768609015564e-04  1.1388108452882612e-04 -1.1159747040215202e-03 1.2716171187854370e-04  1.2138761767979565e-04 -1.1290493024137471e-03 1.7572436486557296e-04  9.0765466484212263e-05 -1.0672630902725472e-03 1.3630559971337109e-04  8.5935471510501348e-05 -1.1117502865286408e-03 1.1480395504413536e-04  9.1810628164686463e-05 -1.1195013899220122e-03 1.7306749218628660e-04  6.1492788808593490e-05 -1.0574467705512264e-03 1.2789884028558269e-04  5.7750886614976201e-05 -1.1066038395325883e-03 9.9438054592984883e-05  6.1826608638300187e-05 -1.1074263405026357e-03 1.6723966553319649e-04  3.1715862430218058e-05 -1.0463749393323162e-03 1.1468100349433904e-04  2.9103653344203424e-05 -1.1015208517202257e-03 7.9449885881962572e-05  3.1244745085564414e-05 -1.0933061134829332e-03 1.5692354149102647e-04  1.9501687810943342e-04 -1.0445384397780475e-03 1.2956828282489912e-04  1.6750203525393089e-04 -1.0484493917773457e-03 1.1340411985077269e-04  1.4018629896540188e-04 -1.0487603613538992e-03 1.0071189946392126e-04  1.1297626569726737e-04 -1.0465654184706327e-03 8.9118067547649775e-05  8.5717782418772505e-05 -1.0430418377459123e-03 7.6472064933021547e-05  5.8269565695975774e-05 -1.0392199904930325e-03 6.0843994317871969e-05  3.0444402550913259e-05 -1.0363405239173871e-03 4.0605640544874325e-05  1.9421004813245362e-04 -1.2514878819518806e-03 2.2195113839545410e-04  1.8426844415461962e-04 -1.2575870560026631e-03 2.1281563017967200e-04  1.9770745181916716e-04 -1.3174738207949099e-03 2.5192895265689386e-04  1.6975782835387481e-04 -1.3272753379949234e-03 2.3385632702185941e-04  1.5663527649398338e-04 -1.2623906943909644e-03 1.8605784318572561e-04  1.6609832295682144e-04 -1.2587405953783755e-03 2.0216945117437334e-04  1.4197804397703991e-04 -1.3315574614136461e-03 2.1878833594545207e-04  1.2973073393077696e-04 -1.2644260633918514e-03 1.6325164180153615e-04  1.3814196953045268e-04 -1.2612602093434145e-03 1.8588672347327737e-04  1.1417660492354641e-04 -1.3320462342706096e-03 2.0421214906589976e-04  1.0297813151085811e-04 -1.2645002766562667e-03 1.4158574155768858e-04  1.1015702726438369e-04 -1.2606659149101114e-03 1.7024266806675751e-04  7.6171569222078584e-05 -1.2634931013945836e-03 1.1888235113756715e-04  8.2023106882899569e-05 -1.2581976691157968e-03 1.5322163096140418e-04  8.6036787970918767e-05 -1.3299598829590161e-03 1.8788825210395028e-04  4.9090860781941466e-05 -1.2624440081764738e-03 9.3490602981341196e-05  5.3541023191514072e-05 -1.2549029419139609e-03 1.3303049256624508e-04  5.7419322660838850e-05 -1.3267010478409285e-03 1.6797898964382058e-04  2.1597637980122236e-05 -1.2623485150987973e-03 6.4174626128197452e-05  2.4643971580642824e-05 -1.2515677906772497e-03 1.0819898888064178e-04  2.8225353552624502e-05 -1.3235988534758191e-03 1.4262767847907719e-04  1.9176543942971716e-04 -8.3347876769632732e-04 -3.8148581745848937e-05  1.8468961282041719e-04 -8.2093396205735287e-04 -1.0031262235659609e-04  1.8255619544528090e-04 -8.6906350349499689e-04 -3.3846779940822464e-05  1.6095102331828388e-04 -8.5686088874164536e-04 -5.0548318726962132e-05  1.6500100127461045e-04 -8.0385116466734894e-04 -1.0800292552253787e-04  1.6856223314992683e-04 -8.2431632335383921e-04 -5.3983707362820412e-05  1.4655392438073572e-04 -7.9220106567657515e-04 -1.1105134699174741e-04  1.4584715362526201e-04 -8.1679787709985810e-04 -6.4446855938848742e-05  1.3968585123813745e-04 -8.4770412926521421e-04 -6.1976678138217419e-05  1.2364692397144410e-04 -8.1140412555613737e-04 -7.2097067739563685e-05  1.2899274444265479e-04 -7.8522663838859956e-04 -1.1215470406475814e-04  1.1916226868290078e-04 -8.4130284763176051e-04 -7.1109016230411708e-05  1.0200023858419400e-04 -8.0823469820139905e-04 -7.9562947350024201e-05  1.1229029654288408e-04 -7.8216494577629269e-04 -1.1333284937066624e-04  9.9051670048860848e-05 -8.3769309428353739e-04 -8.0133898781971943e-05  8.0861842290847120e-05 -8.0774485440462626e-04 -8.8510469932709450e-05  9.6548403294217925e-05 -7.8290098978835078e-04 -1.1594275974819053e-04  7.9353001537894334e-05 -8.3715373008801531e-04 -9.0742828658022998e-05  6.0244773182275076e-05 -8.1031507073687766e-04 -1.0050593134106204e-04  8.1909513085830405e-05 -7.8751957423170600e-04 -1.2098534940600006e-04  6.0030404506916657e-05 -8.4026269399704433e-04 -1.0425339062977568e-04  2.1596456443864854e-04 -9.7544695510667955e-04 9.7434703929260479e-05  2.1124182921888229e-04 -9.7794790689241518e-04 1.0833930329759787e-04  2.1314888207269302e-04 -1.0346105670171347e-03 1.3164025350308650e-04  1.8306896743325394e-04 -1.0349345660049432e-03 1.3752620304948360e-04  1.8153709861402030e-04 -9.7923144185665836e-04 1.0930948237948916e-04  1.8516143819939353e-04 -9.7097006485772892e-04 1.1278607729260797e-04  1.5333567800170764e-04 -1.0299502640340205e-03 1.4311039344376086e-04  1.5208942159519249e-04 -9.7548747124074015e-04 1.1083084908389752e-04  1.5478039119850147e-04 -9.6163706791157469e-04 1.2648182884864590e-04  1.2365694803371819e-04 -1.0208116032299709e-03 1.4763895341027666e-04  1.2272897015775704e-04 -9.6794474648570137e-04 1.1184046816065907e-04  1.2450443230282925e-04 -9.4823890701546448e-04 1.3847473179322254e-04  9.3821045165114197e-05 -1.0082827173618029e-03 1.5028652539530933e-04  9.3234826791582540e-05 -9.5748503469349471e-04 1.1114630266085135e-04  9.4056947649152084e-05 -9.3118192840943429e-04 1.4854074908263881e-04  6.3587513525554653e-05 -9.9279498241342467e-04 1.5002447814452106e-04  6.3374757433623099e-05 -9.4470492466983992e-04 1.0738758925968210e-04  6.3139119100869798e-05 -9.1050499610914452e-04 1.5625696792257165e-04  3.2716555518182775e-05 -9.7444907042291550e-04 1.4562765715893993e-04  3.2910328465322576e-05 -9.3017637874996358e-04 9.9034497320313024e-05  3.1377485006469625e-05 -8.8582233265913394e-04 1.6097373950253570e-04  2.0123557604789693e-04 -7.2047254633874811e-04 -9.6322559493815254e-05  1.9721868185623113e-04 -7.6141152647279801e-04 -8.4272916283400563e-05  1.7300351376953603e-04 -7.5210755223609519e-04 -9.4950555509344827e-05  1.7498444009516665e-04 -7.1280498363569182e-04 -1.0552485251092058e-04  1.4943128299487704e-04 -7.4450373905984369e-04 -9.9976149048119515e-05  1.4957780093591616e-04 -7.0601859654632578e-04 -1.0877628854640315e-04  1.2654733359169669e-04 -7.3897587359477129e-04 -1.0234680618336208e-04  1.2480246793031364e-04 -7.0077375789815485e-04 -1.0933301451045281e-04  1.0427322667160165e-04 -7.3585798265158025e-04 -1.0434939869809896e-04  1.0048581499144125e-04 -6.9758468881798118e-04 -1.0956677799662982e-04  8.2587571109135068e-05 -7.3553412062421139e-04 -1.0775051716773662e-04  7.6503738548817747e-05 -6.9696174165643360e-04 -1.1122052012461240e-04  6.1626182184262491e-05 -7.3849076694203393e-04 -1.1395638304018357e-04  5.2784838355516141e-05 -6.9930161399546519e-04 -1.1551289706404848e-04  2.1899039950410977e-04 -9.8159630916656382e-04 -2.3443536678306744e-05  2.2475518949607938e-04 -1.0720711257405384e-03 3.7314358522942700e-05  2.3069108492057436e-04 -1.1408188101431236e-03 5.6145782206869547e-05  1.9624005367026249e-04 -1.1102365996161789e-03 1.1688370367677123e-04  1.2588271767206315e-04 -7.2861506331296344e-04 2.4042801316512335e-05  1.2639569048394746e-04 -6.6577054861964168e-04 -1.6018608169203462e-05  1.2458130337158178e-04 -6.3647497912176917e-04 -4.2785268289767282e-06  1.5916807974782936e-04 -6.7606869904801538e-04 -2.2064129823898286e-05  1.5783535681997769e-04 -7.3974774437225591e-04 1.6400680769564583e-05  9.1437990987472366e-05 -6.1957644077518604e-04 5.6604080735798313e-06  9.3737146058073514e-05 -7.1478981277265589e-04 3.0012105568397404e-05  9.3474618486874555e-05 -6.5327471568922785e-04 -1.1421836514947729e-05  5.7481013812371725e-05 -6.0012821109948068e-04 1.3445799167904110e-05  6.0846366446110333e-05 -6.9860680416335423e-04 3.3449047928110832e-05  5.9726002980041117e-05 -6.3913785520142629e-04 -9.3691867237424212e-06  2.2010269977144933e-05 -5.7792465291873747e-04 1.8591624150050879e-05  2.6662209685071264e-05 -6.8001941380155923e-04 3.3302894782770292e-05  2.4420804413785640e-05 -6.2352613385833415e-04 -1.1311472401495052e-05  2.2321762352309790e-04 -7.5089909457913355e-04 -1.4118607482616172e-06  2.1909204991705914e-04 -8.0801386544144822e-04 2.6810026365678313e-05  1.8752065134152980e-04 -8.0770302801540239e-04 2.8439978870203414e-05  1.9011713472127370e-04 -7.4751288799212588e-04 7.7302600338751939e-06  1.5657589484736824e-04 -8.0278898193573078e-04 3.0996880644263092e-05  1.2585884641332649e-04 -7.9460960774076900e-04 3.3317203461577345e-05  9.4993820179661021e-05 -7.8406245941504233e-04 3.4200995461020531e-05  6.3598504739717656e-05 -7.7181370109697799e-04 3.2263059582248653e-05  3.1248198981984030e-05 -7.5830239677962628e-04 2.5711925607295049e-05  2.2231200559188986e-04 -1.1701947766507386e-03 1.6830493280716556e-04  2.2577754134894040e-04 -1.2553181747620482e-03 2.0617188194650929e-04  2.2637009305039122e-04 -1.1824766227710741e-03 1.5371939359620513e-04  1.9413072911874551e-04 -1.1721533305026333e-03 1.8572549542549544e-04  1.9457250594605863e-04 -1.2533503348505369e-03 2.2518147893965554e-04  1.9099863875412566e-04 -1.1650644206091549e-03 1.9009129262449390e-04  1.6234911033335088e-04 -1.1571708138995703e-03 2.1398089583352288e-04  1.6369726354104443e-04 -1.2455515442254136e-03 2.4198079002516943e-04  1.6002172033264327e-04 -1.1547708746085341e-03 2.0931272789029696e-04  1.3053800220058602e-04 -1.1377572816961481e-03 2.3939178799326180e-04  1.3267598045837371e-04 -1.2327137755571336e-03 2.5659698221450482e-04  1.2902567255064241e-04 -1.1398902166840877e-03 2.2631398799132996e-04  9.8238975616884430e-05 -1.1137805428745628e-03 2.6274755649018637e-04  1.0110311489864440e-04 -1.2151998504382911e-03 2.6887475380982169e-04  9.7635222188505139e-05 -1.1206589612500924e-03 2.4122246370449464e-04  6.4946434800462044e-05 -1.0846568165813672e-03 2.8469120637405121e-04  6.8510833170715531e-05 -1.1929583425535661e-03 2.7840006476492681e-04  6.5428760973876182e-05 -1.0968569064145465e-03 2.5390854740486168e-04  3.0132258331354466e-05 -1.0493677186830213e-03 3.0577079616482593e-04  3.4325468918248287e-05 -1.1655596200312135e-03 2.8451045304036350e-04  3.1916165914988946e-05 -1.0675320574150843e-03 2.6392706370820376e-04  1.7782180503508007e-04 -9.8865684223595684e-04 6.6052855878473207e-05  1.7394626061072326e-04 -1.0341630273999070e-03 8.3729850517654390e-05  1.8620194735118449e-04 -1.0605074093997925e-03 1.2358536210592478e-04  1.5964224986957497e-04 -1.0635669246381629e-03 1.0036070313984752e-04  1.4850939498378644e-04 -1.0304762050029920e-03 5.7095484109309661e-05  1.5278377732625166e-04 -9.8462685615724878e-04 4.1837525478243308e-05  1.3337302346853457e-04 -1.0638037231914521e-03 8.1988420869039518e-05  1.2407337191972182e-04 -1.0273209386082844e-03 3.6095587216865993e-05  1.2830086426525230e-04 -9.8073116877211270e-04 2.3156465878529012e-05  1.0739201646006795e-04 -1.0628297611241547e-03 6.5569860964191564e-05  1.0013235441587878e-04 -1.0250718201647775e-03 1.7189489185125070e-05  1.0413035724028239e-04 -9.7740546897112754e-04 6.4948328393854291e-06  8.1462554927074724e-05 -1.0616407111527781e-03 4.8687370759119488e-05  7.6375355386907443e-05 -1.0241607484733201e-03 -2.0220612192491396e-06  8.0083826150335587e-05 -9.7520265493594791e-04 -1.0567505543064700e-05  5.5385443820487129e-05 -1.0610844528362849e-03 2.9231400995513516e-05  5.2550863035459846e-05 -1.0251574356918152e-03 -2.3330206788012581e-05  5.6053780901816694e-05 -9.7478254196525793e-04 -2.9883728252332053e-05  2.8954516560940565e-05 -1.0621201941133187e-03 4.8830862817553327e-06  2.8528036808625289e-05 -1.0288200308498437e-03 -4.8060744158653797e-05  3.2057742876139030e-05 -9.7715188143186510e-04 -5.2628301704276957e-05  1.7975606939131194e-04 -1.1601401294991853e-03 1.6056064843332637e-04  1.5291724944391553e-04 -1.1616358079460111e-03 1.3331240193361734e-04  1.2655519326931593e-04 -1.1614366266194602e-03 1.1040643033290591e-04  1.0050882073008449e-04 -1.1605002782572884e-03 8.9143968954654871e-05  7.4546502479497505e-05 -1.1594899015516444e-03 6.7289270348718481e-05  4.8465516601265093e-05 -1.1591346169833247e-03 4.3018461362287025e-05  2.2211150109554589e-05 -1.1603525497676610e-03 1.4771375878919915e-05  2.1472236227322071e-04 -1.2594769042659677e-03 2.2790585954256419e-04  2.2164466624023093e-04 -1.3256424063183905e-03 2.5046046811621949e-04  1.9170376641816059e-04 -1.3306877420585644e-03 2.5659147237635827e-04  1.8498026178600255e-04 -1.2646085379073523e-03 2.2956173830346695e-04  1.6197929977383100e-04 -1.3291393435494517e-03 2.6218820577483880e-04  1.5537309071263921e-04 -1.2635341810138187e-03 2.3144352255567252e-04  1.3204494722318948e-04 -1.3223226192775384e-03 2.6636320099758954e-04  1.2563106861159318e-04 -1.2575830263237594e-03 2.3244615169536011e-04  1.0152180045402428e-04 -1.3111193792786624e-03 2.6809228866471474e-04  9.5472782933579497e-05 -1.2477131006057871e-03 2.3135356522582516e-04  7.0001689060435415e-05 -1.2961136583092543e-03 2.6609120115928615e-04  6.4600586277326991e-05 -1.2346850784093577e-03 2.2665585577742592e-04  3.7076233752278596e-05 -1.2776620624652998e-03 2.5877391635445484e-04  3.2684321614885732e-05 -1.2190865134489078e-03 2.1631359610731576e-04  2.0422917041884714e-04 -1.0112823259913974e-03 1.2173004027411617e-04  1.7569038814997068e-04 -1.0147340077732547e-03 1.1330554388063424e-04  1.4736128921409859e-04 -1.0136134131768372e-03 1.0706621491566854e-04  1.1911134510223805e-04 -1.0091593549332800e-03 1.0131664952669942e-04  9.0770897038647966e-05 -1.0025219272506766e-03 9.4270541453498523e-05  6.2177314907759182e-05 -9.9462566002648232e-04 8.4127004586282664e-05  3.3187015302772124e-05 -9.8635489747584131e-04 6.8737752182354138e-05  9.1181596650628542e-05 -8.0078465688399243e-04 -1.2205134424041448e-04  1.2327820519852077e-04 -7.7457139704116139e-04 -1.2523494410240305e-04  2.1926548602869595e-04 -1.2124164324242965e-03 2.0029097049945079e-04  1.8882823281819199e-04 -1.2129863178749741e-03 2.1142828614410976e-04  1.5851469136189331e-04 -1.2078334869821013e-03 2.2139690016384576e-04  1.2814136450951433e-04 -1.1978260337098662e-03 2.2984321655547969e-04  9.7387219655176678e-05 -1.1836389382333917e-03 2.3615392842087912e-04  6.5926651083589595e-05 -1.1655976722615864e-03 2.3941202511851327e-04  3.3378712889418319e-05 -1.1437337692472716e-03 2.3810981001365095e-04  2.2086258904099876e-04 -1.0876898506290591e-03 1.1123025423862638e-04  2.1836338689194961e-04 -1.0832720250900027e-03 1.3392703453076407e-04  1.8730732362454817e-04 -1.0767519249460214e-03 1.5555055608382112e-04  1.8878047833369101e-04 -1.0736916182468297e-03 1.4584377463140093e-04  1.5649524911620302e-04 -1.0654233967098479e-03 1.7463856647379226e-04  1.5711102270549391e-04 -1.0557850002125100e-03 1.7649642853150173e-04  1.2574379177868766e-04 -1.0497523509340435e-03 1.9161142352036505e-04  1.2550914614661962e-04 -1.0339914997451833e-03 2.0425601661781288e-04  9.4730943178661552e-05 -1.0299486732321267e-03 2.0662699733162894e-04  9.3575034533137456e-05 -1.0080507745174371e-03 2.3017450453123513e-04  6.3095746212503360e-05 -1.0058234797906168e-03 2.1963099552991828e-04  6.0841538130681267e-05 -9.7729286157511208e-04 2.5522600795999985e-04  3.0343085702030661e-05 -9.7678698300242024e-04 2.3020230489526275e-04  2.6674845623797659e-05 -9.4055132808530369e-04 2.8053263532032353e-04  7.1612473412363135e-05 -1.3650577905569537e-03 1.2133986871518456e-04  4.7003305134481589e-05 -1.3656814859057574e-03 8.8485658333886975e-05  2.2195141781091160e-05 -1.3676085610015661e-03 5.1419744231987578e-05  2.1663126805603400e-04 -9.9772443245527771e-04 9.2411037114550819e-05  2.1713049997326613e-04 -1.0130731375440061e-03 8.2315270173957141e-05  1.8532206841687647e-04 -9.9781167121938555e-04 1.1634933177228469e-04  1.8538331627471606e-04 -9.8792649584583734e-04 1.1791116475306643e-04  1.5402502840688214e-04 -9.7893248539050130e-04 1.4650640295624874e-04  1.5460032165147511e-04 -9.7381421800647055e-04 1.4034107631469110e-04 