<?xml version="1.0"?>
<VTKFile type="UnstructuredGrid"  version="0.1"  >
<UnstructuredGrid>
<Piece  NumberOfPoints="1042" NumberOfCells="4506">
<Points>
<DataArray  type="Float64"  NumberOfComponents="3"  format="ascii">10.71151990722335 4.043168749830587 0.9568038549299135  10.74876089847245 3.94915651307609 0.8939474617986947  10.6324966731378 3.930011763891823 0.8942396114288712  10.62747009302633 3.96653613917826 0.827265241402291  10.74399711111163 3.986427799953603 0.8257835018532294  10.70485065318515 4.087477987637863 0.8935187551706726  10.69856243607851 4.131789383440235 0.830539691038461  10.73958654535454 4.02373817712426 0.7579743710025364  10.62280603142874 4.00314671426714 0.7606084943824587  10.69249085665298 4.175983498573603 0.767869501217339  10.73536947491991 4.06099700817744 0.6904485074505515  10.61832417773047 4.039764459200968 0.6941721061191282  10.68652832565394 4.22007898589764 0.7054765933464763  10.73125500443526 4.098234041736821 0.6232035552460737  10.61395556840671 4.076437459029695 0.6279562427818498  10.68049746354168 4.264032223140249 0.6433484553912823  10.72706877938715 4.135377023194204 0.5562471230567434  10.609464986437 4.112987534246306 0.5619235696292592  10.67404998811983 4.307649294158229 0.5813909103865424  10.72244583577395 4.172178013834615 0.4895458253199138  10.60460800424038 4.14921553020435 0.4960554435512169  10.59813569376975 4.070543356058357 0.987078191790894  10.59071253183514 4.117362057732481 0.9272355138604951  10.58364472897117 4.164178031200425 0.867658467564883  10.57679874295857 4.210921561203298 0.8083058934916338  10.57007276118012 4.257616776870304 0.7491748403251995  10.56323817007321 4.30412068614754 0.690222523722747  10.55601829386584 4.350300107409869 0.6313874714536349  10.53748850807149 3.984317669945653 0.9341898421897697  10.53021924122578 4.025594858744669 0.8710940059219062  10.52330575941244 4.06696359612218 0.8082397968683723  10.51661961158612 4.108398150736287 0.7455690310228572  10.51001186032786 4.149838112807871 0.6830622485399475  10.50326583014895 4.191120197459775 0.6206735663303385  10.49614262560211 4.232078894619485 0.5583342125340891  10.56484382939248 3.369792704725523 0.7627306381169537  10.4712273986084 3.309904896692468 0.7775194254748214  10.48425787727582 3.441228915326241 0.7678286633389517  10.47969359877315 3.444176972423119 0.6957786112463238  10.46496116872203 3.303527730016263 0.7076257189170276  10.55882409546924 3.368622468451551 0.6911180908303763  10.47545248723199 3.447431554959965 0.6236451753776425  10.45901994824625 3.297383951040388 0.6376029192042644  10.5531906806731 3.367765975252509 0.6194414197217806  10.47137355113637 3.450849818129154 0.5514923208409682  10.45323924241637 3.291372812748197 0.5675378433011157  10.54774894733779 3.367107409730816 0.5477541576721194  10.46730070011156 3.454288393068223 0.479359060411132  10.44746002064233 3.285388501789257 0.497487451027341  10.54232450438181 3.366507922256132 0.4761011457374481  10.46304938246314 3.457568446115016 0.4072659241414993  10.44151238954436 3.279283469936465 0.4274803159785424  10.5367091260848 3.365769699065065 0.4045154169707135  10.45839172997819 3.460462578879403 0.3352009619410806  10.43517529576783 3.272850153523462 0.3575120995297871  10.53059293386949 3.364618927161996 0.3330268304921413  11.463981502974 3.316609612104434 0.8195454816880586  11.34686505564315 3.311228099759348 0.810327781299185  11.34773837954865 3.432646528384613 0.796512096972129  11.35384799780356 3.428439110420911 0.7135149389092847  11.35354052891953 3.300191583855344 0.7301022639155678  11.47060339880916 3.304840898242374 0.736836302739368  11.3597479716618 3.42424198588288 0.6308268534389486  11.3599016762085 3.28933948783983 0.6500602584781214  11.47684426570543 3.292912212535971 0.6542439746791174  11.36543240925791 3.42018892147241 0.5483693935852272  11.36594845692681 3.278626691637834 0.5701417567325884  11.48278854502053 3.280932023739475 0.5717283273578303  11.37096055499209 3.416297999148043 0.4661123499054883  11.37175230389365 3.268034292961284 0.4903221972108031  11.48852505569578 3.26900425678671 0.4893260992446887  11.37632245370277 3.412592996237792 0.3840998038673847  11.3773055518566 3.257525123615073 0.410543490887964  11.49391682980897 3.257169976802157 0.4070602598347608  11.38150643573359 3.409070114346916 0.3023982328368185  11.38266633712927 3.247037740857627 0.3308133156076015  11.49919760609758 3.24578251187429 0.3248515312828505  11.59346506746749 3.886564994141732 0.8316435435560761  11.47800920044026 3.880605414431695 0.8407426721807149  11.47791584296261 4.003118700952301 0.8740228665872284  11.47551110791438 3.902915835739474 0.7489216671901819  11.58872363384573 3.907093789181672 0.7352836825319318  11.47260903825902 4.037897842418194 0.7845558416407734  11.47298037034272 3.92455657431624 0.6580329486702673  11.583861645083 3.925943550720591 0.6398699561132021  11.46754606756564 4.071995802329653 0.6960328619634885  11.47085858016383 3.945809481909273 0.5680483870937851  11.57930977189483 3.944164178172117 0.5455270139139168  11.4628375154502 4.105473724357366 0.6086859963547535  11.46941730443678 3.967192169713055 0.4790681387244151  11.57536487445918 3.962621288943062 0.4521370065010414  11.45859200985625 4.138690408075821 0.5225211164339574  11.46816701999639 3.98864354743655 0.3910301606285965  11.57138428746894 3.981286687621159 0.3595305833120773  11.45465764620497 4.171647837808933 0.4374537392430664  11.46694538201392 4.01077559125528 0.3037729300506535  11.5670350452902 4.002045550912146 0.2679153251834334  11.45170814456725 4.204446461136603 0.3533284276933442  11.22997103046173 3.426531185813658 0.7914856591654493  11.23705191388562 3.423223700251146 0.7111648493710927  11.24396813895229 3.420226707343143 0.6311707505055305  11.25073942792559 3.417455144174169 0.5514136211732237  11.25738073935038 3.414881038773973 0.4718465966311964  11.2639419428922 3.412506950348615 0.3924570268977842  11.270226713697 3.410026018209291 0.3133723453579542  11.03476076551456 3.842926719436334 0.8335538807228564  10.93790293295784 3.922998007714075 0.8710715376434831  11.04606684228884 3.950988271890659 0.8744822498879429  11.04112232920423 3.983753303587192 0.7982779386690242  10.93307920744716 3.956349429656368 0.7978575076690816  11.03268030134492 3.869897257411676 0.7562189938387476  11.03652480497724 4.016579807762517 0.7226415592121956  10.92865532000047 3.989708279435538 0.7250437568557675  11.030886514308 3.897024364777702 0.6793409073590582  11.03224158186802 4.049238355386573 0.6474438467095667  10.92448273887137 4.022976720850058 0.6526235595438016  11.02939122347001 3.924123682845797 0.6028976649607125  11.02804508724533 4.081668529359559 0.5727311428393531  10.92036667550835 4.056081168588315 0.5805946869011067  11.02803107072481 3.951152910207172 0.5269152376545072  11.02389123954283 4.114019035360588 0.4985964917235434  10.91625821263005 4.089143920354583 0.5089999310491161  11.02680445538437 3.978248811017441 0.451454018739912  11.01951824075957 4.146062087245387 0.4250977169268927  10.91185814225859 4.121882102206438 0.4378746346475996  11.02525487197191 4.005018467065403 0.3766107072011883  10.9136377281148 3.819243745229363 0.8286580869030881  10.91169392350685 3.847289261450252 0.7542196813299373  10.91012574050164 3.875420003574674 0.6802219789229698  10.90876583766411 3.903576935689701 0.6065776281392674  10.90749389621228 3.931723366645701 0.5332830970579971  10.90623265743338 3.959907304390375 0.4603668849872371  10.90455195823047 3.987739462764954 0.3879220388135187  10.37633601954526 3.402873935499565 0.7748291949504683  10.37196022734651 3.402132975251975 0.7033773936222131  10.36784228151193 3.401629638235388 0.6317944934941488  10.36384188413266 3.401230318183377 0.5601640159393052  10.35982415910902 3.400813560587842 0.4885251254743764  10.35564534902201 3.400233881523786 0.4168956410302932  10.35116616425299 3.399333335504394 0.3452552518025946  11.22790617751711 3.306292050552692 0.7990438024369783  11.23702168843928 3.297111687456256 0.7212155065463708  11.24582204953619 3.288227193041299 0.6435489657621375  11.25439451752287 3.279579102922614 0.5660226690853944  11.26279387255076 3.271126618520275 0.4885866220336212  11.27104561128592 3.262801957290114 0.4111870423922496  11.27906250017655 3.254331242219455 0.3338960439928111  10.52430655103814 3.007188644122811 0.8490791098468164  10.4067058684388 2.957967669040133 0.8893879569724346  10.44453004051311 3.080552378907928 0.831644204204399  10.43732976377541 3.05680776355538 0.7694896265649637  10.3996800991813 2.927724709697191 0.8329064556200249  10.51788671014415 2.980211936717541 0.7889992177167564  10.43037965134929 3.033069749987491 0.7072600632900277  10.39280688481705 2.897383600536008 0.776435372277454  10.51168247745898 2.95323493436447 0.728875750648652  10.42352621306582 3.00935485153486 0.6450080127376409  10.38597579518506 2.867012597336809 0.7199845726733796  10.50553413790165 2.926260345734927 0.6687577565154686  10.41663932832074 2.985648450437385 0.5827775234735273  10.37909386297332 2.836625807466086 0.6635661525693652  10.49933243393605 2.899285787614975 0.6086773879309719  10.40958096234889 2.961915840690379 0.5205930665724945  10.37207474989733 2.806241018570995 0.6071701229124833  10.49294771961653 2.872304183628473 0.5486580301294932  10.40221222441875 2.938141232263062 0.4584378831521286  10.3648658183682 2.775951559315541 0.5506953645098178  10.48625009781324 2.845336592621499 0.4886450140280667  10.56496865382172 2.92256245574689 0.8922283184538431  10.55849271978229 2.890994330854562 0.8363684279898489  10.55216656245296 2.859385628168823 0.7804955418204643  10.54584382645324 2.82772352419246 0.7246439033589372  10.53945877898703 2.79602454449733 0.6688206901979644  10.53294977628977 2.764318894152006 0.6130138298327922  10.5262057077465 2.732693773675694 0.5571726567948395  10.90438435579549 3.48702803564371 0.7585948
[...]
<PointData  Vectors="f_24"> 
<DataArray  type="Float64"  Name="f_24"  NumberOfComponents="3" format="ascii">-4.2162137796464605e-02 -1.7965318847158638e-03 1.8092694734211955e-02  -4.2925131417443203e-02 -9.1994710320208450e-03 1.6735051819087989e-02  -4.1728070513521127e-02 -8.7595591346561769e-03 1.8657860089095441e-02  -4.2383995557307465e-02 -1.1164541683894058e-02 2.0469498221073103e-02  -4.3431670542728819e-02 -1.1596378383249305e-02 1.8451155533579691e-02  -4.2364073047736588e-02 -5.3864709266601410e-03 1.8893833400142470e-02  -4.2469783333463719e-02 -8.4168349380857564e-03 1.8899790218974345e-02  -4.3838600175407645e-02 -1.3530712871884721e-02 1.9348750708197825e-02  -4.2890760192783907e-02 -1.3152122962146330e-02 2.1385119964649483e-02  -4.2590367449787524e-02 -1.1005429026610213e-02 1.8299113131420155e-02  -4.4224069494756497e-02 -1.5123852510387715e-02 1.9589451231707158e-02  -4.3391382084712909e-02 -1.4778278483479859e-02 2.1613384729042815e-02  -4.2787114685557140e-02 -1.3247448374925599e-02 1.7204893067835500e-02  -4.4670090402468110e-02 -1.6425957773649285e-02 1.9305513668388556e-02  -4.3960730858945515e-02 -1.6102412202597845e-02 2.1298567481700378e-02  -4.3113476457786862e-02 -1.5219069744031213e-02 1.5703521816796080e-02  -4.5242934742357535e-02 -1.7483017648230525e-02 1.8594091490867715e-02  -4.4657479408220319e-02 -1.7178584413691769e-02 2.0545194970875650e-02  -4.3616602610413266e-02 -1.6983054163215893e-02 1.3856358169535727e-02  -4.5996351118610036e-02 -1.8335305923885523e-02 1.7552983636638892e-02  -4.5531113202420481e-02 -1.8031481694072791e-02 1.9413438345005841e-02  -4.0979068362669395e-02 2.3798293388443332e-03 2.0070320858199858e-02  -4.1107275506669184e-02 -1.8202741450706222e-03 2.0268810201673308e-02  -4.1166676778780033e-02 -5.3328955167718569e-03 1.9712616202022165e-02  -4.1253490882861843e-02 -8.3436558881860839e-03 1.8580000934172631e-02  -4.1433655418086225e-02 -1.0974016648392298e-02 1.6969296024615617e-02  -4.1756382074755731e-02 -1.3316925535647634e-02 1.4958342473274419e-02  -4.2250397681665955e-02 -1.5461716557313186e-02 1.2612447101773196e-02  -4.0669894154739913e-02 -3.5090803711756583e-03 2.1111307457517731e-02  -4.1061002142275822e-02 -6.9012513081511155e-03 2.2239238977258279e-02  -4.1388698998367168e-02 -9.6935183914374137e-03 2.2516008601428574e-02  -4.1745191306321691e-02 -1.2032518669409244e-02 2.2133521010660448e-02  -4.2193697159578915e-02 -1.4022243324778657e-02 2.1219701421496949e-02  -4.2787970182439065e-02 -1.5738391555780239e-02 1.9872130333235104e-02  -4.3563430044063135e-02 -1.7241895424922101e-02 1.8170046894534865e-02  -4.4278085453379662e-02 -3.6295583873685276e-02 -3.3318639921455889e-04  -4.3400737076748512e-02 -3.9536155004552480e-02 -2.0510388948740653e-03  -4.2942446807609988e-02 -3.2635153742380289e-02 5.7319615580915927e-03  -4.4444006730860415e-02 -2.9228776988387700e-02 8.3927464597808293e-03  -4.4854772280605804e-02 -3.4836036773162021e-02 -2.5926720718991051e-05  -4.5715833729483957e-02 -3.2264050323828709e-02 2.0000948985246744e-03  -4.5832742362169200e-02 -2.5970137709459530e-02 1.0244846554019018e-02  -4.6241002206074584e-02 -3.0412299754817743e-02 1.3415126786450711e-03  -4.7086932798091265e-02 -2.8371104697128082e-02 3.6343926062980393e-03  -4.7208583196152801e-02 -2.2749697568025896e-02 1.1459305319832695e-02  -4.7626229502286607e-02 -2.6133632641199115e-02 2.1582806967775270e-03  -4.8450172608008955e-02 -2.4557046795335775e-02 4.7086739791256660e-03  -4.8647901042590994e-02 -1.9496689066588878e-02 1.2148859657600795e-02  -4.9068649906642815e-02 -2.1881516910565786e-02 2.5229132286713834e-03  -4.9870769836850730e-02 -2.0744034042224739e-02 5.3207629366295575e-03  -5.0213027118887955e-02 -1.6148902054097757e-02 1.2393251708505073e-02  -5.0626513157917011e-02 -1.7562708080414515e-02 2.4967879519355433e-03  -5.1419110047985987e-02 -1.6863153664678710e-02 5.5356813635387405e-03  -5.1964311581526097e-02 -1.2651056610951212e-02 1.2248192796561487e-02  -5.2368837650775282e-02 -1.3094279645455835e-02 2.0793245383536117e-03  -5.3178420111123427e-02 -1.2857411390657885e-02 5.4104768943272746e-03  -5.3643251616151258e-02 -4.9149328479581263e-02 -2.1574146233853519e-02  -5.2581009356894158e-02 -4.7794097761516934e-02 -2.0345590979499270e-02  -5.2586436962569053e-02 -4.3006901553604315e-02 -1.3048063664148438e-02  -5.3581604539111843e-02 -3.8428748693709956e-02 -1.1600268143813930e-02  -5.3750060751169705e-02 -4.2745884336235440e-02 -1.9585467503841950e-02  -5.4686451482149769e-02 -4.3869047401448931e-02 -2.0901752710603825e-02  -5.4434770229606876e-02 -3.4243724449847780e-02 -1.0526060097715881e-02  -5.4793667262916908e-02 -3.8156166076973398e-02 -1.9031575881936859e-02  -5.5642445085251395e-02 -3.9112537783828456e-02 -2.0412924349583691e-02  -5.5223893514187987e-02 -3.0220902604300576e-02 -9.7631638147905389e-03  -5.5791184215700625e-02 -3.3747954059906674e-02 -1.8676216117792768e-02  -5.6573423480698493e-02 -3.4587288811005944e-02 -2.0118069650855393e-02  -5.6012947850301274e-02 -2.6179660286741260e-02 -9.2779812918588091e-03  -5.6791550101127630e-02 -2.9319762787779168e-02 -1.8516693020899564e-02  -5.7514990574469370e-02 -3.0055107689831342e-02 -2.0016891232345891e-02  -5.6853101940432325e-02 -2.1968079707468769e-02 -9.0350102266901922e-03  -5.7842616254528072e-02 -2.4704033693530681e-02 -1.8547450369309507e-02  -5.8494358211986626e-02 -2.5303438561287261e-02 -2.0103601597453530e-02  -5.7783260869570800e-02 -1.7467818062645194e-02 -8.9939854066841459e-03  -5.8985957033306516e-02 -1.9758120526224693e-02 -1.8763975599961596e-02  -5.9522277179379440e-02 -2.0131978680309200e-02 -2.0353391086467078e-02  -5.6249652308348601e-02 -2.8674694700323012e-02 8.4562189156899992e-03  -5.4098445450034074e-02 -2.6859300694039343e-02 7.2886921821138095e-03  -5.3627897170158388e-02 -2.0662837880152104e-02 1.0906168201951510e-02  -5.3204705094038220e-02 -2.5958467962297463e-02 9.8496984157878439e-03  -5.4639389175368612e-02 -2.7463048790247458e-02 1.0929475161077047e-02  -5.2191287641661623e-02 -2.1559919179540501e-02 1.3055939661697021e-02  -5.2274983554763954e-02 -2.5271195437907647e-02 1.1480005984093180e-02  -5.3164280492021529e-02 -2.6695730023876856e-02 1.2279865325950743e-02  -5.0727744261490515e-02 -2.2412384789884467e-02 1.4156610804056445e-02  -5.1384018621567343e-02 -2.4568638147097598e-02 1.2430458106895506e-02  -5.1844148300448728e-02 -2.5889631622260920e-02 1.2984641992942367e-02  -4.9350383760775954e-02 -2.3090242633112427e-02 1.4586543214548962e-02  -5.0579705070210243e-02 -2.3710947872814182e-02 1.2921803666258468e-02  -5.0682810309477647e-02 -2.4853377635931602e-02 1.3284594502044621e-02  -4.8094764715325464e-02 -2.3545626829595930e-02 1.4564105511371606e-02  -4.9884994029440639e-02 -2.2616363898761049e-02 1.3092855099018292e-02  -4.9670034087942440e-02 -2.3475824881304844e-02 1.3307518980307456e-02  -4.6985312784398908e-02 -2.3747699145808571e-02 1.4234239511242145e-02  -4.9292283785169241e-02 -2.1250530978617923e-02 1.3058328497456967e-02  -4.8740262259526337e-02 -2.1721977269416673e-02 1.3196765207958988e-02  -4.6016682060997995e-02 -2.3691946647369126e-02 1.3724092997365021e-02  -5.1126522796605040e-02 -4.1608371993384283e-02 -1.1772019725217025e-02  -5.2365638833494599e-02 -3.7312761463970300e-02 -1.0250032114635373e-02  -5.3411927351054649e-02 -3.3327709142176060e-02 -9.1094575135816907e-03  -5.4356793235163764e-02 -2.9475937628704627e-02 -8.2986004909754163e-03  -5.5285266108803806e-02 -2.5607705490122739e-02 -7.7783643444009768e-03  -5.6267745339714223e-02 -2.1602740412813490e-02 -7.5112016272858824e-03  -5.7372654914811708e-02 -1.7369204202978560e-02 -7.4693604668018242e-03  -4.7002903219890500e-02 -1.9935970696275389e-02 9.5286853118633722e-03  -4.5313470395960197e-02 -1.3784751933647595e-02 1.2907487448371325e-02  -4.6652227136187614e-02 -1.4480224934085092e-02 1.1802435733285906e-02  -4.6822125379743867e-02 -1.5936726848219531e-02 1.3943281547065279e-02  -4.5700122505647645e-02 -1.5307034106874369e-02 1.5049752318309208e-02  -4.7565587848916333e-02 -2.0143706635562100e-02 1.2057386486829256e-02  -4.6886145030116254e-02 -1.7178455084726950e-02 1.5199845824875585e-02  -4.6007369784925901e-02 -1.6552708093810750e-02 1.6362423639789365e-02  -4.7974002010696723e-02 -2.0182468928405434e-02 1.3758275198770643e-02  -4.6947651119839277e-02 -1.8148893475399861e-02 1.5792219857738560e-02  -4.6285365033323048e-02 -1.7510760430563103e-02 1.7016153230259384e-02  -4.8331158840877603e-02 -2.0066002926699491e-02 1.4803126023931770e-02  -4.7070090636545409e-02 -1.8863464117612024e-02 1.5889830560224100e-02  -4.6614615921900686e-02 -1.8217365522566208e-02 1.7155233516882969e-02  -4.8719394367435435e-02 -1.9780465807213848e-02 1.5341482237406525e-02  -4.7319897655034859e-02 -1.9352595330813332e-02 1.5609499868326437e-02  -4.7066260119440151e-02 -1.8702644860577211e-02 1.6890336896081593e-02  -4.9210166561239416e-02 -1.9321474375104699e-02 1.5489107564854479e-02  -4.7760072494374091e-02 -1.9649050890369158e-02 1.5032186392198946e-02  -4.7721119887379961e-02 -1.8985921882707594e-02 1.6305418316992250e-02  -4.9873834606402628e-02 -1.8687909301992225e-02 1.5335278198597022e-02  -4.5508073356630353e-02 -1.8934294236144653e-02 1.1057045201182799e-02  -4.6300141156266669e-02 -1.9317739229475387e-02 1.3572404588590877e-02  -4.6923072312292612e-02 -1.9433376529962316e-02 1.5275914630622091e-02  -4.7491683011294354e-02 -1.9367585357363184e-02 1.6325442343752532e-02  -4.8089783667129835e-02 -1.9128583615088717e-02 1.6856290770468935e-02  -4.8792921602763398e-02 -1.8717772849027710e-02 1.6977515515163275e-02  -4.9670158685266044e-02 -1.8124848590836982e-02 1.6776217940466159e-02  -4.1955219896456744e-02 -3.4168596427057829e-02 6.2693360150241568e-03  -4.3487425228853988e-02 -3.0305329698354155e-02 8.8184202799064630e-03  -4.4899575232753119e-02 -2.6656814512141823e-02 1.0490212486521624e-02  -4.6325080368379901e-02 -2.3086631692956317e-02 1.1511963250088013e-02  -4.7828266459223057e-02 -1.9495422415427090e-02 1.2005302404112669e-02  -4.9456180444120534e-02 -1.5808663521358554e-02 1.2051203502319632e-02  -5.1226703816728461e-02 -1.1963957004412704e-02 1.1695151137951351e-02  -5.1436599261114269e-02 -4.6196804744184361e-02 -1.8769243526479178e-02  -5.2767602528618618e-02 -4.1424652743126407e-02 -1.7876943409155872e-02  -5.3928510189291484e-02 -3.6992990148760854e-02 -1.7227313196152970e-02  -5.5004068562635892e-02 -3.2708384478873080e-02 -1.6798670196478668e-02  -5.6070557855260751e-02 -2.8410970631096370e-02 -1.6580210373087372e-02  -5.7189954397953012e-02 -2.3962903142343027e-02 -1.6562665685772093e-02  -5.8424424738461662e-02 -1.9258449601645525e-02 -1.6757684599377955e-02  -4.5511888770632766e-02 -5.7924351597271377e-02 -2.5739187278999286e-02  -4.4083651584008197e-02 -6.2771884152435189e-02 -2.8132948835545471e-02  -4.4137804931724874e-02 -5.3680036871467385e-02 -1.8378498234402810e-02  -4.5343142410601486e-02 -4.7648619408834345e-02 -1.8652189025027709e-02  -4.5068269415762696e-02 -5.6898520586513436e-02 -2.9706654752591849e-02  -4.6543779149953772e-02 -5.2059047244161744e-02 -2.6691724896758078e-02  -4.6497323402115050e-02 -4.2182403382299165e-02 -1.9137150957626026e-02  -4.5981640353587296e-02 -5.1567071414023162e-02 -3.1202140181130912e-02  -4.7517436938393817e-02 -4.6738593728144220e-02 -2.7673176388194328e-02  -4.7639040031803213e-02 -3.6961208847140110e-02 -1.9855436501483172e-02  -4.6881903289440127e-02 -4.6432530258981336e-02 -3.2696780506461166e-02  -4.8476815656515904e-02 -4.1623814912164013e-02 -2.8733298297818337e-02  -4.8824614934895136e-02 -3.1756666420240449e-02 -2.0810092183476674e-02  -4.7800241034915376e-02 -4.1247724869994611e-02 -3.4278842761916908e-02  -4.9464286126883583e-02 -3.6485743641225539e-02 -2.9927010852789506e-02  -5.0100041088134990e-02 -2.6409954538852205e-02 -2.2022172727275600e-02  -4.8776980763093052e-02 -3.5823656388764787e-02 -3.6037542758600064e-02  -5.0522243462968228e-02 -3.1156928443800930e-02 -3.1314711305243777e-02  -5.1513593587514665e-02 -2.0809748609880253e-02 -2.3514101356746236e-02  -4.9859333443323231e-02 -3.0020475421372150e-02 -3.8066899873112875e-02  -5.1698698314506276e-02 -2.5525917766530702e-02 -3.2971336955183693e-02  -4.6319959174868398e-02 -6.4248766059436913e-02 -3.3462940113600355e-02  -4.7092108393216703e-02 -5.8842060100129115e-02 -3.5240505033416504e-02  -4.7818421529119248e-02 -5.3924733972762304e-02 -3.6797274343951566e-02  -4.8514358653092560e-02 -4.9192582808439946e-02 -3.8277755006786637e-02  -4.9210884520415020e-02 -4.4403286174368256e-02 -3.9782342967601324e-02  -4.9940767076633641e-02 -3.9361374203648380e-02 -4.1401728088109775e-02  -5.0751394055848227e-02 -3.3881124177666665e-02 -4.3228774539094052e-02  -4.7307519971945843e-02 -3.3681248691377098e-02 -1.8366640091688321e-03  -4.6414972975491089e-02 -3.4193781238032933e-02 -1.4315830787200441e-03  -4.5683779659411200e-02 -2.8824542880189319e-02 4.5837225698487638e-03  -4.7095370206298878e-02 -2.6634915984417785e-02 7.2268855402003633e-03  -4.7974519300491687e-02 -3.0721764101677616e-02 8.1582948776521798e-04  -4.8839932549118129e-02 -3.0484820358024158e-02 3.8656884088108693e-04  -4.8314980488189024e-02 -2.4416911568775884e-02 9.1307899732574627e-03  -4.9334844572747179e-02 -2.7401066639224293e-02 2.3693574223465266e-03  -5.0133575509160415e-02 -2.7408236690591340e-02 1.9829804153267318e-03  -4.9471024216575808e-02 -2.2162508680848066e-02 1.0441798092147011e-02  -5.0630907569029035e-02 -2.4106259279504008e-02 3.4094248978570113e-03  -5.1331097448057361e-02 -2.4356220327678351e-02 3.0761587824625295e-03  -5.0654332134815405e-02 -1.9830878645873143e-02 1.1281018834837005e-02  -5.1956114719587901e-02 -2.0769198452930026e-02 4.0409257896709839e-03  -5.2531646521993360e-02 -2.1258872314351657e-02 3.7745173885971295e-03  -5.1941953799656979e-02 -1.7389121093528945e-02 1.1736136115662136e-02  -5.3384647374490772e-02 -1.7342052692578901e-02 4.3311818069037260e-03  -5.3810017675491886e-02 -1.8067127238522360e-02 4.1477048221115111e-03  -5.3393998399062510e-02 -1.4800974136920692e-02 1.1875181195417020e-02  -5.4972449009847768e-02 -1.3789351240822832e-02 4.3318493048533887e-03  -5.5222733613953252e-02 -1.4738401985472221e-02 4.2289532231175424e-03  -4.5795876816191107e-02 -7.0316457401005006e-02 -3.8892092027278662e-02  -4.6388317769177366e-02 -6.5274153764400739e-02 -4.1106842014817693e-02  -4.6949663556387911e-02 -6.0594544926164721e-02 -4.2959631928550693e-02  -4.7477666462021423e-02 -5.6037800449109255e-02 -4.4620668796250505e-02  -4.7990354930971285e-02 -5.1372728007705114e-02 -4.6227170890848560e-02  -4.8508771626028846e-02 -4.6396938183026600e-02 -4.7897040660472026e-02  -4.9064594214189003e-02 -4.0922205769868721e-02 -4.9742727343984106e-02  -5.3964272513668081e-02 -5.3875221633993553e-02 -2.9819321559143061e-02  -5.3277606188147190e-02 -5.3219338130873782e-02 -2.9270073445487686e-02  -5.4479381884934092e-02 -4.7934665265022054e-02 -2.9124554999249746e-02  -5.5138682185444279e-02 -4.8284105703962910e-02 -2.9635854417540849e-02  -5.5635693839306763e-02 -4.3077955973358208e-02 -2.8985629007727894e-02  -5.6291944195649563e-02 -4.3287286688566295e-02 -2.9479438711703939e-02  -5.6770544300559063e-02 -3.8426746988637017e-02 -2.8920450306251750e-02  -5.7436815098699391e-02 -3.8569892403292484e-02 -2.9427656212800950e-02  -5.7916385665937868e-02 -3.3762175219003793e-02 -2.8970626875230516e-02  -5.8595899069560704e-02 -3.3846637360732040e-02 -2.9509716180545535e-02  -5.9098057607686105e-02 -2.8884226873914478e-02 -2.9146003668394926e-02  -5.9783623646662773e-02 -2.8863762658757529e-02 -2.9729035106935475e-02  -6.0330925610089847e-02 -2.3614675215218241e-02 -2.9427170832665561e-02  -6.0988617571844074e-02 -2.3371696102825648e-02 -3.0019567839791140e-02  -5.1695382108938259e-02 -1.9736613408517463e-02 9.9676582812576880e-03  -5.0926836676464977e-02 -2.0571715277894025e-02 1.2244354919811466e-02  -5.0051806972612675e-02 -2.1317526479837600e-02 1.3528232923409050e-02  -4.9167441851195946e-02 -2.1901606703899224e-02 1.4128665865587071e-02  -4.8347294873964497e-02 -2.2283486717357356e-02 1.4249727865648600e-02  -4.7631095756011835e-02 -2.2450033975020718e-02 1.4035736708828210e-02  -4.7041219009579735e-02 -2.2406349277028923e-02 1.3601626129932615e-02  -4.7820391689306144e-02 -3.8637069755707847e-02 -8.0714719806188745e-03  -4.9422440999560148e-02 -3.4504944281068227e-02 -6.2933334072700752e-03  -5.0786337413061176e-02 -3.0571994920137548e-02 -5.0212318828870622e-03  -5.2057290818388550e-02 -2.6740734815127759e-02 -4.1740926034660505e-03  -5.3333556443925033e-02 -2.2911818408728468e-02 -3.6664413399124557e-03  -5.4687901135929314e-02 -1.9013945920351716e-02 -3.4488818413193007e-03  -5.6175087114538141e-02 -1.5002431375749069e-02 -3.5057406541850718e-03  -5.8033263151368267e-02 -3.4861781626914466e-02 4.4097072326841355e-03  -5.5948157299877392e-02 -3.3421760781514445e-02 3.3551149743240452e-03  -5.5064212184814040e-02 -3.0712445742241128e-02 5.7714326588369450e-03  -5.6621451407920555e-02 -3.1908796805662248e-02 6.6483997710862193e-03  -5.4235502630966638e-02 -2.8587811933874087e-02 7.3231852570299792e-03  -5.5349571460956350e-02 -2.9883048770984837e-02 7.8480346966062556e-03  -5.3497605558757988e-02 -2.6592046108976204e-02 8.2609909453633772e-03  -5.4230677225466165e-02 -2.7949862090450778e-02 8.4388117423543994e-03  -5.2873164389912623e-02 -2.4461373502493972e-02 8.7825081057936166e-03  -5.3261628515792345e-02 -2.5775214092770709e-02 8.6404547908457193e-03  -5.2369785126731364e-02 -2.2037742550447902e-02 9.0084217332849961e-03  -5.2403831316218952e-02 -2.3176571014280934e-02 8.6125878809016100e-03  -5.1960839224415564e-02 -1.9240709283022333e-02 9.0326768184001375e-03  -5.1589496537500050e-02 -2.0027655112772044e-02 8.4071998708684266e-03  -4.9910730727145657e-02 -4.0283134865375089e-02 -1.0614686477996920e-02  -5.1360455836722843e-02 -3.6159366313594586e-02 -9.0336997870445364e-03  -5.2562748415169350e-02 -3.2298040754068509e-02 -7.8667482476093929e-03  -5.3646665113544476e-02 -2.8546859157545158e-02 -7.0551680087548949e-03  -5.4707043394020598e-02 -2.4778980003749774e-02 -6.5447973458697024e-03  -5.5821150840309093e-02 -2.0897035481396108e-02 -6.2935775104800331e-03  -5.7063794029357247e-02 -1.6832115287701285e-02 -6.2873816066123097e-03  -5.4581328552097644e-02 -5.4326823302426316e-02 -3.2174645833425865e-02  -5.4682995526630786e-02 -5.0230479254963573e-02 -2.2443762933232515e-02  -5.5549155542854022e-02 -4.4597587919400716e-02 -2.1850837380464665e-02  -5.5829388734900065e-02 -4.8549760565087370e-02 -3.2053569574621799e-02  -5.6397282545369319e-02 -3.9690050837312717e-02 -2.1466277678063205e-02  -5.7055179664806964e-02 -4.3643750266101199e-02 -3.2015332725265550e-02  -5.7254259595288799e-02 -3.5109549621813257e-02 -2.1302840491144816e-02  -5.8284423291677698e-02 -3.9040411869544732e-02 -3.2104162720828368e-02  -5.8142357572189315e-02 -3.0513846306591780e-02 -2.1338563001036939e-02  -5.9540630186334431e-02 -3.4369403993820442e-02 -3.2344998013408295e-02  -5.9073406644703466e-02 -2.5625647323196648e-02 -2.1550237532759784e-02  -6.0835154819083220e-02 -2.9313258104919880e-02 -3.2724148702202270e-02  -6.0033512298313323e-02 -2.0176183244542074e-02 -2.1904657523814271e-02  -6.2141208125789001e-02 -2.3545884834125765e-02 -3.3103715172114384e-02  -5.3005309547793561e-02 -6.0356160334697359e-02 -4.6871227989459509e-02  -5.3051989073459427e-02 -6.0223695103804681e-02 -4.4659545091146655e-02  -5.3542536983159736e-02 -5.7121574371995845e-02 -3.7518725301839265e-02  -5.4920084280257513e-02 -5.1831758419765117e-02 -3.7742403855481034e-02  -5.4526789525649454e-02 -5.5492606764945968e-02 -4.5219007060350605e-02  -5.4836457619978587e-02 -5.5442449091054335e-02 -4.7287086867220871e-02  -5.6292229519118477e-02 -4.7009109059540283e-02 -3.7886676495020942e-02  -5.6018848946626509e-02 -5.1107400242109913e-02 -4.5578303261042744e-02  -5.6616576705485012e-02 -5.0986147062903