<?xml version="1.0"?>
<VTKFile type="UnstructuredGrid"  version="0.1"  >
<UnstructuredGrid>
<Piece  NumberOfPoints="710" NumberOfCells="2979">
<Points>
<DataArray  type="Float64"  NumberOfComponents="3"  format="ascii">6.136166158715032 3.822571241300565 3.274886713764307  6.222709764726726 3.903240936330124 3.233301474856872  6.159754876272062 3.893551683049547 3.147282827938702  6.124341676795716 3.944699879429323 3.168865309765043  6.185014255098896 3.953153403802282 3.258233508213139  6.105755736591256 3.876258330530458 3.300292664108877  6.075609419627858 3.930134289264108 3.32573086346799  6.147660909661735 4.003454231840695 3.283207162570597  6.089237524357851 3.996198876695072 3.190469208989109  6.045545838065894 3.984212870036775 3.351248995851003  6.110405055972965 4.053934815241482 3.308259444701666  6.054216409314396 4.04792004140217 3.212155883768835  6.0154319766718 4.038395630702425 3.376848665546305  6.073073968944207 4.10450700499042 3.333379983959187  6.019111480349337 4.099765041198624 3.233916986313173  5.983742961802297 4.151664299348034 3.255712749459991  6.035459349720901 4.155098954266355 3.358541155388977  5.98509901820474 4.092702798264269 3.402504169489289  5.947713189505186 4.203452815253006 3.277561785392614  5.997129415149553 4.205497362368132 3.38373999971797  5.954215323704203 4.147139456752471 3.428239807947751  6.033015285135861 3.957036522866772 2.485090290710156  6.005692477651858 3.926858314443983 2.623887975571126  6.112815556335619 4.004067308679018 2.582912431269406  6.077059231394999 4.055807499475136 2.587836388054631  5.971395285136457 3.977868932939475 2.631269583228787  5.999000536452023 4.008912784416517 2.488498219165445  5.937427766078018 4.029320697335232 2.638608184443515  5.965309347618031 4.061246353196456 2.491892539814128  6.041601041523227 4.108002364920687 2.592736643536631  5.903408171802544 4.081026352057269 2.645988212187662  5.931637217254336 4.113833288957746 2.495315822428493  6.006205339646885 4.160430608382407 2.597666101272193  5.869205130155776 4.13288713359384 2.653404401193326  5.897812226331258 4.166510854488606 2.498774558822274  5.970693063381772 4.212922607886663 2.60263233786044  5.863664498807376 4.219155985289006 2.50227033297276  5.834576158437923 4.184812660410462 2.660871594161703  5.934925120226441 4.265309579643115 2.607647934454209  5.828981811865893 4.271613139161663 2.505804412856929  5.799329108731897 4.236589667773156 2.66842964571068  5.898669936146946 4.31743923815168 2.612704219009634  5.733735295330242 4.031395138303977 2.023438990853864  5.657719962393249 4.013329018849689 1.879796099278702  5.778527954554974 4.053002277878773 1.87595975212305  5.678458264204282 3.950848401921297 1.881984508684221  5.757863397661137 3.972066691355431 2.023004902997647  5.756574290363064 4.115039113589663 1.871038938640301  5.709496580552551 4.090938281862366 2.023903721333174  5.63687485596162 4.076058113086777 1.877635368296881  5.734416551590543 4.177160160692333 1.866189116335573  5.684969130886293 4.150628773730016 2.024470152911679  5.61574591094383 4.13903302613814 1.875592713633348  5.711913845365187 4.23930759525157 1.861463614401032  5.659920163350006 4.210397463308258 2.025213336134686  5.594146706867406 4.202213845138335 1.873748808674332  5.503816972730406 3.717745363490922 2.446694785063803  5.608876105370785 3.753622772771769 2.329880235840471  5.475060755578077 3.720138047809851 2.324768893597981  5.46316265760479 3.778037997413046 2.328494914240889  5.591216155660037 3.810208239556239 2.335248452937499  5.492629250691381 3.775703699126632 2.450275699188259  5.48151216689492 3.83387227392096 2.453987056365051  5.573726683345972 3.867168672328784 2.340654975647356  5.451324847591845 3.836300534791802 2.332304486002881  5.470332435309651 3.892379048185086 2.457747531513054  5.556184580138972 3.924445182062482 2.346113330518509  5.439428264594548 3.894896545693953 2.336171609523839  5.538491619331985 3.982020471717504 2.351597708200103  5.459021590550446 3.95127805952368 2.461525646150141  5.427415743970467 3.953902475649028 2.340066515079156  5.520542130513414 4.040031866005188 2.357139304854186  5.447568455190455 4.010649953934611 2.465275325420519  5.415254841554984 4.013385387946191 2.344005843177225  5.502149290133665 4.098618274431161 2.362833189573159  5.436041137504592 4.070716606904687 2.46899353617808  5.402841018197978 4.073551769840385 2.34798261690842  5.955816304409664 3.812396134582933 3.027939686655101  5.994743245626038 3.862953996096322 2.905567548624556  5.875984398046093 3.804916230683712 2.909106148925267  5.851100558697389 3.860999373930781 2.919387908605414  5.963665835130034 3.916096941122914 2.916855671831525  5.929275401211817 3.868270289129236 3.041942431692714  5.902890644539897 3.924369386407581 3.056003953511937  5.932802737370827 3.96962159313811 2.928153402521537  5.826318119382653 3.917399927362311 2.929766630691297  5.876541950230967 3.980701159118842 3.070116072324304  5.901953521222571 4.023384263549272 2.939498381853149  5.801534736075917 3.97403873456064 2.940181960933346  5.850093548341252 4.037215538451929 3.084281561915555  5.870968425970766 4.077334156628556 2.950896140820355  5.77662839005212 4.030911833021201 2.950629523213366  5.823444306969642 4.093945757820519 3.098445621084384  5.839680129815836 4.131457168770607 2.962342058503137  5.75150593587099 4.088104616561759 2.961050930445106  5.807797936915681 4.185674342417721 2.973823407464133  5.796237328913136 4.151067134807614 3.112609752199065  5.725873517385177 4.145868147524881 2.971472667456308  5.907275941645332 3.765583004466432 3.152838751031717  5.831658128152075 3.768521863212402 2.999702724986903  5.811494161657934 3.827340031894322 3.009837606737384  5.886592415784807 3.825406042908241 3.167891319348152  5.791351720356103 3.886376667343137 3.020110608501883  5.865951522939557 3.885343721285208 3.183056322732894  5.771201209676156 3.945635122019731 3.030453300198979  5.845290971821086 3.945459205943873 3.198294062007385  5.750961604329127 4.005113546939129 3.040836725208018  5.824570969300063 4.005770065971142 3.213578319648778  5.730611817838883 4.064901308836649 3.051187391622388  5.803748198952219 4.066394827001088 3.228870462929969  5.710191168680228 4.125231177058276 3.061443867287865  5.782831920421403 4.127635757659182 3.244100145007581  5.988848805943825 4.282066803763691 1.900507104645354  5.928173005631683 4.243627742553975 1.793236940378828  6.047290040468973 4.271335649023044 1.710234757099518  5.950527930260407 4.182132721272498 1.804182341986012  6.013511050077674 4.222528469848848 1.911020279065448  6.02731156843045 4.332478156754011 1.693585538122784  5.963837950846921 4.341404400016172 1.890000941346344  5.905498391559152 4.305040313521369 1.782307834392505  6.280491086515354 4.117740947791112 2.663498268874296  6.296397624963699 4.105411086288909 2.831994576040755  6.365077596748239 4.174020413317361 2.740937593059936  6.327128890187447 4.230689257558859 2.746786595650759  6.256338764132637 4.158095285805604 2.842701128357591  6.24274054661562 4.171912704514685 2.668015685283197  6.289715395711887 4.287549697958701 2.752543517139334  6.216682890509758 4.21113877381593 2.853334023670448  6.205451846345365 4.22635626504315 2.672453405062706  6.252561326600092 4.344418015933704 2.758294252855424  6.17721254944169 4.264329591939813 2.863981484426617  6.168401081669483 4.280904509198016 2.676889838263557  6.21546370304655 4.401173984810493 2.764072637404557  6.137747695182673 4.317491287944208 2.874677857363377  6.13138494054353 4.335406689301482 2.681377099110424  5.650758274975062 3.734831860289661 2.753530940741861  5.75955990230649 3.761440407434661 2.865362909851531  5.769475518690051 3.780374744619796 2.735131183817155  5.746681744242399 3.836121371658344 2.740597160443508  5.739492989062611 3.819191804805048 2.871635574480625  5.635020778536047 3.793012726165429 2.757115195607874  5.724006967870227 3.892179214122858 2.746182590507337  5.719438053977131 3.877255683958189 2.878030905725432  5.619286951362961 3.851473518471013 2.760872380685994  5.701283290005815 3.948507366076147 2.751778517475185  5.699360196848231 3.935574495563808 2.88448283864084  5.603474947114993 3.910208851723247 2.76468280395189  5.67842144894999 4.005122696685859 2.757373251251521  5.679192504346584 3.994158667792446 2.890938184003399  5.587580140287698 3.969244384297457 2.7684713328207  5.655314687153137 4.062118530899368 2.762920974057126  5.658895138899919 4.05308429337381 2.89731930337835  5.571582000642414 4.028643942018262 2.77217207568438  5.631713733235466 4.119638167038427 2.768382653529414  5.63839289926868 4.112534519869802 2.90354270142397  5.555464407182222 4.088630011039942 2.775681235393195  5.432086804788863 3.725551223670982 2.083418426908465  5.373383869337287 3.707325480774589 2.234984843767408  5.510190167420771 3.736054196303498 2.198178329437145  5.49546445240573 3.794031755337168 2.202570758182116  5.364752969996205 3.766177578993104 2.238336198441971  5.41990163934229 3.785182598348436 2.087194526977004  5.480833527520605 3.852444552378924 2.206976319959705  5.356163865390113 3.825293185352383 2.241754889218101  5.407785111783633 3.845148725209032 2.090938757008863  5.466158124133659 3.91122904339598 2.211420438340918  5.347530500223264 3.88481953240729 2.245214002171014  5.395641546148254 3.905490113743769 2.094700314066865  5.451363292160784 3.970393782439534 2.215905839310377  5.338806040483099 3.944752136216885 2.248707234585976  5.383396460404095 3.966222331670606 2.098517855264732  5.436360838448304 4.029977204798141 2.220479948354265  5.329969017448806 4.005144584399792 2.252248339895806  5.370973888055492 4.027397562826971 2.102457293030227  5.420969128663419 4.090046159999485 2.225243960424578  5.321045550244237 4.066087066847752 2.255866553297248  5.358204159925323 4.089157358235858 2.106621516431397  6.075145378582302 3.882265396221322 3.040772027601136  6.041574170566144 3.934710854235421 3.05
[...]
<PointData  Vectors="f_24"> 
<DataArray  type="Float64"  Name="f_24"  NumberOfComponents="3" format="ascii">-1.9319563142965165e-02 1.3147404468429244e-01 4.7848974722235892e-02  -1.8931502769725394e-02 1.3139397700397504e-01 5.0238407714214076e-02  -2.0958800696586812e-02 1.4023981784935113e-01 5.1595295051684323e-02  -1.8457302849647521e-02 1.4002860742148376e-01 5.6057290465187606e-02  -1.6406978989179838e-02 1.3060493476750634e-01 5.4855709881969396e-02  -1.6679548830367510e-02 1.3019814504879149e-01 5.3062580744575316e-02  -1.4117616307248197e-02 1.2871354705717244e-01 5.8039049248525772e-02  -1.3933614047002633e-02 1.2957511814989731e-01 5.9316311064174773e-02  -1.6022254185652989e-02 1.3950395678802840e-01 6.0300455542065458e-02  -1.1564781449323915e-02 1.2702609607862797e-01 6.2889793913318615e-02  -1.1459384869776200e-02 1.2833578145629970e-01 6.3689685793093836e-02  -1.3570050074062182e-02 1.3871663600088965e-01 6.4453903074741761e-02  -8.9425946989703763e-03 1.2514419023254220e-01 6.7696714816224149e-02  -8.8980972546005132e-03 1.2693355819215066e-01 6.8037184478589488e-02  -1.1013464518925636e-02 1.3771512022041857e-01 6.8573383670437749e-02  -8.2358112947203844e-03 1.3656972807735573e-01 7.2696233712484237e-02  -6.1406947681543096e-03 1.2544296317730230e-01 7.2375982230854008e-02  -6.1482512598618607e-03 1.2308974326760959e-01 7.2521343086306839e-02  -5.0450683513383011e-03 1.3541242823946398e-01 7.6758252042763472e-02  -3.0427592296359525e-03 1.2401759998267443e-01 7.6669839378312510e-02  -2.9806005903786981e-03 1.2087859418141507e-01 7.7409173218216831e-02  -2.4290575998313874e-02 1.6552828505729730e-01 5.9085723489521139e-02  -2.5508556566237652e-02 1.6824579998490641e-01 5.9018809704751284e-02  -2.3607600006217078e-02 1.6272968492678369e-01 5.7063736808867831e-02  -2.1685440561914855e-02 1.6447941764330559e-01 5.6879435210405498e-02  -2.3719649798048484e-02 1.7031730272694354e-01 5.9275123107394016e-02  -2.2568438874851951e-02 1.6743954609379214e-01 5.7842437431495537e-02  -2.1815279289476713e-02 1.7180784016260170e-01 5.9466195709941140e-02  -2.0752516786628039e-02 1.6876496413294245e-01 5.6582654809862687e-02  -1.9724002640818011e-02 1.6569986897928482e-01 5.6659146903463367e-02  -1.9728978814731579e-02 1.7284491969381369e-01 5.9604351245228712e-02  -1.8760983081731439e-02 1.6965009237680673e-01 5.5285675263946288e-02  -1.7618524191872081e-02 1.6652039178740635e-01 5.6379856828294328e-02  -1.7351952527195104e-02 1.7351927489056571e-01 5.9705978291010556e-02  -1.6483873871471467e-02 1.7020056500477615e-01 5.3910558170879544e-02  -1.5253561237901338e-02 1.6708431405695934e-01 5.6055419706449512e-02  -1.3781771439393626e-02 1.7050637484152434e-01 5.2481899758739410e-02  -1.4518522477655641e-02 1.7391975173968036e-01 5.9735430501557524e-02  -1.2507337816821045e-02 1.6749507318658063e-01 5.5698255966231972e-02  -1.0514200545644841e-02 1.7070546204386403e-01 5.1020861527877749e-02  -1.1115564241553433e-02 1.7431040681287532e-01 5.9650256947934577e-02  -9.2716796649344874e-03 1.6792515654096102e-01 5.5347900141164183e-02  -1.3923518298145221e-02 1.4513283414934577e-01 4.9012866616286198e-02  -1.0896344853434037e-02 1.2853355846912778e-01 4.7434956718491302e-02  -1.1124853342031098e-02 1.2568103686709883e-01 4.6040543119242994e-02  -1.1991183256872880e-02 1.2953696266429565e-01 5.4787377896234425e-02  -1.5251050417632854e-02 1.4537742262891798e-01 5.5154677820927409e-02  -9.7789425421600396e-03 1.2418911797222966e-01 3.9069078450058387e-02  -1.2419808222559257e-02 1.4455995273625816e-01 4.2799884977076375e-02  -9.6823685997813429e-03 1.2727556098436840e-01 3.9978050250477445e-02  -8.2855899395002826e-03 1.2247267843465767e-01 3.1813413636660952e-02  -1.0685062870855810e-02 1.4367063315502562e-01 3.6297762447737546e-02  -8.3233886767413341e-03 1.2576265810038356e-01 3.2152477432678163e-02  -6.6110612485128150e-03 1.2050269654521088e-01 2.4061588469866731e-02  -8.6323176590942345e-03 1.4242343552785414e-01 2.9283653033237111e-02  -6.8598946959633460e-03 1.2410593322930305e-01 2.3695755512001638e-02  -2.4432906490599527e-02 1.8746956148564781e-01 7.1577149097965559e-02  -2.3629999805844629e-02 1.7757276764959776e-01 7.1331339508086913e-02  -2.2003262674141592e-02 1.8176746673877719e-01 7.3928764227748051e-02  -2.0762496167687057e-02 1.8376124815656622e-01 6.9844505804425347e-02  -2.2345077980584747e-02 1.7973897657186075e-01 6.7635163622315406e-02  -2.2875688500327913e-02 1.8962304533771382e-01 6.9091885231807953e-02  -2.1426677696098542e-02 1.9105455110584812e-01 6.6710844893877921e-02  -2.1022908300497405e-02 1.8125783329390915e-01 6.4082769650358987e-02  -1.9555151572827102e-02 1.8506915934225870e-01 6.5934975086336334e-02  -1.9965082578489897e-02 1.9179100612515976e-01 6.4382348446146084e-02  -1.9601517452453521e-02 1.8216418811708535e-01 6.0599186440375881e-02  -1.8313852399400147e-02 1.8571001340224913e-01 6.2123082049992263e-02  -1.8000656333064882e-02 1.8243568319838388e-01 5.7068275145917564e-02  -1.8389336669332717e-02 1.9179821326674748e-01 6.2051947129793068e-02  -1.6955716508708349e-02 1.8566120672149183e-01 5.8274302771558394e-02  -1.6090474268487087e-02 1.8203563546297985e-01 5.3319237890468829e-02  -1.6579803739053017e-02 1.9099258595930707e-01 5.9654829176516364e-02  -1.5391049602096859e-02 1.8485421772957791e-01 5.4231210189556407e-02  -1.3712553296050858e-02 1.8091077630199409e-01 4.9074381108183102e-02  -1.4418187807168361e-02 1.8920464865788514e-01 5.7065954745125082e-02  -1.3477270048851362e-02 1.8316138579526348e-01 4.9795336469079916e-02  -2.4468557416274201e-02 1.5729119032649411e-01 5.4035843059766019e-02  -2.5452912810188109e-02 1.6198543769981594e-01 5.6097202083424995e-02  -2.6131275026307826e-02 1.6766748341837226e-01 5.7253591325996001e-02  -2.3873883094398349e-02 1.6903667242307621e-01 6.0652264305392715e-02  -2.3248896346289384e-02 1.6338781564029481e-01 5.9259469750162011e-02  -2.2050819916156324e-02 1.5794129208011373e-01 5.8395102026549572e-02  -1.9681933077957976e-02 1.5817963749285305e-01 6.2449546116601751e-02  -2.1049399708097008e-02 1.6430795823717328e-01 6.2179624991350012e-02  -2.1624311555984269e-02 1.6985408740128408e-01 6.3781789247943074e-02  -1.7277871169832842e-02 1.5803259613367154e-01 6.6357491059575641e-02  -1.8764008353803020e-02 1.6480995141284302e-01 6.4976342931393580e-02  -1.9312464332469904e-02 1.7019342844519136e-01 6.6799671969318991e-02  -1.4747756346939714e-02 1.5751705390273923e-01 7.0243245977138130e-02  -1.6285463502455657e-02 1.6494601477528356e-01 6.7734004564540151e-02  -1.6831823806062969e-02 1.7006995729788926e-01 6.9827670792189198e-02  -1.1961641546005874e-02 1.5663777614415558e-01 7.4223452801672737e-02  -1.3450260189262004e-02 1.6477293314149780e-01 7.0504257723453923e-02  -1.4042390927964502e-02 1.6947012927014540e-01 7.2967099309315386e-02  -1.0024813088032231e-02 1.6432599157904182e-01 7.3308485122664954e-02  -8.6698298425824938e-03 1.5528450948317885e-01 7.8348813743155124e-02  -1.0686165287639103e-02 1.6843894763046682e-01 7.6257795880748394e-02  -2.2247420340137030e-02 1.5051149171850836e-01 5.1942724815647337e-02  -2.5109699143084922e-02 1.6465102242066895e-01 5.5850551835808254e-02  -2.2687915395394172e-02 1.6556325079288356e-01 6.0204121191460097e-02  -1.9650454060887584e-02 1.5031316653559706e-01 5.7388354925964891e-02  -2.0346013296063073e-02 1.6598639223459907e-01 6.4240917118975102e-02  -1.7166548887660588e-02 1.4979180109320597e-01 6.2471544929601192e-02  -1.7988118602726106e-02 1.6594451429265919e-01 6.8112905830676751e-02  -1.4683832986394401e-02 1.4894111336421795e-01 6.7367922255179374e-02  -1.5515417344762850e-02 1.6544646092651866e-01 7.1975250101698932e-02  -1.2110387215692608e-02 1.4774641916097617e-01 7.2236070071993300e-02  -1.2803667211981888e-02 1.6446462490771205e-01 7.5980714261231375e-02  -9.3285787441665501e-03 1.4615620430385637e-01 7.7243202869453020e-02  -9.6837696733641631e-03 1.6284075246448113e-01 8.0312744666754685e-02  -6.1890177412539434e-03 1.4403309271508280e-01 8.2621581137123298e-02  -8.7865204969180110e-03 1.2145961194580536e-01 3.1458473171357540e-02  -7.8239483721273036e-03 1.0982535092394556e-01 3.0471947017972248e-02  -7.8359355210887265e-03 9.8050612558274200e-02 3.0182428022209634e-02  -9.2169480093369574e-03 1.1212605922145696e-01 3.7016911940689734e-02  -1.0398706953159548e-02 1.2349569829770135e-01 3.7109151332247729e-02  -6.5755575087882018e-03 9.4960136278526161e-02 2.3647983556948894e-02  -6.9275526802784820e-03 1.1921715362067363e-01 2.5559913087378296e-02  -6.2658624338871724e-03 1.0729765273970972e-01 2.3542859195650471e-02  -2.0330074143021792e-02 1.5460182674021322e-01 5.4350794410915400e-02  -1.9906728917087283e-02 1.5011126236415678e-01 5.4975918646617522e-02  -1.8293108667099184e-02 1.4996981052435773e-01 5.3897427223112235e-02  -1.6101123471337818e-02 1.5043363082721903e-01 5.5254647080678419e-02  -1.7593692518450995e-02 1.5099175901053719e-01 5.6951479895333675e-02  -1.8161386690477638e-02 1.5563526505023134e-01 5.5024318205126786e-02  -1.4107339117241520e-02 1.5065701682420174e-01 5.6537749809702657e-02  -1.5423405319906673e-02 1.5149194618830517e-01 5.8841633767171740e-02  -1.6136343891935929e-02 1.5627080844450589e-01 5.5612904711781805e-02  -1.2120652291602335e-02 1.5072893767421836e-01 5.7778648406524379e-02  -1.3240976248340407e-02 1.5177120495901231e-01 6.0677910382429118e-02  -1.4062451448612944e-02 1.5665798848583562e-01 5.6155761261967523e-02  -1.0001742303712560e-02 1.5074945298462511e-01 5.9022282357350901e-02  -1.0920783407452131e-02 1.5195227156059452e-01 6.2488998167360060e-02  -1.1817272772304453e-02 1.5692250787668896e-01 5.6680624453926354e-02  -2.7212030158709460e-02 1.8375196811937058e-01 6.3186598559638374e-02  -2.6730881457391529e-02 1.7507998928739710e-01 5.9404068353272166e-02  -2.7503364855004871e-02 1.7880495084094694e-01 6.1680475482867432e-02  -2.5571256771353353e-02 1.8091483747788858e-01 6.3185155471465387e-02  -2.4556461007756870e-02 1.7677924731554592e-01 6.2418392112465748e-02  -2.5148246170654091e-02 1.8575971334432018e-01 6.4861188684147919e-02  -2.3593931669913467e-02 1.8238843693195630e-01 6.4530732930257337e-02  -2.2397907283127946e-02 1.7787672095281742e-01 6.5200733118039089e-02  -2.3158444685417806e-02 1.8713432929933493e-01 6.6372783040880762e-02  -2.1523725512788531e-02 1.8328653091979594e-01 6.5810749558676773e-02  -2.0196066057341987e-02 1.7841945186816272e-01 6.7869674205698546e-02  -2.1153029190612033e-02 1.8786509886333852e-01 6.7815507837710939e-02  -1.9263056548372851e-02 1.8361225850525509e-01 6.7100081824915142e-02  -1.7862238831163574e-02 1.7841121822951581e-01 7.0552835681504888e-02  -1.9034572081910624e-02 1.8794613211012076e-01 6.9287921379234924e-02  -1.6656547256850073e-02 1.8332835003904657e-01 6.8466351429487066e-02  -1.5270304350652188e-02 1.7780943088579829e-01 7.3388909023556895e-02  -1.6685472161252261e-02 1.8733340637269863e-01 7.0906943587138047e-02  -1.3472032223634377e-02 1.8240412582156362e-01 6.9924738303317344e-02  -1.2186484638259793e-02 1.7643757966288273e-01 7.6533876180024218e-02  -1.3905310816714261e-02 1.8584540438544284e-01 7.2804313323385675e-02  -1.6021783059559040e-02 1.6058598079851433e-01 7.7187064505667036e-02  -1.8500781060156245e-02 1.7741389833372390e-01 7.6572730013427251e-02  -1.9809308471070798e-02 1.7058768216334658e-01 7.4894149422584294e-02  -1.8843581581832036e-02 1.7232627704072981e-01 6.9341626658287053e-02  -1.7555165357817499e-02 1.7911365126809042e-01 7.1135218455830693e-02  -1.5322491001841425e-02 1.6182363875491118e-01 7.0161772270191033e-02  -1.7824501887688693e-02 1.7347420259777346e-01 6.4078051254390228e-02  -1.6662921837766406e-02 1.8014537038414161e-01 6.6001968679488918e-02  -1.4588796087662125e-02 1.6253764655602537e-01 6.3549894407604696e-02  -1.6726469239407332e-02 1.7403778090673830e-01 5.8940738685785178e-02  -1.5744927382698257e-02 1.8053417743300754e-01 6.1004180357812035e-02  -1.3791523085386828e-02 1.6274265449746927e-01 5.7116767700498422e-02  -1.5493342974582262e-02 1.7400763681835385e-01 5.3743900909773358e-02  -1.4749682088500348e-02 1.8025604320327213e-01 5.5970666320770232e-02  -1.2894753180677903e-02 1.6242904826101334e-01 5.0620986856913859e-02  -1.4040328508132060e-02 1.7334386741460669e-01 4.8260795515320205e-02  -1.3610537675015485e-02 1.7924464772049495e-01 5.0693994953803827e-02  -1.1843271937974194e-02 1.6156583420139906e-01 4.3781911929480423e-02  -1.2224476440700540e-02 1.7195331724583457e-01 4.2183953117782724e-02  -1.2243851971252455e-02 1.7737696978107356e-01 4.4906082860355093e-02  -1.0534846668589859e-02 1.6006166673469235e-01 3.6248147939001094e-02  -2.3039977472177901e-02 1.5099214689400431e-01 5.3892205024163399e-02  -2.0683084029734632e-02 1.5156169427653793e-01 5.7939892575624111e-02  -1.8322075639625096e-02 1.5172992627400073e-01 6.1762356863509699e-02  -1.5911167545395278e-02 1.5157185851545552e-01 6.5474971055332981e-02  -1.3345143812139011e-02 1.5112952923425635e-01 6.9159143496932862e-02  -1.0474703843172698e-02 1.5045592868255897e-01 7.2851064580629538e-02  -7.1028266314839906e-03 1.4970983014394090e-01 7.6544430055670548e-02  -1.1351234540051634e-02 1.3500058476507415e-01 3.9214287807841149e-02  -1.2975455456972495e-02 1.3617992239279655e-01 4.4812527063743633e-02  -9.5041963405548806e-03 1.3358576626263313e-01 3.3440999253600674e-02  -7.3638809891506630e-03 1.3189698245795087e-01 2.7352132148810687e-02  -1.7033270269801580e-02 1.5600895190151484e-01 7.4537336288012887e-02  -2.0352919421336081e-02 1.6521769486142687e-01 7.2400127673046225e-02  -1.7375518889749201e-02 1.5019308005142376e-01 7.2114092801555799e-02  -1.6457734204900969e-02 1.5116495505230176e-01 6.5192521531527950e-02  -1.9356428806395883e-02 1.6695987097543025e-01 6.6884628447458377e-02  -1.6250144429388835e-02 1.5719808511799949e-01 6.7618531377217628e-02  -1.5445513853650148e-02 1.5167570648897341e-01 5.8666618244234005e-02  -1.8254680593940607e-02 1.6812104781174281e-01 6.1632049262550427e-02  -1.5365537256574125e-02 1.5788266131411716e-01 6.1080503147395923e-02  -1.4304945642911798e-02 1.5176346119377365e-01 5.2303677954799253e-02  -1.7020704968298619e-02 1.6874819239701710e-01 5.6487951334463417e-02  -1.4371485235630865e-02 1.5809858355147682e-01 5.4698121882666879e-02  -1.2994272934199472e-02 1.5144815614201171e-01 4.5858930925006362e-02  -1.5600092494685969e-02 1.6884511322535345e-01 5.1262936403228578e-02  -1.3228228303189723e-02 1.5784363016133612e-01 4.8222285030374096e-02  -1.1453440532677965e-02 1.5073715033372106e-01 3.9078801514913497e-02  -1.3907840730092217e-02 1.6840072233918649e-01 4.5726979740391832e-02  -1.1869387552950339e-02 1.5709872637561431e-01 4.1367738162532190e-02  -9.6056903623267728e-03 1.4960995187564124e-01 3.1681113958504446e-02  -1.1805717039467367e-02 1.6741572516056208e-01 3.9578742389295082e-02  -1.0226772513890208e-02 1.5586344162790533e-01 3.3799326711315199e-02  -1.2465211957846774e-02 1.4349599308371655e-01 6.8429147731648987e-02  -1.3023870300865520e-02 1.3753861760597688e-01 6.6024325089775696e-02  -1.2231039442584546e-02 1.3736686523596478e-01 5.8351864141309918e-02  -1.1856535611583023e-02 1.4364302570137855e-01 6.0704956216353176e-02  -1.1349797409223341e-02 1.3688962417957784e-01 5.0880830184152515e-02  -1.1177568202933294e-02 1.4344251570005098e-01 5.3192973672882372e-02  -1.0356374762049468e-02 1.3609784166810196e-01 4.3324800455859819e-02  -1.0408643683651379e-02 1.4287176978136459e-01 4.5595755665477744e-02  -9.2219594956441213e-03 1.3498590423343992e-01 3.5395694143313318e-02  -9.5166314617878139e-03 1.4190226364627356e-01 3.7589266160900255e-02  -7.9155833475782061e-03 1.3355725660970599e-01 2.6787086128506582e-02  -8.4373238562356102e-03 1.4052357590778250e-01 2.8792101617590236e-02  -2.0106245806127510e-02 1.5210047329539605e-01 6.2838231921631543e-02  -1.7191766136449592e-02 1.3811205399025889e-01 6.2210035354633791e-02  -1.8557216754020583e-02 1.4636639609141822e-01 6.4960055783092024e-02  -1.7277675897330504e-02 1.4687483877457569e-01 5.8961810456464793e-02  -1.5837037204965182e-02 1.3778870375226265e-01 5.6113370820146204e-02  -1.8700402030854376e-02 1.5296888318806459e-01 5.7825263043143414e-02  -1.5917634203173745e-02 1.4694497398409287e-01 5.3308838676460767e-02  -1.4446181392173742e-02 1.3711933833518269e-01 5.0386684097258286e-02  -1.7211761735023933e-02 1.5333829323385650e-01 5.3066965852328195e-02  -1.4427117682103266e-02 1.4665573136343985e-01 4.7787290861642684e-02  -1.5574214735252332e-02 1.5330475589169157e-01 4.8397721591876525e-02  -1.2743095931592202e-02 1.4605075892273617e-01 4.2208865566555870e-02  -1.3709892897225687e-02 1.5293518040609744e-01 4.3665775228995354e-02  -1.0795871706006099e-02 1.4515271761487508e-01 3.6399600232866910e-02  -1.1531704344225069e-02 1.5227849300278848e-01 3.8732651136763920e-02  -8.4908599997377803e-03 1.4393418862191121e-01 3.0191625190843417e-02  -8.9533586475777274e-03 1.5136774568831082e-01 3.3488108408327291e-02  -2.6988501733611548e-02 1.7164885962006587e-01 5.8882248707836073e-02  -2.6052809682867752e-02 1.6688383244343905e-01 5.7969911545725117e-02  -2.4104200976203621e-02 1.6878955679109256e-01 5.9671652402090256e-02  -2.4931828957883956e-02 1.7350720904535033e-01 6.1189921227708860e-02  -2.2092325349733006e-02 1.7017606268499946e-01 6.1223096060838311e-02  -2.2847971175802732e-02 1.7478682439363669e-01 6.3293922740810221e-02  -1.9943657417510540e-02 1.7111218593037814e-01 6.2688985230794261e-02  -2.0663412915980294e-02 1.7555844013526026e-01 6.5282431684825767e-02  -1.7555962486125131e-02 1.7166942284916531e-01 6.4113665939412534e-02  -1.8271112485489727e-02 1.7585330269031321e-01 6.7237491189754361e-02  -1.4779386111457720e-02 1.7192454839016946e-01 6.5510082396941102e-02  -1.5510219395253735e-02 1.7567916623520730e-01 6.9234801688411202e-02  -1.1374389882601182e-02 1.7197522633125631e-01 6.6832579199991499e-02  -1.2139289477729713e-02 1.7504024942809165e-01 7.1369845671570467e-02  -2.1842667528910936e-02 1.4381430385242783e-01 5.0478872127359235e-02  -1.9264343900109681e-02 1.4344879684489747e-01 5.5569482056598708e-02  -1.6773000569281268e-02 1.4280475588398245e-01 6.0379288580181059e-02  -1.4281761097742870e-02 1.4188839954468779e-01 6.5021886108405716e-02  -1.1702563736280766e-02 1.4070861851033525e-01 6.9619236460926978e-02  -8.9137149914324133e-03 1.3926786020430432e-01 7.4274599220542900e-02  -5.6785184597963187e-03 1.3745809551294916e-01 7.9087103187721886e-02  -2.1573553187028933e-02 1.4671087279711423e-01 5.4233680615965764e-02  -1.8847919671620753e-02 1.3438561506620836e-01 5.2570165941653126e-02  -1.9202842206853820e-02 1.4028895801677940e-01 5.4293911376216274e-02  -1.6732687628640896e-02 1.4046966627927437e-01 5.7725750585736722e-02  -1.6360377551816387e-02 1.3408113389534476e-01 5.6652554368304797e-02  -1.9181457818001617e-02 1.4729068280164484e-01 5.7782530434511412e-02  -1.4393047946669220e-02 1.4033864211720626e-01 6.1033827808871129e-02  -1.3951194902589028e-02 1.3351287767728590e-01 6.0604431672724356e-02  -1.6856739531238046e-02 1.4748655769438956e-01 6.1149769683642476e-02  -1.2061882783576554e-02 1.3999219026898360e-01 6.4266461804753150e-02  -1.1548761329520374e-02 1.3273696105983318e-01 6.4473715940876294e-02  -1.4489765315601012e-02 1.4739711020697854e-01 6.4426110386995653e-02  -9.6328338969229287e-03 1.3954435600498394e-01 6.7460772915435216e-02  -9.0542212391242875e-03 1.3184344786192673e-01 6.8299744086105868e-02  -1.1972782852809821e-02 1.4711592084025951e-01 6.7657221313796145e-02  -7.0065805416793343e-03 1.3911842235609900e-01 7.0637765120676030e-02  -6.3647080805551452e-03 1.3093826073422504e-01 7.2107493059203706e-02  -9.1776149528223234e-03 1.4675911139666861e-01 7.0864717008005673e-02  -4.0934125107996598e-03 1.3886586914275534e-01 7.3813188085286918e-02  -3.3876925828473922e-03 1.3015714492712824e-01 7.5919239187727500e-02  -5.9861680554591712e-03 1.4651661026862903e-01 7.4041961374739312e-02  -1.521712807