<?xml version="1.0"?>
<VTKFile type="UnstructuredGrid"  version="0.1"  >
<UnstructuredGrid>
<Piece  NumberOfPoints="1035" NumberOfCells="4443">
<Points>
<DataArray  type="Float64"  NumberOfComponents="3"  format="ascii">1.459519172596309 3.061838570054322 0.6871824130970593  1.576014826703023 3.152956796384211 0.7008227948550416  1.578738241411982 2.990186213600515 0.6993089767775296  1.588031423029348 2.984078940113915 0.620181467333457  1.585304694452062 3.158702705740909 0.6198154149700148  1.46721282107987 3.062044925704327 0.6060960877038103  1.59721209909995 2.978129943865716 0.5410622744805599  1.5944343668359 3.164563856731659 0.5388470787355815  1.474752093509605 3.062422072998904 0.5250645027852928  1.606332294409322 2.972256815180053 0.4619611967867928  1.60347310749342 3.170475849199104 0.4579259417311525  1.482194763637869 3.062895192933043 0.4441033002526656  1.615423179146113 2.966383147379424 0.3828855245723903  1.612498452742445 3.176384797777566 0.3770553818289006  1.489594064273129 3.063375391496879 0.3632152078499788  1.621587309890372 3.182254205140319 0.2962360086631899  1.497040938046472 3.063815742081765 0.2824061036779062  1.624561070962734 2.960456284164653 0.3038671278729428  1.630878192951785 3.188000576440264 0.2154749095892732  1.504714817247737 3.064087886890788 0.2017075004232285  1.633876006992873 2.954384239287356 0.224924378120287  1.91599134159597 3.48554475120627 0.8180613133167605  1.987566522635452 3.594228991788682 0.8936841033191905  2.029360726139053 3.498382588964491 0.8399178721793407  2.040996099268088 3.534271778939871 0.7644314972837523  1.997173703348715 3.642593144236913 0.8254260900077008  1.926330729293697 3.519663568162667 0.7419726708546797  2.05247930545807 3.570211462083697 0.688950268284378  2.006616231639379 3.691004130747001 0.7571831345436324  1.936507111246619 3.553825182820987 0.6658932847993752  2.063912913323354 3.606136767015253 0.6134557797510509  2.015995258372449 3.739402282732506 0.6889333361932896  1.946623307448697 3.587973241014973 0.5898164993539299  2.075354658562869 3.6420257375811 0.5379408917207795  2.025374403889601 3.787763740597907 0.620676420256987  1.956746286900264 3.622083632390923 0.5137406611508072  2.08684730416464 3.677872421880013 0.4623983882863245  2.034814937765926 3.836077572984371 0.5524082602230885  1.966928787401982 3.656142894778973 0.4376597618613359  2.098443914821258 3.713670258679152 0.3868105960012731  2.044351541009723 3.884330531755303 0.4841166504504843  1.977212948265303 3.690139468854174 0.3615654048824213  2.139634259952488 3.558908750427282 0.8919534704686998  2.151007654171191 3.604198540329747 0.8213448037642879  2.162235057559706 3.649542948116427 0.750743515487386  2.173421131185759 3.694876274156475 0.6801180194429366  2.184614106644177 3.740181461136635 0.6094604373707715  2.195847204018817 3.785454271467785 0.5387660715457421  2.207167580940153 3.830694943417757 0.4680240102592114  1.453103192670118 3.17981040572878 0.6885253650933235  1.460952112872602 3.186926497334646 0.6062633195015584  1.468586964976024 3.194192524948227 0.5241178102496131  1.476124685654216 3.201525834251568 0.4420709589944283  1.483649852090861 3.208846479131918 0.3601170403319648  1.491244332509694 3.216123780258954 0.2782625805567284  1.499084131821814 3.22326391029051 0.1965310177519601  1.86220621713441 3.575805679713702 0.8617125746204476  1.870775539300229 3.623524447457428 0.793122296902981  1.879156719362871 3.671292909370599 0.7245637514371309  1.887458427112642 3.719047557978435 0.6560309184906596  1.895760191991686 3.766756280473741 0.5875171353261962  1.904128842342348 3.814404175714142 0.5190062065558843  1.912638124123813 3.861984845373878 0.4504726649810663  1.47782825222305 3.275787544138191 0.7072463861884574  1.592841893688398 3.289021597829874 0.7200519983891898  1.600897335967947 3.304285378637655 0.638862166253538  1.486294378545164 3.292685310668484 0.6258815458732946  1.608753078669304 3.319616494043527 0.5577470692652318  1.494517296567375 3.309682129916613 0.5446479428074001  1.616520932363749 3.334969481163076 0.4766994836012057  1.502645310061151 3.326713792363225 0.4635224952131901  1.624296526117059 3.35030157927469 0.395714821214556  1.510773374414775 3.343723843642977 0.3824975392461039  1.632150143442529 3.365597740833264 0.3147916906113594  1.518991228582094 3.360683849763798 0.3015633253575761  1.640196824327946 3.380804814454636 0.2339253452782223  1.52744366820333 3.377524082773816 0.2207105777393758  1.422395144214804 3.680258968272929 0.9070524757517454  1.558033775244814 3.721383558317333 0.9578997782435513  1.538049403530313 3.637201597125728 0.8737044209983459  1.541514816013294 3.689615711187218 0.8077591668007601  1.561338887984283 3.78038481052084 0.8990019177668975  1.424433495969989 3.737131520407196 0.8445260720853567  1.426226131541385 3.793915336216196 0.7821550150097686  1.564392597706515 3.839288894145079 0.8402629297803771  1.544724639607016 3.741963849342418 0.7419879986594289  1.567297339142472 3.898083998893522 0.7816455418054159  1.427847476988467 3.850546446138207 0.7199552406616893  1.547794967873007 3.794203168828903 0.6763323457308585  1.57014982967687 3.956751950874259 0.7231342660990886  1.429462342779694 3.907071637602129 0.6579253968996179  1.550863392651433 3.846353817279249 0.6107984750600299  1.43122354338561 3.963466722781981 0.5960231046808284  1.554053893259048 3.898419183265155 0.5453636078169591  1.111265221849751 3.232740712731668 0.6735517824658797  1.221922271876871 3.238141579160428 0.6779042551160143  1.220719136260481 3.112636788427636 0.6679298969398517  1.227358992098113 3.118253162497927 0.5837433650881658  1.225498925427884 3.252688746435191 0.5933307074572077  1.112897951450676 3.250326736713598 0.5880634550040958  1.233711006964963 3.124129488878173 0.4998160508270735  1.228803595689214 3.26739347514548 0.5090298718802651  1.114288285138638 3.268085414866182 0.5029039221922916  1.239924082157253 3.130112714510154 0.4160971185045384  1.231983791581921 3.282148976314551 0.4249617391670398  1.115511936286229 3.285899338446514 0.4180332837274168  1.246092130819786 3.136106189876704 0.3325619713142538  1.235154619627522 3.296874778203386 0.341106948275488  1.116692546168505 3.303664474426167 0.3334457885461357  1.252322332819381 3.142035777158432 0.2492020188512535  1.238423170829418 3.311529283106511 0.2574611126952485  1.117946555407505 3.321358428902015 0.2491573711937076  1.258848558953657 3.147731395025794 0.1660459050496924  1.242005371130922 3.325977684717796 0.1740052646364841  1.119596599566643 3.338803638169838 0.16516000782126  1.09202338188457 3.11129432288035 0.6527922740662582  1.095528650225086 3.11793612278481 0.5663749792647912  1.098759967726032 3.12486744850233 0.4802790802050994  1.101830145681382 3.131897334535302 0.3944655367686977  1.104839624448292 3.138926275140585 0.3089196136402687  1.107908234207295 3.145898195849724 0.2236551944859234  1.111341592395073 3.152559793649699 0.1386692362171576  1.772185631353796 2.953763973016738 0.7282153933256824  1.85573163625084 3.034175429989708 0.7350007055093708  1.926269943126204 2.916288040985352 0.7545222938872755  1.866401044755059 3.031280733941323 0.6561122079577412  1.781572950814221 2.94362317358839 0.6507468809601086  1.936519806762858 2.903540257924479 0.6780541770331792  1.877002899043352 3.028459777389466 0.5771929520000237  1.790913212891776 2.93357892365941 0.5732371678575747  1.946742507127002 2.890850154352706 0.6015447680544559  1.887584753125677 3.025655520291815 0.4982528863850275  1.800239319759075 2.923567298221679 0.4957088601243911  1.956967480684252 2.878168995209057 0.5250174818810452  1.898163890410124 3.022828136803786 0.4193030360670434  1.809560911758963 2.91354345765289 0.4181777370913258  1.96720498924577 2.865456483685208 0.4484839375965977  1.90877784106039 3.019937850549943 0.3403559530264158  1.818915039233381 2.903451665489048 0.340663632437654  1.977471141681527 2.852675743079141 0.3719522058574329  1.919483877662785 3.016940629365648 0.2614152038019961  1.828374513273965 2.893233597753704 0.2631739136126596  1.685425854365153 3.350630165146695 0.7436079711811807  1.791003107838315 3.409055177193125 0.7753293328457835  1.834507146966439 3.27204818871989 0.7461470554319181  1.844821545598525 3.286625831741492 0.665775384114494  1.799907898364277 3.435519445851383 0.696768437770427  1.694846092020119 3.372650359376978 0.6639341248657741  1.85499565994878 3.301262382235873 0.5854020828743367  1.808637123995267 3.462029902533081 0.6182279074177507  1.704066872740186 3.394720408612738 0.5843032370032699  1.865114752181519 3.315901683445154 0.5050328343003277  1.81729182090537 3.488538846222176 0.5397124911817005  1.713205765316358 3.416797856672642 0.5047221740954844  1.875237013594351 3.330515190361683 0.4246703132357837  1.825952194337523 3.515016517196543 0.4612223104900865  1.722353307634622 3.438847922795738 0.425187678980754  1.885414588075303 3.345080269401221 0.3443122246032941  1.834684548007278 3.541445957630221 0.3827487895590436  1.731580534874798 3.460854679718856 0.3456921517779213  1.89571697820167 3.359565601858408 0.2639524171954055  1.843551906611844 3.567813287159186 0.3042754587006201  1.740989096271194 3.482779054313938 0.2662251988722745  0.863131187756453 3.309152538202909 0.6951791144142431  0.9733413041673884 3.381630496926725 0.7175071616577456  0.9611989101770497 3.296797120112986 0.6938005641578472  0.9616365504987174 3.320652534705044 0.6070969137999584  0.9752978576774286 3.41283966039549 0.6328757049465316  0.8652078719180989 3.333401937401035 0.6065725637635438  0.9617917990470689 3.344620240463928 0.520820707437561  0.9769240980932915 3.444072360332373 0.5486421674582825  0.8669738202978722 3.357780594490527 0.5184103852764304  0.9617102505098157 3.368594868641833 0.4349409159251061  0.978326882046914 3.475249817014657 0.4648089887365807  0.8684518326610648 3.382155757854868 0.4307248757562405  0.9614878776564899 3.3
[...]
<PointData  Vectors="f_24"> 
<DataArray  type="Float64"  Name="f_24"  NumberOfComponents="3" format="ascii">4.2534882070046999e-02 -4.6710986975301717e-02 -2.7604095348372722e-02  4.0445959687692948e-02 -4.3644260310642391e-02 -1.8417463083693547e-02  4.2408640269763313e-02 -5.0602159501786398e-02 -3.3641039793408517e-02  4.2659404697321789e-02 -4.2995779028317936e-02 -3.1602945179298417e-02  4.0841326844643970e-02 -3.7600375289313863e-02 -1.4983380214867881e-02  4.2819995760533816e-02 -3.9753374750024086e-02 -2.4811971395364587e-02  4.2952615652220950e-02 -3.5835189247057371e-02 -3.0257513581567166e-02  4.1290807627064510e-02 -3.1864804929227643e-02 -1.2517830411027529e-02  4.3119848781498930e-02 -3.3235754441769634e-02 -2.2833510566044511e-02  4.3302452463783017e-02 -2.8862331059533872e-02 -2.9424105482215884e-02  4.1799319890809671e-02 -2.6198641500719648e-02 -1.0794593125670493e-02  4.3467917680142208e-02 -2.6882289486749117e-02 -2.1477707896086516e-02  4.3731495118236298e-02 -2.1855129965119759e-02 -2.9025325051637067e-02  4.2400428579111062e-02 -2.0441362450639294e-02 -9.6585966530818180e-03  4.3893053641407713e-02 -2.0498009982111414e-02 -2.0625499085079605e-02  4.3122094317077732e-02 -1.4472745827915903e-02 -8.9974456965248792e-03  4.4427290088929018e-02 -1.3935312427255288e-02 -2.0195901938781249e-02  4.4257928552620736e-02 -1.4645128136761412e-02 -2.9013702971950429e-02  4.4011685974115165e-02 -8.2234733323053623e-03 -8.7506962810639782e-03  4.5101749824827238e-02 -7.0936496031670177e-03 -2.0151049313242159e-02  4.4902059922924918e-02 -7.1151515018273437e-03 -2.9347628259713293e-02  3.3564067931120295e-02 -3.0931354631499985e-02 1.1008189750061941e-02  3.1501334505807915e-02 -2.4533021342178780e-02 1.8077251633833894e-02  3.2294207352806310e-02 -3.0341981551822255e-02 1.3393030454652947e-02  3.2812447401348650e-02 -3.0149104256670164e-02 1.7620360513520356e-02  3.1985226725439089e-02 -2.6200710197316925e-02 2.1344719454693413e-02  3.4064938640435333e-02 -3.0269105371358865e-02 1.5222507951634613e-02  3.3442913372493423e-02 -2.9271340314831137e-02 2.0402237244953242e-02  3.2524550983463657e-02 -2.6967766684283592e-02 2.3407218130559466e-02  3.4731398276671197e-02 -2.9093871213582742e-02 1.8042695206302185e-02  3.4208973419270546e-02 -2.7940650690950142e-02 2.2202492073006192e-02  3.3187661032644380e-02 -2.7101656737454870e-02 2.4530387706914146e-02  3.5490900967961946e-02 -2.7477718980393070e-02 1.9887718409583224e-02  3.5104579500074319e-02 -2.6206144742321129e-02 2.3249690853149523e-02  3.3978455950929548e-02 -2.6775582816262938e-02 2.4921558114668604e-02  3.6372480162669751e-02 -2.5483991342957927e-02 2.0999344685398894e-02  3.6157572423044522e-02 -2.4124711369374326e-02 2.3681687718058023e-02  3.4924956242936414e-02 -2.6092141272836555e-02 2.4715567177749215e-02  3.7401651579581682e-02 -2.3162956471626642e-02 2.1518129012812595e-02  3.7416693769565829e-02 -2.1749710489700664e-02 2.3606852901374067e-02  3.6027688065279957e-02 -2.5094544028901579e-02 2.3977429576784528e-02  3.8607375396716333e-02 -2.0569327990509024e-02 2.1547760257371436e-02  3.0460324217844455e-02 -2.6478107343075367e-02 1.8604842665526627e-02  3.0875899464809186e-02 -2.7738962556755571e-02 2.2259245246412342e-02  3.1434627606604502e-02 -2.8131659546707443e-02 2.4610049864282883e-02  3.2120873962809486e-02 -2.7931126394267921e-02 2.5986746995104310e-02  3.2945769430299199e-02 -2.7275336387010667e-02 2.6591151905073551e-02  3.3929443543332681e-02 -2.6245369052983331e-02 2.6565598628399519e-02  3.5112575586563680e-02 -2.4902782890088029e-02 2.6024619186338714e-02  4.1242165103299769e-02 -4.1508391293541530e-02 -1.7048195729867491e-02  4.1623960679798226e-02 -3.5877435805818016e-02 -1.3569729337696511e-02  4.2043992153733611e-02 -3.0512750354359949e-02 -1.1146741129708010e-02  4.2512451016102688e-02 -2.5165749409319458e-02 -9.4682625262177515e-03  4.3063690667937762e-02 -1.9691447609401107e-02 -8.3681702527097813e-03  4.3739277448424485e-02 -1.3996651631875254e-02 -7.7325016951576226e-03  4.4576406711520924e-02 -8.0368659212804779e-03 -7.4676971603145157e-03  3.2941997309470214e-02 -2.5650555497451457e-02 1.5498082424630856e-02  3.3437745514866390e-02 -2.6803988449990105e-02 1.8957515749332732e-02  3.4040343184757398e-02 -2.7110349178083804e-02 2.1198400597065972e-02  3.4709465736492522e-02 -2.6871047598230825e-02 2.2515376007754221e-02  3.5489674722962931e-02 -2.6238541910703732e-02 2.3096895036849058e-02  3.6409573802204859e-02 -2.5284300896473464e-02 2.3080873741982560e-02  3.7492942654894230e-02 -2.4043634085481224e-02 2.2622629061647404e-02  3.9842039786029626e-02 -3.7825069714576540e-02 -9.1322721307950418e-03  3.8688915993180986e-02 -3.8144446062802637e-02 -6.9252332565821169e-03  3.9216030058853171e-02 -3.3933852357828913e-02 -2.8392754261400851e-03  4.0317216373395026e-02 -3.3560924425106498e-02 -4.9830263313378137e-03  3.9781938607174112e-02 -2.9818271898276582e-02 3.9179659256902772e-06  4.0811203264414474e-02 -2.9358407812407741e-02 -2.0217149971393437e-03  4.0409575004704802e-02 -2.5574026238896715e-02 1.9873052870700652e-03  4.1345977241808378e-02 -2.5073946792331572e-02 7.5399745910451868e-05  4.1132632090439963e-02 -2.1124584862520796e-02 3.3191061871234002e-03  4.1967894602240353e-02 -2.0620938046969291e-02 1.5303561238498580e-03  4.1989156595052979e-02 -1.6418166655281678e-02 4.1357572838277437e-03  4.2722140451518578e-02 -1.5942498907306060e-02 2.4859772513215945e-03  4.3009243407151621e-02 -1.1437756557218405e-02 4.5193128514141034e-03  4.3673766756360956e-02 -1.0987186060239164e-02 3.0144435420418570e-03  3.5622047173235298e-02 -1.7704447703191208e-02 1.4760678316765353e-02  3.3836949566719815e-02 -1.4801762582113541e-02 1.8024502892007490e-02  3.5085313682616956e-02 -2.1076098098943358e-02 1.4266668144092130e-02  3.5836880089426197e-02 -2.3061100522270575e-02 1.6774249539070505e-02  3.4544842139910534e-02 -1.8025207841181657e-02 1.9218880279957651e-02  3.6367131785186649e-02 -2.0189203574985663e-02 1.6612171714227433e-02  3.6922855068806590e-02 -2.1776992075503428e-02 1.7725881186520104e-02  3.5129454733582914e-02 -2.0232257470183361e-02 1.9758672241420364e-02  3.6441057067568332e-02 -2.4082849968321780e-02 1.8349236337665518e-02  3.5693777402618150e-02 -2.1759485283396437e-02 1.9674045397173032e-02  3.7456016122548952e-02 -2.2762533516025266e-02 1.8165777420410208e-02  3.7043696972359090e-02 -2.4506343029991596e-02 1.9185955686803709e-02  3.6313432811447728e-02 -2.2785777133290244e-02 1.9044425186804641e-02  3.8031408520276956e-02 -2.3293138819803862e-02 1.8034141709063409e-02  3.7712979991408303e-02 -2.4489494253835460e-02 1.9409849462699764e-02  3.8712913220271601e-02 -2.3477321874037647e-02 1.7405341583186153e-02  3.8502216607577897e-02 -2.4136146614134029e-02 1.9113319468812680e-02  4.3760045523833765e-02 -3.7164194744441381e-02 -1.5132260824680284e-02  4.2616292468127627e-02 -3.7593821014805115e-02 -1.3993824680260824e-02  4.3969825892553091e-02 -4.2732969526651378e-02 -2.4365849539965154e-02  4.4233617189941281e-02 -3.6541328418441446e-02 -2.1213959226701336e-02  4.3059097550708227e-02 -3.2944734017711065e-02 -1.0207421977772187e-02  4.4144838781123012e-02 -3.2698520810294382e-02 -1.1287345498779877e-02  4.4474854637843314e-02 -3.0692570794049186e-02 -1.8903054751171905e-02  4.3418812812077358e-02 -2.8435579713258229e-02 -7.5794453885934601e-03  4.4384109434314568e-02 -2.8235083380091282e-02 -8.5027914560319631e-03  4.4723381733781119e-02 -2.4939978659104661e-02 -1.7274924676883137e-02  4.3767005234816421e-02 -2.3840554574534080e-02 -5.7125890262829312e-03  4.4596595254315058e-02 -2.3692695153254201e-02 -6.4608134325951621e-03  4.5028632372158511e-02 -1.9117188606137214e-02 -1.6166673201292305e-02  4.4170754412170422e-02 -1.9074052809443427e-02 -4.4066151405769112e-03  4.4859278282100623e-02 -1.9008945601266720e-02 -4.9761717963170997e-03  4.5441240470619197e-02 -1.3114803117341936e-02 -1.5471054141124988e-02  4.4687582443658544e-02 -1.4083542407925032e-02 -3.5326813120299398e-03  4.5232769898665141e-02 -1.4128249892321572e-02 -3.9203832764192169e-03  4.6021832556229388e-02 -6.8509674087563616e-03 -1.5140020319715843e-02  4.5356408264878967e-02 -8.8400532263940516e-03 -3.0019572592836089e-03  4.5753678708512983e-02 -9.0010682182689646e-03 -3.2031820617243472e-03  4.5234185007305396e-02 -4.1542854839429953e-02 -2.4816619655462478e-02  4.5441458790980133e-02 -3.5500951048464922e-02 -2.1672426873143968e-02  4.5604866071934008e-02 -2.9726562732059401e-02 -1.9476092934380382e-02  4.5746786820905376e-02 -2.3994542773096612e-02 -1.7910262784774488e-02  4.5938359411872513e-02 -1.8179495881707509e-02 -1.6827471093925926e-02  4.6237080251281724e-02 -1.2184016239135053e-02 -1.6130775700321016e-02  4.6692887353244839e-02 -5.9420561878280702e-03 -1.5746021708563287e-02  4.1174032692421751e-02 -5.4657678194312900e-02 -3.6337750381647986e-02  3.9350037817127398e-02 -5.1604632843398508e-02 -2.7349646237039948e-02  4.0049805425283837e-02 -5.8395793893212228e-02 -3.9425722920369881e-02  3.9796562477063771e-02 -4.3954117432211288e-02 -2.4657551842991478e-02  4.1486312508075891e-02 -4.6432453829990936e-02 -3.4701913943978070e-02  4.0521433827286742e-02 -4.9665595066115877e-02 -3.8095512559625032e-02  4.0319673431057627e-02 -3.6771719367725414e-02 -2.2761986163482458e-02  4.1891487961294466e-02 -3.8810957004925525e-02 -3.3747954067681663e-02  4.1059948716295147e-02 -4.1586879988744191e-02 -3.7422231778496552e-02  4.0922162574227393e-02 -2.9792431406094812e-02 -2.1504831155182005e-02  4.2359467708921059e-02 -3.1391102443329773e-02 -3.3272829452754595e-02  4.1653635543766769e-02 -3.3760875786190248e-02 -3.7184173139806945e-02  4.1619049708196493e-02 -2.2784700434153718e-02 -2.0773388919773435e-02  4.2903639023904670e-02 -2.3932336915496840e-02 -3.3208362026946957e-02  4.2320125931214571e-02 -2.5895740546679993e-02 -3.7329436642307465e-02  4.2429827543022970e-02 -1.5577662151841030e-02 -2.0497641478573275e-02  4.3539637142581050e-02 -1.6247486202563218e-02 -3.3521360367571140e-02  4.3079284899818084e-02 -1.7780639959484482e-02 -3.7841347565705077e-02  4.3378304933513814e-02 -8.0388194343958864e-03 -2.0641547064358334e-02  4.4273686722112293e-02 -8.1945076333078751e-03 -3.4191126048213276e-02  3.7120324568199053e-02 -3.6004937074620137e-02 -1.1464983595828101e-03  3.5512710646654309e-02 -3.4189000582148750e-02 4.1821660325477954e-03  3.6699475312144632e-02 -4.0431814436913203e-02 -5.5639074903373357e-03  3.7254097407451885e-02 -3.5902598038670762e-02 -1.3395795589861629e-03  3.6096071455315362e-02 -3.1947588219752070e-02 8.5901222361417749e-03  3.7699111636991987e-02 -3.2850158517312371e-02 3.1964116280055548e-03  3.7889203141323741e-02 -3.1460720776701617e-02 1.7262018139161338e-03  3.6758827862821919e-02 -2.9532252265294139e-02 1.1658502882620377e-02  3.8311071334491589e-02 -2.9563032378524746e-02 6.2682622304305394e-03  3.8616124662263988e-02 -2.6955476512334427e-02 3.8844227934969533e-03  3.7498960301368955e-02 -2.6822215859522651e-02 1.3757521671598012e-02  3.8991721224571348e-02 -2.6089188170042400e-02 8.4217243888465576e-03  3.9455357514143675e-02 -2.2275591605564856e-02 5.3348569144806568e-03  3.8349364243965352e-02 -2.3813767654672732e-02 1.5128575635058497e-02  3.9776808240795797e-02 -2.2379546445522144e-02 9.8748528320428911e-03  4.0434185490025684e-02 -1.7347517676581669e-02 6.2133037406225562e-03  3.9340176287715696e-02 -2.0513063478155565e-02 1.5921627972949291e-02  4.0703984187798206e-02 -1.8406692800741989e-02 1.0773423050532957e-02  4.1586211793072404e-02 -1.2114517737327890e-02 6.6037092658719661e-03  4.0498912888519763e-02 -1.6928346256353970e-02 1.6217757461935652e-02  4.1818435594705765e-02 -1.4151879344925514e-02 1.1240259964402562e-02  4.5880520042682664e-02 -3.4848538899826760e-02 -1.1289804412371558e-02  4.3766966198935088e-02 -3.1631416162776323e-02 -5.7319778446262761e-03  4.4725752358673383e-02 -3.4970910126826016e-02 -1.1619230520615236e-02  4.4987692685860524e-02 -3.1426513223316029e-02 -7.6647853378673334e-03  4.4040307896190387e-02 -2.9325811299484150e-02 -1.7602739514091150e-03  4.5920421733364067e-02 -3.1292504293419184e-02 -7.3383946144521409e-03  4.5065614841638318e-02 -2.7788407318669377e-02 -4.6770429047543315e-03  4.4144999614446595e-02 -2.6754906995776286e-02 1.2061181222072252e-03  4.5813224809780478e-02 -2.7710788499313539e-02 -4.3900080623589686e-03  4.5084172490685991e-02 -2.3997531277642023e-02 -2.4532821138458787e-03  4.4187407220523667e-02 -2.3936961981843419e-02 3.4043285176872909e-03  4.5654608626028721e-02 -2.3978103975014316e-02 -2.1999119873844261e-03  4.5136793132274769e-02 -2.0029715741739569e-02 -8.0475740747433153e-04  4.4268485020012398e-02 -2.0878730506430236e-02 5.0136743651842796e-03  4.5535293989999392e-02 -2.0061303042242008e-02 -5.7449390570273745e-04  4.5303238899229492e-02 -1.5860210041479261e-02 4.0621322890697963e-04  4.4479584242220919e-02 -1.7584397524748181e-02 6.1664672642831857e-03  4.5541868340542635e-02 -1.5942329114220496e-02 6.2648378441460461e-04  4.5661383814567864e-02 -1.1463947863689573e-02 1.2456031593216499e-03  4.4919314725460506e-02 -1.4062080144441600e-02 6.9755516674726145e-03  4.5770726817919334e-02 -1.1616477512661904e-02 1.4734727193339698e-03  3.8664614114693595e-02 -4.2419424467790859e-02 -1.2496689069111571e-02  3.9178922091331607e-02 -3.6948195565364085e-02 -8.7430698548859528e-03  3.9724273122735757e-02 -3.1725974326698388e-02 -6.0276159046364153e-03  4.0348686060106130e-02 -2.6513576797728762e-02 -4.1307620117424573e-03  4.1076027894077688e-02 -2.1166949026974781e-02 -2.8745427570869299e-03  4.1934710855985102e-02 -1.5591618652823986e-02 -2.1384263867233900e-03  4.2953869062293641e-02 -9.7149308981138160e-03 -1.8500981458148794e-03  4.2079864464622051e-02 -6.2525622547251483e-02 -4.9181146899992353e-02  4.2365017374244487e-02 -5.3630488435918451e-02 -4.9018340697196301e-02  4.2681282784302874e-02 -4.5451501000365949e-02 -4.9181416836191899e-02  4.3049759463023286e-02 -3.7561153144370710e-02 -4.9630581160869547e-02  4.3472957759026133e-02 -2.9644012944893740e-02 -5.0357769134119837e-02  4.3962303915832911e-02 -2.1468273195621227e-02 -5.1371675943539641e-02  4.4532152581127527e-02 -1.2854914051126039e-02 -5.2696772008660291e-02  3.8769701713668614e-02 -4.6377369929048382e-02 -1.8418856640231178e-02  4.0517966978702892e-02 -4.9317020077941309e-02 -2.6719058716210435e-02  4.0922896057767007e-02 -4.2076587046511724e-02 -2.4062645679743391e-02  3.9243376294779649e-02 -3.9866632030237985e-02 -1.5018160300896201e-02  4.1348567467098467e-02 -3.5246162454587372e-02 -2.2157405794001266e-02  3.9791550680283186e-02 -3.3687803494656880e-02 -1.2593590552100254e-02  4.1842536867110869e-02 -2.8584860049425752e-02 -2.0888076024124336e-02  4.0425253322191705e-02 -2.7613363586209101e-02 -1.0914555849994017e-02  4.2426902606030249e-02 -2.1885264074783906e-02 -2.0137190578005920e-02  4.1162327235288627e-02 -2.1460443280096730e-02 -9.8338678553506337e-03  4.3124360241716862e-02 -1.4989692016607525e-02 -1.9827228025263665e-02  4.2025769311217737e-02 -1.5096045121408696e-02 -9.2567377276692436e-03  4.3955946305434195e-02 -7.7734067084302841e-03 -1.9921532972993587e-02  4.3032359042285279e-02 -8.4222700096253048e-03 -9.1212352337209993e-03  4.2876475530524566e-02 -5.6756941664130624e-02 -4.3294785249878447e-02  4.3037267255241311e-02 -4.8395826227105282e-02 -4.2320014739893441e-02  4.3268240303790714e-02 -4.0621418070522365e-02 -4.1806207540513014e-02  4.3554145888865109e-02 -3.3083484251407676e-02 -4.1664382785607149e-02  4.3907675240014855e-02 -2.5522056642306168e-02 -4.1856023256147373e-02  4.4344006098921543e-02 -1.7742449397704287e-02 -4.2370029784085626e-02  4.4882551971564329e-02 -9.6006969736299620e-03 -4.3208992106479431e-02  3.4668973429598432e-02 -3.6900714112326649e-02 2.9652097717812304e-03  3.5245962237829179e-02 -3.3875292168358620e-02 7.4830103819383187e-03  3.5917348481679538e-02 -3.0794515665108217e-02 1.0721530840882386e-02  3.6703872089152677e-02 -2.7509801641073098e-02 1.2950331522258487e-02  3.7614373441145030e-02 -2.3954089732043590e-02 1.4409170751242640e-02  3.8671985720206595e-02 -2.0110202541929717e-02 1.5253722742932385e-02  3.9903335636753877e-02 -1.5973582066559092e-02 1.5566000427030931e-02  3.2416620546507596e-02 -1.1520598271725841e-02 2.1046317325277973e-02  3.1930553292306964e-02 -1.5154055179612937e-02 2.0892958798541309e-02  3.3446874217676371e-02 -1.8710055210190889e-02 1.7508030165784918e-02  3.4129260265809452e-02 -2.1342818002831537e-02 1.9492492607565654e-02  3.3270636114019030e-02 -3.4512114679560418e-02 8.0360702404783605e-03  3.3830945601370364e-02 -3.2524412811353057e-02 1.2535683101834080e-02  3.4519866779412184e-02 -3.0426030553069652e-02 1.5697728658356377e-02  3.5322652907232570e-02 -2.7963499147284045e-02 1.7830816348842534e-02  3.6252641818554976e-02 -2.5153589883807607e-02 1.9188119920271890e-02  3.7331151064270422e-02 -2.2019529446147625e-02 1.9925696326045607e-02  3.8600570049225534e-02 -1.8595988130355318e-02 2.0100712294483639e-02  4.7594002685850206e-02 -3.4718370933680610e-02 -1.0246148330962549e-02  4.4944343795716567e-02 -3.0758218011935148e-02 -4.3660466420633289e-03  4.4944772668035531e-02 -2.8681783223195853e-02 -3.9268697312354740e-04  4.7290853092642936e-02 -3.1160325963411895e-02 -6.3526440744961481e-03  4.4818304986640266e-02 -2.6399904615599604e-02 2.4491479786613356e-03  4.6855292641523653e-02 -2.7627147618705758e-02 -3.5102838836873671e-03  4.4648095873667332e-02 -2.3848494877123275e-02 4.5412639392139013e-03  4.6392342534413038e-02 -2.3942922375642314e-02 -1.4209839814619176e-03  4.4531610121724241e-02 -2.1042423426327981e-02 6.0664846184691713e-03  4.5987449438472300e-02 -2.0065892785663619e-02 1.2736312885941535e-04  4.4566206942171678e-02 -1.7998264263504760e-02 7.1563662662708898e-03  4.5722958617712327e-02 -1.5990206948473522e-02 1.2808950977439648e-03  4.4854967215735030e-02 -1.4752545063049181e-02 7.9382506443995225e-03  4.5689376029935613e-02 -1.1730984031427610e-02 2.1221025894152959e-03  3.6176699440544191e-02 -3.0645321883727636e-02 5.8997332023837338e-03  3.4398938755352396e-02 -2.8496468088533265e-02 1.1244845763965054e-02  3.5008812847830098e-02 -2.8498935874593401e-02 1.5227157914592993e-02  3.6802181285913942e-02 -2.9641219366991049e-02 1.0102004700352940e-02  3.5654442011005233e-02 -2.7868543050883227e-02 1.7810553973402560e-02  3.7423677595611951e-02 -2.8162547888938096e-02 1.3069493845520233e-02  3.6371676348943310e-02 -2.6773007374126422e-02 1.9471706978428611e-02  3.8092912283517563e-02 -2.6306090471281074e-02 1.5083512695614074e-02  3.7194315634588346e-02 -2.5302153544612974e-02 2.0425842657947845e-02  3.8854216876405299e-02 -2.4124695908804183e-02 1.6390491565353469e-02  3.8152420771175685e-02 -2.3514259474687615e-02 2.0809571562809527e-02  3.9750064095860412e-02 -2.1651382621435553e-02 1.7142855598774473e-02  3.9239540068423860e-02 -2.1477848178988131e-02 2.0729207327571223e-02  4.0825350535689905e-02 -1.8879715009469836e-02 1.7381260812133172e-02  3.7828031660285887e-02 -3.2665599781700604e-02 1.2060658238700161e-03  3.8378294088137213e-02 -3.0552419841234798e-02 5.4942487072566970e-03  3.8974513540780069e-02 -2.8150167397320520e-02 8.4595310646847117e-03  3.9612288128374550e-02 -2.5459099569522501e-02 1.0521293784050112e-02  4.0335462791149482e-02 -2.2481488079033603e-02 1.1910604772152668e-02  4.1199866349685629e-02 -1.9222735783856089e-02 1.2773475697095464e-02  4.2259843591710020e-02 -1.5677857836578376e-02 1.3216440736402348e-02  3.5520276910129878e-02 -4.2190710845044263e-02 -5.3649398305942236e-03  3.6115319280631580e-02 -3.7307980439421962e-02 -1.0036304234551977e-03  3.6820366723261784e-02 -3.2556650770565347e-02 2.1653746472540467e-03  3.7623869846703649e-02 -2.7776509873976184e-02 4.3945692938983285e-03  3.8545028080753233e-02 -2.2840926376151156e-02 5.8851885210965318e-03  3.9607065626487789e-02 -1.7660827625925857e-02 6.7720405902838583e-03  4.0839057101752