<?xml version="1.0"?>
<VTKFile type="UnstructuredGrid"  version="0.1"  >
<UnstructuredGrid>
<Piece  NumberOfPoints="1006" NumberOfCells="4267">
<Points>
<DataArray  type="Float64"  NumberOfComponents="3"  format="ascii">9.110747725794669 2.138052330453744 1.473437160513647  9.005307589058482 2.110191301780934 1.473325871788899  9.066032942585505 2.215280195139028 1.430135301919425  9.07162355752358 2.192164402533042 1.38243733966309  9.012473665710187 2.087283616673989 1.42497174124746  9.11644742530828 2.1148059591856 1.425478514831641  9.077199916701501 2.169076243492801 1.334974158191225  9.019624951031915 2.064451882544189 1.376831785549784  9.122096300865362 2.091633986253709 1.377753791827352  9.082745952382398 2.146009614980637 1.28777010782208  9.026757616248629 2.041685358099113 1.328922888563356  9.127715905444967 2.068524249409973 1.330259815986157  9.088293008666165 2.123021737721033 1.240792134201174  9.033884271247686 2.018998222289875 1.281220330369993  9.133333840756993 2.045492600180047 1.28297621689253  9.093813878394423 2.100139873071904 1.194053707698265  9.040961320080672 1.996371261468282 1.23373799315006  9.138928503004342 2.022534365019493 1.235919316023394  9.099270310590313 2.077398514760172 1.147579820769074  9.04793963166362 1.973786254287034 1.18654735220855  9.144471360636294 1.999647677167624 1.189154069453633  8.951680934866255 2.225167131138125 1.411817685802035  8.958796762410024 2.202752101470122 1.363829378552199  8.965914722870311 2.180375463220109 1.316115795241056  8.973027615265368 2.158009839928115 1.26864066833887  8.980131324385855 2.135708007028473 1.221389223114659  8.987186342858104 2.113509466538448 1.174359375523593  8.994118903120452 2.091469128468093 1.127633197203505  9.359045264998674 2.420638358099793 1.070265525796408  9.469950848785535 2.45037133707343 1.050784694148836  9.421209352083586 2.517749519969346 0.992439510780298  9.469197479048869 2.482460412246461 1.095311801559923  9.42189790415885 2.484170737618682 0.9468039327809619  9.359848480483215 2.389425682718346 1.025686199396019  9.470703707350436 2.41847593805862 1.006304121815004  9.422580538183462 2.450956880694304 0.9010186978195266  9.360674223852151 2.358621322603519 0.9810214633753767  9.471445695185253 2.386975321054052 0.9617199036218199  9.313268128523308 2.475964335322759 0.9501370727925305  9.314044500998317 2.442834221587371 0.9041294992976986  10.06717446290109 1.890545214332218 1.690282351435954  9.948202398422481 1.867620679798455 1.722799036336107  10.00538722889914 1.962673727023911 1.620615214239507  10.003024262009 1.925391307740197 1.579552173851677  9.948195248306707 1.824195143121901 1.687177402020206  10.06489261091686 1.847241551212323 1.654027646589613  10.00033758199189 1.88830916902647 1.53851918921759  9.947851929118075 1.780974365428067 1.651511932073753  10.06222368818169 1.804140797772243 1.617735647461695  9.997516710546558 1.851332633477752 1.497564712884845  9.947363149640799 1.737875142223331 1.615881167657034  10.05940971946597 1.761146615215076 1.581481591941018  9.99471810813073 1.814411428756155 1.456714925705684  9.946894540959606 1.694849632079778 1.580338139709241  10.05663687738222 1.718213910080646 1.545313480039884  9.992092003445851 1.777522481565892 1.415990571470915  9.946610505520674 1.651885189027064 1.544926177698084  10.05409146759299 1.675339497082793 1.509278610540845  9.989830473002495 1.74068380349911 1.375403754227483  9.946725962783708 1.608975491254483 1.509694234644065  10.052007687967 1.632504461555235 1.473390500740591  9.044075811797457 2.318102740634598 1.379620272643235  9.048728389421047 2.293688929741289 1.332583986876654  9.053384585493911 2.269240467940013 1.285799889844887  9.058026835841668 2.244787848586812 1.239276177951238  9.062662904416495 2.22039211099725 1.192972687941205  9.067284356587948 2.196117007730667 1.14686718986229  9.071895925727874 2.172109846789079 1.100960481896526  8.925473806357003 2.338014652530459 1.354542809644796  8.932414569627536 2.31413709004106 1.307165702440043  8.939390020398614 2.290223779844884 1.260069393055505  8.946390098485097 2.266299888712706 1.213218262937022  8.953379779143809 2.242422771804358 1.166596939412921  8.960327980334503 2.218680489670096 1.120178705346944  8.967144982138981 2.195237834488886 1.073983249267594  9.892723816666035 1.932898649444227 1.647884763887866  9.892076491814048 1.894345276974572 1.607944754076704  9.891161161835305 1.856025031746173 1.568056014446823  9.890124117819418 1.817828765901739 1.528258778931135  9.889117212410227 1.779712035829134 1.488591087862257  9.888300993501666 1.741665695312084 1.449098296500596  9.887817813090246 1.703688401694044 1.409781500373775  9.878066603501678 2.197771740281269 1.463218644764811  9.884423786644048 2.108594713571193 1.516689289086488  9.737473532880706 2.13848794366444 1.502918538732078  9.736504905532547 2.110377317317166 1.458014993811821  9.882059724981969 2.079299408165919 1.471862260147382  9.876032896413777 2.170999245681662 1.417711784540597  9.879489994578348 2.050125170616985 1.427181083324602  9.873825664083007 2.144281663536704 1.372369881353866  9.735360437995505 2.082379067119963 1.413313310173704  9.876804390402475 2.021033521459203 1.382660286687001  9.8715146221727 2.117614837878249 1.327204453532145  9.73411871513043 2.054446014774577 1.368787533500134  9.874123154453081 1.991996541159228 1.338298974033195  9.869198169246944 2.090999417927288 1.282202618524915  9.732868715307587 2.026572947666704 1.324442086237198  9.871580082804188 1.963013112558842 1.29410849215635  9.866990960530012 2.064452511735322 1.237373628336871  9.731713539443232 1.998775346297764 1.280296234905313  9.865020377979491 2.037991882249877 1.192718893306451  9.869347127979736 1.934124301810111 1.250137741140201  9.730792170005106 1.971072439811866 1.236358263739212  9.762453029215402 2.226578974391355 1.450733762831421  9.761210112682994 2.200394951097175 1.405293622012032  9.759841947803523 2.17425964256051 1.360066806899582  9.758389974834795 2.148166092414498 1.315032734992324  9.756922973293298 2.122123658923897 1.270172795185494  9.755523493683567 2.096162950954779 1.225481384132115  9.754299288813627 2.070330418198943 1.180973344108462  10.18237754519869 2.486595088995855 1.250032907889051  10.09704287629291 2.577631902774217 1.201919946209197  10.21233653359902 2.564093264898493 1.191682207899323  10.20446246047044 2.532908800568284 1.146454719274399  10.09055032886323 2.545988948061397 1.1571832898349  10.17440956819757 2.456388869548368 1.205439352709684  10.19641599546087 2.501652255554515 1.101413721568459  10.08391790958759 2.514226700391798 1.112659922076189  10.16622322703168 2.426149966228646 1.16101996046315  10.18828991259779 2.470390651143241 1.056496236505544  10.07721415074226 2.482438316692912 1.068294477716165  10.1579258479796 2.395924536748774 1.116728787396322  10.18017374666992 2.439173438792123 1.011650606843086  10.0705141411949 2.450689153279837 1.024019083278784  10.14962881556384 2.365747163137943 1.072525734227933  10.17215936396657 2.408059138279055 0.9668353151995593  10.06389882845824 2.419060879770752 0.9797708122144704  10.14145611589388 2.335665869727707 1.028379065100537  10.16434643289714 2.377122562963149 0.9219976433021864  10.05744638753962 2.387684454212802 0.9354714105261187  10.13358671827994 2.305733097972678 0.9842477582576911  10.51521725924049 2.060824668317986 1.461020011329014  10.41050090364608 2.046486714906758 1.491726301689819  10.43877450571167 2.139800838697322 1.422566991255561  10.42883807013681 2.109260252238256 1.376129210938462  10.40118841178389 2.010552939280521 1.448096271073413  10.50594015652713 2.026161615668435 1.415589802247046  10.41839996114527 2.078908860916804 1.329687192933364  10.39131211221289 1.97480777911104 1.404426356874539  10.49614045356391 1.991681238587793 1.370043909569807  10.40778619967313 2.048625803558926 1.283257810519272  10.38129129070314 1.939115481816316 1.36077844738835  10.48622209868468 1.957223730179825 1.324476179546008  10.39724724453217 2.0183301467532 1.236862723091535  10.37140277609946 1.903401110342682 1.317181669471123  10.47644902337018 1.922712934650823 1.278932758662538  10.38700466196753 1.987961941107818 1.190509095148424  10.36188666006624 1.867623160791205 1.273644346639319  10.46701214706529 1.888100610523676 1.23342283363076  10.3773012682863 1.957462006725918 1.144166042168173  10.35299300049955 1.831754968883876 1.230124881273579  10.45803423882715 1.853349116664994 1.187908863721123  9.653063707303533 2.253021019610726 1.436296656050593  9.652730120541188 2.226383395414349 1.39124228667329  9.652298294561129 2.199773714351004 1.346382052779746  9.651796800736836 2.173200311032898 1.301742299284107  9.651278149068684 2.146678760213709 1.257289705452899  9.650800012739237 2.120251339023624 1.213012866701984  9.650443819648613 2.093998935355305 1.168904349576523  10.08080241859362 2.475229525087121 1.27576911749144  10.07444354259733 2.445357411507348 1.231509051563055  10.06789665449566 2.415436325718041 1.187449042841728  10.0612384132586 2.385516158910125 1.143546646301547  10.05456883986339 2.355638512823905 1.099750607841372  10.04800263717456 2.325863130141573 1.056017909749752  10.0416957600438 2.296294454761618 1.012309076270363  10.30976919235812 2.108007972049885 1.467098138788229  10.30128758544517 2.076532065126067 1.421670008909758  10.29234280761345 2.045247624300977 1.376293213326025  10.28323023790625 2.01403941259752 1.330960872535188  10.27418761595333 1.982842102155678 1.285694409783679  10.26544132063292 1.951611272084165 1.240504928853752  10.25724411379493 1.920299751277261 1.195386001297892  9.608640864320487 2.165638979853152 1.489584380999816  9.609089510492369 2.138326798367036 1.444469257625093  9.609415882013202 2.111124758145892 1.399614124290363  9.609676134438788 2.084000962063303 1.35496841033132  9.609921581165512 2.056937040030925 1.310508917216899  9.610215852674949 2.02993666
[...]
<PointData  Vectors="f_24"> 
<DataArray  type="Float64"  Name="f_24"  NumberOfComponents="3" format="ascii">-1.3040820382977984e-04 -1.3132228537493017e-03 -4.0049707570416997e-04  -1.1617281609121690e-04 -1.2881255640981980e-03 -3.6501657715104881e-04  -1.1999952079649167e-04 -1.2955232343622549e-03 -3.7092254937499855e-04  -1.4125674315799698e-04 -1.2856821062587136e-03 -3.8736694383493728e-04  -1.3695545232001900e-04 -1.2864288844900921e-03 -3.7377946546489544e-04  -1.5054917173961980e-04 -1.3106460321552864e-03 -4.1024237287163868e-04  -1.6235639006623005e-04 -1.2710368135881234e-03 -4.0050143425207516e-04  -1.5776756193372593e-04 -1.2785917590212715e-03 -3.8100539783077973e-04  -1.7056983729618529e-04 -1.3020680021299015e-03 -4.1805241997166706e-04  -1.8344927350473920e-04 -1.2530186600965270e-03 -4.1015938390245329e-04  -1.7862866611829194e-04 -1.2674316987302630e-03 -3.8594402291895118e-04  -1.9059201639558794e-04 -1.2899738424181873e-03 -4.2330100388085869e-04  -2.0478450092753544e-04 -1.2330716099912882e-03 -4.1562793721744738e-04  -1.9977564077494490e-04 -1.2552323288368998e-03 -3.8762211810716972e-04  -2.1083007770893855e-04 -1.2765207495420373e-03 -4.2498326336418249e-04  -2.2670884680827666e-04 -1.2128086007213333e-03 -4.1550870777748054e-04  -2.2147995374440752e-04 -1.2443864198456200e-03 -3.8474216844977934e-04  -2.3158072331985887e-04 -1.2640086885617090e-03 -4.2167881204877727e-04  -2.4969542423360585e-04 -1.1946197798794543e-03 -4.0829911677888706e-04  -2.4392037385745905e-04 -1.2375705228628998e-03 -3.7557710136033049e-04  -2.5319673392636068e-04 -1.2553423154562054e-03 -4.1176384869766184e-04  -1.0199594456839597e-04 -1.2632672336209054e-03 -3.2222968660590792e-04  -1.2415773371988420e-04 -1.2509384595748682e-03 -3.4056807833222110e-04  -1.4617784509937825e-04 -1.2342412079330736e-03 -3.5538904368938919e-04  -1.6827347035211612e-04 -1.2144396733888159e-03 -3.6673153407989378e-04  -1.9080325241972693e-04 -1.1927672224611257e-03 -3.7395472071132972e-04  -2.1425385656114406e-04 -1.1705971836819653e-03 -3.7575290710277872e-04  -2.3928794726690969e-04 -1.1500514132728118e-03 -3.7023877648581597e-04  -2.8270964974168566e-04 -1.0533596713240493e-03 -3.7708170293870819e-04  -3.0509402870667354e-04 -1.0385999570634030e-03 -3.8693931785769935e-04  -3.1272950512681579e-04 -9.2763921518300950e-04 -2.9456170618166966e-04  -2.8554915806665613e-04 -1.0894565310574349e-03 -3.5882233034956765e-04  -3.3438198521018266e-04 -8.6442301142735907e-04 -3.2794796421268884e-04  -3.0386189428238946e-04 -9.9833581608111169e-04 -4.0079321580247570e-04  -3.2504978393545984e-04 -9.8175892953849945e-04 -4.1331428729114744e-04  -3.5697226188290669e-04 -7.9181666506565195e-04 -3.6351197570521661e-04  -3.2575647791257607e-04 -9.3389352718408457e-04 -4.2358902528539486e-04  -3.4582416121772960e-04 -9.1533611476471823e-04 -4.3928449646032003e-04  -3.1862889721282172e-04 -8.5275469781609197e-04 -2.9649754788375828e-04  -3.4232076406526978e-04 -7.8011957374330624e-04 -3.3197806323949732e-04  -2.8127401854360229e-04 -1.4425637356877490e-03 -5.3358984582787844e-04  -2.5885864911025225e-04 -1.4494305173961902e-03 -5.0403718330894608e-04  -2.8676183027646310e-04 -1.4266539277844683e-03 -5.5981996643605860e-04  -2.9136409318672739e-04 -1.4247845462858426e-03 -5.5102174258568864e-04  -2.6532694532318320e-04 -1.4411467477064086e-03 -4.9442321630359658e-04  -2.8535989584117387e-04 -1.4346837296154791e-03 -5.2450894893382933e-04  -2.9646401801048088e-04 -1.4199652689615202e-03 -5.4533046492485232e-04  -2.7167242813743646e-04 -1.4328667201406735e-03 -4.8886075803120826e-04  -2.8976919321387691e-04 -1.4265438231192212e-03 -5.1924968258655916e-04  -3.0174824609356324e-04 -1.4141090403104906e-03 -5.4055643639495878e-04  -2.7794381066636889e-04 -1.4254506502077199e-03 -4.8523525123057116e-04  -2.9428239131518494e-04 -1.4188848701265602e-03 -5.1562258653643051e-04  -3.0692474182688907e-04 -1.4087978994451135e-03 -5.3521326907845048e-04  -2.8419092271957395e-04 -1.4194848234855900e-03 -4.8212263230340769e-04  -2.9880454743900765e-04 -1.4124553320357014e-03 -5.1229127278999036e-04  -3.1181448389461139e-04 -1.4053866953811938e-03 -5.2826678435917321e-04  -2.9045584811071979e-04 -1.4155545364188237e-03 -4.7860829543460250e-04  -3.0327641912186683e-04 -1.4079491521626520e-03 -5.0841138865345985e-04  -3.1632252430882201e-04 -1.4050344619381677e-03 -5.1898389080150145e-04  -2.9682988903464161e-04 -1.4141891492502447e-03 -4.7403076665483175e-04  -3.0761074439158282e-04 -1.4058684972011143e-03 -5.0356165783361031e-04  -1.1444455742755384e-04 -1.2752562091352157e-03 -3.1761521331620610e-04  -1.3725030391512053e-04 -1.2548929415291427e-03 -3.4191966823210788e-04  -1.5954685827656678e-04 -1.2313750918688101e-03 -3.6200606262162306e-04  -1.8168931496484101e-04 -1.2049985841680070e-03 -3.7803285926328302e-04  -2.0408021483134814e-04 -1.1760713721221179e-03 -3.8971711826147487e-04  -2.2712112861869048e-04 -1.1446840752468680e-03 -3.9608734416651001e-04  -2.5124179011098193e-04 -1.1103480565410012e-03 -3.9481935252118594e-04  -9.7948097822103436e-05 -1.2361721060353483e-03 -2.5382189113329448e-04  -1.2140182588493847e-04 -1.2119146896755757e-03 -2.8048916411961122e-04  -1.4469803380407577e-04 -1.1852188844938673e-03 -3.0281949579845423e-04  -1.6799454514406547e-04 -1.1560994426334092e-03 -3.2113615975859770e-04  -1.9169571864463769e-04 -1.1245750868198740e-03 -3.3525532721452421e-04  -2.1639848561683637e-04 -1.0903753360708012e-03 -3.4427306044001094e-04  -2.4306212269035985e-04 -1.0528339176360763e-03 -3.4617104556888367e-04  -2.6346862967555968e-04 -1.4322309387997082e-03 -5.3105824792364412e-04  -2.7055358934658871e-04 -1.4297240400671569e-03 -5.2097769972814603e-04  -2.7766618831108388e-04 -1.4250446192526761e-03 -5.1421472708923185e-04  -2.8482772265897794e-04 -1.4197516655477410e-03 -5.0866827060980441e-04  -2.9188157471344715e-04 -1.4153322507062603e-03 -5.0276085032565981e-04  -2.9876391575654141e-04 -1.4130276677564511e-03 -4.9551932248409459e-04  -3.0542067551079751e-04 -1.4139142089113733e-03 -4.8655849063706732e-04  -2.9332251687737732e-04 -1.4033333955623007e-03 -5.9399199454076125e-04  -2.8526794827200965e-04 -1.4111607366336571e-03 -5.8975176420266655e-04  -2.5670938985694933e-04 -1.4063176557342484e-03 -5.6970062801383746e-04  -2.6660649591202603e-04 -1.4068990682737201e-03 -5.7292813257313140e-04  -2.9222397901791826e-04 -1.4120285605258073e-03 -5.8983240515778990e-04  -3.0069620721281378e-04 -1.4000231816707425e-03 -6.0170220458519706e-04  -2.9962892543243291e-04 -1.4071489673738388e-03 -5.8975301880943528e-04  -3.0871171199127988e-04 -1.3907762932659988e-03 -6.0754492055415234e-04  -2.7686317519233489e-04 -1.4012027932983309e-03 -5.7516891597923412e-04  -3.0714690394522781e-04 -1.3992202253188719e-03 -5.8821305387831032e-04  -3.1681054204146244e-04 -1.3778976058437227e-03 -6.1070934183363483e-04  -2.8716168798000898e-04 -1.3921081868871784e-03 -5.7530073489084181e-04  -3.1443190460421673e-04 -1.3904741726850352e-03 -5.8390006854091366e-04  -3.2458257044532196e-04 -1.3632872164181303e-03 -6.1014675361370757e-04  -2.9732103833490515e-04 -1.3818227939039606e-03 -5.7215458779167488e-04  -3.2117114588798998e-04 -1.3830357061716571e-03 -5.7554527489457445e-04  -3.3164177291021579e-04 -1.3489452375383697e-03 -6.0449124006239582e-04  -3.0712795039455936e-04 -1.3724306003194114e-03 -5.6451559350504234e-04  -3.3768256079994219e-04 -1.3372809740219028e-03 -5.9254553120976757e-04  -3.2702141857893067e-04 -1.3793368350507992e-03 -5.6264580793008055e-04  -3.1644664706742971e-04 -1.3661291897312231e-03 -5.5136893414137070e-04  -2.6898340278172657e-04 -1.3998868942179925e-03 -5.7167062380191727e-04  -2.7887683815524535e-04 -1.3943090448568706e-03 -5.8283314122504061e-04  -2.8913921163574029e-04 -1.3831556899117309e-03 -5.9117969740322821e-04  -2.9949209060525762e-04 -1.3682267768731476e-03 -5.9631277426224719e-04  -3.0968215467968468e-04 -1.3511869442381218e-03 -5.9739026690912387e-04  -3.1944171480940953e-04 -1.3337822963509880e-03 -5.9311490947702727e-04  -3.2848004420594416e-04 -1.3183242388108678e-03 -5.8190598858101270e-04  -3.8395704735990878e-04 -1.3011584007285467e-03 -5.0388808701994482e-04  -3.6696030540645430e-04 -1.2591918211017161e-03 -4.0979474018942240e-04  -3.9256771065187570e-04 -1.2505397377811048e-03 -4.3910633597083436e-04  -4.0037105277214761e-04 -1.2119464444574196e-03 -4.7272317250182698e-04  -3.7684454835367143e-04 -1.2185609803702071e-03 -4.4591062803970660e-04  -3.9043563910626651e-04 -1.2713037242751567e-03 -5.3305106562515948e-04  -4.0761222031191868e-04 -1.1723919822142852e-03 -5.0082886016896973e-04  -3.8624869618568788e-04 -1.1776172079022539e-03 -4.7640758591492100e-04  -3.9650715324179544e-04 -1.2393313146647207e-03 -5.5702142426325494e-04  -4.1430908178458357e-04 -1.1309913861425427e-03 -5.2459096225583091e-04  -3.9509674850493793e-04 -1.1350648389527893e-03 -5.0244674622982124e-04  -4.0209075655615715e-04 -1.2048617460320536e-03 -5.7665480267138163e-04  -4.2030770822857005e-04 -1.0864153219403551e-03 -5.4493143281001224e-04  -4.0335103047668897e-04 -1.0893539994425931e-03 -5.2506152317479695e-04  -4.0689559355700080e-04 -1.1672288582448302e-03 -5.9233199569466407e-04  -4.2537638562157920e-04 -1.0368745874655191e-03 -5.6249629744725227e-04  -4.1091010029235223e-04 -1.0383817160756052e-03 -5.4514071840954740e-04  -4.1039430021843942e-04 -1.1252544690472080e-03 -6.0402357033217913e-04  -4.2915333748487250e-04 -9.8013386271031725e-04 -5.7784964008046461e-04  -4.1764414835958032e-04 -9.7914139695325108e-04 -5.6360045173890966e-04  -4.1168635362520407e-04 -1.0772987366274903e-03 -6.1150252736016594e-04  -3.9266426373912058e-04 -1.3476088940085446e-03 -6.2511175820281198e-04  -3.7291968288158346e-04 -1.3705501155234241e-03 -6.1971147461771612e-04  -3.9773433607703633e-04 -1.3437850243073364e-03 -6.3261193948597084e-04  -3.9471344451387220e-04 -1.3384926568421438e-03 -6.3475908595379143e-04  -3.6987702250413902e-04 -1.3647097472675256e-03 -6.1637573934897100e-04  -3.8834199795152654e-04 -1.3399210304038641e-03 -6.2291680833710585e-04  -3.9310467182948757e-04 -1.3275007711311816e-03 -6.3742784583214432e-04  -3.6837659418673471e-04 -1.3553018312585992e-03 -6.1575174328393505e-04  -3.8595992587867772e-04 -1.3281957584912727e-03 -6.2399081386163091e-04  -3.9188762284516021e-04 -1.3136306001491327e-03 -6.3943487381704122e-04  -3.6737672467561757e-04 -1.3444787439141955e-03 -6.1538321619766226e-04  -3.8411941547499782e-04 -1.3149752960031440e-03 -6.2548079091605052e-04  -3.9021718257404724e-04 -1.2991569815033815e-03 -6.3955118167422550e-04  -3.6607344946802092e-04 -1.3339577679108367e-03 -6.1388260741268856e-04  -3.8195107465274368e-04 -1.3020509052342592e-03 -6.2598029077087195e-04  -3.8724926746437177e-04 -1.2861976020157211e-03 -6.3664502392019311e-04  -3.6384795660137931e-04 -1.3252610332575643e-03 -6.1048241199690456e-04  -3.7878091141036661e-04 -1.2910376785415473e-03 -6.2463636093669592e-04  -3.8208976664212230e-04 -1.2770992098865815e-03 -6.2965177780275954e-04  -3.6026724736611858e-04 -1.3198070084027940e-03 -6.0513514662262867e-04  -3.7413648673088954e-04 -1.2836966317867837e-03 -6.2108376274935047e-04  -2.4509701356095959e-04 -1.3913109512311362e-03 -5.4434942624441906e-04  -2.5732147261407854e-04 -1.3832256619492713e-03 -5.5871897695106934e-04  -2.6974865244698874e-04 -1.3699304361011061e-03 -5.6960104126091437e-04  -2.8227286219315967e-04 -1.3528983068912916e-03 -5.7678293395907541e-04  -2.9473375216773937e-04 -1.3335461408394234e-03 -5.7954550585177431e-04  -3.0695259065245054e-04 -1.3131827618984742e-03 -5.7671905454883122e-04  -3.1866225580737896e-04 -1.2931589217241406e-03 -5.6677152926873375e-04  -3.5985314225982115e-04 -1.3229598979114991e-03 -5.0094250200452323e-04  -3.6767851104574091e-04 -1.2942753354455432e-03 -5.3027360258565851e-04  -3.7520547543100542e-04 -1.2634194018433628e-03 -5.5461230567639577e-04  -3.8233427569223132e-04 -1.2300458761443677e-03 -5.7451599540390150e-04  -3.8880298533897648e-04 -1.1935280980780569e-03 -5.9031985951300294e-04  -3.9425535047009038e-04 -1.1527217821899606e-03 -6.0196734850860611e-04  -3.9823082877794462e-04 -1.1053078258470770e-03 -6.0893774255946058e-04  -3.6908191409684162e-04 -1.3743774532164511e-03 -6.2686549457522246e-04  -3.6794030121562810e-04 -1.3708248360610475e-03 -6.2656892907279112e-04  -3.6787266235405414e-04 -1.3619805950588011e-03 -6.2728776717329183e-04  -3.6823600808355035e-04 -1.3506286173982840e-03 -6.2732839148570011e-04  -3.6815596631056244e-04 -1.3388537193528640e-03 -6.2535996929355452e-04  -3.6692431024195216e-04 -1.3286745159858560e-03 -6.2036370899188654e-04  -3.6402427952257187e-04 -1.3223878365224142e-03 -6.1202359592541834e-04  -2.2937099323182102e-04 -1.3962664435768911e-03 -5.4415400128143463e-04  -2.4197599761924184e-04 -1.3952836908186334e-03 -5.5073896475136554e-04  -2.5473948525766860e-04 -1.3884505292438244e-03 -5.5571696498726408e-04  -2.6753171286951190e-04 -1.3779049590382556e-03 -5.5810730736890503e-04  -2.8027405081417059e-04 -1.3656934034902812e-03 -5.5688782486209871e-04  -2.9284847107092604e-04 -1.3537479881217352e-03 -5.5080331963315403e-04  -3.0499386737352607e-04 -1.3441135657966243e-03 -5.3822551935386387e-04  -4.3385175778618760e-04 -1.2609823626557179e-03 -5.3422385471969380e-04  -4.2189334745384982e-04 -1.2335413620161281e-03 -4.6589741680067877e-04  -4.3771701557427468e-04 -1.2215764425881363e-03 -4.8180240665877217e-04  -4.4085517960454378e-04 -1.1873855427238134e-03 -5.1118229095646877e-04  -4.2663017638639621e-04 -1.1976107920734687e-03 -4.9713994450660808e-04  -4.3537675095622219e-04 -1.2337710797110379e-03 -5.5949587167573021e-04  -4.4415440806175527e-04 -1.1516137661055550e-03 -5.3559673848015122e-04  -4.3135035651721359e-04 -1.1603704164587683e-03 -5.2307185020165079e-04  -4.3736638501430311e-04 -1.2039312487337026e-03 -5.8011708684155034e-04  -4.4720405716346427e-04 -1.1138492836503795e-03 -5.5605318693075726e-04  -4.3569831021940517e-04 -1.1211612071182764e-03 -5.4486068715794316e-04  -4.0982293798977977e-04 -1.2858046888939772e-03 -5.2458690689749488e-04  -4.1364320004899402e-04 -1.2579155094588140e-03 -5.5150895330027404e-04  -4.1751007289682167e-04 -1.2274984337964038e-03 -5.7360007611826161e-04  -4.2103496330098600e-04 -1.1944434878047743e-03 -5.9154330952115159e-04  -4.2370604143204718e-04 -1.1584439143921964e-03 -6.0569933136023484e-04  -4.3927469069377742e-04 -1.0790152884097564e-03 -5.6329639531227090e-04  -4.2487528463251175e-04 -1.1187984977845855e-03 -6.1595410766147613e-04  -4.4159630416088034e-04 -1.0324632881946649e-03 -5.7882675805207213e-04  -4.2380725049966306e-04 -1.0741628896795898e-03 -6.2155377585479431e-04  -2.6240600775384744e-04 -1.4150756493622873e-03 -5.6493767595883367e-04  -2.7084059868193086e-04 -1.4176201330043114e-03 -5.6076891583776197e-04  -2.7962818361672293e-04 -1.4149091645808524e-03 -5.5793091987912989e-04  -2.8846630837876320e-04 -1.4093872749637963e-03 -5.5466703997303867e-04  -2.9717690045855480e-04 -1.4033592697979310e-03 -5.4947155920919777e-04  -3.0554969640622496e-04 -1.3988980793284084e-03 -5.4106039508194947e-04  -3.1327661557396135e-04 -1.3979352388589629e-03 -5.2801750291184854e-04  -3.5903534202816323e-04 -1.3810289690205581e-03 -6.2665903384139182e-04  -3.4363187503086743e-04 -1.3883869699881403e-03 -6.1863522247079209e-04  -3.7277132756727125e-04 -1.3669595269735612e-03 -6.2095532285467558e-04  -3.7448651703207074e-04 -1.3592678457529212e-03 -6.3125589660533907e-04  -3.4696608214589717e-04 -1.3837991238548149e-03 -6.2591644348306496e-04  -3.6019593988576682e-04 -1.3779161474760174e-03 -6.2988950114145343e-04  -3.7674428292294829e-04 -1.3461960443675340e-03 -6.3933895216506124e-04  -3.5087309520231297e-04 -1.3735788956312884e-03 -6.3158687663660549e-04  -3.6207556357738794e-04 -1.3688627984918727e-03 -6.3283934869169038e-04  -3.7898099868312237e-04 -1.3295745110499637e-03 -6.4479122630767835e-04  -3.5481465187401436e-04 -1.3598443203228781e-03 -6.3490160829132757e-04  -3.6413431897646661e-04 -1.3565355424274325e-03 -6.3437869652826085e-04  -3.8052918674434552e-04 -1.3110892275416280e-03 -6.4681338355540477e-04  -3.5821487598888867e-04 -1.3444677161062837e-03 -6.3489307363752553e-04  -3.6569001622495091e-04 -1.3430461502781112e-03 -6.3326344746019803e-04  -3.8057672504834009e-04 -1.2923829419677348e-03 -6.4417733539780633e-04  -3.6040161910671218e-04 -1.3293614331929336e-03 -6.3022329781173758e-04  -3.6602457171399169e-04 -1.3305107652916565e-03 -6.2820327854194171e-04  -3.7804702134794664e-04 -1.2753824046273740e-03 -6.3509215254836291e-04  -3.6049719355733264e-04 -1.3168273393552507e-03 -6.1912577551050075e-04  -3.6434962582847707e-04 -1.3213435012415823e-03 -6.1776340632348963e-04  -2.5595511037826646e-04 -1.3764252165584696e-03 -5.1516537790885887e-04  -2.3066937213264753e-04 -1.3568501809714827e-03 -4.6637460985671513e-04  -2.6182114755259761e-04 -1.3478944870308398e-03 -4.5549994191939442e-04  -2.7585202030047862e-04 -1.3202159859686292e-03 -4.8529723828310981e-04  -2.4608960397282364e-04 -1.3344175005437003e-03 -4.9221189564203124e-04  -2.6860803624952236e-04 -1.3591722099089009e-03 -5.3735380500889859e-04  -2.8983229209699840e-04 -1.2900896675416922e-03 -5.0985130238123504e-04  -2.6155468274400548e-04 -1.3086792490647518e-03 -5.1290052107662797e-04  -2.8157065562833556e-04 -1.3378010058016079e-03 -5.5498011805212228e-04  -3.0379472456216875e-04 -1.2572997715042382e-03 -5.2970892877588329e-04  -2.7700703788550356e-04 -1.2797010956857723e-03 -5.2904171938550370e-04  -2.9461039599145284e-04 -1.3130521606757642e-03 -5.6822830925251004e-04  -3.1771112871948866e-04 -1.2212100269817924e-03 -5.4513887122433369e-04  -2.9247734798020734e-04 -1.2474235043003050e-03 -5.4056400213960110e-04  -3.0755103667078532e-04 -1.2853483375602889e-03 -5.7680645722535341e-04  -3.3156536047434875e-04 -1.1807006350909861e-03 -5.5584005436221540e-04  -3.0799138290011138e-04 -1.2114815708006068e-03 -5.4674168154991026e-04  -3.2027698304873110e-04 -1.2549623055875883e-03 -5.7973191577818440e-04  -3.4537787351594497e-04 -1.1337733189640390e-03 -5.6057986931264516e-04  -3.2362136351091344e-04 -1.1716507347725408e-03 -5.4612293542574599e-04  -3.3279115717286812e-04 -1.2222784521319480e-03 -5.7539473513588436e-04  -2.4034935802357750e-04 -1.4135601185082116e-03 -5.3809782898071824e-04  -2.5048685675474241e-04 -1.4159894513898763e-03 -5.3234365609010185e-04  -2.6091089697369995e-04 -1.4137443365799731e-03 -5.2822906838831819e-04  -2.7137986387314422e-04 -1.4091262913295583e-03 -5.2378378855452137e-04  -2.8176142136361696e-04 -1.4043589401812153e-03 -5.1752773963522345e-04  -2.9193853597743913e-04 -1.4014308952612275e-03 -5.0824255398129368e-04  -3.0180971037566139e-04 -1.4023556368687536e-03 -4.9499486647876603e-04  -2.5233100659471577e-04 -1.4242342454717843e-03 -5.3338573255297178e-04  -2.6101060649850951e-04 -1.4246536588011125e-03 -5.2386297670584266e-04  -2.6984514898102451e-04 -1.4216817589212363e-03 -5.1755433198818178e-04  -2.7861478258729477e-04 -1.4172640203776545e-03 -5.1192007341737951e-04  -2.8728261144455512e-04 -1.4133012095504957e-03 -5.0527951226834685e-04  -2.9578764316289701e-04 -1.4114691830929558e-03 -4.9647571452460498e-04  -3.0405975218793593e-04 -1.4134022253440399e-03 -4.8480700669755546e-04  -2.4124144072801561e-04 -9.0000356723871425e-04 -2.1932742137852139e-04  -2.4832667979684164e-04 -9.6158401950617654e-04 -2.8864870819356089e-04  -2.6791539513083368e-04 -8.4015704247926534e-04 -2.0273983308654309e-04  -2.2340375447594952e-04 -1.0130357675500875e-03 -2.6646717672550391e-04  -2.1508068514840614e-04 -9.5332295451017375e-04 -1.9431208369583252e-04  -2.9436572966956077e-04 -7.7035524398859205e-04 -2.3475496328732878e-04  -2.6867404929066670e-04 -8.3696902684424754e-04 -2.4356480700748348e-04  -2.7424386957132209e-04 -9.0071975254967949e-04 -3.0885059598497426e-04  -3.1147986312416072e-04 -1.3746716544015228e-03 -5.4498208029990416e-04  -2.8658140449993306e-04 -1.364534672