<?xml version="1.0"?>
<VTKFile type="UnstructuredGrid"  version="0.1"  >
<UnstructuredGrid>
<Piece  NumberOfPoints="949" NumberOfCells="4059">
<Points>
<DataArray  type="Float64"  NumberOfComponents="3"  format="ascii">5.402918909482917 2.243528021096917 1.011976667639334  5.379425003637693 2.39572027624683 0.9652633235387037  5.52907998028894 2.384025407040352 0.967173068745708  5.528517355552086 2.366840169578951 0.9080577412460787  5.379442180700587 2.378303046256443 0.9061339070510999  5.402511587187947 2.225100416277317 0.9547785402576925  5.527884766860235 2.349753976245521 0.8490118247953485  5.379385759153642 2.360989018890285 0.8470700676502831  5.402044930328969 2.206799338754962 0.8976158315746752  5.527229949671312 2.332741298224752 0.7900379684662701  5.379294484131769 2.343760454752045 0.7880955098821724  5.401576074500954 2.188585030357211 0.840482127496155  5.379213770547203 2.326574388442459 0.7291911674153402  5.401118772057029 2.170404199749932 0.7834250302977354  5.526590182123279 2.315768056950167 0.7311523117410365  5.379156133055583 2.309364839388086 0.6704093878308425  5.400687746811999 2.152177514004141 0.7264612484444326  5.525980785606465 2.298768697023315 0.6723846511595915  5.379151544468373 2.292045986493209 0.6117959524632721  5.400311186792324 2.133813827666956 0.6696428597822749  5.525436962987882 2.281660192244893 0.6137726776848073  4.786983214811 1.884382493512087 1.136928227852321  4.93053526947514 1.974278757717681 1.103738957629154  4.918641539883173 1.825513181575037 1.159212577780355  4.9189268104954 1.80361276479185 1.104190297393644  4.93121306909751 1.953886971893096 1.048330970320182  4.787735379935856 1.863156345683027 1.082395302734342  4.931917764285224 1.933602713808838 0.9929154703486526  4.78853528553343 1.842012900292067 1.02785440192556  4.91922538501619 1.781814266578224 1.049166729426529  4.789361040803463 1.820912176451162 0.9733274509871975  4.932637487215899 1.913384574854575 0.9375362973911328  4.919538122035306 1.760060157856438 0.9941538723866663  4.790197925639892 1.799815535276468 0.9188311513436032  4.933364214295916 1.893175493475659 0.8821969533341009  4.919862999122697 1.738310292134182 0.9391690015900327  4.791033157842948 1.778683081514852 0.8643789012579338  4.934089143802618 1.872925179651368 0.8269227385862782  4.920203343792782 1.716523236547463 0.8842295675230211  4.791854648643156 1.757470695748378 0.8099931187107831  4.934815738329742 1.852571999538611 0.7717419977978707  4.92057502102533 1.694648573667344 0.8293492615991598  4.78599486165572 2.023061793146026 1.082524463706253  4.894405497906132 2.101677550971678 1.057620330608495  4.895978814888014 2.081391306284647 1.001841604182173  4.787569576296042 2.002124784358094 1.027537175457687  4.89759029147333 2.061223216552628 0.9460836282988559  4.789202592880151 1.981285979116597 0.9725627473397975  4.790864905241028 1.960498541102514 0.9176094053394569  4.899221538169881 2.041123121979065 0.8903517723862977  4.900854844509192 2.021041339676754 0.8346686302438545  4.792531748614952 1.93972347410594 0.8627050646639375  4.902470702141046 2.000923657905195 0.7790650167617523  4.794179000234265 1.918912872925146 0.8078689591053233  4.904056002385256 1.980699422187433 0.723581879406672  4.795777236717369 1.898007180447521 0.7531392563304993  5.578501448909284 1.728299400042676 1.214746759453062  5.597376131098953 1.865165419991613 1.150717872153484  5.715482288840001 1.808672219723738 1.186793918789053  5.72115317674027 1.782864678069984 1.133586320672846  5.600103805792603 1.841514489553034 1.096350232387745  5.58289992551788 1.701389878246826 1.161444129561497  5.60286776988926 1.817963762113207 1.041939471370682  5.587362997065465 1.674556352895244 1.108086590115903  5.726960588019788 1.757130015107042 1.080351568204795  5.605658582640483 1.794457857334943 0.9875329293090331  5.591859012409835 1.64775478298721 1.054716226152935  5.732830620289239 1.731435778736612 1.027129080376793  5.608452728405335 1.770952963057502 0.9331540035358822  5.596353758702639 1.62094985067334 1.001355171958211  5.738698081081012 1.705745771176436 0.9739354372221452  5.611225306401502 1.747402107195155 0.8788126690771674  5.600814098538505 1.594104436684286 0.9480071216415143  5.744498762362547 1.680019088604944 0.9207708986368014  5.605212527770016 1.567171194546637 0.8946709443601256  5.613965230776102 1.723735995182972 0.8245025656531825  5.750166290714558 1.65419791524968 0.8676188329369396  6.24788326942454 1.738984873881676 0.9708556690154542  6.362021348657262 1.670975207165629 1.025143868334318  6.203691911658977 1.609156108004659 1.034829802672502  6.256690422743075 1.710775936506654 0.9200054559464246  6.370142224470033 1.640945212756055 0.9749623108460997  6.213077794410689 1.578873326829883 0.9850190553148758  5.133341453516713 2.418936475347998 0.9534801298832076  5.075301733863841 2.524182671726107 0.9185292413105022  5.218897387525037 2.552904144775617 0.916385428331101  5.221427900211205 2.535264716656441 0.8546034036229342  5.079183363385154 2.505051382985989 0.8572939742547334  5.135365851474166 2.399907777529987 0.89409507716287  5.223946174028836 2.517688894905021 0.792940573942134  5.083071017849179 2.485988739381323 0.7961795588318862  5.137366806131279 2.380948962740324 0.8347824891087007  5.226422389574909 2.500198097244074 0.7314163057654434  5.086931188919936 2.46701820709528 0.7351955142509844  5.139336979560076 2.362085822595911 0.7755689272462839  5.228879561170442 2.482759105224657 0.6700190252711388  5.09077899534944 2.448109598612141 0.674327710521464  5.141310210821548 2.343284639459207 0.7164511817050974  5.231326911744344 2.465314597100261 0.608764853789818  5.094596890540566 2.429198571541168 0.6135984009664667  5.143270545285755 2.324472028720943 0.6574674266359342  5.233767169232658 2.447805395681938 0.5476854694855482  5.098353089789406 2.410222193787358 0.553054056691728  5.145212555042763 2.30556971326668 0.5986719999840585  4.856337497479197 2.680208700966711 0.8534559004802439  4.96981583037611 2.72763370120867 0.8542841617322269  4.978329803399727 2.603846721006456 0.8849193412793007  4.983995396120761 2.585533259524325 0.8214099410596482  4.976706190784066 2.71262920583289 0.7875470237652668  4.864899633809443 2.663035951088048 0.7878103191459452  4.989679220901792 2.567303798436076 0.7580793799296675  4.983603274218536 2.697724872074985 0.7210392824178136  4.873512912690616 2.645956892851059 0.7223341868046192  4.995344748953766 2.54914430217962 0.6949000363627381  4.990490766195546 2.682871193344882 0.6547325902157985  4.882134474237772 2.628941335253899 0.6570308895243501  5.000992060982445 2.531046335002831 0.6318555482999171  4.997347526382589 2.668053728692989 0.5885869146064212  4.890737953491624 2.611971058564245 0.5918678277437036  5.006585983754952 2.512949334474249 0.5689647070769878  5.004149054933904 2.653227252238886 0.5225909158953012  4.89927574486325 2.594994365859309 0.5268414453114002  5.012077689665998 2.494802691615322 0.5062615239846566  5.83218550784072 1.775961878215842 1.219255897708189  5.830857510463925 1.89142555998139 1.160603869151395  5.960948735885658 1.853244441756633 1.197946508831842  5.96950362783626 1.825943398595952 1.146010901478331  5.837596561343365 1.866097273269382 1.107542296738516  5.840196886768614 1.74877550507157 1.167068322013077  5.978303379156613 1.798696673433359 1.094135127381028  5.84451741632305 1.840839924309293 1.054490466346554  5.848428113193755 1.721650306350594 1.114894703539116  5.987221486660988 1.771509059703226 1.042323147325408  5.851524129704394 1.815631605249543 1.001473082912043  5.856756822554791 1.69456710928857 1.062750405891398  5.996139282176776 1.744353822430299 0.9905780455664622  5.858531408356185 1.790438759848267 0.94850219926515  5.865082381724606 1.667497455542071 1.010645007388195  6.004934599460292 1.71719691429049 0.938895468184637  5.86545332919221 1.76522120094908 0.8955797995540602  5.8733050123739 1.640404420857702 0.9585727697493417  6.013465137017754 1.68999218201608 0.8872546991113679  5.872188382075273 1.739920284040039 0.8427011819323385  5.881304869667435 1.613240948864387 0.9065151642613416  5.130510713089661 2.061313313403173 1.074204824646324  5.239346033080009 2.167800850919171 1.038135153803121  5.273926665664891 2.02440088245063 1.086625568211646  5.273624729747964 2.004901698400488 1.030782789320083  5.239270748243613 2.148820528978118 0.9816103803790988  5.130764393593727 2.041727822582515 1.018252516933429  5.273286906150227 1.985540543038191 0.9749280170494533  5.239168117119702 2.129983419284777 0.9250988567837507  5.131008054902971 2.022277330518047 0.962302038034762  5.272940575413265 1.966252796716991 0.9190955263947794  5.23906105819565 2.111234681206653 0.868623718543035  5.131250972221701 2.00290229793795 0.9063770905664473  5.272599877663937 1.946977338129462 0.8633068296055055  5.238959646893926 2.092512526445048 0.8122094389640565  5.131498105202125 1.983544699325188 0.850502627292151  5.272277412744754 1.927649071460791 0.8075853756274396  5.238871634986118 2.073746256766064 0.755887826778135  5.13175231707799 1.964140246517949 0.7947069483459785  5.271994777979173 1.908184247134917 0.7519560919009338  5.238814500703456 2.054841635754924 0.699703413730058  5.132017469359677 1.944608127986527 0.7390313952760862  5.734969650647464 1.63418648001084 1.141661513054676  5.742083185549266 1.605197352576786 1.089611163025068  5.74918429632189 1.576212911643752 1.037586867100693  5.756202083651353 1.547201176161137 0.9855842617362387  5.76307555851341 1.518115845127269 0.9335803143613863  5.088469379821668 2.79176499782371 0.852572208134546  5.115376907747489 2.656876919423869 0.8819186724210318  5.119972049069553 2.641227863994893 0.8173068048934945  5.095071396736966 2.780284735795491 0.7845518773410119  5.124564465616872 2.625667846137118 0.7529087278324158  5.101665406083623 2.768876965185369 0.7167845467739261  5.129133039242435 2.610166046735453 0.688674
[...]
<PointData  Vectors="f_24"> 
<DataArray  type="Float64"  Name="f_24"  NumberOfComponents="3" format="ascii">3.3529086901718538e-05 -8.0172274976980098e-04 1.4004773509094929e-04  3.2026380266223086e-05 -7.3372823297425372e-04 2.9951939410415154e-04  2.2265255596599906e-05 -7.1127800235027522e-04 3.4330266161762340e-04  4.5794337963877935e-05 -6.4198738770954796e-04 3.3062850084354114e-04  5.8626618989408304e-05 -6.6260131510243695e-04 2.8590140545063923e-04  6.0414652918026863e-05 -7.4277625636073776e-04 1.2336412511308089e-04  6.8553904466371921e-05 -5.7724054640724174e-04 3.1987252688680075e-04  8.4043753627909937e-05 -5.9607026069940226e-04 2.7445388101970681e-04  8.6215014907455262e-05 -6.8625279427867011e-04 1.1021280100580893e-04  9.0830646748607085e-05 -5.1442419334395194e-04 3.0977522654430803e-04  1.0892622412947276e-04 -5.3163633628979781e-04 2.6372902034463584e-04  1.1149396696894307e-04 -6.3053907657091893e-04 9.9357465391502643e-05  1.3375479153178918e-04 -4.6681775989028938e-04 2.5310563413470042e-04  1.3662330871674335e-04 -5.7376767228296691e-04 9.0260741789007613e-05  1.1299256991177122e-04 -4.5128199249310939e-04 2.9941849035073406e-04  1.5882799378458921e-04 -3.9903307976854276e-04 2.4153292159945420e-04  1.6211202369259518e-04 -5.1452745952921825e-04 8.2146306611490438e-05  1.3540241385765677e-04 -3.8553504460789339e-04 2.8790074511543545e-04  1.8444227447675924e-04 -3.2587128019166261e-04 2.2837781859426639e-04  1.8861627501863437e-04 -4.5074630758211296e-04 7.4781946232926853e-05  1.5835248750270360e-04 -3.1484094545768083e-04 2.7467393439589694e-04  8.0006549866794681e-05 -1.0069764795759091e-03 -4.5533787955720815e-04  6.9004876056617459e-05 -9.6812857590299973e-04 -3.2482159732087081e-04  7.7166126780653019e-05 -9.8082853361637873e-04 -3.9474712828469302e-04  1.1265852835660489e-04 -9.6788524204130294e-04 -4.0232917021772776e-04  1.0460491980384200e-04 -9.3769276352919891e-04 -3.3989442905650667e-04  1.1747591504596422e-04 -9.8815745661248277e-04 -4.6705666371169507e-04  1.3868318725164045e-04 -9.0510591417392115e-04 -3.5012914634110874e-04  1.5308505557247413e-04 -9.6582484637219087e-04 -4.7415814501198627e-04  1.4655216261092222e-04 -9.5087952428555428e-04 -4.0633586344916906e-04  1.8778013222983276e-04 -9.4082946890283346e-04 -4.7701244301944195e-04  1.7194257423905579e-04 -8.7063763385971044e-04 -3.5608994885642428e-04  1.7962381838741457e-04 -9.3116522718711468e-04 -4.0680687139740671e-04  2.2229068555159915e-04 -9.1397356401022773e-04 -4.7554526547660583e-04  2.0503070936815892e-04 -8.3447482002292910e-04 -3.5796010060539575e-04  2.1256426564615041e-04 -9.1015910970766863e-04 -4.0355273030163514e-04  2.5745438971706017e-04 -8.8606135695960754e-04 -4.6922351475458678e-04  2.3870663749366849e-04 -7.9681280294453599e-04 -3.5534766843391537e-04  2.4626055727686408e-04 -8.8911829553380635e-04 -3.9592310795471880e-04  2.9396242418940543e-04 -8.5822070799749584e-04 -4.5672530809168238e-04  2.7381383649291126e-04 -7.5798627387547101e-04 -3.4744633248154187e-04  2.8164068235957487e-04 -8.6969369051711283e-04 -3.8329542854855940e-04  7.7574202375953384e-05 -9.9287915343162147e-04 -3.7709110588709063e-04  6.8696786445273400e-05 -9.5366118347659152e-04 -2.4980759661898241e-04  1.0422363703169296e-04 -9.0727036192930939e-04 -2.6941613304890834e-04  1.1489991282840316e-04 -9.5615627004334998e-04 -3.9536188509135665e-04  1.3847215188487815e-04 -8.6082740979344385e-04 -2.8389529920403133e-04  1.5049527880431194e-04 -9.1794859569744897e-04 -4.0808457670763035e-04  1.8522120973963043e-04 -8.7804391135681782e-04 -4.1615437041145483e-04  1.7189100166651686e-04 -8.1347900702203159e-04 -2.9403920778775603e-04  2.0499134266957757e-04 -7.6427845864534324e-04 -3.0038151600485078e-04  2.1966261496227517e-04 -8.3604571285521951e-04 -4.1980546326248744e-04  2.3832707356984397e-04 -7.1214578811290487e-04 -3.0303799074793761e-04  2.5445080085500404e-04 -7.9145198222484701e-04 -4.1885553267712668e-04  2.7251503336774073e-04 -6.5576121948636868e-04 -3.0129846653559030e-04  2.9011694883614950e-04 -7.4362826825857418e-04 -4.1284128040975678e-04  5.4025506765199952e-05 -9.0944864264074486e-04 -9.2898443027389355e-05  4.3752598156572597e-05 -8.8292924479562872e-04 -5.1869777095955117e-05  3.9316078382309413e-05 -8.9168606175364000e-04 -2.8914892996061474e-05  5.7388995255500159e-05 -8.7160234829832960e-04 -3.3748564596842920e-05  6.5538524641378093e-05 -8.5951981612631886e-04 -5.9281850235019275e-05  7.4176757550521542e-05 -8.9609504486150412e-04 -9.3582188558907257e-05  8.6435864683854732e-05 -8.3342735151413657e-04 -6.4671178177345916e-05  9.3600292536552435e-05 -8.7937705706210014e-04 -9.3843233321151410e-05  7.4809588401741374e-05 -8.4860784141624530e-04 -3.7271616696963457e-05  1.0685453305645769e-04 -8.0579114953516825e-04 -6.8034388137245847e-05  1.1265444290175556e-04 -8.6092583222732591e-04 -9.3268554948649197e-05  9.1724783191711237e-05 -8.2404600454878045e-04 -3.9465486199737984e-05  1.2713417646684750e-04 -7.7745651935446714e-04 -6.9288646572841930e-05  1.3158475849540645e-04 -8.4214864954843406e-04 -9.1324766722277961e-05  1.0840423523281753e-04 -7.9894144462405010e-04 -4.0051570258050606e-05  1.4757118189031527e-04 -7.4918972849792999e-04 -6.8115401213018071e-05  1.5062232223076434e-04 -8.2423163167087221e-04 -8.7499151360556572e-05  1.2503306228462321e-04 -7.7419474066372314e-04 -3.8562067013923898e-05  1.6982449086250364e-04 -8.0821857574114235e-04 -8.1099555326261515e-05  1.6860365110309985e-04 -7.2165098233657320e-04 -6.4184341532428255e-05  1.4172244981120266e-04 -7.5044336495403623e-04 -3.4335923989155766e-05  2.9357123045316303e-05 -7.5631914344975444e-04 7.7848324010387928e-05  1.1082934600093603e-05 -8.0102436137488098e-04 7.8573070151396961e-05  3.9987361850425866e-05 -8.2085489176591728e-04 5.0129471941646503e-05  3.5973433888828569e-05 -7.2694987075296990e-04 7.5318817418173743e-05  1.5935333921576844e-05 -7.7676331744227589e-04 7.6278544424714570e-05  4.6640111796609663e-05 -8.0036890258252573e-04 5.0225574419048190e-05  5.2441982742605055e-05 -7.6820105077713070e-04 2.2400916618926393e-04  5.8792747234109389e-05 -7.1204124904768683e-04 3.3330613437332725e-04  4.5881978686550587e-05 -6.6777054158852320e-04 4.2801486210618630e-04  7.3002490115536985e-05 -5.8636519610856714e-04 4.1978084356595317e-04  8.8413884741554089e-05 -6.2892135124656520e-04 3.2145137686895889e-04  8.2316477617159597e-05 -6.9201776316630019e-04 2.0769190490181380e-04  9.9553055819524554e-05 -5.1234325576733273e-04 4.1150936662586970e-04  1.1710098609062761e-04 -5.5298277419014541e-04 3.1026005204181647e-04  1.1143164834608763e-04 -6.2132654576565192e-04 1.9428760630727787e-04  1.2583868527682882e-04 -4.4193083423933228e-04 4.0194951990706642e-04  1.4569629878059478e-04 -4.8059625175353389e-04 2.9883266888209767e-04  1.4014048235187429e-04 -5.5294067399948136e-04 1.8202465587221706e-04  1.5219200398442065e-04 -3.7171724539152858e-04 3.9021526725899799e-04  1.7435578772215799e-04 -4.0832638131855581e-04 2.8591495759674242e-04  1.6874543648548611e-04 -4.8407992994733675e-04 1.6982708755376396e-04  1.7884990092465052e-04 -2.9865548809965948e-04 3.7528564999636163e-04  2.0328389241713678e-04 -3.3302632330697672e-04 2.7030732520833033e-04  1.9753349381857352e-04 -4.1187767458385834e-04 1.5664780968609009e-04  2.0597018900652366e-04 -2.1978384891897394e-04 3.5595461653793010e-04  2.3256034692584426e-04 -2.5138607571318988e-04 2.5051796467180453e-04  2.2666607144901192e-04 -3.3335940014402331e-04 1.4145525683744180e-04  8.7649041207541666e-05 -6.2005215653110628e-04 4.4489733728442097e-04  7.3606134354986473e-05 -5.7368290718259971e-04 5.4882076938156019e-04  7.1987487968668850e-05 -6.6422626114993801e-04 3.9704792944708048e-04  1.0142565493273693e-04 -5.7642448225968441e-04 3.9059393431555782e-04  1.0061250292736973e-04 -4.8667952588595106e-04 5.5450762201979796e-04  1.1625901994209215e-04 -5.2953676775180315e-04 4.4542294372354002e-04  1.3040515868169983e-04 -4.9728181929975079e-04 3.8332303973804264e-04  1.2788439428554211e-04 -4.0981079064628697e-04 5.5641531834330332e-04  1.4514154296797879e-04 -4.4879610267486221e-04 4.4344828471440612e-04  1.5941647263624948e-04 -4.2218531585559298e-04 3.7414818247999724e-04  1.5552615941636313e-04 -3.3786359737744578e-04 5.5310250865140645e-04  1.7442858202035925e-04 -3.7279831602151579e-04 4.3754253503656824e-04  1.8872558442341918e-04 -3.4744161970427448e-04 3.6201091044634642e-04  1.8378231123896836e-04 -2.6658449347757526e-04 5.4436600299669860e-04  2.0424739858806038e-04 -2.9752914012706565e-04 4.2716442974386067e-04  2.1849169109352487e-04 -2.6994317641482608e-04 3.4573595926960430e-04  2.1287170858296371e-04 -1.9315365041538301e-04 5.2989406989050099e-04  2.3486495965536051e-04 -2.1996853721341673e-04 4.1165948268625667e-04  2.4885100266519708e-04 -1.8712207080040242e-04 3.2399221956780474e-04  3.1780834019411649e-05 -9.0162935630586885e-04 -1.1376159383833624e-06  2.4368339993142673e-05 -8.7247322905727057e-04 3.7001517296550871e-05  1.5381283464840682e-05 -8.8762688334015122e-04 5.6808918086300196e-05  2.8547978670237047e-05 -8.6342105130453068e-04 4.8685578007595433e-05  4.0865229847120817e-05 -8.4553409137121452e-04 2.8201029926913974e-05  4.6574204269872073e-05 -8.8287845953270586e-04 -4.8854170654191071e-06  4.0985874473589855e-05 -8.3700452548922204e-04 4.2053491052140118e-05  5.6477324900659810e-05 -8.1657732132207103e-04 2.1354080871291701e-05  6.0727825010936293e-05 -8.6123086204642496e-04 -7.9624461198472264e-06  5.2859890036833300e-05 -8.0927543086177522e-04 3.6815040173178158e-05  7.1508757478158018e-05 -7.8631795997084828e-04 1.6264718118484479e-05  7.4439783772641362e-05 -8.3804482729568229e-04 -1.0115328221687014e-05  6.4321107482217133e-05 -7.8090790862531578e-04 3.3088735686959891e-05  8.6188692922030419e-05 -7.5531282057805891e-04 1.2929009114567700e-05  8.7856718434891080e-05 -8.1436942376934016e-04 -1.0993138366814503e-05  7.5475104143067059e-05 -7.5243328572919296e-04 3.1194614604508169e-05  1.0069004999032157e-04 -7.2398951047379667e-04 1.1581426448524984e-05  1.0107605001020517e-04 -7.9112375893191581e-04 -1.0111307907688396e-05  8.6359316780560975e-05 -7.2427003778504663e-04 3.1621043836015961e-05  1.1515616693409606e-04 -6.9271794742514173e-04 1.2629902307512169e-05  1.1406784867841234e-04 -7.6922434326507803e-04 -6.5849408774977074e-06  5.4816656138853507e-05 -9.1209907733200482e-04 -1.5521329511937641e-04  4.5387037144396213e-05 -8.6178841841298270e-04 -8.9541702721276516e-06  4.9296951201601158e-05 -8.9233453415083180e-04 -1.0936229806236051e-04  7.8970051088807837e-05 -8.5568345473735735e-04 -1.2388976169734096e-04  7.5410073580668059e-05 -8.0969518574740382e-04 -2.6903943000981236e-05  8.7183500566657211e-05 -8.7140466886939812e-04 -1.7183088086645103e-04  1.0751969400224116e-04 -8.1789981326609929e-04 -1.3445193900039741e-04  1.0437713225469659e-04 -7.5870395915852312e-04 -4.0549846996529528e-05  1.1820235985173526e-04 -8.3002618079707207e-04 -1.8385366937607252e-04  1.3543215246682966e-04 -7.7895178924889145e-04 -1.4165950414523866e-04  1.3270689232604643e-04 -7.0767936269366266e-04 -5.0937173316956710e-05  1.4853026327378509e-04 -7.8765881559125653e-04 -1.9210369168491337e-04  1.6327768728438463e-04 -7.3881433069006666e-04 -1.4578729506598402e-04  1.6096594386699994e-04 -6.5548675133773264e-04 -5.8732886956774742e-05  1.7875004180717663e-04 -7.4390327807548307e-04 -1.9695470110099144e-04  1.9166450653253589e-04 -6.9739355745773181e-04 -1.4667866043594022e-04  1.8964079341904076e-04 -6.0081604355850967e-04 -6.4203977255524911e-05  2.0945751430967772e-04 -6.9829275158954558e-04 -1.9830676907526117e-04  2.2121758582649466e-04 -6.5459431690435734e-04 -1.4374702134367867e-04  2.1934808445800067e-04 -5.4218075260330212e-04 -6.7126539177654517e-05  2.4122711228711068e-04 -6.5032960104981869e-04 -1.9562578428702053e-04  7.8275357658601783e-05 -8.8524077572636132e-04 -4.7335272383227301e-05  9.3338783900017279e-05 -8.6725700702804695e-04 -4.6786196929304463e-05  1.0823967704895992e-04 -8.4915528370627829e-04 -4.5237635510468550e-05  1.2303227837345609e-04 -8.3205419888233664e-04 -4.2129684354237731e-05  1.3772969244645178e-04 -8.1707216749007927e-04 -3.7081957165643382e-05  6.0683539590985996e-05 -5.1195758135920866e-04 6.6583819843867248e-04  5.7738835444615623e-05 -6.0786249455283708e-04 5.1774174973893224e-04  8.4326546334638247e-05 -5.2265205042496040e-04 5.1861973908399529e-04  8.4528782780758400e-05 -4.3117399762372991e-04 6.8131562123712461e-04  1.1085405751035625e-04 -4.4647407360640898e-04 5.1636323270174745e-04  1.0912958264950128e-04 -3.6097759241610967e-04 6.8952232500797813e-04  1.3746586163113195e-04 -3.7452506047132490e-04 5.1084645887441700e-04  1.3427897567215466e-04 -2.9511161146306012e-04 6.9064882772443346e-04  1.6441538705190870e-04 -3.0314226950580792e-04 5.0133062033935738e-04  6.8411965456139772e-06 -8.5116000775089899e-04 1.1683810019735030e-04  2.0884503366197081e-05 -8.1730631111246095e-04 1.0429069918786575e-04  3.4112071365423853e-05 -7.8235137857417443e-04 9.4067498252068435e-05  4.6690877913833504e-05 -7.4647798931157781e-04 8.5751812345886684e-05  5.8833485593384355e-05 -7.0974370833336406e-04 7.9110702735205049e-05  7.0710609258889601e-05 -6.7209525780187679e-04 7.4183177620659532e-05  8.2489358783608796e-05 -6.3346563037181458e-04 7.1263171526801130e-05  7.9389772940264034e-05 -9.6322186292994419e-04 -2.6549824017985720e-04  1.1602188494401167e-04 -9.0941098898706242e-04 -2.8809830977827452e-04  1.5126381911874498e-04 -8.5656333856832113e-04 -3.0491640930353423e-04  1.8566935626602982e-04 -8.0328382283117159e-04 -3.1729074868163667e-04  2.1969851408927150e-04 -7.4804486173636099e-04 -3.2605132939283202e-04  2.5371406765324021e-04 -6.8894768194326659e-04 -3.3159365666209111e-04  2.8802521331728514e-04 -6.2344052250559094e-04 -3.3376883249469901e-04  2.3474338806013317e-05 -6.5676451279942966e-04 4.5564028489604230e-04  4.7148731548596131e-05 -5.8164468916598695e-04 4.4769407845809354e-04  6.9973427489719231e-05 -5.1257600598915020e-04 4.3970563789957841e-04  9.2309713818531627e-05 -4.4645909780655887e-04 4.3084786933933976e-04  1.1455648561346879e-04 -3.8037494131619784e-04 4.2034063467293964e-04  1.3699072191618837e-04 -3.1168007186245967e-04 4.0728694747120000e-04  1.5980580661663021e-04 -2.3762658820205236e-04 3.9086360248593801e-04  8.5328619543196212e-05 -7.3078282881644096e-04 2.5405451272391913e-04  1.1652931234240973e-04 -6.4256718295363209e-04 2.4092744240463934e-04  1.4749371881900124e-04 -5.6170380626954699e-04 2.2956386292692432e-04  1.7838684430995794e-04 -4.8465961222686813e-04 2.1781322631465573e-04  2.0942168321552097e-04 -4.0769657162388254e-04 2.0435870263985531e-04  2.4076756737500019e-04 -3.2765562306617352e-04 1.8780497965420801e-04  2.6678858471427950e-04 -1.3782727947239326e-04 3.8985475920662294e-04  2.7252367114089220e-04 -2.4182448164855209e-04 1.6646262465446442e-04  2.0371184053698147e-05 -8.1798969527207015e-04 1.1655762622776272e-04  1.3387834977797789e-05 -8.3345211110807385e-04 1.1686817407716404e-04  3.0908700888769558e-05 -8.6124596991390111e-04 2.0837631012002697e-05  5.0598833735494162e-05 -8.3086786458519684e-04 1.0823199528137305e-05  3.0389309588891493e-05 -7.9531337738031989e-04 1.0356357730622068e-04  4.0358632303180588e-05 -7.7489587611464822e-04 1.0253886389495821e-04  6.9298003648081050e-05 -7.9873548962482903e-04 3.3705595898248350e-06  4.6316061268593458e-05 -7.5651140135079610e-04 9.3001711127842077e-05  5.9361237053113036e-05 -7.3172120954966078e-04 9.1560984454117127e-05  8.7429674008669982e-05 -7.6536025429877873e-04 -1.9843837476372996e-06  6.1600324272079179e-05 -7.1707029988793197e-04 8.4528224168994566e-05  7.7762726931013314e-05 -6.8812529060880475e-04 8.2862777985012791e-05  1.0531964695245313e-04 -7.3113927701554994e-04 -5.3189199722077179e-06  7.6532214792318255e-05 -6.7677147250166242e-04 7.7781618676551632e-05  9.5937585191958381e-05 -6.4365717041394029e-04 7.5989553275766111e-05  1.2324596497700012e-04 -6.9634724918637492e-04 -6.4903892167015063e-06  9.1363525119368154e-05 -6.3527557659338321e-04 7.2713491308141218e-05  1.1423094159039338e-04 -5.9782056811097340e-04 7.0818848068047888e-05  1.4137673385615431e-04 -6.6129066022509175e-04 -5.2105427430061639e-06  1.0629632750327763e-04 -5.9192624620306943e-04 6.9732933438836333e-05  1.3294237190659576e-04 -5.5008960128076251e-04 6.7465504882432376e-05  -2.1212763055770157e-05 -7.2254007030169310e-04 3.9389968427545343e-04  -3.2581624540634946e-05 -6.8899356934017022e-04 4.7432814993910344e-04  -3.0458392552392460e-05 -7.5743730432733386e-04 3.6213395849252320e-04  -2.2350683978846557e-05 -7.0427188364441710e-04 3.4214901660192289e-04  -2.5088496517578498e-05 -6.2690620957452233e-04 4.5593293149116348e-04  -1.0450080869476585e-05 -6.6375914131702274e-04 3.7635073810166791e-04  -1.7908250350208946e-05 -5.6891173377613248e-04 4.3927820996978687e-04  -2.7180815290516203e-07 -6.0813005800876133e-04 3.6095452088589743e-04  -1.4884668342658338e-05 -6.5316780828825834e-04 3.2481009552619587e-04  9.3838625659682278e-06 -5.5380528285723686e-04 3.4654117681264408e-04  -1.1046393822427510e-05 -5.1279162934357071e-04 4.2297133219811224e-04  -7.8712110629004483e-06 -6.0297939220955868e-04 3.0874438444115888e-04  1.8736035229482022e-05 -4.9912112258657093e-04 3.3223087799370458e-04  5.9274361823834568e-05 -9.1831205348918477e-04 -1.9533398686766496e-04  4.8284185123095293e-05 -8.8771366258604337e-04 -9.9378127739085297e-05  7.5605115393721805e-05 -8.5724403585527107e-04 -1.1102856053231996e-04  8.8817952160677167e-05 -8.9704873025621076e-04 -2.0413885052482885e-04  1.1718077638074700e-04 -8.7286573771253387e-04 -2.0988943914903479e-04  1.0199361590669348e-04 -8.2484024377064470e-04 -1.1934366710877142e-04  1.4494095992305270e-04 -8.4661501683385646e-04 -2.1283229116749028e-04  1.2773386490931197e-04 -7.9099669768173018e-04 -1.2475811272815446e-04  1.7270274928049800e-04 -8.1937490695149784e-04 -2.1279802891365732e-04  1.5347129741976180e-04 -7.5619431186163110e-04 -1.2734236974111963e-04  2.0098471322516740e-04 -7.9212895914691642e-04 -2.0941316850785471e-04  1.7969528890058367e-04 -7.2075855890809022e-04 -1.2688940773614865e-04  2.3039575727364984e-04 -7.6607633303595675e-04 -2.0189610994719612e-04  2.0691337458275896e-04 -6.8513685007381758e-04 -1.2278875198810799e-04  9.5969951266139985e-05 -1.0540560229738401e-03 -5.5274911158364538e-04  8.6702725973784856e-05 -1.0301964352297714e-03 -5.0358103998200167e-04  9.7358178819898368e-05 -1.0634529152150740e-03 -6.2483180495044328e-04  1.3673907081711834e-04 -1.0521037407346643e-03 -6.3635692234038671e-04  1.2529846379550269e-04 -1.0050533708225902e-03 -5.1921782163317294e-04  1.3522063098509194e-04 -1.0230645077784091e-03 -5.7218076687354257e-04  1.7438157361967282e-04 -1.0363796598513934e-03 -6.4278922959915376e-04  1.6211052097946354e-04 -9.7695667985059614e-04 -5.2927343976797911e-04  1.7289417793796158e-04 -9.8984973657269292e-04 -5.8539706311312473e-04  2.1116999510802128e-04 -1.0173595762921661e-03 -6.4445945460038284e-04  1.9799635098039997e-04 -9.4636938152237594e-04 -5.3446882604832953e-04  2.0974839540461709e-04 -9.5425547249290319e-04 -5.9327762821195676e-04  4.1045452967162196e-05 -8.0770696758225840e-04 1.3049444924942430e-04  6.9964904358695322e-05 -7.4414280283169711e-04 1.1312689243983103e-04  9.7802840581449535e-05 -6.8357992230147968e-04 9.9290937924119115e-05  1.2508322218090275e-04 -6.2403721707443257e-04 8.7887823417852044e-05  1.5222192172873657e-04 -5.6356075107330767e-04 7.7892335244804850e-05  1.7969996341339817e-04 -5.0013041684127775e-04 6.8723520519246452e-05  2.0791989870643871e-04 -4.3149450409239623e-04 5.9931266389112896e-05  3.4522267906876492e-05 -8.9517295693910431e-04 4.8106169260284855e-05  1.5683015533737981e-05 -8.8366024780977095e-04 6.4795581260885783e-05  1.8959347970496478e-05 -9.3089405176302034e-04 6.6574043115161062e-05  4.002063060423907