<?xml version="1.0"?>
<VTKFile type="UnstructuredGrid"  version="0.1"  >
<UnstructuredGrid>
<Piece  NumberOfPoints="993" NumberOfCells="4291">
<Points>
<DataArray  type="Float64"  NumberOfComponents="3"  format="ascii">1.168031883077998 1.565794378947948 1.461504770759602  1.272581444076399 1.521625932910584 1.510496282104881  1.171617514535125 1.479624859145885 1.566984213007006  1.169123676584748 1.427272208622997 1.528277108932676  1.270797890057483 1.471828506583195 1.469692668167073  1.167170168863462 1.51462419374292 1.420781043438865  1.167082524639161 1.374673229576896 1.489538612446404  1.269428980460013 1.421745095141326 1.428844520986864  1.166694438322433 1.463191654151283 1.379931760414859  1.165180031193294 1.321868035618547 1.450799520895255  1.268216226891822 1.371436498252238 1.387952730591155  1.166349611642288 1.411502715295474 1.338992567987036  1.163173653602846 1.268901793936658 1.412060503635295  1.266952965935529 1.320958864101668 1.34702506124377  1.165921021159405 1.359570898338491 1.298005891591861  1.160833961865265 1.215840791546152 1.373286860359055  1.265442445970548 1.270372693162983 1.306025657999242  1.165232185644893 1.307401691869827 1.25695850810402  1.157882278371628 1.162736749529886 1.334389198793342  1.263434995290146 1.219735329014493 1.264853851041764  1.164110897417296 1.254972299054182 1.215751152135518  0.90886118326683 1.568194029775064 1.451838172839612  1.028418194306059 1.591826850599213 1.42525398245944  1.029571910832461 1.502513684375585 1.545810206785947  1.028770787919751 1.447934888157908 1.507613463108309  1.030684118322486 1.537688143127911 1.38510164501021  0.9108675150194077 1.5120793861319 1.411568532426912  1.028440820141858 1.393100141312324 1.469305668055986  1.033361708466014 1.483290300428163 1.344756714921517  0.9132588531166863 1.455695968482952 1.371088384614982  1.028195795252194 1.338019048012366 1.430970071922264  1.03611068015011 1.428600958491477 1.304302728430658  0.9156843409289125 1.39899110231402 1.330518724455424  1.02778679140666 1.282706193091746 1.392637236196107  1.038740440778415 1.373619074131222 1.263795422432382  0.9179588272903071 1.341958562062866 1.289911967044037  1.027001780010056 1.227179677270221 1.354297325026629  1.041109491682449 1.318332134552477 1.223252802521433  0.9199423984513926 1.284564433060815 1.249284657804295  1.025653473038957 1.171448065902729 1.315900497246646  1.043119132064437 1.262668472720355 1.182691894452265  0.9215308745458362 1.226731924955578 1.208607150049943  1.653837620587346 1.487934359018609 1.419348649526156  1.610309434283778 1.39112834095568 1.508895767031083  1.746550144566283 1.387792208415137 1.479541508619159  1.61909314852576 1.435515961839519 1.555706773152887  1.658817275468362 1.527962793865104 1.469736227497901  1.73540958826739 1.346628006807065 1.429073906846858  1.649094995397051 1.447672878737614 1.369043424639414  1.60166903747482 1.346459834049687 1.462254971353468  1.724337477799191 1.305359373994737 1.378680071166599  1.644475468624703 1.407272805945968 1.318743207522587  1.593142719739779 1.301645929490841 1.415668105951223  1.713310556867832 1.264098431675236 1.328293848853412  1.639874107526476 1.36681177448786 1.268398733504984  1.584668667700083 1.256795656679529 1.369074177336384  1.70230648524157 1.222983805241038 1.277853727116712  1.635190632096216 1.32639305531403 1.217971040804407  1.576181930380668 1.212053742195501 1.322414026825869  1.691382262421497 1.18217506060718 1.227284003844348  1.630358597207758 1.286191560288068 1.167404195580947  1.567627802005152 1.167626558063576 1.275589692664338  1.162608287760912 1.664055138173127 1.338509909433131  1.293560309399381 1.591476590608855 1.424148674554688  1.293945817379612 1.542888961045387 1.381225512279102  1.165933759925364 1.613951765150827 1.29454913035168  1.294725606207837 1.494072837740243 1.338226735550218  1.169624578504436 1.56371432971523 1.250350283931954  1.295654783451753 1.445053455398269 1.295162421260308  1.173415737948194 1.513231038756235 1.206024823355139  1.296525868479381 1.395845674193447 1.252046154838067  1.177125741962954 1.462480496440024 1.161634128043996  1.297168665331297 1.346479500952777 1.208862448947158  1.180636387505957 1.411434100549847 1.117205248062915  1.297376147816357 1.296978486146341 1.165553287966082  1.183887383355013 1.360047578208046 1.072759720683142  1.537235754372968 1.513682895250969 1.491809817349388  1.532369009020873 1.469600775681609 1.445261825972738  1.527776705542276 1.425265519429831 1.398820951423184  1.523329490822096 1.380784074900491 1.352388739345749  1.518894516323524 1.336234229559942 1.305922826096048  1.514334594725888 1.291726098960352 1.259380629410913  1.509543122288487 1.247410301606636 1.212662279521325  1.5436878936295 1.612652648023666 1.409998787177517  1.543362594876404 1.571403923000437 1.361692297761476  1.54340034917408 1.529938530555695 1.313281004972627  1.543611058419377 1.488300346233484 1.264779734780505  1.543834160597973 1.446528143604814 1.216197616979419  1.543915407658629 1.404662284191487 1.167499379394197  1.543644340878618 1.36277936350607 1.118602946876295  0.9101126112069072 1.727534614377724 1.252893593097417  1.028777099371395 1.659542150591836 1.331706767035231  0.9134127280867991 1.643051533591803 1.347515190781951  0.9153295865423352 1.588064586759601 1.303805229715064  1.031821266009403 1.607119314768782 1.287461451795425  0.9127129103207532 1.676139559074788 1.203453291033653  0.9175122685965673 1.532798297334002 1.259837744422735  1.035181294137744 1.554458097091209 1.242927770871042  0.9155136002053691 1.624559720616801 1.153627386311073  0.919725211038026 1.477228945176278 1.215736169598475  1.038589799173103 1.501527697959846 1.198267522030253  0.9183651518725725 1.572695071411591 1.103599004090305  0.9218488422925273 1.421323960135746 1.171571662998972  1.041906207438229 1.448282880898148 1.153544610768347  0.9211864454667661 1.520496802559223 1.053476658326245  0.9238135164701821 1.365049748733252 1.127389183709  1.045052270301818 1.394679951846122 1.108794723659548  0.9239404683301922 1.467910955530799 1.003317438873814  0.9256073144983141 1.308385376868582 1.08322545015455  1.048012289838259 1.340689488419257 1.064014275029671  0.926639261684868 1.414870836834186 0.9531231359262168  0.9015076258280418 1.497575657497388 1.554606768103657  0.9020982335287164 1.439702970466835 1.518133692012502  0.9031655981824587 1.38155024982139 1.481545575649707  0.9042498450019099 1.32312066780249 1.44491981217277  0.9051211429026134 1.264424895439558 1.408286144538788  0.9055851287512877 1.205451226902444 1.371647530774134  0.9054289587320701 1.146149912356309 1.33499031919626  0.924044040878388 1.432128595369544 1.664186914570495  0.9223691268400848 1.374223495610336 1.629942438904301  0.9213218703484809 1.316077219994551 1.59560547689723  0.9203512317810431 1.257687348638479 1.561259236264491  0.919145708729486 1.199100053630129 1.5269334752622  0.9174196079821428 1.140349876233861 1.492615184902386  0.9148237566106255 1.081405706113339 1.458284421920046  1.296094566915521 1.458548843669839 1.585354143975234  1.291332210389893 1.408601948471194 1.545131851894811  1.286968472301761 1.358392962788149 1.504972543988854  1.282785334477385 1.307993456401885 1.464830247866531  1.278569425724543 1.257480053804823 1.42468612633423  1.274119241337772 1.206960687584886 1.384499096721351  1.269172058476056 1.156596322376186 1.344179914168273  1.422763725597528 1.376170577293208 1.663042986422518  1.543272208720203 1.36704919991794 1.637620508399492  1.434931366854542 1.302970045969892 1.745381389455912  1.420986308410769 1.253154636438723 1.705124589501164  1.531675695023968 1.320198830781027 1.593397700071757  1.412939850458073 1.327129245427569 1.622119824228047  1.407200877256098 1.203202580968522 1.665114983027018  1.52022225307812 1.273140646552042 1.549405976798603  1.403317536712467 1.277853480902432 1.581389054861863  1.393585437019123 1.153153819414078 1.625232985265903  1.508903940834919 1.225964998158465 1.50552418691433  1.393861979328179 1.228427761171905 1.540732449106777  1.380049754468823 1.103084628642018 1.585420155845295  1.497652741030446 1.178777364726491 1.46168124561297  1.384453440576924 1.17895152400284 1.500105661619399  1.366473034978981 1.053150295081219 1.545588598148961  1.486399911630081 1.131730993983069 1.41781915020205  1.374981410856101 1.129563345666392 1.459469092704311  1.352833610414303 1.003627982041596 1.505608870916955  1.475103091254164 1.085087120569465 1.373808608736612  1.365307166677469 1.080525421741205 1.418732224257178  0.7901843441868376 1.807727939643819 1.166601663410335  0.7885063132823793 1.71398120741801 1.260151620253778  0.7896303194974211 1.660039532290009 1.210138334538388  0.7912112789397492 1.757302188298132 1.11133829788434  0.7908893512299655 1.60586345065846 1.159760623576341  0.7923893694253378 1.706811402676113 1.055675624327433  0.7921987606930336 1.551398349592358 1.10919950180357  0.7936401097009672 1.656109337429039 0.999768425875543  0.793504495311284 1.496589738977557 1.058545222389981  0.7949280307858397 1.605108266473562 0.9437427882646481  0.7947685951686924 1.441384364728692 1.007862866462348  0.7962362756441302 1.553731604326935 0.8876851600584361  0.7959834549970464 1.385736075782399 0.9572009197885799  0.7975789560075592 1.501915105059077 0.8316640027618213  1.404163762548326 1.433320156677658 1.595396147511919  1.302907561157424 1.392769982787602 1.667949777930924  1.294640151739925 1.341841103810213 1.629276540950695  1.397176783607824 1.384859686431778 1.553581993548404  1.286739056133124 1.290695378764217 1.590730320524042  1.390501704017007 1.336150718917473 1.511924946262435  1.279040044664671 1.239386191221824 1.552232586721428  1.383998997386229 1.287282280815018 1.47030974835498  1.271336995399238 1.187999246267931 1.513763760477276  1.377503986747957 1.238339150665135 1.428690343300216  1.263427829208467 1.136685631438564 1.47528573
[...]
<PointData  Vectors="f_24"> 
<DataArray  type="Float64"  Name="f_24"  NumberOfComponents="3" format="ascii">4.6533953451717450e-04 -1.2859553952998526e-03 -1.6235767100061789e-03  4.4477893044590002e-04 -1.2632605265110012e-03 -1.6108550188704629e-03  4.4377052367978157e-04 -1.2075176654391707e-03 -1.5741164531319714e-03  4.3574141238704358e-04 -1.2413006671461958e-03 -1.5370085844112560e-03  4.3605291478258110e-04 -1.2967759604132856e-03 -1.5812324042338924e-03  4.5526789650239698e-04 -1.3140954683988368e-03 -1.6001665202992487e-03  4.2909367928843146e-04 -1.2694041401525660e-03 -1.4984010135415866e-03  4.2879583355331572e-04 -1.3241314081901398e-03 -1.5494636255509679e-03  4.4718365607259299e-04 -1.3363781798762867e-03 -1.5740696552392450e-03  4.2326520512213806e-04 -1.2929164579111767e-03 -1.4576705690557833e-03  4.2239089906686178e-04 -1.3466353548868255e-03 -1.5148370790318728e-03  4.3999006959201457e-04 -1.3536769555189258e-03 -1.5449470700889701e-03  4.1767304580335381e-04 -1.3124792985077854e-03 -1.4139378311417055e-03  4.1622620771688933e-04 -1.3650408078084593e-03 -1.4766719719336704e-03  4.3274685891080990e-04 -1.3665401443717041e-03 -1.5125933568340161e-03  4.1166349407991554e-04 -1.3282385328618163e-03 -1.3663044984677604e-03  4.0974174299279232e-04 -1.3794704176308215e-03 -1.4341784499766297e-03  4.2439711499666407e-04 -1.3748986003266326e-03 -1.4767805147665593e-03  4.0411834871147584e-04 -1.3405946243824818e-03 -1.3145766062222116e-03  4.0178634876457956e-04 -1.3888192475125293e-03 -1.3864949557259023e-03  4.1371512683931671e-04 -1.3770458143892031e-03 -1.4363964323782881e-03  4.8062894456084320e-04 -1.2567821559337654e-03 -1.6013670865856781e-03  4.8020483778941973e-04 -1.2876642311930768e-03 -1.6190533646069504e-03  4.6058910264437690e-04 -1.2087667590369726e-03 -1.5787429005812391e-03  4.5222862109207989e-04 -1.2393304189863407e-03 -1.5437450495256839e-03  4.7029462087458748e-04 -1.3113585867691139e-03 -1.5990314793474535e-03  4.7242581291760227e-04 -1.2811928063025998e-03 -1.5769659139588945e-03  4.4553694060680854e-04 -1.2644370870962703e-03 -1.5071852364242865e-03  4.6218989711403568e-04 -1.3294556147126493e-03 -1.5760248329206546e-03  4.6611480533465145e-04 -1.3000558290955039e-03 -1.5500679425405109e-03  4.3969720049950709e-04 -1.2848807985041389e-03 -1.4686240791391180e-03  4.5497663801315837e-04 -1.3427401579548706e-03 -1.5498191888960869e-03  4.6065745780762271e-04 -1.3141229111497588e-03 -1.5205813571612264e-03  4.3386938770680387e-04 -1.3011844885565886e-03 -1.4275292308818677e-03  4.4758805362042522e-04 -1.3516580797713787e-03 -1.5204990162625449e-03  4.5499675350170395e-04 -1.3238913449473472e-03 -1.4885550100349420e-03  4.2707905472603118e-04 -1.3135166512639788e-03 -1.3834255572948663e-03  4.3880716849805832e-04 -1.3560541483235587e-03 -1.4883557157031354e-03  4.4793936085060727e-04 -1.3295275142623010e-03 -1.4542295799000939e-03  4.1813224907709764e-04 -1.3218230110921289e-03 -1.3359264597891582e-03  4.2677617121818657e-04 -1.3542722407952972e-03 -1.4539394470925553e-03  4.3814783883610426e-04 -1.3307171886028394e-03 -1.4176527146319861e-03  3.9944987967732064e-04 -1.3643860885530609e-03 -1.6202800153892038e-03  3.8472341592025219e-04 -1.2836559951447002e-03 -1.5283657346197145e-03  3.7262410219580526e-04 -1.3086479265420035e-03 -1.5282018076790806e-03  3.8753170451040128e-04 -1.2364274831069852e-03 -1.5650673709948219e-03  4.0367752165904822e-04 -1.3217820235868114e-03 -1.6417454031773828e-03  3.7284805279576088e-04 -1.3521516984203541e-03 -1.4926225422933633e-03  3.9623685688211269e-04 -1.3995752722542301e-03 -1.5954999278517189e-03  3.8259862570250738e-04 -1.3235294640719425e-03 -1.4901118208676533e-03  3.7387664603299878e-04 -1.3906898920499886e-03 -1.4536994385777370e-03  3.9384038617870431e-04 -1.4293659642913680e-03 -1.5664876585642893e-03  3.8120959756857104e-04 -1.3585629997360839e-03 -1.4489027645013352e-03  3.7595265333592446e-04 -1.4266550261027983e-03 -1.4100076695940658e-03  3.9216213837456505e-04 -1.4555197551683659e-03 -1.5320338782731739e-03  3.8073183555631959e-04 -1.3907872848964902e-03 -1.4033912752361556e-03  3.7968417011701540e-04 -1.4624470659674951e-03 -1.3600195815109916e-03  3.9137725950157311e-04 -1.4797195353766657e-03 -1.4904757431395588e-03  3.8165662480288729e-04 -1.4219903741471021e-03 -1.3521219005566693e-03  3.8610004669636439e-04 -1.5008986113997640e-03 -1.3024280759065465e-03  3.9209302062005529e-04 -1.5046949717167218e-03 -1.4396489373687919e-03  3.8487812113274821e-04 -1.4529345180506427e-03 -1.2933440844822789e-03  4.8659413890400892e-04 -1.3488901824192207e-03 -1.6484319674440939e-03  4.5988519531785070e-04 -1.3267418359426434e-03 -1.6475502177832884e-03  4.4977849394288677e-04 -1.3546390281571682e-03 -1.6295120050921854e-03  4.7492328851841541e-04 -1.3668606204663045e-03 -1.6416527882206434e-03  4.4144147160364453e-04 -1.3760498715903041e-03 -1.6078550616358850e-03  4.6536660290696647e-04 -1.3788961991228271e-03 -1.6303930397405452e-03  4.3387188818116415e-04 -1.3923799990397390e-03 -1.5823313102781534e-03  4.5656204626054914e-04 -1.3857844224913463e-03 -1.6148786772222695e-03  4.2617413837215599e-04 -1.4041551586702213e-03 -1.5525932627160838e-03  4.4728629725254194e-04 -1.3878541169406414e-03 -1.5955150596000298e-03  4.1722777496762446e-04 -1.4112792346930938e-03 -1.5184095929076337e-03  4.3623915832000001e-04 -1.3850301451132584e-03 -1.5728892527014486e-03  4.0551780651647913e-04 -1.4133771529217505e-03 -1.4806348279486836e-03  4.2178378952650657e-04 -1.3771360224912957e-03 -1.5480833638140141e-03  4.1404624821099885e-04 -1.2985717469574526e-03 -1.6262816037730409e-03  4.0843180472721722e-04 -1.3384761945680222e-03 -1.5996858848605724e-03  4.0375193416763115e-04 -1.3712991650081726e-03 -1.5702272764527487e-03  3.9983802844394931e-04 -1.3990410186606960e-03 -1.5370757575550635e-03  3.9645989083448766e-04 -1.4231107115752996e-03 -1.4990817375720342e-03  3.9358448433715604e-04 -1.4445589375448279e-03 -1.4547483300639448e-03  3.9133615289094388e-04 -1.4644643247723110e-03 -1.4027222583458561e-03  4.3638819110407686e-04 -1.3651433849837769e-03 -1.6805193985263041e-03  4.2892511931978786e-04 -1.3972250952058627e-03 -1.6687021486740921e-03  4.2274931932592479e-04 -1.4225746184195888e-03 -1.6527375060563835e-03  4.1727508738869968e-04 -1.4425604790331544e-03 -1.6320546935350195e-03  4.1195275861304612e-04 -1.4583640046196720e-03 -1.6059680181068569e-03  4.0617434745623336e-04 -1.4705490299211051e-03 -1.5734143196447252e-03  3.9923800466389525e-04 -1.4778537283653840e-03 -1.5315036646584782e-03  5.0508510769434417e-04 -1.3328502233351986e-03 -1.6149830388672750e-03  4.9274947394686278e-04 -1.3296448599053753e-03 -1.6310226859630114e-03  4.9339741045329897e-04 -1.3076161705178073e-03 -1.6175774281266973e-03  4.8443317040104434e-04 -1.3238324190893891e-03 -1.6067841645721103e-03  4.8212808066938292e-04 -1.3457702912558272e-03 -1.6234052737986446e-03  4.9564829072322903e-04 -1.3386788498942598e-03 -1.6178672593017286e-03  4.7759396744548598e-04 -1.3344802378675250e-03 -1.5920529156697382e-03  4.7350802748751653e-04 -1.3558527652756170e-03 -1.6115847218944027e-03  4.8864711465508354e-04 -1.3392601092320107e-03 -1.6161099514195761e-03  4.7156625540316582e-04 -1.3403536365546554e-03 -1.5739233931866077e-03  4.6564582859719714e-04 -1.3609270781993340e-03 -1.5960307029368400e-03  4.8250304963283496e-04 -1.3350377090142818e-03 -1.6106394202642384e-03  4.6510724670101544e-04 -1.3418854390489284e-03 -1.5528613196093412e-03  4.5724336884791323e-04 -1.3613065814502947e-03 -1.5772417788110977e-03  4.7592859566985272e-04 -1.3265115683073190e-03 -1.6023282306907225e-03  4.5697628695619909e-04 -1.3393136603207713e-03 -1.5295085981342259e-03  4.4696141926608204e-04 -1.3570671622781798e-03 -1.5559949190112044e-03  4.6782272342095054e-04 -1.3140869478730751e-03 -1.5919792939820465e-03  4.4619841380529870e-04 -1.3328586356790005e-03 -1.5051801146343338e-03  4.3343790202228738e-04 -1.3489007936263234e-03 -1.5338965895910846e-03  4.5713050930626945e-04 -1.2976743234034307e-03 -1.5797058740503601e-03  4.6637913987365687e-04 -1.1867561904995154e-03 -1.5681214403449324e-03  4.5914232509947176e-04 -1.2154961355009776e-03 -1.5301006186586030e-03  4.5348960001927364e-04 -1.2389156238454431e-03 -1.4906782830854497e-03  4.4863935254157240e-04 -1.2579135987894738e-03 -1.4493323753333727e-03  4.4368600467011124e-04 -1.2730495146454487e-03 -1.4056068362695894e-03  4.3756291923489860e-04 -1.2844731719156911e-03 -1.3592280313464813e-03  4.2895102811715369e-04 -1.2920652273836857e-03 -1.3106334040888221e-03  4.5041684805083515e-04 -1.0964267466873913e-03 -1.5210914516891850e-03  4.4380502534663931e-04 -1.1283107496969989e-03 -1.4713017537988551e-03  4.3863256299786827e-04 -1.1553350125958961e-03 -1.4215252186790819e-03  4.3422214159222341e-04 -1.1783697627766392e-03 -1.3708088790560210e-03  4.2992658401953658e-04 -1.1981788089175363e-03 -1.3182197551616297e-03  4.2502025356747720e-04 -1.2151483467875593e-03 -1.2628866512801843e-03  4.1862978900925290e-04 -1.2287686790043257e-03 -1.2039565423810465e-03  4.2644572503338995e-04 -1.2010726883482379e-03 -1.5672869320669813e-03  4.1951946174699544e-04 -1.2388777254464167e-03 -1.5283604369550983e-03  4.1375422254862125e-04 -1.2707575335209294e-03 -1.4884657046626097e-03  4.0877785887284305e-04 -1.2979769765374804e-03 -1.4465316641323683e-03  4.0425224903143140e-04 -1.3215161217526655e-03 -1.4014676382293747e-03  3.9988553207269861e-04 -1.3419126624218129e-03 -1.3520919311980392e-03  3.9542858732389597e-04 -1.3592678071829433e-03 -1.2969176316635412e-03  3.9388159229505291e-04 -1.1265156253824804e-03 -1.4951757937701679e-03  3.8065525944052216e-04 -1.1516373338081721e-03 -1.4914267289680067e-03  3.7758257331054775e-04 -1.0352003410057473e-03 -1.4078164207753248e-03  3.7623622093241826e-04 -1.0799607366327401e-03 -1.3510561671909538e-03  3.7881839209567445e-04 -1.1992626773146859e-03 -1.4448548433120053e-03  3.9021140739951973e-04 -1.1703747096771622e-03 -1.4466044150339892e-03  3.7511213150317525e-04 -1.1190068997960017e-03 -1.2959755922613268e-03  3.7732971141084612e-04 -1.2401954075655826e-03 -1.3981711899501519e-03  3.8726741693943030e-04 -1.2079377718339295e-03 -1.3982839389114947e-03  3.7429674709986129e-04 -1.1543492195410484e-03 -1.2408127968553642e-03  3.7643076035384697e-04 -1.2767261228648899e-03 -1.3499839975036774e-03  3.8485518665290735e-04 -1.2412349572687004e-03 -1.3487287997782954e-03  3.7405567807908380e-04 -1.1877824709304857e-03 -1.1837089731691014e-03  3.7640070843557446e-04 -1.3108014520797177e-03 -1.2986733616970453e-03  3.8312272424869076e-04 -1.2718930453744590e-03 -1.2964447766219171e-03  3.7493929327485370e-04 -1.2210633316938702e-03 -1.1226860131473969e-03  3.7785340687546782e-04 -1.3442461822577385e-03 -1.2423623377231714e-03  3.8244366808949746e-04 -1.3012960893842962e-03 -1.2396953065641556e-03  3.7794647617841760e-04 -1.2562810151520039e-03 -1.0554141545817447e-03  3.8182780404921648e-04 -1.3789498320373012e-03 -1.1789889535735361e-03  3.8374268486131465e-04 -1.3299721742162157e-03 -1.1760080718122988e-03  5.0987676767749474e-04 -1.3263027016782421e-03 -1.5849284380802979e-03  5.0187101394416709e-04 -1.3181678468820132e-03 -1.6065947257663513e-03  4.9577036887328931e-04 -1.3241153924644306e-03 -1.6071058722506807e-03  5.0393661043995463e-04 -1.3188624537092317e-03 -1.5977548614702357e-03  4.9189967196252410e-04 -1.3250638497125104e-03 -1.6032457113893915e-03  5.0030726185702800e-04 -1.3068909231313032e-03 -1.6056135095123148e-03  4.8894928683627600e-04 -1.3215247914899115e-03 -1.5959513959114156e-03  4.9758188074721743e-04 -1.2908147047222386e-03 -1.6096306029162490e-03  4.8573030128298578e-04 -1.3139856535107127e-03 -1.5859532927483503e-03  4.9461312918046198e-04 -1.2710269751766937e-03 -1.6107711462665052e-03  4.8122564070010170e-04 -1.3028787680082576e-03 -1.5739814967748783e-03  4.9039679215649723e-04 -1.2479367205454628e-03 -1.6099317843224130e-03  4.7457464549396493e-04 -1.2887713636161400e-03 -1.5607735853398615e-03  4.8414977640635947e-04 -1.2218564996706754e-03 -1.6079937164577200e-03  4.0931803323387148e-04 -1.1964836338265077e-03 -1.5524387111478472e-03  4.0935351185859446e-04 -1.1202414413838491e-03 -1.5058113204953908e-03  4.0434591870001219e-04 -1.1601883746783978e-03 -1.4571727147603469e-03  4.0388756966884152e-04 -1.2377292479822690e-03 -1.5118381565613723e-03  4.0009776699500481e-04 -1.1944458877208852e-03 -1.4087238403862202e-03  3.9943472925319104e-04 -1.2725854914191535e-03 -1.4701475957217794e-03  3.9648119271392269e-04 -1.2245543629739897e-03 -1.3591634280605957e-03  3.9570390605186501e-04 -1.3028965274755925e-03 -1.4263688223920918e-03  3.9339733547119252e-04 -1.2517499059335633e-03 -1.3070827506382395e-03  3.9261577078464940e-04 -1.3299594254695582e-03 -1.3791648471078611e-03  3.9089489898428971e-04 -1.2769378565730602e-03 -1.2508773596567508e-03  3.9030631407136704e-04 -1.3547691344213239e-03 -1.3268972501710805e-03  3.8917507634519087e-04 -1.3004574831089546e-03 -1.1883441391334804e-03  3.8908935918611419e-04 -1.3783630826312851e-03 -1.2680356883537712e-03  4.2429482939646278e-04 -1.0067344201943537e-03 -1.4540896316017698e-03  4.0949795432226633e-04 -1.0153741940737129e-03 -1.4438844857598797e-03  4.1042381402569774e-04 -8.8834592923331521e-04 -1.3759801397762706e-03  4.0646295859288352e-04 -9.2058886163224848e-04 -1.3087388575096382e-03  4.0505910332013298e-04 -1.0534507346143462e-03 -1.3863877605531302e-03  4.1890710914114978e-04 -1.0415578889844794e-03 -1.3953110991535489e-03  4.0290342066115378e-04 -9.4926234285858981e-04 -1.2446382622314106e-03  4.0127096725302053e-04 -1.0864077344312402e-03 -1.3305816666013847e-03  4.1430619473401128e-04 -1.0715687561951885e-03 -1.3380954586556331e-03  3.9959775320131579e-04 -9.7547598429356100e-04 -1.1815083392615615e-03  3.9796595407274037e-04 -1.1158110209885600e-03 -1.2747927884462138e-03  4.1024313474824920e-04 -1.0981642332542937e-03 -1.2807169716537760e-03  3.9652134779978674e-04 -1.0002813711509856e-03 -1.1174439215855167e-03  3.9503846533495048e-04 -1.1428481939744141e-03 -1.2173591146164148e-03  4.0646648836524751e-04 -1.1223495304595640e-03 -1.2216952959537501e-03  3.9370783439838343e-04 -1.0245810076196717e-03 -1.0506015251970000e-03  3.9247163408745559e-04 -1.1684528825254912e-03 -1.1564959429061637e-03  4.0277008179658681e-04 -1.1448004270204835e-03 -1.1595174467679285e-03  3.9126767955448180e-04 -1.0488222930214659e-03 -9.7898607962262126e-04  3.9047880671981382e-04 -1.1933056405517121e-03 -1.0898943005550343e-03  3.9886260396729972e-04 -1.1657418163005060e-03 -1.0929811203528163e-03  4.8588784274697952e-04 -1.4184181478440819e-03 -1.6821165557682350e-03  4.5637329564974681e-04 -1.4141897187420411e-03 -1.7039708447381145e-03  4.6844214549290002e-04 -1.3915816156643301e-03 -1.6862032078987191e-03  4.5816471145098970e-04 -1.4120819168477663e-03 -1.6838910076471558e-03  4.4768160912022964e-04 -1.4352599714029691e-03 -1.7047217969548803e-03  4.7495523555333616e-04 -1.4262471459520636e-03 -1.6932592343853294e-03  4.4951715686412816e-04 -1.4263739377457600e-03 -1.6767187004000227e-03  4.4043738697533043e-04 -1.4494336776328584e-03 -1.6997383917969596e-03  4.6571762725176495e-04 -1.4281223872610158e-03 -1.6979981821246713e-03  4.4148598045955082e-04 -1.4354373583013386e-03 -1.6643542856144761e-03  4.3362519972499732e-04 -1.4583710422215459e-03 -1.6889311658522610e-03  4.2840658271956573e-04 -1.2675405134675529e-03 -1.6137775250099629e-03  4.2099934915133721e-04 -1.3048014138957360e-03 -1.5837032592138076e-03  4.1492704152634610e-04 -1.3357682948628182e-03 -1.5517741082323182e-03  4.0963441338735801e-04 -1.3617169742570685e-03 -1.5168575535368654e-03  4.0475344946494480e-04 -1.3837613794987558e-03 -1.4780586817641087e-03  3.9996129298329306e-04 -1.4025240851195057e-03 -1.4343533192176466e-03  3.9514925440349612e-04 -1.4173731933215979e-03 -1.3839184627772950e-03  4.4774631950947167e-04 -1.3461254968663023e-03 -1.6634734629452971e-03  4.3900262626652385e-04 -1.3765111671342188e-03 -1.6484801951775639e-03  4.3156995323446074e-04 -1.4003445593361770e-03 -1.6295064871288995e-03  4.2490067080994966e-04 -1.4188700905337340e-03 -1.6063698208649804e-03  4.1828213990514456e-04 -1.4329071384776770e-03 -1.5784632070168011e-03  4.1095232833188329e-04 -1.4427438395772838e-03 -1.5449767009419568e-03  4.0181258366533675e-04 -1.4480986122643730e-03 -1.5048857442061699e-03  4.9102005468748956e-04 -1.2844670166143571e-03 -1.4104754873499289e-03  5.0329868220889734e-04 -1.2436157613639127e-03 -1.3264260564568688e-03  5.0197891832346484e-04 -1.2771905190135636e-03 -1.4164008668740660e-03  5.0785307862890672e-04 -1.2255461038033989e-03 -1.4489574329354157e-03  5.0868021955825641e-04 -1.1782826009563182e-03 -1.3626709451315274e-03  5.0306194287400409e-04 -1.2284692684752302e-03 -1.4443161168864339e-03  5.1552585362042659e-04 -1.1725523335918292e-03 -1.4759987804939627e-03  5.1570462874754499e-04 -1.1130704678801735e-03 -1.3934895590826278e-03  5.1654814772915435e-04 -1.1718512741477225e-03 -1.4726337980506302e-03  5.2414160748625368e-04 -1.1174368617460993e-03 -1.4992834096016912e-03  5.2363509261973279e-04 -1.0467208582408186e-03 -1.4205918325959621e-03  5.3077427705185587e-04 -1.1134834088451762e-03 -1.4972906534674133e-03  5.3295590467704215e-04 -1.0596089260867074e-03 -1.5201080518176273e-03  4.2455343084145256e-04 -8.8279544306787191e-04 -1.3906110923027446e-03  4.1301618017654918e-04 -7.5069308418126361e-04 -1.3093665359361832e-03  4.0912439783467354e-04 -7.7383920056471123e-04 -1.2338558205721825e-03  4.2000557891654295e-04 -9.1242177906965044e-04 -1.3215573297339956e-03  4.0513835475270148e-04 -7.9539040128815655e-04 -1.1624291105649168e-03  4.1582250027092304e-04 -9.3839262985013962e-04 -1.2553171947831184e-03  4.0114289026535970e-04 -8.1582929337180028e-04 -1.0925037623943366e-03  4.1193503488290613e-04 -9.6195875696783830e-04 -1.1897576001718927e-03  3.9722514407013822e-04 -8.3585959873670377e-04 -1.0220803026190777e-03  4.0823569821152967e-04 -9.8398918304207065e-04 -1.1231464075603728e-03  3.9354266037120914e-04 -8.5615850307768811e-04 -9.4944358990219416e-04  4.0463508349331597e-04 -1.0051797343804381e-03 -1.0538720837019913e-03  3.9032512549133468e-04 -8.7728489246038683e-04 -8.7295407240469086e-04  4.0094604184167287e-04 -1.0261059190682354e-03 -9.8074910286768979e-04  4.5736317785394351e-04 -1.0844752867765785e-03 -1.5189507581237641e-03  4.5213892813727807e-04 -1.1147670063030881e-03 -1.4671163052532952e-03  4.4825719133808370e-04 -1.1401867542050232e-03 -1.4153174987738281e-03  4.4506336744659257e-04 -1.1617237167903579e-03 -1.3626389660735491e-03  4.4186224543486851e-04 -1.1801410783174849e-03 -1.3082303456830808e-03  4.3788340751779357e-04 -1.1957681015298410e-03 -1.2513396027995021e-03  4.3211756099873134e-04 -1.2086447094938830e-03 -1.1916224196767040e-03  4.3715713378454608e-04 -1.4525856810954799e-03 -1.7221234672131986e-03  4.1668603235638671e-04 -1.4160747264793292e-03 -1.6836762998645477e-03  4.0444156431567802e-04 -1.4382046703585831e-03 -1.6991776791805426e-03  4.2266115244948550e-04 -1.3826378156614578e-03 -1.6932402453132512e-03  4.0223361231838864e-04 -1.4645773395429241e-03 -1.6883180254032015e-03  4.3173348568633426e-04 -1.4671954433742589e-03 -1.7205705692139690e-03  4.1210313221545341e-04 -1.4423460048659273e-03 -1.6694035000051745e-03  4.0081592078175841e-04 -1.4856004220028850e-03 -1.6712320087911821e-03  4.2681262807527787e-04 -1.4762740313429674e-03 -1.7128081016388776e-03  4.0823077493180692e-04 -1.4633814718579287e-03 -1.6495855542803376e-03  3.9978991839322947e-04 -1.5029934254515095e-03 -1.6468134783906917e-03  4.2163611387204691e-04 -1.4807615719841460e-03 -1.6982534677246139e-03  4.0461326477244497e-04 -1.4806888626265925e-03 -1.6233534200657583e-03  3.9895910102595149e-04 -1.5183780022850182e-03 -1.6135320888942524e-03  4.1539492402866210e-04 -1.4812829361978458e-03 -1.6758515004200447e-03  4.0098159545072672e-