<?xml version="1.0"?>
<VTKFile type="UnstructuredGrid"  version="0.1"  >
<UnstructuredGrid>
<Piece  NumberOfPoints="968" NumberOfCells="4195">
<Points>
<DataArray  type="Float64"  NumberOfComponents="3"  format="ascii">1.03060011208329 2.114735987778004 0.960245141545079  1.015695087570966 2.246819545346341 0.887211305375292  1.137248837827948 2.229303083608117 0.9075905938553848  1.144934975333585 2.195873742890878 0.8428553360405681  1.020658016552287 2.213001999160698 0.8197521485204585  1.036403256001891 2.079162395000457 0.8959002215715118  1.152782700489807 2.162828467606074 0.7778024123666173  1.025756522583049 2.179615164038179 0.7519940802086447  1.042412123985897 2.043971031668605 0.8311615151039439  1.16065508480747 2.129902294587991 0.7125639040134916  1.030847657808261 2.146382091281804 0.684075051737667  1.048454133057065 2.008857037939448 0.7661934151025284  1.168477217771151 2.096911886319048 0.647271832664253  1.035830129149379 2.113130466154525 0.6161041171757391  1.054479334127521 1.973643008026936 0.7011502207860135  1.176200382103217 2.063715855002128 0.5820546739065544  1.040726927941035 2.07972786083983 0.5481887228616921  1.060456375561315 1.938198880935778 0.6361587839220849  1.184012733772377 2.030107594222272 0.5170587568901794  1.045808576216511 2.045836398042771 0.4805309542179788  1.066463148802034 1.902340803371398 0.5713577981106961  1.706926108874872 2.781396751961703 0.7548758011073636  1.819042298760024 2.838060306836959 0.7615399800580729  1.84469926846706 2.695714920688769 0.8067931298169893  1.717961605777553 2.760402928562605 0.6825782240186047  1.829725830752271 2.819531853528904 0.6879778790914136  1.855468322678071 2.670263646384384 0.7379579093511437  1.840387258333107 2.801085990720838 0.6143685896269317  1.728981987053901 2.739513129476204 0.6102196100731332  1.866265953402304 2.644880624776716 0.6690776645812306  1.851049727449759 2.782664253358939 0.5407330111067282  1.739994075676078 2.718669202092048 0.537831582679041  1.877093478288635 2.619511581954785 0.600173857570245  1.861713703152364 2.764225190942577 0.4670908977014412  1.750997915597202 2.697818215297106 0.4654408319070819  1.887924733590141 2.594118387060712 0.5312633137401548  1.87239842418221 2.745719889813964 0.3934654489283201  1.762024673983304 2.67689365004059 0.3930802840853287  1.898758319850341 2.568652691804703 0.4623732882983823  1.883149813874271 2.727098135876559 0.3198752603698288  1.773136079338547 2.655825926682693 0.3207769394420252  1.90960143920452 2.543080396821133 0.3935093668372004  0.9005176110450267 2.203921600864311 0.9040772047794796  0.9035262693953179 2.168635592032861 0.8355235147391571  0.9066950908291056 2.133767734271238 0.766656213351757  0.909863009304154 2.09905252144973 0.6976037710077301  0.9129412144956167 2.064332660657514 0.6284741490892121  0.9159203854384246 2.029484960171035 0.5593707098350608  0.9191150178645318 1.994155523627886 0.490548269284533  1.262145989409082 2.481836366430333 0.8012924212246275  1.350269229197473 2.398555774304535 0.8532066920085496  1.24019339590453 2.350962506314265 0.8608697146349124  1.249284933056099 2.319296428836306 0.7955037785241781  1.360732143080413 2.3669016245181 0.788958181971698  1.270323870760993 2.452929190342265 0.7325469424918823  1.258489249417352 2.287982703276295 0.7299048436050777  1.371294978240275 2.335543495645138 0.7245147409652916  1.278555311596894 2.424352876919867 0.663645756769501  1.267715329823054 2.256795157967408 0.6641691945499993  1.381894605423537 2.304289803712875 0.6599550538867202  1.286770781937854 2.395913695772863 0.5946634619422946  1.27689687325127 2.225572868139079 0.5983981709120263  1.392477372175558 2.272997333375268 0.5953634718347713  1.29491197800598 2.367470056004575 0.5256775594191445  1.285990082887176 2.19418267940049 0.5327020317185492  1.403006887228304 2.241558211180452 0.5308348963156958  1.30301291998326 2.338888645203709 0.4567820510725926  1.295160630181139 2.16241733383854 0.4672121605285741  1.413559741980448 2.209802417293002 0.4664828670641215  1.311255377400222 2.309991144284963 0.3880966415784857  0.7539915315759323 2.870926284642188 0.6611085234823647  0.8876137850008619 2.959087411096921 0.6518308553544925  0.8738189324274078 2.833228120650987 0.6747761149233517  0.8758282799409457 2.81804721131354 0.589343441325622  0.8882558943686805 2.953580753633041 0.5635466716622319  0.7557295819409279 2.859924775142503 0.5718308597416868  0.8777227269838943 2.80342563192222 0.5041469911291641  0.8887644902823945 2.948488147039498 0.4755877558799164  0.7573520616459816 2.849383295884123 0.4828446084410569  0.8794525388801886 2.788972983466694 0.4191886159162955  0.8891082923057828 2.943510814337269 0.3879494067482503  0.7587676107353618 2.838955286405647 0.3942037014367842  0.8893777759527761 2.938486324372324 0.3006301517528899  0.7600574731419826 2.82846228460178 0.305920071492886  0.8810805218320037 2.774498386666388 0.3345177247249422  0.8896886877965841 2.933381706677582 0.2136541340992038  0.761358055785084 2.817898128899464 0.2180066884915336  0.8827439585919469 2.759968956183388 0.2500742619461281  0.8902857377704336 2.928079917254016 0.1270661181944406  0.7628116843006728 2.807211740360173 0.1305850952433534  0.8845966076586045 2.745270309134947 0.1660236230660066  1.141436626150316 2.463353867996515 0.7947143840808054  1.147628945241998 2.434070395071005 0.7241612008021515  1.153864156431079 2.405185861340917 0.653450468118852  1.160049422232566 2.376466828923787 0.582670990007038  1.166116190362283 2.347750012734175 0.5118993271825497  1.17216566888954 2.318894841676033 0.4412302152433285  1.178411785353252 2.289674672127709 0.3708102743382352  1.107919446778555 2.345231700583724 0.8471486988734575  1.11411981152856 2.313396400482949 0.7791817098625836  1.120409086679201 2.281979617854807 0.7109756152715827  1.126679674036326 2.250723951355057 0.6426423931003628  1.132833904889073 2.219456214870594 0.5742817927085765  1.138926241972773 2.188034744400068 0.5060006867417811  1.145207521205075 2.156187346045348 0.4379703427151617  1.635086834487196 2.268469949230963 0.8186780309921721  1.641151656950749 2.160888029177213 0.8872837246026704  1.757320860966144 2.183083904611201 0.899168353872507  1.628446104858533 2.193382908546844 0.9441431602311944  1.622891279867889 2.30045839709315 0.8779739329368529  1.769576385153881 2.150618718485779 0.8425469592881575  1.647391242051504 2.236526258101919 0.7592820696173246  1.654001364615344 2.12843255117021 0.830295342415559  1.781859009477083 2.118085115855647 0.7858665991952006  1.659720151126307 2.204515222989627 0.6998367984428351  1.666881790019026 2.09589266566728 0.7732337618862629  1.794064245950595 2.085389687321794 0.7291732406331519  1.671998841464128 2.172336970615012 0.6403957730638237  1.67969354886002 2.063156140986992 0.7161511928713137  1.806076786053048 2.052435981306804 0.6725181910015384  1.684156307025003 2.139896606075257 0.581017435584947  1.692327127472479 2.030090884016653 0.6591030711609031  0.7609262137426375 2.998567586988284 0.1967351323987671  0.7612693110975984 2.998758761461317 0.1074159457174575  1.55133660431089 1.582448850285981 1.179048962461755  1.43091026494091 1.659665738735916 1.100679213907653  1.425920492235825 1.558330091829598 1.195211981199911  1.422997068189701 1.700692441664355 1.15093436933732  1.429779291117218 1.51438104793564 1.147740991141313  1.555394625478806 1.542056810165759 1.12912077089373  1.438790401982503 1.618427398475058 1.050327461575019  1.433462278853782 1.470226151722125 1.100168402962904  1.559281236805389 1.501527184354563 1.079103719165842  1.446496334361784 1.576916898109981 0.9999011565184717  1.436785647570289 1.42583732434338 1.05245662968972  1.562787209857176 1.460840817568151 1.028956807826405  1.453903890359362 1.535047229161526 0.9493835627533341  0.4057969753182139 2.504226173662519 0.7642662971990629  0.3981351659941509 2.39249710341981 0.8131219109212893  0.2765072819979336 2.397062930875575 0.8140900547890229  0.2755159856238301 2.357011214515496 0.7293756113255503  0.3958914917722223 2.354196046401598 0.7308456043424878  0.4043709637980051 2.469452774269271 0.6786042940644293  0.2746582468246514 2.315875764224877 0.644927486262093  0.3937742829492247 2.315592088013786 0.6487127790023046  0.4030637183165346 2.434496129023496 0.5931442388308386  0.2739231215640874 2.274452720252231 0.5604295651048539  0.3917762728111773 2.276913052710293 0.5666023218903886  0.4018003897900805 2.399534726683513 0.5077895935587047  0.2733049450674562 2.233122863274325 0.4757331652477492  0.3898859535191978 2.238318461167042 0.4843880046378625  0.4005089078185641 2.364713844009741 0.4224174816749042  0.2728136638270634 2.192118552428562 0.3907613543608416  0.3881379907048109 2.199892314795364 0.4020880340553368  0.3993232957901465 2.330097224168015 0.3369861515374815  0.2728874445444194 2.151380060152368 0.3057219985500378  0.3867832212127887 2.161566568318881 0.319802978947779  0.3985115170138381 2.295950824665224 0.2514664749216206  0.5273463156155457 2.014925014421527 0.6202774189544294  0.3998843862322738 1.920271856580262 0.6685092826470973  0.5196348523656155 1.907708604160147 0.6850632257995315  0.4015202927267613 1.963538443539634 0.7437973485113097  0.5292227586890047 2.055038576907417 0.6948488368089718  0.5180996705165962 1.865180967302026 0.6125605031316051  0.5255647236765923 1.974689253236958 0.5456390444970713  0.3984049008819209 1.876901997769885 0.593056457263041  0.5166740494174702 1.822348777478268 0.5400221521654861  0.5238856547399705 1.934213451832002 0.4709902417621201  0.3971198580580967 1.833391954817812 0.5174381447357508  0.894000350018836 2.317237423487414 0.8455004742818334  0.8971705018888438 2.284282069338842 0.773923263573862  0.9004558346156681 2.251803647552369 0.7021202766044645  0.9036768121171076 2.219524661344962 0.6302046103779155  0.9067427428988181 2.187297833504323 0.5582375527866912  0.9097640129270251 2.154954292649709 0
[...]
<PointData  Vectors="f_24"> 
<DataArray  type="Float64"  Name="f_24"  NumberOfComponents="3" format="ascii">5.3513010265297610e-02 -8.4954598299164824e-02 -1.1277343615874300e-01  5.3235291424467805e-02 -8.0145828469064317e-02 -1.0360341437728862e-01  5.2997849070400352e-02 -8.2705299893296252e-02 -1.0674665543858886e-01  5.1786332143897315e-02 -7.7820099889834807e-02 -1.0909336479154487e-01  5.2167353469069692e-02 -7.5035414874632889e-02 -1.0577365013863731e-01  5.2245207890471219e-02 -8.1147107099808602e-02 -1.1479449131768030e-01  5.0755382141626747e-02 -7.2956921845350561e-02 -1.1093850860354336e-01  5.1261472073509083e-02 -6.9958444849062537e-02 -1.0752232298327831e-01  5.1171079135557712e-02 -7.7219345849560653e-02 -1.1635784377462106e-01  4.9781593392495965e-02 -6.8002173248026807e-02 -1.1244570560999616e-01  5.0422212987100465e-02 -6.4818867404513952e-02 -1.0897616502530826e-01  5.0168940480491642e-02 -7.3116746351677447e-02 -1.1760605786006871e-01  4.8775394043449258e-02 -6.2873413977056897e-02 -1.1372884445192215e-01  4.9573045906381563e-02 -5.9531547362386972e-02 -1.1023690242908331e-01  4.9144444330402881e-02 -6.8815944262269682e-02 -1.1863326982112077e-01  4.7659515707356104e-02 -5.7503304683186263e-02 -1.1487318119967695e-01  4.8647825312329043e-02 -5.4023818943158941e-02 -1.1138174334124214e-01  4.8016841010445337e-02 -6.4307245019182738e-02 -1.1950948127837427e-01  4.6360600969277008e-02 -5.1839830532850198e-02 -1.1594914773619554e-01  4.7588334257586601e-02 -4.8235014879960778e-02 -1.1249636708173698e-01  4.6704849287808235e-02 -5.9607249102233938e-02 -1.2026597129504214e-01  4.3868170981423357e-02 -6.3597938677306551e-02 -5.5804556523003125e-02  4.2079864464622051e-02 -6.2525622547251483e-02 -4.9181146899992353e-02  4.3540740986430577e-02 -7.1695977475789707e-02 -6.6013301334684596e-02  4.3935823005295215e-02 -5.4895382488125706e-02 -5.6252484902742872e-02  4.2365017374244487e-02 -5.3630488435918451e-02 -4.9018340697196301e-02  4.3669571626352648e-02 -6.2820143495910044e-02 -6.7502339411506795e-02  4.2681282784302874e-02 -4.5451501000365949e-02 -4.9181416836191899e-02  4.4070762711379531e-02 -4.6844600611423315e-02 -5.6889926296751832e-02  4.3842757234079786e-02 -5.4620762758278096e-02 -6.8920678923166945e-02  4.3049759463023286e-02 -3.7561153144370710e-02 -4.9630581160869547e-02  4.4238320885224738e-02 -3.9044967010424252e-02 -5.7696715936817695e-02  4.4037322141073913e-02 -4.6684587463943626e-02 -7.0342694978680564e-02  4.3472957759026133e-02 -2.9644012944893740e-02 -5.0357769134119837e-02  4.4446934537709128e-02 -3.1189673802095492e-02 -5.8698309216442271e-02  4.4256869855006334e-02 -3.8672057084542209e-02 -7.1845285024359717e-02  4.3962303915832911e-02 -2.1468273195621227e-02 -5.1371675943539641e-02  4.4706129795952496e-02 -2.3053140993715172e-02 -5.9935082657276970e-02  4.4507032344612785e-02 -3.0318153339414105e-02 -7.3510972070943287e-02  4.4532152581127527e-02 -1.2854914051126039e-02 -5.2696772008660291e-02  4.5029971960258326e-02 -1.4476906397833268e-02 -6.1461100639813235e-02  4.4798976791732587e-02 -2.1416192738941513e-02 -7.5437871761142028e-02  5.3523169248628231e-02 -8.0489718960222320e-02 -1.0517511974357445e-01  5.2568187181911245e-02 -7.5721411432157007e-02 -1.0724054106438755e-01  5.1759435142567652e-02 -7.0954747242309407e-02 -1.0889761252095585e-01  5.1025291495004760e-02 -6.6100419466959298e-02 -1.1027900294906483e-01  5.0293345553078760e-02 -6.1096713340199379e-02 -1.1147685569286916e-01  4.9499866936795166e-02 -5.5892413223526533e-02 -1.1255940622091201e-01  4.8584028766820282e-02 -5.0451614239016056e-02 -1.1357073520490059e-01  5.0707272975071466e-02 -7.3317638565106619e-02 -8.6140456310338398e-02  5.0992567249371477e-02 -7.9462631084997487e-02 -9.5470701990555421e-02  5.1962693843695389e-02 -7.9610082382532726e-02 -9.8289574612758779e-02  5.0924537167108284e-02 -7.3623317637077565e-02 -1.0077828009968241e-01  5.0088794332432809e-02 -7.3090591801855717e-02 -9.8118736729052164e-02  4.9936555567494594e-02 -6.6213082860054936e-02 -8.8201990541844522e-02  5.0036448483216853e-02 -6.7829944233488509e-02 -1.0277879739199394e-01  4.9289983653392946e-02 -6.6993060037968455e-02 -1.0027832760120960e-01  4.9269674501229155e-02 -5.9480654787676550e-02 -8.9924637989488465e-02  4.9191216525173456e-02 -6.2044706263296008e-02 -1.0446540388731514e-01  4.8520610639237453e-02 -6.0944562710980796e-02 -1.0212561713362235e-01  4.8642165347887761e-02 -5.2855057261912503e-02 -9.1446026325791116e-02  4.8316625769171173e-02 -5.6119136086710299e-02 -1.0596621366738566e-01  4.7712132668148270e-02 -5.4754253133422900e-02 -1.0379294634571037e-01  4.8007118429461135e-02 -4.6133937857993274e-02 -9.2880533393296869e-02  4.7348970711674043e-02 -4.9922462671622210e-02 -1.0738185796158059e-01  4.6805175002756487e-02 -4.8250402798459734e-02 -1.0539018691576728e-01  4.7330127620040054e-02 -3.9149330897664529e-02 -9.4333079465599073e-02  4.6232885646403786e-02 -4.3322659453349566e-02 -1.0878465076265266e-01  4.5765596106745347e-02 -4.1262146421641915e-02 -1.0704056808880584e-01  4.6593950264399671e-02 -3.1768806634644355e-02 -9.5918447121204869e-02  5.0586242861964142e-02 -5.1919071342771309e-02 -4.6444555824402871e-02  4.8636945434531245e-02 -4.7825576492806367e-02 -3.8600467655565830e-02  4.9838753303529257e-02 -5.4018843114100115e-02 -5.0125760550756564e-02  4.9679932624052056e-02 -4.6024784670000263e-02 -4.9554449443221286e-02  4.8628249345136036e-02 -4.0424458975259911e-02 -3.6761111578147661e-02  5.0362298641082603e-02 -4.3973025667673561e-02 -4.5313316995513268e-02  4.9496792667835972e-02 -3.8640053453975462e-02 -4.9227960049936660e-02  4.8514744017103380e-02 -3.3529636240145336e-02 -3.5526432730245389e-02  5.0087050724126593e-02 -3.6589509973490662e-02 -4.4599209996307947e-02  4.9308471388936563e-02 -3.1500571017456118e-02 -4.9196984405328929e-02  4.8377159182877327e-02 -2.6810819075072774e-02 -3.4745041354216161e-02  4.9804778856309594e-02 -2.9431759789170647e-02 -4.4226135491198477e-02  4.8278126008679000e-02 -2.0063467166658147e-02 -3.4325245932749091e-02  4.9561075236682434e-02 -2.2275601364478845e-02 -4.4161273073860828e-02  4.9151263007651921e-02 -2.4367348033301039e-02 -4.9434351393880110e-02  4.8259985030315110e-02 -1.3151045779860647e-02 -3.4218394830685936e-02  4.9394709294161204e-02 -1.4964849106641826e-02 -4.4366353411759138e-02  4.9050683446109952e-02 -1.7069281927172972e-02 -4.9924919219290438e-02  4.8364603780958401e-02 -5.9776168038171108e-03 -3.4392327744055234e-02  4.9338663646665962e-02 -7.4148519657680993e-03 -4.4815156751702709e-02  4.9043842474032311e-02 -9.4987402496365617e-03 -5.0671384754066420e-02  5.1456421687648399e-02 -7.2271959808325417e-02 -8.6626104247628427e-02  5.0681635325694481e-02 -6.5331467878698674e-02 -8.8567006103317233e-02  5.0004077596033404e-02 -5.8715869934686714e-02 -9.0187880702462919e-02  4.9372605414841515e-02 -5.2195521425310296e-02 -9.1620266771626574e-02  4.8741041702375296e-02 -4.5587534373983753e-02 -9.2971701226179551e-02  4.8073954731027005e-02 -3.8738481578428220e-02 -9.4333085877974399e-02  4.7354258897735577e-02 -3.1534624244598283e-02 -9.5822846595618641e-02  5.2480716612735866e-02 -7.7492188436655882e-02 -9.6940876641783372e-02  5.1506239733710713e-02 -7.1512040127861082e-02 -9.9175057487234777e-02  5.0660772608442178e-02 -6.5694602829673349e-02 -1.0098927872461740e-01  4.9871545262022095e-02 -5.9894771071966453e-02 -1.0252874569488028e-01  4.9073046963039643e-02 -5.3973453858102899e-02 -1.0390680626822545e-01  4.8209934752466738e-02 -4.7812278343477017e-02 -1.0521456962535573e-01  4.7227286252957516e-02 -4.1304891191891110e-02 -1.0653492773792402e-01  4.8219233586781957e-02 -7.8122258414593873e-02 -1.1180508234418576e-01  4.8571630750416900e-02 -8.5895515716954432e-02 -1.2174728186553120e-01  4.7669579700797840e-02 -8.7448232288387523e-02 -1.2217283690602675e-01  4.9415993630026009e-02 -9.0260148108312843e-02 -1.1929282723388675e-01  4.8932030260892503e-02 -8.3629827265647758e-02 -1.0926158822461229e-01  4.7003373647401488e-02 -8.2771382691445322e-02 -1.2421188346958871e-01  4.7507264175503210e-02 -7.2575669121669822e-02 -1.1388618310325468e-01  4.7726197791253602e-02 -8.1394915362253781e-02 -1.2366107400833024e-01  4.6247261448364260e-02 -7.7785074654220729e-02 -1.2581424781072012e-01  4.6718843012817500e-02 -6.6787502857429681e-02 -1.1565387469603657e-01  4.6784657687595183e-02 -7.6607589528054326e-02 -1.2517673172170013e-01  4.5306489284491408e-02 -7.2289243475834528e-02 -1.2710025511193518e-01  4.5776442962413115e-02 -6.0560736517391293e-02 -1.1723577847710932e-01  4.5641171851565507e-02 -7.1373560401344030e-02 -1.2640888950607210e-01  4.4078615620822104e-02 -6.6069853585003571e-02 -1.2818811421088602e-01  4.4623495492517110e-02 -5.3705820734427076e-02 -1.1877324722673749e-01  4.4168587589906015e-02 -6.5489893497712753e-02 -1.2742307503164493e-01  4.8463667084855729e-02 -1.2742785841717851e-02 -2.8828581990327427e-02  4.8435571990074873e-02 -5.7785260760272635e-03 -2.8619478092098562e-02  4.4227563863174946e-02 -1.0151418519520618e-01 -1.3088718558049489e-01  4.6209655916448100e-02 -9.8312981318710635e-02 -1.3165658537093189e-01  4.5009299382070003e-02 -9.9255121509322697e-02 -1.2803145794433088e-01  4.7380881737579386e-02 -9.8495611905497188e-02 -1.3211782570132244e-01  4.3934832834746106e-02 -9.9596081042103324e-02 -1.2635500017068055e-01  4.3242318930880819e-02 -1.0192416814364719e-01 -1.2920777604179678e-01  4.4976321521224362e-02 -9.7786200429635817e-02 -1.3082053308928251e-01  4.2735960141907045e-02 -9.9615104547448124e-02 -1.2432104738888480e-01  4.2141951299906021e-02 -1.0203468913537266e-01 -1.2705693073050295e-01  4.3552897547612830e-02 -9.6914256579785085e-02 -1.2964355152270327e-01  4.1288436987656996e-02 -9.9204996036020829e-02 -1.2193069686453555e-01  4.0799534971085273e-02 -1.0183085334158569e-01 -1.2447238218578610e-01  4.1788263026767879e-02 -9.5682981318087237e-02 -1.2818375109522775e-01  5.3330802347956063e-02 -6.9028293977206695e-02 -7.8403163175128882e-02  5.3050700704387665e-02 -7.3366978212794490e-02 -8.8026335071948625e-02  5.2727816981514561e-02 -7.3895131042666054e-02 -8.7917049084824339e-02  5.3232697824276587e-02 -6.6656466806279693e-02 -9.0385272672014461e-02  5.3217313220272601e-02 -6.6464435345592029e-02 -9.0349815717314944e-02  5.3342755611874369e-02 -6.1239211272339771e-02 -8.0396741501319563e-02  5.3772019539395650e-02 -5.9967396573096861e-02 -9.2557770895029826e-02  5.3461378131194323e-02 -5.9932273768926257e-02 -9.2362595200214920e-02  5.3403078479899446e-02 -5.3979842095124804e-02 -8.2177042563853456e-02  5.4337490706727401e-02 -5.3487615952005158e-02 -9.4552635575630761e-02  5.3746782395367280e-02 -5.3539656706882877e-02 -9.4203377465284302e-02  5.3499675748782331e-02 -4.6937060741421233e-02 -8.3852168512106320e-02  5.4909618526775034e-02 -4.6924366911072247e-02 -9.6473604635824897e-02  5.4050126489073369e-02 -4.7067355050411284e-02 -9.5966699238938677e-02  5.3615653623001698e-02 -3.9840323980833731e-02 -8.5512925259182568e-02  5.5471856870558202e-02 -4.0014698790714884e-02 -9.8407412635824892e-02  5.4347705393677580e-02 -4.0317109143574739e-02 -9.7736485763119677e-02  5.3737696118572882e-02 -3.2462158833206314e-02 -8.7235410462202317e-02  5.6011256322837981e-02 -3.2506019188470472e-02 -1.0045647365386738e-01  5.4615025470181426e-02 -3.3129700449956404e-02 -9.9596393302268396e-02  5.3851103549667642e-02 -2.4600189135259975e-02 -8.9077472696327709e-02  5.3063961756590443e-02 -6.0846178323638055e-02 -1.1086500226616484e-01  5.3991870463226954e-02 -6.5704924501571532e-02 -1.1515021731158651e-01  5.2922139997132446e-02 -6.6797510412548985e-02 -1.1565244373975066e-01  5.3497234960812066e-02 -7.0036260566878880e-02 -1.1397179372858082e-01  5.2982688182905580e-02 -6.5738539074129909e-02 -1.0953082692806256e-01  5.2994729873248832e-02 -6.2520965764073094e-02 -1.1663121444455632e-01  5.3120802293621927e-02 -5.5756709805362466e-02 -1.1210835375977223e-01  5.4461823675057308e-02 -6.1175227010108420e-02 -1.1622714113521157e-01  5.2996740531976928e-02 -5.8084854333091733e-02 -1.1749206919017981e-01  5.3114920790245268e-02 -5.0420007095049992e-02 -1.1328497475921999e-01  5.4879263209101303e-02 -5.6436482082896158e-02 -1.1721570851646312e-01  5.3160201427514465e-02 -7.6178584367409874e-02 -9.6703463498904879e-02  5.2357364610150142e-02 -7.0353527775418936e-02 -9.8729694791060363e-02  5.1679163220170625e-02 -6.4660740141232562e-02 -1.0038865235140790e-01  5.1062648820732033e-02 -5.8961040194179734e-02 -1.0180987167737730e-01  5.0453586853966753e-02 -5.3142297664017041e-02 -1.0308852042014614e-01  4.9801406804461046e-02 -4.7110712473581784e-02 -1.0430285382661190e-01  4.9058054189117233e-02 -4.0819280768171227e-02 -1.0554393588893926e-01  5.0927373325174913e-02 -8.1025549194976912e-02 -1.0564596888950990e-01  5.2237175266136901e-02 -7.7532061140770575e-02 -9.7015616462899912e-02  5.1869434681642013e-02 -8.0512157252760938e-02 -1.0415121632959587e-01  5.2603059636263029e-02 -7.5447429208355732e-02 -1.0639399942405324e-01  5.2902531665365966e-02 -7.1401964069066765e-02 -9.9455959545563480e-02  5.2325003122056533e-02 -7.5737551718737056e-02 -1.0796829462475764e-01  5.3391748492005175e-02 -7.0501835738243590e-02 -1.0827321320157376e-01  5.3618079865580107e-02 -6.5579318135929252e-02 -1.0155151150753958e-01  5.3694798503762180e-02 -7.0737889015704283e-02 -1.0990472216797181e-01  5.4206803535557346e-02 -6.5544847082852895e-02 -1.0991545489315722e-01  5.4360858353829242e-02 -5.9851697851822164e-02 -1.0342189369712389e-01  5.5050890499126502e-02 -6.5750213422722859e-02 -1.1159239541051794e-01  5.5021703608672763e-02 -6.0452694745649953e-02 -1.1141753159255433e-01  5.5106053224813906e-02 -5.4014370674682052e-02 -1.0517524802735498e-01  5.6392367227778573e-02 -6.0609889851754209e-02 -1.1315297929309864e-01  5.5815108170090111e-02 -5.5111919779586911e-02 -1.1284763613994847e-01  5.5834693678117810e-02 -4.7879721532824542e-02 -1.0689495448514150e-01  5.7726454516645119e-02 -5.5168898447509468e-02 -1.1465962187298306e-01  5.6564401810920269e-02 -4.9399570060510503e-02 -1.1422545255627489e-01  5.6528001828565322e-02 -4.1238458694783396e-02 -1.0864600778107573e-01  5.9074233404037710e-02 -4.9266714724947203e-02 -1.1612194724164300e-01  4.9556506103744243e-02 -6.7179777442542971e-02 -7.4037897530615043e-02  4.9596921059197357e-02 -7.3614538171052679e-02 -8.4162227897079875e-02  4.8922744291050355e-02 -6.6224818372635066e-02 -8.6241567112055176e-02  4.9022539016901664e-02 -5.9372618944199269e-02 -7.5380235876318619e-02  4.8340415173080825e-02 -5.9244644453774441e-02 -8.7993125701683148e-02  4.8565209299942770e-02 -5.2052356643349861e-02 -7.6571982402068792e-02  4.7790229408437822e-02 -5.2382258658073048e-02 -8.9552389499091833e-02  4.8144475393435672e-02 -4.4924478746385547e-02 -7.7712509599440455e-02  4.7227733153647686e-02 -4.5406699222994666e-02 -9.1034976975375992e-02  4.7741130678047472e-02 -3.7754587475860690e-02 -7.8883725798765750e-02  4.6616245579696909e-02 -3.8133626454275399e-02 -9.2548377274176641e-02  4.7339070014128078e-02 -3.0357579593316742e-02 -8.0158911868655688e-02  4.5936137655144114e-02 -3.0435086619438990e-02 -9.4222675785379725e-02  4.6925924334364481e-02 -2.2581654837670728e-02 -8.1605358461845245e-02  5.3328460673939461e-02 -6.9449280309388434e-02 -7.8131987321844107e-02  5.3557607216082680e-02 -6.1336440129599185e-02 -8.0304198931673607e-02  5.3814443271233942e-02 -5.3918143870578111e-02 -8.2279274607545805e-02  5.4094961341497140e-02 -4.6783294145960663e-02 -8.4154231627147941e-02  5.4386293039103875e-02 -3.9580367929156535e-02 -8.6020778592849734e-02  5.4675105524446099e-02 -3.2010363938348926e-02 -8.7957730479281876e-02  5.4938933324910164e-02 -2.3790127760225904e-02 -8.9989552955058172e-02  5.0859284534078890e-02 -8.7657388548011209e-02 -1.0667917880518436e-01  4.9046039855225640e-02 -8.3175221303682670e-02 -9.4733860519834595e-02  4.9737304483682535e-02 -8.9304701695275740e-02 -1.0606730935629939e-01  4.8382574548364136e-02 -7.6374446474489752e-02 -9.7626193232157515e-02  4.9882248634545469e-02 -8.2230188495414316e-02 -1.0966148943875317e-01  4.7800334978891863e-02 -6.9911692559228439e-02 -1.0000283894488962e-01  4.9006615323280857e-02 -7.6931289295870980e-02 -1.1202380446603456e-01  4.7235113138915388e-02 -6.3521203961679318e-02 -1.0202919101501122e-01  4.8144851404731154e-02 -7.1575155062136492e-02 -1.1395010405314847e-01  4.6628448089370562e-02 -5.6963496847663636e-02 -1.0385085689317076e-01  4.7209236275171720e-02 -6.5993505482770248e-02 -1.1558400061079756e-01  4.5927162449264064e-02 -5.0019020881538014e-02 -1.0559352805548099e-01  4.6112077387537725e-02 -6.0028999960362164e-02 -1.1704567503491521e-01  4.5081839147057677e-02 -4.2471676837183996e-02 -1.0734524152394935e-01  4.4767865927737648e-02 -5.3542891983541840e-02 -1.1844544092069623e-01  5.1392707131654281e-02 -3.0395799085773792e-02 -4.7104285768035339e-02  5.0638320977571406e-02 -2.7297915282221082e-02 -3.5226806825396403e-02  5.2049808359722720e-02 -3.1043351713633361e-02 -4.8485911155692542e-02  5.2608623337643864e-02 -3.8697196233289703e-02 -4.8191261704667004e-02  5.0963422297035453e-02 -2.2938321462632336e-02 -4.7393916287137530e-02  5.0066214140441968e-02 -2.0162158599536271e-02 -3.4984088183247844e-02  5.1532938343409745e-02 -2.3409254238276365e-02 -4.9021592920273603e-02  5.0596463862326309e-02 -1.5305707176178712e-02 -4.7909937953105261e-02  4.9587853356412089e-02 -1.2868602417304451e-02 -3.5030754369388170e-02  5.1073827389937279e-02 -1.5567075193771162e-02 -4.9772608167305873e-02  5.0314173273490970e-02 -7.3782305832213180e-03 -4.8640730760997342e-02  4.9235329284944583e-02 -5.3130163745933948e-03 -3.5308907058552795e-02  5.0680449153315189e-02 -7.3534038309731823e-03 -5.0715059229890440e-02  5.1707261933832779e-02 -8.5334131522932011e-02 -1.0593650480886042e-01  5.1382753983027669e-02 -9.2384856812545713e-02 -1.1590649862872958e-01  5.2206429926772921e-02 -8.9972821953154883e-02 -1.1490698378406457e-01  5.0943904863553949e-02 -8.5869990427762999e-02 -1.1760728947745910e-01  5.0261280872854794e-02 -8.8206582506525272e-02 -1.1884589830833336e-01  5.0603981133617360e-02 -8.0016799161395355e-02 -1.0872098511564650e-01  4.9828134385486736e-02 -8.1710414788528307e-02 -1.1968974336193319e-01  4.9256942583988016e-02 -8.3987556665887531e-02 -1.2110189022600085e-01  4.9632362165389479e-02 -7.4789031326015221e-02 -1.1092155212538082e-01  4.8741714245161327e-02 -7.7385910768293570e-02 -1.2131936303440168e-01  4.8264253273716314e-02 -7.9607744201361214e-02 -1.2285976513527534e-01  4.8690660888244065e-02 -6.9501027683905037e-02 -1.1271536989123195e-01  4.7572025271874090e-02 -7.2810229875489366e-02 -1.2262917455999425e-01  4.7175517578746433e-02 -7.4951542459445034e-02 -1.2425778251307891e-01  4.7686568618925333e-02 -6.4011565434059156e-02 -1.1424601997118050e-01  4.6206946098143790e-02 -6.7908961806689982e-02 -1.2372194504383847e-01  4.5875633133352738e-02 -6.9906939360123085e-02 -1.2540593952603640e-01  4.6530197023506976e-02 -5.8192798158632764e-02 -1.1562942734208397e-01  4.4524285992907406e-02 -6.2618609611605633e-02 -1.2465862216446384e-01  4.4237290208943944e-02 -6.4373348947993458e-02 -1.2638344504970825e-01  4.5134132228389350e-02 -5.1930506795836551e-02 -1.1696220970261682e-01  5.2640353990946243e-02 -7.1760610784063164e-02 -8.7107552849229983e-02  5.1959134932582196e-02 -6.6863736241995375e-02 -7.6755087210175668e-02  5.2134681970986065e-02 -7.1970543011344090e-02 -8.6914340568467058e-02  5.1400626070712219e-02 -6.5158907149954134e-02 -8.8783376836566397e-02  5.1462587365209346e-02 -5.9431620114771301e-02 -7.8231962673656646e-02  5.1971973939210270e-02 -6.5013746205585810e-02 -8.8876247904028788e-02  5.0766029319742327e-02 -5.8639820869390041e-02 -9.0331070845377379e-02  5.1032703961287937e-02 -5.2427766743520829e-02 -7.9513488083208197e-02  5.1414421844063342e-02 -5.8519160430810478e-02 -9.0341586957200931e-02  5.0185753255972472e-