<?xml version="1.0"?>
<VTKFile type="UnstructuredGrid"  version="0.1"  >
<UnstructuredGrid>
<Piece  NumberOfPoints="986" NumberOfCells="4271">
<Points>
<DataArray  type="Float64"  NumberOfComponents="3"  format="ascii">1.801017227293424 1.239854170327382 3.30387334021089  1.666499497442357 1.181058729846336 3.228565552319791  1.662402925683746 1.292543891188933 3.337504052458977  1.673765618126753 1.230583013861255 3.183299116454844  1.795681012570272 1.19317891076193 3.350173627202408  1.659558618642207 1.131412815469047 3.273959798499915  1.655752942832333 1.246706092743224 3.384635203284983  1.790470656685324 1.14644154405486 3.396574108254896  1.652735586588676 1.081640578340563 3.319500773429234  1.649243394865026 1.200773152419008 3.431907278932852  1.785263198020852 1.099648221961123 3.443051269774795  1.64589130442134 1.031781540956966 3.365174943197604  1.642698055113796 1.154742768705411 3.479281717351436  1.638871790825146 0.9818537745834625 3.410942785990574  1.779922453017734 1.052783182679347 3.489584288467491  1.635983984168055 1.108608891277764 3.52673021501411  1.631589647914711 0.9318677420857395 3.456786438701871  1.774332927845649 1.005845739658477 3.536171505417685  1.629006274732332 1.062388413715976 3.574224726019928  1.172385935605329 1.170670877000794 2.905345123783204  1.271849439395478 1.174956311546243 2.973464673323903  1.18023292466334 1.232557268707721 3.038812381478023  1.165732663522265 1.174772031878601 3.071509572301723  1.254726696761689 1.115654816675656 3.002931065135053  1.15525607548159 1.109438733277689 2.930586268385722  1.151938330554966 1.116281270094662 3.104195701983873  1.238073336925504 1.05573301406014 3.032267133935827  1.138671316885248 1.047589816305495 2.955514927561357  1.138352532351596 1.057321335044054 3.137107759623058  1.221556397154211 0.995397371092731 3.061736026647288  1.122202713036928 0.9852790285018542 2.980528286379398  1.124551126598522 0.9980951454386839 3.170380361273938  1.204928437534281 0.9348238470391277 3.091480288163515  1.105580704640234 0.9226792131971665 3.00581103845043  1.110221675898035 0.9386383759090567 3.203906779182197  1.188002697624563 0.8741060088450991 3.121497408174275  1.08862903896784 0.8598994266924436 3.031432006441643  1.095156693015072 0.8790275479970618 3.237682918716423  1.1704895830192 0.8133061422657917 3.151712246620922  1.071009444133891 0.7970310107013453 3.057372222065397  0.7961937749918194 1.477248774704501 3.339444236141169  0.6731081704374737 1.413778907711354 3.238280228441699  0.6713304010515864 1.513421056137507 3.352103179805605  0.6825478930820645 1.466060601852684 3.194194565502567  0.6648348040654162 1.360760515479065 3.283048699476388  0.7876192395415281 1.428327408894728 3.38663185531048  0.6646129751220228 1.463970496707633 3.400851658865221  0.6566580568928158 1.306905234987894 3.328447405193906  1.638244017304601 0.9928302350018514 2.97968927883675  1.502333633397684 1.05249577850762 3.021445371123732  1.65435839789803 1.093132811403241 3.122898075569503  1.516748129128759 1.111531396133201 2.986713686716622  1.626472076539651 0.9323222279123783 3.014780014175114  1.488191213100017 0.99311148149533 3.056128678614226  1.646035053730907 1.038463161081098 3.164279356485928  1.474109248828635 0.9335150355269326 3.090918735960112  1.614737803818473 0.8716330051680996 3.049934647232845  1.637808040467981 0.9836659571352075 3.205762389705594  1.459965007975611 0.8737922748439684 3.125873615131454  1.286745977136369 1.086958188607365 2.757468878113427  1.395986083816539 1.082896059300845 2.863073018215926  1.289256374512996 1.120918791944385 2.878719788752428  1.270494390578224 1.058953520010066 2.903314570088726  1.376398192961301 1.020700276886789 2.888902314631355  1.265347853682901 1.023077771204127 2.773944353579074  1.244122514814403 0.9588114759641211 2.7899227430327  1.357012186883102 0.9580266690392925 2.914469953403314  1.252054802291811 0.9964219969520027 2.927626468902266  1.222874660258519 0.8942609243888213 2.80580396452046  1.33763998089659 0.8951126037590899 2.940065096603997  1.233643790355381 0.9335725884726367 2.951989535038719  1.201522806626513 0.8295192493074467 2.821798665794628  1.318179463518638 0.8320376505043345 2.96582395821567  1.215109789133948 0.8705193926276555 2.976551210067986  1.180013349519232 0.7646734985268326 2.838032487605521  1.298545809113206 0.7688828484729173 2.991813459717194  1.196312769206272 0.8073398296437484 3.001392402004728  1.158267098621772 0.699844408859239 2.854633844850459  1.278667023606723 0.705725832451539 3.018100799685278  1.177085167294428 0.7441203298128893 3.026539325597577  1.531970281855134 1.263602953579559 3.192798834920179  1.669401492717014 1.338317257291405 3.29055867394322  1.522508176276703 1.214278310423969 3.238046623903276  1.513473929544668 1.164675713235117 3.283472629148349  1.504554132291245 1.114912606499497 3.329097876518894  1.495553358164893 1.065021566140639 3.37490455049004  1.486307574816989 1.015014076178417 3.420853940818179  1.476713760363399 0.9649167323660324 3.4669417974438  1.172202451008214 1.127480651587068 2.781500017361628  1.153451271066647 1.063477345425582 2.798059431012324  1.135085626939196 0.9989288070939482 2.814067615563263  1.116765703642842 0.9340110085630203 2.830015357132446  1.098288682422198 0.8688509976841374 2.846123939664991  1.07951593528997 0.8035465183575506 2.862504660012583  1.060273144815015 0.7382247515245516 2.879284542880646  1.036081449490681 1.222281990555086 2.942837426191763  1.022140756920883 1.160764614550337 2.96871544789733  1.009066296418526 1.098319078310881 2.994376536474536  0.9961742595414551 1.035314683337766 3.020209418403755  0.9830842468126147 0.9719591241478682 3.046450929654814  0.9694362798068319 0.9083102809077368 3.073058284414779  0.9548254038871711 0.844371193236198 3.099992133451416  0.6490735723838692 1.289625019633357 2.905879784811626  0.6758294360182188 1.256341444520624 2.816185972298205  0.7797093697677291 1.277231763641497 2.937667937376496  0.7673265756539369 1.214473200879135 2.964973304307994  0.6656740377279082 1.189449208932941 2.835268664969684  0.6387078356063741 1.224498380400067 2.931755754442487  0.7559883909303988 1.150674837223758 2.992229292349619  0.6565107261026679 1.121530554028664 2.853985889081917  0.6293832850860791 1.158390928313151 2.95759216757369  0.7449230395583013 1.086163105698395 3.019841939148093  0.6474596968289449 1.052776245127513 2.872988116693045  0.6202872794507041 1.091457137700967 2.983792168614884  0.7335836555912052 1.021064915480851 3.048012124321384  0.6381720527403786 0.983287612673666 2.892344143575147  0.6109724446272637 1.023784147636504 3.010520751402474  0.7214725314941223 0.9553120736354404 3.076646977129019  0.628344734711538 0.9131241076638522 2.912106741639244  0.6009510476720531 0.9552092699966745 3.037698607482866  0.7081847870632793 0.8889460673533383 3.105835885996824  0.6176156091608462 0.8422244027320136 2.932283673552643  0.5897748642990638 0.8855933603956068 3.065493158743963  1.495359642081493 0.9749951952533851 2.876240288398205  1.476622054677772 0.912234696688124 2.904861708889612  1.457864105420991 0.8492818828793789 2.933521012137318  1.439056392366691 0.786222839751338 2.962310075926135  1.540978795458869 1.352110464169165 3.283017482993901  1.533289039828529 1.306175269334058 3.330240113528058  1.526042762969174 1.26009030984392 3.377696901863168  1.518928641420863 1.213857119844534 3.425357851132511  1.511729624769811 1.167484812137227 3.473172648907029  1.504308505699308 1.120992407434671 3.521104821912972  1.49656389242596 1.074408399618375 3.569139890172541  0.5403977153891033 1.505194771260519 3.319913491684042  0.5342013542188093 1.452375285564713 3.367681406109696  0.5279840127625745 1.398757395698527 3.416054919120367  1.050455865240103 1.168892313541996 2.807486224506995  1.034344601790945 1.104782271764936 2.825354806727028  1.018841284119608 1.039983468511589 2.842666747051185  1.003405080395515 0.9747035688983916 2.859986180582521  0.9877706794470464 0.9090844185656158 2.877522324028039  0.9717226307964868 0.8432439020166315 2.89538486454699  0.9550354668392473 0.7773165235199224 2.913677926970816  1.514210999790892 1.037364388431739 2.847380302184158  1.420144493966311 0.7231356115891758 2.991299241804172  1.445677574310834 0.8140168976815445 3.161017463835732  1.401084967718234 0.6601071548548272 3.020563703102035  1.431117702663647 0.7542209556897475 3.196303852823607  0.5494394410031116 1.28219802596427 2.836981305315341  0.5412570544575277 1.214584022829172 2.859561813607384  0.5340793227636405 1.145842984183235 2.88220018370462  0.5270259213992756 1.07621336311553 2.905153456092695  0.5197832783000711 1.005686368764735 2.928448872843575  0.5120982346254184 0.9341638271336121 2.952076181134532  0.5035291497475906 0.8613780634437921 2.976163967105585  0.548942844589221 1.244761493340314 2.711438342737354  0.5425549433298897 1.174232903853278 2.725296047309754  0.5369542379088409 1.102824901884726 2.739029779056144  0.5313201437898907 1.030693286753529 2.753035586943176  0.5254204680819219 0.9577598800437219 2.767201092782225  0.519007565998501 0.8839345651877524 2.781507503930507  0.5119450526453261 0.809026124989115 2.795994654740556  1.048270621048583 1.129972740848121 2.55755577397371  1.054831053723138 1.12720904357844 2.429158330535988  1.155430473753206 1.094612100618359 2.527103438546151  1.133293880402022 1.029680896930252 2.52955064555073  1.036025700979586 1.06179023369951 2.4262810395489  1.029575227672266 1.064316952946096 2.560321117475585  1.111302845582198 0.9646298492666225 2.531214677296662  1.017616458789072 0.9962822438485968 2.422534748124882  1.011254960384294 0.9983956628016863 2.562229518774654  1.089202327607151 0.8994719770736057 2.532650561667712  0.999151765600278 0.9306962737075439 2.418523569257556  0.9928811047009742 0.9322755658298213 2.56391618112737  1.066963668864303 0.8341977146872206 2.534090434438818  0.9804201658846469 0.86506
[...]
<PointData  Vectors="f_24"> 
<DataArray  type="Float64"  Name="f_24"  NumberOfComponents="3" format="ascii">2.8001261938716607e-02 -5.9241396407996487e-03 -1.7822421685110622e-02  2.8926998487889620e-02 -2.9483630774938853e-03 -2.3273518668183456e-02  2.9422445296982569e-02 -7.5191405897842090e-04 -2.0349498900306694e-02  3.1402238031347847e-02 -4.1472564602493449e-03 -2.2156886125396721e-02  2.5692497460641086e-02 -4.7845825320293727e-03 -1.8454592117047953e-02  2.6610973543802728e-02 -1.7402310996884659e-03 -2.4062948499600233e-02  2.7292747274249046e-02 3.2196765744127361e-04 -2.1150867564762428e-02  2.3457696996764824e-02 -3.6389472765575737e-03 -1.8995840470636662e-02  2.4342162957076249e-02 -6.0249749599873136e-04 -2.4669403476761272e-02  2.5218989722887684e-02 1.3830925133069241e-03 -2.1839463630544426e-02  2.1217359710841901e-02 -2.5468865906475668e-03 -1.9511341706841500e-02  2.2043687608835360e-02 4.0871890795769386e-04 -2.5203071390094214e-02  2.3133138215953704e-02 2.3754765543777877e-03 -2.2483404040268370e-02  1.9643859479313925e-02 1.2466722190591091e-03 -2.5766768864112985e-02  1.8901116697543099e-02 -1.5457084842099907e-03 -2.0090157698089962e-02  2.0971446885567745e-02 3.2607243992274449e-03 -2.3156598288218987e-02  1.7081150460392415e-02 1.8471649488412667e-03 -2.6434713025223499e-02  1.6431990992131270e-02 -6.8828237936078434e-04 -2.0837526237770448e-02  1.8659770764017120e-02 4.0045230179758737e-03 -2.3953495232188073e-02  3.6924247405580694e-02 6.7155255754799861e-04 -4.5082547523981546e-02  3.5512571931045379e-02 9.8377275205038610e-04 -3.9976555535242785e-02  3.6674923508656011e-02 4.8285986882314023e-03 -3.9861602168857514e-02  3.5124826053597374e-02 7.0590511537423723e-03 -4.0662517552814186e-02  3.4068527338552979e-02 3.4090027386192981e-03 -4.0544533395251478e-02  3.5701703422559766e-02 3.3417559497970774e-03 -4.5063023279103560e-02  3.3481629031675564e-02 8.8948764154086410e-03 -4.1101407257518319e-02  3.2505546157680545e-02 5.4462224054042125e-03 -4.0771032590009366e-02  3.4328458429935288e-02 5.5543955810318972e-03 -4.4745315272191430e-02  3.1738246086989483e-02 1.0421761287420327e-02 -4.1287826687031015e-02  3.0828534682003871e-02 7.1434926223568783e-03 -4.0748740701476258e-02  3.2815008321367176e-02 7.3781537019948027e-03 -4.4232448896340544e-02  2.9886634167453907e-02 1.1667425235582805e-02 -4.1313992700457443e-02  2.9028165840543192e-02 8.5327052767991511e-03 -4.0560443487519922e-02  3.1170576476410181e-02 8.8627715879641220e-03 -4.3574326352833585e-02  2.7915585235088979e-02 1.2631809495554662e-02 -4.1252302831165176e-02  2.7092307667224192e-02 9.6286826060343472e-03 -4.0271132958496762e-02  2.9396126412793457e-02 1.0032008021672739e-02 -4.2813254031572788e-02  2.5803612127596673e-02 1.3295157059555597e-02 -4.1145972396508412e-02  2.4998925626700585e-02 1.0441090875376650e-02 -3.9935739529413941e-02  2.7485921697219813e-02 1.0887333387423098e-02 -4.1980285845538458e-02  4.0449372544597233e-02 2.0340728177990319e-02 -3.7419229067511182e-02  4.2507385033363244e-02 2.0934538749161839e-02 -4.3721176132072583e-02  4.2269038316167795e-02 2.3152640581910501e-02 -3.8892789971463809e-02  4.4310251793163911e-02 1.9651126026240234e-02 -4.2241152849878713e-02  4.0587729946827550e-02 2.2088937492696036e-02 -4.4859647579233608e-02  3.8670205891562455e-02 2.1084578157878259e-02 -3.8844893588166368e-02  4.0384059203335571e-02 2.3757080989471012e-02 -4.0377605655109679e-02  3.8579185706749217e-02 2.3058579872416423e-02 -4.5774108344255708e-02  2.8915465512138739e-02 -6.1500191106941644e-03 -3.1124029379901167e-02  3.0559156786392431e-02 -1.8084489758128329e-03 -3.3646305953458237e-02  2.8833513185247999e-02 -4.2907158624219399e-03 -2.6628143262369865e-02  3.2504789920079193e-02 -3.9764806790402825e-03 -3.2761153716582961e-02  2.6737688239000443e-02 -4.3233520660610862e-03 -3.1438048385316199e-02  2.8589788083476300e-02 4.5645853924637958e-05 -3.4105414189166017e-02  2.6496401856032373e-02 -2.8615619041869492e-03 -2.7353646759995555e-02  2.6542063961190330e-02 1.6104804105503954e-03 -3.4281394996595223e-02  2.4507056073074813e-02 -2.8058303478333798e-03 -3.1464879653488480e-02  2.4170432976747747e-02 -1.5894590396882337e-03 -2.7807046832818403e-02  2.4390790656770168e-02 2.8911410045072711e-03 -3.4300386341491282e-02  3.5568974324985049e-02 -6.7960941230972077e-03 -4.7575807542774164e-02  3.3895193464669612e-02 -4.7899547776094516e-03 -4.0443438888036615e-02  3.5243030428714073e-02 -2.2949258872170144e-03 -4.3034402813077320e-02  3.4040397808656433e-02 4.5047010022590924e-04 -4.2960055499239841e-02  3.2611938184273666e-02 -2.0742229848363086e-03 -4.0537004556541106e-02  3.4744420663324262e-02 -3.9631660205844792e-03 -4.6636385636664494e-02  3.3699519543701990e-02 -1.6364417982339039e-03 -4.5568604518277170e-02  3.1136384548831903e-02 1.5808581585804719e-04 -4.0271988511505347e-02  3.2646859092517716e-02 2.6451796820327685e-03 -4.2617233113159014e-02  3.2465340305931865e-02 2.6555064227730765e-04 -4.4343316530189913e-02  2.9503957104076974e-02 1.9985519301574748e-03 -3.9777792492656991e-02  3.1106103347274948e-02 4.4633639694812675e-03 -4.2071706705154581e-02  3.1068341938003594e-02 1.7992605272135536e-03 -4.2986706796166459e-02  2.7723170487251144e-02 3.4957649422047549e-03 -3.9139446492829570e-02  2.9418253886895430e-02 5.9451860191159778e-03 -4.1381757139806401e-02  2.9512981143915453e-02 3.0061546770017026e-03 -4.1529541109707767e-02  2.5786642855159390e-02 4.6844361710617821e-03 -3.8421910256016129e-02  2.7576713455459315e-02 7.1146885367008826e-03 -4.0597711098647668e-02  2.7775496498921776e-02 3.8968882073864004e-03 -3.9998998003771456e-02  2.3673385368639839e-02 5.5808850926600366e-03 -3.7674943461435462e-02  2.5570460072369863e-02 7.9958293407476899e-03 -3.9759633391049744e-02  3.2741918772417861e-02 2.3838055683947002e-04 -2.5415102050648397e-02  3.1689368715013252e-02 -1.7650294034097329e-03 -1.9371913993933784e-02  3.0500777872356326e-02 1.5092660796290325e-03 -2.6714838237936987e-02  2.8351751959450514e-02 2.7519915173284722e-03 -2.7621498392989729e-02  2.6226853228010084e-02 3.8891280640748079e-03 -2.8312748150213757e-02  2.4054481190972889e-02 4.8713960089127846e-03 -2.8909991157285115e-02  2.1775264174476866e-02 5.6564403349143111e-03 -2.9507824257239593e-02  1.9336972113029014e-02 6.1978867028236739e-03 -3.0182659047600313e-02  3.7093073295640280e-02 -3.9945448028732913e-03 -4.9846080142983522e-02  3.6204194701371234e-02 -1.2143361223696184e-03 -4.8873111926462036e-02  3.5122247806297684e-02 1.0564937058399095e-03 -4.7740774945250870e-02  3.3875125746426565e-02 2.9154086472064139e-03 -4.6462240836291843e-02  3.2481170778951657e-02 4.4166242784934810e-03 -4.5054158746889540e-02  3.0955765664968743e-02 5.5861117085436087e-03 -4.3535858311182972e-02  2.9311032923406272e-02 6.4288751432116749e-03 -4.1924057246205675e-02  3.8785215053879593e-02 4.4614925317797757e-03 -4.6946274172786517e-02  3.7493520510021534e-02 7.0509481734108894e-03 -4.6979332247936906e-02  3.6057018997124400e-02 9.1496555408269020e-03 -4.6750913075845314e-02  3.4480080478086303e-02 1.0871322955244239e-02 -4.6302750619111731e-02  3.2787519909045396e-02 1.2265847550338278e-02 -4.5692159323319353e-02  3.1000567480665032e-02 1.3348757432929667e-02 -4.4965918597436004e-02  2.9146551900104348e-02 1.4110566398926489e-02 -4.4151213551422520e-02  4.5310307114479864e-02 1.0397499792171980e-02 -5.5944852544280575e-02  4.5037324832087361e-02 5.6080035994263778e-03 -5.9303332588063390e-02  4.2815855210465263e-02 9.1226919471030093e-03 -5.2243669696760558e-02  4.1426029590980434e-02 1.1764785171374208e-02 -5.2156128379608840e-02  4.3614984736225750e-02 8.4392406595539971e-03 -5.8033308148325635e-02  4.3696167236433832e-02 1.3100730759063043e-02 -5.5496534271085286e-02  3.9810348117141028e-02 1.3919557669159074e-02 -5.1757439835898866e-02  4.2004596838947833e-02 1.0745184891944507e-02 -5.6620299710067733e-02  4.1884340401772864e-02 1.5296482186738250e-02 -5.4804465461394281e-02  3.8049774380385225e-02 1.5707170734351936e-02 -5.1132779017934893e-02  4.0259247877435622e-02 1.2645469515447733e-02 -5.5026246780643537e-02  3.9942012159115532e-02 1.7133164940483097e-02 -5.3890067117766609e-02  3.6196152542666331e-02 1.7178486629551081e-02 -5.0349811629212406e-02  3.8434546660683640e-02 1.4208529375835721e-02 -5.3270476232034653e-02  3.7921374202383104e-02 1.8658869465943712e-02 -5.2808946070824377e-02  3.4292066599984385e-02 1.8347061871472486e-02 -4.9456757803204687e-02  3.6585860618448499e-02 1.5471798137166150e-02 -5.1363815897257255e-02  3.5872119008340385e-02 1.9889848757813435e-02 -5.1599442342354161e-02  3.2374235095219750e-02 1.9202546510258503e-02 -4.8479279545735381e-02  3.4774438945259521e-02 1.6449808453595369e-02 -4.9301082931338842e-02  3.3846760541685478e-02 2.0830157415364804e-02 -5.0283110904131498e-02  3.0979251293215722e-02 -4.8390170281115809e-03 -3.7634587330315702e-02  2.9295112575515640e-02 -2.6051843917006198e-03 -3.7405796449634772e-02  2.7474370557065884e-02 -7.8104369799931951e-04 -3.6923557434833290e-02  2.5519026159246144e-02 6.9239597581494789e-04 -3.6315205821448024e-02  3.2928989557348909e-02 1.9203190582941373e-03 -2.2396156002553326e-02  3.0747206408109164e-02 2.9259071864366922e-03 -2.3559264719953222e-02  2.8694137301634601e-02 3.9539741585014167e-03 -2.4484592623949704e-02  2.6685600573017776e-02 4.9380835469505380e-03 -2.5259859295256697e-02  2.4652445182013021e-02 5.8248223925837488e-03 -2.5964224724949928e-02  2.2535120970098344e-02 6.5745222609398211e-03 -2.6675546177185327e-02  2.0273140201979411e-02 7.1473903817381437e-03 -2.7478938544218987e-02  4.4339504543545870e-02 2.5389752530637442e-02 -4.2553813871581657e-02  4.2248661623449202e-02 2.6066192185758282e-02 -4.4033395166624079e-02  4.0104842032614559e-02 2.6585877200804135e-02 -4.5331862127952580e-02  3.8830525447385113e-02 -1.0414332249299907e-03 -5.1911794897678200e-02  3.7826299049764617e-02 1.7617771204974954e-03 -5.0952910520671184e-02  3.6656663324671920e-02 4.0363161285929062e-03 -4.9798920486959102e-02  3.5338002367034715e-02 5.8944844162576908e-03 -4.8501694249464829e-02  3.3894471558586256e-02 7.3962882234466319e-03 -4.7075587576282489e-02  3.2349052962432241e-02 8.5694124924865171e-03 -4.5533079093985677e-02  3.0725241441311793e-02 9.4146459954110653e-03 -4.3884343326138914e-02  3.2500928686719575e-02 -7.5355612607609620e-03 -3.7357423574498068e-02  2.3418667912108081e-02 1.8561900585503763e-03 -3.5656828396495775e-02  2.2108116360154167e-02 3.8948467150146152e-03 -3.4256189881565952e-02  2.1156055245354202e-02 2.7445618545415308e-03 -3.5000472227014613e-02  1.9665591166384964e-02 4.6383276035285885e-03 -3.4212664448401084e-02  4.7470659304755740e-02 9.3477272252551671e-03 -6.0472227855480780e-02  4.5674678097135331e-02 1.2154183166966552e-02 -5.9409237235661473e-02  4.3703310567457729e-02 1.4468857986630213e-02 -5.8098202854831943e-02  4.1616253178023435e-02 1.6400280431072084e-02 -5.6589727770027194e-02  3.9466424789562464e-02 1.8008101980241501e-02 -5.4917380027353448e-02  3.7306178219101593e-02 1.9324277933626590e-02 -5.3096322313295072e-02  3.5196795092198627e-02 2.0369415602629341e-02 -5.1130253874589832e-02  4.7604622075785120e-02 2.7985521583884726e-03 -6.5769146013684929e-02  4.5943119922600778e-02 5.5899750007163051e-03 -6.3405444374395076e-02  4.4142546955450911e-02 7.8198467245416264e-03 -6.0930449757501545e-02  4.2250974155400314e-02 9.6607595989954918e-03 -5.8341521450783897e-02  4.0315814155828689e-02 1.1175805112256089e-02 -5.5614420241864033e-02  3.8388806984500534e-02 1.2405829366515431e-02 -5.2713646181892712e-02  3.6537058585658908e-02 1.3376233708830773e-02 -4.9599799494417035e-02  3.9561948425438920e-02 -1.3306839409777151e-02 -6.2383275577035623e-02  3.9914838485176130e-02 -2.0860406372865143e-02 -6.7932241319403605e-02  3.8088053273800271e-02 -1.5953453100284416e-02 -6.0648258201670219e-02  3.7815502791176424e-02 -1.3521771637651425e-02 -5.7705073488583405e-02  3.9680725556021104e-02 -1.8871742464296761e-02 -6.4138784486599376e-02  3.9130481269578757e-02 -1.0904148369168535e-02 -5.9426062273929880e-02  3.7289729816380422e-02 -1.1591045356095562e-02 -5.4830877421545902e-02  3.9220896101584246e-02 -1.7319759264586010e-02 -6.0449465484504077e-02  3.8470829334491571e-02 -8.9779898315276354e-03 -5.6548941994741565e-02  3.6568668772341918e-02 -1.0065051598519885e-02 -5.1941492281047837e-02  3.8592226768052677e-02 -1.6131510471029252e-02 -5.6805036427424398e-02  3.7651225215088457e-02 -7.4471440562361799e-03 -5.3656077443551033e-02  3.5702327243109920e-02 -8.8938497366290569e-03 -4.8999737819500157e-02  3.7851750399540654e-02 -1.5259404489484376e-02 -5.3141876232929493e-02  3.6711039218033203e-02 -6.2640781902283151e-03 -5.0692944250032269e-02  3.4724018088877630e-02 -8.0459344196376938e-03 -4.5975748635484773e-02  3.7048607577815272e-02 -1.4686519812559360e-02 -4.9404172272654090e-02  3.5689581458552860e-02 -5.4029238745339336e-03 -4.7619929442047897e-02  3.3645545982857676e-02 -7.5114614852415983e-03 -4.2850418046827751e-02  3.6240090663459491e-02 -1.4408897198387506e-02 -4.5549205383655755e-02  3.4626424278969337e-02 -4.8532614207634737e-03 -4.4402024949084636e-02  4.7354111907981181e-02 1.4549365028235081e-02 -5.5769323684265175e-02  4.5411267204103399e-02 1.7067120932036675e-02 -5.5767520197034737e-02  4.3300313384113491e-02 1.9190285703080727e-02 -5.5404587578920583e-02  4.1068096436157282e-02 2.0979337973721434e-02 -5.4802914020786769e-02  3.8767454258205276e-02 2.2471998481199261e-02 -5.4040465209007051e-02  3.6448651443093123e-02 2.3675672078504514e-02 -5.3175479923419242e-02  3.4165908011610756e-02 2.4583358440401295e-02 -5.2241139862987562e-02  3.7560719238772654e-02 -9.6895147705659095e-03 -5.5213407945766339e-02  3.6995648198568154e-02 -6.9750970756981175e-03 -5.3195662319553763e-02  3.6208090549475054e-02 -4.7810788577027884e-03 -5.1137526445932509e-02  3.5234679605494652e-02 -3.0095673990257594e-03 -4.9009488752168248e-02  3.4107841540231880e-02 -1.6042635069124487e-03 -4.6793209756447428e-02  3.2853390866828494e-02 -5.3420976899520346e-04 -4.4480648444486119e-02  3.1494006587221131e-02 2.0976978279926955e-04 -4.2065063712380772e-02  4.7543726093850186e-02 1.9174828064650696e-02 -5.1010514674330772e-02  4.4584896279921231e-02 1.6972403216861654e-02 -4.7066152882008883e-02  4.6735266171569319e-02 2.1994755843598581e-02 -4.5548776282092786e-02  4.4723231676871880e-02 2.3338410272790083e-02 -4.6929167116834244e-02  4.2831479032894845e-02 1.8851173730383804e-02 -4.8170421315814380e-02  4.5498431181905268e-02 2.1108497193033361e-02 -5.1866426096034535e-02  4.0914690216902277e-02 2.0474448578961385e-02 -4.8860099111610919e-02  4.3288855398797829e-02 2.2832664587203868e-02 -5.2340712763148486e-02  4.2590033545019064e-02 2.4542564798183477e-02 -4.8030227825688908e-02  3.8881412178636346e-02 2.1851258306509636e-02 -4.9290058864071881e-02  4.0971375503005163e-02 2.4294056429030091e-02 -5.2561499166706722e-02  4.0369550397760724e-02 2.5546871656865863e-02 -4.8907892032191577e-02  3.6771209076232887e-02 2.2975748731061025e-02 -4.9571733283831035e-02  3.8591103301801349e-02 2.5488010298005303e-02 -5.2637353878500097e-02  3.8091206006503495e-02 2.6329473309498020e-02 -4.9642373775778584e-02  3.4616177347180636e-02 2.3830260236340148e-02 -4.9783031040576992e-02  3.6182580518517714e-02 2.6407732911246078e-02 -5.2642128583395599e-02  3.5779146799403402e-02 2.6871569373384703e-02 -5.0301052650577320e-02  3.2454058308395102e-02 2.4386084942992704e-02 -4.9988377949083736e-02  3.3786536567993707e-02 2.7021844606670418e-02 -5.2642119839141077e-02  3.3460250603831627e-02 2.7147776473948958e-02 -5.0957340385340916e-02  2.7399127228464638e-02 -6.4291475327125421e-03 -3.4232353073540063e-02  2.5368206316677376e-02 -4.8188148888647997e-03 -3.3657025012253899e-02  3.4059388857168964e-02 -8.8696758317578350e-03 -4.4560442163855282e-02  3.3209582086298761e-02 -5.9378458801944726e-03 -4.3880793566834893e-02  3.2068125510302678e-02 -3.5572099684216094e-03 -4.2920839550466008e-02  3.0737728538874798e-02 -1.6190367628973119e-03 -4.1781762475320151e-02  2.9246675217038602e-02 -5.3285250224537781e-05 -4.0524693542870603e-02  2.7587045664579566e-02 1.1942076962118194e-03 -3.9192516020336889e-02  2.5712094639992293e-02 2.1675713432513285e-03 -3.7828286574492699e-02  4.2170953679511951e-02 -2.6762118987586288e-02 -7.5903325015853063e-02  4.1659856838091633e-02 -1.8612896812268930e-02 -6.9975138293767003e-02  4.1225073940842440e-02 -1.6615497593519733e-02 -6.6111874044648605e-02  4.1864291814735388e-02 -2.5398404881717570e-02 -7.1298107915219552e-02  4.0600102675902673e-02 -1.5045991189655276e-02 -6.2367351667285700e-02  4.1359445702476835e-02 -2.4431758996898530e-02 -6.6915238583501263e-02  3.9840652108673109e-02 -1.3824058651269348e-02 -5.8659326000958516e-02  4.0741132207048933e-02 -2.3749745156702237e-02 -6.2621890852857368e-02  3.8997699537356975e-02 -1.2906297824856418e-02 -5.4914627451505583e-02  4.0064041615346234e-02 -2.3312132477135695e-02 -5.8312148360016233e-02  3.8124075662273528e-02 -1.2276689975283564e-02 -5.1066235028607965e-02  3.9381976725399982e-02 -2.3113730985890431e-02 -5.3899701408583550e-02  3.7280645628267627e-02 -1.1921460915672061e-02 -4.7055634636918461e-02  3.8751397683048742e-02 -2.3173923594714489e-02 -4.9311327269201538e-02  5.0328653596839343e-02 6.7715433178261817e-03 -6.7305364420561078e-02  5.0357784217613125e-02 -1.2178185038185035e-03 -7.2825731791419379e-02  4.8421747698778661e-02 1.1765696947339890e-03 -6.9103844257636021e-02  4.8133492729768509e-02 9.6788270183637247e-03 -6.4914074493562637e-02  4.6411854137135111e-02 3.1231787617164693e-03 -6.5473905597451448e-02  4.5849113313449048e-02 1.2051315595332426e-02 -6.2393300408436915e-02  4.4372027134181452e-02 4.7040232325962781e-03 -6.1815389595631216e-02  4.3504777895400401e-02 1.4031338986266927e-02 -5.9782156550399534e-02  4.2333890849301593e-02 5.9735430642326075e-03 -5.8036220889270664e-02  4.1138160145090058e-02 1.5679810020832439e-02 -5.7057189682252492e-02  4.0333226875597122e-02 6.9796817496064461e-03 -5.4043783097544359e-02  3.8791348738635593e-02 1.7036480664388363e-02 -5.4173529149309264e-02  3.8405747868574300e-02 7.7620927709039136e-03 -4.9736640880154892e-02  3.6504458548149411e-02 1.8139092697340545e-02 -5.1078007890091030e-02  3.9161637702930990e-02 -6.8782221374607717e-03 -5.7180675756776350e-02  3.8467872227745635e-02 -4.1866736400544202e-03 -5.5139006151618944e-02  3.7582354552576525e-02 -2.0263400526693534e-03 -5.3088097228908886e-02  3.6532792527327378e-02 -2.8621926498617481e-04 -5.0957382406089428e-02  3.5357941529708496e-02 1.0948473915839069e-03 -4.8719579779843307e-02  3.4091905502264534e-02 2.1453867746521649e-03 -4.6359367862278240e-02  3.2768712737377463e-02 2.8694792063310810e-03 -4.3860546194804291e-02  4.0730180075070913e-02 1.3735930672097391e-03 -5.4399321271928668e-02  3.9627063462785148e-02 4.1792873680394221e-03 -5.3312655886842419e-02  3.8356013299910771e-02 6.4381637413402039e-03 -5.2080154861752125e-02  3.6943706607444435e-02 8.2738490708861214e-03 -5.0693843991017104e-02  3.5425829615356390e-02 9.7566827906282252e-03 -4.9167152646260648e-02  3.3836175566740512e-02 1.0918368341299554e-02 -4.7509502432309510e-02  3.2213709963672212e-02 1.1771024922535699e-02 -4.5720572222571983e-02  3.4269781771345216e-02 3.3867884278177374e-03 -2.9754101558744740e-02  3.3994734592048180e-02 4.5206556507487051e-03 -2.5546316119253658e-02  3.1913768226873675e-02 5.5982589037044533e-03 -2.6845186028490575e-02  3.2240780066773833e-02 4.8403333771492967e-03 -3.1116168830694454e-02  2.9926972386384729e-02 6.6415743976252330e-03 -2.7840964496285776e-02  3.0257160618325112e-02 6.1925382652219642e-03 -3.2048645947941927e-02  2.7958607189072105e-02 7.6040672229008314e-03 -2.8658392277219058e-02  2.8255691461910391e-02 7.3774289923127919e-03 -3.2728122988713346e-02  2.5950959075568030e-02 8.4410819565706209e-03 -2.9385118196878675e-0