<?xml version="1.0"?>
<VTKFile type="UnstructuredGrid"  version="0.1"  >
<UnstructuredGrid>
<Piece  NumberOfPoints="1037" NumberOfCells="4434">
<Points>
<DataArray  type="Float64"  NumberOfComponents="3"  format="ascii">3.710602855333923 3.591900872320883 2.522454649014461  3.847216742783836 3.553277917526136 2.48324731517081  3.733321998334836 3.664907989624336 2.401655892815362  3.757780234843811 3.714604392595506 2.435434922933678  3.861619203402311 3.604383245620997 2.512112985363661  3.733349953375995 3.641187544805316 2.551985208261895  3.875825553650906 3.655708047689112 2.540928616043027  3.755832433565638 3.690787617122364 2.581443113389978  3.782001693718974 3.764817287112639 2.469208403969116  3.889982222225108 3.707387266866827 2.569834720247397  3.778327084317127 3.740781222731395 2.610993531240626  3.806178282513322 3.815400501050201 2.503108823817597  3.800992060617962 3.791014015086966 2.640782503180398  3.904231024422254 3.759398639693288 2.598958338267787  3.830578608775987 3.866159599841324 2.537324964388749  3.824118202888442 3.841412650856274 2.670966925969855  3.918724544591897 3.811644956321495 2.628455263196958  3.855497813797319 3.917019798287274 2.571980038481186  3.848183302881134 3.891708501330407 2.701648887792016  3.934020132049492 3.864057385208968 2.65865558979419  3.88141367283847 3.967630674415863 2.607146202813667  3.897232268390501 3.69926066703088 2.241340705762831  4.006969139521496 3.628408001933695 2.319281516115487  4.02671475096032 3.678257916265545 2.217980815697803  4.037776555931083 3.737580236879904 2.245297702382113  4.014318405254678 3.684113706373174 2.349496384701712  3.914213162068862 3.757636905325153 2.270622324728238  4.048697128422743 3.797420842207055 2.272418379915447  4.021503739452367 3.740204502465574 2.379630126830658  3.930949622169928 3.816540865048471 2.299695417834996  4.028692607421542 3.796692798393314 2.409878049689565  3.947730612096887 3.875799949150332 2.32887573227977  4.05964671593785 3.857708184583495 2.299688413581693  4.036046276783788 3.853482040932752 2.440453706299667  3.964731166201515 3.935308886408123 2.358385798845284  4.070744276358309 3.918290233098743 2.327254640797492  4.043705176747811 3.910544669864212 2.471516623162496  3.982154229364757 3.994981203933732 2.388324137848044  4.082153282367368 3.979151823053906 2.355266437525765  4.051874049995759 3.967838105006139 2.503337968848044  4.00031735081107 4.054637998205963 2.418797867641692  4.094240566345587 4.04016928464195 2.383922257625401  3.863487314698119 3.626602169004602 2.36172063727528  3.756141896580768 3.724591380880959 2.29961612933629  3.779151183127904 3.78088402492423 2.32987965172517  3.879433210037945 3.67812766040199 2.395291470779043  3.895199815003878 3.730210632575336 2.428916462958068  3.801876192162091 3.837804874164732 2.360066362520172  3.910895807029065 3.782669536016532 2.462606737351136  3.824646793474535 3.895031714120636 2.390428861873454  3.926729189436263 3.835392278480882 2.496555477772778  3.847676997348758 3.952421093464702 2.421122846894868  3.942884968137419 3.888325499223396 2.530919389316874  3.871168792496409 4.009848741292398 2.452210862860989  3.959979255962687 3.941247432627515 2.566007731447383  3.895342987972225 4.067123851915004 2.48363508417586  3.601224727394128 3.389638408675481 3.085429542839885  3.739062995774252 3.355942664720604 3.09730684992655  3.662164445399208 3.415764500337035 2.97030109104809  3.675702371104123 3.469804861352185 2.989082010126328  3.782031106214593 3.638088519479566 3.190653051110391  3.667682954403173 3.665312707710025 3.188329931906601  3.730044081412599 3.689676579809799 3.065155006201688  3.71616537985513 3.634114129539591 3.045936021856141  3.654151121383756 3.609458640285735 3.167528496077489  3.681569195507644 3.721648790118832 3.209219683699814  3.791068786481384 3.696135318272165 3.209590330425345  3.74438438210905 3.745814223144567 3.084541074496709  3.991192987125459 3.560176377940777 2.445757701768457  3.994829731007357 3.613474991849022 2.474670317400053  3.998346522369232 3.667208398750097 2.503643209149398  4.001844058198793 3.72122054215648 2.532725028676489  4.005460478285976 3.775539853827638 2.562084507454837  4.009350764853443 3.830260303070226 2.591963934457637  4.013484578234857 3.885676172454066 2.622809015342451  4.379849313025487 3.474087870777625 2.838994656499042  4.320890812049289 3.429259918882792 2.962956876071348  4.461613088261601 3.478571105109294 2.94463234010576  4.442191573645671 3.534067783391406 2.956456320779619  4.304760565752924 3.485239704169456 2.975371248724028  4.362670627960741 3.528813610111521 2.851670588406137  4.4229409884285 3.589898918150737 2.968569808944271  4.288758944640238 3.541514485615058 2.988061492746371  4.345631901801294 3.583821697699554 2.864550190588053  4.403672298484198 3.646036704250786 2.98077992076345  4.272712446778441 3.598154811428857 3.000831409293023  4.328570171019424 3.63915250766444 2.877543325966096  4.256499813239864 3.655154281848266 3.013601843397414  4.311333600994351 3.69482687877504 2.890589456987236  4.384219093338342 3.702520260559746 2.993000090901792  4.23993407267776 3.712573172589429 3.026299357770006  4.293759507938192 3.750900176503729 2.903613534955307  4.364422067235862 3.759303486182319 3.005120034523252  4.222844377307589 3.770397168343803 3.038829353538861  4.275632705698332 3.807386063501097 2.916492884641208  4.344082016852624 3.816424015544838 3.017038277467416  3.683418267517948 3.536409471089685 2.650079001130722  3.793260659963653 3.45299238984646 2.745541595578729  3.821856626884927 3.500895784892903 2.612592942871498  3.836387039648487 3.55256400887754 2.635961242690248  3.806512496016447 3.505799357818955 2.764535328968933  3.703869805897922 3.586878012767854 2.675151036474702  3.850778892547047 3.604620200165328 2.659365732643325  3.819610489313734 3.558848751909094 2.783518479198764  3.724107647677049 3.637711947512571 2.700206902775942  3.865136703121389 3.656953334249251 2.682828666929109  3.832716065290832 3.612209866300037 2.802554196050676  3.744369244274623 3.688885032090099 2.725302730045293  3.879597242201852 3.709581017300745 2.70646473859308  3.845928301205495 3.6659109406293 2.82169902496794  3.764841827487002 3.740332939829047 2.750594423541158  3.894351835660022 3.762563965546728 2.730446694466839  3.859441426052417 3.720027976884446 2.841067437173391  3.785800949456469 3.792019212368809 2.776230369254208  3.873609169669098 3.774679294440123 2.860806510558412  3.807585401652242 3.843809216094686 2.802373646795522  3.909998530583028 3.816156244398503 2.755091030233784  4.032515499661257 3.750199489070811 2.024813612493419  4.147704584299852 3.756519151157611 1.915648405306001  4.027761386060519 3.782540773352445 1.879790888227526  4.039728593112522 3.855031763400065 1.887807408555983  4.157422576745126 3.826357218240573 1.927783992427194  4.04520913411296 3.817653500781204 2.042586187630265  4.05161188818591 3.927912859573696 1.895518057301826  4.167104708015963 3.896601456422579 1.939647783475289  4.057746712941446 3.885516860588972 2.060048487100678  4.063524985387202 4.001092582105374 1.903157768867726  4.176859007725591 3.967162233541333 1.951482868427916  4.070373680963222 3.953749859055244 2.077556220245948  4.075568893276938 4.07447666388137 1.910893055542759  4.186755748655914 4.037988570497451 1.963433662471284  4.083168974931267 4.022257472863584 2.095251112201525  4.08784039684008 4.148011989137915 1.918836817542593  4.196876503150061 4.109015251953236 1.975635055607045  4.096258980592634 4.090951073739102 2.11325558907639  4.10040894525589 4.221641210157526 1.92707611788337  4.20734631766268 4.180176422905207 1.988217356733265  4.109793912734002 4.159715776861488 2.131686248578795  3.717078260815609 3.669912883173168 3.347423799767489  4.383599775742183 3.422784588454779 3.082040948295727  4.364682309063045 3.479775329376852 3.094210964999828  4.345979330709743 3.537034905019466 3.106712893417153  4.327245538519272 3.59464745157179 3.119314861327044  4.308341874346548 3.652582683391583 3.131890867450804  4.289108020003915 3.710817465911178 3.144327889177266  4.269362274528421 3.769286139260463 3.156511730736664  4.261039259623369 3.631647364327113 2.294342698335235  4.351250640812724 3.672382615583097 2.189201954758964  4.228645933706924 3.684727510185599 2.152324760741233  4.230699947518855 3.747048924971992 2.173272769936378  4.349347218296518 3.733407438468626 2.20829531625184  4.258170935220338 3.690309284546514 2.316455989865495  4.232715442238387 3.80981377150995 2.194039730836598  4.347484575094983 3.794863127576503 2.227270932546018  4.25531242029566 3.749304126226702 2.338475517657535  4.234840835424182 3.872962055946826 2.214902472928123  4.345701822029868 3.856723698956895 2.246363090701289  4.252497383722257 3.808688876811672 2.360627215424602  4.237099874167188 3.936456131178875 2.236002523304342  4.344002484887447 3.918941715906579 2.265656504588507  4.249751560235072 3.868428851494922 2.383045543387188  4.239548210673824 4.000264100253905 2.257474289496807  4.342364879534931 3.981519553220204 2.285268424075616  4.247073276400323 3.928556587825209 2.405845814103006  4.242222641630756 4.064359436028644 2.279522455374976  4.340777534071326 4.044494424456063 2.305400340816242  4.244418389612576 3.989168447077158 2.429243355631361  3.440518031842536 3.895490105062311 2.097041909318316  3.517686720162485 3.83837158348426 2.249628066161571  3.557211426267371 3.862622668756731 2.105172343210145  3.577471580906989 3.932300214384088 2.121132251722707  3.540570466831999 3.9034556902278 2.270138469820083  3.45903326085027 3.96734919039476 2.108693556881911  3.597396646864176 4.002326451313481 2.13689507957544  3.563074426496447 3.968935839181432 2.290475565005275  3.477227870540579 4.039374363655999 2.120185853244946  3.617242200549041 4.072569519367192 2.152647999821647  3.585521768333547 4.034636049842231 2.310894631134071  3.495300286012408 4.111508549172019 2.131
[...]
<PointData  Vectors="f_24"> 
<DataArray  type="Float64"  Name="f_24"  NumberOfComponents="3" format="ascii">1.5445872634040761e-04 2.2077314343439524e-03 9.9609773061733208e-04  1.5384120203421178e-04 2.2295745927920149e-03 1.0229518200961418e-03  1.3485218329348610e-04 2.0984352234905334e-03 9.6639860389773687e-04  1.2414300972770818e-04 2.1536792251107906e-03 9.2979409147356869e-04  1.3917805065543783e-04 2.2712987018952868e-03 9.9835764983199904e-04  1.4497988735569643e-04 2.2504586456395309e-03 9.7447909650648433e-04  1.2239874369690824e-04 2.3102987354015865e-03 9.7320967311003922e-04  1.3099182339717432e-04 2.2896319149551233e-03 9.5137761706114686e-04  1.0769125296610870e-04 2.2039709319433671e-03 8.9074061095185454e-04  1.0390473773348293e-04 2.3454930539311314e-03 9.4624881612533171e-04  1.1345199257376376e-04 2.3248223970961470e-03 9.2593024604299017e-04  8.7545631847663101e-05 2.2494983821729434e-03 8.4911689403951735e-04  9.2808353448833091e-05 2.3555887241647634e-03 8.9652004560393376e-04  8.3464726864352303e-05 2.3760911910647806e-03 9.1564874073420848e-04  6.4681486766675469e-05 2.2911014283281111e-03 8.0322383026250961e-04  6.9208877770616980e-05 2.3825078136883180e-03 8.6027280223684686e-04  6.0751000935524514e-05 2.4022468273177814e-03 8.7904155279678003e-04  3.9371239648892249e-05 2.3305146066170284e-03 7.5028724244652334e-04  4.2395055076138952e-05 2.4070529943489693e-03 8.1185107228557937e-04  3.5604404090499384e-05 2.4254011230297311e-03 8.3133900448575601e-04  1.2348545896707874e-05 2.3716964579505863e-03 6.8670594284697749e-04  1.1681896034060517e-04 1.9677512461984759e-03 9.5190083571406890e-04  1.3150166155252808e-04 2.1256724230946447e-03 1.0146261509662241e-03  1.1590302965510014e-04 1.9950053426725364e-03 9.8308299762512349e-04  9.0781503497565374e-05 2.0509038420330342e-03 9.1208222347214990e-04  1.0728205763749568e-04 2.1782770311603427e-03 9.6408071898774258e-04  9.6014115762304249e-05 2.0258393619142449e-03 8.8553724248145087e-04  6.5769365187817445e-05 2.0994234222664857e-03 8.4082370606796645e-04  8.4206247071568865e-05 2.2247235582317022e-03 9.1211793712959923e-04  7.3007822142058819e-05 2.0766598612558867e-03 8.1779380749456843e-04  6.1336512590165623e-05 2.2655836201422182e-03 8.5781203900464414e-04  4.8418872429135739e-05 2.1223416440216340e-03 7.4755109217211038e-04  4.0678509207621516e-05 2.1423035346415193e-03 7.6774073658323597e-04  3.7890392034599985e-05 2.3017966627130074e-03 7.9923883844680913e-04  2.2235600133281713e-05 2.1647395882962669e-03 6.7287675277094387e-04  1.4955290462592067e-05 2.1810939453756257e-03 6.9050816089985046e-04  1.3020912640768773e-05 2.3350819749847914e-03 7.3369653337391507e-04  -5.7439131232097749e-06 2.2059769262780353e-03 5.9158794471356419e-04  -1.2337276666851451e-05 2.2178976226443292e-03 6.0646356512183812e-04  -1.4399579421843039e-05 2.3690092094730622e-03 6.5757014876963963e-04  -3.5432475573882252e-05 2.2494446979899143e-03 5.0207356883096997e-04  -4.2232473030848146e-05 2.2562167740320135e-03 5.1290099501131818e-04  1.3713154684727951e-04 2.1116813472738154e-03 9.9912975697213631e-04  1.1781723936002732e-04 1.9804218702463216e-03 9.2399462106010593e-04  1.0210102495698593e-04 2.0385664335468125e-03 8.6492709706942968e-04  1.2131405084509673e-04 2.1656315982582558e-03 9.5990051599852935e-04  1.0286800042026202e-04 2.2164347050609582e-03 9.1828872808390888e-04  8.1282322374558633e-05 2.0892534022952480e-03 8.0361054614709040e-04  8.2345821766084852e-05 2.2621129612349043e-03 8.7444990964316756e-04  5.7304446843519853e-05 2.1350256322230400e-03 7.3957997962713958e-04  5.9939998139643241e-05 2.3030868770410307e-03 8.2683092342028639e-04  3.0894425088661448e-05 2.1779776186773765e-03 6.7095830720060635e-04  3.5674038079735638e-05 2.3408423456495078e-03 7.7270357204492761e-04  2.3982534087501459e-06 2.2200970493776563e-03 5.9592951900665691e-04  9.9921149335516847e-06 2.3795345136460549e-03 7.0783730513836011e-04  -2.7606272042515552e-05 2.2636537546658888e-03 5.1388029376637741e-04  1.6984880183285974e-04 2.2332516973633705e-03 8.5222853930292438e-04  1.4502804421189644e-04 2.2515785491993017e-03 8.3248824656239294e-04  1.6724085665560900e-04 2.3059822131816358e-03 9.0326210898960895e-04  1.5956951362242644e-04 2.3208138420829421e-03 9.3635727307919974e-04  8.5878931247719353e-05 2.2141344199261160e-03 1.0784228015911490e-03  1.0091904264783954e-04 2.1985036063910846e-03 1.0656682928579077e-03  9.6702970392616207e-05 2.3147090320822985e-03 1.0463269097751350e-03  1.1685915513314633e-04 2.3278664753645381e-03 1.0217462581246541e-03  1.2032967197227706e-04 2.2205231906754835e-03 1.0268443813197948e-03  7.9379327238306453e-05 2.1649026888695263e-03 1.1063937079254728e-03  6.9637747644004538e-05 2.1804026590073093e-03 1.1278981771793799e-03  7.3854833057254338e-05 2.2905683419539454e-03 1.0707281919209953e-03  1.4727280075182294e-04 2.2596149095226864e-03 1.0364098748293861e-03  1.2373253481611911e-04 2.3018108949407930e-03 1.0063436142469604e-03  1.0224482586053121e-04 2.3389089501527870e-03 9.7459864089489870e-04  8.1486823826333349e-05 2.3710269354762941e-03 9.4057576809810479e-04  6.0325252300671555e-05 2.3980806606359226e-03 9.0250621105626477e-04  3.7606849493661340e-05 2.4207235420514389e-03 8.5738407039861076e-04  1.1789838605786553e-05 2.4412359358506517e-03 8.0085558449094127e-04  5.5888015245777708e-05 2.5611342696005767e-03 9.6576400401251041e-04  6.3691388734167032e-05 2.4811895795921772e-03 9.0641703078676438e-04  2.1055696532306077e-05 2.5325840705512624e-03 9.2309640467911974e-04  -2.2736451071023902e-06 2.5420811087413617e-03 9.6570301278248530e-04  4.0682164460929333e-05 2.4906062413043049e-03 9.4913731689357872e-04  2.8625899947249763e-05 2.5745440977541084e-03 9.8996291470623355e-04  -1.9861230406404884e-05 2.5447041277116928e-03 1.0050552373403270e-03  2.2269655844933215e-05 2.4938349023198780e-03 9.8928322929160359e-04  7.4030179136010319e-06 2.5818161764873632e-03 1.0120326559949276e-03  -3.2771111386090579e-05 2.5396934112366393e-03 1.0424595688921594e-03  7.7371258654436277e-06 2.4902917265363905e-03 1.0278942380143547e-03  -9.2849295190151567e-06 2.5820208122956470e-03 1.0322663106537089e-03  -3.6522024291134526e-06 2.4787345652192531e-03 1.0661230510462371e-03  -2.2457837118450234e-05 2.5739735427417715e-03 1.0510309745542694e-03  -4.1700179875905048e-05 2.5261118241138459e-03 1.0793526985783850e-03  -1.2502299623897157e-05 2.4576257509052184e-03 1.1054347689894177e-03  -3.2769667033795566e-05 2.5556889018978571e-03 1.0689887987717650e-03  -4.7087816996474242e-05 2.5026638231528254e-03 1.1173439784408626e-03  -1.9349172236668044e-05 2.4250868955267716e-03 1.1475186668490941e-03  -4.0533917669232161e-05 2.5242767553780277e-03 1.0874663047097069e-03  -4.8701196930800728e-05 2.4670689073512928e-03 1.1585971242935500e-03  1.6754061796041413e-04 2.2841689962532137e-03 9.9426756690353503e-04  1.6254521175658752e-04 2.3559427882755973e-03 9.8259473285366907e-04  1.6070533638159885e-04 2.3142936509791133e-03 1.0139340307291815e-03  1.4801379535590704e-04 2.3467523886643114e-03 1.0030481115722485e-03  1.5207423224267890e-04 2.3809634756354740e-03 9.8729492270624290e-04  1.5877169151498971e-04 2.3173512015714037e-03 9.8613935368257371e-04  1.3282193422897815e-04 2.3759470391958993e-03 9.9211230073337100e-04  1.3872480362483861e-04 2.4026236349981925e-03 9.9156306114308364e-04  1.4593726369658481e-04 2.3461739876395123e-03 9.7704789135566396e-04  1.1541172073212238e-04 2.4011842229182886e-03 9.7957778923379890e-04  1.2299524616239611e-04 2.4198755207447682e-03 9.9442647679693990e-04  1.2961434999999482e-04 2.3706508341428266e-03 9.6578171576631013e-04  9.5869246356632509e-05 2.4215111842655203e-03 9.6372772106986457e-04  1.0502190225244311e-04 2.4316643684409462e-03 9.9472688878598885e-04  1.0995449197339883e-04 2.3901371888808125e-03 9.5071613697291033e-04  7.3855525754802667e-05 2.4358484912829705e-03 9.4222543055992418e-04  8.4674368958104895e-05 2.4363490724923684e-03 9.9116451903944456e-04  8.6563078917721795e-05 2.4038095872461439e-03 9.2914326942870439e-04  6.1657507449405625e-05 2.4301229741907431e-03 9.8171183945782326e-04  5.8954002905815967e-05 2.4114851110709230e-03 8.9728720677729361e-04  4.8691959182145418e-05 2.4441494888462084e-03 9.1172142284240323e-04  8.9800031411613871e-05 1.6834513779221826e-03 9.0453944411614349e-04  7.3713997933788682e-05 1.5406603974432937e-03 8.9305543302381463e-04  7.4194927901227373e-05 1.4199991537639453e-03 8.4476299001846401e-04  4.3863202613848371e-05 1.4381204858111422e-03 7.1642885635641055e-04  4.4181010359844279e-05 1.5691645120011436e-03 7.6930343594619954e-04  6.1656896980129963e-05 1.7256375398461033e-03 7.9462837816105035e-04  1.4892556870018252e-05 1.4531497953487269e-03 5.9426711663518924e-04  1.6333900102300810e-05 1.5931564683135612e-03 6.5168755174835270e-04  3.4000094747863817e-05 1.7611481880533604e-03 6.8905976520685470e-04  -1.3761484918382186e-05 1.4665439794035039e-03 4.7357950324412981e-04  -1.0746091327710975e-05 1.6139966852928330e-03 5.3541891241365349e-04  6.2176010234025850e-06 1.7926204217257827e-03 5.8387489049053782e-04  -4.2647844394319955e-05 1.4795540563425568e-03 3.5071693123944981e-04  -3.8176594215329904e-05 1.6334253984140350e-03 4.1662357979655303e-04  -2.2193713624489660e-05 1.8219432117687444e-03 4.7554162061152095e-04  -7.2386014433094959e-05 1.4932872406112740e-03 2.2271919143616561e-04  -6.6683862996010955e-05 1.6528499652454459e-03 2.9220858808753659e-04  -5.1896280746912642e-05 1.8508555309102905e-03 3.6138246913865852e-04  -1.0337041729795409e-04 1.5088512437924351e-03 8.7331403816778391e-05  -9.6894783017218174e-05 1.6740167249715897e-03 1.5962831481274378e-04  -8.3386579441290309e-05 1.8811515063431874e-03 2.3919503310768718e-04  7.7402217422055188e-05 1.9970672657755161e-03 1.1456939965324446e-03  4.0555200144086411e-05 2.3965284852430976e-03 8.5213963516999453e-04  2.1470353409650146e-05 2.4001767264167266e-03 9.1439523672753919e-04  6.9960908884448522e-06 2.3977709025930264e-03 9.7317285238017611e-04  -3.6909546592892252e-06 2.3886699723035614e-03 1.0302136277527000e-03  -1.1108535322114051e-05 2.3720717890793768e-03 1.0873120959339776e-03  -1.5664552139543400e-05 2.3469403090909508e-03 1.1467508115902197e-03  -1.7519928279171046e-05 2.3117613545841423e-03 1.2115343005537314e-03  1.0280549794711539e-04 2.2151859746429221e-03 1.0475991838169263e-03  7.6293275305017698e-05 2.1077910590542432e-03 1.0294011468809626e-03  9.3929399351596877e-05 1.9918629461302224e-03 1.0017158467692693e-03  6.4385227722199876e-05 2.0383675442313173e-03 9.1454995893975482e-04  4.6184863454605264e-05 2.1510145882747038e-03 9.4710526904540385e-04  7.1648479005000150e-05 2.2592188572557494e-03 9.8519418274597764e-04  3.7734340783087806e-05 2.0766494894892762e-03 8.2896605055074847e-04  2.0266920102658952e-05 2.1857517570879450e-03 8.6665949273119058e-04  4.4878158938498816e-05 2.2950411365752097e-03 9.2330191847929692e-04  1.2651779179719719e-05 2.1088544245384550e-03 7.4266735506488106e-04  -3.2715440470725028e-06 2.2133059495703933e-03 7.8575120085393939e-04  2.0873572364457514e-05 2.3238514681749745e-03 8.5969062114318970e-04  -1.2228089908932354e-05 2.1363876814427807e-03 6.5260633146584036e-04  -2.6098233040833314e-05 2.2350128926040946e-03 7.0132892362844183e-04  -2.0586791931923875e-06 2.3466945230580885e-03 7.9187038246239711e-04  -3.8481821280612995e-05 2.1611362281470040e-03 5.5553665523322383e-04  -5.0061026199399083e-05 2.2523284718624411e-03 6.0986008908914594e-04  -2.5843920472269572e-05 2.3648663652459496e-03 7.1664363099454491e-04  -6.8382545652246880e-05 2.1858491178134119e-03 4.4763309718608694e-04  -7.7337122221340452e-05 2.2672413582041986e-03 5.0612023081409558e-04  -5.3246085633101485e-05 2.3801863943060373e-03 6.3006273479603091e-04  9.7886839053282288e-05 1.5087770237464284e-03 7.4615328054222177e-04  1.1119066755680634e-04 1.7801093240906005e-03 8.2150715125872188e-04  9.5701357468926663e-05 1.5812068519279769e-03 7.7778969380414009e-04  6.7452821619084363e-05 1.6182758963976158e-03 6.7191315950576288e-04  8.7126611533145295e-05 1.8257940445329597e-03 7.3602660027783403e-04  6.7993513106148320e-05 1.5360010363654609e-03 6.3655296345646963e-04  3.8359993390032265e-05 1.6487788727540765e-03 5.7048301812247606e-04  6.0535173004027657e-05 1.8629295739000450e-03 6.5243526597052082e-04  3.7701861943949636e-05 1.5578736751727699e-03 5.3237990556055334e-04  8.0949040264343655e-06 1.6756950222648961e-03 4.6981469760419282e-04  3.1531001564952805e-05 1.8951188029004528e-03 5.6781955594569606e-04  6.6077384877700730e-06 1.5765163892757447e-03 4.2940454527135854e-04  -2.3554589945834170e-05 1.7006858984967314e-03 3.6691770016750538e-04  3.3938393124444119e-07 1.9244861685881137e-03 4.7997834204755238e-04  -2.5545132230516674e-05 1.5933754898008463e-03 3.2463864063899788e-04  -5.6667160373286135e-05 1.7249189878744517e-03 2.5956674271618616e-04  -3.2779243462895900e-05 1.9524889794436274e-03 3.8717086318180516e-04  -5.8920572120730062e-05 1.6094732811402718e-03 2.1580494098379557e-04  -9.1160153988714468e-05 1.7492874376104088e-03 1.4584077627725550e-04  -6.7699015209283990e-05 1.9801983975594193e-03 2.8831698556051742e-04  -9.3715205810970581e-05 1.6252409925346968e-03 1.0095754385574014e-04  5.7556906498090949e-05 2.1673130154949058e-03 1.1535507666738203e-03  5.9033111909139476e-05 2.3222487284026115e-03 1.0963901395482718e-03  2.0883670898720453e-04 2.2159133441086477e-03 9.4059902805703627e-04  2.1711149066825004e-04 2.2039983843233496e-03 9.1227072080561275e-04  2.0034401258651644e-04 2.2557334059981459e-03 9.2826468473269105e-04  1.9178392112610779e-04 2.2749445711363085e-03 9.4958482531125581e-04  2.0490244926344708e-04 2.2204978318959190e-03 9.3808299454367714e-04  1.9774008652605080e-04 2.2424157917681686e-03 9.4954965659777534e-04  1.7870378181010242e-04 2.2888258412648863e-03 9.6806964715632517e-04  1.8839737272324019e-04 2.2300011890053532e-03 9.5965426898597748e-04  1.8186349179685822e-04 2.2620026307208028e-03 9.5521165946742780e-04  1.6151926536704105e-04 2.2967580540607050e-03 9.8331269273801655e-04  1.6805041169723982e-04 2.2330821459632397e-03 9.7716582398955703e-04  1.6174632798179883e-04 2.2752994182665526e-03 9.5713839531027416e-04  1.4028094798419565e-04 2.2982728388578422e-03 9.9499715590341286e-04  1.4351241114617268e-04 2.2296128100237128e-03 9.9057932931259445e-04  1.3718900626403271e-04 2.2826116935427822e-03 9.5455985140633563e-04  1.1431658144830404e-04 2.2923713097794882e-03 1.0025304692686773e-03  1.1369602440810610e-04 2.2189456614230972e-03 9.9959733012072857e-04  1.0714765939024017e-04 2.2839877256461238e-03 9.4599714981159658e-04  8.1931440243886077e-05 2.2765523046391440e-03 1.0043067582781631e-03  7.6789551200250359e-05 2.2002397620022557e-03 1.0040229505804482e-03  6.9321016654524923e-05 2.2793821686632816e-03 9.2905204445314395e-04  9.1994002267998059e-05 1.6465053876387988e-03 8.3582262677951377e-04  1.0519931581021555e-04 1.8193726300129668e-03 8.8495453237538756e-04  1.0314045165301478e-04 1.7923725095263519e-03 9.0096900951909260e-04  7.9233118521334530e-05 1.8451377243123748e-03 8.1067155456036649e-04  8.3402392972880445e-05 1.8719614190793803e-03 7.9963514419425965e-04  6.5433514950194812e-05 1.6880332663411243e-03 7.3058507512500568e-04  5.3843756049903740e-05 1.8908268898227873e-03 7.2216375838528150e-04  5.8861798031740527e-05 1.9169632289293389e-03 7.1599941104674790e-04  3.7784447949672739e-05 1.7235508659780533e-03 6.2883220484604352e-04  2.6963494958246500e-05 1.9317589539048850e-03 6.3258831272702072e-04  3.2130776486484681e-05 1.9572556560878596e-03 6.3080121499860926e-04  8.8056398034200060e-06 1.7553531477484498e-03 5.2669046936981462e-04  -1.4403635302917803e-06 1.9700904782820930e-03 5.3950933044854860e-04  3.3921503167246224e-06 1.9950715114271196e-03 5.4185127102711610e-04  -2.1461326674045524e-05 1.7853701767132450e-03 4.2152708045804273e-04  -3.1485201644276784e-05 2.0076318574278546e-03 4.4085522361028608e-04  -2.7197527424613990e-05 2.0321315881403606e-03 4.4745872876739606e-04  -5.3053121837089051e-05 1.8151057919120563e-03 3.1109359043141223e-04  -6.3081723409288745e-05 2.0460239744970574e-03 3.3494442843992980e-04  -5.9352442622977790e-05 2.0695861622574835e-03 3.4633597699997682e-04  -8.5969605559244001e-05 1.8459757881760584e-03 1.9408263259415673e-04  7.9550884444782436e-05 6.3401848485657728e-04 6.6623616531939777e-04  7.5280468295666443e-05 8.4446598565255998e-04 6.7328043233298859e-04  7.3846290048989639e-05 7.5986684832830029e-04 6.9056476452857615e-04  4.1572531830412948e-05 7.1877891657445500e-04 5.6852429423753553e-04  4.2629811521360373e-05 8.1342508989133201e-04 5.4909221557794259e-04  4.8371866117574398e-05 5.8392225188929855e-04 5.5310290462393726e-04  1.2073650590314579e-05 6.8569588648422137e-04 4.5325441985594569e-04  1.2456513325029524e-05 7.8819635007774881e-04 4.3149794421448631e-04  2.0264984484109863e-05 5.4375750502524685e-04 4.4536895565192719e-04  -1.5597373775787255e-05 6.5838962203299727e-04 3.3942505485359109e-04  -1.6206466556148537e-05 7.6731703347529719e-04 3.1567531739034043e-04  -5.9312101384644995e-06 5.1066247062484947e-04 3.3840634887875545e-04  -4.2327764230038786e-05 6.3531246183737723e-04 2.2352915783836717e-04  -4.4123394950470255e-05 7.4981702780345632e-04 1.9811945886724248e-04  -3.1015692337346965e-05 4.8259917979763149e-04 2.2911488039280056e-04  -6.8762015500576629e-05 6.1549257928989257e-04 1.0307645452322735e-04  -7.1772378011614757e-05 7.3506379359415089e-04 7.6266602357565443e-05  -5.5508752492353759e-05 4.5818489467019279e-04 1.1529090645583283e-04  -9.5391652165948234e-05 5.9829137781351694e-04 -2.3764080523630286e-05  -9.9381001095226167e-05 7.2266012823505319e-04 -5.1732177699383527e-05  -7.9840858469358773e-05 4.3692553815549533e-04 -4.7790574350760140e-06  1.4933832598265379e-04 2.1293803476963484e-03 8.8101519964701276e-04  1.7413748563686139e-04 2.1762748472392460e-03 9.1410740496169107e-04  1.4587709545369805e-04 2.0496155286370992e-03 8.2968268283921029e-04  1.8787895431804911e-04 2.1356963315086880e-03 9.3030415093186809e-04  1.6406878532983647e-04 2.0822018692188181e-03 9.1298554068946407e-04  1.2053361876580855e-04 2.0832581900488288e-03 7.8677530761394720e-04  1.2979147927816680e-04 2.1677048743314279e-03 8.4676093184262184e-04  1.5555983589225154e-04 2.2083595606033207e-03 8.9543124510531107e-04  9.2031492580839562e-05 2.1101851699315854e-03 7.4075039511306258e-04  1.0589787664991429e-04 2.1997035614107997e-03 8.0943282011076490e-04  1.3266290559593415e-04 2.2336453543995985e-03 8.7331288822493024e-04  6.0170770796231300e-05 2.1327437620204735e-03 6.9028448300889665e-04  7.8000798630037778e-05 2.2272523878354572e-03 7.6736231489340145e-04  1.0546909437145225e-04 2.2537058579228325e-03 8.4634545189645589e-04  2.4807648102779016e-05 2.1529222778234446e-03 6.3438304930804829e-04  4.6112136149707639e-05 2.2523115608302155e-03 7.1853795676730145e-04  7.3593136987415821e-05 2.2702817010534894e-03 8.1244180472067552e-04  -1.4017359058201255e-05 2.1727086416561802e-03 5.7276867102428830e-04  1.0696476347186741e-05 2.2777231696312935e-03 6.6078214232666754e-04  3.6392573170224173e-05 2.2857741715893625e-03 7.6867241971496588e-04  1.5530556846042099e-04 2.3529727587782417e-03 1.0303365859898768e-03  1.3443815322851792e-04 2.3845907324129838e-03 1.0175358494607454e-03  1.1437553321242026e-04 2.4127471744071105e-03 1.0035677320804129e-03  9.4830681873689523e-05 2.4366204018426737e-03 9.8790461182221784e-04  7.5045816013227025e-05 2.4551820840620670e-03 9.6931399745495172e-04  5.4018514791258744e-05 2.4674382925682099e-03 9.4520781519242527e-04  2.9755709305672302e-05 2.4732082014176835e-03 9.1012306093042887e-04  2.3884040062504346e-04 2.1190359938558683e-03 8.8200504716176413e-04  2.2655272704394798e-04 2.1671387265651109e-03 9.1805263755456810e-04  2.1043867384091519e-04 2.1893044657119152e-03 9.3354953172553588e-04  2.2001