<?xml version="1.0"?>
<VTKFile type="UnstructuredGrid"  version="0.1"  >
<UnstructuredGrid>
<Piece  NumberOfPoints="995" NumberOfCells="4290">
<Points>
<DataArray  type="Float64"  NumberOfComponents="3"  format="ascii">9.307314076480086 2.443421084076296 3.873317769538949  9.211205620705499 2.513882102258965 3.931352194485028  9.188035095221403 2.393024355369779 3.872505587948195  9.197883587974498 2.35369293329829 3.924876585074164  9.220006931412243 2.483326921418878 3.990780763548674  9.321484197085958 2.40746483717671 3.926785946490282  9.207755163796767 2.314419840338949 3.977300765598099  9.228801129301869 2.452850260986666 4.050260889087236  9.33573844823419 2.371573537480659 3.980294586854196  9.217635025205309 2.275161541469665 4.029719240024636  9.237609286556086 2.422406763795864 4.109749913089767  9.350032527355518 2.335713675134835 4.033806873332445  9.227509065318403 2.235878379865271 4.082101175352848  9.246424963975985 2.391950887374499 4.169214235160975  9.364325356594707 2.299843275113862 4.087292575257983  9.237361863529365 2.196529992228466 4.134423984258029  9.255238393170513 2.361437192922487 4.22863261272641  9.378574269252992 2.263916876056305 4.140732448481685  9.247183221182187 2.157087673491884 4.186685585015398  9.264039150983233 2.330812976954261 4.287990529548333  9.392727738666061 2.227882380073168 4.194115267766442  9.860926223423379 2.399542671118393 3.670577426892411  9.753287782081907 2.412352291432748 3.717927386640648  9.812664003101373 2.319229053819123 3.605314934820608  9.825946596051663 2.277137080322814 3.645369632254679  9.767318345472921 2.373272969075409 3.764362015340797  9.87489385493191 2.360044658100655 3.715089593824227  9.888862305662483 2.320557090325813 3.759515810624412  9.781362008415993 2.334218973459897 3.810716397559725  9.8392656001897 2.23507438400196 3.685343008899176  9.902835316562998 2.281096979047054 3.803877896718061  9.79541506787672 2.295190965838234 3.857013975215695  9.852621960885728 2.193047483394126 3.72527946786933  9.91681188154115 2.241660062704184 3.848192768251554  9.80946839867709 2.25618568051516 3.903264111677492  9.865977195823961 2.151041514634433 3.7651747677316  9.930754482601676 2.202226954473718 3.892450496417936  9.823477479028027 2.217182871556757 3.949451420232637  9.879282796490338 2.109039247180496 3.805016986929017  9.837408038964872 2.178161254288647 3.995570159266324  9.944606552521146 2.162793815737747 3.93663297028373  9.892471361662672 2.067030952263218 3.84479186883476  9.130862731855672 1.812323189655337 3.494430899852875  9.281044703391631 1.823826399439473 3.472928131310409  9.171758495480761 1.772373226791066 3.399875591281844  9.124696280462558 1.860394154529095 3.46753642684747  9.273493886877311 1.871307967700135 3.446187086311895  9.178091456314691 1.725510489334015 3.425958076046675  9.137020124474551 1.764228320606335 3.521291869864875  9.288564215316438 1.77632289904019 3.499638076144687  9.184397759224769 1.678605335552223 3.452010853027968  9.14316116961408 1.716075242916831 3.548108956761991  9.296012945790935 1.728770618151617 3.526309844853104  9.721811569849029 3.339721837671807 4.249025240401813  9.771944600151537 3.185467299472217 4.277008444654988  9.653015726794335 3.163355577260134 4.30457757173555  9.757948851493779 3.174477026273338 4.210125654364941  9.665732620248773 3.173756017674306 4.37212242392755  9.734843143070149 3.359765526009268 4.31394910807211  9.78607911805925 3.196449934196786 4.343809173190841  9.667394904004649 3.042103713219545 3.958225085765155  9.701875004047123 3.129814460679683 3.942288344804531  9.58974757138742 3.11045185651866 3.965843625218963  9.682107601342093 3.045956795714935 4.025988340993258  9.716065245513725 3.141108461906349 4.009288037263177  9.602554775511519 3.121169966912408 4.033734700644252  9.696675065509018 3.049752982880563 4.093673149791293  9.730082063378381 3.152311578971554 4.076257490106268  9.615222276364156 3.131823270205343 4.101533073149784  9.711170188943575 3.053479193621099 4.161306071197203  9.744020100548909 3.16343401035194 4.143203375628055  9.627817780370139 3.142410227990534 4.169265820107796  9.725649849080751 3.057132963872857 4.228896529537558  9.640396311875234 3.15291748081455 4.236948621514119  9.740175582447698 3.060733148551988 4.296441026751154  9.754808002743054 3.064310653588099 4.363914650348113  9.69097485902242 2.333194727201225 3.659695294227914  9.704177157158149 2.291744570040853 3.70215234346845  9.717422905788466 2.250314241773571 3.744543801105645  9.73071199231088 2.20892323687859 3.786903236435229  9.743997601235174 2.167546245149313 3.829224788189382  9.757230051686422 2.126159929885515 3.871500935499714  9.770357672526439 2.084738185325157 3.913721498469831  9.081235646872845 2.443165310045634 3.910456561656731  9.086609461039266 2.409532876434004 3.968120051311677  9.091946615602838 2.375980602969509 4.025862611881123  9.097276128633581 2.342448788634615 4.083620108232217  9.102608054297026 2.3088960391063 4.141353259239611  9.107945102756501 2.275282164568764 4.199037476155286  9.113291693399333 2.241561669203611 4.25665613834172  9.250918961619394 2.013707376588747 3.365840233982101  9.184474899027624 2.049949990349765 3.447522700162807  9.106173268294368 2.004537289500544 3.3867556080836  9.191690606516159 2.001432323021779 3.475474946902072  9.258402648132513 1.96624775426431 3.392637162809253  9.112348389271085 1.956507159256393 3.413687881250496  9.198940881221477 1.95289812532356 3.503434322344683  9.265938074100212 1.918780662675375 3.41942126143037  9.118523979701466 1.908454745608153 3.440618898484783  9.20620110834372 1.904353177317983 3.531382141844783  9.213453909637144 1.855794266857616 3.559305710324684  9.220680937881308 1.807205465361875 3.587193421985621  9.227853806389467 1.758556961949861 3.615030005399384  10.03984147862216 2.226348394719944 3.421725925985607  10.01193616215183 2.296685405710492 3.520221804026187  9.923518264539888 2.205228622759854 3.434460237061309  9.93490343857925 2.161442049767071 3.467923667333565  10.02395079542228 2.254437363602232 3.558092662096177  10.05001830361192 2.183338746617562 3.456209560147581  9.946356211530489 2.117704904504752 3.501329887556471  10.03596240608238 2.212215437951124 3.59588774419749  10.06019095294298 2.14037309952941 3.490630943499025  9.957843670350931 2.074011954727003 3.534697421672738  10.0479843920236 2.170035489699097 3.633633018059499  10.07036863380568 2.09744440884566 3.52501298968644  9.969324745257886 2.030343701914614 3.568018540993776  10.06000098914388 2.127880157009638 3.671324094070142  10.08054086310018 2.054531669235125 3.559347898230558  9.980757873317923 1.98668991603327 3.601282064052555  10.07198908993941 2.085746288904322 3.708944994392793  10.09070129190978 2.01162981735118 3.593622278351318  9.992069229144667 1.943043128249598 3.634472609780897  10.08388741485013 2.043633208897166 3.746483609852024  10.10080983223401 1.968759282193734 3.627808490168735  9.083825673650713 2.557569604624104 3.968642669060719  9.090110210521345 2.528443384977711 4.030212003046512  9.096377810653188 2.49942552485803 4.091830630423241  9.102643887956894 2.470447669360777 4.153454924512041  9.108914080180902 2.441457225787379 4.215053471456987  9.115185910972986 2.41240178794931 4.276603091362473  9.121459274725883 2.383217792774147 4.338077436706969  9.893284387410402 2.269490201315185 3.527292891471881  9.905102425530107 2.226705061214217 3.564758573513654  9.916935155813444 2.183964045771845 3.602135709126648  9.9287964946756 2.141263798719695 3.639473580837343  9.940649868911843 2.098586465126848 3.676763357882212  9.952457446213048 2.055923480485453 3.713991625259196  9.964190419752516 2.013276344653501 3.751143670433587  9.146523352442443 2.218505176120158 3.70081428615784  9.020471993632029 2.174015401544464 3.66918481776773  9.12098763226237 2.152612581962901 3.619883989419189  9.129241335417753 2.105052833989839 3.655532112896813  9.027030482397306 2.126230750509504 3.706827731174523  9.155848629948746 2.171983210617577 3.740556970558765  9.137533603216708 2.057478826161398 3.691209941715289  9.033570792371851 2.078432281412072 3.744510641590945  9.165216862602405 2.125476934747967 3.780335653193105  9.145832780945836 2.009892571454903 3.726888916309905  9.040099321607343 2.030621720230935 3.782197389747929  9.174595750283382 2.078969877997853 3.820114612762644  9.154122644062932 1.962283582555201 3.762544498155434  9.04662200759636 1.982787171317182 3.81986045478506  9.183965441246444 2.032441580454612 3.859867044070272  9.162384949567471 1.91463034484339 3.798159193724044  9.053141923005963 1.934905880615779 3.857480115169063  9.19330293815649 1.985865697227536 3.899569708356952  9.170595253035733 1.866902117759359 3.833720425249246  9.059662180497101 1.886945730384093 3.89504580437475  9.202576614250416 1.939197702148364 3.939213075155328  9.651089124773495 2.433998183778433 3.763127633461375  9.535988014049337 2.4510012165677 3.808759229575187  9.592144702259112 2.356106690244856 3.712363823585279  9.605691405174515 2.315106251614032 3.756827483300854  9.551199525044623 2.413313355914998 3.858630990728965  9.665007152619332 2.395841433473595 3.811590354828008  9.619287376897629 2.274141206834446 3.801228409829192  9.566445588288444 2.375662763826186 3.908451837797036  9.678925818188842 2.35771849326449 3.859985304463591  9.632928323814683 2.233210450760331 3.845604902033526  9.581726473001376 2.338046284851186 3.958244038108331  9.692861007323986 2.319621110075432 3.908332799367023  9.646568652753013 2.192290143629646 3.889947603849235  9.597014441663044 2.300441973715702 4.00800332486799  9.706800083759148 2.281540585108597 3.956640635808589  9.660154064820661 2.15135491776677 3.934242901933885  9.612253817169888 2.262811233526638 4.057711871717083  9.720696276103917 2.243447591256777 4.004892432059198  9.673612680153266 2.110379967854267 3.978479450891447  9.627372460478524 2.225121319611758 4.107354008057698  9.
[...]
<PointData  Vectors="f_24"> 
<DataArray  type="Float64"  Name="f_24"  NumberOfComponents="3" format="ascii">-1.4099976470880850e-02 -3.8093474082981575e-02 -5.0830357240814285e-02  -1.4344485301691726e-02 -3.0993752097627093e-02 -5.4141302001714485e-02  -1.2614240947507953e-02 -4.2052794080869052e-02 -4.5978928085919274e-02  -1.1684882040802655e-02 -3.5547537379576839e-02 -4.4312809188813453e-02  -1.3507853106538348e-02 -2.5113036767686957e-02 -5.4251846015186823e-02  -1.3333227201912084e-02 -3.1591369459540913e-02 -4.9739095127629702e-02  -1.0578404317343552e-02 -2.9671726229659218e-02 -4.2071178611920737e-02  -1.2556812408281902e-02 -1.9762070571766474e-02 -5.3697484188289984e-02  -1.2372747407245721e-02 -2.5748643504809876e-02 -4.8168534073882281e-02  -9.3843808051063439e-03 -2.4172863524709390e-02 -3.9443505830426051e-02  -1.1491628472749755e-02 -1.4828617170786469e-02 -5.2547416888459784e-02  -1.1282064816052560e-02 -2.0333716738950899e-02 -4.6171348210485505e-02  -8.1211867632557441e-03 -1.8875483753248368e-02 -3.6428340576355023e-02  -1.0322424840237768e-02 -1.0164605949936673e-02 -5.0874216785991890e-02  -1.0079237873109839e-02 -1.5165312776901583e-02 -4.3754428107456535e-02  -6.7964978247958595e-03 -1.3660975519972715e-02 -3.3012294645150972e-02  -9.0647439638296533e-03 -5.6499879732296535e-03 -4.8721787222014826e-02  -8.7659106894454209e-03 -1.0110277386686092e-02 -4.0922416928757525e-02  -5.4257700544101265e-03 -8.4169358730344888e-03 -2.9227077898869903e-02  -7.7316184124008765e-03 -1.1994942453592296e-03 -4.6084915296422294e-02  -7.3322896561241312e-03 -5.0738155767163029e-03 -3.7685883619791721e-02  -1.8512303910115695e-02 -5.0517635015342358e-02 -5.1520720580795806e-02  -1.7621078385887643e-02 -4.6830595442678112e-02 -5.1990036012804268e-02  -1.7058676428497919e-02 -6.2308271389492978e-02 -4.3825158987274827e-02  -1.6049065133004439e-02 -5.6172764596829600e-02 -4.0299182104663024e-02  -1.6814828455777187e-02 -4.0286958265193164e-02 -4.9735726532959844e-02  -1.7733520054568915e-02 -4.4035868008437867e-02 -4.8958833799502936e-02  -1.6835416989914694e-02 -3.8159272834519364e-02 -4.6322991241009331e-02  -1.5896131728916605e-02 -3.4378638549343976e-02 -4.7323226366583607e-02  -1.5001999436187361e-02 -5.0493706259725886e-02 -3.6923821949865682e-02  -1.5845742825006066e-02 -3.2641218743240233e-02 -4.3495960592204660e-02  -1.4877839425439101e-02 -2.8845408769009807e-02 -4.4664388968137937e-02  -1.3905343227925809e-02 -4.5097685085879566e-02 -3.3500980220876150e-02  -1.4764835343222102e-02 -2.7284787848050617e-02 -4.0385686650804546e-02  -1.3751427753069794e-02 -2.3489987741675360e-02 -4.1680019082127144e-02  -1.2753916179587500e-02 -3.9800854886296408e-02 -2.9897242274445710e-02  -1.3585427178914734e-02 -2.1939177465420845e-02 -3.6905308231414337e-02  -1.2509170463008000e-02 -1.8165389159280846e-02 -3.8299876051864780e-02  -1.1539326745685807e-02 -3.4461819524572376e-02 -2.5999444780100880e-02  -1.1145798774113581e-02 -1.2761923637893999e-02 -3.4469595788461226e-02  -1.2289029201008056e-02 -1.6501861834638608e-02 -3.2970552289093590e-02  -1.0253737545470067e-02 -2.8964674636464505e-02 -2.1703568577582374e-02  -8.8955545718447365e-04 -9.7844863913083766e-02 1.1705179135335407e-02  -2.1708837653411726e-03 -9.6492982844611219e-02 8.6871432232030858e-03  -7.9721879606037879e-04 -1.0803155242828393e-01 1.3492350220199531e-02  -2.2007080716372010e-03 -1.0167788702088171e-01 7.8670113810646800e-03  -3.4846579372389617e-03 -1.0026567560165806e-01 4.9947921140459841e-03  4.4902896116785865e-04 -1.0425146073092025e-01 1.6612235616097627e-02  3.9085783108888504e-04 -9.3627508901583029e-02 1.5617253894406324e-02  -8.9191581313795927e-04 -9.2355103432692001e-02 1.2438887386430396e-02  1.6601661216003229e-03 -9.9924830137562842e-02 1.9842518024757175e-02  1.6588427118336736e-03 -8.8905803614478418e-02 1.9822231021547992e-02  3.6545351638798295e-04 -8.7724418733559323e-02 1.6440940653262005e-02  -1.9327844402781274e-02 2.8442077037663690e-03 -6.5391681085366124e-02  -1.9302608986077614e-02 2.7004710318405409e-03 -7.5201952268674974e-02  -1.7932742721314145e-02 1.1540554989841704e-03 -7.3856059694465973e-02  -2.0692913198884610e-02 5.3954084882525035e-03 -7.5883009745113292e-02  -1.6312300210040969e-02 -1.3202687789142678e-03 -7.2611045583006226e-02  -1.7630434338470235e-02 -1.3423716645505194e-03 -6.3426782468981396e-02  -1.7648031390802146e-02 5.4342083653590493e-05 -7.4013464407853072e-02  -2.2731793982646391e-02 1.0339899434618938e-02 -7.1889960141184470e-02  -2.3710231742482657e-02 1.7455848077309686e-02 -7.0216048907259715e-02  -2.2496367355905714e-02 1.4844518439481097e-02 -6.8820748628902223e-02  -2.2349597567060030e-02 8.7629838050670966e-03 -7.5326892663490089e-02  -2.3333485098943632e-02 1.4139810845599602e-02 -7.3270590813369937e-02  -2.2022933765567902e-02 1.1821658790580364e-02 -7.1873548165059267e-02  -2.1741149011407526e-02 7.1917780058045246e-03 -7.7504280148980254e-02  -2.2697811566173738e-02 1.1073863919825861e-02 -7.5065657451128351e-02  -2.1352457826262421e-02 8.9978976946101085e-03 -7.3690283170152041e-02  -2.0905526106007301e-02 5.6699014175717183e-03 -7.8676076564971539e-02  -2.1818447658029535e-02 8.1735205663016758e-03 -7.5881827037424257e-02  -2.0451157946232472e-02 6.2974599996802926e-03 -7.4507937941220861e-02  -1.9829157913330821e-02 4.2042744280062138e-03 -7.9022448626693109e-02  -1.9314364660198681e-02 3.6897424521756678e-03 -7.4516187678264040e-02  -1.8489427176758926e-02 2.7857346342032643e-03 -7.8678756321159962e-02  -1.6854022539488058e-02 1.3861768217495406e-03 -7.7775036275462298e-02  -1.6048666850684217e-02 -5.8207350129265381e-02 -4.4456328210319820e-02  -1.5044725760823561e-02 -5.1765149344957608e-02 -4.1270982271813014e-02  -1.3995308777405090e-02 -4.5891899251796868e-02 -3.8113915097253787e-02  -1.2881412653313197e-02 -4.0321551313218476e-02 -3.4854300163497817e-02  -1.1696915856494770e-02 -3.4888043752401794e-02 -3.1377622532175652e-02  -1.0433745407656538e-02 -2.9452375004001302e-02 -2.7585004648129310e-02  -9.0883583325070873e-03 -2.3904153343271325e-02 -2.3393620010840055e-02  -1.2797719998291409e-02 -3.8238590691952415e-02 -4.8133452350721709e-02  -1.1798885579466116e-02 -3.1862556017503242e-02 -4.7484303975985444e-02  -1.0733263466290501e-02 -2.6013933495134613e-02 -4.6246681908464843e-02  -9.6093050197083012e-03 -2.0601992654192141e-02 -4.4515639954320008e-02  -8.4322515201750419e-03 -1.5469587856167935e-02 -4.2324481188241940e-02  -7.2183301165211992e-03 -1.0488051747009626e-02 -3.9687173455957292e-02  -5.9888006150755841e-03 -5.5536326484973636e-03 -3.6597088664189453e-02  -7.8539965177755761e-03 -1.1044664330408725e-01 -7.4723662698021843e-03  -7.6922995998013775e-03 -1.0311461650933725e-01 -1.1013537823078415e-02  -6.5304926157993722e-03 -1.1201161928131843e-01 -5.0861133834552560e-03  -6.1793038866245079e-03 -9.9143559352162319e-02 -5.9945959901983063e-03  -6.2972535277959095e-03 -1.0715157843562098e-01 -2.8978975335553392e-03  -4.9921437808323286e-03 -1.0866085848364503e-01 -3.3720180875629774e-04  -4.7506783064349342e-03 -9.5258229080432730e-02 -1.4601622272347285e-03  -4.8522171607306734e-03 -1.0378589538420281e-01 1.1910353257648548e-03  -3.5617187822497135e-03 -1.0524701076348900e-01 3.9165465385902825e-03  -3.3788830535328145e-03 -9.1309007879685988e-02 2.8108790987823010e-03  -2.0466607075000183e-03 -8.7167057081857027e-02 7.0172388424118940e-03  -7.3847065290768416e-04 -8.2712141102906103e-02 1.1351889056263427e-02  5.6060552633731286e-04 -7.7831550004728092e-02 1.6010069191997670e-02  -1.8516931901564726e-02 -8.1245211982261117e-02 -3.5563272425143455e-02  -1.8879458243512497e-02 -6.8474475130168688e-02 -4.2570654011669450e-02  -1.6917354627118054e-02 -8.2908027726393260e-02 -3.2766709678248691e-02  -1.5659410978480334e-02 -7.7997977423167358e-02 -2.8537424504012251e-02  -1.7846543151666561e-02 -6.2756041206626950e-02 -3.8843647031310241e-02  -1.7314450056937082e-02 -7.6274440586440645e-02 -3.1484997763689376e-02  -1.4444506312985553e-02 -7.3341926561899015e-02 -2.4635914130970923e-02  -1.6809569050157201e-02 -5.7447815307339438e-02 -3.5292242494858093e-02  -1.6162460920161353e-02 -7.1558414713191895e-02 -2.7711728183866944e-02  -1.3259456265555043e-02 -6.8759011064891198e-02 -2.0874994657802171e-02  -1.5749844956828147e-02 -5.2334844078440489e-02 -3.1756900050054826e-02  -1.5030878666760032e-02 -6.6935626822839350e-02 -2.4058319382950649e-02  -1.2083748966196836e-02 -6.4122759042584160e-02 -1.7099920625460903e-02  -1.4661088613959148e-02 -4.7252432620499094e-02 -2.8102846561303324e-02  -1.3903602801696894e-02 -6.2276501114192619e-02 -2.0381776142153574e-02  -1.0905449279465832e-02 -5.9312034084151866e-02 -1.3172199783724789e-02  -1.3536846003909590e-02 -4.2065145233680656e-02 -2.4201375009688633e-02  -1.2771284247987968e-02 -5.7458651691212788e-02 -1.6556259597596771e-02  -9.7238772917610256e-03 -5.4207587137438638e-02 -8.9625118353383274e-03  -1.2372664754147082e-02 -3.6666370438257719e-02 -1.9917337936988733e-02  -1.1628506789016658e-02 -5.2343792738786511e-02 -1.2484791888768434e-02  -1.4207977712775136e-02 -2.7945492397059665e-02 -5.5064043732486238e-02  -1.3242267104184280e-02 -2.2543586252642755e-02 -5.5603632516621725e-02  -1.2222427025455276e-02 -1.7720029806511998e-02 -5.5444308105271109e-02  -1.1127531335894171e-02 -1.3270245184218680e-02 -5.4624306136831828e-02  -9.9691354287527543e-03 -9.0566232650018917e-03 -5.3216741113450032e-02  -8.7577044420706646e-03 -4.9800471690855915e-03 -5.1283214381483352e-02  -7.5052672386365770e-03 -9.8721489633541879e-04 -4.8847160217977630e-02  -1.7265297176809611e-02 -7.1132965498887341e-02 -3.9229724789494956e-02  -1.6148489038810512e-02 -6.5409832904671561e-02 -3.5361397132949474e-02  -1.5030426730167279e-02 -6.0089091874089486e-02 -3.1669511408095923e-02  -1.3895925165687023e-02 -5.4948287771497274e-02 -2.8021851116269508e-02  -1.2738883483518150e-02 -4.9830217140597495e-02 -2.4271339552619824e-02  -1.1552399851977618e-02 -4.4607141320864310e-02 -2.0283461832537684e-02  -1.0325633593457088e-02 -3.9194467863124728e-02 -1.5930572620605578e-02  -9.9079990630277920e-03 -6.9711436647273722e-02 -2.9630352684314000e-02  -8.4419670803688313e-03 -7.7649304335098673e-02 -2.3802022087471057e-02  -8.7354217311478976e-03 -8.2134118581225282e-02 -2.2311300693868372e-02  -7.4157309766947231e-03 -7.6415742375737394e-02 -1.7448951236290328e-02  -7.1681288222077682e-03 -7.1577346305680328e-02 -1.9064647481034581e-02  -8.7034474090267148e-03 -6.3388329508503816e-02 -2.5328701021917983e-02  -6.0988450837372813e-03 -7.1048343546529766e-02 -1.2903952944577997e-02  -5.8699053567305877e-03 -6.5978463988875663e-02 -1.4578819342310824e-02  -7.4540356585246102e-03 -5.7582555356168352e-02 -2.1193473545822593e-02  -4.7841727879523940e-03 -6.5849145021998512e-02 -8.4604628656611627e-03  -4.5641106398708947e-03 -6.0613023009193800e-02 -1.0134307632707602e-02  -6.1708449492908074e-03 -5.2053061292147637e-02 -1.7040639231164920e-02  -3.4682679069431305e-03 -6.0662925368656279e-02 -3.9378621450971265e-03  -3.2548178699204427e-03 -5.5305227127163514e-02 -5.5646327855458557e-03  -4.8646874427273456e-03 -4.6627927826918512e-02 -1.2723425086456287e-02  -2.1488434076372930e-03 -5.5374168336806993e-02 8.1829261489523269e-04  -1.9435573571883104e-03 -4.9928385305241775e-02 -7.2889043641197735e-04  -3.5390028793179226e-03 -4.1176727263795107e-02 -8.1184294647978685e-03  -8.2722298930505548e-04 -4.9890328105178336e-02 5.9244424781369617e-03  -6.3196879110974423e-04 -4.4394006057556390e-02 4.4917500168666384e-03  -2.1917796648721274e-03 -3.5613493148700548e-02 -3.1074486988543243e-03  -1.6938011047742535e-02 -4.3257254013797097e-02 -5.2971395680960667e-02  -1.6068104793568540e-02 -4.0172864511675122e-02 -5.3410909119659948e-02  -1.5411466442383700e-02 -5.3497502886975329e-02 -4.5942630625088333e-02  -1.4451309703065502e-02 -4.6973929870467286e-02 -4.3097039451530449e-02  -1.5332611102049934e-02 -3.3705696429241212e-02 -5.1888167023078337e-02  -1.6149025423192784e-02 -3.6695088129574255e-02 -5.1159036760311492e-02  -1.3423426929917763e-02 -4.1012810932705264e-02 -4.0204251176230464e-02  -1.4448290223883482e-02 -2.7905204580799262e-02 -5.0058206544114102e-02  -1.5249584559149066e-02 -3.0812042391370868e-02 -4.9069991231817850e-02  -1.2317920348586357e-02 -3.5398031138132918e-02 -3.7151465582237336e-02  -1.3419027406600432e-02 -2.2511912929197159e-02 -4.7869863759936314e-02  -1.4222713937102649e-02 -2.5324421293084768e-02 -4.6674781762517721e-02  -1.1121981759383209e-02 -2.9952037880389047e-02 -3.3837940006256791e-02  -1.2249643986847816e-02 -1.7338674529887167e-02 -4.5286737166683681e-02  -1.3071130937681034e-02 -2.0040408711449718e-02 -4.3920812091309658e-02  -9.8275906950844923e-03 -2.4536305149362236e-02 -3.0180159321160721e-02  -1.0935312937398441e-02 -1.2249515089467240e-02 -4.2277163981830186e-02  -1.1788164091456315e-02 -1.4819674221563543e-02 -4.0753070912672308e-02  -8.4236364854998972e-03 -1.9044455822523180e-02 -2.6096501382522005e-02  -9.4625192950672978e-03 -7.1427792416706394e-03 -3.8805721827575274e-02  -1.0368106661263744e-02 -9.5568213602768761e-03 -3.7116740215849195e-02  -1.9927187165820176e-02 -4.0552050626664907e-02 -5.8388936367159625e-02  -1.9198546048837091e-02 -3.7300486613015264e-02 -5.8937534342876088e-02  -1.8598688284169707e-02 -3.0919737120163340e-02 -5.7764317561495852e-02  -1.9321584811088043e-02 -3.4068268910206256e-02 -5.6837696016771390e-02  -1.7838211246162895e-02 -2.5194540220959811e-02 -5.6243171501129396e-02  -1.8581179056670005e-02 -2.8258003424024902e-02 -5.5026454247110522e-02  -1.6932288328526272e-02 -1.9903276447683062e-02 -5.4321439074889302e-02  -1.7703493168030569e-02 -2.2871508470704602e-02 -5.2885087674905275e-02  -1.5887388639745433e-02 -1.4833642585637595e-02 -5.1972981379930512e-02  -1.6699724122164260e-02 -1.7697288206251962e-02 -5.0356464111481897e-02  -1.4698021066030794e-02 -9.8335107607614644e-03 -4.9161721104240962e-02  -1.5568494962676670e-02 -1.2579713523139384e-02 -4.7383787209588517e-02  -1.3348609473153163e-02 -4.7946715506372167e-03 -4.5847251661265520e-02  -1.4296484307944720e-02 -7.4072683431192048e-03 -4.3905870519580933e-02  -9.8440001687078952e-03 -6.4411331339108313e-02 -3.1818657775684475e-02  -8.6670856151653715e-03 -5.7782982573541239e-02 -2.7972533847528951e-02  -7.4302577326960714e-03 -5.1763778745249560e-02 -2.4153867872577346e-02  -6.1601005892073912e-03 -4.6096792278109158e-02 -2.0220839239691261e-02  -4.8702267576971568e-03 -4.0584210019429252e-02 -1.6061006628331580e-02  -3.5659524152898922e-03 -3.5089497901663623e-02 -1.1578818301416478e-02  -2.2478089368800419e-03 -2.9522041594607928e-02 -6.6884202427829357e-03  -1.5257047875731518e-02 -2.9391635343694582e-02 -5.6662784479778634e-02  -1.4509736748044384e-02 -2.3497483522159190e-02 -5.6600487877340330e-02  -1.3608121121261472e-02 -1.8314688492606687e-02 -5.5868722326337328e-02  -1.2545027856073920e-02 -1.3521469220191554e-02 -5.4562799079067865e-02  -1.1339679694956278e-02 -8.9495954527459721e-03 -5.2738442707660774e-02  -1.0001759482198905e-02 -4.4860574825995245e-03 -5.0441438102983051e-02  -8.5535331221061519e-03 -6.1203124560178879e-05 -4.7739334966770887e-02  -1.8543096982128842e-02 -3.3911561371541214e-02 -5.9567164811404283e-02  -1.7922274235231458e-02 -2.7657897091268389e-02 -5.8910443635646868e-02  -1.7155685892091627e-02 -2.2035214940934710e-02 -5.7791979519553449e-02  -1.6237832630479395e-02 -1.6855465258974869e-02 -5.6219937564101423e-02  -1.5163952864014830e-02 -1.1912323719970586e-02 -5.4183269263897917e-02  -1.3925850298800278e-02 -7.0629457418413880e-03 -5.1668155877393498e-02  -1.2505952191262635e-02 -2.2058258162544137e-03 -4.8638883932010615e-02  -2.0258499451413170e-02 -7.5446507438952273e-02 -4.0425606744129837e-02  -2.0889607187046060e-02 -6.2334711965854293e-02 -4.8552757833009434e-02  -2.0026270090094715e-02 -5.6406199872676172e-02 -4.5249733721192370e-02  -1.9161875668821524e-02 -7.0221404162466458e-02 -3.6559364363993742e-02  -1.9113595156615322e-02 -5.0905424205773236e-02 -4.2033791507024257e-02  -1.8089343552756133e-02 -6.5309163081168742e-02 -3.2928719287641989e-02  -1.8164062048420838e-02 -4.5653365357680102e-02 -3.8804937180878261e-02  -1.7031194120067220e-02 -6.0505535538524287e-02 -2.9379088919861459e-02  -1.7175870165938897e-02 -4.0486666484221313e-02 -3.5409115469122857e-02  -1.5964099546638542e-02 -5.5700428758182763e-02 -2.5771653732946091e-02  -1.6148118411344128e-02 -3.5262595866743351e-02 -3.1728846283332821e-02  -1.4881400258404183e-02 -5.0767141779035824e-02 -2.1985222977147365e-02  -1.5081548165319309e-02 -2.9853366915067289e-02 -2.7652487338295235e-02  -1.3774931552474518e-02 -4.5588448387474778e-02 -1.7918405907800306e-02  -1.4489044223423073e-02 -5.1183654595431026e-02 -4.5906499084093555e-02  -1.3594636125311236e-02 -4.4675956391553209e-02 -4.3121539730601101e-02  -1.2569039034780828e-02 -3.8780078728899457e-02 -4.0258804552043920e-02  -1.1440130502686868e-02 -3.3241501007557871e-02 -3.7192268481036128e-02  -1.0212152311856938e-02 -2.7879948410816244e-02 -3.3837456709621884e-02  -8.8792822165312847e-03 -2.2558655240648550e-02 -3.0123872286868872e-02  -7.4216704798772898e-03 -1.7179598620315623e-02 -2.5981705584785884e-02  -1.2749281430605754e-02 -7.1199421272183233e-02 -3.3288882869174773e-02  -1.3042074453056199e-02 -6.1973405715775795e-02 -3.8510959332239823e-02  -1.1488057473098933e-02 -6.9162609380494247e-02 -3.2464661080287206e-02  -1.0326504964588812e-02 -6.2912338174757304e-02 -2.8389488046079756e-02  -1.1995806825543347e-02 -5.5479074126884187e-02 -3.5041196810075829e-02  -1.1535477154074637e-02 -6.5190689727786230e-02 -2.9205479047609895e-02  -9.1139523029188600e-03 -5.7123864800262353e-02 -2.4459899820297788e-02  -1.0888803905181812e-02 -4.9454159016478552e-02 -3.1633276346573681e-02  -1.0320414216058300e-02 -5.9590461366026345e-02 -2.5295184492150527e-02  -7.8672031053499351e-03 -5.1582543386860934e-02 -2.0529707802822181e-02  -9.7195607849790075e-03 -4.3746348754190298e-02 -2.8152424916151726e-02  -9.0829000923221617e-03 -5.4202516187570195e-02 -2.1404158049038079e-02  -6.5844264495163946e-03 -4.6131177335496813e-02 -1.6456485129441416e-02  -8.4855532739570392e-03 -3.8188938458916410e-02 -2.4481267992164379e-02  -7.8148356561715121e-03 -4.8872275756276159e-02 -1.7392475951773022e-02  -5.2629469611479582e-03 -4.0644693009518118e-02 -1.2113188249699655e-02  -7.1835314760335146e-03 -3.2649521489263450e-02 -2.0515811581386226e-02  -6.5077134313075219e-03 -4.3473076252083118e-02 -1.3134354113322829e-02  -3.8970311512501422e-03 -3.5036078076174947e-02 -7.3835207320278292e-03  -5.8128250732812064e-03 -2.7025287762107192e-02 -1.6170353860637251e-02  -5.1494045385837989e-03 -3.7906690922778881e-02 -8.5093847775788260e-03  -1.1120018236665112e-02 -7.9869169637335355e-02 -2.7025110465781887e-02  -1.0127413050935331e-02 -7.6540197381984795e-02 -2.7172595904710852e-02  -8.8565447955329252e-03 -7.0656156809664375e-02 -2.2567777994774892e-02  -9.7895144461621151e-03 -7.4318086835488725e-02 -2.2395332033125940e-02  -7.5747192092787304e-03 -6.5188708020581326e-02 -1.8230654619731997e-02  -8.4879560504005167e-03 -6.9091165793798912e-02 -1.8085440940436230e-02  -6.2792691107075851e-03 -5.9917230214849744e-02 -1.3954042661621967e-02  -7.1860680176167998e-03 -6.4021415277882285e-02 -1.3875012681619024e-02  -4.9686423288670071e-03 -5.4693633306290124e-02 -9.5799409016446464e-03  -5.8750741925727183e-03 -5.8959548273313435e-02 -9.5979190381436253e-03  -3.6429690266093586e-03 -4.9395733875516795e-02 -4.9682560159886400e-03  -4.5474343316031195e-03 -5.3784305290820900e-02 -5.1123746104391049e-03  -2.3024818211392658e-03 -4.3919388086394326e-02 5.4581695765118123e-06  -3.2015853969372858e-03 -4.8383575651254077e-02 -2.8362174101257781e-04  -2.2706612344180359e-02 -3.5623948087500183e-02 -5.9848965202055612e-02  -2.1521941445746155e-02 -3.2100249037095893e-02 -6.0626182081902256e-02  -2.08704166