<?xml version="1.0"?>
<VTKFile type="UnstructuredGrid"  version="0.1"  >
<UnstructuredGrid>
<Piece  NumberOfPoints="1006" NumberOfCells="4328">
<Points>
<DataArray  type="Float64"  NumberOfComponents="3"  format="ascii">1.673765618126753 1.230583013861255 3.183299116454844  1.806625921232003 1.286514194879369 3.257684410748449  1.669401492717014 1.338317257291405 3.29055867394322  1.662402925683746 1.292543891188933 3.337504052458977  1.801017227293424 1.239854170327382 3.30387334021089  2.464427290307366 0.8845452242668055 2.759574170687529  2.496057106027939 0.8262040975745502 2.609958187827789  2.601195931624277 0.863141283852741 2.696746740632916  2.602840506098508 0.8001076333739294 2.724954297400782  2.493622531639394 0.7584985289477879 2.631522307502063  2.464738984654654 0.821783537675475 2.789312995232091  2.604464520434309 0.7370592959129829 2.753151934670678  2.491065887017456 0.6907858146842567 2.653065774828435  2.465020264416419 0.7590122382040148 2.819037219101902  2.606057993320606 0.6740078690058939 2.781360364396897  2.488464877550912 0.6230805735027891 2.674615521817998  2.465280515275175 0.6962453577784562 2.848766937499983  2.607629246218214 0.6109630557330019 2.809597861364439  2.485862443258697 0.5553888751178118 2.696195737618513  2.465522991590057 0.6334908841587803 2.878525040531466  2.609188179432114 0.5479293832075551 2.837881060789793  2.48330037883466 0.4877131253373376 2.717822794836547  2.465749405631831 0.5707565157056538 2.908328937540154  2.610740164400102 0.484913595150725 2.866228618280916  2.480838242611549 0.4200406837713216 2.739492532440343  2.465968205041612 0.5080433739339828 2.938191709144446  2.858125694931744 0.7787426506851316 2.442961464369869  2.963063278310071 0.8169307491979478 2.550187827992524  2.827681957369455 0.8270366569795302 2.59530616257266  2.830939887914755 0.7633922310222097 2.620693068615734  2.967184406412554 0.7536532527812317 2.575043250206532  2.859381255298157 0.7105910858601894 2.46050292131041  2.860537065208665 0.642423536701038 2.47804200681329  2.97126272236869 0.6903666931986338 2.599909018250171  2.834157004271294 0.6997521312473609 2.646100088534189  2.861648255750915 0.5742494329518331 2.495591008799811  2.975313216414336 0.6270905724647515 2.62478029047094  2.83734611015741 0.636120335146735 2.671516582280536  2.840507104322675 0.5725023230352762 2.696956865799094  2.979330978031451 0.5638301820353243 2.649673029415124  2.862740431176698 0.5060776496117693 2.513172600847997  2.843644791486451 0.508898415517304 2.722435607124674  2.98331546865848 0.5005840192812452 2.674608906695161  2.86384239111935 0.4379107262353293 2.530808274720405  2.846782662563964 0.445299087345326 2.747950111248774  2.98731215662053 0.437337820780101 2.699594522703499  2.86500305820783 0.3697418230613608 2.548504498762467  2.819532983981846 0.7510203846784462 2.299045264024552  2.958693894990739 0.7542017644347682 2.318349479270927  2.961964991001333 0.6840963499821017 2.330439206047895  2.818418269824494 0.6791470616055365 2.307078962651036  2.817152555007538 0.6072406644665352 2.315074573814912  2.965161591142708 0.613949258803663 2.342517032403511  2.815828821541729 0.5353223777714784 2.323075486925185  2.968329553912004 0.5437987927431049 2.354604234766437  2.814498335004849 0.4633973039350237 2.331110129220263  2.97147421830445 0.4736492078505039 2.366723493462759  2.813212679877937 0.3914617913296445 2.339199547991799  2.974609812471653 0.4034923637874118 2.378894879175665  2.812033664285642 0.3195117926540835 2.3473582023388  2.977790247030474 0.3332992434556866 2.391135831120317  2.345956861158401 0.8495064619315805 2.650415434162905  2.354592763310556 0.8120489881632926 2.50859234572882  2.347599326058753 0.7411137446534746 2.522001958754096  2.341325491245848 0.7815777838749075 2.671215010197756  2.340473763226276 0.6701897359656723 2.535341307579788  2.336579830838619 0.7136444698881814 2.691980823935202  2.33329694089687 0.5992791067605077 2.548672152054594  2.33179736352448 0.6457107111208675 2.712748269549874  2.326127478844668 0.5283829836149809 2.562029448891714  2.327018352647986 0.5777830397781091 2.733544463798951  2.319014282640048 0.4575025271591837 2.575438312799059  2.322276475944568 0.5098669032320857 2.754383763973315  2.311999300089314 0.3866401489002713 2.588920848044914  2.317618911290827 0.4419644686780312 2.775264390596576  2.723115178096885 0.9803927681072895 2.895117156167746  2.863514903613703 1.002446434609517 2.913766188948822  2.746451127153282 1.049929972284488 3.002604641026582  2.749587471850379 0.9967491881320438 3.036922721906016  2.867666800244322 0.948559109771599 2.946809888936306  2.727101770937189 0.925613225712965 2.929755674102609  2.752766395047187 0.9435896219656885 3.071240719007382  2.87184013248922 0.8946930488090021 2.979842579570769  2.731118870800243 0.8708407155065867 2.96438270084754  2.755946557151325 0.8904486294135141 3.105554060764085  2.876008784564569 0.8408482087728077 3.012865906043638  2.735134660449309 0.8160799525892792 2.999005309172716  2.759098239064765 0.8373267083277642 3.139867885509328  2.880147155846434 0.7870259673119198 3.045887721449827  2.739117896457469 0.7613354705847015 3.03363541773695  2.762185523798999 0.7842246367824547 3.174191348958709  2.884224983766686 0.7332312079112457 3.07892045396826  2.743034348716238 0.7066103533984569 3.068292233680432  2.765146882954334 0.7311342535008521 3.208538725204338  2.888191613949323 0.6794691418106154 3.11198407898328  2.746843686028298 0.651908409704435 3.103009675669302  2.475642093500838 0.79327994951004 2.462716157210723  2.469694283821314 0.7219570476175342 2.474799843703841  2.463597069311143 0.6506397878137957 2.486845188736283  2.457444350799035 0.5793318800685987 2.498889269321873  2.45129789495412 0.5080351057564612 2.510960981745371  2.44520997303432 0.4367475484559734 2.523080205690379  2.439238782910142 0.365460020389566 2.535257078198982  2.956839107014181 0.6709755048855416 2.201788887835689  2.95883020632018 0.5985538194381884 2.204298059466088  2.96078287107953 0.5261186823957009 2.206807888052017  2.962720771417548 0.4536719450725153 2.209349059065049  2.964673434453742 0.3812003792366415 2.211945278352128  2.966702342841288 0.3086754200457223 2.214608651190888  2.586151116480378 0.7755881126516027 2.410417225261663  2.713987823013236 0.761102864562379 2.360782238382954  2.721075917796233 0.793818833612209 2.499783920739367  2.721266038116585 0.7256191710066779 2.518515516703259  2.71100455864695 0.6894766234030743 2.371454695653461  2.581589180597089 0.7039423404991865 2.421636659783864  2.707870040953207 0.61782906194317 2.382096896330188  2.576867492297058 0.6323030540208193 2.43282607552998  2.721367144965272 0.6574005954952653 2.537254664391979  2.572085316947951 0.5606739196389526 2.444017542431037  2.704673109908128 0.5461811889351305 2.392746466114025  2.721419712691867 0.5891821686320845 2.556009369789983  2.567308453670112 0.4890555276688969 2.455240850815187  2.701475212454823 0.4745390778714179 2.403431483117927  2.721459539671717 0.5209675098933229 2.574797103383625  2.562593485005265 0.4174450433564472 2.466516811363729  2.698328789678302 0.4028986928448552 2.414168291759077  2.721516389183413 0.4527585653878521 2.593629275993102  2.557996025636094 0.3458321372376592 2.477849864279027  2.69527088674225 0.3312532996552502 2.424971303970516  2.72161551543105 0.3845489362911479 2.61250523449219  2.601708850763464 0.8031766961393924 2.536238051544419  2.600762955081325 0.7344492961421432 2.554796543426169  2.599715110931092 0.6657026542168365 2.573357470483705  2.598622215887551 0.596963068687584 2.591930232561167  2.597523410687827 0.5282331619769953 2.61053361567117  2.596454687999091 0.4595111434978708 2.629178641780872  2.595457048481234 0.3907787736076145 2.647854777549441  1.816067130200196 1.406082895708077 3.377752946785149  1.809635120893696 1.361833460464755 3.424379350179376  1.795681012570272 1.19317891076193 3.350173627202408  2.872640169517073 1.216911183461523 3.253351167909653  3.001581362380984 1.254291098760677 3.313019411802361  2.863304591131623 1.306267655617999 3.379428503428537  2.861447841211686 1.256989490944725 3.415966572781735  3.001352148538057 1.204093664926773 3.347299358635101  2.871911659669177 1.166204545710487 3.287603458439603  2.871176034950775 1.115525556181248 3.321870152659589  3.001128391907156 1.153927366377079 3.381598723539069  2.85959967544522 1.207752106794345 3.452534729661386  3.000903213370585 1.103785984023986 3.415899089235448  2.870434117622159 1.064871347496549 3.356139508662796  2.857755378213655 1.158541554491886 3.489111137738156  2.869679336899937 1.014230066004291 3.390400608506521  3.000669758104492 1.05366040820164 3.450180356280429  2.85590614621582 1.109339495396477 3.525672264792143  2.868908793709021 0.9635914363952651 3.424637213231925  3.00042197707139 1.0035322139609 3.484425885171725  1.516748129128759 1.111531396133201 2.986713686716622  1.65021948423543 1.053056546824254 2.944545165757263  1.662973070130487 1.14757113414584 3.081629205531259  1.65435839789803 1.093132811403241 3.122898075569503  1.638244017304601 0.9928302350018514 2.97968927883675  1.602963109503658 0.8108857185462512 3.085196854114925  1.459965007975611 0.8737922748439684 3.125873615131454  1.62955611482859 0.9287723024664158 3.247379927721296  1.637808040467981 0.9836659571352075 3.205762389705594  1.614737803818473 0.8716330051680996 3.049934647232845  1.445677574310834 0.8140168976815445 3.161017463835732  1.591082940571337 0.7501091579477785 3.120615704717455  1.621181193346621 0.873839730335281 3.289128049705395  1.431117702663647 0.7542209556897475 3.196303852823607  1.579007660223102 0.6893345063017109 3.156221858874864  1.61251617211723 0.8188535037580857 3.33095861629159  3.001412725514655 1.166275064619976 3.174260946872748  2.985598736318719 1.087946913813319 3.046042527471699  3.112827387255726 1.110195358181116 3.07642915338258  2.987473773058346 1.0352509
[...]
<PointData  Vectors="f_24"> 
<DataArray  type="Float64"  Name="f_24"  NumberOfComponents="3" format="ascii">3.1402238031340103e-02 -4.1472564601711072e-03 -2.2156886125352368e-02  3.0471539593295530e-02 -6.9620187601049125e-03 -1.7024688224732177e-02  3.1689368715006647e-02 -1.7650294033275020e-03 -1.9371913993893382e-02  2.9422445296975144e-02 -7.5191405889438569e-04 -2.0349498900264693e-02  2.8001261938708440e-02 -5.9241396407186536e-03 -1.7822421685065971e-02  2.5256759023601440e-02 -3.6897201903039391e-02 -1.1682497872507736e-02  2.5100647946043286e-02 -3.8831456164183251e-02 -1.5764669103525062e-02  2.4762414729252811e-02 -4.1721150120577047e-02 -9.3726282096237099e-03  2.1942821644315349e-02 -4.0715661567307868e-02 -1.0440366218334560e-02  2.2667939993607115e-02 -3.7098469460231952e-02 -1.6305272123936471e-02  2.2347987280178606e-02 -3.5708912656125011e-02 -1.2596614726553643e-02  1.9304907782598163e-02 -3.9784963098379693e-02 -1.1070087530115194e-02  2.0333191089778938e-02 -3.5730946726027335e-02 -1.6492508899849507e-02  1.9631786723660314e-02 -3.4658896812804187e-02 -1.3100300463439848e-02  1.6744832810706513e-02 -3.8992399347331883e-02 -1.1503093242135385e-02  1.8038781229934311e-02 -3.4663415697544837e-02 -1.6491405234552264e-02  1.6984526540165974e-02 -3.3760496145796313e-02 -1.3427140740750928e-02  1.4180610626221357e-02 -3.8375556154924710e-02 -1.1905684378568057e-02  1.5727702604824260e-02 -3.3872442522136739e-02 -1.6427264874646727e-02  1.4322259482188427e-02 -3.3045704676365563e-02 -1.3729485155890666e-02  1.1551590188865818e-02 -3.7971979041562187e-02 -1.2390017545996796e-02  1.3354975302742322e-02 -3.3348632037304669e-02 -1.6386892778320387e-02  1.1579965801877723e-02 -3.2553357417223483e-02 -1.4108196834977894e-02  8.8117262565036731e-03 -3.7809454470235176e-02 -1.3036907305326133e-02  1.0888281963345766e-02 -3.3085499945438614e-02 -1.6438544475609888e-02  8.7048841536071370e-03 -3.2326011201462640e-02 -1.4614451022971325e-02  2.3262264608701597e-02 -4.8950591309591826e-02 -1.1388538360840606e-02  2.2798471223998085e-02 -5.2202649609895006e-02 -4.6586751021470566e-03  2.3512355356889076e-02 -4.8629386961100730e-02 -6.4788868497252169e-03  2.0980497091200267e-02 -4.7736926196960960e-02 -7.7466039396886094e-03  2.0479812034089894e-02 -5.1397505814293885e-02 -6.1165571034118224e-03  2.1256946042069225e-02 -4.7412773751863563e-02 -1.2203476149888013e-02  1.9304862423350954e-02 -4.6232354868758929e-02 -1.2587319624294661e-02  1.8223989034965440e-02 -5.0701769402997705e-02 -7.0891385601940310e-03  1.8602084739212262e-02 -4.6950775483026175e-02 -8.5897147801522241e-03  1.7381319830839268e-02 -4.5378489348999511e-02 -1.2748274441990153e-02  1.6018775551532749e-02 -5.0163280910036925e-02 -7.8419380499852778e-03  1.6275073935674914e-02 -4.6311756136483646e-02 -9.2183677787975662e-03  1.3948231042355340e-02 -4.5865964438919118e-02 -9.8105370528304391e-03  1.3827083978197381e-02 -4.9821138494665559e-02 -8.5686721300207765e-03  1.5466489752062695e-02 -4.4842251523601037e-02 -1.2832053287925225e-02  1.1586205080778055e-02 -4.5641631089323974e-02 -1.0506026723589440e-02  1.1610999235349433e-02 -4.9711350897127464e-02 -9.4139576238859175e-03  1.3541924939214136e-02 -4.4600317585729646e-02 -1.2971594189933067e-02  9.1566185716946639e-03 -4.5672959066301283e-02 -1.1389662819667397e-02  9.3518752430280863e-03 -4.9883711354309059e-02 -1.0478060656222622e-02  1.1603001246247847e-02 -4.4648401300494037e-02 -1.3246960304685199e-02  2.3781460131159008e-02 -4.8752924189278964e-02 -1.8035899518591633e-02  2.2910495222616574e-02 -5.1118413801923460e-02 -1.3930564940816511e-02  2.1288434177485122e-02 -4.9310595092326479e-02 -1.4184003269972486e-02  2.2344481437084063e-02 -4.6696638662094551e-02 -1.7794263630772522e-02  2.0903555992565267e-02 -4.5271862065832752e-02 -1.7160624947494027e-02  1.9681221307465007e-02 -4.8063534515446482e-02 -1.4013157963055807e-02  1.9454429201482073e-02 -4.4329415520432597e-02 -1.6358092646438425e-02  1.8100507670175677e-02 -4.7263824694430627e-02 -1.3662347963742778e-02  1.7999901060478708e-02 -4.3793738184162392e-02 -1.5509928264472334e-02  1.6541507700199094e-02 -4.6847182662021362e-02 -1.3279234783938115e-02  1.6543519539880803e-02 -4.3609628798204694e-02 -1.4700318904269734e-02  1.5006960914864332e-02 -4.6768290748586266e-02 -1.2961379567084583e-02  1.5091200140954037e-02 -4.3740249646996444e-02 -1.3991464098509272e-02  1.3499271165905475e-02 -4.6987496679234041e-02 -1.2779156905448369e-02  2.6091236055911085e-02 -3.4175536896723126e-02 -1.9032598806278160e-02  2.6303181035443768e-02 -3.6448757436457445e-02 -2.3645199689114334e-02  2.4442312198366588e-02 -3.4222711031007776e-02 -2.3263249058455497e-02  2.3676066586160716e-02 -3.2239614518497044e-02 -1.9388267012473238e-02  2.2597084646948564e-02 -3.2507924614556705e-02 -2.2615907776444601e-02  2.1361461165485283e-02 -3.0691051385560678e-02 -1.9428523557965784e-02  2.0739489850636499e-02 -3.1216321839598753e-02 -2.1820911059828241e-02  1.9078157540158531e-02 -2.9475701079803743e-02 -1.9277657301319740e-02  1.8840453919905881e-02 -3.0288550982108926e-02 -2.0960794193781537e-02  1.6773160151048395e-02 -2.8557602734238848e-02 -1.9043487516442748e-02  1.6879048701302805e-02 -2.9682247250428756e-02 -2.0097879852100351e-02  1.4401859209931598e-02 -2.7916177092925751e-02 -1.8802082881198334e-02  1.4842213144708469e-02 -2.9368806743846124e-02 -1.9278345750725387e-02  1.1918374206162395e-02 -2.7537582778341622e-02 -1.8609016629373407e-02  2.4907930247078512e-02 -4.6834486004212139e-02 1.6289530737275383e-04  2.4445994418417369e-02 -5.2661947443177884e-02 4.1835790323019274e-03  2.4894372990515841e-02 -4.7938297950993636e-02 2.6326673601545845e-03  2.1871405887338029e-02 -4.7693073427700058e-02 2.3181321543062818e-03  2.1515990074550816e-02 -5.2664561305781614e-02 3.4979269909362416e-03  2.1849065147043129e-02 -4.6676592885517648e-02 -6.6577396253545004e-04  1.9023774820837572e-02 -4.7138794086763684e-02 2.0624066582660672e-03  1.8744630854658214e-02 -5.2330835462986870e-02 2.9513236229369070e-03  1.8985085336118288e-02 -4.6228428851148563e-02 -1.2553029301240572e-03  1.6267516294755348e-02 -4.6382511024545860e-02 1.7856242307085523e-03  1.6055776995364340e-02 -5.1790522021970153e-02 2.4341603603877013e-03  1.6219332086839327e-02 -4.5633885181477582e-02 -1.7653202921952649e-03  1.3515167738029436e-02 -4.5506336809743100e-02 1.3998919958374437e-03  1.3369641548269308e-02 -5.1140805699937356e-02 1.8241898808692180e-03  1.3454841172456961e-02 -4.4995635994982644e-02 -2.3408735087829982e-03  1.0676372565808603e-02 -4.4573820852309438e-02 7.9864764243674073e-04  1.0604140347801218e-02 -5.0460329904921185e-02 9.8001811129010412e-04  1.0598721087398387e-02 -4.4403508532589168e-02 -3.1252395929286989e-03  7.6419011300438763e-03 -4.3641052156570138e-02 -1.4014314532275791e-04  7.6609803957731534e-03 -4.9839703817080437e-02 -2.6970101004346444e-04  7.5629771208203670e-03 -4.3947762073636730e-02 -4.2817894743381246e-03  2.5564150458330805e-02 -3.9969197981411277e-02 -2.1611417724269454e-02  2.3772815949227283e-02 -3.7822194150340716e-02 -2.1306405864752742e-02  2.1981659354993528e-02 -3.6191786753148929e-02 -2.0746225726395517e-02  2.0184620064870359e-02 -3.4978605248200935e-02 -2.0029098386057011e-02  1.8358078184910361e-02 -3.4129928134123272e-02 -1.9242751390638919e-02  1.6483433263718591e-02 -3.3606055288783000e-02 -1.8459292165823038e-02  1.4543154637285232e-02 -3.3375902277685360e-02 -1.7735352676885894e-02  2.2233085146817957e-02 -4.9776070768787248e-02 -1.8285313870907677e-02  2.1058419894917198e-02 -4.8431594207637714e-02 -1.7191535221513354e-02  1.9891922776483096e-02 -4.7669958876558872e-02 -1.5974537398592527e-02  1.8751414524307106e-02 -4.7364869526897918e-02 -1.4750531289828672e-02  1.7647427796834581e-02 -4.7431486477844315e-02 -1.3586422850177783e-02  1.6588330546614322e-02 -4.7824658400214624e-02 -1.2520362669039341e-02  2.4944828207781464e-02 -4.3036458827621374e-02 -2.0240134213651326e-02  2.4228736511813325e-02 -4.6183989626800322e-02 -1.8409375056886824e-02  2.4020727123586019e-02 -4.5526124810497955e-02 -1.2922063072526918e-02  2.1831456474848469e-02 -4.3987980698293502e-02 -1.3622057372521550e-02  2.2623635002989240e-02 -4.4140197546709295e-02 -1.8254491371041948e-02  2.3246460155848078e-02 -4.0952832359277297e-02 -1.9933083558201108e-02  2.1014623028947934e-02 -4.2654114091458001e-02 -1.7766301443005835e-02  2.1546848936411532e-02 -3.9397868118037388e-02 -1.9371855198424815e-02  1.9734673159343543e-02 -4.2745962637449772e-02 -1.3930950920934477e-02  1.9837484738815719e-02 -3.8268468001230072e-02 -1.8649516580744374e-02  1.9400107867697462e-02 -4.1622960657216386e-02 -1.7083959087733171e-02  1.7671205157233683e-02 -4.1820250135095438e-02 -1.4013678794430154e-02  1.8103335006731530e-02 -3.7513324930623981e-02 -1.7866395789109691e-02  1.7768697717694078e-02 -4.0968294992455051e-02 -1.6354716307720257e-02  1.5602385010101831e-02 -4.1182537471870541e-02 -1.4036133302450274e-02  1.6333977279766335e-02 -3.7089450209663657e-02 -1.7099669246920003e-02  1.6114759472344427e-02 -4.0651310736708593e-02 -1.5656519777197533e-02  1.3505083836504348e-02 -4.0830737552061576e-02 -1.4095504146758303e-02  1.4518337783218540e-02 -3.6963144185321636e-02 -1.6409914654245458e-02  1.4440098927653942e-02 -4.0635982932934120e-02 -1.5049472600161722e-02  1.1364839009691784e-02 -4.0754885311399452e-02 -1.4267995673431086e-02  2.4595230189700695e-02 -4.2250331306698266e-02 -1.5132700778673380e-02  2.2356205732933600e-02 -4.0564537507207371e-02 -1.5614680111162235e-02  2.0194110957583597e-02 -3.9240021833209605e-02 -1.5765477914607726e-02  1.8066501430920864e-02 -3.8238926249358755e-02 -1.5711865594703150e-02  1.5927147502673152e-02 -3.7533783661398021e-02 -1.5593282818699596e-02  1.3744887122021281e-02 -3.7110486629483463e-02 -1.5502467093674284e-02  1.1493533461216182e-02 -3.6947232100622250e-02 -1.5494544712102137e-02  3.0290271529252507e-02 -4.3287941703117894e-03 -1.4950660064323535e-02  2.8186412321912366e-02 -3.1389969962712051e-03 -1.5488374870642313e-02  2.5692497460632107e-02 -4.7845825319465770e-03 -1.8454592117001678e-02  2.3344709665171329e-02 -4.9441167830600687e-02 5.0318534848937764e-03  2.2310296110605699e-02 -5.2330762910466615e-02 6.1289548659877640e-03  2.2661999578234778e-02 -4.3966534465984114e-02 2.2740043723664346e-03  2.0341149827476899e-02 -4.1939248611172132e-02 4.0002877847252882e-03  1.9869496719429190e-02 -5.0700206089215438e-02 7.8230620148681661e-03  2.0725686497719630e-02 -4.8172321521596305e-02 6.2096162905864571e-03  1.8212004720309632e-02 -4.6697619993774420e-02 7.1457481345990597e-03  1.7509765337571096e-02 -4.8900986253044995e-02 9.2041490384957240e-03  1.8083154569386372e-02 -3.9824760829993838e-02 5.4383271402971807e-03  1.5189023181878194e-02 -4.6917646702015453e-02 1.0377455119038207e-02  1.5750303156668168e-02 -4.5030155083360668e-02 7.8940461838759388e-03  1.5860908588525013e-02 -3.7592804071536680e-02 6.6743159388274334e-03  1.3295696735165887e-02 -4.3163616188853469e-02 8.4936759597623260e-03  1.2872053601861139e-02 -4.4719518098090043e-02 1.1408475916156036e-02  1.3653682929176006e-02 -3.5198041182670253e-02 7.7890452454867521e-03  1.0810181541089849e-02 -4.1076319134503519e-02 8.9655718168238432e-03  1.0535961507113946e-02 -4.2278352820555892e-02 1.2358475670250363e-02  3.2504789920070595e-02 -3.9764806789674050e-03 -3.2761153716535013e-02  3.1123814272900549e-02 -8.2768603854397466e-03 -3.0302206103636552e-02  3.1284609959722369e-02 -5.7928865618418470e-03 -2.5515638696296472e-02  2.8833513185238559e-02 -4.2907158623457465e-03 -2.6628143262320613e-02  2.8915465512128351e-02 -6.1500191106231387e-03 -3.1124029379848275e-02  2.2197496810110358e-02 -1.5729854457266436e-03 -3.1362076624347472e-02  2.4390790656757661e-02 2.8911410045861039e-03 -3.4300386341435153e-02  2.1795893382083088e-02 -5.1816907311438636e-04 -2.8165363979473310e-02  2.4170432976736423e-02 -1.5894590396087975e-03 -2.7807046832765345e-02  2.4507056073062472e-02 -2.8058303477593886e-03 -3.1464879653431380e-02  2.2108116360140675e-02 3.8948467150949685e-03 -3.4256189881507741e-02  1.9771223162054860e-02 -6.2037337084173397e-04 -3.1222476018757467e-02  1.9313939368638098e-02 3.2407644929140423e-04 -2.8501886853035844e-02  1.9665591166370511e-02 4.6383276036104258e-03 -3.4212664448340799e-02  1.7199726305067175e-02 4.6656875464005681e-05 -3.1114366553323822e-02  1.6683557280906879e-02 9.0672422628739326e-04 -2.8898906595798569e-02  2.3138087439195668e-02 -5.6760598461904253e-02 8.3105302681123344e-03  2.3744553058452002e-02 -5.7823552506861095e-02 8.3748479172231875e-03  2.3013928704450019e-02 -6.2745764155651390e-02 1.0920942010580408e-02  2.0974769710030001e-02 -5.7538562560661019e-02 8.4623095890876947e-03  2.0480762205144377e-02 -5.5948596116330830e-02 9.2243080082515597e-03  1.5722383205351079e-02 -5.6052264365730922e-02 8.3925885017023614e-03  1.5425765740505555e-02 -5.3521593584722575e-02 1.0463876893470735e-02  1.5341018176375712e-02 -6.0752157860941160e-02 1.1644768604591285e-02  1.8317837063576349e-02 -5.6923933316344315e-02 8.4781559852272845e-03  1.2843502128086052e-02 -5.9545868651024854e-02 1.1598977581778471e-02  1.3125615247877701e-02 -5.4978744629092129e-02 8.1580455001562194e-03  1.2927092253475986e-02 -5.1956333249941027e-02 1.0838425991799091e-02  1.0301257088433033e-02 -5.8113625739663152e-02 1.1354663576611693e-02  1.0470713419524734e-02 -5.3725037149318526e-02 7.7052050008083227e-03  1.0390541609270249e-02 -5.0153899116270183e-02 1.1055047423373827e-02  7.6659003505401445e-03 -5.6442704751745398e-02 1.0871776171116844e-02  7.7033274724248486e-03 -5.2288808381415197e-02 6.9731094584601404e-03  7.7734687193202756e-03 -4.8072093785231106e-02 1.1113465729117030e-02  2.3380850450647177e-02 -6.2752572035991064e-02 1.0322994861434811e-02  1.5634163062523378e-02 -6.1820816555782331e-02 9.1878469765818947e-03  1.8153008309212584e-02 -6.2434861755495299e-02 9.5953792599468395e-03  1.3116201368125770e-02 -6.1009262006218354e-02 8.6467212050020097e-03  1.0548316684817720e-02 -6.0047468160078034e-02 7.8752009006619224e-03  7.8795911878218952e-03 -5.8946075005474198e-02 6.7491805970983417e-03  2.3459193371574327e-02 -4.7996739595061705e-02 -2.1954588930082564e-02  2.2488853211066605e-02 -4.6619866183087458e-02 -2.0361238983423454e-02  2.1485092339418029e-02 -4.5832437340503657e-02 -1.8678257950172819e-02  2.0471897019085993e-02 -4.5510475075471610e-02 -1.6983779754401070e-02  1.9463281536302529e-02 -4.5569936257634183e-02 -1.5331267009953718e-02  2.5323481113210439e-02 -4.2868826218416207e-02 -6.7902649236685139e-04  2.2213194789104468e-02 -4.2508503555374194e-02 -1.1827942436323288e-03  1.9297488408074340e-02 -4.1875979343894414e-02 -1.5500315459430051e-03  1.6484704962474263e-02 -4.1086895463997346e-02 -1.8914917620502947e-03  1.3673628355089788e-02 -4.0231623388194894e-02 -2.3175853094393700e-03  1.0768392543640726e-02 -3.9387487798250000e-02 -2.9465078174782952e-03  7.6687616883412630e-03 -3.8658744941356821e-02 -3.8906319016716062e-03  2.7140906123862045e-02 -3.2681316370524099e-02 -2.6223209135769223e-02  2.5276249983176968e-02 -3.0359512520253856e-02 -2.5678840337914538e-02  2.3430533633747318e-02 -2.8584285527885896e-02 -2.4911454862876700e-02  2.1564466832551549e-02 -2.7244517676133131e-02 -2.4003567245318217e-02  1.9650726994283964e-02 -2.6273225999670156e-02 -2.3024499889236084e-02  1.7667943393874012e-02 -2.5623455363123205e-02 -2.2026304316592846e-02  1.5602560350045024e-02 -2.5256519806728731e-02 -2.1047204744371186e-02  1.7852934179718442e-02 -5.4029169373165216e-02 -5.6333398299198518e-03  1.8691881921057491e-02 -4.9546498972784771e-02 -1.0333442855100450e-02  2.0643888847950081e-02 -5.0530093232035937e-02 -9.7153628537280864e-03  1.5753150874521938e-02 -5.3651379591361625e-02 -6.4953199832693109e-03  1.6781613248513044e-02 -4.8864666066288046e-02 -1.0719675177372311e-02  1.3676464628133754e-02 -5.3466189584298301e-02 -7.3496814775890467e-03  1.4895212905887443e-02 -4.8472895339137359e-02 -1.1049308676620949e-02  1.1604438536013395e-02 -5.3521688868210578e-02 -8.3412397504712636e-03  1.3021689187146376e-02 -4.8371290473213147e-02 -1.1451682723852202e-02  9.5309625245123038e-03 -5.3868507082526065e-02 -9.5502923648096774e-03  1.1153112726517072e-02 -4.8562584723757601e-02 -1.2006188655084809e-02  2.8394101387265582e-02 -1.9975750101225282e-02 -2.2995900902279591e-02  2.7606377053071580e-02 -2.3537439165744294e-02 -1.8063472857987168e-02  2.8233274156360861e-02 -2.0041290821968854e-02 -1.7723565281456057e-02  2.5319975823694923e-02 -1.8688959375163166e-02 -1.8634235284245636e-02  2.4721623726520675e-02 -2.2059604980241419e-02 -1.8919192592201997e-02  2.5735246870041781e-02 -1.8058214045534465e-02 -2.3666139106556874e-02  2.2584189091691059e-02 -1.7368929160306471e-02 -1.9169178482063481e-02  2.2008088906910264e-02 -2.0698726560399935e-02 -1.9318401009781296e-02  2.3210577138181292e-02 -1.6444801361418147e-02 -2.3875873034313187e-02  1.9923234507791709e-02 -1.6162161519717423e-02 -1.9497464421932880e-02  1.9352566670340788e-02 -1.9514581026283350e-02 -1.9502420769697111e-02  2.0710678820194322e-02 -1.5102643875390703e-02 -2.3859893375354543e-02  1.7245424847624646e-02 -1.5123526379330718e-02 -1.9758161875493938e-02  1.6672632537842375e-02 -1.8536185415367692e-02 -1.9621245648466307e-02  1.8173766410946302e-02 -1.4025692895056714e-02 -2.3753325911883075e-02  1.4475390247315164e-02 -1.4300798301599435e-02 -2.0053433789290122e-02  1.3901811614680404e-02 -1.7793169900351645e-02 -1.9776890328369722e-02  1.5545687959432484e-02 -1.3218916894437709e-02 -2.3640309186679750e-02  1.1547690120254930e-02 -1.3740216792700544e-02 -2.0459309754190445e-02  1.0994301368932443e-02 -1.7315558720879122e-02 -2.0035621254693034e-02  1.2772603072272884e-02 -1.2701111757083295e-02 -2.3567120951768522e-02  3.2500928686710354e-02 -7.5355612606932800e-03 -3.7357423574447352e-02  3.0979251293205536e-02 -4.8390170280425450e-03 -3.7634587330262828e-02  2.5519026159232929e-02 6.9239597588803829e-04 -3.6315205821388703e-02  2.3418667912093856e-02 1.8561900586248374e-03 -3.5656828396434269e-02  2.1156055245338909e-02 2.7445618546174349e-03 -3.5000472226950900e-02  2.4889009401631194e-02 -4.2633597118715026e-02 -4.9953610441084472e-03  2.1843223581673489e-02 -4.2117665175457716e-02 -6.0414043546665602e-03  1.9002256874311924e-02 -4.1466468106993275e-02 -6.7244767946930675e-03  1.6255974341748945e-02 -4.0796216010200434e-02 -7.2639449727208245e-03  1.3506710352329665e-02 -4.0193376312596361e-02 -7.8265317823441264e-03  1.0671763615270424e-02 -3.9739029931563974e-02 -8.5431474077680390e-03  7.6789661207463250e-03 -3.9531043171581619e-02 -9.5127138628799176e-03  2.3509175639638197e-02 -4.2859183818904155e-02 2.0933405470800921e-03  2.1005974479691110e-02 -4.1224648876482479e-02 3.4060243129046819e-03  1.8590371556547348e-02 -3.9455266096344185e-02 4.4687125212423233e-03  1.6227288447351371e-02 -3.7539485010161605e-02 5.3494213564311581e-03  1.3875623906988420e-02 -3.5457415708236406e-02 6.0970297091325907e-03  1.1500640956976820e-02 -3.3168541612519094e-02 6.7483316053186648e-03  2.3935952589375545e-02 -5.7768145099306237e-02 7.2864830017078282e-03  2.1144889213039031e-02 -5.7798395497767281e-02 6.6790385622674982e-03  2.0720157344316210e-02 -6.2776127516286057e-02 9.9474041530120197e-03  1.8477259522248730e-02 -5.7486445063130276e-02 6.1521723634230911e-03  1.5872146248521402e-02 -5.6932713575424426e-02 5.6187466385545061e-03  1.3268714968507487e-02 -5.6226383460764931e-02 4.9740411854158773e-03  1.0601443936974157e-02 -5.5434339650821750e-02 4.0926317304582818e-03  7.7956848702534134e-03 -5.4611989624121143e-02 2.8052863714696698e-03  2.7390966505970487e-02 -2.4792523260018712e-02 -2.1144179257112799e-02  2.7683501117353886e-02 -2.6749618842693203e-02 -2.5182126710671691e-02  2.6712568281320861e-02 -2.8282297787659779e-02 -1.9658923221499848e-02  2.4074533614873987e-02 -2