<?xml version="1.0"?>
<VTKFile type="UnstructuredGrid"  version="0.1"  >
<UnstructuredGrid>
<Piece  NumberOfPoints="1060" NumberOfCells="4508">
<Points>
<DataArray  type="Float64"  NumberOfComponents="3"  format="ascii">11.46641280331104 1.978122275020119 1.394446091484733  11.35112708813064 1.969618428127058 1.427889556521546  11.35397954416854 2.055688654879765 1.298265511165015  11.34753544151227 2.002138674320801 1.248688896117169  11.34681411568483 1.907640142425082 1.391748362997348  11.46161173912474 1.91325535864852 1.356815625174671  11.34107788199354 1.948470048541591 1.198714646285942  11.34231547907771 1.845364512998333 1.355466138507336  11.45672366197889 1.84792781350578 1.319307489095343  11.33487018276668 1.894605872785707 1.148611932250708  11.33796772901803 1.782758807862701 1.319182442196807  11.45189808968412 1.782265947546264 1.281814034876885  11.32901548773711 1.840501187873724 1.098480120627111  11.33387228978227 1.719820606493373 1.282878121325721  11.44714773104993 1.716400315243423 1.24417468401477  11.44257005086261 1.65031626667854 1.206271163277489  11.33004035586849 1.656628147685703 1.246457859766936  11.32356016426388 1.786014796367966 1.048265922193724  11.4383365356169 1.583960083815935 1.167919462011583  11.32652146345419 1.593210887272218 1.209726817368533  11.31849692782392 1.731223033194754 0.9978673701063457  11.13416909211307 1.949121114050913 1.483148170531242  11.01260965547261 1.94416566159979 1.51068751389263  11.10492700604044 2.013121452137105 1.385259079919105  11.09678618448488 1.961600597188983 1.34263379414761  11.00713282191337 1.889155504510666 1.477755671319004  11.12987378782852 1.891441579279574 1.449525481600207  11.08831472408569 1.910047400509391 1.299662988109774  11.00118477254009 1.83399058890714 1.444467295989129  11.12527274469664 1.833587386891385 1.415574203617328  11.08001853500847 1.858296293521921 1.25661793490534  10.99527837114818 1.778593289941384 1.411082538545348  11.12079773359866 1.775484686856045 1.381546857568388  11.0720877382213 1.806296178766142 1.213588119388454  10.98965336574366 1.722971055284742 1.377713114546812  11.1166652206534 1.717121210385723 1.347565027103599  11.06460623438643 1.754031676358774 1.170619320512891  10.98448432329771 1.667119499870029 1.344424366804062  11.11295731644537 1.658500041849037 1.313640458860225  11.05752341701922 1.701508065208752 1.127694806800334  10.97985074377213 1.610993986878529 1.311175209033102  11.10955024764831 1.599595818157727 1.279623108976954  11.24591443997037 2.026037954974446 1.3491621502864  11.23931414941956 1.971155260021494 1.30561875221525  11.23258981222001 1.916109628108199 1.261647774693023  11.22607679544068 1.860840804107217 1.217565072630756  11.21995384550351 1.805286437592474 1.173487004586076  11.21426447393981 1.749439567810947 1.129452379484412  11.20885150353269 1.693275981464313 1.085383497093428  11.58182836547067 1.917454376357157 1.502317995779022  11.46262443809366 1.916118119141014 1.52291848497637  11.4599040153571 1.847602699480436 1.496020715363237  11.58055459574814 1.845495258088406 1.475071447258003  11.45700455963641 1.778561356379468 1.469478679042052  11.57922352851604 1.77276574862162 1.448608781127282  11.45416947977693 1.709156071355226 1.443033339433868  11.57793844056689 1.699670970909899 1.422251027240647  11.45148295553453 1.639472139852304 1.416449434943799  11.57671052239827 1.626393927110415 1.395575614461754  11.4489411370682 1.569559343660349 1.389470787674971  11.57549225774489 1.553085854707726 1.368224010955782  11.44677410219518 1.499432155080526 1.361913310463172  11.57456100859603 1.479815071143863 1.339862973926275  11.34927549822711 1.915516130009321 1.532594075929756  11.22363184984027 1.908947457881894 1.550932395896849  11.24045612397852 1.963493233133518 1.449727038504483  11.23699084766832 1.90393106069111 1.414691733988565  11.22234919522922 1.846170011547253 1.524234036898645  11.3473638821441 1.850194377572064 1.505021252317915  11.23331489111995 1.844140655294255 1.379339874987003  11.22089958406677 1.783173854956967 1.497395029361355  11.34527563597702 1.784521624941057 1.477478263833878  11.22980166906131 1.784056113415312 1.343921709576413  11.21955414953399 1.719947799861903 1.470567154944733  11.34327855746367 1.718537300462028 1.449996941909339  11.22663442947705 1.723667871840904 1.308550150386871  11.21849880298948 1.656457720694911 1.443797640973852  11.34149433736795 1.652254334909946 1.422492115928601  11.22378115840257 1.663017507466688 1.273136177597901  11.2177043417395 1.592712949467186 1.416957297829228  11.33991366134819 1.585694377613871 1.394777743898494  11.22121081960763 1.602175361166788 1.237573824731537  11.21715039957179 1.528752419099052 1.389989301847973  11.33864730465953 1.518911271329314 1.366725763616173  10.90170482671449 1.933209683018327 1.549654364800322  10.95682485274035 1.994978711243567 1.434746708994789  10.94761489208806 1.94553527010398 1.394580100198507  10.8955837904523 1.880229176677757 1.517472198858222  10.93795368180392 1.896137850344169 1.354162894421346  10.88891299830281 1.827176497879313 1.484948770118096  10.92837457348373 1.846609468069278 1.313692194281729  10.8822169916172 1.773938472045306 1.452332008322443  10.91910808666797 1.796885540438667 1.273238947663219  10.87574275407992 1.720515808131874 1.419725491452867  10.91029976045234 1.746941770672376 1.232842312602261  10.86966337887352 1.666905713690563 1.38718201238055  10.90204262629165 1.696762951020043 1.192495513969779  10.86419112865258 1.613074630423994 1.354696560132903  10.84034657723796 1.986563415124752 1.471722972813039  10.832498238791 1.938388717728878 1.433251612807826  10.82414755730447 1.890308004889065 1.394533142103052  10.81580367658271 1.84213648369286 1.355753375045311  10.80771083204977 1.793809004575801 1.316980193030481  10.80004877370219 1.745297306191455 1.278249718596804  10.79297702707771 1.696590583647043 1.23958457411448  10.67148675993447 2.402434172120587 1.208751121411892  10.62044236845561 2.323683532925819 1.269239820808821  10.53078476209601 2.407436116817831 1.23567568219138  10.52096067763968 2.377979732046999 1.188931482744341  10.60982289230341 2.294519477690885 1.221316873543751  10.66078910291796 2.372290511319467 1.160504814662716  10.51085815345799 2.348642086659649 1.142210279320395  10.59885168703613 2.265546912793556 1.173352853311585  10.64980829818322 2.342339135474888 1.112205897391002  10.50062894717021 2.319378899947556 1.095504073289149  10.58773785503568 2.236664923542127 1.125362723304882  10.63869673904075 2.312465828580775 1.063878134530448  10.49041614019084 2.29013243552929 1.048820762541213  10.57666521359546 2.207778008290602 1.07737564266738  10.62758324573967 2.282549718550291 1.015545195957139  10.48035966570796 2.260831575400526 1.002177839889396  10.56579703326701 2.178777451980714 1.029414301062325  10.61661466049561 2.252483857517392 0.9672320060504207  10.4706229217094 2.231343806305295 0.9556183350311036  10.55531887160552 2.149488490426003 0.9814929331569938  10.60597093175288 2.222103816380783 0.9189835251204295  10.79238015962468 1.92321589594731 1.582636616397604  10.78846047310043 1.871804269705961 1.550592078168814  10.78413086182468 1.820377966801659 1.518224217956568  10.77974771648568 1.768827872102714 1.485753694989491  10.7755408737905 1.717128717791689 1.453286166647447  10.77166269284956 1.665261553795237 1.42087732090082  10.76823944778697 1.613236074822542 1.388554308072729  10.6002594832166 2.455320186831697 1.190782151152545  10.59000858581944 2.425170004659607 1.143356043973823  10.57951402356078 2.395157593705665 1.095929166932069  10.56890760678457 2.365220056496541 1.048499275260181  10.55828923555736 2.335262061521043 1.001079785749988  10.54778188325225 2.305198423788065 0.9536889191842421  10.53754288822093 2.274911845679502 0.9063805889629898  11.69599999999863 1.887620868410297 1.62364954668097  11.57528321830415 1.883775600806166 1.627757238112055  11.57589960706063 1.810787305356994 1.61161005390996  11.69599999999859 1.811487169714897 1.608099495707299  11.57637916334359 1.736976205423173 1.596491574955159  11.69599999999855 1.734165996191564 1.594041819337885  11.57676727153965 1.662708614566067 1.581490383838152  11.69599999999851 1.656326540593954 1.579876838169963  11.57709009199111 1.588106483153249 1.566079447168981  11.69599999999847 1.578101928649026 1.565098441791834  11.57747213900626 1.513213232533469 1.550054305054237  11.69599999999843 1.499573644167104 1.549437569956331  11.57776034734044 1.438172613932858 1.533098855983567  11.6959999999984 1.421004087551967 1.532381716461542  11.58355641323343 1.973374455875464 1.397724445611851  11.58180733426137 1.906581374120956 1.357890954842039  11.58010978772298 1.838873363270114 1.318585292235998  11.57842242492118 1.770832697234511 1.279198125826166  11.57680161362248 1.702642748482146 1.239490486894204  11.57524407374694 1.634442469026119 1.199224980889366  11.57393754432897 1.566095122560423 1.158397112957428  10.717012954182 1.973050242133213 1.512375957687812  10.71119039607923 1.925419879138524 1.475837087118333  10.70489919054602 1.877881454998776 1.439057569812631  10.69855990363681 1.830281891516403 1.402213892918668  10.69241688764814 1.782565630720631 1.365374821441643  10.68666098112973 1.73470485636305 1.328574171455923  10.68142317679276 1.686672268255752 1.291856472849944  11.69599999999894 2.326235838514499 1.109445344548114  11.58115272246739 2.31121092413513 1.11635937158023  11.57949777714012 2.435581021587023 1.07101222649718  11.57808580570014 2.410565549395213 0.9969245876924231  11.57890217526508 2.280766239342327 1.043793017935674  11.69599999999891 2.298174301307871 1.032505914971497  11.57667618645357 2.386364059752405 0.9222894371936083  11.5767189930372 2.251071976560531 0.970735474874234  11.69599999999888 2.271377917009197 0.9548359579404668  11.57516986433469 2.362262255789451 0.847386430576023  11.57453361680027 2.22150602
[...]
<PointData  Vectors="f_24"> 
<DataArray  type="Float64"  Name="f_24"  NumberOfComponents="3" format="ascii">-4.8101032483652578e-02 -8.0031672722076508e-02 -5.2739223066885756e-02  -4.6441262034275101e-02 -8.3137662815211399e-02 -5.2452687110837982e-02  -4.8433865891248214e-02 -7.7579486676769699e-02 -5.6305084168147779e-02  -4.7264859862979659e-02 -7.6058444860743549e-02 -5.5744117889231663e-02  -4.5349290058783485e-02 -8.1056751587494230e-02 -5.2762324170034756e-02  -4.6765959411672164e-02 -7.7969266912212454e-02 -5.3092175579683189e-02  -4.6171874334108617e-02 -7.4805488901164022e-02 -5.5652464926818961e-02  -4.4243082828327285e-02 -7.9399958974454454e-02 -5.3293915927183376e-02  -4.5429609864337722e-02 -7.6374606919728610e-02 -5.3675795596534008e-02  -4.5113817219915781e-02 -7.3720090952748410e-02 -5.5794918159124705e-02  -4.3144359065594072e-02 -7.8048784261815565e-02 -5.4011725439943217e-02  -4.4110187084249686e-02 -7.5063400258188917e-02 -5.4457154561287371e-02  -4.4078943855730461e-02 -7.2803959999119955e-02 -5.6044461026758932e-02  -4.2067748679446078e-02 -7.6918421478648136e-02 -5.4885449826390591e-02  -4.2821047090332270e-02 -7.3952795867972959e-02 -5.5397467799647250e-02  -4.1578607905214532e-02 -7.2995114785657747e-02 -5.6479629318180805e-02  -4.1034979546213567e-02 -7.5958843806754495e-02 -5.5895773308059379e-02  -4.3063872350238466e-02 -7.2077107156562015e-02 -5.6354465417463806e-02  -4.0418262251196879e-02 -7.2161080833547817e-02 -5.7698176908167469e-02  -4.0075659957275349e-02 -7.5148310995689166e-02 -5.7035779412338374e-02  -4.2092680878619948e-02 -7.1578830037335534e-02 -5.6715289104964747e-02  -4.3682263862643685e-02 -8.7785403564327694e-02 -5.2207561660808852e-02  -4.2375369290507982e-02 -9.0053079747804091e-02 -5.2357565251688262e-02  -4.5263970318219673e-02 -8.4371815560627103e-02 -5.5485490860582326e-02  -4.4110484318048038e-02 -8.2935743227904729e-02 -5.4922464375726503e-02  -4.1475293161807883e-02 -8.8328250928996155e-02 -5.2175223831795188e-02  -4.2757649625503526e-02 -8.5896554740206105e-02 -5.2259313383176902e-02  -4.3097226475006342e-02 -8.1789004628015055e-02 -5.4774231758723008e-02  -4.0635107063714163e-02 -8.6961559097683785e-02 -5.2251018023355897e-02  -4.1866567983280804e-02 -8.4382085002675702e-02 -5.2571659519089604e-02  -4.2152333763498230e-02 -8.0819789045507129e-02 -5.4834791537904867e-02  -3.9838354793823007e-02 -8.5858690583839409e-02 -5.2511090223591399e-02  -4.1007297948169576e-02 -8.3147251774339598e-02 -5.3064634213643401e-02  -4.1234354388328169e-02 -8.0020709658734146e-02 -5.5010976894329724e-02  -3.9070166635156403e-02 -8.4959538238550625e-02 -5.2906215415385573e-02  -4.0176938692380489e-02 -8.2124946842172752e-02 -5.3699146687847706e-02  -4.0322876619137631e-02 -7.9404964353708030e-02 -5.5265594695535998e-02  -3.8323431945003379e-02 -8.4233835294982004e-02 -5.3415529424580999e-02  -3.9378548869355906e-02 -8.1279088436731525e-02 -5.4460210262930596e-02  -3.9407611833044469e-02 -7.8987081957708455e-02 -5.5598181998958919e-02  -3.7592413877958440e-02 -8.3652571128580558e-02 -5.4028052038119348e-02  -3.8619494355110681e-02 -8.0585848820894493e-02 -5.5338986757739454e-02  -4.6795578406407974e-02 -8.1210347594783683e-02 -5.5408235510121334e-02  -4.5657543057186729e-02 -7.9592351040555995e-02 -5.4968690863569397e-02  -4.4573689251143668e-02 -7.8327318043821356e-02 -5.4916987562498736e-02  -4.3550928096688639e-02 -7.7250531279291060e-02 -5.5095263404435761e-02  -4.2556243305358274e-02 -7.6345926746306914e-02 -5.5411681478367489e-02  -4.1585850992390740e-02 -7.5619449045378470e-02 -5.5827723580081590e-02  -4.0649969361800591e-02 -7.5072791374380637e-02 -5.6343822098084452e-02  -4.7844262223353702e-02 -8.3159722818375095e-02 -4.9291414336909020e-02  -4.6073784960970865e-02 -8.5983303424310945e-02 -4.9171582384810876e-02  -4.4985482176673898e-02 -8.3722100269561145e-02 -5.0535201838422986e-02  -4.6442248096781082e-02 -8.0853352996894653e-02 -5.0851807685214322e-02  -4.3867416886460467e-02 -8.1951287319071239e-02 -5.1948428887892417e-02  -4.5007073100901671e-02 -7.9135288497383771e-02 -5.2383637805797363e-02  -4.2742792128833342e-02 -8.0497551388560143e-02 -5.3445747914037507e-02  -4.3587072907170996e-02 -7.7722611252197482e-02 -5.3973288471236010e-02  -4.1638227490074224e-02 -7.9247502769331027e-02 -5.5079557200645127e-02  -4.2205357816484518e-02 -7.6476928377140638e-02 -5.5713765405516973e-02  -4.0577689006902666e-02 -7.8133583312981786e-02 -5.6900631451515249e-02  -4.0869517659063472e-02 -7.5328621390536796e-02 -5.7677244909851912e-02  -3.9587264519230322e-02 -7.7107641990144901e-02 -5.8944214091489554e-02  -3.9571367766824704e-02 -7.4239583143741211e-02 -5.9915097439711351e-02  -4.4681669746486234e-02 -8.7766666632849544e-02 -4.9451685687772598e-02  -4.3154667125213854e-02 -8.9708666048759683e-02 -4.9557475393166364e-02  -4.5096981049885868e-02 -8.5324209037919777e-02 -5.2450572366955127e-02  -4.4121082002433171e-02 -8.3394655803812390e-02 -5.2656581441864504e-02  -4.2410544830753599e-02 -8.7557585116437409e-02 -5.0380069102621237e-02  -4.3798702127400724e-02 -8.5501507771343008e-02 -5.0522143129778534e-02  -4.3143431162371383e-02 -8.1772008393302023e-02 -5.3046580637662030e-02  -4.1629691974247783e-02 -8.5868484695743888e-02 -5.1339385019131802e-02  -4.2875296562472111e-02 -8.3719368251368151e-02 -5.1711264345597301e-02  -4.2185193070471388e-02 -8.0446948364926774e-02 -5.3634145278957580e-02  -4.0848836455538440e-02 -8.4480448460502067e-02 -5.2411481867816988e-02  -4.1942281725110608e-02 -8.2251660294279924e-02 -5.3004489797711711e-02  -4.1253409122160210e-02 -7.9346031053906932e-02 -5.4378593374314083e-02  -4.0087076160162396e-02 -8.3303455855572819e-02 -5.3619976698670566e-02  -4.1023520381938190e-02 -8.1001679336592705e-02 -5.4431555052068654e-02  -4.0357212549551588e-02 -7.8426023047923260e-02 -5.5260521105633988e-02  -3.9362873985848014e-02 -8.2290364417562545e-02 -5.4989901598322920e-02  -4.0143712101223854e-02 -7.9910118007111910e-02 -5.6023161666075606e-02  -3.9519648415577265e-02 -7.7663394509317848e-02 -5.6272630975869938e-02  -3.8695937329316123e-02 -8.1429628289592090e-02 -5.6539123191773129e-02  -3.9336467618223465e-02 -7.8945326158908494e-02 -5.7800763284769942e-02  -4.0986715614468885e-02 -9.2447525851697229e-02 -5.2097716998368057e-02  -4.3442796810857345e-02 -8.7990706097073615e-02 -5.5323608441777895e-02  -4.2341944671248001e-02 -8.6737007015146209e-02 -5.4651695824656808e-02  -4.0117505521943306e-02 -9.0885726970494685e-02 -5.1754539572583545e-02  -4.1373249763040930e-02 -8.5774477831486451e-02 -5.4363628715559824e-02  -3.9340548262215586e-02 -8.9623806733271749e-02 -5.1662111340874076e-02  -4.0477636691571034e-02 -8.4965988348991717e-02 -5.4259182221966233e-02  -3.8610269401254983e-02 -8.8614877723737301e-02 -5.1740146520809049e-02  -3.9604467543214394e-02 -8.4315470949674579e-02 -5.4249673188365682e-02  -3.7904527237232720e-02 -8.7808227086725144e-02 -5.1938915264560202e-02  -3.8727322870338067e-02 -8.3845894141109753e-02 -5.4302720663532415e-02  -3.7211080251082371e-02 -8.7174584264597024e-02 -5.2236697557939908e-02  -3.7841941171986831e-02 -8.3578694573990642e-02 -5.4425234140970301e-02  -3.6514508806603500e-02 -8.6673303153503425e-02 -5.2632982268961404e-02  -4.2101756135356792e-02 -9.0624125336577807e-02 -5.5361963154760579e-02  -4.1034971877140648e-02 -8.9569845101987691e-02 -5.4551362226022158e-02  -4.0120311320879801e-02 -8.8726040675558560e-02 -5.4077761513680697e-02  -3.9275248641110767e-02 -8.8014746076633316e-02 -5.3785000059483043e-02  -3.8448855722175254e-02 -8.7449877306495588e-02 -5.3583312476547740e-02  -3.7606466880488375e-02 -8.7061487950214164e-02 -5.3435543639356931e-02  -3.6735502018909141e-02 -8.6890399127782417e-02 -5.3358911158649207e-02  -4.8148765937199835e-02 -8.7227601163935894e-02 -6.4389391504746402e-02  -4.6721062821471357e-02 -8.9848847311418956e-02 -6.5576209076852604e-02  -4.6357575241707034e-02 -9.1047800816468571e-02 -6.5351546661767262e-02  -4.5683856023563278e-02 -9.0196095731318912e-02 -6.6429944644209094e-02  -4.5821669737544021e-02 -8.9563941765137239e-02 -6.6040681538597226e-02  -4.7331735032380605e-02 -8.6369407314881852e-02 -6.5273844818510687e-02  -4.5116694820068130e-02 -8.8988708596390534e-02 -6.7176664563308550e-02  -4.5080848545476525e-02 -8.8833837935923587e-02 -6.6329209801020889e-02  -4.6660099614978121e-02 -8.5151856219295594e-02 -6.5882073995873550e-02  -4.4572415075446535e-02 -8.7505593976474921e-02 -6.7630776515323260e-02  -4.4393390102774738e-02 -8.7813797889504802e-02 -6.6434798280551627e-02  -4.6031447460317308e-02 -8.3676779673406726e-02 -6.6245569300158694e-02  -4.3960745828723155e-02 -8.5812546696222708e-02 -6.7786837651606022e-02  -4.3653722118085277e-02 -8.6637593425723261e-02 -6.6308233240940789e-02  -4.5340616135004543e-02 -8.2021724256005374e-02 -6.6355732907575446e-02  -4.3175884942991370e-02 -8.3956912333544423e-02 -6.7590908016042936e-02  -4.2742648558618583e-02 -8.5434226256887930e-02 -6.5858334192280626e-02  -4.4464433497809687e-02 -8.0246261878603189e-02 -6.6160568415383841e-02  -4.2100367316382691e-02 -8.1986182201525898e-02 -6.6940237523772067e-02  -4.1518707489913459e-02 -8.4341534695818246e-02 -6.4920590333886516e-02  -4.3250960233262956e-02 -7.8402717459270327e-02 -6.5583910956140606e-02  -3.9592141845241999e-02 -9.4478106664312861e-02 -5.1888230306350147e-02  -3.8819265353661092e-02 -9.3051970223043290e-02 -5.1367252253508834e-02  -3.8124541063735341e-02 -9.1867307047807975e-02 -5.1092670190676440e-02  -3.7474761730833861e-02 -9.0910896165179611e-02 -5.0995076544710347e-02  -3.6843225569390653e-02 -9.0148363193759448e-02 -5.1018178865320118e-02  -3.6211706978305357e-02 -8.9561326117821222e-02 -5.1131552568520623e-02  -3.5562280931339417e-02 -8.9136026232354379e-02 -5.1311199529454274e-02  -4.7620845261582952e-02 -8.8179061906164369e-02 -6.3708482642694686e-02  -4.6974885695056895e-02 -8.6903240994098144e-02 -6.4981632267720565e-02  -4.6431751852997277e-02 -8.5335971695443602e-02 -6.5893467455112445e-02  -4.5913362190488000e-02 -8.3526403126632912e-02 -6.6505461536151653e-02  -4.5328493569812355e-02 -8.1503579303343912e-02 -6.6835484720280156e-02  -4.4569616732929383e-02 -7.9273753326925572e-02 -6.6857440924036504e-02  -4.3505578288620991e-02 -7.6830560672553505e-02 -6.6489920611441558e-02  -4.7367182980351002e-02 -8.7755129017337785e-02 -4.6387300851037712e-02  -4.5732342557102616e-02 -8.9927305342453925e-02 -4.5940837654050944e-02  -4.4709382096419684e-02 -8.7856972468428093e-02 -4.8512738104038555e-02  -4.6027028848342595e-02 -8.5716423281122833e-02 -4.9199185197803634e-02  -4.3655661023598712e-02 -8.6252272688571996e-02 -5.0748002568190627e-02  -4.4704687399258855e-02 -8.4274531510418985e-02 -5.1335723347121311e-02  -4.2617138061206261e-02 -8.4931608266975364e-02 -5.2910127324570559e-02  -4.3425873167827533e-02 -8.3093916310487750e-02 -5.3386058202239357e-02  -4.1605867943751873e-02 -8.3761690882897602e-02 -5.5203958557819718e-02  -4.2194387908200612e-02 -8.2030891073408621e-02 -5.5607345481967746e-02  -4.0630258932475162e-02 -8.2670285436296440e-02 -5.7785979290409718e-02  -4.0995591529331687e-02 -8.1003535680746155e-02 -5.8205391933956636e-02  -3.9688386088881679e-02 -8.1611074872985828e-02 -6.0779196937317544e-02  -3.9806890907496069e-02 -7.9942021480484335e-02 -6.1391145181906782e-02  -4.9587534350857956e-02 -7.8089095882733078e-02 -5.2200349433731481e-02  -4.8030012427244820e-02 -7.5886483099412858e-02 -5.2782618114462172e-02  -4.6462523842899305e-02 -7.4142454140480582e-02 -5.3548230157675042e-02  -4.4903144992118955e-02 -7.2688520255323311e-02 -5.4476469548222148e-02  -4.3373498876362160e-02 -7.1424640226842778e-02 -5.5543352356114288e-02  -4.1882772407483261e-02 -7.0302953651411454e-02 -5.6743859168885712e-02  -4.0425329672868049e-02 -6.9296727707116201e-02 -5.8080861331983778e-02  -4.0433163481887448e-02 -9.3328601838123484e-02 -5.5189898288208722e-02  -3.9480404734528483e-02 -9.2434129082824196e-02 -5.4202228738218949e-02  -3.8639549930067491e-02 -9.1703450235279732e-02 -5.3518765516927712e-02  -3.7864783092513815e-02 -9.1094867726561848e-02 -5.3021082806885944e-02  -3.7104993262179295e-02 -9.0625340185101974e-02 -5.2615534091053830e-02  -3.6320124752913123e-02 -9.0323400983568544e-02 -5.2255004362192221e-02  -3.5478382605695850e-02 -9.0211758814757140e-02 -5.1928718199688265e-02  -5.2699875089457227e-02 -6.5885877607855303e-02 -6.3150170938917283e-02  -5.2560027659122918e-02 -6.6858536727525064e-02 -6.2465771936443724e-02  -5.2747223638936441e-02 -6.6002297897646153e-02 -6.2991299901927048e-02  -5.3230410960667801e-02 -6.5174070104423026e-02 -6.2696508806512105e-02  -5.2505482375128920e-02 -6.6503788974416236e-02 -6.1754723561354252e-02  -5.2992960716979884e-02 -6.5469302324313694e-02 -6.2567260525506652e-02  -5.3825850041337595e-02 -6.3695147392823004e-02 -6.2484106775545785e-02  -5.2542892789099370e-02 -6.5422315616546947e-02 -6.1377070812065115e-02  -5.3365422718195228e-02 -6.3994040970370480e-02 -6.2402592690852347e-02  -5.4501894096730126e-02 -6.1907336760333588e-02 -6.2290816934692426e-02  -5.2645004300047371e-02 -6.4056783441933302e-02 -6.1133235182172119e-02  -5.3813003177154532e-02 -6.2188949771431329e-02 -6.2376270216516989e-02  -5.5218934969085594e-02 -6.0106836622791399e-02 -6.2026469308921667e-02  -5.2774432578457417e-02 -6.2755148007130251e-02 -6.0853046458328570e-02  -5.4311146323490059e-02 -6.0463344990510280e-02 -6.2283985252465590e-02  -5.5936331658601068e-02 -5.8566076576350018e-02 -6.1581688294076523e-02  -5.2896833905445945e-02 -6.1802032853063127e-02 -6.0405848114836652e-02  -5.4825397701198555e-02 -5.9168894669422108e-02 -6.1963112299773263e-02  -5.6623386802287130e-02 -5.7587374148984342e-02 -6.0833477191659713e-02  -5.2988729266662017e-02 -6.1470697914206514e-02 -5.9710222019082763e-02  -5.5294385470799873e-02 -5.8749608449459492e-02 -6.1245853333654225e-02  -4.4904247336105672e-02 -8.7246172101232727e-02 -5.9366982914150122e-02  -4.3683718765921198e-02 -8.6925019767091827e-02 -5.8509709538107114e-02  -4.2696353127445755e-02 -8.6342102506906049e-02 -5.8008135930018606e-02  -4.1812021121337979e-02 -8.5724066320378531e-02 -5.7658871509942262e-02  -4.0937657137621083e-02 -8.5193329998249523e-02 -5.7338391458374036e-02  -4.0009807541213860e-02 -8.4855095069766628e-02 -5.6971241874028987e-02  -3.8969189915378302e-02 -8.4791182153052341e-02 -5.6537542292676282e-02  -5.2456571543213718e-02 -6.2649851424588898e-02 -4.5799462057707754e-02  -5.2670646582953229e-02 -6.5788683763130434e-02 -5.1105163814635042e-02  -5.2014286910771673e-02 -6.5717245987407219e-02 -4.8489278808247993e-02  -5.2427998768120578e-02 -6.1897245710932525e-02 -4.9514222944439683e-02  -5.3120075310838906e-02 -6.2346896462845233e-02 -5.1948907577272177e-02  -5.3222116854494843e-02 -5.8568534688542617e-02 -4.6629483544087170e-02  -5.2903749410676208e-02 -5.8238653644341630e-02 -5.0278461181459698e-02  -5.3659362781482346e-02 -5.8976906009638480e-02 -5.2545415751488501e-02  -5.4007802710878350e-02 -5.4697834668004347e-02 -4.7239506086454268e-02  -5.3408653588537636e-02 -5.4625986424417163e-02 -5.0871399780916510e-02  -5.4246005247078115e-02 -5.5626745167278925e-02 -5.2973272964694389e-02  -5.4823541197482360e-02 -5.0907373948029050e-02 -4.7721414624637457e-02  -5.3921567736965756e-02 -5.0957988788461195e-02 -5.1349452281984752e-02  -5.4849618653275964e-02 -5.2236512262591121e-02 -5.3277281618924269e-02  -5.5660176774949631e-02 -4.7085511898347851e-02 -4.8130310164989816e-02  -5.4425717705479701e-02 -4.7129464996193790e-02 -5.1739216407960566e-02  -5.5444116700377653e-02 -4.8743499962708145e-02 -5.3469420381544321e-02  -5.6513118146066077e-02 -4.3111092769727744e-02 -4.8492486206898923e-02  -5.4912519411963692e-02 -4.3042641350069161e-02 -5.2059172247155228e-02  -5.6012555867379389e-02 -4.5068752062972166e-02 -5.3495917750552423e-02  -5.7383974164033569e-02 -3.8830224836316304e-02 -4.8803462888570112e-02  -5.7528666593606774e-02 -4.6855127994853002e-02 -4.5865203162426413e-02  -5.8389118047258923e-02 -4.6682538105310027e-02 -4.7751325672982500e-02  -5.9061340241294828e-02 -4.2552603394973403e-02 -4.6146186340434471e-02  -5.9059144883652735e-02 -3.7734226788778129e-02 -3.8243904330148099e-02  -6.0179213453624578e-02 -4.2301105678517588e-02 -4.7987267811129344e-02  -6.0614044546033995e-02 -3.8018829461244769e-02 -4.6458893859467998e-02  -6.0476847163267337e-02 -3.2786584368397813e-02 -3.8535888650058109e-02  -5.1721551152488235e-02 -6.9864017415857183e-02 -6.0813250161603445e-02  -5.2376896106194129e-02 -6.8579364216909189e-02 -6.2071044594494557e-02  -5.2177670905090498e-02 -6.8003305267887990e-02 -6.1549419026099707e-02  -5.1087979731770580e-02 -6.9346282584477156e-02 -5.9931172406009432e-02  -5.0598276954071243e-02 -6.8340948335168197e-02 -5.9532480921554339e-02  -5.2113071153339907e-02 -6.6868035545542562e-02 -6.1214869689597440e-02  -5.0170340904005843e-02 -6.7214406685788305e-02 -5.9301796947750639e-02  -5.2123316443108955e-02 -6.5501691773969903e-02 -6.0940731111013079e-02  -4.9765716989999743e-02 -6.6194198489419140e-02 -5.9067069768059394e-02  -5.2164516225885429e-02 -6.4154536769517392e-02 -6.0619192483205596e-02  -4.9350309968104730e-02 -6.5478403081743214e-02 -5.8728497446079012e-02  -5.2188370665243622e-02 -6.3054226222878401e-02 -6.0152856247658572e-02  -4.8907546570727246e-02 -6.5237047141177396e-02 -5.8239300625209836e-02  -5.2147552646618918e-02 -6.2446195775048181e-02 -5.9462926532387217e-02  -5.0505911053614017e-02 -7.2946740148307640e-02 -5.8794532209865601e-02  -4.9767912220842939e-02 -7.4786943140902007e-02 -5.9350344882916274e-02  -4.8841407837434667e-02 -7.4038083092186707e-02 -5.8531223170844693e-02  -4.9471528887991327e-02 -7.2073566438243503e-02 -5.7854382384556438e-02  -4.8037549516730844e-02 -7.3033385870076697e-02 -5.8186734209769435e-02  -4.8579735468319236e-02 -7.1011238074232486e-02 -5.7524029566598280e-02  -4.7303182387963674e-02 -7.2002508203943216e-02 -5.8039450719561042e-02  -4.7731889415826345e-02 -6.9977084394370448e-02 -5.7431085468229275e-02  -4.6588338669214593e-02 -7.1097564977054065e-02 -5.7930372471581282e-02  -4.6901232526022296e-02 -6.9092812030149831e-02 -5.7392660690345480e-02  -4.5865071142986269e-02 -7.0435528075489043e-02 -5.7783377559863028e-02  -4.6082938212700660e-02 -6.8458310737326750e-02 -5.7325319024452308e-02  -4.5113569687350308e-02 -7.0099815230696999e-02 -5.7571051325138879e-02  -4.5295555738562358e-02 -6.8147656696400646e-02 -5.7193314367466629e-02  -5.2851439550683707e-02 -6.7469814261788094e-02 -6.1957869700711682e-02  -5.3016417762509371e-02 -6.6391097800119134e-02 -6.1794477591774706e-02  -5.3314346359078883e-02 -6.4879879154279924e-02 -6.1619249065685146e-02  -5.3690316538947659e-02 -6.3136329671885677e-02 -6.1409968343624610e-02  -5.4094820637754323e-02 -6.1367531900027972e-02 -6.1109090356528208e-02  -5.4472936879714516e-02 -5.9777661169239646e-02 -6.0634146770303154e-02  -5.4776688297603862e-02 -5.8613959125529670e-02 -5.9910059035806013e-02  -5.2280173263396540e-02 -6.5281142859247382e-02 -6.3692867216465374e-02  -5.2802609371504335e-02 -6.5616051612476925e-02 -6.1720814657829824e-02  -5.3619996223657887e-02 -6.4041613149358800e-02 -6.1770102349973294e-02  -5.3643773302592256e-02 -6.3701941762170700e-02 -6.3689867048860746e-02  -5.4536406092151359e-02 -6.2043240010762633e-02 -6.1737625901441037e-02  -5.5048594486942708e-02 -6.1423613078509319e-02 -6.3695594043175666e-02  -5.5525026897911840e-02 -5.9806288215141216e-02 -6.1642377567210888e-02  -5.6510838636915563e-02 -5.8852258995956391e-02 -6.3687811936592939e-02  -5.6552713893428232e-02 -5.7522642590680788e-02 -6.1457681720840443e-02  -5.8035066588823937e-02 -5.6250143308558709e-02 -6.3614643704182544e-02  -5.7581922590351754e-02 -5.5378796823152880e-02 -6.1111338868718612e-02  -5.9625742278331069e-02 -5.3847397490572269e-02 -6.3381783257311322e-02  -5.8566121726428742e-02 -5.3569910591616469e-02 -6.0480898316516436e-02  -6.1292141240883405e-02 -5.197690262