<?xml version="1.0"?>
<VTKFile type="UnstructuredGrid"  version="0.1"  >
<UnstructuredGrid>
<Piece  NumberOfPoints="1028" NumberOfCells="4434">
<Points>
<DataArray  type="Float64"  NumberOfComponents="3"  format="ascii">4.175382251215987 1.89066375862255 1.144366198394927  4.313284334003245 1.95468364794356 1.106753064570696  4.287614506885986 1.829307452007339 1.165007799849791  4.284912375386953 1.805585176997481 1.112407859812531  4.311323540088407 1.930539169255838 1.053571194242713  4.171890653569598 1.866609157204545 1.091800203606474  4.168364479207303 1.842544222456423 1.039252785929369  4.309371829710147 1.906404750164555 1.000392487616996  4.282192576205251 1.78186608842668 1.059823247876976  4.16482307413039 1.81848097355563 0.9867364924676982  4.307424935169019 1.882281016172825 0.9472370215204715  4.279467639224284 1.758152344116575 1.007264227228767  4.161283360985188 1.794415780014712 0.9342539410393367  4.305478056876718 1.858155126212672 0.8941157115568364  4.276749072752347 1.73443750465004 0.9547367328162232  4.274047902031289 1.710709729549123 0.9022383728245272  4.303527175555101 1.834007721261991 0.8410319034833015  4.15776291719644 1.770342048045877 0.8818051377582298  4.27137484032178 1.686959915350061 0.849761111743159  4.301565867489618 1.809818242556465 0.7879790960280576  4.154286378044515 1.746253364326318 0.8293729132263149  4.188180891407814 2.014385291188322 1.085720962555146  4.184952370527328 1.989495563592784 1.032372570798143  4.18170423350564 1.964608741176338 0.9790364919870546  4.178445376738425 1.939730825804205 0.9257257894549836  4.175183227995509 1.914851264505092 0.8724505589401018  4.171926502057516 1.889950586115682 0.8192138501450428  4.168686688428177 1.865004070754936 0.766008072549753  3.889196771455666 2.429817746526651 0.9168041119062502  4.009979877976614 2.539324876406854 0.8506611535304324  4.024546835361051 2.399958985081481 0.9127232670111758  4.017865423969321 2.371828261720735 0.8529495698804811  4.002484037568657 2.513962682106721 0.7858152364855281  3.880408277124418 2.402552812243542 0.856223942373469  4.011140640514372 2.343760007280813 0.7931911044012412  3.994962555855104 2.488668938732329 0.7210090798086518  3.871573818584828 2.375333489240692 0.7956941760756397  4.004379002071939 2.315748295473622 0.7334632534375121  3.987408951817756 2.463443167766464 0.6562560149988848  3.862695812267338 2.348173330967778 0.7352141193753393  3.997605383888107 2.28774995111154 0.6737879384488289  3.979848346736107 2.438233953929716 0.5915687171051813  3.853806355374683 2.321035106629362 0.6747948375061561  3.990841804651547 2.259715987443957 0.6141813765250402  3.972296772987649 2.412989219278312 0.5269577269117294  3.844941035992138 2.293876469393893 0.6144519743960768  3.984126657207476 2.231585840564439 0.5546556512160238  3.964779967719696 2.387650707858071 0.4624240210288523  3.836165023461747 2.266644797441099 0.5542013784246884  4.38853744187291 2.426156435544905 0.8865530472082751  4.393545286871927 2.573654749748284 0.8300678393413992  4.506103329340281 2.463048783749543 0.8806729050420987  4.511400237478399 2.438780279493171 0.81945646105428  4.397873331625642 2.551121362766317 0.7647198882152438  4.391317298279108 2.400107341994399 0.8260143930921933  4.51681371126633 2.414601995763615 0.7582724677685134  4.402292402799242 2.52868228799264 0.6994243435298292  4.394187966869479 2.374147298662178 0.7654802559528673  4.522276096308402 2.390503149748616 0.6971373577354718  4.406747463199887 2.506320968917198 0.634187471357393  4.397082825882157 2.348247647210023 0.7049799396154256  4.527720008563594 2.366431217217489 0.6360694760455742  4.411189026126294 2.483986722171002 0.5690215766019178  4.399955521386781 2.322363858654221 0.6445379345268188  4.533079805474897 2.342324694687852 0.5750838146660519  4.415558821083992 2.46161325624182 0.5039401485621138  4.402758195673483 2.296440227063772 0.5841754451583261  4.538287288746044 2.318112823829341 0.5141861675731786  4.419791549735211 2.439133486514415 0.4389483580676237  4.405436691305242 2.270415086103693 0.5239071869034657  3.68422890083767 2.21604337823327 1.041538996904296  3.802249177754729 2.246259520028435 1.014798859737778  3.821032046325574 2.137800910146742 1.061363168695634  3.815074387350271 2.112885909938997 1.006402622112045  3.795229880025774 2.220122032713872 0.9584134776115585  3.67812992576827 2.19098249996088 0.9852933282247315  3.80907314049061 2.087974150959856 0.9514840123998786  3.788170464831659 2.194001073860056 0.9020729192770331  3.672016389173439 2.165937242439991 0.9291042672820834  3.78107315984964 2.167917517931352 0.8457727782808503  3.665881022281332 2.140919037918856 0.8729547382657046  3.803043091441481 2.063086147573613 0.8966127160973891  3.773964841605658 2.141848200252917 0.7895261320002909  3.659736064683524 2.115914510494426 0.8168603949203412  3.797004845057244 2.038205005765189 0.8417903692135659  3.766872902167437 2.115764019141086 0.7333438220156753  3.653596903831477 2.090902534167427 0.760841110337239  3.790982241315071 2.013310154432674 0.7870230492619444  3.759854031029766 2.089625335406437 0.6772373552695551  3.647497501664601 2.065858304900824 0.7049189908582469  3.785024981407958 1.98838266074744 0.7323170304135477  4.248159025964814 1.505340007202361 1.321973297753712  4.351924107207393 1.503041531184378 1.320311511153946  4.305829071564053 1.412550496372835 1.373176630185792  4.30399079006736 1.381109625929971 1.322678585828039  4.350564973212967 1.474624196002761 1.268790945712405  4.245381118551156 1.477609447911858 1.270335194931556  4.302059107993758 1.349677124556326 1.272190106551788  4.34917486245984 1.446213217623986 1.217273170869401  4.242517603163643 1.449881703624002 1.218721957497598  4.300102380377305 1.318254247402713 1.221725259581369  4.347777196558892 1.41780595576206 1.165775517944097  4.239628496630354 1.422160187007695 1.16714200250821  4.298165427042485 1.286838601050674 1.171285490847435  4.346398230718478 1.389401201622474 1.114301458977561  4.236758095426308 1.394446095999389 1.11559366529347  4.296287439938344 1.255427079020634 1.120863108128958  4.345058903378312 1.360997851005602 1.062845128000913  4.233946770236571 1.366741637702883 1.064068949836872  4.294512928128361 1.224012974898517 1.070442478139736  4.343764726195083 1.332591918359069 1.01139078494052  4.231237999218727 1.339044488685998 1.012547365473219  3.450187668713248 2.13676030613993 1.096237968007939  3.5515785663922 2.263811817015082 1.033982841254719  3.587134280571705 2.155461272661626 1.078820748183404  3.582230109743364 2.131556673043518 1.023144829598809  3.546131670930459 2.238964269384286 0.9767102490562386  3.44637283873471 2.11357765770288 1.040325754253915  3.577342288332191 2.107670426186398 0.9675290347467502  3.540702409422216 2.214141232278735 0.9194937453496426  3.442610828764723 2.090424072178568 0.9844610151736908  3.572451020929614 2.083807433984637 0.9119596853341295  3.535270640392636 2.189351324015817 0.862332742002079  3.438869888055595 2.067291442579184 0.9286414730297001  3.567553129878124 2.059952230621985 0.8564426161103428  3.52983003241817 2.164575917123745 0.8052319979314957  3.435124742992504 2.044163915013533 0.8728726913673417  3.562643811717838 2.036086923391519 0.8009897270170266  3.52437839756623 2.139792981274578 0.748208774448373  3.431342347303774 2.021025142335997 0.8171706750735135  3.557723641399615 2.01219002562318 0.7456240801004096  3.518924112841849 2.114974133991385 0.691291097051713  3.427486722987552 1.997850085457382 0.7615689270025245  3.910440066608796 2.766822875670182 0.7970906728574483  4.028803323536591 2.82020968875207 0.7695571735939716  4.030399465765532 2.686521714652442 0.8009631230390306  4.022918596592762 2.66723164601748 0.7303945385526197  4.020581163463466 2.812226201619986 0.6937874479839734  3.898892955286708 2.754031429861648 0.7236893894640636  4.015424020965329 2.64803708919117 0.6599307038554009  4.012353373937184 2.80426549898097 0.6181804502058688  3.887318224576136 2.741257931072743 0.6504451676916531  4.007938112192291 2.628903288624252 0.5895532494902581  4.004147806898046 2.796329974296385 0.5426975058527067  3.875766922195925 2.72850599259636 0.5773114944763806  4.000454008863499 2.609784803765456 0.5192528216896751  3.99596208932851 2.788408827571186 0.4673094922399474  3.864230168638112 2.715769364444321 0.5042702186377968  3.992971199936914 2.590631972520622 0.4490283908284779  3.987782837799847 2.780456395810971 0.3920128544102836  3.852712953538602 2.703014704440363 0.4313227965908036  3.98549821588809 2.571392100163541 0.3788721922401105  3.979598823270891 2.772415118959195 0.3167884257252859  3.841253024211631 2.690210259546784 0.358466653284516  4.099737772544419 1.539261646837002 1.31503633818492  4.164993929227124 1.426417561912783 1.373464793286182  4.161041261100372 1.395787017126675 1.322974576599398  4.095673239502194 1.512162342741677 1.263616926771195  4.156925911331787 1.365170666259285 1.272532080925548  4.091490070638594 1.485063919830052 1.212244159171705  4.152755233370506 1.334571149059495 1.222129544965464  4.087264741128473 1.457976530417482 1.160918204576066  4.148600827422636 1.303987675792389 1.171762917421817  4.083051228978681 1.430902527811656 1.109633266724624  4.144533512312154 1.27341916861283 1.121426617155371  4.078903948953269 1.403845562890224 1.058385282185851  4.14065440924525 1.242859114370871 1.071106866918142  4.074910850656671 1.376806234647638 1.007163922609267  3.204618717852869 1.782924745426742 1.236761688189237  3.37217632139525 1.808870398547637 1.226655945803085  3.315435341178792 1.705928878309265 1.266569709806456  3.315930778372022 1.684096382120992 1.211569398453743  3.371729851255738 1.787776405270695 1.171891988547196  3.20460884439087 1.762229284451772 1.180935507985557  3.316591637662154 1.662258639340599 1.156598142866289  3.371418756598993 1.766675580027501 1.117157549443292  3.204765790428771 1.741542418913601 1.12511503
[...]
<PointData  Vectors="f_24"> 
<DataArray  type="Float64"  Name="f_24"  NumberOfComponents="3" format="ascii">1.1829361272004555e-04 -1.1632842565460985e-03 -8.5077864708627243e-04  1.1211938776316247e-04 -1.1201800978518940e-03 -7.2348163122975065e-04  1.1339582520866847e-04 -1.1301543869028363e-03 -7.9891254390620896e-04  1.5309495167753948e-04 -1.1223945809731017e-03 -8.1337718830116698e-04  1.5181530560549685e-04 -1.0934402884061427e-03 -7.4620346324859364e-04  1.5782348037834959e-04 -1.1474078938227838e-03 -8.7141940639546536e-04  1.9656346498712410e-04 -1.1278287452108785e-03 -8.8527033481143505e-04  1.9067540428671537e-04 -1.0639510377410154e-03 -7.6210055460142190e-04  1.9177773872892023e-04 -1.1100625910632634e-03 -8.2190889159799952e-04  2.3509159564107939e-04 -1.1047697354088074e-03 -8.9289656799934993e-04  2.2910132551444659e-04 -1.0315437802491860e-03 -7.7193930193166329e-04  2.3001141124080190e-04 -1.0940020277305246e-03 -8.2487977607242685e-04  2.7400838201674540e-04 -1.0783056478590721e-03 -8.9452010259994026e-04  2.6765611661947689e-04 -9.9580604180299760e-04 -7.7614695116819620e-04  2.6849006505987375e-04 -1.0750110911119219e-03 -8.2221352169662885e-04  3.0807492414484716e-04 -1.0535433583264808e-03 -8.1333172040048572e-04  3.0699163393046780e-04 -9.5612381638637898e-04 -7.7457738224406619e-04  3.1410423310851453e-04 -1.0482666141952296e-03 -8.8969638241220643e-04  3.4963078741138390e-04 -1.0301047003446644e-03 -7.9693123174069300e-04  3.4768121321183249e-04 -9.1143321062917416e-04 -7.6679532024312566e-04  3.5609963811245629e-04 -1.0141779700218866e-03 -8.7717398982866692e-04  1.2005748325395291e-04 -1.1473236886381489e-03 -7.5993301867508867e-04  1.5959326250336597e-04 -1.1117552024334243e-03 -7.8875281930188674e-04  1.9841498327577208e-04 -1.0743833945844807e-03 -8.1009315452957589e-04  2.3711964688335582e-04 -1.0345379644382587e-03 -8.2496264384030024e-04  2.7618281464174992e-04 -9.9105441818763134e-04 -8.3416271248733026e-04  3.1611578966704096e-04 -9.4240159712506754e-04 -8.3811461709755431e-04  3.5742943667629759e-04 -8.8651437419309863e-04 -8.3684663473680742e-04  1.5782648195284687e-04 -1.0085223530885866e-03 -3.9608851862267514e-04  1.6715984721635971e-04 -8.5617446203029794e-04 -1.5114258334439896e-04  1.5414247122520419e-04 -9.8410540504159129e-04 -3.6265380887750529e-04  1.9332487638694815e-04 -8.9246116090778752e-04 -4.0611345481921326e-04  2.0661668106683652e-04 -7.5059838402670757e-04 -1.8295294767201018e-04  1.9702365719729173e-04 -9.1189838757222319e-04 -4.3938353288967754e-04  2.3196142990801640e-04 -8.0720943201261148e-04 -4.4343155476216453e-04  2.4550698634303518e-04 -6.5492080474307255e-04 -2.1333312924041827e-04  2.3573796297210383e-04 -8.2306304476410439e-04 -4.7712405309269191e-04  2.7043728887804637e-04 -7.2405083490475965e-04 -4.7719863694386323e-04  2.8372946388099550e-04 -5.6289572188998442e-04 -2.4366797608202630e-04  2.7402711079000752e-04 -7.3663619689337122e-04 -5.1175078054383448e-04  3.0886393245038458e-04 -6.3908379426980859e-04 -5.0986224735457576e-04  3.2147397133374653e-04 -4.7016135954898171e-04 -2.7581435546411803e-04  3.1218454921100997e-04 -6.4854673188450044e-04 -5.4560395647412459e-04  3.4738155412241919e-04 -5.4876537634466344e-04 -5.4384651966786685e-04  3.5885247349738025e-04 -3.7354947346245006e-04 -3.1154534371768868e-04  3.5045667175404764e-04 -5.5514451158155038e-04 -5.8110678145382934e-04  3.8602753022266921e-04 -4.5001227892110546e-04 -5.8182973641029013e-04  3.9590810578568207e-04 -2.7094149347619303e-04 -3.5265437575636465e-04  3.8892749230994521e-04 -4.5325137515149461e-04 -6.2094936797650060e-04  1.3850657251787831e-04 -8.6481182585700534e-04 -1.2220732582303583e-04  1.4624707621703801e-04 -7.3964973678073982e-04 9.6965530225176296e-05  1.2782642163773329e-04 -8.1912506673331069e-04 -8.2903326184472152e-06  1.6365749519294012e-04 -7.2701985196443756e-04 -3.2251965444476344e-05  1.8178708345721733e-04 -6.3846320951461185e-04 8.0828726814303979e-05  1.7575145213427433e-04 -7.7341319314602145e-04 -1.5185773006647766e-04  1.9906024553600522e-04 -6.4226667726512458e-04 -5.3079355638767253e-05  2.1727305187109846e-04 -5.4691284555130365e-04 6.4526904877815078e-05  2.1266709123818030e-04 -6.8903123045703063e-04 -1.7729626669953262e-04  2.3419460135756933e-04 -5.6049218919394436e-04 -7.2448654237172461e-05  2.5260662636400071e-04 -4.5953517353659130e-04 4.6664784682633383e-05  2.4918447238840260e-04 -6.0723035154125579e-04 -2.0064272589991904e-04  2.6920198434741087e-04 -4.7807801289519224e-04 -9.2311163228198730e-05  2.8796749422834681e-04 -3.7228315994748625e-04 2.6071308162178794e-05  2.8551580009286026e-04 -5.2423944352572225e-04 -2.2391279761633671e-04  3.0417916593173278e-04 -3.9188751411797481e-04 -1.1447147285813379e-04  3.2350566273307824e-04 -2.8221102292494069e-04 1.5439731998009529e-06  3.2174339798910813e-04 -4.3685423806724661e-04 -2.4913310779769510e-04  3.3920724920100088e-04 -2.9923735654324821e-04 -1.4085455146480223e-04  3.5941545951816297e-04 -1.8725701161185809e-04 -2.8194916327204796e-05  3.5787281738904823e-04 -3.4255981750155222e-04 -2.7857815582566983e-04  1.4891462171531255e-04 -1.2367524867942902e-03 -8.4978785206538923e-04  1.4484804611645705e-04 -1.1812073299945498e-03 -7.3337995499835854e-04  1.3972530912361464e-04 -1.2263411035428251e-03 -8.6685229667764630e-04  1.7735520571307128e-04 -1.1708184361491078e-03 -9.0683619379506404e-04  1.8273427822326408e-04 -1.1087850897905276e-03 -7.7784006643810048e-04  1.8599045864610401e-04 -1.1683619159549375e-03 -8.9309526436627583e-04  2.1484314313340139e-04 -1.1161085838915659e-03 -9.3820328460964605e-04  2.2038044206641535e-04 -1.0395586591072947e-03 -8.1435769077765560e-04  2.2269857630162769e-04 -1.1023502259190400e-03 -9.2769468109937857e-04  2.5802951310630555e-04 -9.7026576558295618e-04 -8.4453174891081144e-04  2.5944921124898529e-04 -1.0359293297100352e-03 -9.5572075050207115e-04  2.5253011067953650e-04 -1.0598309416147487e-03 -9.6242501434963036e-04  2.9613807711492701e-04 -8.9776861416740624e-04 -8.7044616959507039e-04  2.9666000075380286e-04 -9.6594504959972456e-04 -9.7867224375744466e-04  2.9074029622667914e-04 -9.9972266561633135e-04 -9.8109897329879715e-04  3.3518450164517688e-04 -8.1859161065772862e-04 -8.9393259624684568e-04  3.3491526639295140e-04 -8.8890678614058684e-04 -9.9825695609492772e-04  3.3018003234385206e-04 -9.3290561763814455e-04 -9.9547185107907001e-04  3.7572167426535739e-04 -7.2852143955126636e-04 -9.1706419690988790e-04  3.7505657905966721e-04 -8.0100861373226051e-04 -1.0163849167677242e-03  3.7150478148725386e-04 -8.5618873584523622e-04 -1.0066170600402809e-03  1.3599978976448714e-04 -1.0809172273692040e-03 -7.5772133640711987e-04  1.2979469838748117e-04 -1.0599633837068078e-03 -6.9137156609783775e-04  1.4077702070759373e-04 -1.0465151306370002e-03 -6.5440877839186029e-04  1.7536130718075871e-04 -1.0747555160449639e-03 -6.3001299834427628e-04  1.6615651757868419e-04 -1.0848839236003939e-03 -6.7526119633438660e-04  1.7310342486296645e-04 -1.1088010961266598e-03 -7.4314501743386616e-04  2.0816299990891437e-04 -1.0973503903354731e-03 -6.0819873590821588e-04  2.0106858745518651e-04 -1.1032528706792337e-03 -6.5971042296324633e-04  2.0861696318527669e-04 -1.1295265971002853e-03 -7.2829011167544649e-04  2.4039794375686427e-04 -1.1173567653840724e-03 -5.8669234236912414e-04  2.3530523300720714e-04 -1.1182423430716980e-03 -6.4301187212298296e-04  2.4355356395867962e-04 -1.1466939385023887e-03 -7.1185981962654688e-04  2.7273393021846052e-04 -1.1374629595148043e-03 -5.6394122486803022e-04  2.6967031617016358e-04 -1.1325344903410095e-03 -6.2396102857807548e-04  2.7873811663148572e-04 -1.1630068975133248e-03 -6.9260450100469128e-04  3.0580077822840815e-04 -1.1599944184673347e-03 -5.3876312499206156e-04  3.0489563421947226e-04 -1.1486323683029458e-03 -6.0144400893494742e-04  3.1493143213393157e-04 -1.1810416989454743e-03 -6.6934969853873561e-04  3.4011434062717737e-04 -1.1871518446402508e-03 -5.1031876513940035e-04  3.4154766578439158e-04 -1.1689778296714260e-03 -5.7451002048849271e-04  3.5275608550203023e-04 -1.2034200132406327e-03 -6.4134045783744255e-04  1.6701990378776492e-04 -1.3384321162080149e-03 -1.0951027579996398e-03  1.5972236102927508e-04 -1.2530730162264633e-03 -8.6104453371381928e-04  1.5336251927891965e-04 -1.2944774058774576e-03 -9.9019478163207071e-04  1.8946039663497578e-04 -1.2357206763261807e-03 -1.0309982294216043e-03  1.9597444691155531e-04 -1.1766932681315505e-03 -9.0533353397777684e-04  2.0179461048317290e-04 -1.2821960427172692e-03 -1.1349387312322300e-03  2.2509461251921993e-04 -1.1780825153347480e-03 -1.0628814371188560e-03  2.3180340057153931e-04 -1.1037341339783866e-03 -9.4109744307134405e-04  2.3593435693955309e-04 -1.2268124220913593e-03 -1.1652982204910102e-03  2.6068187885492061e-04 -1.1192483461807470e-03 -1.0872700602201685e-03  2.6739966079282506e-04 -1.0308756897060148e-03 -9.7019178081985790e-04  2.6985151616531930e-04 -1.1700650946825019e-03 -1.1876848092899784e-03  2.9666553631370676e-04 -1.0566352979501903e-03 -1.1055190664659102e-03  3.0329342141305067e-04 -9.5466009407069196e-04 -9.9449279512223892e-04  3.0403635192445522e-04 -1.1094540520227231e-03 -1.2031903620511517e-03  3.3372595666130767e-04 -9.8721849776415129e-04 -1.1187960193467209e-03  3.4008935157093205e-04 -8.7124488553257627e-04 -1.0157853439766661e-03  3.3913858740991070e-04 -1.0419780347375614e-03 -1.2125561507753718e-03  3.7283588484102003e-04 -9.0732552131501910e-04 -1.1278092984781903e-03  3.7864397490286434e-04 -7.7617773007616507e-04 -1.0363147388336932e-03  3.7597053599481921e-04 -9.6366563691340857e-04 -1.2164728421323072e-03  1.7323683650933186e-04 -6.8529797252678477e-04 1.3958621425350212e-04  1.7274069321097815e-04 -6.0020296084870668e-04 2.7134064147328282e-04  1.7124798231308517e-04 -7.1786727382983930e-04 8.4299725594684841e-05  2.1109959408294424e-04 -6.0887580515734362e-04 7.2611199802322677e-05  2.1147098617956269e-04 -5.0118131799879544e-04 2.8589510018162736e-04  2.1425895889054338e-04 -5.7971924422756647e-04 1.4239053970633547e-04  2.4931135104634569e-04 -5.1183274496562189e-04 5.6801943013404005e-05  2.4777806729330118e-04 -4.1201272780596514e-04 2.8873802600654867e-04  2.5222978749451440e-04 -4.8465405237237710e-04 1.3662917755541100e-04  2.8640672807696212e-04 -4.1930140218178409e-04 3.6385718718096022e-05  2.8246489142843114e-04 -3.2657541409875817e-04 2.8300634932059050e-04  2.8832412766002655e-04 -3.9353952193078178e-04 1.2404238066099523e-04  3.2267047080278386e-04 -3.2691871119953269e-04 1.1236176900510508e-05  3.1593801600873637e-04 -2.4122429839783504e-04 2.7012235243547336e-04  3.2303965453623403e-04 -3.0251909841509086e-04 1.0528609978751065e-04  3.5820534641411029e-04 -2.3198593904766922e-04 -1.8930709377974554e-05  3.4828661962974091e-04 -1.5374254440992334e-04 2.5096882515738232e-04  3.5639912326892564e-04 -2.0910701914792304e-04 8.0565974546758300e-05  3.9300425210534373e-04 -1.3289136087539784e-04 -5.4537014758285228e-05  3.7954902180309825e-04 -6.2704711443320639e-05 2.2689223175603742e-04  3.8812055537896118e-04 -1.1178430047187594e-04 5.0111951355923451e-05  1.4081256690158154e-04 -1.1193483428828055e-03 -8.7252902128625860e-04  1.4664043315503069e-04 -1.0722532497441910e-03 -7.4989360667168843e-04  1.8214341310419338e-04 -1.1053882198287011e-03 -7.2751601990336562e-04  1.7843366913429276e-04 -1.1488335712079483e-03 -8.6185123904512252e-04  2.1615753539952647e-04 -1.1318554961104281e-03 -7.0645986584550911e-04  2.1471308421136236e-04 -1.1709589245536517e-03 -8.4954965153749790e-04  2.4945541700795908e-04 -1.1552279484412411e-03 -6.8505830261653047e-04  2.5048141772618143e-04 -1.1890185892561459e-03 -8.3451859041731890e-04  2.8290190778049005e-04 -1.1783302979621812e-03 -6.6178678266666903e-04  2.8657589071698483e-04 -1.2056704142273391e-03 -8.1571271496245275e-04  3.1723835961765013e-04 -1.2036034281121190e-03 -6.3543963678726258e-04  3.2384166083562196e-04 -1.2234080964224276e-03 -7.9202692482712193e-04  3.5325861229444194e-04 -1.2334112795289235e-03 -6.0505067977234799e-04  3.6307063828639672e-04 -1.2448609557319005e-03 -7.6256142536452575e-04  2.1979531668436025e-04 -1.3823164576027907e-03 -1.4639829458358772e-03  1.9241895679114959e-04 -1.3576783231578357e-03 -1.3761034091797455e-03  2.0896874596021382e-04 -1.3388398006701900e-03 -1.4034039118505216e-03  2.4037707198775225e-04 -1.3576784779626570e-03 -1.4109295914378321e-03  2.2498940889055898e-04 -1.3593046082832660e-03 -1.3929810648338199e-03  2.4957304919674266e-04 -1.3890950926394698e-03 -1.4790867522078226e-03  2.7083507071626539e-04 -1.3701013112858540e-03 -1.4106525190151025e-03  2.5681020715031638e-04 -1.3557002941602771e-03 -1.4011772015423956e-03  2.7840657147664192e-04 -1.3902155419072584e-03 -1.4850521306219125e-03  3.0072638056850924e-04 -1.3779326322518042e-03 -1.4026033467438037e-03  2.8811185786086006e-04 -1.3479257769545875e-03 -1.4010033122232406e-03  3.0678272485295735e-04 -1.3870419423786561e-03 -1.4821584051801517e-03  3.3027570575185381e-04 -1.3829940089742931e-03 -1.3863857572063267e-03  3.1924973020204490e-04 -1.3367891051579597e-03 -1.3923214295684355e-03  3.3494803547384110e-04 -1.3808304059214171e-03 -1.4702291011853771e-03  3.5961546895796743e-04 -1.3870879568746537e-03 -1.3611601844818661e-03  3.5051893001465288e-04 -1.3230879668451817e-03 -1.3743735669481498e-03  3.6305764504760308e-04 -1.3728676062881584e-03 -1.4484729933238035e-03  3.8875084960625643e-04 -1.3920473680958062e-03 -1.3256766198493346e-03  3.8217436496438184e-04 -1.3078024217799773e-03 -1.3457255042371278e-03  1.4558852121236566e-04 -1.2780998688421330e-03 -9.8579962006766701e-04  1.3697294945281421e-04 -1.2565841650047625e-03 -9.9693989174665380e-04  1.7440203122458210e-04 -1.2228795146643056e-03 -1.0294849633427337e-03  1.8223233155096100e-04 -1.2278841375115484e-03 -1.0244169600093530e-03  2.1171831438923010e-04 -1.1875029302670550e-03 -1.0534770650426325e-03  2.1866226957754364e-04 -1.1777233088075727e-03 -1.0539741919928000e-03  2.4920837029221681e-04 -1.1493868567081637e-03 -1.0700517372874800e-03  2.5517389430704707e-04 -1.1257792426164375e-03 -1.0760961632640070e-03  2.8737198221631688e-04 -1.1072747911997432e-03 -1.0799759449120283e-03  2.9223759348018800e-04 -1.0698826931212532e-03 -1.0919195882901872e-03  3.2683110758402239e-04 -1.0594696894566282e-03 -1.0835838451150085e-03  3.3046968106706674e-04 -1.0074555281818962e-03 -1.1022507164359042e-03  3.6843077766344026e-04 -1.0036510076901022e-03 -1.0809888786075012e-03  3.7083046471685137e-04 -9.3505895823067591e-04 -1.1076964595991331e-03  2.2883952730496927e-04 -1.4143455977913531e-03 -1.4921314642188234e-03  2.0069313716342089e-04 -1.3915399474711669e-03 -1.4034767915555850e-03  2.3211920149634818e-04 -1.3798336728190897e-03 -1.4268363358237704e-03  2.5688449650657471e-04 -1.4088090977164521e-03 -1.5138058380881839e-03  1.6664583444280540e-04 -7.7105633163320787e-04 -5.0330056550571084e-06  1.6862414713256864e-04 -6.5586489135596726e-04 1.8917725196782213e-04  1.6222634798428957e-04 -6.9353262610728588e-04 1.3607998923252993e-04  1.9901482566991594e-04 -5.8838708130642991e-04 1.2618418542589417e-04  2.0637369195058359e-04 -5.4998360037573750e-04 1.8830922149245071e-04  2.0573421660458155e-04 -6.6393101731281880e-04 -2.6410624994218603e-05  2.4363368305982451e-04 -5.6726506379779795e-04 -4.8613036671081946e-05  2.4280399484109141e-04 -4.5527833446892271e-04 1.8051630782843552e-04  2.3527622571456599e-04 -4.9359024902984907e-04 1.1305765437767137e-04  2.8107520999484642e-04 -4.7477661268485190e-04 -7.2598110082740949e-05  2.7873959505229337e-04 -3.6508885520748633e-04 1.6695468443143953e-04  2.7122892195463139e-04 -4.0321380539313286e-04 9.6400296867024329e-05  3.1810948454603059e-04 -3.8228359969502885e-04 -9.9678084516996432e-05  3.1419862416908270e-04 -2.7536114798336982e-04 1.4790757676950810e-04  3.0709481211515502e-04 -3.1315319926379089e-04 7.5556497077456649e-05  3.5481767822578142e-04 -2.8687684702642831e-04 -1.3097707699732882e-04  3.4932546656510946e-04 -1.8358362531548531e-04 1.2343840415990619e-04  3.4296626535989150e-04 -2.2071196463659636e-04 4.9932607959503286e-05  3.9118317799603086e-04 -1.8674365111047002e-04 -1.6747179399859133e-04  3.8420301537412239e-04 -8.8283325603637417e-05 9.3569937720991796e-05  3.7893541657638564e-04 -1.2420332091108121e-04 1.9027422224950528e-05  1.3657896706397823e-04 -1.0564282701815051e-03 -5.0403813616423597e-04  1.3586036005144698e-04 -9.8489087400786151e-04 -3.5920614386559353e-04  1.2495710996888844e-04 -1.0489529607425766e-03 -4.9309606772667978e-04  1.6410067341001477e-04 -9.8550361422633775e-04 -5.2863576972050452e-04  1.7452692518806645e-04 -9.0654197936598064e-04 -3.9645620424549644e-04  1.7561713085346983e-04 -9.8422317020407956e-04 -5.4490795996916847e-04  2.1270293104933382e-04 -8.3250745115796029e-04 -4.2667558424863098e-04  2.1427804985871585e-04 -9.1538831609874836e-04 -5.7797652543657881e-04  2.0247867731754826e-04 -9.2389292350790301e-04 -5.5640605366584993e-04  2.5273698029957702e-04 -8.4666585496669892e-04 -6.0584998788711390e-04  2.5049305790131478e-04 -7.5933854457373119e-04 -4.5289860825589007e-04  2.4061886291890257e-04 -8.6194868786163275e-04 -5.7883416510824063e-04  2.9130261714728159e-04 -7.7515052483873579e-04 -6.3040120003422903e-04  2.8822433184039046e-04 -6.8380815707841489e-04 -4.7660087729061216e-04  2.7860442694493514e-04 -7.9686696723365235e-04 -5.9726953760097143e-04  3.3018225369106977e-04 -6.9744589201087195e-04 -6.5360040861550629e-04  3.2591302699973176e-04 -6.0253182794270702e-04 -5.0002913717870062e-04  3.1675829008182368e-04 -7.2588978358295489e-04 -6.1338637114941225e-04  3.6947900303108621e-04 -6.0976996978257480e-04 -6.7757921042961979e-04  3.6356653328753751e-04 -5.1236268487569905e-04 -5.2559831237874522e-04  3.5515785258652616e-04 -6.4540910726036075e-04 -6.2863467259442936e-04  2.6265862369929764e-04 -1.3641135085803962e-03 -1.4406499832516721e-03  2.9274054540897232e-04 -1.3446933931531150e-03 -1.4454257927888766e-03  2.0974839540461709e-04 -9.5425547249290319e-04 -5.9327762821195676e-04  1.9799635098039997e-04 -9.4636938152237594e-04 -5.3446882604832953e-04  2.1116999510802128e-04 -1.0173595762921661e-03 -6.4445945460038284e-04  2.4788918492607911e-04 -9.9598140433894682e-04 -6.4126092077161309e-04  2.3368413329147026e-04 -9.1352223077431269e-04 -5.3493646428781443e-04  2.4636734697153711e-04 -9.1596323746669843e-04 -5.9617018600600956e-04  2.8518973550936824e-04 -9.7316685175916594e-04 -6.3269311438586854e-04  2.6985583368645982e-04 -8.7866129785322275e-04 -5.3021524353785352e-04  2.8328361109946986e-04 -8.7451698739187398e-04 -5.9386834311545695e-04  3.2393293582499104e-04 -9.4998476547168611e-04 -6.1721766406433616e-04  3.0702201825797342e-04 -8.4187894215184927e-04 -5.1925604879701900e-04  3.2113648257277994e-04 -8.2937248489120552e-04 -5.8587212370212285e-04  3.4013775604090025e-04 -2.1410251676564536e-04 2.5078826912323384e-04  3.3671162584486200e-04 -2.2234333011646193e-04 2.9286344473491364e-04  3.5644636239704538e-04 -2.6987885151275010e-04 -5.5969576833981892e-06  3.0954900619403519e-04 -3.0053327889295676e-04 2.6278043094293645e-04  3.2322507831855787e-04 -3.6837370984112036e-04 1.5586198438199788e-05  3.6631011227765116e-04 -1.3483697121133935e-04 2.7464999369547109e-04  3.6970837772390273e-04 -1.2394372959517936e-04 2.3103387761127359e-04  3.8944609657225128e-04 -1.6675030096223198e-04 -3.4054722251996704e-05  2.1361305287681827e-04 -1.4186483221074427e-03 -1.4184707034070362e-03  2.4328721536780431e-04 -1.3944134410127805e-03 -1.4470832605461834e-03  1.3704117492421600e-04 -1.0431271263133049e-03 -5.9568442173199641e-04  1.4869875867298317e-04 -1.0719417298675352e-03 -6.6391459068663311e-04  1.4648253703494594e-04 -1.0451652145193457e-03 -5.7324663144515085e-04  1.1035191601444838e-04 -1.0603268420537543e-03 -6.6647584782894814e-04  1.8525881675725625e-04 -1.0774307663545272e-03 -6.589964497044828