<?xml version="1.0"?>
<VTKFile type="UnstructuredGrid"  version="0.1"  >
<UnstructuredGrid>
<Piece  NumberOfPoints="672" NumberOfCells="2750">
<Points>
<DataArray  type="Float64"  NumberOfComponents="3"  format="ascii">5.83349320170168 2.396159728010131 4.232392342208047  5.991660867185877 2.365521959297128 4.230851136380902  5.954891390459629 2.511707350870121 4.259667658048257  5.95020889244117 2.501020180564715 4.342121305910991  5.98777254567937 2.342692910521508 4.309751047119654  5.831423365676634 2.377399662591351 4.312785350847534  5.945453596487776 2.490351016458935 4.424467096895794  5.98379693808737 2.31988494324799 4.388564596982912  5.829284845680042 2.358661909129329 4.393067542272558  5.940654760372648 2.479658978804046 4.506715615773973  5.979771038716313 2.297078588953686 4.467313158877489  5.827104997729361 2.339917856308037 4.473258726213913  5.935856781069462 2.468938066314953 4.588895952171259  5.97572777316647 2.274266234873029 4.546012510023073  5.824901982272516 2.321168300894866 4.553383073712863  5.822727596870475 2.302390599700626 4.633447796062099  5.971735443623333 2.251424767141494 4.624662560838557  5.9310951690378 2.45818960494154 4.671001083677912  5.820677696819946 2.283563739265053 4.713433169059269  5.967885816561587 2.228539138217999 4.703251852502311  5.926455940329285 2.447378319462262 4.753046056452628  5.46416211743795 2.745381363019189 4.248333246495232  5.445185818525446 2.583683449095705 4.262065620326183  5.577223024224714 2.615426168780923 4.261161341783235  5.577223809725 2.618916380294633 4.346028667088579  5.444124763210901 2.584099983043564 4.346994615351176  5.462190897623173 2.760343159600615 4.332259774689946  5.460129636970285 2.775265876016151 4.416009361948674  5.44299127908713 2.584521435166526 4.431728621824349  5.577131977078432 2.622407515446983 4.430702311519294  5.458015081390811 2.790116899844765 4.499594853850535  5.4418149906305 2.584902252258735 4.516302721522528  5.576997338517426 2.625859480615969 4.515223540682702  5.455892326288686 2.804895899880462 4.583061817719599  5.440645391814512 2.58523960664923 4.600761864375573  5.576860311569167 2.629265198859982 4.599637843110506  5.576750469346861 2.632640727124401 4.683985206098123  5.439505318622793 2.585547272194503 4.685148156962217  5.453814326464903 2.819622866524005 4.666420285521215  5.576727473489903 2.635957368153128 4.768284752294345  5.438472957667394 2.585788881219743 4.769475529212078  5.451847215506798 2.834269349409657 4.749712374908502  5.722378872659964 3.107795652805364 4.106444899948475  5.79863982263941 2.995814232970353 4.174099350559306  5.864477846385126 3.091669308878448 4.124389254420058  5.857452559412446 3.134562565499746 4.193546930469217  5.794089874372198 3.031431271766081 4.248907441377297  5.718316926310928 3.152131876651065 4.175430051637233  5.850369896715634 3.177297737156629 4.262683067138116  5.789463603701276 3.066916736777118 4.323616321506011  5.714154534770128 3.196324600191301 4.244369525528274  5.784810001277607 3.102312817635271 4.398252117884756  5.709950005455414 3.24042748793696 4.313258840229275  5.825187553386252 2.552362819084582 4.257907061583317  5.823184948766894 2.544374081424752 4.341121959322006  5.821111664225429 2.536414067278554 4.424206755623763  5.818995236746785 2.52842540989354 4.507175252837729  5.816872427849069 2.520398412394227 4.590058127324859  5.814780301186731 2.512333412495304 4.672874071676715  5.812796979067272 2.50421174970361 4.755630374514303  6.086413867481157 2.475006359132313 4.262562629751941  6.071159121211311 2.630892428887544 4.275890171627796  6.06394523144863 2.629643535578632 4.3593267192186  6.079115303729758 2.461112815617712 4.344238955325006  6.071723968094903 2.447236284111971 4.425801725923394  6.056657892166863 2.628391093224914 4.442645127572537  6.064301538298793 2.433349350443791 4.507290017156398  6.049344018286934 2.627106383674715 4.525874489581054  6.056880161494929 2.41944483432572 4.588719629066274  6.04204332928298 2.62578276477809 4.60903396427379  6.034792259111541 2.624413199967669 4.692142971786143  6.049500061736882 2.405511368483915 4.670106936546579  6.042255515237629 2.391507839689495 4.75145997050797  6.027636551227362 2.622986894991021 4.775202665286877  5.705732092058337 2.462307038271123 4.243201985603465  5.705386299590306 2.321131017899588 4.213306549081275  5.708189498396572 2.296874512775601 4.291911977465233  5.708307229524259 2.44807266182679 4.325301315671288  5.710944497936513 2.272655016976296 4.37040992756159  5.71081479725851 2.433873736239555 4.407275673776807  5.713656751682763 2.248447660598237 4.448821736730988  5.713277122672276 2.419667419145756 4.489131599016922  5.716340655605125 2.224244297233244 4.527172584539614  5.7157261333175 2.405439284170674 4.570903395548983  5.719051434179879 2.200013980593963 4.605456473903875  5.718190956976041 2.39118223573068 4.652611454232076  5.721831480228297 2.175724265517427 4.683648880016026  5.720741988334074 2.376865178013689 4.734251643698546  5.675467272242591 2.983793930309471 4.176915741761174  5.670943919108505 3.018842251201408 4.252802499587317  5.666339446905046 3.053768161956801 4.328573674229444  5.661692514095485 3.088606277044362 4.404246646735502  5.657046770689191 3.123376695721359 4.479838027673468  5.780164210863624 3.137642461150788 4.472824045192824  5.705752756214348 3.284468823216232 4.382092547677  5.652448233273357 3.158091490155725 4.555363228163405  5.775551338314112 3.172922798109854 4.547342862225836  5.701609121216259 3.328467649620052 4.450874355320111  5.647970156521394 3.192722923139615 4.630868233559098  5.77105017200531 3.208150564234728 4.621837549266336  5.69760283085914 3.372421925122579 4.519615174664668  5.495686930085207 2.871385154949619 4.211972519723443  5.580040989062365 2.743582529108558 4.249783182123375  5.617350500060201 2.856261426577158 4.216418348948371  5.6145151193838 2.881576734719399 4.296902584363981  5.579644673491091 2.760994636563121 4.333112436484229  5.495486912162651 2.898557152217565 4.29240072305431  5.611589832138272 2.906807182052044 4.377214391083874  5.579143611190605 2.778360140421153 4.416230712894413  5.495155852833186 2.925646343963763 4.372655225671235  5.608610841501392 2.931959931090322 4.457380466276842  5.578587399575322 2.795671111484474 4.499201273932254  5.494765784091516 2.95265228620652 4.452747401867083  5.605620641512166 2.957044979429776 4.537439299901688  5.578011487355667 2.812923409914005 4.582058669381987  5.49436523913506 2.979581546266281 4.532721714326335  5.602666500242322 2.982071911398755 4.617416176845808  5.577477135713767 2.830130616649081 4.664833624601791  5.494002721972451 3.006438976879232 4.612604200491633  5.599814535834389 3.007018492564014 4.697348421921166  5.577052128980649 2.847265478531582 4.747559745718799  5.493768271567489 3.033208284761563 4.692432401068149  5.482880867856126 2.273836424482473 4.206990233923855  5.598433777003343 2.229871557621468 4.185817263257669  5.578246913460776 2.367012180160269 4.234527432049203  5.582147018765236 2.346549311423868 4.315357707352885  5.603125901536502 2.199494639375623 4.261587906859779  5.487487694987641 2.247972228898318 4.285087171377212  5.58599125918619 2.326137589684011 4.39606149826726  5.607771764552164 2.169169613231294 4.337264913652504  5.492045955349369 2.222151910074969 4.363077138424818  5.58979513043366 2.305735901851872 4.476651934016501  5.61237050460841 2.138881791552909 4.412878098887958  5.496570190061258 2.196362820934749 4.440974058193062  5.593582419754182 2.285332856079997 4.55716541497272  5.61695347415758 2.108599652425139 4.488430892807717  5.501074367768951 2.17058480581292 4.518806262644962  5.597391573246561 2.264901227717663 4.637607797484183  5.621561644149765 2.078292200563724 4.563911015207281  5.505602866761306 2.144780416736047 4.596572687952271  5.601259349696541 2.244412677842901 4.717988324985687  5.626221729844074 2.047939711714579 4.639307534213097  5.510195191538734 2.118922249795615 4.674272361065541  5.88140234392457 2.27386061865477 4.19964144145013  5.989711104322975 2.216456810477187 4.173874890693371  5.988025280369053 2.182480949903856 4.246929067630258  5.879743905758459 2.24580577612371 4.276150178019397  5.986212786033881 2.148554254547704 4.319962145385393  5.877996275183475 2.217792058826062 4.352575929788087  5.984340507182563 2.114643050378484 4.392963048028273  5.876189765042967 2.189794378386114 4.428948321207734  5.982469992602424 2.080722076663155 4.465921315137445  5.874369372970791 2.161793075755206 4.505270028646868  5.980660490526089 2.046773102365318 4.538828548273815  5.87259891897795 2.133766438043305 4.581523850333417  5.97898365025157 2.012776311815612 4.611683868387111  5.870945008785099 2.105690852733044 4.657694730498308  5.342906681400597 2.705957692282227 4.248417950274213  5.338360169112073 2.719305194956465 4.332271733977592  5.333737532449724 2.732624074687347 4.415905742797895  5.329075122175617 2.745889991257903 4.499345067793869  5.324413845924468 2.759092679865439 4.582654237875648  5.319793908559769 2.772254228043129 4.665872961948113  5.315273310971669 2.785347122691252 4.74905030299348  6.095185754469647 2.884008425154176 4.245745390361957  6.180412642800878 2.825743753119091 4.274367737311208  6.215970686206376 2.927729045523373 4.24580926322671  6.206267719159817 2.954768263536396 4.323940955588104  6.170690048315978 2.842004771995648 4.356184598674989  6.086127137985667 2.908337822787849 4.325049944975469  6.19657069919783 2.981725770666041 4.401978504630002  6.160944882425664 2.858212617734392 4.437892827664228  6.077049320727226 2.932579601427777 4.404256679533395  6.186898185163645 3.008626185155968 4.47993442715979  6.151206055366087 2.874373300312039 4.519518412807366  6.067978604476185 2.956766073074856 4.483381991947321  6.177257464700886 3.035476241597427 4.557838973600652  6.14149707800838 2.890484758500449 4.601085894842488  6.058933356752437 2.980905039486149 4.562447977074225 
[...]
<PointData  Vectors="f_24"> 
<DataArray  type="Float64"  Name="f_24"  NumberOfComponents="3" format="ascii">9.9712737242611798e-03 -2.1576328488459171e-02 -2.2213124531415843e-02  9.0155795968326572e-03 -2.6199728698323658e-02 -2.2108184525107717e-02  8.6793483066574910e-03 -1.5537211352541953e-02 -2.3772623523411258e-02  9.1430167207757658e-03 -1.4236654647587985e-02 -2.7126616987482657e-02  9.0258614116447769e-03 -2.2545054876007355e-02 -2.4675380350770264e-02  9.9254617779698569e-03 -1.8779449855123306e-02 -2.5153685265558952e-02  9.4873011141401609e-03 -1.3176451953144583e-02 -2.9238628788919380e-02  8.9111181145110942e-03 -1.9291240195187822e-02 -2.6084972958231988e-02  9.8161305342928246e-03 -1.6285531576523880e-02 -2.6946121530619493e-02  9.7685397839063753e-03 -1.2276200180314958e-02 -3.0319180616724825e-02  8.7468326589249489e-03 -1.6368628801677380e-02 -2.6545305017977618e-02  9.6924495235840881e-03 -1.4076525307259679e-02 -2.7768255069390721e-02  1.0000959896676162e-02 -1.1502251461116319e-02 -3.0539907018556359e-02  8.5406742373825145e-03 -1.3680871945782505e-02 -2.6204671513769307e-02  9.5667081729009645e-03 -1.2087698299048521e-02 -2.7761961778396599e-02  9.4316313801106992e-03 -1.0256783537489182e-02 -2.7024108759517391e-02  8.2861820876694164e-03 -1.1167675437263193e-02 -2.5174304749557706e-02  1.0185774992342370e-02 -1.0841958695448177e-02 -3.0003116701480783e-02  9.2907968653577703e-03 -8.5371053489306601e-03 -2.5589601698526893e-02  7.9448254398370166e-03 -8.7442822350300830e-03 -2.3496210840792082e-02  1.0309141339370968e-02 -1.0280294960571505e-02 -2.8785669237035062e-02  1.1139771344180141e-02 7.6074625352749742e-03 -1.6796786776280031e-02  1.1900265034454578e-02 -2.2444170499832197e-03 -2.0919896767703644e-02  1.1040781726520298e-02 -2.5779973008602922e-03 -2.1066120779865631e-02  1.1551797914624651e-02 -4.1327339099262606e-03 -2.4499873689012554e-02  1.2353541658610859e-02 -3.7042631101445920e-03 -2.4334961542131203e-02  1.2107546099776080e-02 3.5817004971186290e-03 -1.9414477274203642e-02  1.3030937733311449e-02 -6.2937856761655217e-05 -2.0742283638544554e-02  1.2777375742907836e-02 -5.0426974544402125e-03 -2.6339017086957461e-02  1.2038174111524186e-02 -5.6032367806024969e-03 -2.6519322462866757e-02  1.3935909001955949e-02 -3.4923130487936704e-03 -2.1086383790873367e-02  1.3192179308218494e-02 -6.3894477211351849e-03 -2.7265864350123424e-02  1.2564626318135728e-02 -7.0894749192928130e-03 -2.7457576465057209e-02  1.4851243870938875e-02 -6.8296372739290578e-03 -2.0622545107461913e-02  1.3617724696700044e-02 -7.7681066048772762e-03 -2.7341849312183045e-02  1.3123092497086640e-02 -8.6151607904241430e-03 -2.7537358602615778e-02  1.3744719751794088e-02 -1.0212365763157032e-02 -2.6913283820264911e-02  1.4073255707129048e-02 -9.2179822690129677e-03 -2.6738191729157625e-02  1.5813073444888085e-02 -1.0163411506722900e-02 -1.9491763492239828e-02  1.4473500651806435e-02 -1.1889719392371285e-02 -2.5697841807882298e-02  1.4599861476434002e-02 -1.0743143492172102e-02 -2.5583492413425071e-02  1.6840208894638300e-02 -1.3559677919310098e-02 -1.7831438694416141e-02  5.4646786743064611e-03 3.5102013290768792e-02 -1.4090002428725659e-03  6.4700134834962840e-03 2.2654075266478189e-02 -9.6558498591917587e-03  4.5857691529390980e-03 3.1291296121585509e-02 -5.2471441371167958e-03  6.5157445501870439e-03 2.4014745823019951e-02 -4.0346625096988643e-03  8.1804691858526988e-03 1.5987011663017560e-02 -9.9327350994770306e-03  7.3056159184719848e-03 2.7517239326420029e-02 1.3009328529029845e-04  8.3455690024576284e-03 1.7572575318093895e-02 -2.2659981367366658e-03  9.8121569875218723e-03 1.0114356817076753e-02 -9.3492407562091213e-03  9.0979877485551537e-03 2.0741769376649906e-02 2.1818733965022533e-03  1.1379163523559154e-02 4.6901467528786319e-03 -8.0360229374981124e-03  1.0860121781898753e-02 1.4444281378325770e-02 4.7736237408756779e-03  9.4876935419927217e-03 -1.1046362751053647e-02 -2.3029916118516292e-02  9.9074609703974290e-03 -1.0691448957699133e-02 -2.6534608371192706e-02  1.0288889480663513e-02 -1.0553267895186123e-02 -2.8767194878769647e-02  1.0639598978735381e-02 -1.0497902547226091e-02 -2.9957779742533480e-02  1.0967018730121250e-02 -1.0501492086486819e-02 -3.0275758229312579e-02  1.1293581921072699e-02 -1.0574481261190949e-02 -2.9835356900419722e-02  1.1655234829975320e-02 -1.0753690358350089e-02 -2.8704772139424115e-02  7.9181939922650171e-03 -1.9713891038217281e-02 -2.4251215561835574e-02  7.3310325426703474e-03 -9.3910506418379003e-03 -2.4339505988121787e-02  8.2809294293225005e-03 -9.8750555031023469e-03 -2.7760741744544858e-02  8.4170835347178990e-03 -1.7557174408967105e-02 -2.7414344586741312e-02  8.7094315493337036e-03 -1.5645968567638245e-02 -2.9285950697261212e-02  9.0616797767313663e-03 -1.0336276404971178e-02 -2.9895851578865911e-02  8.9174861804688556e-03 -1.3966788033058205e-02 -3.0137429895995570e-02  9.7322358113565762e-03 -1.0825672716812810e-02 -3.0969792880413290e-02  9.0597471016730397e-03 -1.2477737049196072e-02 -3.0156350542916769e-02  1.0315102411646938e-02 -1.1352781628983904e-02 -3.1171901209884788e-02  1.0815900578490781e-02 -1.1935666826247339e-02 -3.0634429782228394e-02  9.1247240081208884e-03 -1.1121105129749590e-02 -2.9457720249704143e-02  9.0472160989717998e-03 -9.8605360486286615e-03 -2.8110434155341802e-02  1.1190150356064941e-02 -1.2585784403999394e-02 -2.9419732771631481e-02  1.0755783108737838e-02 -1.5145646923194008e-02 -2.2464660053103852e-02  1.1204763207844019e-02 -2.4765439474425728e-02 -2.0972506459039017e-02  1.0630973420861748e-02 -2.1122669860084032e-02 -2.3442719054558303e-02  1.0653440534835565e-02 -1.3604524283956121e-02 -2.5775228402293286e-02  1.0155056974172336e-02 -1.7925982847470222e-02 -2.4815547584680905e-02  1.0649814160357027e-02 -1.2403809996263669e-02 -2.7901511858630643e-02  9.7274833878144215e-03 -1.5062042344623952e-02 -2.5267710260579210e-02  1.0665533792764711e-02 -1.1381058018063928e-02 -2.8997861946409059e-02  9.3255065375360477e-03 -1.2439044223433162e-02 -2.4928383898060531e-02  1.0693418960609031e-02 -1.0485095926956040e-02 -2.9228625091493859e-02  8.9543821330632743e-03 -9.9884018879330266e-03 -2.3889593466948467e-02  1.0754985076707260e-02 -9.6931026744028585e-03 -2.8722058101436333e-02  8.6608554533744685e-03 -7.6661319151247178e-03 -2.2190923003334955e-02  1.0933848275180234e-02 -9.0220801669362166e-03 -2.7527551534579128e-02  7.6155252446282158e-03 2.3067497149081469e-02 -8.4100793475205150e-03  9.2679873144562962e-03 1.6327553070459855e-02 -8.6779902114335859e-03  1.0828071097044293e-02 1.0358658601569176e-02 -8.0618822337252677e-03  1.2352992551107965e-02 4.8175871090566282e-03 -6.7101529353108058e-03  1.3881452130199317e-02 -5.0867831074685363e-04 -4.6919741086986254e-03  1.2923311953600003e-02 -5.0420257519138794e-04 -6.0636183701520156e-03  1.2618320076840599e-02 8.4012606028385142e-03 7.9016714670047047e-03  1.5447067048628547e-02 -5.7602176931237613e-03 -2.0491788808241424e-03  1.4468161923708360e-02 -5.6143334980963047e-03 -3.4744935471316659e-03  1.4394397150998340e-02 2.4514665236943251e-03 1.1579234301339548e-02  1.7079031167854471e-02 -1.1046851604670234e-02 1.1662749120895481e-03  1.6054101171698091e-02 -1.0738764326843637e-02 -2.5578475419862261e-04  1.6220610728233401e-02 -3.5210467659016471e-03 1.5826340575739301e-02  9.9681877494739619e-03 1.6656821715429843e-02 -1.1600730936562513e-02  1.0380237147544286e-02 5.8939388510440465e-03 -1.7889375530296254e-02  9.1989619630516457e-03 1.4036746074982115e-02 -1.3750276872216702e-02  1.0505864604723110e-02 8.6369747497976133e-03 -1.5474968133279513e-02  1.1319823990191741e-02 2.1606914853431183e-03 -2.0609581443320497e-02  1.1266318182500406e-02 1.0824715566245258e-02 -1.3043646256847412e-02  1.1746227960944496e-02 3.8409782352424324e-03 -1.6176872423798557e-02  1.2241297782894373e-02 -1.1727679028170322e-03 -2.1966277661207817e-02  1.2521007487941840e-02 5.6213662023743369e-03 -1.3464783399059587e-02  1.2973962861808446e-02 -6.1455623472264089e-04 -1.5965448691689046e-02  1.3163036360766583e-02 -4.3579508926915381e-03 -2.2310924339672116e-02  1.3764985383253108e-02 7.6958117441722868e-04 -1.2988739873447910e-02  1.4211646117766890e-02 -4.9111942988440335e-03 -1.4974086001076903e-02  1.4112455965078300e-02 -7.5062648595816354e-03 -2.1832924087360647e-02  1.5018334730812989e-02 -3.9059197836500540e-03 -1.1764839756128879e-02  1.5498417955395943e-02 -9.1641570830983642e-03 -1.3314423184621910e-02  1.5126120132073701e-02 -1.0684723166537676e-02 -2.0659703794200217e-02  1.6324203101277756e-02 -8.5297601274399015e-03 -9.8996406724727697e-03  1.6882292703338981e-02 -1.3437382003138744e-02 -1.1039383314777530e-02  1.6279211398083682e-02 -1.3912440549789960e-02 -1.8915931186499188e-02  1.7763567191717993e-02 -1.3175039675494191e-02 -7.4688391131367540e-03  1.2515224736238156e-02 -2.3497313147447119e-02 -2.0617099191580637e-02  1.2067239597046645e-02 -2.9613257124829026e-02 -1.9153792131523611e-02  1.1814795404360645e-02 -1.8869075200003783e-02 -2.1995943065761504e-02  1.1286981118818026e-02 -1.6141485232374995e-02 -2.4892161879398661e-02  1.1093205430475372e-02 -2.4820017789647882e-02 -2.0843095286831700e-02  1.1645517823633001e-02 -1.9621070143335008e-02 -2.2910646639199977e-02  1.0928128865697906e-02 -1.3916628938137979e-02 -2.6517537060354465e-02  1.0270215324182029e-02 -2.0684243276426911e-02 -2.1544777133871713e-02  1.0960182543697390e-02 -1.6329203067054647e-02 -2.4075040704953705e-02  1.0617177533733575e-02 -1.1968792998673566e-02 -2.7158095297622978e-02  9.5175822091585777e-03 -1.6978037557778457e-02 -2.1397569577202298e-02  1.0335191310239132e-02 -1.3426078923274980e-02 -2.4307322603249349e-02  1.0338293376073509e-02 -1.0213593657651973e-02 -2.6981237674473087e-02  8.8054267184161060e-03 -1.3565920270665837e-02 -2.0515310100760326e-02  9.7457741514429663e-03 -1.0790178462660718e-02 -2.3771675715276091e-02  1.0108261942992979e-02 -8.6071370444893713e-03 -2.6105752869219429e-02  8.1316792296161084e-03 -1.0351523903500730e-02 -1.8983579257550030e-02  9.1916069905343990e-03 -8.3417949969042064e-03 -2.2591786356700075e-02  9.9902676288581120e-03 -7.1436868684222497e-03 -2.4641347126414678e-02  7.5254139043142440e-03 -7.2782889060447322e-03 -1.6864124711114953e-02  8.6950235197531343e-03 -6.0371291519328643e-03 -2.0840691979455154e-02  1.0094195132927974e-02 -3.1240909046127772e-02 -1.9757280863225014e-02  9.7358489751027139e-03 -3.8342214439524382e-02 -1.7619020893982842e-02  9.1795911709257258e-03 -3.2567562137966244e-02 -1.8682828248026754e-02  9.6711118658591826e-03 -2.6552895289815557e-02 -2.1667755630276557e-02  8.5636240915792049e-03 -2.7458659605683725e-02 -1.8780155998779965e-02  9.2030463986004576e-03 -2.2361393954549842e-02 -2.2513705673464009e-02  7.9523464768590478e-03 -2.2827656247760213e-02 -1.8094434255081771e-02  8.7225815493051969e-03 -1.8563165593610161e-02 -2.2507304853197914e-02  7.3291025451073227e-03 -1.8520934879062784e-02 -1.6741011292163776e-02  8.2361687188854948e-03 -1.5053697158191050e-02 -2.1767486305623654e-02  6.6724120836389412e-03 -1.4409115982256028e-02 -1.4786313292630833e-02  7.7352178339760679e-03 -1.1737919661890066e-02 -2.0360001701417781e-02  5.9538433585725409e-03 -1.0396077469871872e-02 -1.2248979448453323e-02  7.1979514474852131e-03 -8.5397696959974654e-03 -1.8329959710255868e-02  1.1916224799451735e-02 7.2910113413077087e-03 -1.6969591393714109e-02  1.2845474517312883e-02 3.6144557745224825e-03 -1.9664079035246647e-02  1.3719307180113978e-02 2.7696226961711581e-04 -2.1076776793008949e-02  1.4536908227344950e-02 -2.9109513252564331e-03 -2.1485501150319018e-02  1.5337729301825273e-02 -6.0554863221539204e-03 -2.1080289857203383e-02  1.6141407741255564e-02 -9.2286883641754906e-03 -2.0016872781664592e-02  1.6961172808871074e-02 -1.2470316077845798e-02 -1.8412859959272634e-02  5.6373944770562257e-03 7.7364578983639435e-03 -1.9315790375611493e-02  5.7087824527247517e-03 1.5565030058969558e-03 -2.2438361790279571e-02  4.5845477236247465e-03 8.7779811117949750e-03 -1.9407274758134405e-02  6.3168843502394928e-03 3.8823604720182214e-03 -2.0898577852902490e-02  7.2260369919468380e-03 -1.8865329508854147e-03 -2.4976019055074579e-02  7.2576245893028728e-03 3.1684728955277794e-03 -2.1206686903653103e-02  7.8839199879695999e-03 -3.4755145286825102e-04 -2.1387092742781041e-02  8.5335167641840803e-03 -4.8986045662305511e-03 -2.6214679282126011e-02  8.7381067492225909e-03 -8.1717643766282533e-04 -2.1970769267459708e-02  9.3473443227838141e-03 -4.2225101428398490e-03 -2.0993032719887270e-02  9.7347632804322196e-03 -7.6924800914941098e-03 -2.6488460443801744e-02  1.0112021854168955e-02 -4.5028898480339525e-03 -2.1810150367844131e-02  1.0713742080048345e-02 -7.9304103676944328e-03 -1.9858918687677231e-02  1.0840079472411716e-02 -1.0379500132945908e-02 -2.5977155895976982e-02  1.1397680450213308e-02 -8.0528876449129979e-03 -2.0886769128492265e-02  1.1977821099974717e-02 -1.1587806620505030e-02 -1.8092479011749867e-02  1.1838532617149762e-02 -1.3042574387787154e-02 -2.4792984775690859e-02  1.2596455211522577e-02 -1.1567968918597429e-02 -1.9301549145577492e-02  1.3107985774593961e-02 -1.5255011308814204e-02 -1.5754671478190239e-02  1.2680078703235136e-02 -1.5739751720455029e-02 -2.3060614161341288e-02  1.3697857132758539e-02 -1.5077043666499654e-02 -1.7090275570940706e-02  5.6786898870920290e-03 -1.7494167368220025e-02 -2.7936866712817740e-02  5.2483360179733504e-03 -1.0455722341081948e-02 -2.7130976865406782e-02  6.2095675697287711e-03 -1.5566775429584383e-02 -2.6898577038984597e-02  6.9041384807125095e-03 -1.4773304374989221e-02 -3.0181516000651016e-02  6.0979784671585310e-03 -1.1194025332264160e-02 -3.0404429010264158e-02  6.1365632969137031e-03 -1.6347559203462519e-02 -3.1119963363915450e-02  6.6016758123337823e-03 -1.5220394873329452e-02 -3.2800607334298307e-02  6.9144006725069948e-03 -1.1814972208047650e-02 -3.2299643111061441e-02  7.4799050804900263e-03 -1.4005175704856697e-02 -3.2004196775862213e-02  7.0717441473278023e-03 -1.4258231586322289e-02 -3.3429100164936408e-02  7.6965494450895455e-03 -1.2396950068117883e-02 -3.3097628064197429e-02  8.0051730819862936e-03 -1.3372057101093546e-02 -3.2757694175939003e-02  7.5404034549942699e-03 -1.3429221075435495e-02 -3.3256945057842491e-02  8.4379447547140978e-03 -1.2998892087195171e-02 -3.3070972410954580e-02  8.4651681158811175e-03 -1.2849606498355079e-02 -3.2680826212228516e-02  7.9768394194288574e-03 -1.2704645562687342e-02 -3.2457749058085378e-02  9.1193184051314002e-03 -1.3648275237758453e-02 -3.2393836150791978e-02  8.8399918588767494e-03 -1.2418529737475313e-02 -3.1941889357710578e-02  8.3483978367147587e-03 -1.2049729301933734e-02 -3.1195399484496872e-02  9.7110171243213490e-03 -1.4348061626823640e-02 -3.1111949035084473e-02  9.0870943468906607e-03 -1.2045197222487430e-02 -3.0705669118254269e-02  1.0806477275437189e-02 1.7561235439738736e-02 -1.0482192293210802e-02  9.3837818054896688e-03 2.4428239786917036e-02 -6.2023837046272980e-03  9.7012558610105708e-03 2.8702538237209887e-02 -2.3729000754932942e-03  1.1271936058540353e-02 2.1384930485318331e-02 -2.0198831192468252e-03  1.0843035593127251e-02 1.7521472404595471e-02 -6.5882571577128924e-03  1.2108675391720196e-02 1.1722624767459678e-02 -1.1848947922356429e-02  1.2316930518158463e-02 1.1288368999450108e-02 -6.1017514954011436e-03  1.3396016571405092e-02 6.4047971058212817e-03 -1.2152186995569719e-02  1.2833727607447359e-02 1.4782887398942249e-02 -8.3101938181613059e-04  1.4627237197392388e-02 1.4333021351627497e-03 -1.1577064808278113e-02  1.3758523390825610e-02 5.5045124676037609e-03 -4.8526064638657945e-03  1.4356956712916692e-02 8.6053921159892372e-03 1.0636744082900998e-03  1.5847917451252413e-02 -3.3716152439247993e-03 -1.0268658012815252e-02  1.5205917485893871e-02 -4.6941632738751073e-05 -2.9433982246142971e-03  1.5875557017605152e-02 2.6479553167344737e-03 3.5705262470551546e-03  1.7089632601622485e-02 -8.1302884840448800e-03 -8.3445109684595602e-03  1.6699477488096231e-02 -5.5096690675371226e-03 -4.4625282303898100e-04  1.7414399579737911e-02 -3.2391498248288027e-03 6.6213053844757837e-03  1.8390672386412885e-02 -1.2937387076019052e-02 -5.9002407259900070e-03  1.8310437407467479e-02 -1.1005195353584872e-02 2.5840574658458184e-03  1.9011446725891296e-02 -9.1677089651087049e-03 1.0129180419294207e-02  6.4413712373906813e-03 -2.2531023339795061e-02 -2.6403684983700586e-02  6.7192767128629914e-03 -1.9853481238497596e-02 -2.9328843548962147e-02  6.9638615344483137e-03 -1.7526916692447856e-02 -3.0811267108268117e-02  7.2015140110391366e-03 -1.5483099511015083e-02 -3.1260943602235178e-02  7.4152989558398559e-03 -1.3650848469726983e-02 -3.0921726571456299e-02  7.5783205230900786e-03 -1.1961524466435364e-02 -2.9962357845348817e-02  7.6511880427928263e-03 -1.0361557167210905e-02 -2.8476697236093466e-02  6.1576052078507479e-03 -2.0241889134365455e-02 -1.5658043391700380e-02  6.1122255120426815e-03 -2.4653820716366643e-02 -8.9894509936299574e-03  7.0769756476988591e-03 -1.6424488899906459e-02 -2.1911922521892915e-02  6.6061758487784214e-03 -2.4557092664335929e-02 -1.7738592548940127e-02  7.4117333550771675e-03 -2.0042290266291143e-02 -2.3074708743104966e-02  5.4372882386786534e-03 -1.9871795093384301e-02 -5.9481207821918281e-03  5.6840006943489185e-03 -1.6077202292325486e-02 -1.3014321788500750e-02  6.6800229023368622e-03 -1.2963106201491026e-02 -2.0142408655322644e-02  4.7307257265622703e-03 -1.5159717156576829e-02 -2.3888274235787676e-03  5.1429723009067578e-03 -1.2002759130506786e-02 -9.8917111114940198e-03  6.1891132789140000e-03 -9.6186144181525501e-03 -1.7818702122087443e-02  1.0316041405738349e-02 -6.9771131730527701e-03 -2.2194784887468323e-02  9.2034144805787539e-03 -3.6076566500126712e-03 -2.1867745755857308e-02  9.4965216917383376e-03 3.2885990065535716e-03 -1.9261180365722979e-02  1.0505859569241029e-02 4.7252632684709152e-06 -2.2282444056229127e-02  9.9429369255800218e-03 -5.1802553949267345e-03 -2.5305186816267807e-02  1.0671497578152462e-02 -7.4730690120417215e-03 -2.5792765415378408e-02  1.0676906925129643e-02 -6.7137835015133865e-03 -2.7382168725798565e-02  1.1089844313549913e-02 -8.1612577847970241e-03 -2.7980185963693151e-02  1.1416974599369162e-02 -2.9160551217643389e-03 -2.3968298362916328e-02  1.1366525943197361e-02 -8.2105663043499470e-03 -2.8415233829374251e-02  1.1514737340772661e-02 -8.8742752374670834e-03 -2.9113557431570018e-02  1.2316978044632864e-02 -5.6801227134244195e-03 -2.4624675417660318e-02  1.1943014844364571e-02 -9.6171988468839176e-03 -2.9381045811019239e-02  1.2032627626339788e-02 -9.7063522880477069e-03 -2.8583784214332799e-02  1.3214291607603589e-02 -8.3880820646629918e-03 -2.4440010310308794e-02  1.2412033139645751e-02 -1.0419101970717113e-02 -2.8911512109084200e-02  1.2714579851009307e-02 -1.1239435787444836e-02 -2.8011983349772777e-02  1.4156951201526982e-02 -1.1092898872766920e-02 -2.3542382149253638e-02  1.2991996650858758e-02 -1.1301276736597180e-02 -2.7806884065177437e-02  1.3462591458332803e-02 -1.2830927545837298e-02 -2.6789640209047623e-02  1.5214956590619317e-02 -1.3842807511205571e-02 -2.2017921950044358e-02  1.2833597191868872e-02 -3.1325754304521287e-02 -1.8045689201593034e-02  1.1509697726586691e-02 -2.6067706361469344e-02 -1.9114370870391979e-02  1.0450201278053269e-02 -2.1554653606837761e-02 -1.9176049217032452e-02  9.4593627821113434e-03 -1.7505928408656460e-02 -1.8459263489130101e-02  8.5007016134195489e-03 -1.3749213354098386e-02 -1.7063861692385877e-02  7.5676421735085689e-03 -1.0180056545933770e-02 -1.5063967514713290e-02  6.6791492433929036e-03 -6.7289567272664627e-03 -1.2558752936576925e-02  1.2213300357736689e-02 -9.9873951436675445e-03 -2.2243876390191781e-02  1.1470704088030954e-02 -1.0774686781813843e-02 -2.2464104171938774e-02  1.1417612871345325e-02 -1.0087195357306556e-02 -2.5936087412505006e-02  1.2174020198103779e-02 -9.3183296039753925e-03 -2.5632569740976000e-02  1.215618469