<?xml version="1.0"?>
<VTKFile type="UnstructuredGrid"  version="0.1"  >
<UnstructuredGrid>
<Piece  NumberOfPoints="1003" NumberOfCells="4273">
<Points>
<DataArray  type="Float64"  NumberOfComponents="3"  format="ascii">7.376440303582541 3.802851683860807 1.269222908809696  7.213932430564562 3.824005962749197 1.312733091601731  7.363152636850844 3.867090196564549 1.361568804020625  7.361460565744081 3.922729320920384 1.323266236745892  7.211412184539999 3.87812834156478 1.272330577219584  7.373663796969425 3.856919955424378 1.227921978144125  7.359641692293136 3.978384083680736 1.284970736061744  7.208783906327801 3.93227676196844 1.231973844040864  7.370789001081679 3.911000921438796 1.186607651118477  7.357733310872884 4.034047849805908 1.246656489493784  7.206083625128379 3.986432290788718 1.19162644885796  7.367842428163601 3.965089309148928 1.145265854345026  7.355781507836154 4.089715220685312 1.208300469503923  7.203349074258224 4.040576542109258 1.151255153418979  7.364854007154437 4.019182739547438 1.103881390599627  7.353829824210585 4.145387923002819 1.169885788485266  7.200623406227039 4.094694243730236 1.110830325906134  7.361850836560713 4.073289256015115 1.062444239096723  7.35193144879026 4.201054572154563 1.13139991967008  7.197940089070341 4.148773906989372 1.070324681678462  7.358863829490603 4.127405297002888 1.020934741341471  8.032128368178475 3.092276104198452 0.8458160966112692  8.062703390031361 2.955567925177228 0.8521412388386504  7.914583213520623 3.026891808092581 0.8315482885395671  7.92291789465583 3.025693483221596 0.7633375105642373  8.073565353376337 2.944767355376157 0.7857748748764195  8.037936290068743 3.093385738973185 0.7766207560153507  7.931239522704056 3.024479396107608 0.695118126586904  7.304210985964274 3.752458582419564 1.21118868904531  7.301266954788028 3.803798408840486 1.166318939314198  7.298244172240628 3.855160910815647 1.121432401252816  7.295158770529324 3.906525003695168 1.076525481346547  7.292037471576401 3.95788515858434 1.031579736369412  7.288907681160576 4.009248499613721 0.98657543490591  7.285813983058394 4.060635510095892 0.9414810017970964  7.377267140918786 2.852280727429805 0.7814537232897586  7.265002608982934 2.785665894069089 0.7869065705812438  7.288726453159245 2.937100169943909 0.7778717200081235  7.285289053008006 2.938909176421264 0.7088347614841961  7.262305719001437 2.778745977463883 0.7192803593123773  7.378550382229705 2.847997564613188 0.7131438294914709  7.379695790711088 2.843822755069381 0.6447763857753673  7.259423503885106 2.771917410060267 0.6516106212193177  7.281715055219191 2.94079236995977 0.6397777502905392  7.380798111059268 2.83965236778935 0.5763621519841439  7.256478710294472 2.76509193311217 0.5839057681052606  7.278094846242023 2.942667972884705 0.5707004477225343  7.253551014838111 2.758212292899559 0.5161788026618351  7.381913838305233 2.835424062047601 0.5079142351285512  7.27448577799184 2.944493190406823 0.5016035229004825  7.250697644255353 2.751233656584656 0.4484335607754075  7.3830844397933 2.83109017893869 0.4394458455697716  7.270930615095927 2.946234544330261 0.4324878829636776  7.38435138957931 2.826611918415128 0.3709671491856105  7.247966945044912 2.744122201714517 0.3806684913911628  7.267465010286293 2.947862622520165 0.363357315298877  7.171802221154011 2.896380349070776 0.7883053258005677  7.164671032845148 2.896908893586893 0.7199042130173113  7.157375937287695 2.897478407055701 0.6515076562009918  7.150015086807096 2.898043540815881 0.5831057134924846  7.142659300463317 2.898572454764628 0.5146968316135225  7.13536755944726 2.899036639538835 0.4462791990727252  7.128188431920657 2.899402229936931 0.3778463953196936  7.493404039023377 3.059764255259846 0.7844659632827613  7.407295076591783 2.985759333590051 0.7800060692118785  7.402113839017683 3.133233264640328 0.7990771946530392  7.401297106419205 3.146376877272068 0.7301087164013811  7.407936069919103 2.989051658047709 0.7106132056587394  7.496797433906421 3.067970126346344 0.7147864778549281  7.400386806703681 3.159560384659748 0.6611482392492236  7.40846751579692 2.992424368163452 0.6412011386285968  7.500102518487609 3.076218317951778 0.6451017797119731  7.399445417157009 3.172725512314134 0.5921664910748315  7.408966109253067 2.995793705377905 0.5717620642253979  7.503384595843474 3.084450023040481 0.5753966698575561  7.398506524557134 3.185846040032537 0.5231597889846746  7.40947541420623 2.999111433871609 0.5022991001033085  7.506678353205416 3.092631074025654 0.5056678857161138  7.39759732796295 3.198902257793424 0.4541330430069884  7.410029618734142 3.002340982254748 0.432817972791403  7.510011777507163 3.100734155056533 0.4359177613756673  7.396741552816261 3.211868127833151 0.3850962449717797  7.410658653028706 3.005445671856382 0.3633259524253584  7.51342067899511 3.108736946066828 0.3661528845320682  7.307042184146681 3.067866635636987 0.7897187763138147  7.302500196932831 3.078383746484314 0.7208593736958182  7.29785958358954 3.088944035658119 0.6520077084176443  7.293180847014543 3.099491304172826 0.5831426819887913  7.288505689420935 3.109993580176499 0.5142592493736057  7.283865097060287 3.120426606810484 0.4453565446639439  7.279284313897513 3.130771196602463 0.3764329644424146  7.935706902181098 3.180082045388536 0.8411551582390309  7.940365995766842 3.18870150358683 0.7715841974621293  7.302455782394397 3.206925851342042 0.8177639524813863  7.294982487427482 3.227189915930483 0.7507675735300148  7.287454713090968 3.247464490506573 0.6837791499390814  7.279899707018544 3.267715625735418 0.6167740254086665  7.27234256190554 3.287927632190799 0.5497462136921907  7.264798221660982 3.308084373785156 0.4826969082535906  7.257269152477213 3.328167576553947 0.4156357984472255  7.791810683480469 2.455633156735022 0.9357794172773297  7.649167272342809 2.401352040697841 0.9258245031846253  7.674492196639685 2.513231050694638 0.8883583318028311  7.686558433507233 2.491466649989625 0.8289972262913518  7.660466316685352 2.377906629964961 0.8678557877103177  7.807067973626362 2.433202385520922 0.8789807367162445  7.69868779233375 2.469828649808956 0.7694455780625494  7.671834633537833 2.354560575907408 0.8096823527687232  7.822493180636093 2.41086324509821 0.8220647573990675  7.710847259139709 2.448168192508672 0.7097831195140472  7.683246118444786 2.331205142721842 0.7513865001498393  7.837987793051381 2.388508517258253 0.7650721589891575  7.723011050247581 2.426403679444539 0.6500519189869269  7.778399453806268 2.551773318984294 0.8971864244453256  7.793007565507498 2.530879180056191 0.8384942082479158  7.807736646891238 2.510064633052083 0.7796605861925299  7.822518419065073 2.489225949171565 0.7207450671103566  7.837305935212329 2.468312272090426 0.6617814640995107  7.208963881190531 3.720569716407502 1.182988826745827  7.205689642394927 3.770802717426029 1.136787503916698  7.202361104738337 3.821057444144858 1.090564188538516  7.198983879159325 3.871317349863524 1.044322584592298  7.195577008569289 3.921572705353233 0.9980450563334717  7.192161515405636 3.971818763766791 0.9517116247213577  7.188768375155855 4.022053775289411 0.9052991021709977  7.141544816752846 2.775483817796172 0.7987472670054707  7.13336426133283 2.768185576585033 0.7316838804052332  7.124965087251348 2.760940167387036 0.6646287344956118  7.116478329864114 2.753696732806576 0.5975730810853386  7.108005967539857 2.746425222233321 0.5305170647895101  7.099629303080083 2.739094654618782 0.4634581919799891  7.091419827119944 2.731658934587577 0.3963807830430309  7.122208094724578 3.663479756028021 1.133557292524962  7.135919217194184 3.774643018304042 1.249162639485023  7.133435360018221 3.826779937139453 1.205742042448633  7.118721975750023 3.711857420085062 1.08529701896285  7.130845295272195 3.878960825608624 1.162338170764342  7.115188082963319 3.76023961124484 1.03701922464625  7.128199163263571 3.931154143197663 1.118930441466131  7.111617209482975 3.808625120927255 0.9887157439505261  7.125523671637408 3.983342266904981 1.075492433057511  7.108023194642942 3.857007125053393 0.9403763408564635  7.122847233495538 4.035514674557091 1.031998670877964  7.104415522937689 3.905376980297017 0.8919929940135303  7.120215844523657 4.087671137444048 0.9884471395425465  7.100812622730171 3.95372236692938 0.8435718701826378  7.835922647922792 3.109130422027162 0.8281557694579667  7.842498767866881 3.116712253731862 0.7593449097415123  7.944996898099297 3.197286678852763 0.7019962687402471  7.84903077556951 3.124273426764258 0.6905203086974357  7.939578599507342 3.023227154275873 0.626892608583617  7.949635107377173 3.20581898102049 0.632389072165169  7.855562335658841 3.131797646225096 0.6216800093004295  7.94794196290166 3.021922209900048 0.5586667077743549  7.954296127109854 3.214294808279415 0.562763496223819  7.862114653920537 3.139271492623932 0.552825389880586  7.956329683852723 3.020556476741135 0.4904441610319007  7.958993808514982 3.222710352017892 0.4931173128386105  7.868702467379578 3.146685410036731 0.4839575822267392  7.964751531344106 3.019124643098418 0.4222315249107816  7.963740994598663 3.231058955117251 0.4234432870292986  7.875353716062987 3.154032519012567 0.4150739886381014  7.377952350550697 2.746738250486285 0.792508649507247  7.379562112693976 2.736457906939193 0.7256991876063493  7.381015720668398 2.726300638776146 0.6587911480072357  7.382419939184531 2.716144363762941 0.591815356238923  7.383839900358177 2.70591754006299 0.5247999836953058  7.38532778593291 2.695568890701467 0.457764759700285  7.386928688833905 2.685055145840543 0.3907276115406169  7.214413526264138 3.141001351762449 0.8154635184568817  7.204410775819295 3.15777736635275 0.7484844475771084  7.194343405833803 3.174557933131037 0.6815185112331534  7.184240937631458 3.191323474511767 0.6145481529764463  7.174132968650096 3.208054267404665 0.5475644159340698  7.164042749833277 3.224732398402861 0.4805635243075766  7.153984720600643 3.241331056846269 0.41353712648166  7.213305127275
[...]
<PointData  Vectors="f_24"> 
<DataArray  type="Float64"  Name="f_24"  NumberOfComponents="3" format="ascii">-1.8230645149507310e-04 6.8813096184413951e-04 9.5565281340658967e-04  -1.6963058784134842e-04 7.5629353683399762e-04 9.5954358504412359e-04  -1.8552734042479426e-04 8.6731412967124043e-04 9.0049375623018962e-04  -1.9528487184477324e-04 7.8707627875293572e-04 8.2323183159717904e-04  -1.7870073134383012e-04 6.7628043370220471e-04 8.9312465546193464e-04  -1.8989071125075557e-04 6.0708930419406447e-04 8.9119043415240731e-04  -2.0483791174391073e-04 7.1390066009822549e-04 7.4618739803454916e-04  -1.8779175443362197e-04 6.0440347379177675e-04 8.2651039875397355e-04  -1.9771016321177889e-04 5.3456122228244670e-04 8.2597543776347646e-04  -2.1440263046279787e-04 6.4596499476649309e-04 6.6841453787527783e-04  -1.9695105560081879e-04 5.3812582774561345e-04 7.5809945040794513e-04  -2.0582827513776324e-04 4.6800023622520221e-04 7.5839043215768676e-04  -2.2407033637908156e-04 5.8148595085699781e-04 5.8832955851155044e-04  -2.0627514178893678e-04 4.7581393744919217e-04 6.8674385495735586e-04  -2.1415279199748792e-04 4.0559103028856366e-04 6.8732463124077266e-04  -2.3393749534369752e-04 5.1907385347348578e-04 5.0455723671269793e-04  -2.1585415214824539e-04 4.1600136543786626e-04 6.1140929400651373e-04  -2.2258619766959465e-04 3.4585432439410369e-04 6.1180891552967587e-04  -2.4422683311688408e-04 4.5755019283458801e-04 4.1610585505164380e-04  -2.2571155384726693e-04 3.5754837362273433e-04 5.3113525093100532e-04  -2.3096590275537305e-04 2.8753674390152287e-04 5.3111385503808043e-04  -2.0030228909700032e-04 -3.0389043827753196e-04 8.9676748090836698e-04  -1.9154380632688389e-04 -4.0856650027054484e-04 7.9033996168782544e-04  -1.9004312415582062e-04 -3.2175652733632535e-04 8.8774048611317948e-04  -2.1244920245302678e-04 -2.7699423802417326e-04 9.1521108290490438e-04  -2.1822098726727006e-04 -3.4827562266643734e-04 8.0428760006460238e-04  -2.2243827412747209e-04 -2.6484587135779201e-04 9.2977054230568648e-04  -2.3344948466598692e-04 -2.3736490863321923e-04 9.3067473233307335e-04  -1.7293622333252684e-04 5.7169204287331997e-04 1.0033099121458291e-03  -1.7975941866129678e-04 4.9069265148621148e-04 9.5228274922987848e-04  -1.8693267926345397e-04 4.1879401845932354e-04 8.9847472231648019e-04  -1.9443164344582186e-04 3.5332454655012088e-04 8.4150701048102676e-04  -2.0218212664030306e-04 2.9248831488889088e-04 7.8050005482824790e-04  -2.1013453468163873e-04 2.3483500873094839e-04 7.1468435642313476e-04  -2.1818645136105052e-04 1.7903923006053183e-04 6.4353263664071057e-04  -1.4487898346240581e-04 -3.2715072402770130e-04 8.9182097380535751e-04  -1.3146767280321935e-04 -3.5274789474947659e-04 8.6009645802070868e-04  -1.4246455690865534e-04 -2.6757590171380897e-04 9.7321117935935699e-04  -1.5311426566807362e-04 -2.2489923634167751e-04 1.0005805928129498e-03  -1.4371615892684104e-04 -2.9375640764016159e-04 8.7577244995610572e-04  -1.5955711361685920e-04 -2.7283813249198333e-04 9.1083936716361937e-04  -1.7320667803964843e-04 -2.2412516690017384e-04 9.2137118221280153e-04  -1.5549488429615187e-04 -2.4075583299064914e-04 8.8371750279165489e-04  -1.6375184863644002e-04 -1.8625472545885213e-04 1.0162936597111066e-03  -1.8673352795052533e-04 -1.7765039804502807e-04 9.2475131099939304e-04  -1.6724550345733553e-04 -1.9019979311099655e-04 8.8544155871550230e-04  -1.7474008209877062e-04 -1.4871746050634397e-04 1.0235892173354748e-03  -1.7936575251285437e-04 -1.3987164801264180e-04 8.8178007494260798e-04  -2.0025005261468031e-04 -1.3122347065517174e-04 9.2209108886488745e-04  -1.8622966646697581e-04 -1.1055913996645577e-04 1.0240219334007384e-03  -1.9207774004409626e-04 -8.8081295088605555e-05 8.7334379105922404e-04  -2.1381448284904679e-04 -8.3259496863781981e-05 9.1427039958799433e-04  -1.9838736693269387e-04 -7.0545776826011567e-05 1.0188082111147272e-03  -2.2739247887510131e-04 -3.2541282526506495e-05 9.0183085055638829e-04  -2.0546732557686286e-04 -3.3572338713192683e-05 8.6065569946135786e-04  -2.1133173210154620e-04 -2.7763772867430585e-05 1.0093858941656376e-03  -1.2823342271311283e-04 -2.8445820887542490e-04 9.6267069594198221e-04  -1.3628053720876650e-04 -2.3864366908416329e-04 9.8884564970045676e-04  -1.4487026890632558e-04 -1.9662302728815445e-04 1.0050498603267185e-03  -1.5402264205588006e-04 -1.5607849447284760e-04 1.0131430816066303e-03  -1.6385624181215619e-04 -1.1520773232307852e-04 1.0144978296514522e-03  -1.7475022099782951e-04 -7.2652755266791784e-05 1.0101271653262132e-03  -1.8733991022646266e-04 -2.7236832707250428e-05 1.0009643176197641e-03  -1.6582914027065109e-04 -2.2034391571582116e-04 1.0134219072458011e-03  -1.5491050582991771e-04 -2.5417182379246673e-04 9.8251620268558523e-04  -1.6054747714648325e-04 -1.6755335661293197e-04 1.0648494477264816e-03  -1.7082545814553796e-04 -1.5430372900564104e-04 1.0986552037077766e-03  -1.6818224484559333e-04 -2.1581086811499887e-04 1.0110024032831859e-03  -1.8027332642135086e-04 -1.9234550731135559e-04 1.0444405435188465e-03  -1.8121863656488121e-04 -1.4172970159706381e-04 1.1181031396511347e-03  -1.8096130510079127e-04 -1.8128949775693368e-04 1.0277436807269579e-03  -1.9405037514900862e-04 -1.6655524666098803e-04 1.0621348822019568e-03  -1.9202965186190996e-04 -1.2753205388940308e-04 1.1266745938861551e-03  -1.9362325158355225e-04 -1.4768118070626092e-04 1.0352542513520746e-03  -2.0733518668283120e-04 -1.4085761726906419e-04 1.0699246170641002e-03  -2.0303091345526839e-04 -1.1095345203624774e-04 1.1272237805149087e-03  -2.0622865120900583e-04 -1.1320989883117582e-04 1.0354878296586927e-03  -2.2008858523992058e-04 -1.1377209458998027e-04 1.0699028028200294e-03  -2.1407179022827938e-04 -9.1690496719836118e-05 1.1216632861309271e-03  -2.1879902105811138e-04 -7.6732204415186299e-05 1.0299184435296322e-03  -2.3214694702944425e-04 -8.4349762896469225e-05 1.0637116730504263e-03  -2.2511837331649247e-04 -6.9691095079593037e-05 1.1111173933507842e-03  -2.3148441258530428e-04 -3.7541060112387553e-05 1.0195546837155364e-03  -2.4351013195557559e-04 -5.2152180102119773e-05 1.0539375893468554e-03  -1.4985568436907130e-04 -1.9595518254691814e-04 1.0497370013173525e-03  -1.5845793296196854e-04 -1.7312041082229775e-04 1.0830847689579349e-03  -1.6762962391169702e-04 -1.5170020975970773e-04 1.1030895167260853e-03  -1.7751941073764762e-04 -1.2979467060666950e-04 1.1130837301962476e-03  -1.8804800817064809e-04 -1.0628793696639411e-04 1.1152783300236249e-03  -1.9938456726813602e-04 -8.0499912243574398e-05 1.1112730399690362e-03  -2.1165697455858629e-04 -5.2004987068169725e-05 1.1025335403811495e-03  -1.9983721032861641e-04 -2.1964510177415407e-04 9.7186200348564535e-04  -2.1829692614822030e-04 -2.0113891438333900e-04 1.0096553852810069e-03  -1.5448059315192086e-04 -1.0988077116122667e-04 1.1122988835900033e-03  -1.5981113063790890e-04 -1.1398068634546430e-04 1.1445674840142497e-03  -1.6708567980178868e-04 -1.1493209231551274e-04 1.1617299576849257e-03  -1.7534727519710400e-04 -1.1270015211040302e-04 1.1687793056107195e-03  -1.8435030241628690e-04 -1.0733162766430243e-04 1.1679286269285700e-03  -1.9440794838855365e-04 -9.8948271327237644e-05 1.1609043167873808e-03  -2.0623006552079136e-04 -8.8385158067470776e-05 1.1501681871829976e-03  -1.2171627760480575e-04 -6.6937653736109872e-04 3.9644256938801975e-04  -1.1811725410435909e-04 -6.5718267517577821e-04 3.9646058000655348e-04  -1.2935270125858300e-04 -5.9756965656930733e-04 4.9676919441025730e-04  -1.5173290602399242e-04 -5.3351764654216991e-04 4.7981873592342422e-04  -1.3950365503316150e-04 -5.9885875474513029e-04 3.7635991858625127e-04  -1.4560575089087624e-04 -6.1027273591365871e-04 3.7440249947820269e-04  -1.7286063991474917e-04 -4.7466151774080040e-04 4.6405244140607267e-04  -1.5997125113420744e-04 -5.4396745564906201e-04 3.5882031111406050e-04  -1.6837181491534764e-04 -5.5501913157814911e-04 3.5504290968538168e-04  -1.9327240530902525e-04 -4.1822093640970311e-04 4.4804832668117678e-04  -1.7996820004758833e-04 -4.9051853487898877e-04 3.4232878050733805e-04  -1.9064718874138659e-04 -5.0136138525598399e-04 3.3675496559115237e-04  -2.1341221671866310e-04 -3.6175359949106414e-04 4.3087303115120257e-04  -1.3388023333531235e-04 -6.0563857945166474e-04 4.9837512337152037e-04  -1.5796263289823102e-04 -5.4082894108429343e-04 4.8070219361490450e-04  -1.8073517875199417e-04 -4.8159229373961394e-04 4.6421372196544950e-04  -2.0269010988913130e-04 -4.2492114794832788e-04 4.4742443290880611e-04  -2.2426573750901081e-04 -3.6819931191416137e-04 4.2933594040639819e-04  -1.6253736651614028e-04 5.1193959087327966e-04 1.0373342485164292e-03  -1.6946617140854700e-04 4.3282690589960238e-04 9.9300767518237893e-04  -1.7642954838902093e-04 3.6316266257998409e-04 9.4572730956918381e-04  -1.8365032315888750e-04 3.0010487708589451e-04 8.9457034249166222e-04  -1.9117306346566477e-04 2.4182352622818679e-04 8.3894405966116001e-04  -1.9902832121264678e-04 1.8687170803833366e-04 7.7832404216753818e-04  -2.0726541786030638e-04 1.3399852772301237e-04 7.1231690089201046e-04  -1.1843584765855652e-04 -3.5534044951193499e-04 8.7204974724051931e-04  -1.2716010230292226e-04 -2.9691637789714889e-04 8.8801438676502204e-04  -1.3600744679026131e-04 -2.4368023547906374e-04 8.9689672488044397e-04  -1.4516341125976937e-04 -1.9297033027562707e-04 8.9950835520581206e-04  -1.5488157974196946e-04 -1.4254770625944901e-04 8.9658905620783368e-04  -1.6565214731839134e-04 -9.0779674901487364e-05 8.8869694938648839e-04  -1.7829303354726238e-04 -3.6396166969759533e-05 8.7660949373439070e-04  -1.5184675781077975e-04 4.1396793461182359e-04 1.0818707159870719e-03  -1.5972504374875789e-04 6.2670771865945519e-04 1.0073548963484009e-03  -1.6788190312528697e-04 5.4740825395974732e-04 9.5275397339602413e-04  -1.5773502862070397e-04 3.3930453001370292e-04 1.0488677881120099e-03  -1.7575597066244884e-04 4.7661247650944286e-04 8.9614346566897546e-04  -1.6397886358327071e-04 2.7405293368385733e-04 1.0116768267732442e-03  -1.8384748378047215e-04 4.1190112436855799e-04 8.3676864729501880e-04  -1.7053258886833879e-04 2.1555704884547683e-04 9.6953002666266223e-04  -1.9219663576652946e-04 3.5153050510914891e-04 7.7365988666039647e-04  -1.7745736808188269e-04 1.6191833906148474e-04 9.2216652376508228e-04  -2.0088012090492882e-04 2.9409131769172721e-04 7.0602208454130456e-04  -1.8481700654650261e-04 1.1175478039831677e-04 8.6940891930763437e-04  -2.0990953624929403e-04 2.3844934683101343e-04 6.3335603534971671e-04  -1.9280355536113278e-04 6.4282619289736075e-05 8.1093676847482496e-04  -1.8987174590446893e-04 -2.4798723109166758e-04 9.5923173253747247e-04  -2.0897458877741979e-04 -2.2070147653461229e-04 9.9417450775749470e-04  -2.3597520164426623e-04 -1.8507414101848242e-04 1.0315313646799531e-03  -2.2712132458632423e-04 -1.9558307259895339e-04 1.0157303071610833e-03  -2.5337962434339749e-04 -1.9964053709020107e-04 9.3670247970269183e-04  -2.5289045780693822e-04 -1.6835628471610297e-04 1.0415655458805072e-03  -2.4430735840585933e-04 -1.7114538684113187e-04 1.0264363792877817e-03  -2.7213684193386358e-04 -1.6161041624789032e-04 9.3473425854960913e-04  -2.6898766024024197e-04 -1.4980666901397353e-04 1.0421190901405163e-03  -2.6035975413223088e-04 -1.4580579755699440e-04 1.0282216837238180e-03  -2.8960749379281409e-04 -1.2153821790509539e-04 9.2558162701118025e-04  -2.8420846260801471e-04 -1.2870527262493883e-04 1.0344327869666198e-03  -2.7497851297504221e-04 -1.1834210131065198e-04 1.0222923164865836e-03  -3.0528587096582716e-04 -7.8000163690961229e-05 9.0941562444307234e-04  -2.9849020281668906e-04 -1.0470735324425616e-04 1.0192911985133638e-03  -2.8763535196909228e-04 -8.7516527205937171e-05 1.0088324658325833e-03  -1.3836653588305821e-04 -3.8773530934769199e-04 8.0350450049738596e-04  -1.5383591395937295e-04 -3.2560503499953753e-04 8.1287049732615935e-04  -1.6847501856714884e-04 -2.6928450688548325e-04 8.1636804057100938e-04  -1.8270525987189291e-04 -2.1575678754547957e-04 8.1464830440960989e-04  -1.9685357383711219e-04 -1.6261533152144283e-04 8.0813796853493520e-04  -2.1105164167765485e-04 -1.0797733740347313e-04 7.9719788492703175e-04  -2.2544320626932384e-04 -5.0565802735195875e-05 7.8207875251637860e-04  -1.4322901994093582e-04 -1.4287895537334728e-04 1.0975545558383605e-03  -1.4736952000076370e-04 -1.3668703386608593e-04 1.1316035980638401e-03  -1.5365382845070795e-04 -1.2860179262327208e-04 1.1531093121509468e-03  -1.6104232611198057e-04 -1.1860568129727869e-04 1.1644726459669841e-03  -1.6928027386488160e-04 -1.0625940121375525e-04 1.1677337446480414e-03  -1.7881170085586411e-04 -9.1306294246023729e-05 1.1643377909369987e-03  -1.9128737905342905e-04 -7.3607039375027559e-05 1.1554321207113787e-03  -1.4657560695926884e-04 -6.6074938187148363e-05 1.1331403491308908e-03  -1.4915918104376356e-04 -8.1454907064785638e-05 1.1625056734291313e-03  -1.5440620793243499e-04 -9.2255378185473243e-05 1.1800114659493554e-03  -1.6083745771579305e-04 -9.9238402025115618e-05 1.1874033841979355e-03  -1.6813599919365582e-04 -1.0293517141622153e-04 1.1865907378300856e-03  -1.7660419491601724e-04 -1.0358328083828988e-04 1.1789610453590452e-03  -1.8774589391561147e-04 -1.0112112488039815e-04 1.1653919628578787e-03  -1.4917456977687335e-04 5.2105182170492407e-04 1.0524670675487800e-03  -1.5596852740354272e-04 4.4370413545749391e-04 1.0089928949845385e-03  -1.6272251414491947e-04 3.7513001415590886e-04 9.6225858981288778e-04  -1.6966490917434885e-04 3.1302592331498120e-04 9.1178335500025922e-04  -1.7692618408502394e-04 2.5562131078894160e-04 8.5687906762481672e-04  -1.8470333231435841e-04 2.0149918663881123e-04 7.9697522146947536e-04  -1.9337243048091749e-04 1.4932001710098446e-04 7.3169626510019288e-04  -1.8270948588018410e-04 -3.1424730815819219e-04 8.9807378617307141e-04  -1.7458860135298446e-04 -3.4129027535427606e-04 8.6650292703445929e-04  -1.8085797700991197e-04 -2.5686578457061188e-04 9.5953251766920592e-04  -1.9981456501638818e-04 -2.2493771694381874e-04 9.9157870941473107e-04  -1.9651626091575044e-04 -2.8949664924929818e-04 8.8717218337341138e-04  -2.0482202818752443e-04 -2.6968615767746168e-04 9.2430314878723331e-04  -2.1763384758042892e-04 -1.9561311603246320e-04 1.0111634327575744e-03  -2.1666374474441506e-04 -2.4348226502781233e-04 8.9835815933287625e-04  -2.2501018261441956e-04 -2.2968190537885400e-04 9.3907580058895954e-04  -2.3428936510707220e-04 -1.6701620893547450e-04 1.0204853477445027e-03  -2.3558531260526569e-04 -1.9955279755985288e-04 9.0152221448613716e-04  -2.4403076203973248e-04 -1.9139240663614508e-04 9.4496333350129629e-04  -2.4967560820765908e-04 -1.3753458320271206e-04 1.0214532131773610e-03  -2.5323183274541145e-04 -1.5541237621624363e-04 8.9783898858192658e-04  -2.6178105627390019e-04 -1.5274506261924646e-04 9.4321594512190951e-04  -2.6339721872863515e-04 -1.0584660308812609e-04 1.0153527232511085e-03  -2.6928079160282381e-04 -1.0929159367591985e-04 8.8813032641331326e-04  -2.7792598110037720e-04 -1.1206608312701309e-04 9.3461815187538370e-04  -2.7487863892691907e-04 -7.0749751024146257e-05 1.0029833177319740e-03  -2.8314281901125888e-04 -5.9862813535126503e-05 8.7341981210767251e-04  -2.9179818016951349e-04 -6.8076668140345815e-05 9.2002096844082408e-04  -1.7983940024634149e-04 9.3874301209882923e-04 8.8729814297262399e-04  -1.9099992836322505e-04 8.6254098363764244e-04 8.0604321237569038e-04  -2.0192853083861182e-04 7.9365389029449434e-04 7.2562160238108227e-04  -2.1278022187919181e-04 7.2925646588102827e-04 6.4494863489343720e-04  -2.2374316341351735e-04 6.6758501001147965e-04 5.6227109882177123e-04  -2.3501676242182549e-04 6.0737060625295298e-04 4.7601959550887512e-04  -2.4687446682290591e-04 5.4774351240593426e-04 3.8503361238939393e-04  -1.6284522080716276e-04 -2.7992133736603168e-04 9.4878071731682788e-04  -1.7945127597277131e-04 -2.3665394897256478e-04 9.7405897913148680e-04  -1.9513062425845391e-04 -1.9856698596566792e-04 9.8869766926296967e-04  -2.1007084313254241e-04 -1.6178398962489969e-04 9.9440544081737638e-04  -2.2432515271384801e-04 -1.2423778670998378e-04 9.9293971041338022e-04  -2.3780619244397541e-04 -8.4609299175883559e-05 9.8562891804210187e-04  -2.5032251257176594e-04 -4.2182881425069546e-05 9.7350502894893889e-04  -2.0788319464197066e-04 8.9274227937621929e-05 1.0294983873636485e-03  -2.0101415538986589e-04 1.6871701367945411e-04 1.0405502135084437e-03  -2.0856391377324117e-04 2.5502984953736367e-04 1.0008357671594985e-03  -2.0536337667742422e-04 1.0131570001948808e-04 1.0348258407995962e-03  -2.1303402436511953e-04 3.0436280851545479e-05 1.0395310673939791e-03  -2.1105067121978855e-04 1.7726914776733098e-04 9.8473965343015969e-04  -2.1089645796603643e-04 4.4687319572544670e-05 1.0212664198833417e-03  -2.1944575480702401e-04 -1.8526242389174740e-05 1.0377170719944380e-03  -2.1504346843514120e-04 1.1051904820716179e-04 9.6055963806204920e-04  -2.1712287770787224e-04 -4.3282596662310703e-06 9.9883346378404456e-04  -2.2669604614362156e-04 -6.0338570331271967e-05 1.0257035756301774e-03  -2.2005596903098529e-04 5.1886767082933513e-05 9.2902144491805306e-04  -2.2353909064896606e-04 -4.7986673780086877e-05 9.6838043958323897e-04  -2.3422260167968570e-04 -9.6983913237046792e-05 1.0048252415221790e-03  -2.2548129295599101e-04 -8.0085220744902073e-07 8.9031577277079758e-04  -2.2949762963510924e-04 -8.7615190069959833e-05 9.3050705047991844e-04  -2.4154376796636990e-04 -1.2965708260416318e-04 9.7588489375416843e-04  -2.3083322790783440e-04 -4.9148484956131660e-05 8.4445785120532970e-04  -2.3391548170996953e-04 -1.2342017535357073e-04 8.8519588960873539e-04  -2.4804682537265795e-04 -1.5881316517700104e-04 9.3879667580336410e-04  -2.3561162660408664e-04 -9.4523682061665545e-05 7.9103593521822767e-04  -1.5527555075747291e-04 -3.2275636577824910e-04 8.9356891987744783e-04  -1.7203372446870926e-04 -2.7041524456638503e-04 9.1356672999066729e-04  -1.8797222310075568e-04 -2.2321860615953523e-04 9.2460532437407600e-04  -2.0317916769958875e-04 -1.7830140978857941e-04 9.2816346268979660e-04  -2.1785161132947670e-04 -1.3333215019074393e-04 9.2538833086216543e-04  -2.3204105835777258e-04 -8.6683985110891376e-05 9.1721723036448780e-04  -2.4581681101283658e-04 -3.7205224789314367e-05 9.0433322989279523e-04  -1.7118297230424206e-04 -2.7263697502861122e-04 9.5043322186729319e-04  -1.8944687436434746e-04 -2.3395186583662224e-04 9.7815224736082056e-04  -2.0651389009623708e-04 -1.9880492228680209e-04 9.9503422791702889e-04  -2.2256712423490441e-04 -1.6485291527094570e-04 1.0024284408184374e-03  -2.3755601731047276e-04 -1.3020021351942466e-04 1.0021674790768056e-03  -2.5119088552395710e-04 -9.3467405642199672e-05 9.9559947237658534e-04  -2.6277044835253756e-04 -5.3590167113428490e-05 9.8372768530340777e-04  -1.8056523355892488e-04 -4.0757250521394526e-04 7.9318970390255086e-04  -2.0555985983499884e-04 -3.4801134430658445e-04 8.0777602376142280e-04  -2.2908958107502626e-04 -2.9508937148450479e-04 8.1471543374434495e-04  -2.4292003745094798e-04 -2.9601205504244354e-04 8.0783378335843247e-04  -2.5109929521907549e-04 -2.4540587422484667e-04 8.1441226608304983e-04  -2.6606294143671972e-04 -2.4663681751823594e-04 8.0401199996507698e-04  -2.7171336186820140e-04 -1.9621407941506879e-04 8.0759197225023993e-04  -1.6329311373965713e-04 8.0967437213023518e-04 9.5159454229852124e-04  -1.5994508819320338e-04 9.0705717731497538e-04 9.3060517126412141e-04  -1.7130413243568224e-04 9.7536399694860400e-04 8.9117379316157319e-04  -1.8321267860048226e-04 9.0211297555940859e-04 8.0932722647547280e-04  -1.7065222389590754e-04 8.3243661491735628e-04 8.5564604768965133e-04  -1.7304514978662465e-04 7.3184924076882634e-04 8.8228448238075296e-04  -1.9488401691310033e-04 8.3632089785581204e-04 7.2893359014087787e-04  -1.8105712013101677e-04 7.6501055140179629e-04 7.8205896219532805e-04  -1.8266316553259532e-04 6.6147368835701981e-04 8.1323796466525259e-04  -2.0641571726775251e-04 7.7476519844690058e-04 6.4855677771142543e-04  -1.9133894494792838e-04 7.0245