<?xml version="1.0"?>
<VTKFile type="UnstructuredGrid"  version="0.1"  >
<UnstructuredGrid>
<Piece  NumberOfPoints="701" NumberOfCells="2872">
<Points>
<DataArray  type="Float64"  NumberOfComponents="3"  format="ascii">11.33155593571571 2.070839644263712 2.993402167940042  11.22224303185358 2.114152020185915 3.090751061261083  11.21940448951583 2.052695333472356 2.975893347266531  11.22425106551483 2.000510676453912 3.002132166788395  11.22631970241341 2.06194248442402 3.118788202259475  11.33559711021548 2.016638891654183 3.020252026768329  11.22894040954965 1.947935526374516 3.028241294834051  11.23012654914903 2.009229709457522 3.146675267674842  11.33949106227472 1.962103075046309 3.047032018110533  11.2336008888641 1.895047807932354 3.054472578211975  11.23386558914796 1.95616725170696 3.17471903037007  11.34333627081185 1.907238457833293 3.073955501093351  11.23833016217422 1.841908586266658 3.080941388001405  11.23761611257183 1.902835413552647 3.203048788037071  11.34718772828657 1.852051987051006 3.101086868575006  11.24317406632188 1.788536253670801 3.107720811671737  11.24147756750963 1.849216565823527 3.231702897066626  11.35107116972265 1.796541376212857 3.128486181901997  11.24813976393025 1.734925561014929 3.134820909093086  11.24564397281641 1.795236024289796 3.260682937523517  11.35505702478798 1.740675141378991 3.156229495915853  11.44277874797928 2.03399462074796 2.897164462505686  11.32359480668379 2.009678384874403 2.865647881707392  11.3284596140647 1.955374762013474 2.890409713283425  11.44644355165136 1.977598347034693 2.923093502154531  11.45004233035801 1.920910153579024 2.949146741868278  11.33327380447158 1.900719432191449 2.915157974158923  11.45361314995559 1.863897156928836 2.975378259215564  11.33807476279095 1.845776233991189 2.940036215609206  11.45718558761673 1.80653244503112 3.001760061716642  11.34293676064276 1.790545712115755 2.96510004388292  11.46075219459067 1.748755268363927 3.028246273969871  11.34787023221006 1.734990962539615 2.99034919498636  11.46430242131868 1.690496128658092 3.054810816088764  11.35288694964118 1.679107325562754 3.015814612580752  11.10366789174665 2.084564259881246 3.058664776145408  11.1080777300438 2.034056197588573 3.085939848070756  11.11222518537463 1.983035667785511 3.113105011111851  11.11631540384132 1.931749340075282 3.140368580249958  11.12047956527797 1.880250186557183 3.167882528661749  11.12481579406609 1.828534049590928 3.195731952159824  11.12947688655116 1.776452576996753 3.223911361454357  11.57350470265468 1.943016408286947 2.666259490840531  11.45712193818147 1.986029155373641 2.788741243592403  11.44733828030868 1.937924949452849 2.656641637477859  11.45112184283559 1.878900850279563 2.675999567657107  11.46058033197165 1.928526408008179 2.812694114568604  11.57428496790015 1.881440298228463 2.687442864298518  11.45489464597984 1.819718119105997 2.69560182568511  11.46403857671808 1.870817835826621 2.836897758690696  11.57500566121317 1.819789031237706 2.709225911637195  11.4586761148102 1.760289428832978 2.71537559089382  11.46748436558217 1.812849018060358 2.861271711757727  11.57577246483293 1.757878631366511 2.731246145343831  11.46248721492536 1.700555539719359 2.735189361690385  11.47096590442178 1.754562239936903 2.885748617052591  11.57656515396006 1.695611886639345 2.753191955129902  11.46636703544783 1.640468330738438 2.754970432134367  11.4744265680311 1.695870535597669 2.910210991172876  11.57738526895558 1.632940552842043 2.774891067094927  11.47039902316975 1.579950233830844 2.774652761023678  11.47795041104441 1.636670492574776 2.93466861617789  11.57833800617583 1.5697597181973 2.796158821508555  11.57745558880014 1.987519498793481 2.77939741205957  11.5787498926143 1.92793436357324 2.805115844331113  11.58002755907919 1.868223652360794 2.83152521975822  11.58131589533582 1.808172667562006 2.858071400526216  11.58256450036153 1.7477478077652 2.884683976274176  11.58370217426597 1.686852672054041 2.911057395872751  11.58471630518389 1.625519105895488 2.936988985306761  11.57345051676047 1.910544950124337 2.555286092533873  11.45333876126597 1.90408347819092 2.54354766585189  11.45696212759861 1.84355458295834 2.559732368505307  11.57432924053302 1.8478169774835 2.573532918678991  11.46060947555572 1.782945600824648 2.576240071278857  11.57512348732115 1.784992863197954 2.592523315846978  11.46425042663304 1.72211360543115 2.592928335577092  11.575899715695 1.721869068873663 2.611683569836874  11.46791647647273 1.66099008659581 2.609613318046086  11.57669672556446 1.658378381771727 2.63074570642806  11.47160239845877 1.599523918227944 2.626138454606736  11.57751235698482 1.594503945151241 2.649487097596342  11.47548611470441 1.537680740365259 2.642531575374216  11.57832659205105 1.530254504493135 2.667763999842426  11.34192947401831 1.968120906953712 2.769678146533648  11.34701785937075 1.912191768016444 2.791671312346202  11.3520970022923 1.856020443744554 2.813650735711878  11.35718788202567 1.799601103047276 2.835761949123405  11.36235553293395 1.74291865253988 2.858014131985836  11.36760243778398 1.685932926539693 2.880368502583582  11.37292301472613 1.628667201087906 2.902783661883432  11.3422126765758 1.691102611985571 2.490302258051836  11.45763171459036 1.691250541784608 2.470197729489413  11.3533765342006 1.671264410971119 2.350659194863703  11.4540659549924 1.753662719549792 2.458839564891447  11.3361294177396 1.750878582595855 2.478558266814612  11.35944543191223 1.609813064052037 2.357405106875603  11.34834614409068 1.631135647362865 2.502076310936755  11.46122264007931 1.628575411747587 2.481529594248835  11.36571449547966 1.54812595166699 2.364146173986742  11.35457592211161 1.570927762982875 2.513839382847241  11.46483931136872 1.565568084771803 2.492656156132052  11.37219795674457 1.486173429456965 2.370809629081222  11.36098829448342 1.510461508709426 2.525595034848097  11.46866405479877 1.502206028935925 2.503605225714218  11.69599999999907 1.882097190090313 2.44388155952207  11.57031604249124 1.880205580804383 2.437673873053515  11.57109664851167 1.81524816753809 2.449614500094188  11.69599999999908 1.814665485110858 2.460206470920615  11.69599999999908 1.747094098528189 2.477456093315191  11.57176789575873 1.75017364792049 2.462388503440216  11.69599999999908 1.679121208920255 2.494860687294984  11.57238328262416 1.684846237888365 2.475287450594716  11.69599999999909 1.610657416566344 2.511918682967822  11.57306653983433 1.619147257459063 2.487999865071904  11.69599999999909 1.541609927438569 2.528349994885818  11.5737841404302 1.553042625293138 2.500249883001759  11.6959999999991 1.471953250204908 2.54406624707857  11.57450478009716 1.486524897496743 2.512064242344905  11.6959999999989 1.944897526467951 2.672244337025049  11.69599999999891 1.881152082741741 2.696779303801184  11.69599999999893 1.817294957030063 2.722267820056146  11.69599999999895 1.753134122839696 2.747792476770974  11.69599999999896 1.688509715043816 2.773234265707621  11.69599999999898 1.623333692506442 2.798309345938617  11.695999999999 1.557384816979892 2.822664709969066  11.32408704438032 1.870022900073703 2.455195376334303  11.4468551037209 1.878076971950914 2.436733836508483  11.33006762996865 1.810505748782952 2.466877599623169  11.45047368623788 1.815892071511437 2.447636390006205  11.33626191777845 1.896757911862226 2.560455135862847  11.34232815606533 1.838718634538579 2.576866621435757  11.3484700168004 1.780495638296383 2.593300343229169  11.3546189806761 1.72208878826904 2.609831152677537  11.36080857336324 1.66345314494496 2.626426696767851  11.36706492502187 1.60455144357301 2.643035135843173  11.3734602603438 1.545392815313967 2.659658914846677  11.69599999999902 2.037562270289563 2.890687060946906  11.56344439737938 2.03685225436197 2.890699634123478  11.56524370794712 1.978199138870735 2.91790255405214  11.69599999999905 1.97604165050713 2.92011313053501  11.56700385425221 1.919246978428498 2.94553932776366  11.69599999999908 1.91440215193244 2.950389433272388  11.56876203919171 1.859942335876743 2.973415028696641  11.69599999999911 1.852301502082487 2.980949799735275  11.57057589384449 1.800261399076804 3.001434889726644  11.69599999999913 1.789640651701211 3.011503701224611  11.57228617397358 1.740130473971993 3.029323946312051  11.69599999999916 1.726342117201613 3.041847524022803  11.57382133718949 1.679524622353881 3.056904141244239  11.69599999999919 1.662196015758446 3.071606981463614  11.23685572960437 1.664010403963003 2.368227398287365  11.24405240088489 1.604626232205197 2.375455833989475  11.25145919273727 1.545100503375722 2.38275961617656  11.25898985686157 1.485443480379771 2.390105400342338  11.69599999999911 1.912691591815852 2.558604377308246  11.69599999999912 1.847226902724697 2.578420200666742  11.69599999999913 1.781601860253505 2.599326988175221  11.69599999999914 1.715563477567573 2.620390771146769  11.69599999999915 1.649029508732261 2.641183511489689  11.69599999999916 1.581950458945239 2.661527068834563  11.69599999999916 1.514306304904407 2.681369553309958  11.69599999999896 1.990299045701863 2.781881444938068  11.69599999999899 1.928313611435559 2.809841853304697  11.69599999999901 1.866224424299068 2.838511306085436  11.69599999999904 1.803676226223009 2.867454081909659  11.69599999999906 1.74055852032297 2.896370023264828  11.69599999999909 1.676799484819746 2.925000474164549  11.69599999999911 1.612454126553226 2.952903000288849  11.69599999999904 1.799915802209813 2.336639086548029  11.69599999999904 1.730687040496119 2.347775876021296  11.69599999999904 1.661092817268094 2.358874677988874  11.69599999999904 1.590977172934063 2.369733400174631  11.69599999999904 1.520234659900339 2.379929413402412  11.69599999999904 1.448998125930413 2.388775225178881  11.69599999999899 1.713839778201831 2.22499070889731  11.57557028558257 1.735511856760587 2.341125555182901  11.57637442646179 1.669125492757955 2.350302933041904  11.69599999999898 1.643113124159219 2.233487239284832  1
[...]
<PointData  Vectors="f_24"> 
<DataArray  type="Float64"  Name="f_24"  NumberOfComponents="3" format="ascii">-2.9064575920676908e-02 -1.0650902195392298e-01 -3.5949913415664538e-02  -2.9134951285567694e-02 -9.9016214364757951e-02 -3.8295283745846523e-02  -2.8675187092163910e-02 -1.0755839769458742e-01 -3.3793892601224743e-02  -2.8393780157725427e-02 -1.0560415557052753e-01 -3.0530895760327213e-02  -2.8716670621690015e-02 -9.6309279701117204e-02 -3.4219665733856638e-02  -2.9018959923786541e-02 -1.0431049969861216e-01 -3.2309385762445880e-02  -2.8208535708182769e-02 -1.0345423227706073e-01 -2.7436256567320318e-02  -2.8381329006035957e-02 -9.3505414321039232e-02 -3.0378863946271289e-02  -2.9061323320393764e-02 -1.0193405015740799e-01 -2.8868617815926520e-02  -2.8074191188008021e-02 -1.0109917596489060e-01 -2.4459237259228574e-02  -2.8090874464318152e-02 -9.0557451150045806e-02 -2.6681588037031898e-02  -2.9147650534385797e-02 -9.9370739094130633e-02 -2.5553241422801385e-02  -2.7953233124190888e-02 -9.8525372044979839e-02 -2.1557238650170639e-02  -2.7808996740097340e-02 -8.7411508463208540e-02 -2.3037517938887021e-02  -2.9238970178699836e-02 -9.6598059904198397e-02 -2.2300650738254792e-02  -2.7808998072178480e-02 -9.5701111572717740e-02 -1.8697841080238170e-02  -2.7499475562967116e-02 -8.4000003625946687e-02 -1.9360170893385976e-02  -2.9292543518647563e-02 -9.3573043671214925e-02 -1.9059816548470585e-02  -2.7607460400759658e-02 -9.2576390138221304e-02 -1.5866447350416816e-02  -2.7120900361100004e-02 -8.0222042129313761e-02 -1.5565179633679142e-02  -2.9264479287266245e-02 -9.0241426658908150e-02 -1.5771061021925440e-02  -2.8800820714933686e-02 -1.1317907464679390e-01 -3.4093318981399112e-02  -2.8777000550431350e-02 -1.1399490290399701e-01 -3.2154188814741913e-02  -2.8881683854395913e-02 -1.1256630876889283e-01 -2.9564509106567816e-02  -2.9255632159231559e-02 -1.1141410689469916e-01 -3.1006856113708008e-02  -2.9779175059685803e-02 -1.0941306792490785e-01 -2.8074696210048922e-02  -2.9078304430509194e-02 -1.1088225557167994e-01 -2.7080410305307070e-02  -3.0336854581173620e-02 -1.0719845958429193e-01 -2.5243869047323543e-02  -2.9323415175128782e-02 -1.0896871393557370e-01 -2.4679956343674370e-02  -3.0892624509733995e-02 -1.0478274320528930e-01 -2.2478056980718850e-02  -2.9577132915253830e-02 -1.0684080285194696e-01 -2.2350101040099997e-02  -3.1406220658345856e-02 -1.0215644704205651e-01 -1.9750482637881501e-02  -2.9799807509081521e-02 -1.0450068696499776e-01 -2.0089182097301515e-02  -3.1836788089544960e-02 -9.9270378773610640e-02 -1.7042557935582913e-02  -2.9947946883235110e-02 -1.0192668010863291e-01 -1.7931514561591127e-02  -2.8292181855986451e-02 -1.0199567267564051e-01 -3.4767691228828709e-02  -2.7734911898520561e-02 -9.9636556626244710e-02 -3.1143385764284746e-02  -2.7263015948603073e-02 -9.7119463289220387e-02 -2.7731426865821203e-02  -2.6835334748993880e-02 -9.4433993416535592e-02 -2.4459094554314276e-02  -2.6420719174788557e-02 -9.1535665187648871e-02 -2.1260224394443070e-02  -2.5986494540959800e-02 -8.8364488630045340e-02 -1.8075018428776873e-02  -2.5493508929117632e-02 -8.4870267048135925e-02 -1.4830401158486677e-02  -2.9113022617039155e-02 -1.2370221721133780e-01 -3.0710261935254439e-02  -2.8792253431419449e-02 -1.1838071327204898e-01 -3.1707016319642990e-02  -2.9305069565284003e-02 -1.2192991650634982e-01 -3.0458688240123551e-02  -3.0019738130069480e-02 -1.2129166904468823e-01 -2.9484966869520780e-02  -2.9440576067988996e-02 -1.1717853707907636e-01 -2.9571405388090798e-02  -3.0339580317206797e-02 -1.2282394461272828e-01 -2.9606936491753992e-02  -3.0785815220720804e-02 -1.2038303901073331e-01 -2.8509284638518269e-02  -3.0144478466386657e-02 -1.1569106254117756e-01 -2.7500461861872789e-02  -3.1561739628228086e-02 -1.2166542097343530e-01 -2.8480948044120456e-02  -3.1572904346981227e-02 -1.1926053280838778e-01 -2.7564107678374514e-02  -3.0874276579835987e-02 -1.1397107166712410e-01 -2.5491182870247004e-02  -3.2765575002118200e-02 -1.2028747521524687e-01 -2.7366761502466509e-02  -3.2355754750433140e-02 -1.1796992388914625e-01 -2.6686984186225535e-02  -3.1595836759030861e-02 -1.1205155832372975e-01 -2.3548377094181554e-02  -3.3929748487806576e-02 -1.1874756856069014e-01 -2.6319753792598939e-02  -3.3107758572103449e-02 -1.1654551734637925e-01 -2.5916145798999472e-02  -3.2269624583383137e-02 -1.0996034281330086e-01 -2.1686018918569583e-02  -3.5032688302975040e-02 -1.1708752023788253e-01 -2.5392277637056287e-02  -3.3793237281967460e-02 -1.1499970232722490e-01 -2.5279701883236125e-02  -3.2857522899533066e-02 -1.0774197807378602e-01 -1.9913804888625646e-02  -3.6064620681462163e-02 -1.1538493829770234e-01 -2.4620290977150527e-02  -2.8518506571418967e-02 -1.2052698492433248e-01 -3.1811250518688647e-02  -2.9706189225719975e-02 -1.1912679861493469e-01 -2.9654232403054193e-02  -3.0895019395150471e-02 -1.1741617813511419e-01 -2.7533882264245794e-02  -3.2074618160512901e-02 -1.1547798835255228e-01 -2.5459839730491651e-02  -3.3214810603864504e-02 -1.1335211778796002e-01 -2.3430731128791113e-02  -3.4288511226203459e-02 -1.1107693363726172e-01 -2.1474777381136845e-02  -3.5278292345411397e-02 -1.0869523886247455e-01 -1.9666822544122779e-02  -3.0004614702115472e-02 -1.2502837099732611e-01 -3.0825858297143523e-02  -3.0138549448084861e-02 -1.2316807162874537e-01 -3.0586526676551869e-02  -3.0907958739283266e-02 -1.2275390308629516e-01 -3.0533755031918648e-02  -3.1211718546635077e-02 -1.2443855930364932e-01 -3.0688939486393573e-02  -3.1717432293063841e-02 -1.2210987185606435e-01 -3.0417039274703975e-02  -3.2409754044687850e-02 -1.2360051132005792e-01 -3.0435948075239232e-02  -3.2538961543467568e-02 -1.2127494660040991e-01 -3.0289473338903080e-02  -3.3588597901822621e-02 -1.2256599388638401e-01 -3.0147786941782009e-02  -3.3352365577591442e-02 -1.2029320272439191e-01 -3.0213201018159146e-02  -3.4730871324652177e-02 -1.2138878842908932e-01 -2.9903659526398698e-02  -3.4131253864200503e-02 -1.1920385874283092e-01 -3.0252440890899495e-02  -3.5814409659444296e-02 -1.2011759315849772e-01 -2.9785568087737101e-02  -3.4848877918706792e-02 -1.1803929414923503e-01 -3.0491493771912608e-02  -3.6823683562535216e-02 -1.1879365779569219e-01 -2.9898951205153627e-02  -2.8870011226763914e-02 -1.1800532585411661e-01 -3.0590683480221800e-02  -2.9163343185019640e-02 -1.1705009681614570e-01 -2.8773485758685512e-02  -2.9528563756508391e-02 -1.1582671040827061e-01 -2.7017966453637313e-02  -2.9934991995736515e-02 -1.1437253190830017e-01 -2.5327718658101725e-02  -3.0351166838382258e-02 -1.1272086718741851e-01 -2.3717218940050817e-02  -3.0742876697779132e-02 -1.1089320928724300e-01 -2.2206401939782749e-02  -3.1064585430145130e-02 -1.0891186226310623e-01 -2.0815760128544698e-02  -3.2308275125089603e-02 -1.2019901195859047e-01 -3.2447117996054486e-02  -3.3574005831668717e-02 -1.2115010824999645e-01 -3.3487159216401226e-02  -3.3720032498233445e-02 -1.1861075152851036e-01 -3.6170624536655621e-02  -3.2776219330957992e-02 -1.2183469066037801e-01 -3.2830011047120147e-02  -3.1767528938016598e-02 -1.2083383277038190e-01 -3.1919816552808025e-02  -3.4270440280651314e-02 -1.1790990901104406e-01 -3.7454838708550348e-02  -3.2859113133003388e-02 -1.1943947066302800e-01 -3.3028714690826036e-02  -3.4364764879627932e-02 -1.2034167860632149e-01 -3.4199704459072583e-02  -3.4815583616533592e-02 -1.1713337994943787e-01 -3.8840018699627304e-02  -3.3406439528079111e-02 -1.1858260738640806e-01 -3.3705687143637947e-02  -3.5131026995724589e-02 -1.1943793474594540e-01 -3.5022682724089677e-02  -3.5349388807850310e-02 -1.1626645428631802e-01 -4.0359933471099001e-02  -3.3921287339400828e-02 -1.1766370576609610e-01 -3.4502670334003067e-02  -3.5848771767597806e-02 -1.1849078668387994e-01 -3.5985264507530562e-02  -3.1421777403733475e-02 -1.2731711306654817e-01 -3.2340660415572473e-02  -3.1372738085665736e-02 -1.2453339354362966e-01 -3.1826500508891638e-02  -3.2517276171771421e-02 -1.2403839771640725e-01 -3.2628334804379738e-02  -3.3031930317362068e-02 -1.2671647064913921e-01 -3.3099311082440026e-02  -3.4588940723290926e-02 -1.2589415491138009e-01 -3.3568174485145728e-02  -3.3651673226996880e-02 -1.2337963241502634e-01 -3.3302461516838085e-02  -3.6106576485990909e-02 -1.2488832507539058e-01 -3.3951825463771214e-02  -3.4767193454585801e-02 -1.2255782252757452e-01 -3.3941319231833175e-02  -3.7569190316736181e-02 -1.2374340670791226e-01 -3.4395364882689218e-02  -3.5846431172251621e-02 -1.2161198322942911e-01 -3.4637736436503017e-02  -3.8957669702633736e-02 -1.2251067914567487e-01 -3.5011598902744669e-02  -3.6871457033079834e-02 -1.2058351707757121e-01 -3.5470874725724209e-02  -4.0259175090285072e-02 -1.2131533714517594e-01 -3.5937081344996735e-02  -3.7841337341891969e-02 -1.1957140862544059e-01 -3.6452316667217398e-02  -2.8911473196369306e-02 -1.2650505490915648e-01 -3.0505540436467374e-02  -3.0750669794677003e-02 -1.2531958321389455e-01 -2.9326607401443522e-02  -3.2509805836803331e-02 -1.2382882317474808e-01 -2.8034512060206684e-02  -3.4215122032846539e-02 -1.2211696841651409e-01 -2.6735560890404027e-02  -3.5853511488557963e-02 -1.2023280788373113e-01 -2.5489416744536253e-02  -3.7412468132314580e-02 -1.1822844349821418e-01 -2.4364081717389467e-02  -3.8881750233868653e-02 -1.1618823767056854e-01 -2.3463809054460501e-02  -3.0763422482030869e-02 -1.2159947939273684e-01 -3.0809586673187620e-02  -3.1219785572040356e-02 -1.2271602672649734e-01 -3.1447114064060089e-02  -3.1247283569071856e-02 -1.2131310952966645e-01 -3.1394341868252088e-02  -3.1983236442328915e-02 -1.2236279155382654e-01 -3.2168313071474150e-02  -2.9890439160719699e-02 -1.2184318612899105e-01 -2.9984538239771055e-02  -3.0343886888711237e-02 -1.2147699624274666e-01 -2.9839725452969146e-02  -3.0848841915943500e-02 -1.2087767596208031e-01 -2.9641286868280728e-02  -3.1382995061566686e-02 -1.2008912519134354e-01 -2.9450342033206733e-02  -3.1925518287235784e-02 -1.1914827315910392e-01 -2.9312914288092899e-02  -3.2453207635524409e-02 -1.1808690158408509e-01 -2.9278295512820060e-02  -3.2937748417686138e-02 -1.1693386667061813e-01 -2.9406499103606154e-02  -2.8054952353304276e-02 -1.1754379813261931e-01 -3.3527172193991435e-02  -2.8492551084871590e-02 -1.1501209471507995e-01 -3.4370245609181949e-02  -2.9474971468401480e-02 -1.1302672542795424e-01 -3.1140095592020894e-02  -2.9768538782628827e-02 -1.1517814690496639e-01 -3.0171857783651237e-02  -3.0480931680793511e-02 -1.1079835847671356e-01 -2.8088528307968270e-02  -3.1416095299909158e-02 -1.1260650565611667e-01 -2.7096991896037113e-02  -3.1491150483326805e-02 -1.0837061983167874e-01 -2.5146714211176261e-02  -3.3006428832673532e-02 -1.0984995586567581e-01 -2.4121562281489050e-02  -3.2478815706878654e-02 -1.0575408120866253e-01 -2.2259423585072550e-02  -3.4544997896905634e-02 -1.0691387680396100e-01 -2.1162325053445143e-02  -3.3413650402084015e-02 -1.0294768360300340e-01 -1.9391715345741817e-02  -3.6035801389419565e-02 -1.0377591967628891e-01 -1.8164117953336972e-02  -3.4261817060962978e-02 -9.9925028864156357e-02 -1.6531310132578178e-02  -3.7519508165026812e-02 -1.0043033685972097e-01 -1.5060765323409315e-02  -3.2488397749088925e-02 -1.1805761815081889e-01 -3.5215691924667565e-02  -3.2875668426118235e-02 -1.1737572703826765e-01 -3.6368756556829564e-02  -3.3269833495061678e-02 -1.1661345895570203e-01 -3.7612821585863578e-02  -3.3666892288352027e-02 -1.1577920219612291e-01 -3.8963635308820820e-02  -2.9882761506493685e-02 -1.2791585730821012e-01 -3.0997457661235073e-02  -3.1664155479597340e-02 -1.2713586185871431e-01 -3.0849909977706660e-02  -3.3362398914884461e-02 -1.2606232408056178e-01 -3.0487326265086916e-02  -3.5005752938645121e-02 -1.2480205486550679e-01 -3.0065453718935261e-02  -3.6595532511252755e-02 -1.2340824047142133e-01 -2.9703779225955556e-02  -3.8132654110991204e-02 -1.2193244629341274e-01 -2.9507125848773037e-02  -3.9648739754252538e-02 -1.2034999575825431e-01 -2.9596712089383841e-02  -2.8151286897261086e-02 -1.2314898714100182e-01 -3.1305517691888225e-02  -3.0011269224257765e-02 -1.2140733385342009e-01 -2.9063865116325898e-02  -3.1757276226692208e-02 -1.1938737104983692e-01 -2.6875067281476501e-02  -3.3454401942972979e-02 -1.1714525579090625e-01 -2.4709043028454822e-02  -3.5090599346747298e-02 -1.1472187798373427e-01 -2.2567978353378607e-02  -3.6670037733008240e-02 -1.1214984093958821e-01 -2.0478635422230263e-02  -3.8229093222809721e-02 -1.0945474186236054e-01 -1.8530448079421582e-02  -3.4390878677143792e-02 -1.2450076799903079e-01 -3.5613817869177833e-02  -3.5790833237221827e-02 -1.2377188072633694e-01 -3.6894647870308037e-02  -3.7160781086280306e-02 -1.2292013201829946e-01 -3.8082384939239482e-02  -3.8501796180112277e-02 -1.2197899962568454e-01 -3.9326548122801487e-02  -3.9821447373027161e-02 -1.2096401955213269e-01 -4.0756080606176338e-02  -4.1144569745580298e-02 -1.1985498985303340e-01 -4.2457792167240001e-02  -3.7235066231067121e-02 -1.1978489887679997e-01 -4.0121412076831245e-02  -3.4861423677620192e-02 -1.2157597333427578e-01 -3.6098749748566493e-02  -3.5875152624461511e-02 -1.2084209965309317e-01 -3.7416746173632214e-02  -3.8353580205176985e-02 -1.1902198262125387e-01 -4.1834521965953622e-02  -3.6867854657556730e-02 -1.2001862201304003e-01 -3.8769919273132628e-02  -3.9463015845626177e-02 -1.1819672844358362e-01 -4.3608221220925156e-02  -3.7825762265711591e-02 -1.1911438909370024e-01 -4.0251387452530311e-02  -4.0565688656881350e-02 -1.1730161729920548e-01 -4.5631114590210450e-02  -3.8734929429648263e-02 -1.1810845646784519e-01 -4.1921190029356854e-02  -4.1691344734748836e-02 -1.1631309616606177e-01 -4.8145235102626936e-02  -2.9124760096918816e-02 -1.0709986648047780e-01 -3.7349989551703329e-02  -2.9458406278439802e-02 -1.0468199906212022e-01 -3.3423909646965365e-02  -2.9862564826435799e-02 -1.0209553686926152e-01 -2.9722734742919549e-02  -3.0298322260664260e-02 -9.9337610648508184e-02 -2.6158781759869472e-02  -3.0728444632420755e-02 -9.6386374962643392e-02 -2.2647262299368358e-02  -3.1112076335855922e-02 -9.3193695031206863e-02 -1.9110573130715156e-02  -3.1398555165348833e-02 -8.9687473873016565e-02 -1.5476430972569642e-02  -2.8513665298163075e-02 -1.0989582107090205e-01 -3.7325653880647382e-02  -2.9786321587314098e-02 -9.9307413632355790e-02 -4.2737985185316012e-02  -2.8887119872441330e-02 -1.0826170078924090e-01 -3.8030349153392456e-02  -2.9712601839413287e-02 -1.0552554080658183e-01 -3.3803481484181983e-02  -3.0284856883027879e-02 -9.5847134615809723e-02 -3.7662059272958431e-02  -2.9966974657217690e-02 -1.0675888903726040e-01 -3.2929876239418884e-02  -3.0561455219103167e-02 -1.0264837351759445e-01 -2.9891660952185681e-02  -3.0818081599616642e-02 -9.2374088372296853e-02 -3.3009774324965345e-02  -3.1348653156283116e-02 -1.0356933339154593e-01 -2.9019726625482248e-02  -3.1413773718827274e-02 -9.9625494707955606e-02 -2.6150268082006836e-02  -3.2677639794804827e-02 -1.0027962729301822e-01 -2.5283917666382907e-02  -3.2242282036148567e-02 -9.6433662115617741e-02 -2.2445168917353018e-02  -3.3958672952628811e-02 -9.6807790878207525e-02 -2.1539670544930990e-02  -3.3016988074813694e-02 -9.3008437733240176e-02 -1.8665248740681713e-02  -3.5199785944953155e-02 -9.3084205440522663e-02 -1.7626948367630343e-02  -3.3696555174038398e-02 -8.9273138405301808e-02 -1.4711645100989601e-02  -3.6429471387634166e-02 -8.9007171451400802e-02 -1.3403306669772710e-02  -2.7149866256079125e-02 -1.0871601298414620e-01 -2.9598186662342055e-02  -2.6077764812237073e-02 -1.0994980254843455e-01 -2.7321804539281378e-02  -2.6689890813808220e-02 -1.1386497347305612e-01 -2.6651235039825135e-02  -2.6136791795202535e-02 -1.1268415871021296e-01 -2.4657028304690430e-02  -2.5341212323611199e-02 -1.0836193953060769e-01 -2.4751808797104896e-02  -2.6535961574640429e-02 -1.0699393223074843e-01 -2.6806461250115463e-02  -2.5646890357572158e-02 -1.1122993155755351e-01 -2.2743525143091539e-02  -2.4668076314209701e-02 -1.0653524941910406e-01 -2.2329726624934636e-02  -2.5994599026641495e-02 -1.0504386776128458e-01 -2.4166170704927128e-02  -2.5197974524183771e-02 -1.0953812292837159e-01 -2.0920361448424029e-02  -2.4036015384681954e-02 -1.0448953196239663e-01 -2.0031965522138134e-02  -2.5496105544797476e-02 -1.0287691932700153e-01 -2.1647132610981269e-02  -2.4769579039785081e-02 -1.0762820741397387e-01 -1.9199048623843130e-02  -2.3425238265199849e-02 -1.0222788336729163e-01 -1.7843777616528361e-02  -2.5015495979700049e-02 -1.0048698513408483e-01 -1.9226480751734987e-02  -2.4344653338725840e-02 -1.0550916110933820e-01 -1.7603406832927413e-02  -2.2818353228283697e-02 -9.9731578692530118e-02 -1.5763677527948428e-02  -2.4528784102669374e-02 -9.7848585243742001e-02 -1.6894919712325037e-02  -2.3908618322939595e-02 -1.0318963242713643e-01 -1.6179906151916130e-02  -2.2199388654579020e-02 -9.6942296756315952e-02 -1.3811457942870010e-02  -2.4010490491111373e-02 -9.4937277439892456e-02 -1.4656876095973477e-02  -2.1042904115148288e-02 -1.1504403772419762e-01 -1.8354584851269097e-02  -1.9666144390214035e-02 -1.1682672656106138e-01 -1.5908687138173623e-02  -2.0505765114597820e-02 -1.1893290602446435e-01 -1.5975542388748945e-02  -1.9486954380067398e-02 -1.1818432116336328e-01 -1.4723237789825063e-02  -1.8486131489533094e-02 -1.1566535723745926e-01 -1.4012905859937868e-02  -1.9934802107430927e-02 -1.1376100682044885e-01 -1.6329141830543775e-02  -1.8537119553686341e-02 -1.1712112873480676e-01 -1.3543131937381008e-02  -1.7403822142440430e-02 -1.1419611992897361e-01 -1.2263706682496685e-02  -1.8909037510915834e-02 -1.1218276729742767e-01 -1.4447787964335698e-02  -1.7635154291586585e-02 -1.1579952119546089e-01 -1.2467571823819997e-02  -1.6383138658899125e-02 -1.1246597601434109e-01 -1.0656690007919904e-02  -1.7933991710185865e-02 -1.1035359760785471e-01 -1.2703297752176702e-02  -1.6760563102018816e-02 -1.1425903008897632e-01 -1.1530872732621678e-02  -1.5394845402767639e-02 -1.1049875454627781e-01 -9.1966054038883777e-03  -1.6982896900889135e-02 -1.0829695108465809e-01 -1.1098694196877999e-02  -1.5891636152818689e-02 -1.1252733411928192e-01 -1.0769367608450965e-02  -1.4411613490044273e-02 -1.0830302501435683e-01 -7.9006782880586893e-03  -1.6027921254082408e-02 -1.0602161396657110e-01 -9.6534678907799747e-03  -1.4996514481549735e-02 -1.1063276152919731e-01 -1.0219560653273937e-02  -1.3408922526053267e-02 -1.0587786265953643e-01 -6.8030860051312599e-03  -1.5045829327529601e-02 -1.0351909830645177e-01 -8.4191563894349536e-03  -2.9806756449053978e-02 -9.8802508566287708e-02 -4.1738231426984386e-02  -2.9899511302382761e-02 -9.5698363409344608e-02 -3.7061940201105668e-02  -3.0062923073841362e-02 -9.2534702544313618e-02 -3.2656369442275637e-02  -3.0258536767739326e-02 -8.9261825408659512e-02 -2.8419092070710167e-02  -3.0205595523839290e-02 -1.2069391158533994e-01 -3.0124571230223399e-02  -3.1392585658873186e-02 -1.1946152679744476e-01 -3.1838938980855304e-02  -3.0472121072578628e-02 -1.2043576982508969e-01 -3.0740468209643084e-02  -3.0766073418734614e-02 -1.1998287683012392e-01 -3.1285825384193812e-02  -3.2111297924661400e-02 -1.1864672197043963e-01 -3.4111596120110069e-02  -3.1081966593838828e-02 -1.1938260687129722e-01 -3.1828169453433273e-02  -3.1412046716451175e-02 -1.1866518750570969e-01 -3.2421186723659283e-02  -3.1749291406832539e-02 -1.1785230863064378e-01 -3.3110725934702566e-02  -3.2082229886429649e-02 -1.1693255379631937e-01 -3.3945508383515940e-02  -2.9214819197806413e-02 -1.2054948835206512e-01 -2.9697345993248924e-02  -2.9550968356491437e-02 -1.1998563565415941e-01 -2.8779555818617995e-02  -2.9951709956589200e-02 -1.1915931325302118e-01 -2.7856460623281301e-02  -3.0390210959705899e-02 -1.1811900892044264e-01 -2.6967556367112146e-02  -3.0838552554484967e-02 -1.1690454921324971e-01 -2.6148699822903413e-02  -3.1265947664884559e-02 -1.1554530358644455e-01 -2.5434666362146120e-02  -3.1634938335071590e-02 -1.1404449996890730e-01 -2.4861798062194233e-02  -2.9365631871822017e-02 -1.2014606964607054e-01 -2.9188872035172387e-02  -3.0537278642967805e-02 -1.188835032