<?xml version="1.0"?>
<VTKFile type="UnstructuredGrid"  version="0.1"  >
<UnstructuredGrid>
<Piece  NumberOfPoints="753" NumberOfCells="3018">
<Points>
<DataArray  type="Float64"  NumberOfComponents="3"  format="ascii">7.317600037944199 1.086954278520713 2.597883241611036  7.326466550422058 1.053532761033975 2.451422135079984  7.216282835461029 1.049961150275544 2.536390486342949  7.318087063072966 1.115320212159839 2.440720483000406  7.309286989016273 1.146251884390441 2.578963971086933  7.22474152092977 0.9882648360248336 2.55048837526752  7.325837304447353 1.027712001785456 2.616790709235295  7.334780376813269 0.9917938594395702 2.462111506942326  7.233089724055974 0.9266141093006814 2.564560959901237  7.333999562160336 0.9685533526169448 2.635696109118987  7.342980390921398 0.9301045036009321 2.472787228585399  8.895410063286967 1.533073795375506 2.265189620919304  8.829261961723663 1.519893364385529 2.351681881466638  8.785000649550204 1.508458591726102 2.218545167109312  8.800138778550526 1.452216962157738 2.214968025306426  8.84276415532578 1.464248753174139 2.354287853381695  8.909984542888278 1.477565453090246 2.262031543868289  8.8155917200756 1.396087273595136 2.211255137808454  8.856529518938723 1.408691026331007 2.356782764915007  8.924843985216095 1.422206698563671 2.258761701886309  8.831149601338334 1.340031352806665 2.207501496078323  8.870393481855743 1.353186757890479 2.359228118293865  8.939799469174652 1.366947694228204 2.255442227247299  8.846670433621679 1.284015247224772 2.203756867934394  8.884231833523902 1.297712513586374 2.361671956906095  8.954718633314984 1.311758280090648 2.252127783833031  8.862013279833953 1.227993731037308 2.2000715179152  8.897914283709735 1.24223943976896 2.364160189416463  8.96944191281813 1.256618725266207 2.248876616353454  8.876981943354807 1.171868364188725 2.196514999487009  8.911268026980755 1.186724861634997 2.366749582668999  8.983718650333959 1.201448954758979 2.24573256702803  9.032859261027092 1.652487851683533 1.886084267880581  9.017255972096189 1.617692023750645 1.986971295186179  8.908329320417753 1.620291473448971 1.891734035138775  8.921148339019815 1.567725453908666 1.869438842538521  9.028753353487362 1.564015512433149 1.970094573748742  8.791144904307437 1.545604317955716 2.021772746149184  8.808127409472743 1.527651683989079 2.115788215630238  8.696556422571053 1.495874613119582 2.096560907396565  8.711585913310445 1.438934281303991 2.086198240119265  8.825291630610813 1.472463323599591 2.106290869508111  8.807982098773286 1.491561696512089 2.005429055362284  8.825202590351054 1.437721924929501 1.988988754555877  8.842887932774554 1.417460238915369 2.096675681493565  8.726903355846202 1.382095297451204 2.075733694993439  8.842553920453717 1.3840059835708 1.972515045157183  8.860618015586786 1.362561259663163 2.087023558297969  8.742281535472896 1.325340422873819 2.065251022393002  8.859872052119004 1.330359988674701 1.956061586771367  8.878311127574189 1.307722726974787 2.077382979059333  8.757594619072249 1.268626324949081 2.054787955691678  8.876977027386342 1.276734235151221 1.939677662129262  8.895782313697268 1.252894956259735 2.067796288894749  8.772717118903651 1.211895784906056 2.044375085351681  8.912704733459 1.197935442170935 2.05830247164195  8.893543862395031 1.223004590373194 1.923406525816131  8.787558472290076 1.155023633801119 2.034047715703407  8.701524779605267 1.488457829763067 2.345573758274285  8.715349401346078 1.431900520465533 2.347482997708925  8.729430591955243 1.375378781185662 2.349334663214615  8.743595745268561 1.318881101916643 2.351160754731516  8.757732769472925 1.262390674130226 2.352995440824552  8.771737565159244 1.205881948831158 2.354870773403977  8.785455280787854 1.14928419978062 2.356810954340567  8.683821600419437 1.528885469873788 1.972135238911996  8.70048526055605 1.474071785583662 1.954427388570169  8.717503145740274 1.419407825529247 1.936607704445598  8.734625136573895 1.364832040946842 1.918768979649217  8.751698221661595 1.310299532776721 1.9009525457966  8.768575316611347 1.255747461624566 1.883185721895296  8.785061925871029 1.20104744983427 1.86548063836023  8.649345434657546 1.475232078862941 2.233320094402868  8.662698331538394 1.417576709224019 2.231401499013713  8.676291979030928 1.359924844263116 2.229399063284017  8.689963856524876 1.302291421729903 2.22736839890816  8.703605343142385 1.244658506842035 2.225350133361306  8.717118931892323 1.18698895076725 2.223380950372234  8.730400363340063 1.129212213803414 2.221498472413535  7.716536688769298 1.360799646066515 2.443033408508486  7.631361755782614 1.362128434945527 2.49844034466622  7.634139639052011 1.340309849192882 2.379390048541788  7.640555695022217 1.280011900846062 2.389107826528591  7.637176498542557 1.303346300660042 2.513321209663203  7.722333965748839 1.301448519956668 2.454616549443258  7.64683288526892 1.219765272341844 2.398877458235906  7.642852129383525 1.244617861370003 2.528207853150469  7.727981654282805 1.242138024633837 2.466229811941797  7.653034134737781 1.159555379243781 2.408663199457697  7.648451670989068 1.185935170903717 2.543088680331336  7.733550286662458 1.182856270299351 2.477853457769533  7.659201458220782 1.099379915764432 2.418451738110155  7.654016318474959 1.12730038483258 2.557961561370288  7.739087932355852 1.123607090159603 2.489479356399385  7.665378255739089 1.039250733310074 2.428232064439586  7.659585569586743 1.068734395531376 2.572823521030786  7.744641670550847 1.064399329895604 2.501103159416498  7.671627948808534 0.9792156860036336 2.437975819288079  7.66522011288326 1.010271760943568 2.587663766410215  7.750282034114877 1.005266328654177 2.51270782131216  8.792711343228348 1.519035826489619 2.461228307255782  8.806734662091706 1.464308487888947 2.469386920907647  8.821055506917544 1.409653171102029 2.477462389916659  8.8354665144586 1.355043717973736 2.485498847948096  8.849841447398017 1.300461825702283 2.493537002258924  8.864040391419898 1.245885015003872 2.501617666408571  8.877850159991912 1.191235900488612 2.509790942097785  8.598185880528179 1.465349504462144 2.350161021917827  8.609951710819166 1.407722063223947 2.353238414746711  8.621853172997247 1.350060897010826 2.356287270956148  8.633798685211024 1.292391331780127 2.359319764028756  8.645719598915454 1.234714987407378 2.362366684654659  8.657558182537642 1.177008255315698 2.365457033079744  8.669278155297738 1.119222596081533 2.368604329828679  8.370972186547618 1.431954345214552 2.395625148140771  8.325925508472805 1.439485683968077 2.494715510285805  8.229322304136105 1.411554413418902 2.384078005308129  8.237441910986728 1.35254192733091 2.390105502936414  8.334200161020664 1.381985147147658 2.505598746713428  8.379562489262224 1.373469604492473 2.401984092782018  8.245453046458739 1.293499463686076 2.396147704360829  8.342417596518874 1.324452190997528 2.516502014763461  8.388068260183115 1.31495110823505 2.408339594954306  8.253418678461678 1.234440004222928 2.402204777060531  8.350608149225925 1.266902328253706 2.5274170839474  8.396544440073249 1.256411675453621 2.414699192390785  8.261376595949145 1.175373491611737 2.408275593302054  8.358788613138691 1.209342344229261 2.53834651364129  8.405012040940726 1.197860112281448 2.42107460926767  8.269365809953044 1.116306647899252 2.414359866884285  8.366971232581006 1.151771791895291 2.549292943510362  8.413495193616301 1.139302270254435 2.427478967021704  8.277437112572022 1.057245746626349 2.420454508380253  8.375173632729565 1.094181783009916 2.560263604530451  8.422038705981375 1.080732911250053 2.433917476081721  7.26491918298136 1.122277644926883 2.700544347823783  7.274448528757153 1.064701604958542 2.722446099704664  7.283767319510067 1.007178084315546 2.744363726402089  8.344559805721342 1.179424406190122 2.323603966931788  8.352780597925772 1.119975490393296 2.326303211282278  8.361083206685077 1.060543052670019 2.329022585128404  8.469229416326661 1.545929018066075 2.742010186627864  8.321506308380593 1.551522874088562 2.794741295730565  8.362876862409733 1.50177583527465 2.690301597829196  8.369950633611307 1.449323184354923 2.712977600263146  8.328926205306141 1.50234314720833 2.821634409379361  8.477528623834552 1.496541036350521 2.76817754245482  8.336302891509243 1.453162898592946 2.848568327490784  8.485819223817614 1.447140151570201 2.794366912279699  8.376933749886668 1.396837620836033 2.735696379869415  8.34365720603747 1.40397415767306 2.875520005723423  8.494106483005254 1.397726820172653 2.820564555645108  8.383886803455944 1.34433850843458 2.758428244088909  8.350996627750893 1.354777279366846 2.902481936629661  8.502381186906963 1.348308497061434 2.846768865374171  8.390829134143043 1.291831477659205 2.781173479737863  8.358330144333852 1.305572658436876 2.92945709958713  8.510632657288854 1.298885294469124 2.872991068190598  8.397781834012418 1.239317638329842 2.803942901847362  8.365679947146875 1.256359194327674 2.956444268814836  8.518858633733618 1.249450444224711 2.899265873227358  8.404798120320148 1.186798487505141 2.826737482635552  8.674165603284674 1.488314473569981 2.457574138387137  8.686628633528956 1.432307858355879 2.466579673866202  8.699267488082775 1.376304998697112 2.475537500800706  8.711948147925742 1.320326029499365 2.484473687438501  8.724590821803252 1.264359755437158 2.493422349252282  8.737119177543891 1.208381107433902 2.502418632271564  8.749456457729861 1.152327552253217 2.511488563435761  7.163901221364537 1.024865021897883 2.695842633271038  7.173611663553317 0.9654343982882729 2.716317901195145  7.523818737984221 1.334357069912615 2.413578258391214  7.530824316842624 1.274022990117116 2.424949224509168  7.537743764875051 1.213771203328733 2.436352820837152  7.544606046250329 1.15356149066632 2.447760755065739  7.551428176860579 1.09339069279599 2.459165376149657  7.558226402660875 1.033272340867518 2.470561696212933  7.565014835972422 0.9732500333396255 2.481933060765068  7.230402961362655 1.0985778969
[...]
<PointData  Vectors="f_24"> 
<DataArray  type="Float64"  Name="f_24"  NumberOfComponents="3" format="ascii">4.7481202350920732e-03 -1.3828583445979312e-01 1.9080198326919387e-02  2.4358540335654147e-03 -1.2937340924709842e-01 1.3903954250186437e-02  3.9922680812051860e-03 -1.3393269382339204e-01 1.6969366286013858e-02  2.5831011361004833e-03 -1.2984266356171564e-01 1.7534937921491335e-02  4.7667310625114142e-03 -1.3842862492637592e-01 2.2479029127039252e-02  3.7488378288764320e-03 -1.3362445537666065e-01 1.3177757410451452e-02  4.6735323168018428e-03 -1.3813131019237557e-01 1.5453304981843639e-02  2.2575644673990172e-03 -1.2894967203798552e-01 1.0153183890658973e-02  3.4490405226403533e-03 -1.3345200402352159e-01 9.1643541940286018e-03  4.5457258229553840e-03 -1.3810447784834617e-01 1.1465444196905875e-02  2.0236286052302188e-03 -1.2858180374223047e-01 6.2218968327742976e-03  -1.0778160302193888e-02 -1.1628898915973317e-01 -2.2879397726020098e-03  -9.1223924572740468e-03 -1.2039133884753180e-01 2.2105244445262992e-03  -1.0473548256762782e-02 -1.1463322069323922e-01 -1.5513222160804150e-03  -1.0800318665943019e-02 -1.1298706422846222e-01 -3.7391012477613877e-03  -9.0879439569879674e-03 -1.1909607815896536e-01 -3.4831791485281764e-04  -1.1028382779399961e-02 -1.1472560408859378e-01 -4.4282363348478451e-03  -1.1029219109742311e-02 -1.1165662150353411e-01 -5.7842838567515624e-03  -9.0026707650502080e-03 -1.1800303760540955e-01 -2.7122353471852848e-03  -1.1191120310512876e-02 -1.1344345642562260e-01 -6.4799131453414250e-03  -1.1185390493233281e-02 -1.1058154307473733e-01 -7.7927638095651452e-03  -8.8702502146901889e-03 -1.1708516327894596e-01 -5.0041657384891436e-03  -1.1292142164915349e-02 -1.1237226914790430e-01 -8.4893989096353935e-03  -1.1279284866077436e-02 -1.0971929763125195e-01 -9.8337763020207788e-03  -8.6977484880304042e-03 -1.1632301448420446e-01 -7.3087120932918111e-03  -1.1342901968616832e-02 -1.1148815524045204e-01 -1.0518012430889864e-02  -1.1314451588775568e-02 -1.0904274133679842e-01 -1.1962738901659850e-02  -8.4898228482647234e-03 -1.1570694148087544e-01 -9.6928936024457193e-03  -1.1346781902188270e-02 -1.1078030279273417e-01 -1.2615363775727815e-02  -1.1286261761672328e-02 -1.0853763733862470e-01 -1.4231095426623153e-02  -8.2502480509124895e-03 -1.1522772326967720e-01 -1.2209928574894792e-02  -1.1301918650286003e-02 -1.1026260683078024e-01 -1.4816670234740550e-02  -1.5793294957133840e-02 -1.0312820983903222e-01 -1.9748717156810452e-02  -1.4790863707833139e-02 -1.0613053291715226e-01 -1.4961449874041006e-02  -1.4702328195772761e-02 -1.0270721651453228e-01 -1.6348253579863952e-02  -1.5833607424120492e-02 -1.0110279517187043e-01 -1.6227769716742783e-02  -1.5636655628690342e-02 -1.0438392818470341e-01 -1.5385178340290280e-02  -1.2706698265284908e-02 -1.0658735636182379e-01 -8.7383890515203618e-03  -1.1880067658559474e-02 -1.1026685941743415e-01 -5.6869687439928904e-03  -1.1355456803408813e-02 -1.0944227170867925e-01 -3.9972987471748956e-03  -1.1979893424854240e-02 -1.0754863156297072e-01 -5.6693002386632224e-03  -1.2531161250083064e-02 -1.0845737305307482e-01 -7.2336454246525322e-03  -1.3639796775063556e-02 -1.0475413734152098e-01 -9.6871525361698282e-03  -1.4414364123216500e-02 -1.0327145824563158e-01 -1.0743447202706426e-02  -1.3037974783511083e-02 -1.0703223416991976e-01 -8.7796467706844558e-03  -1.2467885583024483e-02 -1.0609776881083613e-01 -7.3233706005128990e-03  -1.5086928014030103e-02 -1.0210973973658395e-01 -1.1856199861464627e-02  -1.3454776093484154e-02 -1.0589604786791337e-01 -1.0346216599862259e-02  -1.2876617902590178e-02 -1.0495532440123066e-01 -8.9976313145017691e-03  -1.5674638858504324e-02 -1.0122910341253363e-01 -1.3034278517298175e-02  -1.3796451911198422e-02 -1.0500357313865312e-01 -1.1963823461721168e-02  -1.3210785785869143e-02 -1.0406130244916156e-01 -1.0730142077409062e-02  -1.6179822762494262e-02 -1.0059326647615170e-01 -1.4292634728150773e-02  -1.4065541637009481e-02 -1.0432596077566005e-01 -1.3662650946877230e-02  -1.3469668390683370e-02 -1.0338082385157624e-01 -1.2553939757665054e-02  -1.4251486166620080e-02 -1.0384483456258863e-01 -1.5471529023316452e-02  -1.6595895295184227e-02 -1.0017099595672080e-01 -1.5636657144097722e-02  -1.3651498523176254e-02 -1.0289377187584091e-01 -1.4498267838118565e-02  -8.2205044335836881e-03 -1.2072432740738245e-01 4.3556064091476564e-03  -8.1589249506641964e-03 -1.1938070860053776e-01 1.6589403113341221e-03  -8.0477569639651348e-03 -1.1822899986534897e-01 -9.1155917176334177e-04  -7.9018469358167788e-03 -1.1726880155447680e-01 -3.4023667500759068e-03  -7.7187222494334729e-03 -1.1647451972058891e-01 -5.8960638927404926e-03  -7.4967328138241165e-03 -1.1582827235510645e-01 -8.4543270436651559e-03  -7.2347248848633932e-03 -1.1530262511095886e-01 -1.1115453458732997e-02  -1.2549427946122503e-02 -1.0457657158493489e-01 -8.0142813304563236e-03  -1.3524839789105882e-02 -1.0269949807898550e-01 -8.8720495308877816e-03  -1.4364846288334135e-02 -1.0123326008928976e-01 -9.8267351132703285e-03  -1.5102449050284515e-02 -1.0011702407956659e-01 -1.0873327519251550e-02  -1.5751031337299989e-02 -9.9289460781273001e-02 -1.2009403498475259e-02  -1.6313443100060609e-02 -9.8704383689349834e-02 -1.3240387589740442e-02  -1.6787413518338280e-02 -9.8320017118538314e-02 -1.4578858501366485e-02  -9.3978322969893672e-03 -1.1579089537409253e-01 1.7144409853964884e-03  -9.5151882964627215e-03 -1.1420578247777100e-01 -7.5627663368800740e-04  -9.6046318620777935e-03 -1.1290265053244880e-01 -3.0660449607791229e-03  -9.6486807686366038e-03 -1.1185019251390663e-01 -5.3245896330606241e-03  -9.6401726471542822e-03 -1.1100729986988239e-01 -7.6100100668618159e-03  -9.5709159152433994e-03 -1.1034325947402684e-01 -9.9814336866432627e-03  -9.4309759245096748e-03 -1.0983937742246354e-01 -1.2486371991882728e-02  2.9600754789509311e-04 -1.3358733721186228e-01 2.5789008415288389e-02  1.7887248788900246e-03 -1.3704106920074005e-01 2.8822241739820731e-02  1.0883155169376506e-04 -1.3014387869012636e-01 2.4713728113141879e-02  2.8243559423580156e-04 -1.2952435302944004e-01 2.0932611747987436e-02  2.1585815618380931e-03 -1.3694873246738679e-01 2.5145034243927038e-02  6.7198141840596058e-04 -1.3317188342157121e-01 2.2082690368007325e-02  4.4536849892199597e-04 -1.2893852264983874e-01 1.7418406686912771e-02  2.4913598935033315e-03 -1.3674395526923958e-01 2.1766353202975302e-02  9.9897045807614978e-04 -1.3273008776775885e-01 1.8651009581590227e-02  6.0164445611944931e-04 -1.2838387188659264e-01 1.4014130825464953e-02  2.7932576690069843e-03 -1.3644839871103120e-01 1.8498923770379132e-02  1.2987378396092401e-03 -1.3226779738156189e-01 1.5333293997678056e-02  7.5237146484229708e-04 -1.2785959055872789e-01 1.0601652565895443e-02  3.0788015732697233e-03 -1.3609430642401485e-01 1.5188595917229323e-02  1.5888618196619310e-03 -1.3179992492183959e-01 1.1997858853101721e-02  8.9885826025752332e-04 -1.2737251421033227e-01 7.0808968096194779e-03  3.3614012233790548e-03 -1.3571983821225211e-01 1.1713434129616613e-02  1.8857089913160506e-03 -1.3134461500289407e-01 8.5424459123880046e-03  1.0410343813631560e-03 -1.2691539459732440e-01 3.3625798170668925e-03  3.6569327036017688e-03 -1.3538509835437557e-01 7.9915728485522308e-03  2.1967656794327057e-03 -1.3086437799441195e-01 4.8974478932845671e-03  -7.4013457220673774e-03 -1.2539913134673075e-01 6.6034647916900051e-03  -7.0678585210161259e-03 -1.2446138388281938e-01 3.8192046555574123e-03  -6.6932138346253592e-03 -1.2365285448591540e-01 1.2488547894041846e-03  -6.3014505731437782e-03 -1.2293184210085209e-01 -1.2252856090271397e-03  -5.8940865442992374e-03 -1.2229691787914683e-01 -3.7118579453011449e-03  -5.4691990637431367e-03 -1.2176443578249842e-01 -6.2997872208998273e-03  -5.0184020540123154e-03 -1.2138039111397406e-01 -9.0482198663931774e-03  -7.4599903721321980e-03 -1.2157541709926954e-01 6.4947516436817390e-03  -7.2661887636809724e-03 -1.2027726821209002e-01 3.6505271361462945e-03  -7.0590328163529538e-03 -1.1918774880103178e-01 9.6183870722069348e-04  -6.8299452490636521e-03 -1.1827913408040346e-01 -1.6496751926856799e-03  -6.5698668505369080e-03 -1.1752619963838606e-01 -4.2671144833700088e-03  -6.2664525177600896e-03 -1.1691608004173706e-01 -6.9560752966383241e-03  -5.9086563988884041e-03 -1.1643704773225280e-01 -9.7675742332325663e-03  -5.3389489114100243e-03 -1.2574578767066225e-01 1.2520822579268674e-02  -3.6032894675824935e-03 -1.3109290554220579e-01 1.6613197290152003e-02  -4.5085807495873261e-03 -1.2652344918533795e-01 1.4861534920578094e-02  -4.0317519861454362e-03 -1.2550481154834359e-01 1.1615672824403983e-02  -2.9252208911254149e-03 -1.3042422652354627e-01 1.3419348384841654e-02  -4.8604872065999803e-03 -1.2471613750383991e-01 9.3754805164820969e-03  -3.6065876390579260e-03 -1.2461071628712095e-01 8.5476459433498353e-03  -2.3001606990433296e-03 -1.2981442937476351e-01 1.0430861594558931e-02  -4.4267507990142915e-03 -1.2383032680679133e-01 6.4286338568580034e-03  -3.2001602311199470e-03 -1.2382425215409013e-01 5.5593889026592878e-03  -1.7024406675316761e-03 -1.2924438813444830e-01 7.5303415114690879e-03  -4.0078773682168485e-03 -1.2306428998704554e-01 3.5644659297168479e-03  -2.7853449392536219e-03 -1.2313167544189803e-01 2.5690280335781395e-03  -1.1035933589719818e-03 -1.2871846853668562e-01 4.6156615156851500e-03  -3.5770520020342983e-03 -1.2240361307893288e-01 6.9556758658867088e-04  -2.3385701237224631e-03 -1.2252510772120312e-01 -4.8877593800148475e-04  -4.7618914767423522e-04 -1.2824981411142938e-01 1.6092232907036809e-03  -3.1101932451624700e-03 -1.2184139625411418e-01 -2.2480083245977299e-03  -1.8413989739672508e-03 -1.2198652279473964e-01 -3.6649793263838618e-03  2.0089494944788115e-04 -1.2785920978447060e-01 -1.5381531586015182e-03  -2.5840585687229261e-03 -1.2137405060299628e-01 -5.3252938839575444e-03  6.5600208147906887e-03 -1.4419899900625002e-01 2.4340566196529075e-02  6.4876884890724693e-03 -1.4403930479354651e-01 2.0955563003064188e-02  6.2950447626540515e-03 -1.4386720968426531e-01 1.7150713591691593e-02  -4.9213240194193077e-03 -1.1802649743567430e-01 -6.3292384099595980e-04  -4.5911325412404721e-03 -1.1735486663641170e-01 -3.5411079383257265e-03  -4.1943185234507028e-03 -1.1679200290270489e-01 -6.5704427980349282e-03  -1.3950964599807366e-03 -1.4042869938336688e-01 2.2694738733276387e-02  3.0402532844202529e-04 -1.4412590735786374e-01 2.6905574525693914e-02  -1.1641096462058115e-03 -1.3966769509850180e-01 2.2729564060347682e-02  -9.1586891978601549e-05 -1.3982178250054478e-01 2.0121641146473277e-02  1.5087884929347668e-03 -1.4459539205562491e-01 2.5052599205771693e-02  -2.2937322627701939e-04 -1.4083334534432304e-01 2.0485012251026474e-02  2.6025086546820424e-03 -1.4461925444106810e-01 2.3461650966530842e-02  8.5664944394192783e-04 -1.4086863366105029e-01 1.8617588630806169e-02  9.0010613041564933e-04 -1.3977906065191406e-01 1.7835615807505024e-02  3.6249886151435897e-03 -1.4432451592841053e-01 2.1886955838951849e-02  1.8807748263112766e-03 -1.4065327919983500e-01 1.6828694637243794e-02  1.8354519301273387e-03 -1.3956351057525671e-01 1.5617507782773897e-02  4.5979888908370967e-03 -1.4383535800660316e-01 2.0158308732462191e-02  2.8661437347511564e-03 -1.4029293560527561e-01 1.4920879973939122e-02  2.7423393924160739e-03 -1.3925226147487765e-01 1.3292590469378350e-02  5.5389950474509786e-03 -1.4325998500254322e-01 1.8123152637723353e-02  3.8330429155508240e-03 -1.3989296615835362e-01 1.2726661525891731e-02  3.6503580576443596e-03 -1.3894132077500107e-01 1.0731523099263080e-02  6.4618184517635019e-03 -1.4267029326873393e-01 1.5622801622799444e-02  4.7982339640074015e-03 -1.3956677358832126e-01 1.0060495172366615e-02  4.6041843538767802e-03 -1.3876945975555005e-01 7.8516907994749269e-03  -6.4785123816021445e-03 -1.2596881200881307e-01 8.5087167852723848e-03  -6.0854817071352074e-03 -1.2505218024973100e-01 5.6162064005580688e-03  -5.6564040816495633e-03 -1.2428584553536529e-01 2.9177463747033549e-03  -5.2127357257365095e-03 -1.2361628661584070e-01 3.0954320709213333e-04  -4.7539126086101760e-03 -1.2303519733486300e-01 -2.3195984517644444e-03  -4.2724330166442814e-03 -1.2256010746504833e-01 -5.0532181347363887e-03  -3.7577277202232246e-03 -1.2223877988189494e-01 -7.9445828095720053e-03  6.0970865599190103e-03 -1.4178464608664104e-01 1.9351505454538866e-02  5.7703716653421033e-03 -1.4167252773181399e-01 1.5412282539015292e-02  1.4612425305182157e-03 -1.3229903750339359e-01 2.7379481117342466e-02  1.5612443501239923e-03 -1.3185508152646772e-01 2.3462188499932854e-02  1.6629169160992121e-03 -1.3139717441371773e-01 1.9857027308769221e-02  1.7615030534218503e-03 -1.3093563131499908e-01 1.6382808688269704e-02  1.8499527896910220e-03 -1.3048497814178880e-01 1.2896324975285556e-02  1.9187285629962113e-03 -1.3005901509982123e-01 9.2855699508561703e-03  1.9583266063965812e-03 -1.2962497468057321e-01 5.4631340695124294e-03  8.2012373343965436e-03 -1.4895789563736075e-01 2.6374513109864790e-02  8.2973706344967660e-03 -1.4931091539282240e-01 2.9464434894856870e-02  7.9355974641236900e-03 -1.4868383917519892e-01 2.2849411456455474e-02  -4.7875991022067578e-03 -1.3141225823984837e-01 1.3498124936711956e-02  -5.7021909081306395e-03 -1.2691142748504736e-01 1.0779108834015016e-02  -5.1911406712065915e-03 -1.2605998024406498e-01 7.7737727861076841e-03  -4.0707023082514155e-03 -1.3100389544137539e-01 1.0568876360491992e-02  -3.3663571719875327e-03 -1.3054114730795230e-01 7.9279458154426861e-03  -4.6952580206624066e-03 -1.2533741617455857e-01 4.9895812323041550e-03  -2.6772576043162847e-03 -1.3007710129761743e-01 5.4029371528811062e-03  -4.1978149239545936e-03 -1.2471115126466374e-01 2.2947703549057175e-03  -1.9910110146126878e-03 -1.2964010020095079e-01 2.8474990803673389e-03  -3.6867431879708977e-03 -1.2417389319839534e-01 -4.1761174909711813e-04  -1.3019117927199886e-03 -1.2925842684063363e-01 1.5821259618715330e-04  -3.1473255255460193e-03 -1.2373352297970724e-01 -3.2263538950934359e-03  -6.1024279079481992e-04 -1.2893336935904420e-01 -2.7509941435199894e-03  -2.5547908923943701e-03 -1.2342244598852048e-01 -6.1936077933585094e-03  -2.9217402680910276e-03 -1.3644354394714159e-01 1.8163857046231656e-02  -3.7798369073881676e-03 -1.3290539108235314e-01 1.5798255378541196e-02  -3.0163753190707841e-03 -1.3246517639623950e-01 1.2804351617859987e-02  -1.9503347241722898e-03 -1.3644091512620904e-01 1.5536047374693589e-02  -2.2866803632837556e-03 -1.3199852776273494e-01 1.0044022495204195e-02  -1.0161528858191379e-03 -1.3627297354237047e-01 1.3240703942700849e-02  -1.5787952027318938e-03 -1.3152188844816851e-01 7.3784855409239356e-03  -1.1881464388849525e-04 -1.3596753306517884e-01 1.1019987172676471e-02  -8.7746607640361263e-04 -1.3106432950006347e-01 4.6777241242189618e-03  7.5425676214399312e-04 -1.3559346761008964e-01 8.7061288150044446e-03  -1.6659403707977480e-04 -1.3066430364162818e-01 1.8560896032468316e-03  1.6183544963768923e-03 -1.3524074933341931e-01 6.1682616005093657e-03  5.6565284513256878e-04 -1.3033895785142194e-01 -1.1243200845401761e-03  2.4836703807231660e-03 -1.3505834319515850e-01 3.3356643001949122e-03  3.3019546769496536e-03 -1.4909465678882464e-01 3.3482900155020479e-02  4.3641150918363909e-03 -1.5071966419912405e-01 3.5691417374913971e-02  2.7659768982153609e-03 -1.4643013692481258e-01 3.2042500724251494e-02  3.6999878012593415e-03 -1.4687227759056667e-01 2.9557416367686030e-02  5.3648565147850899e-03 -1.5137197667518767e-01 3.4126124384076299e-02  4.3702918583244741e-03 -1.4966213485706675e-01 3.1808654181262802e-02  4.5112642985941894e-03 -1.4696846991091581e-01 2.7304662066922572e-02  6.2168152821867372e-03 -1.5149006147109889e-01 3.2724819093268215e-02  5.3123127692266559e-03 -1.4975267604036768e-01 3.0314609717515071e-02  5.2531098298747121e-03 -1.4678248249029976e-01 2.5074187491842492e-02  6.9867413596487018e-03 -1.5119932079760554e-01 3.1309375631136782e-02  6.1721053211999119e-03 -1.4947081519463101e-01 2.8815760687081641e-02  5.9683971995483183e-03 -1.4639777208291047e-01 2.2707265349311532e-02  7.7164054166847570e-03 -1.5061047357436205e-01 2.9718941442523714e-02  6.9842644971421612e-03 -1.4891859384465764e-01 2.7143329146506027e-02  6.7019638879401953e-03 -1.4589891148153405e-01 2.0084679551715084e-02  8.4447404120621006e-03 -1.4981077323868999e-01 2.7798131162271134e-02  7.8024092854476019e-03 -1.4820324706138169e-01 2.5151601785220853e-02  7.4980008260642087e-03 -1.4540936476366553e-01 1.7136367116313413e-02  9.2187710201605908e-03 -1.4884594933244297e-01 2.5371787564243197e-02  8.6694849411811398e-03 -1.4736911681183212e-01 2.2679363677302507e-02  -5.4418570628362428e-03 -1.1547967813124334e-01 -6.9237823855697388e-04  -5.2110124781259617e-03 -1.1471167177784085e-01 -3.6161836214261001e-03  -4.9132998381922807e-03 -1.1405665615781591e-01 -6.6437378220316496e-03  -2.1966376474274302e-03 -1.3722363185272413e-01 1.9684263441947354e-02  -1.2141247871396523e-03 -1.3719112632395586e-01 1.6937645794572912e-02  -2.8301871842245239e-04 -1.3703824624335603e-01 1.4519035035478080e-02  6.0670618781279606e-04 -1.3675836141315795e-01 1.2166919541084150e-02  1.4736334768414960e-03 -1.3641566495564045e-01 9.7159267002536083e-03  2.3395635235664591e-03 -1.3609122384509229e-01 7.0492196102728321e-03  3.2389676674941963e-03 -1.3589522121248798e-01 4.1083932135847663e-03  3.7521051900351195e-03 -1.4763924294469827e-01 3.4204267227617768e-02  4.5937361894723677e-03 -1.4822845994533790e-01 3.1736969429892264e-02  5.3125829898296034e-03 -1.4840999129564802e-01 2.9503794629976491e-02  5.9606138928806644e-03 -1.4827563079101727e-01 2.7292957111700183e-02  6.5790914360067078e-03 -1.4791345141174983e-01 2.4940756380822222e-02  7.2161781824606934e-03 -1.4740805929253442e-01 2.2307888704310094e-02  7.9372679664071709e-03 -1.4688610879617869e-01 1.9300447848348373e-02  -3.8585419269862625e-03 -1.1859608629973455e-01 1.6503975316308494e-03  -3.5765340908280640e-03 -1.1785409598874848e-01 -1.4382751108721753e-03  -3.2403171314909309e-03 -1.1721621702547899e-01 -4.6284830631686553e-03  -1.4858995153979048e-02 -1.0801878729699471e-01 -1.3896398640124269e-02  -1.2705542500088639e-02 -1.1107850390959993e-01 -1.0612458010406094e-02  -1.4056668439464081e-02 -1.0778307473032614e-01 -1.2148694486525235e-02  -1.4315856013489833e-02 -1.0687992335619555e-01 -1.3605142081938288e-02  -1.2833356159653182e-02 -1.1013542876470421e-01 -1.2405074365750873e-02  -1.5094317189248679e-02 -1.0712603805884321e-01 -1.5221764969656082e-02  -1.4518520586778657e-02 -1.0618625486242254e-01 -1.5151071579808818e-02  -1.3668762764053601e-02 -1.0642024196931194e-01 -1.1692989544738210e-02  -1.4527337164678794e-02 -1.0465268709388585e-01 -1.2410523894276406e-02  -1.5339242126976807e-02 -1.0318454472014715e-01 -1.3152730317400853e-02  -1.6406347663810779e-02 -1.0300370631026769e-01 -1.5806182289323515e-02  -1.6855206266494220e-02 -9.9951288967741150e-02 -1.6212925711222740e-02  -1.6049898663862132e-02 -1.0204707206268195e-01 -1.3941030900829829e-02  -1.7100791681989989e-02 -1.0196721425574733e-01 -1.6278912073328024e-02  -1.7781947521868194e-02 -9.9122904354778163e-02 -1.6325509445159252e-02  -1.6676766920801327e-02 -1.0119771129821345e-01 -1.4803572233634573e-02  -1.7720068311897413e-02 -1.0120960194086653e-01 -1.6846426121720472e-02  -1.8621706941511825e-02 -9.8568008991943554e-02 -1.6559986500840628e-02  -1.7227512248998263e-02 -1.0059978099178100e-01 -1.5759513020406898e-02  -1.8273193929482061e-02 -1.0069274846827966e-01 -1.7526012619874035e-02  -1.9383788196097235e-02 -9.8259830913958665e-02 -1.6910884170356005e-02  -1.7704048972301129e-02 -1.0022568509078722e-01 -1.6814396575714069e-02  1.3549735987388497e-03 -1.3843875606310124e-01 2.8310284356931326e-02  1.9140587236800778e-03 -1.3841115803987711e-01 2.4821156532137765e-02  2.4002067207875158e-03 -1.3825459798646988e-01 2.1607647908466747e-02  2.8441762976077062e-03 -1.3798698728888581e-01 1.8494241243301304e-02  3.27291488