<?xml version="1.0"?>
<VTKFile type="UnstructuredGrid"  version="0.1"  >
<UnstructuredGrid>
<Piece  NumberOfPoints="2240" NumberOfCells="10328">
<Points>
<DataArray  type="Float64"  NumberOfComponents="3"  format="ascii">6.361788693089028 3.362546673934545 4.410047727421651  6.24769612769501 3.437997204352941 4.326320335086385  6.365004529759749 3.489401751383726 4.308214180729814  6.378552460465253 3.441468416981439 4.247451182638961  6.372716323003821 3.318858940762757 4.343497715672147  6.351447243964118 3.537269749213937 4.368970931041748  6.136166158715032 3.822571241300565 3.274886713764307  6.222709764726726 3.903240936330124 3.233301474856872  6.159754876272062 3.893551683049547 3.147282827938702  6.124341676795716 3.944699879429323 3.168865309765043  6.185014255098896 3.953153403802282 3.258233508213139  6.105755736591256 3.876258330530458 3.300292664108877  6.075609419627858 3.930134289264108 3.32573086346799  6.147660909661735 4.003454231840695 3.283207162570597  6.089237524357851 3.996198876695072 3.190469208989109  6.045545838065894 3.984212870036775 3.351248995851003  6.110405055972965 4.053934815241482 3.308259444701666  6.054216409314396 4.04792004140217 3.212155883768835  6.0154319766718 4.038395630702425 3.376848665546305  6.073073968944207 4.10450700499042 3.333379983959187  6.019111480349337 4.099765041198624 3.233916986313173  5.983742961802297 4.151664299348034 3.255712749459991  6.035459349720901 4.155098954266355 3.358541155388977  5.98509901820474 4.092702798264269 3.402504169489289  5.947713189505186 4.203452815253006 3.277561785392614  5.997129415149553 4.205497362368132 3.38373999971797  5.954215323704203 4.147139456752471 3.428239807947751  6.033015285135861 3.957036522866772 2.485090290710156  6.005692477651858 3.926858314443983 2.623887975571126  6.112815556335619 4.004067308679018 2.582912431269406  6.077059231394999 4.055807499475136 2.587836388054631  5.971395285136457 3.977868932939475 2.631269583228787  5.999000536452023 4.008912784416517 2.488498219165445  5.937427766078018 4.029320697335232 2.638608184443515  5.965309347618031 4.061246353196456 2.491892539814128  6.041601041523227 4.108002364920687 2.592736643536631  5.903408171802544 4.081026352057269 2.645988212187662  5.931637217254336 4.113833288957746 2.495315822428493  6.006205339646885 4.160430608382407 2.597666101272193  5.869205130155776 4.13288713359384 2.653404401193326  5.897812226331258 4.166510854488606 2.498774558822274  5.970693063381772 4.212922607886663 2.60263233786044  5.863664498807376 4.219155985289006 2.50227033297276  5.834576158437923 4.184812660410462 2.660871594161703  5.934925120226441 4.265309579643115 2.607647934454209  5.828981811865893 4.271613139161663 2.505804412856929  5.799329108731897 4.236589667773156 2.66842964571068  5.898669936146946 4.31743923815168 2.612704219009634  6.463650721461493 3.596470291605579 3.815613815099348  6.514693652701041 3.684607855587582 3.757997395579885  6.412589110386342 3.687830111799737 3.694709784888746  6.384195164126212 3.735559838424223 3.74174519373683  6.487821410903786 3.731465853434069 3.809339739438575  6.439561081444277 3.644455880912332 3.867387979129496  6.415770651763115 3.692470455571341 3.919177265305211  6.461297890976367 3.778380342688427 3.860666796580569  6.356161714658309 3.783369717657451 3.788845542183626  6.39212114824125 3.740454371605659 3.970964829558521  6.434927269426897 3.825278913592571 3.911978230444661  6.328286211916702 3.831194552911334 3.835979600730119  6.368492144241999 3.788391500765839 4.022742098100755  6.408572554260557 3.872123119234173 3.963269010409621  6.300418158706827 3.878996867194937 3.883131903845408  6.344762283102531 3.836259849953751 4.07449772496233  6.382115434285004 3.918874943031298 4.014510098339257  6.272404573011869 3.926747952435702 3.930271804744632  6.320795664815916 3.884006767424091 4.126216691744807  6.355415118810237 3.965450650812361 4.065665078334353  6.244042745678076 3.97437786696588 3.977362752051372  6.341426721009768 3.56899401801585 3.778843029556944  6.317520762134079 3.618956153816961 3.826787240957032  6.293896441686621 3.668924816681831 3.874826314186038  6.270416869278469 3.718877888988204 3.922909580963723  6.2469733826775 3.768828969175752 3.971012227655307  6.223432167198774 3.818799137081181 4.019120782896769  6.199538343552494 3.868780152301651 4.067229676585769  7.286632227865836 3.03274519213382 4.207078988381193  7.197695108995941 3.124988431660427 4.19570795435409  7.189396313753913 2.968405171405308 4.231253797694196  7.201590336437536 2.981442075427543 4.313743653418511  7.205649367047972 3.147810567551592 4.276279123075918  7.29920369902222 3.047042685783688 4.28950747971517  7.213713644126577 2.994555029804258 4.396187570130975  7.2135378064232 3.170719639667588 4.356764801740844  7.311715002371998 3.061414572176883 4.371880546419248  7.22581378567056 3.00767487495595 4.478585374698423  7.221401328214035 3.193641948154074 4.437175939979581  7.324203184368486 3.075789600140675 4.45419482082501  7.237911529162203 3.020760755205141 4.56094337226216  7.229259972247261 3.216525072833408 4.517530541239058  7.336685132302291 3.090123716142268 4.536461114178141  7.250019370335728 3.03378550778124 4.643277609795204  7.23712744044324 3.23933029927319 4.597853748380541  7.349165974553108 3.104380727559842 4.618697233410958  7.262159256667534 3.046705237058347 4.725619679809667  7.245015820755404 3.261997466048173 4.678187211027408  7.361647877226726 3.118529915653846 4.700926350412471  7.241015102650753 3.630563557155715 3.9686634451317  7.154103715495178 3.682094213486081 3.934586398363172  7.180707848430292 3.561229139229259 4.008533997785312  7.178116652159907 3.602291121635381 4.080467238012094  7.149425084700019 3.725481284749084 4.004561471359173  7.241266909988407 3.67288040033066 4.040321632302404  7.241520708790393 3.715144675823743 4.111715260704267  7.144800118737075 3.768798997972659 4.074274341374021  7.175557506954095 3.643328474381529 4.152140549667352  7.241751708589262 3.757330189008667 4.182890524097335  7.140192854181713 3.81201742064311 4.143777791538951  7.172995339249632 3.684304060963987 4.223623806219783  7.241924675538042 3.799449800693462 4.253921018029109  7.135559337780903 3.855143241029925 4.21311870229512  7.170411447421924 3.725206784395156 4.294966073731555  7.16781227566173 3.766023601253286 4.3662063933357  7.130900704287755 3.898188513681663 4.282333952759132  7.242080583292169 3.841461945106333 4.324821324554147  7.165215887602787 3.806650041539065 4.437395143817273  7.126233179707235 3.941073782570524 4.351451590912487  7.24224825623743 3.883293759560249 4.395618599574318  6.434544058385816 3.393733158370333 3.98996855186743  6.462617565992262 3.480251320225566 3.918268871835763  6.349676734903204 3.466827229027058 3.885540406975466  6.330178254033447 3.518428118543942 3.936354924479181  6.442189772941521 3.529017555537673 3.97285107698832  6.417942884403336 3.443728760452442 4.046521150839475  6.310893135909526 3.569972230810783 3.987235045504442  6.422015938835965 3.577748005814942 4.027410341729159  6.401521878382233 3.493668343395965 4.103057303496839  6.291722261216885 3.621462200632529 4.038139891236418  6.401967210359246 3.626429532361361 4.081949009382984  6.38519817451822 3.543545511778607 4.159565945473808  6.272592951476651 3.672928989778399 4.089043671431184  6.381957343148993 3.675058688722974 4.136466041295535  6.368909241284979 3.593364972623315 4.216051709849713  6.253412575380477 3.724378780521115 4.139942148290173  6.36189771444983 3.723621630316889 4.190960690962587  6.352585688508658 3.643117102055236 4.272527060347807  6.23407014727069 3.77581245345546 4.190842758838409  6.341650927108677 3.772070128054211 4.245431037789309  6.336152675098219 3.692800355532536 4.329015679571572  6.283090195856777 3.790624359418568 3.485384566717517  6.344838924740769 3.733495399309016 3.599404002400371  6.408434503443205 3.834127999802419 3.532332228145272  6.374025481371288 3.882044295050191 3.573016614124848  6.314309796864122 3.782242670982499 3.641410973922465  6.250635836447146 3.840133029902228 3.522502113097883  6.340037445848613 3.930189751954375 3.613772991384103  6.284139327652633 3.831149599916885 3.683525246971407  6.218526453794524 3.889837597256622 3.559722379199852  6.306211915524442 3.978398027201646 3.654591203196887  6.254138088569759 3.88012217420488 3.725700179887015  6.186563881931395 3.93965102068257 3.597024273881936  6.272356730109612 4.026588631135444 3.695439311686399  6.224126115688215 3.929104983726484 3.767921870355071  6.154562770190195 3.989510659035552 3.634395805517965  6.2383027252098 4.074690833422824 3.736273537351519  6.193914369343162 3.978076996165948 3.810155032485379  6.122302666918506 4.039404525180828 3.671817341414502  6.203868887912596 4.122585468932238 3.777039234038875  6.163238569844911 4.026955015669655 3.852366580748802  6.089429922864239 4.089183496755651 3.709258983541385  6.280491086515354 4.117740947791112 2.663498268874296  6.296397624963699 4.105411086288909 2.831994576040755  6.365077596748239 4.174020413317361 2.740937593059936  6.327128890187447 4.230689257558859 2.746786595650759  6.256338764132637 4.158095285805604 2.842701128357591  6.24274054661562 4.171912704514685 2.668015685283197  6.289715395711887 4.287549697958701 2.752543517139334  6.216682890509758 4.21113877381593 2.853334023670448  6.205451846345365 4.22635626504315 2.672453405062706  6.252561326600092 4.344418015933704 2.758294252855424  6.17721254944169 4.264329591939813 2.863981484426617  6.168401081669483 4.280904509198016 2.676889838263557  6.21546370304655 4.401173984810493 2.764072637404557  6.137747695182673 4.317491287944208 2.874677857363377  6.13138494054353 4.335406689301482 2.681377099110424  6.178270346813735 4.457697360686915 2.769872676884617  6.098123594174035 4.37046611621648 2.88541910193603  6.094222518126272 4.389703984618903 2.685908320026167  6.140863324292661 4.513879251004543 2.77568698150
[...]
<PointData  Scalars="f_14"> 
<DataArray  type="Float64"  Name="f_14"  format="ascii">4.8504019500598838e-01  4.9297069815057371e-01  4.8345748272703537e-01  4.8343713313910569e-01  4.8502482564209759e-01  4.8346479548340598e-01  5.0436270685661511e-01  4.9720190355345756e-01  5.0269623181004708e-01  5.0274389550938170e-01  4.9727654829283796e-01  5.0439684933679363e-01  5.0445299129083654e-01  4.9748492825349649e-01  5.0285717596150437e-01  5.0452729184404521e-01  4.9774210337858632e-01  5.0300259754428289e-01  5.0458677151485598e-01  4.9796336671921743e-01  5.0311957112262673e-01  5.0311741728286652e-01  4.9802712964557516e-01  5.0457123913127411e-01  5.0281416928669509e-01  4.9770947265667725e-01  5.0439293655490913e-01  5.1500206019226769e-01  5.1726274419182028e-01  5.0698055506211304e-01  5.0697486727634367e-01  5.1728168126412544e-01  5.1501012252817213e-01  5.1734139107276300e-01  5.1504063645432352e-01  5.0697256552268022e-01  5.1741321477900093e-01  5.1507133320790432e-01  5.0695548681869795e-01  5.1744016011956340e-01  5.1505882464063879e-01  5.0688684188875677e-01  5.1496529605145991e-01  5.1735424812819519e-01  5.0672821897079878e-01  5.1475331394070434e-01  5.1708420775933372e-01  5.0646869443235465e-01  4.7890295496109558e-01  4.7440327512744590e-01  4.8263928553187746e-01  4.8269116252764038e-01  4.7443927056533314e-01  4.7892757179906820e-01  4.7900409388168208e-01  4.7453436539653737e-01  4.8281263963381338e-01  4.7909466370537568e-01  4.7463318220630163e-01  4.8295840863392669e-01  4.7915175303724200e-01  4.7468345279443674e-01  4.8307028158325649e-01  4.7912180504563484e-01  4.7462754698912529e-01  4.8307507958127471e-01  4.7895324269837192e-01  4.7439538167799383e-01  4.8289692800870004e-01  4.8866316612911881e-01  4.8871200539813253e-01  4.8885011212558027e-01  4.8902827624135803e-01  4.8920065912674771e-01  4.8931233386213968e-01  4.8925094630645183e-01  4.1858481612390475e-01  4.2487435213916824e-01  4.2649917396712317e-01  4.2648062738034598e-01  4.2487686478532888e-01  4.1856796546791625e-01  4.2643469484683783e-01  4.2488770826192440e-01  4.1855647146528030e-01  4.2637641352568084e-01  4.2489095148400868e-01  4.1854857998597372e-01  4.2631949475677688e-01  4.2488416765775489e-01  4.1854697897187959e-01  4.2626934213653644e-01  4.2486027342367444e-01  4.1854399411215482e-01  4.2622773450302509e-01  4.2479370404338851e-01  4.1850838516319100e-01  4.1812323328363382e-01  4.2449858620219794e-01  4.2339131639794436e-01  4.2341481971987166e-01  4.2452443998273520e-01  4.1813251728722112e-01  4.1817007017851732e-01  4.2460574968131004e-01  4.2348892611100791e-01  4.1820922781503911e-01  4.2467988256121236e-01  4.2355845229817285e-01  4.1821638764521901e-01  4.2470916655279811e-01  4.2358613346819296e-01  4.2353864652790069e-01  4.2465926375310098e-01  4.1815836935481104e-01  4.2338353348628249e-01  4.2448813077305453e-01  4.1802030451178335e-01  4.8183397431058872e-01  4.7947720419598111e-01  4.8820590823948978e-01  4.8824142532936587e-01  4.7952603877387773e-01  4.8184292815259261e-01  4.8831345019703015e-01  4.7962894401246003e-01  4.8186809226378197e-01  4.8840289993926134e-01  4.7974575772731348e-01  4.8189513478480717e-01  4.8848506879204973e-01  4.7984438593315654e-01  4.8190809868894707e-01  4.8853741224291208e-01  4.7989371074255271e-01  4.8189534455717792e-01  4.8854740676237984e-01  4.7984335000099859e-01  4.8186567796023694e-01  4.9247540455976441e-01  4.8787586118634924e-01  4.8211981787826885e-01  4.8216939300959222e-01  4.8794148395161990e-01  4.9253925652042368e-01  4.8230893775004136e-01  4.8808720371241987e-01  4.9269910703021519e-01  4.8247177472497549e-01  4.8826945140643480e-01  4.9290352852445202e-01  4.8257645315987246e-01  4.8842159059463802e-01  4.9307914292102045e-01  4.8253008515631035e-01  4.8845339129296111e-01  4.9311650534719320e-01  4.8221923386257698e-01  4.8825714472526494e-01  4.9287146031929252e-01  4.9012934547578885e-01  4.8884885896958258e-01  4.8149075943675479e-01  4.8152534623503057e-01  4.8886551078336765e-01  4.9013989187402091e-01  4.8160437447995758e-01  4.8891786654208080e-01  4.9017051936519146e-01  4.8164604152082885e-01  4.8894523263301448e-01  4.9017471958970799e-01  4.8159855024254744e-01  4.8888839823406016e-01  4.9010578567088764e-01  4.8142144795338931e-01  4.8869527536046548e-01  4.8992711521759258e-01  4.8109201294169929e-01  4.8831974165097874e-01  4.8960852571734764e-01  4.9215984690779685e-01  4.9217918951476625e-01  5.1992027949786579e-01  5.0991054357638532e-01  5.1743708637082120e-01  5.0995705498020516e-01  5.1991827361267651e-01  5.1745709821120034e-01  5.1006317439357252e-01  5.1993154109895645e-01  5.1750694866440761e-01  5.1019465313330747e-01  5.1995231211859116e-01  5.1756799880494231e-01  5.1030136819266425e-01  5.1996997821964475e-01  5.1761024962630775e-01  5.1030143826680541e-01  5.1995544069135236e-01  5.1758900581614453e-01  5.1003410379448466e-01  5.1985246848012934e-01  5.1742380441666225e-01  4.8901047840410722e-01  4.8906936577009258e-01  4.8919417851961389e-01  4.8934849559293059e-01  4.8945244848445024e-01  4.8940302966718335e-01  4.8908754700691276e-01  4.7517563361378651e-01  4.6539513950613026e-01  4.7609547313958267e-01  4.7610911125817967e-01  4.6545725810453281e-01  4.7519129207244221e-01  4.7614469571078100e-01  4.6556302299615243e-01  4.7524079490507176e-01  4.7615394024911528e-01  4.6564572256535419e-01  4.7525888674095668e-01  4.7610216449088688e-01  4.6567688111786742e-01  4.7520704540263642e-01  4.7596759287591689e-01  4.6564212777829200e-01  4.7505682089827472e-01  4.7574455273457011e-01  4.6553276479376043e-01  4.7479534540232982e-01  5.1244572151894674e-01  5.1245986779898434e-01  5.1249318832877266e-01  5.1253411909464897e-01  5.1256879232585173e-01  5.1257361947201974e-01  5.1254693082385860e-01  4.9988038693841913e-01  4.9227360009187804e-01  4.8971652246217134e-01  4.8973292715116262e-01  4.9231929407081260e-01  4.9990977183732682e-01  4.8977244974237477e-01  4.9245086305072994e-01  4.9997722547247131e-01  4.8979869318634628e-01  4.9259537878998039e-01  5.0004757304751579e-01  4.8974058313940744e-01  4.9266637975530325e-01  5.0005961746201344e-01  4.8952503583090684e-01  4.9256401383264875e-01  4.9994289744175524e-01  4.8910055466085978e-01  4.9218367165331756e-01  4.9961368903547565e-01  5.1466458332216314e-01  5.1877871500727590e-01  5.1009251921567222e-01  5.1007780549909498e-01  5.1873579066488329e-01  5.1462887483255737e-01  5.1001886641342276e-01  5.1861953428068719e-01  5.1455901395057979e-01  5.0995040294054361e-01  5.1846106356531974e-01  5.1447693617769741e-01  5.0990125900062078e-01  5.1833594909455860e-01  5.1442056115695456e-01  5.0991749022364485e-01  5.1835836935211432e-01  5.1445502046387370e-01  5.1015431383095111e-01  5.0541982284685028e-01  5.0255139683624073e-01  4.9754936363023550e-01  4.9764039568192003e-01  5.0258513463520804e-01  5.0537823478941934e-01  4.9787523520752563e-01  5.0269971489477150e-01  5.0530449132563071e-01  4.9817849602484426e-01  5.0286050483464040e-01  5.0522972559896340e-01  4.9849828566076132e-01  5.0304754979857347e-01  5.0514947933464949e-01  4.9875859320226207e-01  5.0324227696113999e-01  5.0504142582635825e-01  4.9871020468131499e-01  5.0334542852371078e-01  5.0495585335478999e-01  5.1609668632728756e-01  5.0845471848189006e-01  5.0842798192133798e-01  5.1603175228803977e-01  5.1587230276584362e-01  5.0833509103689201e-01  5.0822544545657644e-01  5.1567793123071448e-01  5.0812535445836515e-01  4.3423325069385027e-01  4.3421020211330763e-01  4.3412423060323513e-01  4.3401580136652285e-01  4.3390453179499611e-01  4.3380621401980912e-01  4.3375160122889095e-01  4.0378292579279862e-01  4.0717962949697967e-01  4.1441753390350244e-01  4.1440400141342804e-01  5.0466195525494728e-01  5.0570230890466417e-01  5.0571023027918161e-01  5.0466748872350531e-01  5.0574903561935247e-01  5.0469513894934281e-01  5.0578157977752136e-01  5.0471194872116598e-01  5.0577093078703705e-01  5.0467999577044786e-01  5.0568147547367270e-01  5.0456304243439498e-01  5.0548343860770817e-01  5.0433218919993139e-01  4.3354378440758579e-01  4.3355937524182764e-01  4.3358802962699550e-01  4.3360430158439967e-01  4.3357777978264966e-01  4.3348061640759100e-01  4.3329507491757235e-01  4.5903779389255939e-01  4.6057594083473913e-01  4.5336435711516143e-01  4.5338880607493370e-01  4.6057533319283911e-01  4.5905987931719572e-01  4.5912058606863204e-01  4.6057271650248216e-01  4.5343685414767065e-01  4.6056397185953213e-01  4.5917813030573384e-01  4.5347992360001099e-01  4.5922551735756667e-01  4.6055269462255360e-01  4.5351476376591426e-01  4.5925295078855299e-01  4.6054304135252738e-01  4.5353135467919053e-01  4.5921264048145838e-01  4.6053432634045299e-01  4.5350005474692667e-01  4.3724966010966893e-01  4.4517290323065511e-01  4.4631889459271656e-01  4.4626680997484797e-01  4.4512030048335427e-01  4.3716368691159702e-01  4.3697266749517716e-01  4.4503693309670933e-01  4.4621212206478361e-01  4.3678144615012904e-01  4.4495748353408221e-01  4.4616603461625409e-01  4.3664881520826448e-01  4.4491248879016287e-01  4.4614403424492388e-01  4.3661175520124729e-01  4.4491920212358060e-01  4.4615189795635235e-01  4.4496771371531441e-01  4.3670093107764085e-01  4.4618260276312743e-01  4.9209617938463518e-01  4.9210617400372703e-01  4.9211846783001645e-01  4.9213899308082604e-01  4.1056914598606958e-01  4.9303932808907996e-01  4.9309180923559592e-01  4.9322306574459951e-01  4.9339890095783628e-01  4.9356522193284408e-01  4.9364604091199044e-01  4.9353220513407092e-01  4.8337971433196342e-01  4.8338803445144973e-01  4.8341072725288131e-01  5.0038157029484187e-01  5.0045276159859120e-01  5.0060306956083611e-01  5.0080129489103831e-01  5.0100895444732318e-01  5.0116168719375986e-01  5.0105584667525005e-01  4.9699198370830994e-01  4.9699266530454828e-01  4.9699705881457079e-01  4.9697812531979640e-01  4.9688736449006343e-01  4.9668092792419555e-01  4.9634203253265857e-01  4.3261946127028478e-01  4.3266364450236039e-01  4.3274471962795535e-01  4.3282108137494246e-01  4.3285575691343697e-01  4.3281228958841583e-01  4.3265261520502246e-01  5.2331845751295580e-01  5.2324803451273849e-01  5.1787691562032023e-01  5.0983827335337684e-01  5.0986565741114076e-01  5.1790472587839465e-01  5.0992731236565714e-01  5.1796323497644348e-01  5.0999060489287829e-01  5.1803997739539798e-01  5.1000333057715463e-01  5.1808906771875773e-01  5.0990969224598881e-01  5.1804795851634622e-01  5.0965096633199924e-01  5.1781018052706640e-01  5.2258508888306332e-01  5.2248722738025255e-01  5.2244207998014469e-01  5.2243293949460368e-01  5.2256267547791968e-01  4.9418943628923678e-01  5.0544250897890730e-01  4.9577901102837602e-01  5.0538591734339000e-01  4.9422316747484563e-01  4.9576945908639836e-01  4.9410951343007559e-01  5.0546776713553943e-01  4.9573006685639015e-01  4.9398805187257544e-01  4.6688709589444549e-01  4.6688337543989133e-01  4.6687882087616356e-01  4.6687012918187720e-01  4.6685567220161966e-01  4.6683252097884670e-01  4.6680518841772811e-01  4.9610301399546297e-01  4.9610511133885005e-01  4.9610640649222232e-01  4.9611602611175265e-01  4.9612665437131498e-01  4.9613749833704873e-01  4.9618713573978845e-01  4.5647958785839476e-01  4.5650839961903528e-01  4.5654038315384360e-01  4.5656770749520287e-01  4.5659040431414266e-01  4.5660928241479976e-01  4.5662360365091315e-01  5.0066700830291777e-01  4.9321821094351859e-01  4.9324030161957483e-01  5.0068494762380678e-01  4.9329435997706311e-01  5.0074036387272702e-01  4.9333203641679885e-01  5.0078860394402935e-01  4.9329048810158094e-01  5.0076986986122962e-01  4.9310421436233431e-01  5.0062005686576350e-01  4.9271694424119539e-01  5.0028215353103977e-01  4.8670847837275544e-01  4.8671266409062913e-01  4.8673306760857099e-01  4.8672369195509363e-01  4.8664717064576157e-01  4.8647437582348857e-01  4.8619647851534675e-01  5.0525118156082083e-01  5.0523948336145630e-01  4.9422363566251132e-01  5.0525275615133713e-01  5.0526601619365885e-01  4.9422084526484283e-01  5.0527266851472685e-01  5.0531884906181723e-01  4.9422659748074599e-01  5.0529123181100399e-01  5.0528627733035558e-01  5.0524156447493684e-01  5.0516057233299605e-01  4.4046440600516312e-01  4.4049925337431473e-01  4.4057569735975005e-01  4.4064046659546219e-01  4.4066519433291645e-01  4.4062100550349154e-01  4.4045917564799475e-01  4.8378219490464841e-01  4.8386569377182831e-01  4.8405906013211047e-01  4.8428482027852959e-01  4.8450134534965889e-01  4.8466271054356502e-01  4.8465213390907874e-01  4.7613875759737467e-01  4.6806177539091343e-01  4.7203097914526887e-01  4.7211252077229038e-01  4.6805849418733803e-01  4.7627560005479264e-01  4.7229712011876507e-01  4.6808111512747735e-01  4.7661476180418283e-01  4.7244819894442414e-01  4.6806785123734329e-01  4.7694345244483677e-01  4.7249873182740637e-01  4.6798274697072073e-01  4.7715055873416029e-01  4.7240865571627411e-01  4.6781671469535163e-01  4.7714989257335461e-01  4.7216781074271957e-01  4.6760137924900008e-01  4.7687162776046549e-01  5.0040835956379226e-01  5.0043901036555194e-01  5.0056938452424526e-01  5.0074548891258741e-01  5.0094609699352877e-01  5.0115164356153896e-01  5.0807668423961749e-01  5.0125059073696820e-01  5.0827161038769875e-01  5.0969384788279148e-01  5.0432638715796008e-01  5.0435422458525137e-01  5.0974155871599836e-01  5.0442545256409643e-01  5.0986010147823035e-01  5.0449285209842887e-01  5.0999585730664487e-01  5.0449851228540310e-01  5.1008729749392812e-01  5.0438311768649779e-01  5.1005498187142662e-01  5.0409301062815648e-01  5.0977303404950447e-01  4.8410204074447810e-01  4.8406822994241394e-01  4.8397803781660037e-01  5.0734620714651846e-01  5.0737545865062694e-01  5.0744569325615585e-01  5.0752993195027629e-01  5.0757144198906134e-01  5.0749650325648832e-01  5.0721242618950346e-01  5.0803688480817510e-01  5.0800148777510634e-01  5.0790257960339913e-01  5.0778108671062383e-01  5.0767027782961394e-01  5.0762341372212594e-01  5.0781152712534483e-01  4.7183775659534222e-01  4.7082232969174670e-01  4.7085130552314558e-01  4.7183740900022236e-01  4.7091757687165769e-01  4.7184560833331507e-01  4.7097936212661967e-01  4.7185180922268388e-01  4.7100744667787198e-01  4.7182197560046663e-01  4.7097197456946066e-01  4.7171956678320981e-01  4.7082652996061009e-01  4.7152373173265305e-01  4.0038518567750225e-01  4.0082633356384201e-01  4.0896557029064867e-01  4.0893908010549074e-01  4.0077738095147630e-01  4.0033488352889818e-01  4.0020720896410822e-01  4.0065155681412995e-01  4.0887143808406390e-01  4.0008278596491154e-01  4.0051912600890888e-01  4.0881496818704016e-01  4.0002981145519140e-01  4.0044690457601206e-01  4.0882080240538121e-01  4.0011763098722403e-01  4.0051394781070149e-01  4.0893158406106206e-01  4.0039400760782440e-01  4.0083324133489284e-01  4.0915706898885634e-01  4.7389608280410628e-01  4.7372089105703785e-01  4.7377906581580970e-01  4.7393732547712186e-01  4.7402957331504381e-01  4.7392065745620321e-01  4.7411688915959316e-01  4.7405855718258560e-01  4.7413467708845614e-01  4.7411595703054082e-01  4.7401646365104677e-01  4.7401578580904435e-01  4.7371347185719098e-01  4.7368433842294622e-01  4.7832564044130410e-01  4.7838269102873054e-01  4.7854179601216779e-01  4.7870257730103277e-01  4.7878099695325704e-01  4.7868683533359990e-01  4.7831103780594914e-01  4.9498495292359052e-01  4.9498059904262881e-01  4.9500710418630156e-01  4.9505495567088037e-01  4.9510205300721705e-01  4.9512426417539962e-01  4.9512661251162643e-01  4.8637378409091608e-01  4.7630574494773664e-01  4.7562975671565844e-01  4.7567736145528466e-01  4.7636608128283287e-01  4.8638192430286425e-01  4.7579518343265320e-01  4.7649524786545439e-01  4.8640547639911558e-01  4.7590154073723406e-01  4.7661018533589955e-01  4.8641108009785772e-01  4.7595756653083338e-01  4.7666665253030077e-01  4.8636814263075240e-01  4.7593083876962083e-01  4.7663367316341254e-01  4.8625161693260310e-01  4.7577938795174934e-01  4.7647707855111354e-01  4.8604940694228671e-01  4.4724683650727687e-01  4.5447027359116771e-01  4.5229554823217311e-01  4.5228701211182537e-01  4.5448130345702037e-01  4.4727827705246154e-01  4.5226044354090672e-01  4.5449414002136784e-01  4.4733133571537237e-01  4.5220887141025606e-01  4.5448007503132326e-01  4.4735799753832090e-01  4.5210770632569008e-01  4.5440676593617685e-01  4.4732876066621519e-01  4.5193449111818729e-01  4.5424968417541756e-01  4.4722097544809331e-01  4.5168740906086902e-01  4.5400220103261857e-01  4.4700502048180291e-01  4.8383713419608027e-01  4.7626152786338388e-01  4.8030864444106669e-01  4.8037820528540026e-01  4.7630109170624579e-01  4.8385488914949648e-01  4.8058892994451463e-01  4.7640499598409897e-01  4.8392815580253890e-01  4.8080424026745089e-01  4.7649210345823623e-01  4.8399207031993929e-01  4.8092358191635093e-01  4.7648742637515351e-01  4.8396694835706233e-01  4.8085912356279348e-01  4.7632926630467037e-01  4.8377745274498324e-01  4.8051258185487833e-01  4.7597003316335557e-01  4.8338347227601863e-01  4.8267563614648967e-01  4.8274021787709781e-01  4.8288926794992876e-01  4.8302554433583439e-01  4.8306362291118188e-01  4.8292786446128388e-01  4.8254404650499633e-01  4.4773798810744125e-01  4.4874126996219038e-01  4.5587532433476047e-01  4.5583585488808903e-01  4.4871448236468081e-01  4.4770285963129391e-01  4.5575591307284091e-01  4.4864959062437371e-01  4.4762265784974598e-01  4.5564645811492999e-01  4.4855960911483533e-01  4.4751157093546035e-01  4.5551041968325479e-01  4.4843980436293707e-01  4.4737227237750887e-01  4.5535803138541764e-01  4.4828474167769855e-01  4.4721037463379787e-01  4.5522201570055998e-01  4.4809835163806089e-01  4.4705613258944421e-01  4.6547868567907458e-01  4.7315855192382877e-01  4.7319335082343228e-01  4.6548177112712319e-01  4.7323239222669083e-01  4.6550450818319450e-01  4.7324284930066340e-01  4.6549939526113632e-01  4.7318125608358019e-01  4.6543760818642255e-01  4.7302206960674420e-01  4.6531181713155767e-01  4.7276536141318620e-01  4.6514423040515396e-01  4.5810241222630455e-01  4.6513012630323924e-01  4.6516156252720370e-01  4.5810902572196976e-01  4.6523190831612848e-01  4.5808225687520515e-01  4.6529275090554584e-01  4.5803343126717783e-01  4.6532391131511996e-01  4.5795210903859862e-01  4.6530836405041315e-01  4.5783293094104915e-01  4.6522191859404449e-01  4.5768888706497035e-01  5.1803980652749892e-01  5.1395220265259600e-01  5.1397191636739814e-01  5.1804156514066391e-01  4.6639284549543986e-01  4.6694233792832934e-01  4.6700015590724436e-01  4.6644676461886575e-01  4.6657718116665348e-01  4.6710794554500212e-01  4.6667525047750541e-01  4.6718198948006706e-01  4.6670571186434789e-01  4.6719165743524704e-01  4.6665185338071652e-01  4.6711839225272039e-01  4.6649885775736294e-01  4.6693641358353877e-01  4.8065939144304343e-01  4.8073872474898599e-01  4.8093513464967491e-01  4.8115211089361865e-01  4.8131736453587348e-01  4.8134101941478358e-01  4.8107980164979591e-01  5.0387799649502907e-01  5.0389514244354028e-01  5.0394615917926311e-01  5.0401658121390058e-01  5.0411039628836540e-01  5.0423524538842990e-01  4.6021864010254993e-01  4.6746820125059285e-01  4.6517600556700278e-01  4.6520986039011658e-01  4.6749533320421699e-01  4.6025851073156221e-01  4.6033270264882864e-01  4.6755941923910876e-01  4.6528049350484774e-01  4.6038061411390241e-01  4.6760671730136744e-01  4.6533587313233987e-01  4.6035774406391478e-01  4.6757977372352061e-01  4.6532543676744370e-01  4.6022514558036498e-01  4.6742875491392200e-01  4.6519974902219841e-01  4.6491110444211919e-01  4.6711670441208819e-01  4.5995929411783437e-01  4.9604529891467519e-01  4.9576522730975009e-01  4.9578852108604543e-01  4.9605746255536098e-01  4.9608397720342096e-01  4.9583358288293056e-01  4.9608704657369129e-01  4.9586129933531964e-01  4.9602763033079789e-01  4.9583597700938720e-01  4.9587215856135930e-01  4.9573022778662229e-01  4.9559635100501431e-01  4.9551910377909947e-01  5.2689826343043833e-01  5.2070919025795859e