<?xml version="1.0"?>
<VTKFile type="UnstructuredGrid"  version="0.1"  >
<UnstructuredGrid>
<Piece  NumberOfPoints="2107" NumberOfCells="9551">
<Points>
<DataArray  type="Float64"  NumberOfComponents="3"  format="ascii">1.415203054076853 3.170783063917907 3.74117860711092  1.363076166749801 3.040003921966899 3.782221477821357  1.512751845252476 3.042685037436229 3.794933698277688  1.50767742818564 3.060774686162001 3.857072487181711  1.358279343912989 3.057983385078952 3.84463096076686  1.409961276691116 3.194616090098876 3.801712967350987  1.503103662668155 3.079080562332861 3.919483741586785  1.354047998907601 3.076271556687965 3.907369475727268  1.405240814078973 3.218777364223847 3.862498234265572  1.498673794471949 3.097438577304317 3.982160362469655  1.349921396240385 3.094613574744929 3.970471205625133  1.400664228012379 3.24304610221955 3.923585006746772  1.494159202917089 3.115771786969856 4.045079088637481  1.345675578735825 3.112927724614543 4.033907195513039  1.396009962639953 3.267314338642799 3.984963950196379  1.489417519931305 3.134069022275256 4.108218499671167  1.341161541410202 3.131196218275753 4.097651858378842  1.391128552874285 3.291557454981959 4.04662966136745  1.484302911265542 3.152319015475922 4.171557923162681  1.336233242588926 3.149409899407583 4.16169184483311  1.385827713059778 3.315783050558288 4.108613360776077  1.702829985391363 4.079360550549228 2.930812926266258  1.582094707263336 4.096603241440952 2.851291969631515  1.713051795102597 4.114075718146214 2.802339031270728  1.583429463856866 4.034245349245229 2.834717634993238  1.712008630220043 4.176857338584278 2.818418340494244  1.702094495581182 4.141591416487471 2.949424525139237  1.580832205226649 4.158928619491455 2.867804714065569  1.710979495598554 4.239567081180092 2.834465843035621  1.701371301387602 4.203770883452809 2.968008199909121  1.579587865525417 4.22121513459572 2.884296872488574  1.709910108931396 4.302204138890175 2.850509711557904  1.700597866968399 4.265891147974536 2.986594679845594  1.578305037920851 4.28345425226337 2.900807280331195  1.708714785254853 4.364760046885119 2.866601862397621  1.699685988150501 4.327938806256348 3.005236971467744  1.576903205957737 4.345636209256211 2.917386135441189  1.368601454066927 2.97210165352847 4.203060988966518  1.610051260649452 3.993723909842683 2.736480296799805  1.584888979483782 3.971873803048069 2.81805364813742  1.715408841158685 3.988306171441774 2.769973055781669  1.608507442698195 4.056529562666935 2.751644469554441  1.714167204545384 4.051216040728891 2.786196891033152  1.607083498132808 4.119286433882954 2.766714201987571  1.605722169216507 4.181992657076385 2.781726702148423  1.604379323569362 4.244641272009106 2.796713986484989  1.603006792448967 4.30722601386621 2.811707081494227  1.60151946712847 4.369731964529948 2.826757786004123  1.435871180877924 4.073286040308703 2.214305145239449  1.566157205714947 4.08001075383731 2.183235775784677  1.4486501191521 4.081209055625369 2.068333767487875  1.44804506612612 4.150437446367949 2.069709365768089  1.564285774053274 4.147670572604251 2.187545145399381  1.434904374227731 4.140741509337192 2.219766576950663  1.447429734428627 4.219526556036779 2.071024420469049  1.562470671859626 4.215214347115404 2.191799500900252  1.433950127322865 4.208088151318142 2.225152636137073  1.446823431184899 4.288443557735558 2.072296977503246  1.560691198436813 4.28261540142777 2.196013017086036  1.433013392583904 4.275299182762774 2.230489348505147  1.446243363142103 4.357199407444551 2.073551088540833  1.558930103010755 4.34988143787316 2.200208031626306  1.432104057195599 4.342373600862693 2.235804647185559  1.445716002179307 4.425815716726098 2.07480656561398  1.557173090726218 4.417030851944532 2.204402899423582  1.431237518425383 4.409319189624541 2.24112785554446  1.445295843345506 4.494324645663866 2.076071226651876  1.555419768257079 4.484091657980334 2.20859716332214  1.430436296812557 4.476147326020878 2.246486311877536  1.334120643390307 4.080472678837738 2.095203715836461  1.327961906248413 4.08234437987106 1.955660573901678  1.328660507894378 4.153788822220737 1.954794637238206  1.334406460564744 4.150103676978606 2.097723582469315  1.329274358285649 4.225059026197233 1.953862292596364  1.334633324496967 4.21957889459334 2.100162169826618  1.329856606574169 4.296127779867096 1.95289507416488  1.334847825057452 4.288885125725497 2.102551513912516  1.330458706341653 4.366995935425138 1.951921536400075  1.335094567992431 4.358018907936724 2.104919603131096  1.331163265637371 4.437675297562112 1.950953310271338  1.335430715547796 4.426986187549469 2.107295164582371  1.33207829762539 4.508176001488988 1.949989903193204  1.335931704804483 4.495792128634202 2.109712333869233  1.618561487171053 3.080861973171797 4.130116953732861  1.635771106823644 3.212329896815388 4.091872489866756  1.632872774986625 3.233458873811784 4.153914102713345  1.614400897549345 3.097711233010018 4.193146527057666  1.212658517222337 4.081079779121684 1.845327752612063  1.212457736639317 4.082497766901585 1.992646855266787  1.214111661097717 4.154724184266137 1.992645885984184  1.214333536443324 4.15525077647102 1.841804684817894  1.215648774578793 4.226721531114793 1.992559456346174  1.215869957649623 4.229184558142552 1.838228048231241  1.217131437119152 4.298486611239741 1.992423238511618  1.217330715456042 4.302866374868396 1.834634834369039  1.218637717728207 4.370023045585503 1.992267374728951  1.218799968293487 4.37628842059495 1.831051697186407  1.220265339486076 4.441333282461499 1.99211745500661  1.220414736609785 4.449444833699118 1.827463228877426  1.222134316811354 4.512401450385869 1.992016578474667  1.222309672331711 4.522298482719108 1.823870405697739  1.095459423971532 4.077576706909086 1.741606692108069  1.097683343553928 4.085563903932416 1.880049153480983  1.100865832874226 4.161011397093247 1.877324167476184  1.098968741239701 4.154729150202603 1.733571549948081  1.103853710482932 4.236177531903644 1.874527877598405  1.102240537981059 4.23154277160551 1.725513242416928  1.106743628231227 4.311032887427295 1.87168893027033  1.105386465912023 4.308012900195662 1.717478379136741  1.109646513987253 4.38558824191121 1.868844747831768  1.108532923957221 4.384149605833631 1.709461152145227  1.112694937360587 4.459837391231861 1.866009305467441  1.111842091507944 4.459939328995273 1.70143458701567  1.116032806631636 4.533750858677093 1.863214278525444  1.115497322877625 4.535361748316125 1.693413654812163  1.648846648082471 3.106533052023575 3.783612856401508  1.545712624686349 3.160268236704963 3.760380531645448  1.541654480284705 3.184160879612102 3.821018169496004  1.645860585420884 3.127554462369441 3.844953923472299  1.643297553610275 3.148728074338301 3.906435479479848  1.538072085386966 3.208294822643921 3.881886672296064  1.640877721812079 3.169950160409045 3.968097774403551  1.534616254326733 3.232492504673731 3.942982834689868  1.638405993956442 3.191154945998746 4.029922515973192  1.531075589044977 3.256681124024677 4.004302953186762  1.527324310622854 3.280849221054285 4.065823369474743  1.523259166407817 3.304984153096455 4.127504543508485  1.487883823741617 3.991438362627462 2.735137011493554  1.59896801152505 4.014500103405909 2.643630061910434  1.597328493620479 4.077837889312884 2.656963879786598  1.486778025031248 4.054275851949986 2.750269626210231  1.59579199570176 4.141124238016673 2.6702103877712  1.485765080631687 4.11710031452157 2.765294326631595  1.594314754638994 4.204344991982198 2.683399573411837  1.484806472907306 4.179898676817153 2.780256970691806  1.592856988828903 4.267495542969611 2.696561292263094  1.483867329472248 4.2426568060571 2.795206015175102  1.591378148584018 4.330574992751136 2.709725949349186  1.482911634197956 4.305367086603388 2.810191508453549  1.589802681118187 4.393583442990373 2.722950444496391  1.481889261958609 4.368030416768423 2.825272262561016  0.9779989349551921 4.086104886769656 1.767400202084601  0.982111693034554 4.165285889028315 1.760476520615145  0.9859449949187039 4.244026182936483 1.753526454484692  0.9896198411035381 4.322400368658559 1.746602088888765  0.9932975301278879 4.40038122268272 1.739687073152242  0.9971289645492523 4.477936967334224 1.732803163012134  1.001288481717284 4.554947516120848 1.725984724756054  1.815652529613887 4.040123485273897 2.549833952118177  1.830219118856849 4.014756033932712 2.673228403006872  1.933878422109528 4.041395451381709 2.559202751773089  1.813840688858683 4.105098833455 2.562214363582861  1.699264733459368 4.036579097727432 2.548972356610576  1.776611466699632 4.060401727705872 2.424955124995062  1.774099084210437 4.126197722060902 2.435024160803549  1.697153700152976 4.100879947291604 2.560777285113002  1.771728172480778 4.191845163537267 2.445030881652202  1.812164685230456 4.169906737019103 2.574520341924132  1.695163576522087 4.165087658683881 2.572509070868648  1.769407799673954 4.257353965158649 2.454997943900445  1.810533417271928 4.234587529670053 2.586776158739096  1.693234186914792 4.229194471343273 2.584187655913971  1.767084988503971 4.322739539940159 2.464941848039612  1.808899577224037 4.299152249565325 2.599005179287428  1.691316575207125 4.293202459027811 2.595836183567308  1.764712432598664 4.388009451889936 2.474878299032413  1.807215070065758 4.363599142872465 2.611227011494644  1.689361242781477 4.357116996633323 2.607479089052191  1.76224918081621 4.453160869829701 2.484784508603936  1.805436384761011 4.427897005240951 2.623430340797329  1.68730418332641 4.420937779211975 2.619140340695258  1.904166624299965 4.064595568082007 2.425043570583483  1.905510461970631 4.131449786631325 2.434342968928914  1.248277113236035 3.86178951459642 3.119985445114589  1.35859591835641 3.810241297726341 3.227504378803362  1.368469242644364 3.873252608184924 3.103394201802525  1.366963076099991 3.933807294481928 3.129637269893069  1.35718533955191 3.867902468861187 3.260688532355684  1.247151253749164 3.9225764605213
[...]
<PointData  Scalars="f_14"> 
<DataArray  type="Float64"  Name="f_14"  format="ascii">9.0473671158582114e-01  9.0832590843282301e-01  8.9556381204968405e-01  8.9555905239149536e-01  9.0830639346264752e-01  9.0475602708661629e-01  8.9556569801863284e-01  9.0827387718673680e-01  9.0480837058145658e-01  8.9559047331807196e-01  9.0826620877079112e-01  9.0489457492552883e-01  8.9563665980613660e-01  9.0829170947918025e-01  9.0500765805140482e-01  8.9570027581956790e-01  9.0835120262884916e-01  9.0513213360140887e-01  8.9576588903194032e-01  9.0845796096725584e-01  9.0524766928541445e-01  8.8626163133266633e-01  8.9643382700230967e-01  8.8583262886626102e-01  8.9639556104962625e-01  8.8585374384606996e-01  8.8628053518386674e-01  8.9648374252258822e-01  8.8585823773664674e-01  8.8628631513995926e-01  8.9653242141174927e-01  8.8582718797137661e-01  8.8626490852834872e-01  8.9656579652367430e-01  8.8574413326735568e-01  8.8620131466761054e-01  8.9656507410826658e-01  9.0454955153987693e-01  8.9459660941255215e-01  8.9638257362499474e-01  8.8580518038600287e-01  8.9461021956632636e-01  8.8581178032990182e-01  8.9464497869512538e-01  8.9468834357074445e-01  8.9472561336538625e-01  8.9473973856311761e-01  8.9471482925156676e-01  9.1012381797036412e-01  8.9980015839605609e-01  9.0941518158394974e-01  9.0944278834571257e-01  8.9983032670022944e-01  9.1014793820681261e-01  9.0952777218409164e-01  8.9991586001663704e-01  9.1023320988611323e-01  9.0965520410119149e-01  9.0002974603662511e-01  9.1036246294362355e-01  9.0980771350256506e-01  9.0014463206424233e-01  9.1051724052314387e-01  9.0996654488329676e-01  9.0023181311457745e-01  9.1067694147898248e-01  9.1011952882969871e-01  9.0026094550058788e-01  9.1081776563823824e-01  9.1832270942959715e-01  9.1905789273245675e-01  9.1909867816500035e-01  9.1835676298437852e-01  9.1921191841145766e-01  9.1846234577949948e-01  9.1938806297959752e-01  9.1862869566356187e-01  9.1961650462890043e-01  9.1884413377512331e-01  9.1988560995855639e-01  9.1909826206243739e-01  9.2018310674293002e-01  9.1938022138960518e-01  8.8439964444514818e-01  8.8393305663094401e-01  8.8397903168817038e-01  8.8446332084965495e-01  9.2809572582448607e-01  9.2783228511462645e-01  9.2787734309934422e-01  9.2815167320549419e-01  9.2801419923327322e-01  9.2831307751865566e-01  9.2823169424338170e-01  9.2856137613647716e-01  9.2852337295452081e-01  9.2888701168251719e-01  9.2888287910201806e-01  9.2927798270209294e-01  9.2930489144537198e-01  9.2971225706891292e-01  9.3698285423601202e-01  9.3660982714389907e-01  9.3665610980496683e-01  9.3703403039550226e-01  9.3680289212695045e-01  9.3718542663589011e-01  9.3704877956708965e-01  9.3743924968527059e-01  9.3739102957634934e-01  9.3779176952097820e-01  9.3782775167028154e-01  9.3824014292467450e-01  9.3836217476379591e-01  9.3879626172846031e-01  8.8409185023738213e-01  8.9341798453551791e-01  8.9341033654124669e-01  8.8406137496801451e-01  8.8400934854803126e-01  8.9340539874179392e-01  8.8396253435898009e-01  8.9341701526537665e-01  8.8393436312432683e-01  8.9344758100915478e-01  8.9349186459419316e-01  8.9354521520343710e-01  9.0451104951986072e-01  8.9580862571216191e-01  8.9582247869696208e-01  9.0452797887309311e-01  8.9585973530957375e-01  9.0457419832964381e-01  8.9590736250024983e-01  9.0464312331103169e-01  8.9594986449134884e-01  9.0472636261343331e-01  8.9596990671210053e-01  9.0481518586194098e-01  8.9595253972588040e-01  9.0490125419027656e-01  9.4552766267325794e-01  9.4559231398472410e-01  9.4578542801168342e-01  9.4609858303455030e-01  9.4652935559923546e-01  9.4707925398998993e-01  9.4773850455957176e-01  8.7826107337361259e-01  8.7660105847673897e-01  8.6807684977297894e-01  8.7829204694622698e-01  8.8792557278260631e-01  8.8192006913039689e-01  8.8196360651540551e-01  8.8794692885897730e-01  8.8207532857489035e-01  8.7837688959080973e-01  8.8799884666147300e-01  8.8220219504538122e-01  8.7846976227866169e-01  8.8805830035328781e-01  8.8230191843991901e-01  8.7853605119039579e-01  8.8809859944991743e-01  8.8233186979625966e-01  8.7854170171736401e-01  8.8809031747796618e-01  8.8223745767466333e-01  8.7844474149076257e-01  8.8800035190385507e-01  8.7091014831760316e-01  8.7092041770824835e-01  9.2258220218511866e-01  9.1330075120218723e-01  9.1302339390806841e-01  9.1304298590956023e-01  9.1330746349374070e-01  9.2260507945302528e-01  9.1334632592474518e-01  9.2268361443310909e-01  9.1310814950716490e-01  9.1342004763811846e-01  9.2281824384222999e-01  9.1321306049031570e-01  9.1352775092725691e-01  9.2300618638544751e-01  9.1335030920899107e-01  9.1366438959636975e-01  9.2323912303636102e-01  9.1351007133560047e-01  9.1382437737400857e-01  9.2351102870264812e-01  9.1368178598528960e-01  9.1738833764144045e-01  9.0955202726696838e-01  9.0890431882785883e-01  9.0892032905562048e-01  9.0956854049036151e-01  9.1742071143976589e-01  9.0897863502083553e-01  9.0962055539052811e-01  9.1751924380536909e-01  9.0907199861751620e-01  9.0970502981543733e-01  9.1767253947504113e-01  9.0918724118459104e-01  9.0981321423738237e-01  9.1787262571211925e-01  9.0931021361077791e-01  9.0993528385151279e-01  9.1811081367316538e-01  9.0943221803980578e-01  9.1007566802173456e-01  9.1837198848979007e-01  9.4169757306043966e-01  9.5080500267876533e-01  9.4190585752692779e-01  9.4194866070220429e-01  9.5081530532924918e-01  9.4171625481467702e-01  9.4207409842376721e-01  9.5086598398321387e-01  9.4179719819487107e-01  9.4228551473459599e-01  9.5100176738104703e-01  9.4195742833429807e-01  9.4258865513068102e-01  9.5124492780785630e-01  9.4220880465671664e-01  9.4298773941177816e-01  9.5161698232971936e-01  9.4255744432617705e-01  9.4349149188158410e-01  9.5215584100846329e-01  9.4303200250126762e-01  8.7336516317184176e-01  8.6365748678779219e-01  8.7568975358845647e-01  8.7568753052196224e-01  8.6366449051900362e-01  8.7336664160452049e-01  8.7568607860440306e-01  8.6367458166472622e-01  8.7337539650823526e-01  8.7569361368832099e-01  8.6369275803417411e-01  8.7339210768568487e-01  8.7571099591300605e-01  8.6371897684981103e-01  8.7342018383443754e-01  8.7573503832204347e-01  8.6375173006161055e-01  8.7345983371741842e-01  8.7576952608426151e-01  8.6379097301377095e-01  8.7350476667041310e-01  8.8622793315897275e-01  8.8624645398306767e-01  8.8628808107726875e-01  8.8633345104539685e-01  8.8635980008184667e-01  8.8634179456213158e-01  8.8624999334737165e-01  9.3884097910743280e-01  9.2910341825717135e-01  9.3093318876689857e-01  9.3094338652036146e-01  9.2912345235535032e-01  9.3885453796445950e-01  9.3100698251230696e-01  9.2919509185398430e-01  9.3892127581935136e-01  9.3113959110871569e-01  9.2932909754564863e-01  9.3906435945774924e-01  9.3134365315148671e-01  9.2953327299065458e-01  9.3929506062320356e-01  9.3161862776840110e-01  9.2980953379855258e-01  9.3962002668618949e-01  9.3197499231413250e-01  9.3015856981044587e-01  9.4004822523037956e-01  9.0575394376116825e-01  9.0577171464070927e-01  9.0582072154169635e-01  9.0589480404846512e-01  9.0598506393081835e-01  9.0608208738938933e-01  9.0618005485818554e-01  9.0396260535726147e-01  9.0397980885871254e-01  9.0402740443177876e-01  9.0409890920097125e-01  9.0418596006932161e-01  9.0427926969158479e-01  9.0436289053838004e-01  9.1768157702442366e-01  9.0697297482654482e-01  9.1868202724737624e-01  9.1868367372844983e-01  9.0698150223185425e-01  9.1766414101152993e-01  9.1870395993225595e-01  9.0702636967412320e-01  9.1765393521551009e-01  9.1876495368926347e-01  9.0710717348768444e-01  9.1768336546244722e-01  9.1887978685409732e-01  9.0721829277054900e-01  9.1776213730175582e-01  9.1905896811122822e-01  9.0734648177717914e-01  9.1789507590793340e-01  9.1931571196454998e-01  9.0746917986102682e-01  9.1809631442727369e-01  9.2385589217281183e-01  9.2388149592197677e-01  9.2396913462644970e-01  9.2411479880575731e-01  9.2431522055920379e-01  9.2455967482918733e-01  9.2483779868289984e-01  9.3544103710240634e-01  9.2662471642713673e-01  9.2653450115973313e-01  9.2655986457365624e-01  9.2666409188605614e-01  9.3546750258593181e-01  9.2665048414196793e-01  9.2676975394830075e-01  9.3555001655823178e-01  9.2680739717482141e-01  9.2694295625051359e-01  9.3571064146488525e-01  9.2703575751131106e-01  9.2718935700789074e-01  9.3596757129729380e-01  9.2734362694434891e-01  9.2751739393372823e-01  9.3634290556891098e-01  9.2774902415704463e-01  9.2793536874835159e-01  9.3686301110066827e-01  8.7326737906954077e-01  8.6321651260968713e-01  8.6320755720256270e-01  8.7326061277060874e-01  8.6319457836736513e-01  8.7325072563650452e-01  8.6318627132728665e-01  8.7324820251310564e-01  8.6318815224401613e-01  8.7325873847843749e-01  8.6320311532715033e-01  8.7328533926727603e-01  8.6323512885010989e-01  8.7332944842516314e-01  8.7666304318790611e-01  8.7671093544377010e-01  8.7673504392214918e-01  8.7671140729155916e-01  8.7661623723415905e-01  9.2060365115991782e-01  9.1132949993519130e-01  9.1129091350188718e-01  9.2061276526082514e-01  9.1121392006006963e-01  9.2066113699180951e-01  9.1115848854449655e-01  9.2075610468294811e-01  9.1113654453871984e-01  9.2090247457473573e-01  9.1116022372426742e-01  9.2109963349317059e-01  9.1129765187155964e-01  9.2134322844375371e-01  9.0916200964016514e-01  9.0916207689482853e-01  9.0919074998328875e-01  9.0925596406590192e-01  9.0935585938671903e-01  9.0948106047310917e-01  9.0962007625578900e-01  9.6610784029909658e-01  9.5662411725754215e-01  9.6613214212547815e-01  9.6613974076795872e-01  9.5661581199368118e-01  9.6613967461679939e-01  9.6623242982468049e-01  8.9777929751526642e-01  8.9778264246720252e-01  8.9780752919794993e-01  8.9785698108177614e-01  8.9792621381647131e-01  8.9800327076804876e-01  8.9806879917130811e-01  9.1789867923085644e-01  9.1793443282286646e-01  9.1804571773631738e-01  9.1821649211054202e-01  9.1843537227145999e-01  9.1869039259738139e-01  9.1895915402466688e-01  9.5201620350830785e-01  9.4208007837542729e-01  9.4485858627172892e-01  9.4490171419352875e-01  9.4212816800051624e-01  9.5206362290343338e-01  9.4503699686924536e-01  9.4226395795286699e-01  9.5220334488540637e-01  9.4527431711003407e-01  9.4249596576413741e-01  9.5245783455069521e-01  9.4562595788416892e-01  9.4283826533127368e-01  9.5284145655152219e-01  9.4610521260619540e-01  9.4330464906209255e-01  9.5337054380277497e-01  9.4672424317524362e-01  9.4390232484125525e-01  9.5405449760194683e-01  9.7706675805206744e-01  9.6924411634605023e-01  9.6877240934515962e-01  9.6883786611973732e-01  9.6932040305784350e-01  9.7711113990374243e-01  9.6902903769522808e-01  9.6953584209861587e-01  9.7729019805170492e-01  9.6935428813674729e-01  9.6988320537999917e-01  9.7760272192946363e-01  9.6981469354047267e-01  9.7036250105988897e-01  9.7805242053140229e-01  9.7040552230503407e-01  9.7096819498276032e-01  9.7864252464108448e-01  9.7111585778890430e-01  9.7167223522256996e-01  9.7935508469066657e-01  8.9163540416708376e-01  8.9017450409725529e-01  8.9021062343889057e-01  8.9165158018407065e-01  8.9030581287788957e-01  8.9170136255064159e-01  8.9042077498386241e-01  8.9176410811849915e-01  8.9051817963988722e-01  8.9181191198067256e-01  8.9055904380587270e-01  8.9181392336168064e-01  8.9049406711370338e-01  8.9174448540178919e-01  9.2896088248614195e-01  9.2900239158532893e-01  9.2898759441183665e-01  9.2893976473787354e-01  9.2897181420859221e-01  9.2891724814280985e-01  9.2900435872953357e-01  9.2894677217721433e-01  9.2911173193362351e-01  9.2905279428664711e-01  9.2931633834188410e-01  9.2926027348238749e-01  9.2965218616454570e-01  9.2960182930928148e-01  8.9355120231971596e-01  8.7094181524550940e-01  8.7095342750863747e-01  8.7094291229896803e-01  8.7090154172132994e-01  8.7082178812090616e-01  9.3638732931873181e-01  9.2661766617850472e-01  9.2785857447178266e-01  9.2789303466199879e-01  9.2664782389102562e-01  9.3642319148299025e-01  9.2799706361044110e-01  9.2673730025797707e-01  9.3652295926974183e-01  9.2817586105718475e-01  9.2689414401624781e-01  9.3670369948483689e-01  9.2842809026584450e-01  9.2712107265596688e-01  9.3698022610471898e-01  9.2875445268872725e-01  9.2742240484685179e-01  9.3737031968927986e-01  9.2916670972883364e-01  9.2782900497951537e-01  9.3789464324730054e-01  9.5358318475473569e-01  9.4541178959798255e-01  9.4545530351908269e-01  9.5363493724729631e-01  9.4559555549402463e-01  9.5380037871560774e-01  9.4584178535898988e-01  9.5408539553269811e-01  9.4620116998947745e-01  9.5450029012389237e-01  9.4668449234934859e-01  9.5505667116729154e-01  9.4731394735256591e-01  9.5576015216124455e-01  8.8667091764338068e-01  8.8762119442607135e-01  8.8762040681784149e-01  8.8665998674451452e-01  8.8762531016231028e-01  8.8662824461157863e-01  8.8764462439371949e-01  8.8660198291928127e-01  8.8767674411693576e-01  8.8659280846079869e-01  8.8771523513804818e-01  8.8660728365378694e-01  8.8775631478530792e-01  8.8665759971435976e-01  1.0000000000008515e+00  9.9212852956517017e-01  9.9154663628669160e-01  9.9159264971655448e-01  9.9217459044679790e-01  1.0000000000008515e+00  9.9166949523238346e-01  9.9227660194448408e-01  1.0000000000008515e+00  9.9180058733155441e-01  9.9243891684072394e-01  1.0000000000008515e+00  9.9202084887623776e-01  9.5078436079087936e-01  9.5081495654665871e-01  9.5091532457624173e-01  9.5110551715584102e-01  9.5140338700555427e-01  9.5182001748321265e-01  9.5235710987144473e-01  9.1672299494092180e-01  9.1672093934559029e-01  9.1673660855795536e-01  9.1679526368671338e-01  9.1690035579098517e-01  9.1704902219809392e-01  9.1723827118608747e-01  8.9052922196315187e-01  8.8082445032905954e-01  8.9222373536809396e-01  8.9055845861753535e-01  8.8081728967041950e-01  8.9225886813451571e-01  8.9064034376824563e-01  8.8080948484952881e-01  8.9233199754092529e-01  8.9073991323798229e-01  8.8079851892887084e-01  8.9242450001796714e-01  8.9083421437033972e-01  8.8077617580365786e-01  8.9251902904673108e-01  8.9089965744714650e-01  8.8073366347293858e-01  8.9259839927964879e-01  8.9090384464293249e-01  9.3849017895171016e-01  9.3811946556097237e-01  9.3811313799704876e-01  9.3849001082572991e-01  9.3812877857496468e-01  9.3852776600517662e-01  9.3821062109320841e-01  9.3863987405893667e-01  9.3838348554322804e-01  9.3884460288238325e-01  9.3866769340276190e-01  9.3915702364816001e-01  9.3908261173372365e-01  9.3958910403951523e-01  8.6573685435389325e-01  8.7731800833291551e-01  8.7733612777659797e-01  8.6574913611503579e-01  9.5808087165677003e-01  9.5947820697197184e-01  9.5951814783722311e-01  9.5812771884601766e-01  9.5966583755873880e-01  9.5828497708280724e-01  9.5992344793784867e-01  9.5855420564928473e-01  9.6029384977073073e-01  9.5893795469561960e-01  9.6077220583313305e-01  9.5943086374804487e-01  9.6134010170326312e-01  9.6001122672700800e-01  8.9744982570813969e-01  8.9744435776733411e-01  8.9744788366300632e-01  8.9747197012150093e-01  8.9751528519308466e-01  8.9756934201160188e-01  8.9762479455722755e-01  9.0370175862962521e-01  9.0371302789949159e-01  9.0374735320985833e-01  9.0380269916428679e-01  9.0387163408441185e-01  9.0394600962266647e-01  9.0402042339492161e-01  9.1001552510156059e-01  8.9850071701819001e-01  9.0342455570589497e-01  9.0342303659711143e-01  8.9854416053895081e-01  9.1002022772633551e-01  9.0345846710004629e-01  8.9865397939654645e-01  9.1004292336390025e-01  9.0352337962629581e-01  8.9879723965932357e-01  9.1009437381085234e-01  9.0360423672488555e-01  8.9894756801708775e-01  9.1017704010075984e-01  9.0368644497640227e-01  8.9907427921274308e-01  9.1028780545605337e-01  9.0375565690968940e-01  8.9913358941872301e-01  9.1042502190824726e-01  9.6824605419412701e-01  9.6798564869089454e-01  9.5963281713840387e-01  9.5966287361560565e-01  9.6801955012560592e-01  9.6830324058277162e-01  9.5977328817686036e-01  9.6815032501343734e-01  9.6848707925252797e-01  9.5998644167721636e-01  9.6839552099682014e-01  9.6879010788853381e-01  9.6031323278245195e-01  9.6875798127875623e-01  9.6920975503698148e-01  9.6075850709580568e-01  9.6923963187754447e-01  9.6974004337622044e-01  9.6132450228347766e-01  9.6985059641351334e-01  9.7036596062867086e-01  9.3390890543249439e-01  9.3393155652987969e-01  9.3400467304611356e-01  9.3415096201869241e-01  9.3438810683970874e-01  9.3473852774691080e-01  9.3524100409810340e-01  9.8462798676579188e-01  9.7632595832353597e-01  9.7772612151206195e-01  9.7779806772222444e-01  9.7638041211551629e-01  9.8469301415813748e-01  9.7801717758240958e-01  9.7657684538547174e-01  9.8488660471041589e-01  9.7837411843529287e-01  9.7691250149180486e-01  9.8520097608010004e-01  9.7886733795716951e-01  9.7738830006919586e-01  9.8565124115514224e-01  9.7949821832553163e-01  9.7800379778836499e-01  9.8625613145054547e-01  9.8027036182402594e-01  9.7873640088655245e-01  9.8703374132428900e-01  9.8370579053937857e-01  9.7495283679834865e-01  9.8340793233482382e-01  9.8344750306927187e-01  9.7499008493471362e-01  9.8372324291233426e-01  9.8358569689137576e-01  9.7513609507427013e-01  9.8379760928210080e-01  9.8382432813178666e-01  9.7539260500034886e-01  9.8396322203934705e-01  9.8417300897660021e-01  9.7576874407106717e-01  9.8424842391282286e-01  9.8465840916182479e-01  9.7627423418541492e-01  9.8468941086818285e-01  9.8532501004788187e-01  9.7692143844015722e-01  9.8533985690948978e-01  8.9958800809080663e-01  8.9961414212413682e-01  8.9968775295420877e-01  8.9978529800006968e-01  8.9988257853453990e-01  8.9995305037292339e-01  8.9996819770370950e-01  9.1884612731947557e-01  9.1884337874398914e-01  9.1886449814640314e-01  9.1893131043328180e-01  9.1904805412136792e-01  9.1921413532652874e-01  9.1941833777621873e-01  8.8074478288183689e-01  8.7005979699827107e-01  8.7039493521962319e-01  8.8077633393095345e-01  8.7005654625503481e-01  8.7037955245391119e-01  8.8083923968389732e-01  8.7001136872645368e-01  8.7034109983764352e-01  8.8090461297331357e-01  9.6170499184546621e-01  9.6175002340761750e-01  9.6190504644135599e-01  9.6219107964123729e-01  9.6262089831338371e-01  9.6320645307166808e-01  9.6394660247108777e-01  9.7600514813637229e-01  9.7570483981826550e-01  9.6745565343941620e-01  9.6751405989775996e-01  9.7572924722992405e-01  9.7606646559833932e-01  9.6771440166779910e-01  9.7585273849594667e-01  9.7627256820879627e-01  9.6804023411139239e-01  9.7609929551114660e-01  9.7660503897698303e-01  9.6847660310400052e-01  9.7646367106171084e-01  9.7704727676745040e-01  9.6901110920703459e-01  9.7695109488900533e-01  9.7758667104074859e-01  9.6963356336212225e-01  9.7759408375391255e-01  9.7820929250834188e-01  9.2767429476215379e-01  9.2767979218632801e-01  9.2771659246075500e-01  9.2780858505544050e-01  9.2797055757498859e-01  9.2821404102071647e-01  9.2854412408714437e-01  9.1618749357738105e-01  9.1621432702796546e-01  9.1629730345208271e-01  9.1642893851103380e-01  9.1660350975419458e-01  9.1681435258275690e-01  9.1705155995930476e-01  8.9934441948398047e-01  8.9934756479741518e-01  8.9936695182676718e-01  8.9941011807388427e-01  8.9947249777723992e-01  8.9954267022953094e-01  8.9961381614024216e-01  9.7674084478875522e-01  9.7693220999136765e-01  9.7697991148616747e-01  9.7680426968445122e-01  9.7713435309353158e-01  9.7700232222312322e-01  9.7740815504788148e-01  9.7732487855392725e-01  9.7780202944857664e-01  9.7776887364819187e-01  9.7831743044923614e-01  9.7833352433879317e-01  9.7896263715632836e-01  9.7901658565646055e-01  9.4633853441825866e-01  9.3667762101177909e-01  9.4648549701701490e-01  9.4646611225801880e-01  9.3665902674384904e-01  9.4633380856491334e-01  9.4647223538199166e-01  9.3666545972788673e-01  9.4636578733071441e-01  9.4655501256205954e-01  9.3674222672732765e-01  9.3992841217585454e-01  9.3996601117321610e-01  9.4007884459660063e-01  9.4027556105748822e-01  9.4056149889446095e-01  9.4093858223306004e-01  9.4140983473684481e-01  1.0000000000008515e+00  9.9192873879458143e-01  9.9199360044211338e-01  1.0000000000008515e+00  9.9213131164701407e-01  1.0000000000008515e+00  9.9233817246494271e-01  1.0000000000008515e