<?xml version="1.0"?>
<VTKFile type="UnstructuredGrid"  version="0.1"  >
<UnstructuredGrid>
<Piece  NumberOfPoints="2169" NumberOfCells="9825">
<Points>
<DataArray  type="Float64"  NumberOfComponents="3"  format="ascii">6.184910132361958 2.78488344507499 0.8838095097948688  6.164392362223007 2.922550316075103 0.8766550127968332  6.286937458583039 2.859884846904098 0.8773129689654955  6.284906730356818 2.85570544921371 0.8086238319674433  6.163296499035368 2.922261128219102 0.8072200713719937  6.184641795285208 2.778316424033469 0.8162029585594126  6.282840632142329 2.85140721800177 0.7400783988047731  6.162163775264244 2.921860292949516 0.7379263744575028  6.184360152784739 2.771651941677639 0.7487377775511295  6.280762239183895 2.847010093528368 0.6716616948676541  6.161014070104855 2.92134929360025 0.6687468944010105  6.184076549387163 2.764904493240222 0.6814111170851653  6.27869721710415 2.842553092082316 0.6033569255487439  6.159878532489712 2.920768392395819 0.5996833105486674  6.183791145481136 2.758118462065066 0.6142004170676693  6.276650044966149 2.838117797146153 0.5351466076937459  6.158761453821255 2.920201132749966 0.5307136220273811  6.183508977681953 2.7513591939958 0.5470909801992284  6.274638769463772 2.833770575759379 0.4670342547659785  6.406692251307141 3.035970257345332 0.8753398260070576  6.301320668870709 2.977133513848819 0.8731694484470893  6.303878149434143 3.0847921388085 0.8874413259134392  6.301621594461698 3.09354664352631 0.8172734668644759  6.298796838047096 2.980919711725473 0.8032364965874812  6.400343017113677 3.044044433889778 0.8057907269344509  6.299303309753518 3.10215080890297 0.7471924406789582  6.296228618167379 2.984564860273435 0.7334194034228465  6.393961640599115 3.051962137133233 0.7363195634653199  6.296964838235135 3.110627730279011 0.6771980607748833  6.293643404877982 2.988096523118263 0.6637050148009986  6.387561663737602 3.05976385524048 0.6669308006102734  6.294651805252496 3.119026394953655 0.6072896027010359  6.291081431310021 2.991557369991565 0.5940890349396114  6.381183302329513 3.067494607264015 0.5976226474734203  6.292390936180598 3.127404408755939 0.5374619767096845  6.288547601464575 2.995029579656288 0.5245633994107524  6.374842876496089 3.075222588839635 0.5283878438507125  6.290174041731952 3.135875998950351 0.4677102720136472  6.286052811710815 2.998592867828775 0.4551281835912001  6.368550221790547 3.08304184962903 0.4592430134828564  6.240671788210547 3.514846693786072 1.065953019613514  6.367206236022347 3.569187191204862 1.097619927284759  6.360750213363687 3.471283438508877 1.02799167223292  6.358121032525562 3.510454229823186 0.9683888406255  6.363794190776734 3.614387366168157 1.042913105910904  6.237596745453668 3.557383268546298 1.007929097675646  6.360380994584374 3.65954135912988 0.9882204258125437  6.234483233203054 3.599814548774606 0.9499059831585698  6.355452076597214 3.549523748218779 0.9087885134398822  6.356989867654926 3.704659061377571 0.933559990155602  6.231393865364121 3.642180539428586 0.8919294892696314  6.352800694381867 3.588536766255745 0.8492122470476197  6.353627077091907 3.749725744332925 0.8788954437362944  6.228360254123748 3.684497735448031 0.8339955750271026  6.35018620025489 3.627507031944072 0.7896527189019833  6.350321586183621 3.794755797221705 0.8242174343194764  6.22539688160957 3.726772687999354 0.7760814383097042  6.347623738540637 3.666445997554543 0.7301033595814008  6.222531446128237 3.769023410742726 0.7181743164872251  6.347069782234482 3.839756586261773 0.7695236619051236  6.345135650757308 3.705364925613309 0.6705699570266711  6.397791301758152 2.431636428292702 0.9789209146794465  6.359100195725259 2.55852399384641 0.930853036232247  6.490759900755354 2.555750592865586 0.9303545729697634  6.487636620935438 2.534112714445409 0.8681240179432225  6.399619596756936 2.383485867918646 0.8606745211530094  6.360059143496072 2.518972870378028 0.8060862391547905  6.484463043078188 2.512412484120004 0.806070271723348  6.481255531719566 2.490670348983702 0.744173409848792  6.360531695452489 2.499120775935425 0.7439381442985865  6.400522894290213 2.359359180276407 0.8017885737765915  6.478035530807999 2.46893035912201 0.6824014872223551  6.36099905139127 2.479270887269859 0.6819171778555838  6.40142226546774 2.335242239939641 0.7430371386893613  6.474856186895607 2.447245105634996 0.6207368108758543  6.36148877482514 2.459472317015539 0.6200112085194742  6.402343445626413 2.311186027112399 0.6844058879090754  6.471802292262835 2.425687268546791 0.5591729732269181  6.502293187924642 3.753898458969111 1.274708483408688  6.381093808491823 3.776494962585518 1.318289115370202  6.482066244676813 3.822194959673553 1.369664830957401  6.476887051186313 3.878500278746023 1.330683067717335  6.377233932954241 3.832656840827425 1.277690674943097  6.499198457521347 3.807617834898937 1.231079983275  6.496097784158616 3.861393463782324 1.18754896042804  6.373374265841236 3.888839074325475 1.237246031930662  6.47175304608492 3.934867727943792 1.291868914643488  6.492977102387642 3.915141406579928 1.144025704626514  6.369525827340668 3.944980303322396 1.196860899573215  6.466615063703503 3.991198198445595 1.253096144483409  6.489876787156695 3.968842375809202 1.100481678989173  6.36569937289196 4.001045235570738 1.15646208010457  6.461494998480847 4.047460856620572 1.214315877764394  6.486831807787022 4.022489090909626 1.056887340707881  6.361923789088991 4.057024833150214 1.116020651997799  6.456416124015977 4.103644852605933 1.175487275491473  6.358254966665366 4.112921579471696 1.075503479007169  6.483877601796976 4.076075776380956 1.013222105786281  6.451373734064493 4.159732797502929 1.136556718901666  6.242757556244779 3.260290310243783 0.9293420187747047  6.334380454324267 3.360841153627052 0.9635129727032001  6.346334488178935 3.251855804065874 0.9199045585692479  6.343444754964082 3.275701142805574 0.8524776345536601  6.331817102737817 3.391745129710899 0.8987587822553709  6.239084774267024 3.284305018907812 0.8616053883576492  6.340497034408915 3.299385333956107 0.7850895382013148  6.329202490564928 3.422507278291601 0.8340126923467815  6.235363138302676 3.308146159732643 0.793905764802978  6.337544285068093 3.322971875854672 0.7177507793640299  6.326595203202722 3.453191205490937 0.7693057959365276  6.231636031600813 3.331881041003047 0.7262622940932675  6.334625075354515 3.346501660068432 0.65046962864313  6.324026290491427 3.483826544846973 0.7046455685023896  6.227942861845157 3.355556471892539 0.6586861896027902  6.331771119987765 3.370012524934199 0.5832513815613367  6.321515716180556 3.514440288662827 0.6400270904554859  6.224318468134121 3.379211175448495 0.5911862519373321  6.328986186293514 3.393552375900829 0.5160915155176332  6.319082050202293 3.545045826570405 0.5754395656437516  6.22078812169615 3.40288958286664 0.5237656510982818  6.040157884340549 3.936155447049525 1.847909297727126  6.112549069426708 3.983948736966684 1.953091209311759  6.146405700469193 3.964294970159395 1.793330944749525  6.126129393320211 4.025742156793748 1.776643810317882  6.087286698990286 4.043491985429466 1.942546615120851  6.017321610466976 3.997531255385693 1.83698942854018  6.10629167309835 4.087245117254464 1.760033388743074  6.062537706464353 4.103174897418474 1.932046852816303  5.99492886889067 4.059038562110362 1.82607794190043  6.086642792310076 4.148697772562776 1.743442896206497  6.005329064617881 3.943577535881964 2.010609721418327  5.979081867639594 4.002524464048014 2.005557604238621  6.28470213864089 3.436334919408087 1.006592759924321  6.281048767174921 3.474407674430724 0.9455414995531282  6.277367805460514 3.512357696869025 0.8844884818671711  6.273703148976494 3.550244308127142 0.8234741277392676  6.270087318732509 3.588090533560675 0.7625060788267992  6.26653295088381 3.62590615644864 0.701557054994005  6.263036001736507 3.663705508048966 0.6406074815799887  6.905203148909488 3.106466480611352 0.8311277925600959  6.914504181079721 3.005588590587344 0.8192479230487846  6.802521616621595 3.01424666468752 0.8307585520103024  6.796845639263031 3.021684465981439 0.7620549262484472  6.908726542243934 3.012658273336404 0.7506520406743196  6.90033978547654 3.12072068389419 0.7630675452224255  6.791124335496541 3.029007104916187 0.6934205870534002  6.90289093297303 3.019639669012812 0.6821223530166233  6.895435402199363 3.134874570384127 0.6950368791743435  6.785375681129553 3.036250660954525 0.6248514447732261  6.897009798170204 3.026574289885338 0.6136350683726086  6.890504498899816 3.14896882732 0.6270268338820884  6.779620017806833 3.043464977587905 0.5563232752338145  6.891111533539732 3.033493955596634 0.5451714671021182  6.885557580962354 3.163042679886928 0.5590259739767743  6.773886179370569 3.050685264439044 0.4878215432581042  6.885242995316278 3.040399122401602 0.4767236954032616  6.880624584771092 3.177101642646059 0.4910312066107662  6.76820789091815 3.057903479700443 0.4193372065644068  6.879433186852483 3.047280966625194 0.4082829910670856  6.875740268188824 3.191144966845747 0.4230429055431963  7.376440303582541 3.802851683860807 1.269222908809696  7.213932430564562 3.824005962749197 1.312733091601731  7.363152636850844 3.867090196564549 1.361568804020625  7.361460565744081 3.922729320920384 1.323266236745892  7.211412184539999 3.87812834156478 1.272330577219584  7.373663796969425 3.856919955424378 1.227921978144125  7.359641692293136 3.978384083680736 1.284970736061744  7.208783906327801 3.93227676196844 1.231973844040864  7.370789001081679 3.911000921438796 1.186607651118477  7.357733310872884 4.034047849805908 1.246656489493784  7.206083625128379 3.986432290788718 1.19162644885796  7.367842428163601 3.965089309148928 1.145265854345026  7.355781507836154 4.089715220685312 1.208300469503923  7.203349074258224 4.040576542109258 1.151255153418979  7.364854007154437 4.019182739547438 1.103881390599627  7.353829824210585 4.145387923002819 1.169885788485266  7.200623406227039 4.094694243730236 1.11
[...]
<PointData  Scalars="f_14"> 
<DataArray  type="Float64"  Name="f_14"  format="ascii">5.0807447113921222e-01  5.0945366459778174e-01  4.9868148979553240e-01  4.9866228397137835e-01  5.0944543705203593e-01  5.0805558906334525e-01  4.9860418962910236e-01  5.0939950693638614e-01  5.0798243179030445e-01  4.9851973896010560e-01  5.0933136829247194e-01  5.0787402619719058e-01  4.9841322589571713e-01  5.0925112911775394e-01  5.0775028984476689e-01  4.9829040702843647e-01  5.0917593963999663e-01  5.0763607615430573e-01  4.9817515352503405e-01  4.8725791072413782e-01  4.9683655542981869e-01  4.9601877969771618e-01  4.9598704688694401e-01  4.9681024065489854e-01  4.8730933981973978e-01  4.9591790983398354e-01  4.9674197604066916e-01  4.8743992025661137e-01  4.9583797709904365e-01  4.9665762022461263e-01  4.8760414389102497e-01  4.9575531524321442e-01  4.9655945155063702e-01  4.8776914391232579e-01  4.9568599683730385e-01  4.9645674969782733e-01  4.8790576803704067e-01  4.9570992271323489e-01  4.9640577274553233e-01  4.8794150585994450e-01  4.9909823267928843e-01  4.8692385120119569e-01  4.8822279703380261e-01  4.8822733053193967e-01  4.8695077880874738e-01  4.9915109084836617e-01  4.8703357597778257e-01  4.9923911531521853e-01  4.8825607570634288e-01  4.8715202459769791e-01  4.9936110173680470e-01  4.8831543694330937e-01  4.8730747030947741e-01  4.9952207957553935e-01  4.8840717676642503e-01  4.8749451203067173e-01  4.9973037959802902e-01  4.8852958860257889e-01  4.9998702074284129e-01  4.8766757081863210e-01  4.8869433359740339e-01  4.9065020176908886e-01  4.9343798268404088e-01  4.8225497076684809e-01  4.8225718538691165e-01  4.9054218764137453e-01  4.9327595008534181e-01  4.8225184622026979e-01  4.8223650496927156e-01  4.9310985653150868e-01  4.9041396313937646e-01  4.8220180754982211e-01  4.9291417360467488e-01  4.9025420870016900e-01  4.8212933722848855e-01  4.9270119495806980e-01  4.9006995820496574e-01  4.8198138077006769e-01  4.7271390325402152e-01  4.8381631998592639e-01  4.7413335251859129e-01  4.7415405294953961e-01  4.8380821077594055e-01  4.7269685861651911e-01  4.7267219447343140e-01  4.8377595720178534e-01  4.7421322446991571e-01  4.7266994756611563e-01  4.8375677804698758e-01  4.7430113361943038e-01  4.7270265824677965e-01  4.8377413946801157e-01  4.7441843615932677e-01  4.7278313584556453e-01  4.8384359477274957e-01  4.7456075371056872e-01  4.8399207355482382e-01  4.7292358320721589e-01  4.7470469141308336e-01  5.0072596780039269e-01  4.9146293719543638e-01  4.9108018687404509e-01  4.9108411695291054e-01  4.9146224524469667e-01  5.0077553887454107e-01  4.9108874466754321e-01  4.9148128388195339e-01  5.0087996691531100e-01  4.9110899249887457e-01  4.9152338990914635e-01  5.0101399791884793e-01  4.9115099606635870e-01  4.9159185041621262e-01  5.0116415559343397e-01  4.9122287569877016e-01  4.9168932930781889e-01  5.0131938640160223e-01  4.9134274961450447e-01  4.9183123319041261e-01  5.0145545822188620e-01  5.1491499401718499e-01  5.0776931112029755e-01  5.0465907506653096e-01  5.0468827398278648e-01  5.0778786633913309e-01  5.1493903445442424e-01  5.0476282427194885e-01  5.0786570684503218e-01  5.1500300688016143e-01  5.0486713076381917e-01  5.1803980652749892e-01  5.1804156514066391e-01  4.9564700017375729e-01  4.9569131441384739e-01  4.9581268628786690e-01  4.9597428146424144e-01  4.9616845031634138e-01  4.9638894833337083e-01  4.9656965474269793e-01  4.4040088119847415e-01  4.4054099136609759e-01  4.5079473238547924e-01  4.5079631025399158e-01  4.4054898560600936e-01  4.4037860361534764e-01  4.5080976890136787e-01  4.4057825483984198e-01  4.4035476457994249e-01  4.5083179327637596e-01  4.4061368409577223e-01  4.4032958835146480e-01  4.5086580453934894e-01  4.4065487926672431e-01  4.4031397183696375e-01  4.5091476496973842e-01  4.4069593416202657e-01  4.4031495568815093e-01  4.5100528760302072e-01  4.4071584199128427e-01  4.4031764751063973e-01  3.8975033180218593e-01  4.0510982165834031e-01  3.9057191632924038e-01  3.9054703544122710e-01  4.0509933033715856e-01  3.8973035325966382e-01  3.9049569579467375e-01  4.0508234005989335e-01  3.8969040232663132e-01  3.9042049238233062e-01  4.0505436424598817e-01  3.8963083789157438e-01  3.9032627307951800e-01  4.0501646133674152e-01  3.8955150915608866e-01  3.9022307598566375e-01  4.0497264824169560e-01  3.8945192709431592e-01  3.9013258035244824e-01  4.0492901966446543e-01  3.8932788357788217e-01  5.0464260009096451e-01  5.0470191007698173e-01  5.0482128183578123e-01  5.0497971720889823e-01  5.0515982913474955e-01  5.0534121560596212e-01  5.0549999448197003e-01  4.8067903964630843e-01  4.8068960860294174e-01  4.8072981633517464e-01  4.8079710422492777e-01  4.8090156567820064e-01  4.8104598077329735e-01  4.8119980876090823e-01  5.1399085460850513e-01  5.1409016788097139e-01  5.1418532431403341e-01  4.8407322061135316e-01  4.7306476725607438e-01  4.8340474315962628e-01  4.8341000421773705e-01  4.7305225848360205e-01  4.8407775697600036e-01  4.8410851155417700e-01  4.7303905256224504e-01  4.8344291839640963e-01  4.8415063302450911e-01  4.7303357692583464e-01  4.8350020273434885e-01  4.8418767848443628e-01  4.7303346058687756e-01  4.8356864094506102e-01  4.7303488412257949e-01  4.8420584979667575e-01  4.8363178251072514e-01  4.8419589044012606e-01  4.7304140553735807e-01  4.8367130025039540e-01  4.9627314329944777e-01  4.9419734230248352e-01  4.9422007381999883e-01  4.9626139916673506e-01  4.9627671594581674e-01  4.9428943521167445e-01  4.9631046146547564e-01  4.9438911923590795e-01  4.9634887661368254e-01  4.9450299770742245e-01  4.9637953366828053e-01  4.9461389209682066e-01  4.9639824890105338e-01  4.9470381768103344e-01  4.4940673098599421e-01  4.4939499196969734e-01  4.4939328008579071e-01  4.4940229141556942e-01  4.4942608351310381e-01  4.4946953323823724e-01  4.4953022822329969e-01  3.9700496154894932e-01  3.9697442112227388e-01  3.9693137566436226e-01  3.9687173398257203e-01  3.9679933909144921e-01  3.9672126593069329e-01  3.9665333610263021e-01  3.9900282346265398e-01  4.1046170430181395e-01  4.0663612129542864e-01  4.0667157796541492e-01  4.1046938720020182e-01  3.9898367065708507e-01  3.9894298635139985e-01  4.1050175979717946e-01  4.0674103032537073e-01  3.9889466006794999e-01  4.1054094120885926e-01  4.0681811607373258e-01  4.1056962990203505e-01  3.9884212077153403e-01  4.0687835648265036e-01  4.1057575544532754e-01  3.9878805155940200e-01  4.0690341884520298e-01  3.9874100823054115e-01  4.1055148456209489e-01  4.0688096446058108e-01  4.7001467916354439e-01  4.7002779550188944e-01  4.7005874673338049e-01  4.7010453525625301e-01  4.7016290977610714e-01  4.7022839777436864e-01  4.7028674481309640e-01  4.8198233905278759e-01  4.9060025337910801e-01  4.8874013374467867e-01  4.8878844953211287e-01  4.9058994033587261e-01  4.8210981380367141e-01  4.8890419413806235e-01  4.9057740033731889e-01  4.8241905914658778e-01  4.8904414272311475e-01  4.9055766966154324e-01  4.8278838035593502e-01  4.8916554570714149e-01  4.9051440758752335e-01  4.8314489043550518e-01  4.8922353782437988e-01  4.9042523293512708e-01  4.8340976204711705e-01  4.8917233827308054e-01  4.9025815355242292e-01  4.8339242222969497e-01  5.0525118156082083e-01  4.9422363566251132e-01  4.9567335572288507e-01  4.9568891713934060e-01  4.9422084526484283e-01  5.0526601619365885e-01  4.9572046169649447e-01  4.9422659748074599e-01  5.0531884906181723e-01  4.9575759932288938e-01  4.9422316747484563e-01  5.0538591734339000e-01  4.9577901102837602e-01  4.5057432489884180e-01  4.6111536428255662e-01  4.5082217564186372e-01  4.5074569845993506e-01  4.6110131476216737e-01  4.5053019480735329e-01  4.5059890634609850e-01  4.6107878737754548e-01  4.5040590342111853e-01  4.5044864820429076e-01  4.6105623707254878e-01  4.5027075171910430e-01  4.5033248453461261e-01  4.6104076756724283e-01  4.5016514662596069e-01  4.5028146099181748e-01  4.6103855520789511e-01  4.5012312926693548e-01  4.5032336172558207e-01  4.6104266769187940e-01  4.5017815486820795e-01  4.7744493343560640e-01  4.7746877696259143e-01  4.7752997888264537e-01  4.7761706473168847e-01  4.7772076059776447e-01  4.7782651464162712e-01  4.7790247824063664e-01  4.7739450153413771e-01  4.7739875334637416e-01  4.9062653882428059e-01  4.7739893236171760e-01  4.7739624985445051e-01  4.7738005384509719e-01  4.7733139247459538e-01  4.7721865831766658e-01  4.8987107366730132e-01  4.6383941391198430e-01  4.5352984270362517e-01  4.5350505377673517e-01  4.6385082010230511e-01  4.5347727326129628e-01  4.6386551500300199e-01  4.5345232797910739e-01  4.6387557480332559e-01  4.5344293073580832e-01  4.6387614323471338e-01  4.5345587690762901e-01  4.6386657972844875e-01  4.5349067379724045e-01  4.6384311489888364e-01  5.1483942268310645e-01  5.0528711415897853e-01  5.1478429013911253e-01  5.1480187159228297e-01  5.0529913690322448e-01  5.1483367301321104e-01  5.1485237740014211e-01  5.0534693689932519e-01  5.1484465654693035e-01  5.0555191696676371e-01  5.1496025879309748e-01  5.1506667260545425e-01  5.1488523020970300e-01  5.0543091731412937e-01  5.1522968405950165e-01  5.0571263349394691e-01  4.8247312039912282e-01  4.8246991065416206e-01  4.8244649843836424e-01  4.8239914064914252e-01  4.8232485966734762e-01  4.8220561612593293e-01  4.8198262867113761e-01  5.0498888066963166e-01  5.0511763537355392e-01  5.0524281618811673e-01  4.7330529878619293e-01  4.8397196587254476e-01  4.7415796209389705e-01  4.7418483087772456e-01  4.8399254697849026e-01  4.7331371268263417e-01  4.7423883118003007e-01  4.8404297339117480e-01  4.7331530771618446e-01  4.7428072414546474e-01  4.8408751219523699e-01  4.7331350325391713e-01  4.7428807684798707e-01  4.8410204074447810e-01  4.7329833833132368e-01  4.7424524647847743e-01  4.8406822994241394e-01  4.7326491016889533e-01  4.7414344635117522e-01  4.8397803781660037e-01  4.7321648405865679e-01  3.6681961695243365e-01  3.7073853468167423e-01  3.7990239420287986e-01  3.7077145607662781e-01  3.6685665170340975e-01  3.7992794366797078e-01  3.7083960511470687e-01  4.7220174028278972e-01  4.8411407716118282e-01  4.8412049871200269e-01  4.7222054624778242e-01  4.8413239406197228e-01  4.7226031933538665e-01  4.8414432273830699e-01  4.7230170949243988e-01  4.8414228752230243e-01  4.7233644805280867e-01  4.8411471921884469e-01  4.7235683654565497e-01  4.8406009988537890e-01  4.7234836921989415e-01  4.1820644530228729e-01  4.1828107084693283e-01  4.1845643400327953e-01  4.1866311096367570e-01  4.1885223065707999e-01  4.1898079694158008e-01  4.1900425680044739e-01  4.6131142165386813e-01  4.6130647245367745e-01  4.6128064786948442e-01  4.6125609149677382e-01  4.6124586428366260e-01  4.6126101386107721e-01  4.6130614519133400e-01  4.1912301917333644e-01  4.3033824922558289e-01  4.2361298246914753e-01  4.2357839750007403e-01  4.3034189838809644e-01  4.1911723974089005e-01  4.2347313804544379e-01  4.3034924926350937e-01  4.1909716603057068e-01  4.2336215797402382e-01  4.3036807960735612e-01  4.1908624193160876e-01  4.2329049728567092e-01  4.3041734354737765e-01  4.1910528479861714e-01  4.2330337964807974e-01  4.3051634710547859e-01  4.1917354138269597e-01  4.2347033880744511e-01  4.3066433380651192e-01  4.1928117253034275e-01  4.6473979031713469e-01  4.7631079808972232e-01  4.6807622765629381e-01  4.6810824278840418e-01  4.7637424724842475e-01  4.6477773124790184e-01  4.6819671576412097e-01  4.7653734762667632e-01  4.6489170846266026e-01  4.6831708778646602e-01  4.7673615452955759e-01  4.6504215588823777e-01  4.6844150406560797e-01  4.7692792876589324e-01  4.6519540397951425e-01  4.6855061067537479e-01  4.7706214319186113e-01  4.6532068879991062e-01  4.6866096593867179e-01  4.7704777013366062e-01  4.6541248597122403e-01  4.2432381191924035e-01  4.2430945265873343e-01  4.2427788440479514e-01  4.2425530200570927e-01  4.2425563553323031e-01  4.2429301173106104e-01  4.2438494125643456e-01  4.3191920201511536e-01  4.3814405519058525e-01  4.4594491936229347e-01  4.4597173971423876e-01  4.3816461631761289e-01  4.3193960577901075e-01  4.4602566343683625e-01  4.3819516683862780e-01  4.3197858545193768e-01  4.4610128994322490e-01  4.3823135789025652e-01  4.3202642466263247e-01  4.4619220905537565e-01  4.3827152064223796e-01  4.3207581593844713e-01  4.4629273341143699e-01  4.3831134605353178e-01  4.3211635035888168e-01  4.4638722641697420e-01  4.3833590068627620e-01  4.3213099073274447e-01  4.4003436710171295e-01  4.4003453960751643e-01  4.4002842097375522e-01  4.4003159272969788e-01  4.4004393179799639e-01  4.4006487766483837e-01  4.4010969304792569e-01  4.7164516140003615e-01  4.7167164856506838e-01  4.7174739536569799e-01  4.7184742622344639e-01  4.7194814304491356e-01  4.7202624091073636e-01  4.7205450149823164e-01  4.4469611973702883e-01  4.4468161517138682e-01  4.4465818124678502e-01  4.4464003829924087e-01  4.4463164754706519e-01  4.4463905359034150e-01  4.4467650205409837e-01  4.7496313104053395e-01  4.7502858231705342e-01  4.7522180187722679e-01  4.7546011511254360e-01  4.7569161148937211e-01  4.7586324106185085e-01  4.7592224592498455e-01  4.9576945908639836e-01  4.9573006685639015e-01  3.8777697948484263e-01  3.9716104332213231e-01  3.8880845100128419e-01  3.8881335978513520e-01  3.9717212570311067e-01  3.8777167204681301e-01  3.8882059905181693e-01  3.9720260416212916e-01  3.8775968897047458e-01  3.8883818345467314e-01  3.9724692426919661e-01  3.8774678502940751e-01  3.8886901403813973e-01  3.9730437671706309e-01  3.8773641034879797e-01  3.8891669286775843e-01  3.9737277354248796e-01  3.8773427606769850e-01  3.8898921576873829e-01  3.9743900510978769e-01  3.8775901941705554e-01  4.0375676298350655e-01  3.9467756326897868e-01  3.9356175325653692e-01  4.0366028082681832e-01  3.9353283451884535e-01  4.0386707010882034e-01  3.9465905005531737e-01  3.9349311077830434e-01  4.0395355732731425e-01  3.9463197860192689e-01  3.9344353768748469e-01  4.0398832361484432e-01  3.9459272286222935e-01  3.9337969402433393e-01  4.0396736028509883e-01  3.9452801857260167e-01  4.4297932649101035e-01  4.5446298712377897e-01  4.4903964936298657e-01  4.4904001186035719e-01  4.5451823591170126e-01  4.4298622747905281e-01  4.4903456164051136e-01  4.5464200937764104e-01  4.4298321047444411e-01  4.4903482696886560e-01  4.5479635278175939e-01  4.4299242644719355e-01  4.4904290886742865e-01  4.5495071845157192e-01  4.4300378069908275e-01  4.4906141518995962e-01  4.5507444734382452e-01  4.4300740525922011e-01  4.4910096836727714e-01  4.5513391427334449e-01  4.4301619134216980e-01  5.1494145846424111e-01  5.1495896210188463e-01  5.1501938434043815e-01  4.0311442227231442e-01  4.0287306475487561e-01  4.0337872068725789e-01  4.0360129148666773e-01  4.0372355494018114e-01  4.0371105673675539e-01  4.0823840919604010e-01  4.0828774632008125e-01  3.9978391685946546e-01  3.9975553506913764e-01  4.0830970003120332e-01  4.0827730113681709e-01  3.9971283332567781e-01  4.0836859517922225e-01  4.0837019756422044e-01  3.9966884302000449e-01  4.0843126394331669e-01  4.0847046422184224e-01  3.9962520303834981e-01  4.0848166965861338e-01  4.0855163595628063e-01  3.9958362252460483e-01  4.0850902202849160e-01  4.0859631537130003e-01  3.9955311381135949e-01  4.0850118479394160e-01  4.0859092606477138e-01  3.9495787446070413e-01  3.9495070668986321e-01  3.9492124693614189e-01  3.9488814477645628e-01  3.9485880162325804e-01  3.9484182319101874e-01  3.9485439274049189e-01  4.8638848798895540e-01  4.8635933102180928e-01  4.8629920162357976e-01  4.8622123893052815e-01  4.8611943670729890e-01  4.8597520117203546e-01  4.0634998928914123e-01  4.0632748297562749e-01  4.0630340482296329e-01  4.0627105135412334e-01  4.0623243884608495e-01  4.0619218878260616e-01  4.0614960327003219e-01  5.0797345860375553e-01  5.0808492528629556e-01  5.0817667836904001e-01  5.0822716466924489e-01  4.2236837755834650e-01  4.2246443999048661e-01  4.2269633980627569e-01  4.2296655553081058e-01  4.2321450239904790e-01  4.2338492489058666e-01  4.2342530508560833e-01  4.5507315737169468e-01  4.5509684258027233e-01  4.5515050632413079e-01  4.5522010495126064e-01  4.5530388671968247e-01  4.5539928326120394e-01  4.5547942709506883e-01  3.7813046943273187e-01  3.7815073856667214e-01  3.7819137078914472e-01  3.8000346598894819e-01  3.7094155372848148e-01  3.7825492187867649e-01  3.8012467251298226e-01  3.7107027328923603e-01  3.7833975268639158e-01  3.8028862197567304e-01  3.7121621725020654e-01  3.7844394603115317e-01  3.8049311874126529e-01  3.7136511004081091e-01  3.7857470182837238e-01  3.8071877241430474e-01  4.1507034727676390e-01  4.1285603343997174e-01  4.1283892235691250e-01  4.1505309478900637e-01  4.1278131719724426e-01  4.1502359929803273e-01  4.1271245302827547e-01  4.1498682489567562e-01  4.1263681344408543e-01  4.1494535069922622e-01  4.1256197417436391e-01  4.1489880995425643e-01  4.1252039769788656e-01  4.1485217014826187e-01  5.0299510978674522e-01  5.0955039358892940e-01  4.9791596887180117e-01  4.9792405005645385e-01  5.0959005841539273e-01  5.0303462314751679e-01  4.9795047977507989e-01  4.9434116096068803e-01  4.8642330444980059e-01  4.9346239038546130e-01  4.9345889885971178e-01  4.8642737194375463e-01  4.9435241765521171e-01  4.9344893806817031e-01  4.8645485524449050e-01  4.9440774474660493e-01  4.9345954401177150e-01  4.8650901530315843e-01  4.9449436784525103e-01  4.9350515756186042e-01  4.8658839394150000e-01  4.9460709666096236e-01  4.9360035628962190e-01  4.8668819175981159e-01  4.9474000248667044e-01  4.9377917742026939e-01  4.8679576952620002e-01  4.9488483404268524e-01  4.5900289376780795e-01  4.5903035903958905e-01  4.5909218803563911e-01  4.5917662971886963e-01  4.5927181856560834e-01  4.5936995583172835e-01  4.5947430624482355e-01  4.0860861614224869e-01  4.1753153671314042e-01  4.1260183603282979e-01  4.1260403142861990e-01  4.1756608415027940e-01  4.0860677854073302e-01  4.1260296866343221e-01  4.1763801029202785e-01  4.0861369124266150e-01  4.1259897898269055e-01  4.1771532006346018e-01  4.0861949019791599e-01  4.1259089152698153e-01  4.1778130098851851e-01  4.0861705792002695e-01  4.1257472791692196e-01  4.1781733826404760e-01  4.0859694167257288e-01  4.1255374191156480e-01  4.1779560400621091e-01  4.0852938514323989e-01  4.8304961562843246e-01  4.8306423767650492e-01  4.8315425630428938e-01  4.8326649634952001e-01  4.8336289527540161e-01  4.8339679367350147e-01  4.8327192263329377e-01  4.0016373810246236e-01  4.0015954239270746e-01  4.0014823575449676e-01  4.0013129988834778e-01  4.0011096527179635e-01  4.0008802264384491e-01  4.0005496622395992e-01  4.0360616766246088e-01  4.1198574179531477e-01  4.0276278400001581e-01  4.1213072224605807e-01  4.1248315741364650e-01  4.1288969624390254e-01  4.1326631618461912e-01  4.1353184564788031e-01  4.1354337071512148e-01  4.1812916116050536e-01  4.1819887945004908e-01  4.1834775452115375e-01  4.1851649151562814e-01  4.1866000833344058e-01  4.1874474883676283e-01  4.1875987917206597e-01  4.9838056864280889e-01  4.9831039654485199e-01  4.9815338961583461e-01  4.9795731009730360e-01  4.9773471923087487e-01  4.9750102552421305e-01  4.9734393176666658e-01  5.0566064655294218e-01  5.0444154205156511e-01  5.0439379657709349e-01  5.0568148265676949e-01  5.0428541489803302e-01  5.0571325403636680e-01  5.0415978040791842e-01  5.0575176661692667e-01  5.0402956082684902e-01  5.0578878401241645e-01  5.0391653361258881e-01  5.0581384670595975e-01  5.0387079520954081e-01  5.0581776972081072e-01  4.1096620936800776e-01  4.1109889474437611e-01  4.1144252532297976e-01  4.1184282620883500e-01  4.1221903869446486e-01  4.1249519215327674e-01  4.1252998459543982e-01  4.2148354868741922e-01  4.2149359246223717e-01  4.2151702504788602e-01  4.2154469957434637e-01  4.2156695172815439e-01  4.2157252140249729e-01  4.2154048140056849e-01  3.8753564659930045e-01  3.8757091163338908e-01  3.8766534820030391e-01  3.8779984916273724e-01  3.8796915489464023e-01  3.8816854304664156e-01  3.8835447367812448e-01  5.1512158902287086e-01  5.1513019742425570e-01  5.1516270888653981e-01  4.2556570877420402e