<?xml version="1.0"?>
<VTKFile type="UnstructuredGrid"  version="0.1"  >
<UnstructuredGrid>
<Piece  NumberOfPoints="2290" NumberOfCells="10388">
<Points>
<DataArray  type="Float64"  NumberOfComponents="3"  format="ascii">4.835772757098651 2.791863139997921 0.8231085654265681  4.859928352991076 2.966519487149783 0.8183280400299996  4.949323731928574 2.869646665403472 0.8220359210997742  4.843521516621431 2.781842784593771 0.7532801393072164  4.866740759856238 2.970598572727202 0.7452098626654561  4.956062980280707 2.864062794301271 0.7507973375668849  4.873568306354763 2.974639002367988 0.6722999655919009  4.851306776570583 2.771900293154121 0.6837477350422345  4.962797925284274 2.858514698176455 0.6798111205590183  4.880382228919934 2.978634506368365 0.5996339798982626  4.859086882358516 2.761970267253339 0.6143829702742524  4.969527458429766 2.852958361178944 0.6090659181115927  4.976219049453461 2.847393387007213 0.5384750965050916  4.887156881809866 2.982580393679036 0.5271957003041294  4.866828159728683 2.752062490643786 0.5452154866531981  4.98285040471854 2.841799469860263 0.4680650084130542  4.893878821355813 2.986481289898671 0.4549328513053388  4.874502658587133 2.742135600302739 0.4761878719129477  4.882053048121235 2.732132608100691 0.4072860272503801  4.900534241582029 2.990314871835532 0.3827595389055295  4.989456808370991 2.836150255856923 0.397882056176699  4.962784031710258 1.293045238675167 1.490551399308133  5.105886206246026 1.331693092184997 1.462177062742162  5.055082997187112 1.226162325459813 1.567558455624586  4.966610660549288 1.248503110515437 1.446405362401406  5.108774075814583 1.286803856881697 1.417618717373047  5.060253048729423 1.175310018832864 1.529138153213091  5.065426033657087 1.124467847239486 1.490731843009584  5.111621026850292 1.241921492504202 1.373058788594523  4.970440606088959 1.203962354472619 1.402261890831803  5.114455259866244 1.197037019583796 1.32849412604692  4.974276024554077 1.159419033082869 1.358119209772663  5.070599503634564 1.07363815742558 1.452339529027189  5.117296298941304 1.152148254223819 1.28392678357191  4.978125719527868 1.114872207586361 1.313979038325401  5.075778711794074 1.022818722008378 1.413960806182099  5.12016219722773 1.107254660765508 1.239358268704936  4.982005100079654 1.07031981843913 1.269840337600471  5.0809693432266 0.9720097422042466 1.375596551165643  5.123085246542178 1.062354715158384 1.194787122735284  4.985919124786845 1.025764160161407 1.225700351416196  5.086175052418638 0.9212059760869394 1.337235187417911  5.402918909482917 2.243528021096917 1.011976667639334  5.379425003637693 2.39572027624683 0.9652633235387037  5.52907998028894 2.384025407040352 0.967173068745708  5.528517355552086 2.366840169578951 0.9080577412460787  5.379442180700587 2.378303046256443 0.9061339070510999  5.402511587187947 2.225100416277317 0.9547785402576925  5.527884766860235 2.349753976245521 0.8490118247953485  5.379385759153642 2.360989018890285 0.8470700676502831  5.402044930328969 2.206799338754962 0.8976158315746752  5.527229949671312 2.332741298224752 0.7900379684662701  5.379294484131769 2.343760454752045 0.7880955098821724  5.401576074500954 2.188585030357211 0.840482127496155  5.379213770547203 2.326574388442459 0.7291911674153402  5.401118772057029 2.170404199749932 0.7834250302977354  5.526590182123279 2.315768056950167 0.7311523117410365  5.379156133055583 2.309364839388086 0.6704093878308425  5.400687746811999 2.152177514004141 0.7264612484444326  5.525980785606465 2.298768697023315 0.6723846511595915  5.379151544468373 2.292045986493209 0.6117959524632721  5.400311186792324 2.133813827666956 0.6696428597822749  5.525436962987882 2.281660192244893 0.6137726776848073  5.306936773862561 1.478147184569765 1.342841744257135  5.431646300963628 1.539833854688553 1.310323694592891  5.400766854091552 1.40466668143374 1.407392983621027  5.404577285737751 1.363377709249192 1.360540218522222  5.435343759281626 1.50589843016073 1.259326954007451  5.309762481715098 1.441763228210676 1.29259593157693  5.439047439923111 1.471998454666813 1.208264453448424  5.312569692568461 1.405413320850734 1.242307684035264  5.408339641300547 1.322074892714629 1.313660384580059  5.442755857182456 1.438106238532473 1.15716862799821  5.315368495685066 1.369070552676681 1.191996008419319  5.412092523509864 1.280770377697097 1.266761905432902  5.446460644612246 1.404202857272767 1.106062523066131  5.318166072780261 1.332717195934646 1.141676642876013  5.415841912696975 1.239455189291636 1.219856284407288  5.419598172461962 1.198126030321218 1.172948800066714  5.45015173616558 1.370266575010157 1.054946109700851  5.320963960355313 1.296340362589517 1.091359420388516  5.423404409227358 1.156779988912746 1.12603296664226  5.453838472825557 1.336274895297523 1.003821693869088  5.323765913469516 1.259934416402939 1.041043517707271  5.566766002724495 1.144823603117242 1.816405754110598  5.519953705433203 1.20487383832047 1.678270835802572  5.659319875850104 1.188117128223023 1.730200451804818  5.665949590037132 1.13219157317234 1.701581666106229  5.525185478883181 1.14992015942403 1.647659729030212  5.572453771992858 1.086465730737662 1.793226259957517  5.578130107379636 1.028096289102976 1.770038175130706  5.530371670483865 1.094955454272502 1.617016060807108  5.672579640539618 1.076272009661317 1.672933106757287  5.583806812010304 0.9697264103098755 1.746840156846531  5.535543811375545 1.039984193657171 1.586354801953545  5.679221305316328 1.020371565535936 1.644273010081553  5.589477909980356 0.9113549812895434 1.723645167683951  5.540713880182842 0.985008418236775 1.555694042196977  5.685857562706119 0.9644784403121364 1.61562602517811  5.545901301239079 0.9300227150736777 1.525046305186628  5.755497550682214 1.269757884438477 1.622533513531514  5.816670473971783 1.205905608718916 1.740783904975435  5.825031166646473 1.150860053679428 1.711412663378449  5.764020125239694 1.218327730389087 1.587885319636424  5.772676340763902 1.166923705773865 1.553178461649709  5.833528602659278 1.095842085152632 1.681995365691325  5.781389435926479 1.115531000680428 1.518455007776412  5.842085584189857 1.040844083440466 1.652561648931696  5.790096385313126 1.064133399166551 1.483734948979564  5.850631090535593 0.9858531971026894 1.623137913773353  5.692485084527492 0.9085852061034614 1.587015870768711  5.79874720795094 1.012708850012136 1.449028115058556  5.33204490065163 1.614748419589395 1.257228293324342  5.333642099550859 1.584964682393244 1.203991965554464  5.335190505315893 1.555242016790885 1.150699222439327  5.336728666230154 1.525543900374834 1.097393922246076  5.338269028384456 1.495841299716868 1.044090441684546  5.339825105662951 1.466109908257085 0.9907956399605546  5.341433564098487 1.436316771319978 0.9374989314777495  6.157681317132066 2.919719119725295 0.46182769172886  6.18325137753023 2.744677025376244 0.4800975208679201  6.274638769463772 2.833770575759379 0.4670342547659785  6.183508977681953 2.7513591939958 0.5470909801992284  6.158761453821255 2.920201132749966 0.5307136220273811  4.786983214811 1.884382493512087 1.136928227852321  4.93053526947514 1.974278757717681 1.103738957629154  4.918641539883173 1.825513181575037 1.159212577780355  4.9189268104954 1.80361276479185 1.104190297393644  4.93121306909751 1.953886971893096 1.048330970320182  4.787735379935856 1.863156345683027 1.082395302734342  4.931917764285224 1.933602713808838 0.9929154703486526  4.78853528553343 1.842012900292067 1.02785440192556  4.91922538501619 1.781814266578224 1.049166729426529  4.789361040803463 1.820912176451162 0.9733274509871975  4.932637487215899 1.913384574854575 0.9375362973911328  4.919538122035306 1.760060157856438 0.9941538723866663  4.790197925639892 1.799815535276468 0.9188311513436032  4.933364214295916 1.893175493475659 0.8821969533341009  4.919862999122697 1.738310292134182 0.9391690015900327  5.197916926860623 2.847455911660786 0.8528708723293883  5.167041084552177 2.994003544944141 0.8462778866193785  5.284536732137712 2.990043242681298 0.8576382632805318  5.290869875970272 2.99137343159175 0.7863015817111494  5.174374370363712 2.994510114469369 0.774278306750699  5.203738134505552 2.841017182977948 0.7836656317230081  5.297133206818152 2.992686060588906 0.7152245579550764  5.181654279820702 2.995016079230581 0.7025824944728247  5.20953022163294 2.834579739149963 0.7146716969219794  5.303359560671695 2.993930294371444 0.6443919743149537  5.18889491723932 2.995465320983763 0.6311384976579723  5.215307261215069 2.828142293425817 0.6458936151441641  5.309554178174819 2.995091682004734 0.5737457861621511  5.196113602674366 2.99583007621057 0.559889592793536  5.221032330815099 2.821700632289442 0.5772980585389555  5.315729842097669 2.996208103575724 0.5032489855869281  5.203306873374824 2.996142002394027 0.4887901771598355  5.226719231676231 2.815242766184559 0.5088722298132561  5.321917192319682 2.997316896631484 0.4328900734273002  5.210487697754633 2.996435079492784 0.4178360382867072  5.232391174456708 2.808762072487837 0.4406353112796041  5.65298609373969 3.02989748350969 0.8824570571358131  5.742104942025443 3.180136101466756 0.9168121806878026  5.803866293719117 3.053229049808087 0.8922689253654835  5.805087456103397 3.062688314693629 0.8221953142206841  5.744496601155662 3.19662617771979 0.8465839461511959  5.656344368247601 3.037189002481164 0.8122612417186101  5.806234693471596 3.072018491501287 0.7522648211355472  5.746766876192456 3.212949262833715 0.7764591718935925  5.659630313394721 3.044370867816387 0.7422149593573378  5.807327203267345 3.081218652404123 0.6824560631588702  5.74895589412473 3.229116453799343 0.7064464796364989  5.662860690073958 3.051445927926446 0.672324447274966  5.808414440427769 3.090328852431593 0.6127692607257033  5.751147518864197 3.245179878519135 0.6365487380327816  5.666068277428388 3.058424263396382 0.6025717415725311  5.80955915092081 3.099403433738828 0.5432084803963219  5.753408275392673 3.261196709661935 0.56677216312374
[...]
<PointData  Scalars="f_14"> 
<DataArray  type="Float64"  Name="f_14"  format="ascii">6.3063000701662242e-01  6.2864924616195739e-01  6.2072133689863729e-01  6.3064124934485999e-01  6.2866778607200702e-01  6.2073289516467411e-01  6.2872188257500294e-01  6.3067116501308640e-01  6.2078760503174912e-01  6.2881394158510318e-01  6.3072605143581273e-01  6.2087717150448196e-01  6.2100713707721344e-01  6.2894644151250922e-01  6.3082817214138709e-01  6.2117406247395435e-01  6.2912319534825023e-01  6.3099185139072589e-01  6.3121099143172066e-01  6.2935970103240302e-01  6.2133250803097362e-01  6.1987671157740232e-01  6.0804846782671751e-01  6.1210686155235050e-01  6.1985861848778323e-01  6.0805514731667676e-01  6.1207984845389274e-01  6.1202751666044897e-01  6.0807941669854337e-01  6.1980550536658952e-01  6.0810398201494109e-01  6.1972821783584542e-01  6.1195916968074926e-01  6.0812038521220180e-01  6.1962971552629487e-01  6.1188234399992958e-01  6.0811944462565426e-01  6.1951033024970659e-01  6.1180201108609367e-01  6.0808087710041647e-01  6.1937848611506197e-01  6.1171370641411782e-01  5.8138109858935894e-01  5.8317003902384967e-01  5.6975244457550145e-01  5.6977497234155206e-01  5.8318865410040555e-01  5.8140055756553832e-01  5.6983693948004532e-01  5.8324670161856618e-01  5.8145038912358105e-01  5.6991533170543940e-01  5.8332668553844103e-01  5.8151301833756908e-01  5.8341102232994135e-01  5.8157434800327301e-01  5.6998840063995293e-01  5.8348531293532591e-01  5.8161819969783402e-01  5.7003757921395970e-01  5.8352782683098947e-01  5.8162885153760757e-01  5.7004278160902144e-01  5.9103141129111636e-01  5.8015306137074740e-01  5.8318754713825305e-01  5.8320612487068513e-01  5.8016287670316147e-01  5.9104276292954783e-01  5.8018429520279702e-01  5.9106187955925293e-01  5.8326212228272090e-01  5.8021877751446849e-01  5.9109195065469655e-01  5.8333463972083865e-01  5.8026309185802549e-01  5.9112999343758754e-01  5.8341425579519512e-01  5.8348996120425412e-01  5.8031625593969716e-01  5.9117609671573856e-01  5.8354060207294078e-01  5.8037748249277665e-01  5.9123764830908832e-01  5.6943811179242676e-01  5.7341507222644883e-01  5.6158466395488871e-01  5.6158873282973776e-01  5.7344405648232766e-01  5.6945095043504168e-01  5.6950170078388729e-01  5.7351260942154125e-01  5.6161940424351087e-01  5.6957230167397777e-01  5.7360211618704116e-01  5.6165993683086879e-01  5.6964890741038487e-01  5.7369677602205071e-01  5.6170337670241044e-01  5.7378077432701358e-01  5.5289338068775518e-01  5.4794942586752382e-01  5.4794279916177036e-01  5.5289063923836557e-01  5.5288211576594570e-01  5.4793195168250253e-01  5.5287451276875832e-01  5.4792354073519001e-01  5.5287559249347074e-01  5.4791947216539716e-01  5.6174066851948168e-01  5.5289153114449896e-01  5.8867862151625538e-01  5.8869877937616921e-01  5.8875301479909548e-01  5.8882272827540194e-01  5.8889595370662751e-01  5.8896104873629129e-01  5.8900474468904862e-01  5.0912991810567565e-01  5.0755712338910142e-01  4.9817515352503405e-01  5.0763607615430573e-01  5.0917593963999663e-01  6.3497524318888665e-01  6.2269519307447085e-01  6.2376457736521240e-01  6.2375963338466356e-01  6.2269496716044737e-01  6.3496079500471370e-01  6.2269661530285958e-01  6.3493166960635339e-01  6.2374951667099432e-01  6.3488889489975653e-01  6.2269497167791710e-01  6.2372751097310131e-01  6.3483174311242474e-01  6.2268428935772346e-01  6.2368737536422525e-01  5.9825423985821236e-01  6.0073721506291244e-01  5.8996431034297026e-01  5.8995263944975351e-01  6.0071291212397981e-01  5.9825526682124319e-01  5.8993749036809484e-01  6.0064966889362248e-01  5.9826659203103383e-01  5.8993417305665663e-01  6.0060203650027355e-01  5.9829970789649156e-01  5.8996990044405306e-01  6.0059274660290074e-01  5.9837389776538219e-01  5.9006821735507919e-01  6.0064445592999516e-01  5.9850341229482140e-01  5.9024847269575409e-01  6.0078950236288986e-01  5.9869257980264401e-01  5.5591286061432299e-01  5.4705617993941480e-01  5.4205165921712872e-01  5.4204867978531046e-01  5.4705447268223417e-01  5.5590949764395448e-01  5.4204707727680235e-01  5.4705050358984242e-01  5.5588964898982196e-01  5.4205161168333449e-01  5.4705501063931794e-01  5.5587262174208252e-01  5.4206161151574261e-01  5.4707567744886931e-01  5.5587557588592307e-01  5.4207364770723221e-01  5.4712050016144154e-01  5.5591154743323823e-01  5.4209148049190203e-01  5.4718894305619104e-01  5.5599071421260893e-01  6.3501158385181034e-01  6.2570374162668552e-01  6.2570486094295308e-01  6.3500280639434259e-01  6.2571082892223673e-01  6.3498524901839060e-01  6.3496097316830025e-01  6.2572071533524132e-01  6.2573169544476326e-01  6.3493292352439568e-01  6.2573837842159696e-01  6.3490195292639084e-01  6.2265637700076570e-01  6.2572731470227672e-01  6.4187294607404910e-01  6.3963981904455414e-01  6.3960823432310421e-01  6.4186567733450040e-01  6.4186235656928425e-01  6.3953228429116549e-01  6.4188442915789901e-01  6.3946990752757626e-01  6.4196084800467068e-01  6.3945836413256241e-01  6.4212351060203421e-01  6.3953550431347295e-01  6.4238627504718204e-01  6.3977947363259846e-01  4.9339568004108764e-01  4.9062653882428059e-01  4.8225718538691165e-01  4.9065020176908886e-01  4.9343798268404088e-01  4.8225184622026979e-01  4.9327595008534181e-01  4.9054218764137453e-01  4.9249987013319535e-01  4.8987107366730132e-01  4.8198138077006769e-01  4.9006995820496574e-01  4.9270119495806980e-01  6.3158846989288042e-01  6.3161484817323488e-01  6.3166366725197709e-01  6.3174971269853586e-01  6.3187573373908335e-01  6.3204574367935207e-01  6.3226371947383597e-01  5.6668641937174880e-01  5.6468744744280197e-01  5.5409157789336583e-01  5.5407913853177637e-01  5.6469965028200808e-01  5.6667457732305582e-01  5.6472720413593447e-01  5.6666054399367605e-01  5.5404818796510269e-01  5.6476179492992784e-01  5.6665128003429899e-01  5.5401190046853432e-01  5.6479749578985750e-01  5.6665114632533153e-01  5.5398307550639692e-01  5.6482958220547586e-01  5.6666561813241678e-01  5.5397405463311522e-01  5.6669989412873933e-01  5.6485317746675712e-01  5.5399421311445241e-01  6.0259848825790929e-01  5.9868375599055657e-01  5.9870100535287341e-01  6.0260948861718666e-01  5.9874501252421231e-01  6.0262992341331634e-01  5.9879767742225110e-01  6.0265360793974998e-01  5.9885118762504530e-01  6.0267642626232953e-01  5.9890018647165866e-01  6.0269906091514736e-01  5.9893881180079478e-01  6.0273065562916162e-01  5.5446921918051351e-01  5.4240396963391801e-01  5.4241405808700127e-01  5.5449382525874169e-01  5.5455474098657764e-01  5.4244834241194517e-01  5.5462631460782086e-01  6.1612905250930283e-01  6.1612383082453226e-01  6.1611864593909493e-01  6.1610224453969997e-01  6.1606477518323588e-01  6.1599500061932999e-01  6.1588555200379236e-01  6.0223129731816782e-01  5.9539555784509757e-01  5.9227239980548663e-01  5.9229551238595113e-01  5.9541025140026016e-01  6.0222072022843853e-01  6.0220409101471550e-01  5.9545709662877033e-01  5.9235105538626187e-01  6.0218778325916700e-01  5.9551957691954505e-01  5.9242395248638358e-01  5.9250742191245975e-01  5.9558639598675889e-01  6.0217470140682039e-01  5.9259708782272036e-01  5.9564763750865402e-01  6.0217283661887466e-01  5.9267699590934653e-01  5.9569643726865174e-01  6.0221928610974618e-01  5.2062980122050029e-01  5.1076796316256523e-01  5.0883487735547428e-01  5.0875187188581583e-01  5.1070445907977269e-01  5.2059045426465644e-01  5.1053772395620967e-01  5.2050586397255016e-01  5.0856176952911880e-01  5.0991855094651617e-01  5.0015077003058273e-01  5.1481217803068358e-01  5.1477568469373214e-01  5.0010565841400334e-01  5.0987372516890728e-01  4.9995778792045398e-01  5.0975127091300443e-01  5.1467634661191786e-01  5.0957911592170768e-01  4.9974698187500743e-01  5.1453730075890691e-01  5.0939283119922441e-01  4.9950814625839074e-01  5.1439027123122583e-01  5.0923198140018033e-01  4.9928369804387152e-01  5.1427060470856301e-01  5.0913988693938306e-01  4.9914168815794724e-01  5.1420995682300052e-01  6.1736599438223227e-01  6.0624300790116525e-01  6.1027513476981843e-01  6.1028657296262756e-01  6.0623831611822743e-01  6.1736418087748623e-01  6.1031464897889010e-01  6.0621757741785354e-01  6.1735441335253516e-01  6.1034106844093816e-01  6.0619371397882138e-01  6.1733060823490282e-01  6.1035361513088005e-01  6.0616546717653275e-01  6.1728631897245634e-01  6.1034065207328914e-01  6.0613642307051463e-01  6.1721266961448418e-01  6.1028635166192868e-01  6.0612909621792099e-01  6.1709312721282750e-01  5.2861887698175758e-01  5.3668873731802347e-01  5.3669701653302138e-01  5.2865976499589518e-01  5.3676365377267410e-01  5.2876691241610330e-01  5.3684865579971519e-01  5.2890352005177466e-01  5.3692690477557692e-01  5.2903566831371385e-01  5.3696992454186110e-01  5.2912782920480961e-01  5.3692600618752873e-01  5.2913064140545962e-01  6.0480670240415912e-01  6.0968252366689790e-01  5.9704978893659721e-01  5.9706205187555494e-01  6.0968705437486126e-01  6.0482322211869521e-01  5.9710624532699386e-01  6.0971452293816186e-01  6.0487615662263616e-01  5.9717885518650815e-01  6.0976900135664736e-01  6.0495831489439400e-01  5.9727516409684889e-01  6.0985231253749450e-01  6.0506098342225811e-01  5.9739295068176390e-01  6.0997090488830474e-01  6.0518023921773345e-01  5.9753381375240933e-01  6.1013539104490389e-01  6.0530784699038409e-01  6.6973340581220453e-01  6.6939749361058754e-01  6.5932302644516882e-01  6.5930308128684401e-01  6.6937686961380893e-01  6.6972749694044087e-01  6.5926664567844051e-01  6.6933123497311109e-01  6.2859002029898547e-01  6.1873927747160107e-01  6.1806738511353743e-01  6.1807194384364572e-01  6.1873738888050756e-01  6.2855872697797865e-01  6.1809881755585283e-01  6.1874306207022922e-01  6.2848636696399240e-01  6.1815306056156638e-01  6.1877306194501347e-01  6.2841917196601704e-01  6.1824427699707130e-01  6.1884477816906114e-01  6.2839297673316818e-01  6.1838592902021994e-01  6.1897489322986043e-01  6.2844384829524846e-01  6.1858209581754542e-01  6.1917276622524720e-01  6.2863563250743026e-01  5.4357817397523023e-01  5.4327385384878346e-01  5.3159946083485132e-01  5.3156562073044722e-01  5.4324768390258915e-01  5.4354762104887766e-01  5.3148106184642063e-01  5.4318221927350208e-01  5.4347236912107122e-01  5.3137008395050778e-01  5.4309986490461426e-01  5.4338059294732477e-01  5.3126135221826087e-01  5.4302081695542626e-01  5.4329726102448717e-01  5.3118197328677208e-01  5.4296411386757615e-01  5.4324671395444368e-01  5.3115324056376689e-01  5.4294874491018563e-01  5.4325536581865241e-01  6.0548985515890985e-01  5.9593224325304983e-01  5.9310891968725699e-01  5.9312481381437376e-01  5.9594856788266437e-01  6.0549576522543913e-01  5.9316783546103780e-01  5.9599224819922714e-01  6.0551825176800500e-01  5.9322422472797010e-01  5.9605150972713195e-01  6.0554990541277887e-01  5.9328120358508418e-01  5.9611504999696274e-01  6.0558399346428760e-01  5.9332685443595956e-01  5.9617159132094921e-01  6.0561476837931216e-01  5.9334791416654464e-01  5.9620760639977399e-01  6.0563771123596133e-01  5.5403654410217174e-01  5.5400661901424286e-01  5.5397397843424645e-01  5.5394204840591510e-01  5.5392326092570443e-01  5.5392917426349209e-01  5.5396067906828317e-01  6.0814608457901376e-01  6.0599479474266738e-01  6.0601093844377585e-01  6.0813873933619855e-01  6.0605214882618463e-01  6.0812677079502353e-01  6.0612217144447511e-01  6.0813351548172689e-01  6.0622789062217342e-01  6.0818013367480139e-01  6.0637622157124949e-01  6.0828679248851558e-01  6.0657923163302585e-01  6.0849298636124372e-01  5.3010410601764202e-01  5.3007606321307932e-01  5.3000393842878379e-01  5.2990539895736921e-01  5.2980284994452242e-01  5.2971725823631599e-01  5.2966860431056295e-01  5.6445686690678842e-01  5.5021719170925232e-01  5.5823876540015449e-01  5.5821678983740841e-01  5.5019212875015966e-01  5.6445124417309167e-01  5.5816921219453197e-01  5.5012408430414028e-01  5.6443061100848102e-01  5.5812204801795540e-01  5.5004607230725155e-01  5.6441278356162206e-01  5.5809040436414836e-01  5.4998574004806189e-01  5.6441254217461445e-01  5.5808661259001757e-01  5.4996723510404555e-01  5.6444204039183421e-01  5.5812998371174316e-01  5.5001106709719783e-01  5.6450476773509550e-01  6.0499844823172777e-01  5.9785739710548780e-01  5.9272163856128313e-01  5.9275949238615855e-01  5.9790873735906702e-01  6.0504575496039525e-01  5.9287903207892667e-01  5.9805071072565252e-01  6.0515251911785450e-01  5.9304059755476146e-01  5.9824151204507803e-01  6.0529926026828773e-01  5.9322439477158373e-01  5.9845444594550479e-01  6.0547092580786432e-01  5.9341029722501404e-01  5.9866369275372888e-01  6.0565292429596185e-01  5.9357059227382181e-01  5.9881011792671024e-01  6.0583194461006629e-01  6.3578895682652126e-01  6.3578101117326768e-01  6.3575445385675722e-01  6.3572389090685066e-01  6.3570144217132540e-01  6.3569977323014271e-01  6.3573674235862376e-01  5.1368846457372930e-01  5.0464260009096451e-01  5.0072596780039269e-01  5.1370969025669699e-01  5.0470191007698173e-01  5.0077553887454107e-01  5.1377969945074597e-01  5.0482128183578123e-01  5.0087996691531100e-01  5.1388164498167554e-01  5.0497971720889823e-01  5.0101399791884793e-01  5.1399085460850513e-01  5.0515982913474955e-01  5.6574181900546017e-01  5.7227487814516786e-01  5.7226680743290903e-01  5.6572936044767419e-01  5.7226215532166724e-01  5.6571155895651282e-01  5.7226751290315503e-01  5.6569661953212858e-01  5.7228718753294172e-01  5.6569560510249028e-01  5.7232401153470491e-01  5.6571825657792052e-01  5.7238315970356513e-01  5.6577551490260425e-01  5.7331278645407480e-01  5.7333353788668651e-01  5.7339808257075675e-01  5.7348721813742698e-01  5.7357921302543124e-01  5.7365419448567190e-01  5.7369024496510690e-01  5.5693371984275097e-01  5.5690586839443545e-01  5.5684732057566177e-01  5.5678587445857297e-01  5.5674478213114598e-01  5.5674471747576915e-01  5.5680285125960938e-01  5.6341999907232776e-01  5.6340607162897482e-01  5.6338607282072506e-01  5.6337472131753852e-01  5.6337251377753084e-01  5.6338240976607501e-01  5.6341566031087464e-01  5.6176596488702768e-01  5.5292013456898903e-01  5.8062600392356789e-01  5.8063707532650133e-01  5.8065884842395077e-01  5.8069868382136103e-01  6.2871258929628548e-01  6.2868883817144783e-01  6.2864608387773446e-01  6.2861202780077263e-01  6.2861325083472241e-01  6.2868295915424532e-01  6.2886299017492786e-01  5.5963252975695821e-01  5.5958737468293940e-01  5.5946816285080414e-01  5.5934298653380687e-01  5.5924398986173751e-01  5.5920221679215820e-01  5.5928347262219613e-01  5.5165435935954166e-01  5.4030819048599199e-01  5.5375187454531127e-01  5.5373918103958630e-01  5.4028314961564228e-01  5.5165235696295367e-01  5.5370492651070646e-01  5.4022248008173834e-01  5.5164235370900472e-01  5.5366364352227349e-01  5.4014183706987895e-01  5.5162390061687894e-01  5.5362338923829613e-01  5.4005664230382733e-01  5.5159810846910151e-01  5.5359334560475393e-01  5.3998190528009193e-01  5.5156630343396640e-01  5.5358705812582854e-01  5.3993470568114577e-01  5.5152977017484484e-01  5.6907723733925142e-01  5.6909337135113303e-01  5.6914324690771634e-01  5.6920802228492851e-01  5.6928188131434854e-01  5.6935791731174612e-01  5.6941964155581581e-01  4.9488085980869245e-01  4.8125522482235866e-01  4.8591821657363132e-01  4.8587475508460465e-01  4.8121133468997734e-01  4.9483575390324219e-01  4.9470969987458080e-01  4.8106547137316952e-01  4.8572811067262284e-01  4.9452340547568452e-01  4.8085778524929124e-01  4.8551423358803980e-01  4.9430629503496470e-01  4.8060632894451782e-01  4.8525427944954230e-01  4.9409012136896807e-01  4.8031796841003244e-01  4.8496459364842076e-01  4.9391057679417910e-01  4.8003065917894028e-01  4.8469847280128991e-01  5.1517911881976108e-01  5.0338877744007915e-01  5.0299603625248535e-01  5.0295472995922808e-01  5.0335838578263581e-01  5.1514286418154587e-01  5.0326602073429338e-01  5.1504356366283688e-01  5.0283488527379050e-01  5.1490309117291455e-01  5.0312863022485710e-01  5.0266323419984982e-01  5.1474271297646246e-01  5.0296637229880314e-01  5.0246659199958821e-01  5.1458470553578417e-01  5.0279838185020731e-01  5.0227623642604380e-01  5.1445513549895028e-01  5.0264699981946925e-01  5.0212513092682587e-01  6.5631716955439556e-01  6.5096778145884349e-01  6.6270421011416203e-01  6.6271653027157484e-01  6.5090842819491379e-01  6.5632106158221637e-01  6.5635894688300400e-01  6.5080731657030211e-01  6.6276477896716846e-01  6.5643375290659189e-01  6.5072649653929493e-01  6.6284284566481355e-01  6.5655697260200585e-01  6.5070398841567989e-01  6.6296779278928086e-01  6.5077981597649237e-01  6.5673970274848870e-01  6.6315015903011443e-01  6.5699576783746783e-01  6.5099920717583060e-01  6.6337495976143146e-01  5.9464823325380034e-01  5.8400503257701208e-01  5.8401776952291584e-01  5.9466421139593806e-01  5.9471403065277617e-01  5.8405012232506148e-01  5.9477597114366654e-01  5.8409112010017783e-01  5.9483802108843298e-01  5.8413089033012411e-01  5.9488858429787062e-01  5.8416117649011545e-01  5.9491038256620554e-01  5.8417597652334174e-01  5.9250250177323316e-01  5.9252084608836031e-01  5.9257599263156258e-01  5.9265095843333093e-01  5.9273263158977973e-01  5.9280714841188697e-01  5.9285618452369859e-01  5.1624205097961784e-01  5.0491880362057251e-01  5.0760909175375368e-01  5.1619422833778061e-01  5.0487181326840502e-01  5.0757221702453692e-01  5.1607123163090873e-01  5.0473651185837765e-01  5.0746256686177749e-01  5.1590567295836309e-01  5.0454248096179100e-01  5.0730447399063261e-01  5.1573155756769684e-01  5.0432431206901174e-01  5.0712542997994936e-01  5.1558474567333490e-01  5.0412134164734190e-01  5.0695593866634181e-01  5.1551070027514123e-01  5.0399120709969147e-01  5.0683216412533438e-01  6.0902983353677975e-01  6.0902746422907206e-01  6.0898918358423293e-01  6.0896990301704979e-01  6.0899144138365580e-01  6.0907310915338864e-01  6.0924242312366383e-01  5.2383288196171052e-01  5.2378792122332729e-01  5.2367522198693894e-01  5.2558079165606775e-01  5.1545161574471499e-01  5.1812475798681301e-01  5.1807402576791561e-01  5.1539298962721802e-01  5.2553873562649622e-01  5.2541887746682159e-01  5.1525078781640654e-01  5.1794245313056697e-01  5.1506219643182083e-01  5.2526219446008171e-01  5.1777264354161978e-01  5.2510639501825174e-01  5.1486069293620929e-01  5.1760176195992447e-01  5.2498787939575842e-01  5.1468258162994474e-01  5.2053001142743183e-01  5.0945366459778174e-01  5.0807447113921222e-01  5.2049522180588292e-01  5.0944543705203593e-01  5.0805558906334525e-01  5.2041194131759472e-01  5.0939950693638614e-01  5.0798243179030445e-01  5.0933136829247194e-01  5.2031044777803037e-01  5.0787402619719058e-01  5.0925112911775394e-01  5.2019551591512825e-01  5.0775028984476689e-01  5.2007702230290376e-01  5.1999323667947572e-01  6.1638471816241003e-01  6.0811198485078755e-01  6.0811930658727820e-01  6.1638764600253049e-01  6.1638602479054494e-01  6.0813577997105550e-01  6.1637494861271014e-01  6.0815014102264131e-01  6.1634832029043785e-01  6.0815692127980825e-01  6.1629900736156107e-01  6.0815250784691266e-01  6.1621937653072378e-01  6.0813210280029928e-01  6.2310147462572119e-01  6.2309005169343112e-01  6.2305679517844725e-01  6.2300318701623947e-01  6.2292430151886391e-01  6.2281636490624115e-01  6.2268055374208264e-01  5.4677782150791709e-01  5.4675962277925705e-01  5.4670747959541000e-01  5.4665283177988644e-01  5.4659978050995395e-01  5.4655266776774125e-01  5.4656035825511973e-01  6.5106456488705511e-01  6.5102456210439286e-01  6.5092909973678703e-01  6.5084575777448517e-01  6.5082174122605796e-01  6.5089655936760471e-01  6.5112194291656600e-01  5.8516549127470252e-01  5.8518531605271085e-01  5.8523471766244906e-01  5.8529769072190807e-01  5.8535923560107017e-01  5.8540479437150650e-01  5.8542062087174807e-01  5.8545710381428850e-01  5.8547100736296875e-01  5.8551679942658397e-01  5.8557978018052714e-01  5.8564947782964361e-01  5.8571386441926843e-01  5.8576151215663808e-01  6.2661100839566064e-01  6.2657802806773411e