<?xml version="1.0"?>
<VTKFile type="UnstructuredGrid"  version="0.1"  >
<UnstructuredGrid>
<Piece  NumberOfPoints="2082" NumberOfCells="9450">
<Points>
<DataArray  type="Float64"  NumberOfComponents="3"  format="ascii">4.755963811952966 3.55320928867869 3.144393419384071  4.823007902742329 3.555106341630957 3.256487652765234  4.893408661389307 3.603591711770878 3.128850266462325  4.874868056987044 3.665663882403504 3.139709546193596  4.801019433433549 3.616971478171557 3.270655166191208  4.733919969620834 3.612866108831938 3.156485794165069  4.856435953334105 3.727834769923489 3.150812713509319  4.779232149795428 3.678945777122737 3.285087405764902  4.712101490424113 3.672682078890457 3.168881859438726  4.838000626649798 3.790124404057205 3.162024149145082  4.757472199755759 3.741022517707266 3.299613033595397  4.690280725855395 3.732667567089998 3.181350770002287  4.819492048211599 3.852500976423631 3.173220106109538  4.735635089472883 3.803163917499305 3.31412535642938  4.668347070175083 3.792778723417174 3.193783467648143  4.800857293718729 3.914917367703012 3.184300195057684  4.713635193831054 3.865318835747629 3.328532429118347  4.646207149392318 3.852960141051493 3.206090598904638  4.782066214560719 3.977317500786588 3.195179943447914  4.691397741995742 3.927412837355647 3.342751538538561  4.623758330655575 3.913130821149139 3.218186272403378  5.141563786684137 3.607884958165014 3.454101691302056  5.131607342116907 3.632093277006738 3.318290031878065  5.034061699394991 3.600039508988027 3.35168706989639  5.015075259735809 3.666329458205038 3.367088171994258  5.118240100753837 3.700374677759064 3.331174099472396  5.127120676155678 3.676424044843346 3.476569684830307  4.996238644968346 3.732527438912947 3.382704890668565  5.104834610466369 3.768553401121352 3.344321149277741  5.112674330468192 3.744825674673646 3.499198148441698  4.977435780583378 3.798690728058967 3.398413335253037  5.091420066725593 3.836723916054514 3.357559764078015  5.098228287823832 3.813176513773776 3.521878809410847  4.958612864066199 3.864838438458762 3.414116663213687  5.078002514346644 3.904904835865461 3.370780748391535  5.083789858987656 3.881492105238701 3.544536830902548  4.939730956992913 3.930944200712113 3.429736259819717  5.064588047457876 3.973068578380451 3.383903837440273  5.06936089540826 3.949751355451172 3.56711351227702  4.920755354417397 3.996957330771687 3.445215012390612  5.051188904225163 4.041156424271324 3.396858541613056  5.054945715052977 4.017916725079623 3.589557762523545  5.720347992844976 3.826796146931615 1.886077201466327  5.806583019191011 3.854421136791074 2.02195686841703  5.844748923161091 3.868043621368463 1.890458271661159  5.822407875106803 3.929421582348277 1.885741491165079  5.782063110922714 3.913042755695916 2.022527458904389  5.699259898922955 3.888643789889562 1.884107108847859  5.800413545330214 3.991108500840638 1.880886520499858  5.757863397661137 3.972066691355431 2.023004902997647  5.678458264204282 3.950848401921297 1.881984508684221  5.778527954554974 4.053002277878773 1.87595975212305  5.733735295330242 4.031395138303977 2.023438990853864  5.657719962393249 4.013329018849689 1.879796099278702  5.756574290363064 4.115039113589663 1.871038938640301  5.709496580552551 4.090938281862366 2.023903721333174  5.63687485596162 4.076058113086777 1.877635368296881  5.734416551590543 4.177160160692333 1.866189116335573  5.684969130886293 4.150628773730016 2.024470152911679  5.61574591094383 4.13903302613814 1.875592713633348  5.711913845365187 4.23930759525157 1.861463614401032  5.659920163350006 4.210397463308258 2.025213336134686  5.594146706867406 4.202213845138335 1.873748808674332  4.719854099546744 3.697126351293713 2.09849458791518  4.649689348900099 3.678399343705731 2.243586191941718  4.773863781987311 3.689342927998752 2.19281153169982  4.773510806712225 3.750545181535811 2.198502613381345  4.646027468856695 3.739412322503009 2.252382788192726  4.720224526628498 3.759633250592431 2.103998043311728  4.773124897784905 3.812103058446992 2.204223706002681  4.642418119247194 3.800744227032163 2.261191287162744  4.720567706374075 3.822476484853714 2.109451121023376  4.772762840855648 3.87401715022891 2.210006801916794  4.638861182213087 3.862430516255344 2.270062576778237  4.720963115948114 3.885664779573323 2.114954135883177  4.772459357344665 3.936294618721239 2.215862095548029  4.635353651440987 3.924470560354147 2.279043015205787  4.721454036772113 3.949207092287867 2.120547107749385  4.772255959982823 3.998947598142939 2.221807107705724  4.631886708740599 3.986859082087508 2.288160035965204  4.722078712378764 4.013109336743559 2.1262696065251  4.772204963804291 4.061964286518846 2.227867757185061  4.628415834061511 4.049602128611805 2.297408952512173  4.722841575247744 4.077397853357831 2.132172078005885  4.784144980621432 3.485671612285435 3.45687335956238  4.841071317280245 3.462078614843557 3.566219359931563  4.916214723402724 3.517965661338521 3.487063138971584  4.894636322088134 3.58213410495681 3.511649608454082  5.511746720712249 3.642158910153803 1.274720927133771  5.547195075612395 3.706789264963342 1.415106885313266  5.647981529105828 3.69081367065596 1.330207491246554  5.637616154037612 3.756809407915922 1.300890941095809  5.536965766305884 3.774235567436456 1.393210506199743  5.504360502601066 3.707757799714418 1.242735107273603  5.52689319765313 3.841673614457259 1.370962370810803  5.497083476933717 3.773160249614809 1.21041850308709  5.627450351996432 3.822695209821706 1.271290131017023  5.516939844734253 3.909176297902279 1.348587702071125  5.489918521090493 3.838531166034453 1.178005972026615  5.617396013382316 3.888574649333648 1.241615696370247  5.482804745846816 3.903937599881278 1.145594901032641  5.507021834984534 3.976801191114895 1.326205945909035  5.607389578129764 3.954500208470895 1.211941172903297  5.475672242245147 3.96941183776786 1.113241981560179  5.497059631335339 4.044579635535294 1.303910097306737  5.597350833413636 4.020506801413337 1.182302862358418  5.468487919000236 4.034977085356075 1.081025996214408  5.486976398039687 4.112569608272571 1.281785971298938  5.587158046067922 4.086608119342749 1.152745247762773  5.843173441582264 3.636861845221132 1.199928445144739  5.867650332083743 3.71964657481699 1.328893038572687  5.953136680305652 3.68859916693397 1.249672572048406  5.946350143530421 3.746804237168756 1.205867429035095  5.857559152726245 3.782210205038515 1.293482341415928  5.837562182832313 3.695271645649315 1.154922723696491  5.832002548074215 3.753504195289158 1.109846835303994  5.847655824315559 3.844632726403006 1.257995856737707  5.93965258024948 3.804857363778451 1.16204483470532  5.826525541102562 3.811641956657087 1.064784255029227  5.837873388709112 3.906994615604082 1.222494153827313  5.933057067708574 3.862838017291516 1.118235676330727  5.828156154130829 3.969332769964452 1.18698930439921  5.82111995727112 3.869729696095095 1.019749958167865  5.926536261872906 3.920770242875901 1.074438294404144  5.818457905477095 4.031649953816173 1.15150922392565  5.815757987186654 3.92778838449404 0.9747309367179673  5.92008049026597 3.978675450794352 1.030645617220133  5.808735050216717 4.093944136441008 1.116062291562558  5.810426553555362 3.985837889847273 0.9297442296416958  5.913655927013704 4.036557171923787 0.986873918700422  5.503816972730406 3.717745363490922 2.446694785063803  5.608876105370785 3.753622772771769 2.329880235840471  5.475060755578077 3.720138047809851 2.324768893597981  5.46316265760479 3.778037997413046 2.328494914240889  5.591216155660037 3.810208239556239 2.335248452937499  5.492629250691381 3.775703699126632 2.450275699188259  5.48151216689492 3.83387227392096 2.453987056365051  5.573726683345972 3.867168672328784 2.340654975647356  5.451324847591845 3.836300534791802 2.332304486002881  5.470332435309651 3.892379048185086 2.457747531513054  5.556184580138972 3.924445182062482 2.346113330518509  5.439428264594548 3.894896545693953 2.336171609523839  5.538491619331985 3.982020471717504 2.351597708200103  5.459021590550446 3.95127805952368 2.461525646150141  5.427415743970467 3.953902475649028 2.340066515079156  5.520542130513414 4.040031866005188 2.357139304854186  5.447568455190455 4.010649953934611 2.465275325420519  5.415254841554984 4.013385387946191 2.344005843177225  5.502149290133665 4.098618274431161 2.362833189573159  5.436041137504592 4.070716606904687 2.46899353617808  5.402841018197978 4.073551769840385 2.34798261690842  5.141846657912321 3.665971703260448 3.046885086779868  5.123808410043225 3.652131364840413 3.199740957476425  5.220586764512992 3.667750110694033 3.146750609073546  5.213889458552988 3.734802394298384 3.153237101306836  5.112301649035835 3.719035913324348 3.208946441955603  5.1333188427127 3.730974515801723 3.051155778784976  5.100705401615745 3.785964491701702 3.218453314399533  5.124659150727254 3.7960738056715 3.055719868000291  5.206978165518203 3.801928768158593 3.160045718345202  5.089080352995 3.852960880831647 3.228061596087005  5.115968540756288 3.861327667680671 3.06037790931956  5.200031531583803 3.869170200481841 3.166932026555998  5.07744963836163 3.920019028536302 3.237643722463416  5.107279603084974 3.926720993411085 3.064998552949237  5.193104450632705 3.936516741698731 3.173778246348113  5.06582431853546 3.98710790163361 3.247103844777592  5.09861869795444 3.992219355594718 3.069461260510736  5.186247877788747 4.003939748282669 3.180479428261002  5.090009707744787 4.057757984175857 3.07365807203241  5.054239822769903 4.054180175667316 3.256346999759104  5.179528188107484 4.071390739997454 3.186936999049807  4.957443713818196 3.599619236230561 3.247014712570776  5.053124099668478 3.625618449421543 3.244921279098925  5.029571202844509 3.641536031203499 3.121576171177958  5.01499900844974 3.705873672330455 3.129904769544825  5.035971669594482 3.691072257710428 3.257250285499532  4.938886157812393 3.663803898495969 3.259883873244601  4.920455928132759 3.728015374252478 3.2
[...]
<PointData  Scalars="f_14"> 
<DataArray  type="Float64"  Name="f_14"  format="ascii">6.1949414709388517e-01  6.1201308249076647e-01  6.0687590955246429e-01  6.0687105331182056e-01  6.1201456427066414e-01  6.1950211902174568e-01  6.0685562922086622e-01  6.1202200855874744e-01  6.1952519220140922e-01  6.0681046950406992e-01  6.1200741860306362e-01  6.1953558899971006e-01  6.0671617485925222e-01  6.1194082511971271e-01  6.1949796131012869e-01  6.0655659308210474e-01  6.1179475783649229e-01  6.1937967013212802e-01  6.0632031288128652e-01  6.1154976919635073e-01  6.1915129292229443e-01  5.8156795112592619e-01  5.8358092825172403e-01  5.9218176527252453e-01  5.9221599250524215e-01  5.8358260443409182e-01  5.8159998420332815e-01  5.9230716392392146e-01  5.8357049546215845e-01  5.8162065529848039e-01  5.9238240133353559e-01  5.8353189667396654e-01  5.8161148241508032e-01  5.9239935364697338e-01  5.8345484696583971e-01  5.8156347846143730e-01  5.9232310453113546e-01  5.8332991758633468e-01  5.8147249590325500e-01  5.9211980582084034e-01  5.8316001095069125e-01  5.8135342520612565e-01  5.4491871014745419e-01  5.3691779383998761e-01  5.3336042825196806e-01  5.3337052578213007e-01  5.3695095705747331e-01  5.4492656816647911e-01  5.3337406020877798e-01  5.3699593082506392e-01  5.4495969777086595e-01  5.3338527728120733e-01  5.3705130164284964e-01  5.4500413820324300e-01  5.3340266823833316e-01  5.3709867838077241e-01  5.4504172089192582e-01  5.3342908127656019e-01  5.3712032155354250e-01  5.4505441340949645e-01  5.3347910632617279e-01  5.3711285217814209e-01  5.4503208914510071e-01  6.3278794537113836e-01  6.3836351406649927e-01  6.2693041313158282e-01  6.2692560851798473e-01  6.3840546887272864e-01  6.3281083846095421e-01  6.2693409581352832e-01  6.3851820371376178e-01  6.3289355010584125e-01  6.2696834494223275e-01  6.3869233716888629e-01  6.3302452044829527e-01  6.2704693058166650e-01  6.3891888595447799e-01  6.3321182396833875e-01  6.2718441396549962e-01  6.3919111842320264e-01  6.3346086237919264e-01  6.2738500696016475e-01  6.3949529006456429e-01  6.3376151981605444e-01  6.1315404633436899e-01  6.0707379504776704e-01  6.0135801762356134e-01  6.0136012310178122e-01  5.6620259463661782e-01  5.6227444405418003e-01  5.5326846854932787e-01  5.5331555824040379e-01  5.6228659728090302e-01  5.6623305608450580e-01  5.6232700126494606e-01  5.6630204121122374e-01  5.5343490339891876e-01  5.6238212406870181e-01  5.6638582571588281e-01  5.5357754985292162e-01  5.6646774337496142e-01  5.6244087370236873e-01  5.5372333102483562e-01  5.6653188995667136e-01  5.6249994381885648e-01  5.5384761583792819e-01  5.6657287826724800e-01  5.6257094762433679e-01  5.5389548019689305e-01  5.3534795625169052e-01  5.3266938015576215e-01  5.2477627742138711e-01  5.2478185087698492e-01  5.3269964790207391e-01  5.3536229875867181e-01  5.3539643934904801e-01  5.3279863870466027e-01  5.2484286385908852e-01  5.3545343937182832e-01  5.3293759495852433e-01  5.2493982593081823e-01  5.3310268456658760e-01  5.3553356161102872e-01  5.2507372948878939e-01  5.3328297011567616e-01  5.3563307010476902e-01  5.2524329851763785e-01  5.3347031510626775e-01  5.3575683450734723e-01  5.2542742282831723e-01  5.6056259614013249e-01  5.5310233140698450e-01  5.6405570449619991e-01  5.6403389129721104e-01  5.5310755409467161e-01  5.6051865025054248e-01  5.6039580222501428e-01  5.5307528656486116e-01  5.6397485291897032e-01  5.6022705648278681e-01  5.5302796369630924e-01  5.6388915205039558e-01  5.5296688320876053e-01  5.6004113469551142e-01  5.6378833990456800e-01  5.5288835462059827e-01  5.5987643936299758e-01  5.6368569645459987e-01  5.5280059773959178e-01  5.5981688232607640e-01  5.6359713145415513e-01  5.8491762386876789e-01  5.8516315168886668e-01  5.7702363639627208e-01  5.7696574382432830e-01  5.8513095490155753e-01  5.8488569164395299e-01  5.8505701435801616e-01  5.8479506393279779e-01  5.7680827484136221e-01  5.8495025914183740e-01  5.8466274591425604e-01  5.7660505306883891e-01  5.8481038463983914e-01  5.8450405363606894e-01  5.7638723689418692e-01  5.8463747038475666e-01  5.8432940728097271e-01  5.7618218750874139e-01  5.8414112902496618e-01  5.8443704538683228e-01  5.7602297920174750e-01  5.9991314621702274e-01  5.9137619235095140e-01  5.9443062862204277e-01  5.9444623778079386e-01  5.9142247162432138e-01  5.9990772456743924e-01  5.9989129184186751e-01  5.9151903675809847e-01  5.9445068049975569e-01  5.9984889256470064e-01  5.9159066921247316e-01  5.9442305281614261e-01  5.9434889553906356e-01  5.9160707063351958e-01  5.9975586720393059e-01  5.9421241884052167e-01  5.9154087483004592e-01  5.9959094044140870e-01  5.9399470121953923e-01  5.9134558539757087e-01  5.9933781698456856e-01  5.1992027949786579e-01  5.1743708637082120e-01  5.2698522496925737e-01  5.2698751608099847e-01  5.1745709821120034e-01  5.1991827361267651e-01  5.1993154109895645e-01  5.1750694866440761e-01  5.2699781222967146e-01  5.1995231211859116e-01  5.1756799880494231e-01  5.2701177713484670e-01  5.1996997821964475e-01  5.1761024962630775e-01  5.2702505500385888e-01  5.1995544069135236e-01  5.1758900581614453e-01  5.2702713675139390e-01  5.1742380441666225e-01  5.1985246848012934e-01  5.2698233714355280e-01  6.5476619506236056e-01  6.4368502324849663e-01  6.4277485933702294e-01  6.4279303380995723e-01  6.4369641250949672e-01  6.5481554092580263e-01  6.4286422897206552e-01  6.4373713896967977e-01  6.5496651579041032e-01  6.4297141734378727e-01  6.4379570873425773e-01  6.5517465705361100e-01  6.4308542879992736e-01  6.4383883540403430e-01  6.5540160297567085e-01  6.4317284657325013e-01  6.4383180184318289e-01  6.5559879236621599e-01  6.4320150295524936e-01  6.4376102155968917e-01  6.5568534831344161e-01  6.1504449255871285e-01  6.1503160643482224e-01  6.1502012333364608e-01  6.1499065530860897e-01  6.1491537271213881e-01  6.1477018916303339e-01  6.1453855113868439e-01  5.5923928226468955e-01  5.4874193600765464e-01  5.5858730636156717e-01  5.5855010365353608e-01  5.4872013237519912e-01  5.5919871938777177e-01  5.5843881663487993e-01  5.4865610960923250e-01  5.5907664109732036e-01  5.5828392427372564e-01  5.4856199316053178e-01  5.5890775464986076e-01  5.5812369521239613e-01  5.4847064147280389e-01  5.5873736791050332e-01  5.5801977234435662e-01  5.4843916221736533e-01  5.5862316190488337e-01  5.5807065834562419e-01  5.4856692540712881e-01  5.5864471936068172e-01  6.5731822582628607e-01  6.6044371345153363e-01  6.4883383047353160e-01  6.4884054836867933e-01  6.6044731626374475e-01  6.5734428237961717e-01  6.4887786319557117e-01  6.6047853666221235e-01  6.5742988402643632e-01  6.4892358973941733e-01  6.6051842512283876e-01  6.5754490073070726e-01  6.6052971774520497e-01  6.5764407769977351e-01  6.4894044622845759e-01  6.6046445153735700e-01  6.5766653579157952e-01  6.4888305779653443e-01  6.6028023970691319e-01  6.5753454355130669e-01  6.4869933479765418e-01  5.4487329586101352e-01  5.3608847586653330e-01  5.4244285333311959e-01  5.4241586430095734e-01  5.3604396545686750e-01  5.4485173303586598e-01  5.4233685698516587e-01  5.3593189473415526e-01  5.4475255838230929e-01  5.4223278328143087e-01  5.3579113358178621e-01  5.4462090941124963e-01  5.4215332982937503e-01  5.3567108338458080e-01  5.4451972315969910e-01  5.4217329689823202e-01  5.3565005014982248e-01  5.4452877033303049e-01  5.4239099061952001e-01  5.3588721489882107e-01  5.4475805197363492e-01  6.2927980046278775e-01  6.2003022220610315e-01  6.3277563016411309e-01  6.3277883203881435e-01  6.2003686355442789e-01  5.2258508888306332e-01  5.2970788071474273e-01  5.2969750283360195e-01  5.2257141579921051e-01  5.2965920557970936e-01  5.2253547572183889e-01  5.2960275676742707e-01  5.2248722738025255e-01  5.2954810105266525e-01  5.2244207998014469e-01  5.2952201764852636e-01  5.2243293949460368e-01  5.2960941809145556e-01  5.2256267547791968e-01  6.5354848060322879e-01  6.5354974765048879e-01  6.5357609804266670e-01  6.5360556534014325e-01  6.5360099561706786e-01  6.5351633136618703e-01  6.5329163184699768e-01  5.0797345860375553e-01  5.1509283429925257e-01  5.0486713076381917e-01  5.1500300688016143e-01  5.0786570684503218e-01  5.0498888066963166e-01  5.0808492528629556e-01  5.1519596306935489e-01  5.0511763537355392e-01  5.0817667836904001e-01  5.1530259375115617e-01  5.0524281618811673e-01  5.0822716466924489e-01  5.1541069129124528e-01  5.5194950889590733e-01  5.4226910190452005e-01  5.4228960985008923e-01  5.5196012668009631e-01  5.4236492547699366e-01  5.5200615698525446e-01  5.4246843834845215e-01  5.5207663830407949e-01  5.4258473854044686e-01  5.5215561516651701e-01  5.4269754884012489e-01  5.5223061040538357e-01  5.4279726209748225e-01  5.5228837138399067e-01  5.4620061752278215e-01  5.3665532604476518e-01  5.3707485456885751e-01  5.3709153058926762e-01  5.3667543395448780e-01  5.4620055565611791e-01  5.3713751190895509e-01  5.3669875609723527e-01  5.4616104407670596e-01  5.3719618044835638e-01  5.3672305876755477e-01  5.4610546249088265e-01  5.3725475938283795e-01  5.3675344565610494e-01  5.4604691166150066e-01  5.3729418307109233e-01  5.3679892508807869e-01  5.4601115226419616e-01  5.3725121162125000e-01  5.3687301891922434e-01  5.4607570179666076e-01  5.8255337586674483e-01  5.7129383026889402e-01  5.7417670104114227e-01  5.7419184953986135e-01  5.7132340177358831e-01  5.8258216624269821e-01  5.7420832032329105e-01  5.7138360304708291e-01  5.8262009813180404e-01  5.7423172697116509e-01  5.7145531382345449e-01  5.8266137580534050e-01  5.7425923414424296e-01  5.7153017214138335e-01  5.8270665623615658e-01  5.7428990958653003e-01  5.7160140142487015e-01  5.8276060677298791e-01  5.7433103777142447e-01  5.7165116111750369e-01  5.8283442125037521e-01  5.6964437121742117e-01  5.7323628811930427e-01  5.6225610968745399e-01  5.6225150390314127e-01  5.7320630683374796e-01  5.6962819300443102e-01  5.6223765476187093e-01  5.7312597747791005e-01  5.6959574089641873e-01  5.6221467078827025e-01  5.7301398315607821e-01  5.6955045206154942e-01  5.6217727393677519e-01  5.7288751705645435e-01  5.6948956927631289e-01  5.6211760393839361e-01  5.7276568939499528e-01  5.6940578114947549e-01  5.6200612342580392e-01  5.7268671333491883e-01  5.6928826308928748e-01  5.9328952449668559e-01  5.9335634696140827e-01  5.9351948385461928e-01  5.9367173273946872e-01  5.9376298226662061e-01  5.9375264653327886e-01  5.9359028850280238e-01  5.6082099625561321e-01  5.5046015169190710e-01  5.5042768967598954e-01  5.6078637394554087e-01  5.5033227028103970e-01  5.6068486508709070e-01  5.5020189575572531e-01  5.6054549640417850e-01  5.5008389264871060e-01  5.6041133065408955e-01  5.5004459798946381e-01  5.6032964206683100e-01  5.5018311493535621e-01  5.6034136032585147e-01  5.1805959695045045e-01  5.1804156514066391e-01  5.1493903445442424e-01  5.1808848277797837e-01  5.1811701136605437e-01  5.1813565647751048e-01  5.1814929974968593e-01  5.5950137967589697e-01  5.5282457649039862e-01  5.4965619678214583e-01  5.4966240531078425e-01  5.5283775937953594e-01  5.5949823671817411e-01  5.4969583304475400e-01  5.5286056841824804e-01  5.5950493341670360e-01  5.4973702429167282e-01  5.5288882087052904e-01  5.5951145592645057e-01  5.4976674787873669e-01  5.5290135904828663e-01  5.5950119207726934e-01  5.4976262371472784e-01  5.5287289076822332e-01  5.5944878919484120e-01  5.4970072865417718e-01  5.5276579542933535e-01  5.5933516560278762e-01  5.6800697147075285e-01  5.5710532617076469e-01  5.5710089627994785e-01  5.6802312024190715e-01  5.5711999819940627e-01  5.6807806054790733e-01  5.5714564074561757e-01  5.6814137763398143e-01  5.5715897572369522e-01  5.6819249025158092e-01  5.5713499276988865e-01  5.6820239497667435e-01  5.5705487339186432e-01  5.6811243180523141e-01  5.5297855873531210e-01  5.5294443284006423e-01  5.5282910255838591e-01  5.5267796256272073e-01  5.5254727897063993e-01  5.5250525921982485e-01  5.5264041827436672e-01  5.2309898037731406e-01  5.1803980652749892e-01  5.2786904926314882e-01  5.2786919622273332e-01  5.2309962668021426e-01  5.2787744061824449e-01  5.2311159368675997e-01  5.2789321393691468e-01  5.2312820586507214e-01  5.2790036175257582e-01  5.2313050569360964e-01  5.2788249347143257e-01  5.2309797659300206e-01  5.2784284259587999e-01  5.2301362245496275e-01  5.2779377420719509e-01  5.1787691562032023e-01  5.1790472587839465e-01  5.2779538356169509e-01  5.1796323497644348e-01  5.2779137019310884e-01  5.1803997739539798e-01  5.2778354175358155e-01  5.1808906771875773e-01  5.2775753163379968e-01  5.1804795851634622e-01  5.2769089880377584e-01  5.1781018052706640e-01  5.2758143347601150e-01  5.3518024812284271e-01  5.2975944891100235e-01  5.2707764448777317e-01  5.2703973592998465e-01  5.2971552286960122e-01  5.3514452556240111e-01  5.2697668614331816e-01  5.2957017173061105e-01  5.3504047935862276e-01  5.2689826343043833e-01  5.2938988294520328e-01  5.3490688850102630e-01  5.2684091002212974e-01  5.2925437009304810e-01  5.3480444196154642e-01  5.2687144987972223e-01  5.2927661360856670e-01  5.3482859907363489e-01  5.2711166405577770e-01  5.2962008013251261e-01  5.3511963773612403e-01  5.4772558404527338e-01  5.3633857393862516e-01  5.3611158581337026e-01  5.3614538508800724e-01  5.3635905597426436e-01  5.4778677859303293e-01  5.3623456720156593e-01  5.3639526904084622e-01  5.4791856232102187e-01  5.3635937862257066e-01  5.3645121321609879e-01  5.4808298347682038e-01  5.3650074756653343e-01  5.3651778274870632e-01  5.4824974569119833e-01  5.3663849762501004e-01  5.3658980116258048e-01  5.4838903012384077e-01  5.3674300771985606e-01  5.3667730537404679e-01  5.4847900547921968e-01  6.0393160064145301e-01  6.0393793756769332e-01  6.0393797769206470e-01  6.0391112262582203e-01  6.0383064622859839e-01  6.0367301847903554e-01  6.0342894463674035e-01  5.3974559672126732e-01  5.3201264178085605e-01  5.3197002858166964e-01  5.3971490068520400e-01  5.3187668323018167e-01  5.3963513311271327e-01  5.3176015164156420e-01  5.3953018437711564e-01  5.3165648061406556e-01  5.3943522266232535e-01  5.3162240615567868e-01  5.3941109607443882e-01  5.3176188426546067e-01  5.3958487994996229e-01  5.7098997050721423e-01  5.5931743837504833e-01  5.6573854349648323e-01  5.6578402776683723e-01  5.5933174898477722e-01  5.7104675753405865e-01  5.6589076562177132e-01  5.5935487422786168e-01  5.7116381509753367e-01  5.6602110667179983e-01  5.5938906932707488e-01  5.7130596414738333e-01  5.6615861160381942e-01  5.5942846056392892e-01  5.7144339833695734e-01  5.6628877250337839e-01  5.5946757430120608e-01  5.7154488533819858e-01  5.6637814300339095e-01  5.5950861246317662e-01  5.7158399533531468e-01  6.3409478480443815e-01  6.2243712002703544e-01  6.2257615983039272e-01  6.2258960196285440e-01  6.2243258670393342e-01  6.3411298206870270e-01  6.2264902643217324e-01  6.2245425458338832e-01  6.3418254802552265e-01  6.2272081638445886e-01  6.2247254580488798e-01  6.3426720998916697e-01  6.2276916061250254e-01  6.2245228623378757e-01  6.3432607696721499e-01  6.2275641298556605e-01  6.2235997864814330e-01  6.3431543332837004e-01  6.2263288653666249e-01  6.2217144290723370e-01  6.3417682151622889e-01  5.2619649898436216e-01  5.2506758964953160e-01  5.2507278266936275e-01  5.2621187992121365e-01  5.2509529530357446e-01  5.2622534818191424e-01  5.2513996481633751e-01  5.2625137284288337e-01  5.2520835155742129e-01  5.2629153340282786e-01  5.2530327014720712e-01  5.2635086159915045e-01  5.2542521506297579e-01  5.2645001156905480e-01  6.1087164788566906e-01  6.1052501129414849e-01  6.1051005342126774e-01  6.1085219121647760e-01  6.1049468995281542e-01  6.1082951884458692e-01  6.1047452186756734e-01  6.1079111148029441e-01  6.1044194063209567e-01  6.1072449637511339e-01  6.1038716238680435e-01  6.1061701458207673e-01  6.1028558707913605e-01  6.1045406955245296e-01  6.4546886093028411e-01  6.4045570776850091e-01  6.4550228996140513e-01  6.4048008536159318e-01  6.4559005777572309e-01  6.4055122947676846e-01  6.4574170541953257e-01  6.4067651653898394e-01  6.4596325072468375e-01  6.4087289156541305e-01  6.4625941860809155e-01  6.4115898896768664e-01  6.4664428293816711e-01  6.4155964785090047e-01  5.7785265937514096e-01  5.6668878507783094e-01  5.6669526222173983e-01  5.7787732744008624e-01  5.6671699821415189e-01  5.7794502793392843e-01  5.6673994609487421e-01  5.7802657377206945e-01  5.6675239131988597e-01  5.7810263906786297e-01  5.6674194455639471e-01  5.7814646717722451e-01  5.6671106541801552e-01  5.7810648352673022e-01  5.5243518220194032e-01  5.5718112893140392e-01  5.4722432348263172e-01  5.4716241239407248e-01  5.5715447073492008e-01  5.5241730321354665e-01  5.4702669279276350e-01  5.5707500039400126e-01  5.5236436842829617e-01  5.4687637941087552e-01  5.5697813975469124e-01  5.5229670874963410e-01  5.4677849943627743e-01  5.5690606168438417e-01  5.5226344853399512e-01  5.4679844407577294e-01  5.5689284696865526e-01  5.5231274418831477e-01  5.4700019632191510e-01  5.5696398432304794e-01  5.5247643859181350e-01  6.4552490438501231e-01  6.3645673573002526e-01  6.3647071157053403e-01  6.4554348455471744e-01  6.3651422378174105e-01  6.4559665462138360e-01  6.3656108123742949e-01  6.4566469677133687e-01  6.3657221688305576e-01  6.4570602970323032e-01  6.3650450283550886e-01  6.4567500861119087e-01  6.3631865268134269e-01  6.4552778751750950e-01  5.5795557757277170e-01  5.4954095100176314e-01  5.4440913396435109e-01  5.4440787510421274e-01  5.4956268292487997e-01  5.5795033662442961e-01  5.4959493614461330e-01  5.5794058798244039e-01  5.4439910118949175e-01  5.4964348330001622e-01  5.5794058817652648e-01  5.4440185005369168e-01  5.4970359254586421e-01  5.5796045879197764e-01  5.4442626184944010e-01  5.4976909576807131e-01  5.5800401080660511e-01  5.4447987862418912e-01  5.4983716937974569e-01  5.5807241344213954e-01  5.4456312171577070e-01  5.9000919770558569e-01  5.7733587853067425e-01  5.7736967039419429e-01  5.9001785210923463e-01  5.7744460944517673e-01  5.9005580157691095e-01  5.7753708200217457e-01  5.9009990579890215e-01  5.7762913747784150e-01  5.9014454508425007e-01  5.7770540596104081e-01  5.9018427660004946e-01  5.7774472636697383e-01  5.9020979915636163e-01  6.5583948977871409e-01  6.5588641693644811e-01  6.5603630090428122e-01  6.5623861029372510e-01  6.5643799914049028e-01  6.5656944569033415e-01  6.5652900782315260e-01  5.5514485902381583e-01  5.5516573416787007e-01  5.5520782884332753e-01  5.5526707103983863e-01  5.5533196525908601e-01  5.5539451208246382e-01  5.5546099996380760e-01  6.2809643022858908e-01  6.2811091794677132e-01  6.2814368569318924e-01  6.2816950786588233e-01  6.2815368863297805e-01  6.2805985093100181e-01  6.2785627523026954e-01  5.5123429716991645e-01  5.5121314899359475e-01  5.5114620838298756e-01  5.5107705000003171e-01  5.9124998582951860e-01  5.9126021430864106e-01  5.9129822290627099e-01  5.9134409043411640e-01  5.9139481009833139e-01  5.9145165038522696e-01  5.9150543077332840e-01  5.7974095393140579e-01  5.7033603182866288e-01  5.6828778974430172e-01  5.6825996908588394e-01  5.7031154579833365e-01  5.7970927720961374e-01  5.7961767004429166e-01  5.7023312888519018e-01  5.6817498112636655e-01  5.7948443218988510e-01  5.7011526307643412e-01  5.6805088886497856e-01  5.6998680824854064e-01  5.7933514558433841e-01  5.6791878627849601e-01  5.7919623976968670e-01  5.6987517550863120e-01  5.6781299540348984e-01  5.7908849379598815e-01  5.6980188467293746e-01  5.6776611810916922e-01  5.4385084826845642e-01  5.4384938048317766e-01  5.4384240815018425e-01  5.4385460414184850e-01  5.4388539695554428e-01  5.4394332239108323e-01  5.4406438504800370e-01  5.7257108127214429e-01  5.7253232942953658e-01  5.7243735023413678e-01  5.7230397546588196e-01  5.7215833746209188e-01  5.7203159035110918e-01  5.7196485669157360e-01  5.2660079192041942e-01  5.1726274419182028e-01  5.1500206019226769e-01  5.2661963215175323e-01  5.1728168126412544e-01  5.1501012252817213e-01  5.1734139107276300e-01  5.2670834401649524e-01  5.1504063645432352e-01  5.1741321477900093e-01  5.2682681661661723e