<?xml version="1.0"?>
<VTKFile type="UnstructuredGrid"  version="0.1"  >
<UnstructuredGrid>
<Piece  NumberOfPoints="2289" NumberOfCells="10420">
<Points>
<DataArray  type="Float64"  NumberOfComponents="3"  format="ascii">9.092603799532878 3.738575932422564 3.63876107865531  8.972825159620786 3.68777162096141 3.727149345104348  9.082913863021151 3.684079227111119 3.739611611864856  9.081642680694999 3.740499543181694 3.775286901079671  8.971713691786661 3.745186745264281 3.761085090129324  9.091146337311054 3.796295879651527 3.668001403069121  9.080422894800144 3.796824793264273 3.811004212718834  8.970675018714399 3.80252304475256 3.795091095115665  9.089746064283009 3.853976273407076 3.697324202202906  9.079221103720979 3.853114763700719 3.846709808996577  8.969652156462031 3.859843879510161 3.82909398321589  9.088365329535279 3.91166346862527 3.726649839389772  9.078006095967552 3.909389081764435 3.882357467883452  8.968600608306199 3.917172031237474 3.863032797915008  9.086977039454791 3.969380426832473 3.755913006459457  9.076726087554711 3.965636916718212 3.91788752958675  8.967493775225321 3.9745230544923 3.896843728713279  7.914357830519021 1.52330878949829 2.953920864236319  8.01762482243779 1.508019037529038 2.912213497277862  7.958426166725816 1.462420280870411 2.837432570456956  8.012256321013862 1.557331764620685 2.883399768510336  7.909690654241443 1.572431076726343 2.924486961336409  7.918904925045229 1.47418357528477 2.983354999374136  8.022891477249509 1.458706435546555 2.941044398686539  7.96275063449369 1.411531809070797 2.864680620877128  7.92339115869385 1.425062540660339 3.012775228449422  8.028104844381057 1.409397781612538 2.969869216657686  7.96700994948139 1.360637824115142 2.891923915589775  8.033303902212472 1.360096428987297 2.998685491605567  7.927857768532501 1.375951563228968 3.042180478012046  7.971257435373692 1.309745986437087 2.9191624431162  8.038530018298218 1.310804615759781 3.027497422790229  7.932348945302095 1.326854043830829 3.07157563320191  7.975544600003882 1.258862915768494 2.946403937938087  8.043837510166744 1.261510323328546 3.056308505915081  7.936941803491762 1.277771034129902 3.100962195659024  7.979946876803911 1.207999961559264 2.973658326359116  8.985464613763671 3.820398943615236 3.60656360458235  8.982893111459145 3.879042815212806 3.631639139406527  8.980335530153495 3.937751713280983 3.656723440676499  8.977741085898524 3.99654388774092 3.681728322870159  8.975082618645859 4.055403828305302 3.706572553970174  8.63193875601179 1.719631289783827 3.000193699035744  8.570446044468847 1.749101849148635 3.059896882294999  8.580812950698808 1.677878654000604 2.943633114059218  8.58715103183382 1.632038211064116 2.971665314693171  8.576066689228641 1.703967878531028 3.088373292641902  8.638041018137228 1.674254752181105 3.02818450536112  8.593451666471637 1.586215379989379 2.999724347190118  8.581630583189561 1.658854771674415 3.116872746485849  8.644104325790497 1.628893029652046 3.056195242485366  8.599733259829557 1.540400435882907 3.02778396928161  8.587163946578583 1.613754400138512 3.145369130976469  8.650145790272234 1.583539449500498 3.084202900883442  8.606003304489219 1.494590210060311 3.055833476058378  8.592683201241849 1.56866120883154 3.173850053996229  8.65617637821355 1.538191454042021 3.112197012999554  8.61226547994492 1.448781715441418 3.083869386140457  8.598202567533058 1.52357095247821 3.202305797779887  8.662204080262251 1.492846725459636 3.140172167556285  8.618524887175816 1.402965805669646 3.111885222473034  8.603747854232658 1.47847406245002 3.230719417716381  8.668231561018491 1.447490757271195 3.168126343758195  9.250918961619394 2.013707376588747 3.365840233982101  9.146375792317491 1.959686764613508 3.295333092745922  9.259494719873731 1.968490263948421 3.282805838692333  9.266583839920157 1.921980351104521 3.308938844989155  9.152711828627011 1.912880317178977 3.32149193547875  9.258402648132513 1.96624775426431 3.392637162809253  9.273718314861782 1.875455437083497 3.335051108872095  9.159059469943569 1.866053742957618 3.347637663674076  9.265938074100212 1.918780662675375 3.41942126143037  9.280872045526566 1.8289259974973 3.361141207757924  9.165411207930026 1.819217561615923 3.373767370248894  9.273493886877311 1.871307967700135 3.446187086311895  9.288022585358549 1.782391360982063 3.387207493745593  9.171758495480761 1.772373226791066 3.399875591281844  9.281044703391631 1.823826399439473 3.472928131310409  9.295146140620803 1.735841822370441 3.413248240921744  9.178091456314691 1.725510489334015 3.425958076046675  9.288564215316438 1.77632289904019 3.499638076144687  9.302212273759251 1.689254975457997 3.439263773804057  9.184397759224769 1.678605335552223 3.452010853027968  9.296012945790935 1.728770618151617 3.526309844853104  8.541292689025434 2.261514646558931 3.791633499664518  8.494240142119635 2.332776855592195 3.853210017357002  8.422264715435894 2.228919683852154 3.762151294873227  8.424978922168988 2.185181863795361 3.808572601952006  8.494558807453956 2.293063299167752 3.905926732708491  8.541909487779085 2.217891202471353 3.839078090932127  8.427590411255382 2.141458570792396 3.854948016850549  8.494764008654863 2.253375165567223 3.958611051593284  8.542389099818116 2.174295652378665 3.886494867657374  8.430153334271393 2.097745578897224 3.901279401239226  8.494924298153089 2.213696567986263 4.011249096731681  8.542812431941012 2.130711359144366 3.93387468353731  8.432705256438721 2.054036721170097 3.947561550545328  8.495083018329472 2.17401677239318 4.063829161477321  8.543232290412091 2.08712942117781 3.98120571318026  8.435286010426196 2.010334317827487 3.993785364955876  8.495282710165135 2.134335236770061 4.1163332153925  8.543703526977069 2.043551311699356 4.028472605442658  8.43795933958585 1.966656927568765 4.039932037412235  8.495589682952794 2.094650097700245 4.168749039395498  8.544310683802728 1.999981233964345 4.075662540748199  8.325713921899109 3.116648791980366 4.020909299379096  8.225244119475827 3.17808607726428 4.016075838819716  8.253072845502198 3.036974004990628 4.031584420921045  8.25619827902624 3.043706214550575 4.104081630754037  8.230688658143388 3.194420665390677 4.087773839821865  8.326852051142385 3.128067602166291 4.092779258750998  8.259423744179804 3.050398411894561 4.176502516507352  8.236209094508386 3.210691675213355 4.159419307635977  8.328107399953225 3.139441119382875 4.164571423480452  8.262690172569789 3.057032196618676 4.248855461561353  8.241751511092808 3.22690323405958 4.231009588573166  8.329415025601334 3.150750795043352 4.236299966065707  8.265966822301966 3.063596901598663 4.32115641213493  8.247290179982828 3.243046039308377 4.302562620594901  8.330731675263349 3.161981281174787 4.307980874065416  8.269225275311822 3.070087597493645 4.39342751660425  8.252812537246916 3.259124090204242 4.374111806303409  8.332013259636645 3.173121108148248 4.37963884658442  8.272412063845307 3.076518455827022 4.465711254244579  8.258312954479562 3.275169100182814 4.445704763617877  8.333177668796177 3.184198368309765 4.451313040269603  9.307314076480086 2.443421084076296 3.873317769538949  9.211205620705499 2.513882102258965 3.931352194485028  9.188035095221403 2.393024355369779 3.872505587948195  9.197883587974498 2.35369293329829 3.924876585074164  9.220006931412243 2.483326921418878 3.990780763548674  9.321484197085958 2.40746483717671 3.926785946490282  9.207755163796767 2.314419840338949 3.977300765598099  9.228801129301869 2.452850260986666 4.050260889087236  9.33573844823419 2.371573537480659 3.980294586854196  9.217635025205309 2.275161541469665 4.029719240024636  9.237609286556086 2.422406763795864 4.109749913089767  9.350032527355518 2.335713675134835 4.033806873332445  9.227509065318403 2.235878379865271 4.082101175352848  9.246424963975985 2.391950887374499 4.169214235160975  9.364325356594707 2.299843275113862 4.087292575257983  9.237361863529365 2.196529992228466 4.134423984258029  9.255238393170513 2.361437192922487 4.22863261272641  9.378574269252992 2.263916876056305 4.140732448481685  9.247183221182187 2.157087673491884 4.186685585015398  9.264039150983233 2.330812976954261 4.287990529548333  9.392727738666061 2.227882380073168 4.194115267766442  8.461982765634321 1.711579446023816 3.021911355744448  8.468102346288472 1.666230227930651 3.050839742049168  8.474178935614013 1.620916384590111 3.079799747445805  8.480228506036761 1.575615127297332 3.10876364721221  8.48626330221966 1.530319471554256 3.137715711706342  8.492294551365443 1.485022340979167 3.166644983847872  8.498326669654256 1.439711560380615 3.195530064726643  9.077373038589931 3.259683533263328 4.002848764150533  8.994165394544964 3.323734678912614 3.977723939903347  8.990427223869519 3.192860859896217 4.031499680485336  8.992289512074201 3.213051461251274 4.101154501737946  8.994454267453927 3.353867272433668 4.04314149033971  9.081953536894128 3.282808951975932 4.070966319241559  9.086513585021986 3.305865565842503 4.138857438150599  8.994825562452053 3.383866879397264 4.108315277989906  8.994183426202293 3.233190466056591 4.170577032774716  9.091065238851323 3.328821345575077 4.20658941318528  8.9952269766355 3.413743035862753 4.173344134930726  8.996090314952152 3.253255396903956 4.239864556233325  9.09561750526712 3.351668719377291 4.274226549158596  8.995632624533471 3.443509463730231 4.238277776942152  8.998004934222136 3.273229252043518 4.309051135439274  8.996022252196974 3.473168889477356 4.30314274820133  9.10017783189469 3.374402125127867 4.341777545327639  8.999920347497817 3.293096193145508 4.378151046694822  8.996363848837778 3.502704858437684 4.367928744123659  9.104761882133507 3.39702876895015 4.409242566705949  9.001823254483561 3.31282814614124 4.447162548023023  9.106173268294368 2.004537289500544 3.3867556080836  9.112348389271085 1.956507159256393 3.413687881250496  9.118523979701466 1.908454745608153 3.440618898484783  9.124696280462558 1.860394154529095 3.46753642684747 
[...]
<PointData  Scalars="f_14"> 
<DataArray  type="Float64"  Name="f_14"  format="ascii">2.4960866181596350e-01  2.6289322593869646e-01  2.5192309533372592e-01  2.5204911647849471e-01  2.6290923750761996e-01  2.4965180239886428e-01  2.5220277426487353e-01  2.6294537055494421e-01  2.4971899248936780e-01  2.5237367662877369e-01  2.6300198592562246e-01  2.4980880901327449e-01  2.5255014475860221e-01  2.6308017550345064e-01  2.4992032286766822e-01  2.5269766854790882e-01  2.6318479526567440e-01  3.7399086476551485e-01  3.6491311689776962e-01  3.7029994009879175e-01  3.6488603490575650e-01  3.7395347653566618e-01  3.7409852016384004e-01  3.6498892567681318e-01  3.7040260005876524e-01  3.7424718117089856e-01  3.6509454153364818e-01  3.7053874284077221e-01  3.6521641698605084e-01  3.7441545799541404e-01  3.7068709585656551e-01  3.6533934181964789e-01  3.7458072690954874e-01  3.7082672781008025e-01  3.6544179927549442e-01  3.7470921145520036e-01  3.7093092618367707e-01  2.5953165540738582e-01  2.5961380453176525e-01  2.5971755434874844e-01  2.5984012142480312e-01  2.5999099381586244e-01  3.0699133231179171e-01  3.1282529235776840e-01  3.1198474927164460e-01  3.1200516521996358e-01  3.1284446018427675e-01  3.0700267479446863e-01  3.1206001867395960e-01  3.1290106685924446e-01  3.0703985369762782e-01  3.1214063617398452e-01  3.1298374472553370e-01  3.0710027481407509e-01  3.1224129710647197e-01  3.1308487443677446e-01  3.0717832000543482e-01  3.1235747783392059e-01  3.1319689509362808e-01  3.0726888019096893e-01  3.1248463599434478e-01  3.1330687835027499e-01  3.0737452619700956e-01  2.4508672041452848e-01  2.5577839872862940e-01  2.4414801214509535e-01  2.4415392383933909e-01  2.5578463359220227e-01  2.4508856090248363e-01  2.4416888873904832e-01  2.5580457419882824e-01  2.4509447231087084e-01  2.4419070413836802e-01  2.5583422155536256e-01  2.4510714646992759e-01  2.4421835780028139e-01  2.5587063284634476e-01  2.4512852788629705e-01  2.4425092117280622e-01  2.5591142025881075e-01  2.4516124298789266e-01  2.4428748412805110e-01  2.5595250020184612e-01  2.4521106924486508e-01  3.1581816254829964e-01  3.2017296581474608e-01  3.2683340766139901e-01  3.2686767367249275e-01  3.2020789914445247e-01  3.1586825867128154e-01  3.2694477159283108e-01  3.2031841878068262e-01  3.1599574599912439e-01  3.2705627142625016e-01  3.2047173632291698e-01  3.1616025558981997e-01  3.2718547825120875e-01  3.2062915126538677e-01  3.1632754477103003e-01  3.2730954832378206e-01  3.2075107582042706e-01  3.1645947036794492e-01  3.2740424396808282e-01  3.2080053865344987e-01  3.1650543437145734e-01  3.3158723193732803e-01  3.3979117781647528e-01  3.3843999175495126e-01  3.3849456835829439e-01  3.3980295637413360e-01  3.3162815390106631e-01  3.3864255159703921e-01  3.3985848584617068e-01  3.3176572557098738e-01  3.3886412607741312e-01  3.3997825966545159e-01  3.3197692249934135e-01  3.3915518838554315e-01  3.4016765090617085e-01  3.3223282629026601e-01  3.3951879100223470e-01  3.4045027423946206e-01  3.3249479513840258e-01  3.3993974952090200e-01  3.4089246220696379e-01  3.3272737469445490e-01  2.3885660360927102e-01  2.4889308786139522e-01  2.5163998943376636e-01  2.5162227319738745e-01  2.4893029816605000e-01  2.3878334126194259e-01  2.5161561700508378e-01  2.4901606526685574e-01  2.3863325967574844e-01  2.5162490771608198e-01  2.4912176179343010e-01  2.3847732536559682e-01  2.5165097311895468e-01  2.4923300386538866e-01  2.3835795163663182e-01  2.5169384616287294e-01  2.4933652575130766e-01  2.3831061019761593e-01  2.5174323145326682e-01  2.4942583949685943e-01  2.3836969873436353e-01  3.2314203311986378e-01  3.2315678436163636e-01  3.2320170468768172e-01  3.2327176441237937e-01  3.2336430622104118e-01  3.2347692240944154e-01  3.2360745770744831e-01  2.5757624368319731e-01  2.6562656630083170e-01  2.6716813715812177e-01  2.6719232255768866e-01  2.6568298367427784e-01  2.5757036885474477e-01  2.5758368392048719e-01  2.6583869310829561e-01  2.6726094763867503e-01  2.5761421483143593e-01  2.6602499752393416e-01  2.6735078112764038e-01  2.5766194802836845e-01  2.6621015804583109e-01  2.6744604897244911e-01  2.6636141983046108e-01  2.5773172564116004e-01  2.6753368157023832e-01  2.6642532582915135e-01  2.5782641122111871e-01  2.6759810976128062e-01  2.5997117619280119e-01  2.5997694419417311e-01  2.5999867442710173e-01  2.6003254421033123e-01  2.6007383911016013e-01  2.6011829609247866e-01  2.6016379715716265e-01  3.3404170181163401e-01  3.3422960395263490e-01  3.3447535419589924e-01  3.3475132746969433e-01  3.3502310282585879e-01  3.3522613376544114e-01  2.4672278664446495e-01  2.5928394300710672e-01  2.5283660739040120e-01  2.5284519541616396e-01  2.5929124068425774e-01  2.4672345567372025e-01  2.5287245659246915e-01  2.5931324549182766e-01  2.4672824006902264e-01  2.5291231311507950e-01  2.5934606263668192e-01  2.4673908211691711e-01  2.5296061541491022e-01  2.5938646630950507e-01  2.4675623666626836e-01  2.5301367405286346e-01  2.5943146548400825e-01  2.4678044909654542e-01  2.5306531713985908e-01  2.5947850628781038e-01  2.4681486308853579e-01  3.1302240125512781e-01  3.2442963470151842e-01  3.1457300817333411e-01  3.1462514061013391e-01  3.2453331142443159e-01  3.1308241670243014e-01  3.1473791860458045e-01  3.2477733471476455e-01  3.1323999973924938e-01  3.1490149611013701e-01  3.2510300842111589e-01  3.1345613450604398e-01  3.1507589005678660e-01  3.2546156232113921e-01  3.1369564824885066e-01  3.1522100673062781e-01  3.2579514520082142e-01  3.1392201783453055e-01  3.1536303942799504e-01  3.2600161710697634e-01  3.1407796207012406e-01  2.7915081073116532e-01  2.9358683824146947e-01  2.8258357365232345e-01  2.8265302387116270e-01  2.9363781340707051e-01  2.7917818471290168e-01  2.8282876500901721e-01  2.9376310702132985e-01  2.7926880941491899e-01  2.8306277367619714e-01  2.9394381188799951e-01  2.7940548971889440e-01  2.8331844081546476e-01  2.9415712386976722e-01  2.7956911461482487e-01  2.8355641549347932e-01  2.9437576574665597e-01  2.7973810943021193e-01  2.8371762955043817e-01  2.9456918065479820e-01  2.7987613270659900e-01  2.6247462752766904e-01  2.6252396289515362e-01  2.6265337062382088e-01  2.6280787968502289e-01  2.6296127088366067e-01  2.6309308014888688e-01  2.6318281348105155e-01  2.2672512319699351e-01  2.3823525579757673e-01  2.2369013528275711e-01  2.3823181999155274e-01  2.2672292575865294e-01  2.2368490024481388e-01  2.3822367252101881e-01  2.2672331008225591e-01  2.2367396874053283e-01  2.3821646133825752e-01  2.2672648523472241e-01  2.2366278906841769e-01  2.3821305602111412e-01  2.2673318482338894e-01  2.2365704209547688e-01  2.3821572965265739e-01  2.2674346697256975e-01  2.2366193592313069e-01  2.3823133778869943e-01  2.8327287718766608e-01  2.8980598338830937e-01  2.9265164899942264e-01  2.9269075494793456e-01  2.8990070886303493e-01  2.8324924950960673e-01  2.9279946385193056e-01  2.9012138818824290e-01  2.8322669751435597e-01  2.9293263690178228e-01  2.9037545872960113e-01  2.8321686439918142e-01  2.9305017079874496e-01  2.9060303165643964e-01  2.8321101685966643e-01  2.9311888061228653e-01  2.9075190113629573e-01  2.8320932216002043e-01  2.9311592467859265e-01  2.9077572958661413e-01  2.8320852217475462e-01  3.2327274820885549e-01  3.2330997372215126e-01  3.2343420113864535e-01  3.2362734784356312e-01  3.2385852897281503e-01  3.2409618147017100e-01  3.2432116025918079e-01  2.5199463231356523e-01  2.5200143186042723e-01  2.5202215366308656e-01  2.5205308521315750e-01  2.5209538404365722e-01  2.5215235435869671e-01  2.5222684188410299e-01  2.7832571527047806e-01  2.7836285421175877e-01  2.7846300131767254e-01  2.7859550194315369e-01  2.7873006989575633e-01  2.7884386330711419e-01  2.7891828463006202e-01  2.6529598984735370e-01  2.6529555540065813e-01  2.6530599783860004e-01  2.6532713224634602e-01  2.6535894685837697e-01  2.6540121498477848e-01  2.6545412393682882e-01  2.6168294401363307e-01  2.6170847806150649e-01  2.6175654990765307e-01  2.6182440667883394e-01  2.6190035464218009e-01  2.6197771544609061e-01  2.6205525223491888e-01  3.0385301121150082e-01  3.0397330601489442e-01  3.0426520727702550e-01  3.0461638351980735e-01  3.0494084695277357e-01  3.0515714463711285e-01  3.0518666346625523e-01  3.2287243307557201e-01  3.2727642692936826e-01  3.3667366737740140e-01  3.3667930065233237e-01  3.2729209814283555e-01  3.2287710277576426e-01  3.3670109732953396e-01  3.2733346048581219e-01  3.2289649754537780e-01  3.3674175413245472e-01  3.2739636196070748e-01  3.2293440085459851e-01  3.3680426166923483e-01  3.2748261685921898e-01  3.2299560723487136e-01  3.3689062933906139e-01  3.2759383304635398e-01  2.3722567211205464e-01  2.3994918856659747e-01  2.4754440691439233e-01  2.4750563212020771e-01  2.3995125853510729e-01  2.3722946103666906e-01  2.4741324172343560e-01  2.3997005112928496e-01  2.3722259862256520e-01  2.4732995706883609e-01  2.4000858740924244e-01  2.3722658142657360e-01  2.4727918648273786e-01  2.4006919423161951e-01  2.3725593668625775e-01  2.4729171827011204e-01  2.5187346518553183e-01  2.6127076895806728e-01  2.6127088751970196e-01  2.6129608346597799e-01  2.6134597207195664e-01  2.6141448221499225e-01  2.6149741181063402e-01  2.6159908006023064e-01  2.4742065148742695e-01  2.3607301736223449e-01  2.3607691550665993e-01  2.3608165317244256e-01  2.3608960106890994e-01  2.3610131829900768e-01  2.3611652542006548e-01  2.3613505496223464e-01  2.5908051092144274e-01  2.5908921539083501e-01  2.5911712562650080e-01  2.5915877647121910e-01  2.5921216506794964e-01  2.5927513598563223e-01  2.5934309277473533e-01  2.5582381768525247e-01  2.6874679887834280e-01  2.5845876096231357e-01  2.5844489548763799e-01  2.6874010078812827e-01  2.5580355274467792e-01  2.5841720383392375e-01  2.6873746272631133e-01  2.5576295077066685e-01  2.5839553864562931e-01  2.6874330349630898e-01  2.5572624537847449e-01  2.5839224100840374e-01  2.6876164825025883e-01  2.5571216632096894e-01  2.5841986492628560e-01  2.6879666414909620e-01  2.5573877615903240e-01  2.5849342089452770e-01  2.6885551523323059e-01  2.5581926320073184e-01  2.6592777276802398e-01  2.6592045771470124e-01  2.6590418954525069e-01  2.6589378103461780e-01  2.6589646454457605e-01  2.6591724459062083e-01  2.6596740263406271e-01  2.4015292875538488e-01  2.4026886785865265e-01  2.6289205573313584e-01  2.7341690739369845e-01  2.7346464540730825e-01  2.7358319215174953e-01  2.7373841887903688e-01  2.7390111462348821e-01  2.7404318043148113e-01  2.7414417144763198e-01  2.3662429813622216e-01  2.3665631918434168e-01  2.3670461500915824e-01  2.3675967078185575e-01  2.3683370720759106e-01  2.3693111835106079e-01  2.3702000360750775e-01  2.4548625147547160e-01  2.4549428522693129e-01  2.4550946628368694e-01  2.4553077739128346e-01  2.4555668401375313e-01  2.4558550483657718e-01  2.4561383879452015e-01  2.8629289853694606e-01  2.9625293299619238e-01  2.8487615409237843e-01  2.8493838110899739e-01  2.9629351336520526e-01  2.8635876725650600e-01  2.8510057080635870e-01  2.9641924392097430e-01  2.8653222366977632e-01  2.8531321302450874e-01  2.9659928347434017e-01  2.8676123567885120e-01  2.8553288878408939e-01  2.9679695889851060e-01  2.8700337951460220e-01  2.8571767117680824e-01  2.9698067063531031e-01  2.8721791183994616e-01  2.8583003158876980e-01  2.9714707811551599e-01  2.8735791913653741e-01  2.7064718848350816e-01  2.7065116594888633e-01  2.7066751560681901e-01  2.7069881601827905e-01  2.7074552868673779e-01  2.7080837250713685e-01  2.7088742691317585e-01  2.9724243774383824e-01  3.0678262407467927e-01  3.0265149092158988e-01  3.0267015033254790e-01  3.0682561328591518e-01  2.9726425204977724e-01  3.0271434363877919e-01  3.0693212919477786e-01  2.9732194250563110e-01  3.0277847707435063e-01  3.0707054609861678e-01  2.9740137249967108e-01  3.0285404854626602e-01  3.0721912912196020e-01  2.9748803112004385e-01  3.0293116289570016e-01  3.0735256061056604e-01  2.9756512204818358e-01  3.0300011613962902e-01  3.0741758773730266e-01  2.9761421265144472e-01  2.6380071613099243e-01  2.7020286246683017e-01  2.7021673216459491e-01  2.6380221512653601e-01  2.7025271910456106e-01  2.6381021926448778e-01  2.7030287582502449e-01  2.6382636645564034e-01  2.7035841175584380e-01  2.6384884952966164e-01  2.7040973904222571e-01  2.6387597576145350e-01  2.7044559661724488e-01  2.6391151437239230e-01  2.0935905658973539e-01  2.1493911751602113e-01  2.2042709302610300e-01  2.2041723593995674e-01  2.1491567260936326e-01  2.0936166998605321e-01  2.2036792876056313e-01  2.1487091629417709e-01  2.0937394951997196e-01  2.2031956428586583e-01  3.2045966732972625e-01  3.2047340764058851e-01  3.2051267297928643e-01  3.2057592153031250e-01  3.2066115888513846e-01  3.2076700584519913e-01  3.2089603498044345e-01  3.0791001256368822e-01  3.1657947141015391e-01  3.0676098793074275e-01  3.0680475236420551e-01  3.1664850494526975e-01  3.0796703035473394e-01  3.0691498733545419e-01  3.1681616845443361e-01  3.0810758291612950e-01  3.0707331225143936e-01  3.1704964036320776e-01  3.0830867855116223e-01  3.0725236230888053e-01  3.1731590506425172e-01  3.0854184369820320e-01  3.0743251228083485e-01  3.1757327477050562e-01  3.0877290024408521e-01  3.0761092710005078e-01  3.1776607522785955e-01  3.0894557637268338e-01  2.7484982222303850e-01  2.7487116875169193e-01  2.7492034747239569e-01  2.7500365664115900e-01  2.7510663154142451e-01  2.7521720860684751e-01  2.7534328849918022e-01  3.4172911483430957e-01  3.4193901856983994e-01  3.4219743906078276e-01  3.4249640116432523e-01  3.4279186736024264e-01  2.5097145043479302e-01  2.5097847326919942e-01  2.5100020165161896e-01  2.5103167305099777e-01  2.5106870727006181e-01  2.5110733744690489e-01  2.5114293492018797e-01  3.3584112497475005e-01  3.3596744062942785e-01  3.3613040941423900e-01  3.3632566372704759e-01  3.3655615171997061e-01  3.4854236064143085e-01  3.5163004796959352e-01  3.4251398757746843e-01  3.4262442233823026e-01  3.5171406286814699e-01  3.4867103082273965e-01  3.4277948000792763e-01  3.5185079524600793e-01  3.4885241392381366e-01  3.4297981283697471e-01  3.5205220955264499e-01  3.4908827708219858e-01  3.4323750883856824e-01  3.5234458990290102e-01  3.4938942685620705e-01  2.2017922699072412e-01  2.2573924038763288e-01  2.3528299132481950e-01  2.3527123433122502e-01  2.2571591211003733e-01  2.2016685143721895e-01  2.3526168555155569e-01  2.2565881022710566e-01  2.2014056122791248e-01  2.3526504194224512e-01  2.2560618101710431e-01  2.2012200001909618e-01  2.3529240952525191e-01  2.2558226691814531e-01  2.2012887827754224e-01  2.3535341163032752e-01  2.2561016985354007e-01  2.2017912148991706e-01  2.3545348219940659e-01  2.3100394767728977e-01  2.4573958820244668e-01  2.4573126039789417e-01  2.3100752867483693e-01  2.4571379897008827e-01  2.3101147182333986e-01  2.4570243673794440e-01  2.3102386717960677e-01  2.4571237029171070e-01  2.3105554155193286e-01  2.4575854785625539e-01  2.3111574240886398e-01  2.4585513995772384e-01  2.3121157914063900e-01  2.9752084886957247e-01  2.9762509072424387e-01  2.9790493387918399e-01  2.9825668326895888e-01  2.9863205363242978e-01  2.9896803191923893e-01  2.9911548549079947e-01  2.4099095560934491e-01  2.4097866130565340e-01  2.4094475038983887e-01  2.4091543366870435e-01  2.4090576901727287e-01  2.4092992010709557e-01  2.4100823490776396e-01  3.1944162763991496e-01  3.1946748800703567e-01  3.1956282497523053e-01  3.1972269297268813e-01  3.1992811577563041e-01  3.2015925189570493e-01  3.2040226375956748e-01  2.5213453052535312e-01  2.5212858036197566e-01  2.5211516787197519e-01  2.5210902702390381e-01  2.5212134892120985e-01  2.5216512143093822e-01  2.5225804335424357e-01  3.3013006771191505e-01  3.3014279373643307e-01  3.3018576932894750e-01  3.3025732870808960e-01  3.3035507638318601e-01  3.3047692113297478e-01  3.3062092264556475e-01  2.7543226896040235e-01  2.7544827501197527e-01  2.7549431332023155e-01  2.7555720383221927e-01  2.7562703069171635e-01  2.7569326235139896e-01  2.7573924170374531e-01  2.9638897414529475e-01  3.0187043642694444e-01  3.0592666774061422e-01  3.0601410315847422e-01  3.0193039337971805e-01  2.9648911886042367e-01  3.0622973486245170e-01  3.0210272817035982e-01  2.9672742305109495e-01  3.0650338462669602e-01  3.0232542012071129e-01  2.9701396423485260e-01  3.0677018193392985e-01  3.0254581730560914e-01  2.9728851800456141e-01  3.0696342175835278e-01  3.0271489557201492e-01  2.9749494978847724e-01  3.0703059209693206e-01  3.0280001978044713e-01  2.9753934041657487e-01  3.5130569152925162e-01  3.5675851421084803e-01  3.6119026978683544e-01  3.6120515848398105e-01  3.5677519346162911e-01  3.5132700140757628e-01  3.6124805135806548e-01  3.5682773605247198e-01  3.5138906555871130e-01  3.6132946609376382e-01  3.5692292487689997e-01  3.5149098222049202e-01  3.6145714431090264e-01  3.5706796248397632e-01  3.5163682382357375e-01  3.6163966965711636e-01  3.5727039033879587e-01  3.5183189369208362e-01  3.6189119745938009e-01  3.5753999088125460e-01  3.5207622686418044e-01  3.1473621356606352e-01  3.1475141306627746e-01  3.1478682966401866e-01  3.1484178195883139e-01  3.1491298605380486e-01  3.1499515850295534e-01  3.1508296956312426e-01  2.9503383207111195e-01  3.0819055238074217e-01  2.9728388079374324e-01  2.9734938949830214e-01  3.0821979354754725e-01  2.9509796879403472e-01  2.9754103283246974e-01  3.0829927828924125e-01  2.9526553790514620e-01  2.9777414116852446e-01  3.0841025449755122e-01  2.9546934848787587e-01  2.9799757243090924e-01  3.0851963287451556e-01  2.9566386106614673e-01  2.9816275113714674e-01  3.0859804448512546e-01  2.9580852434638855e-01  2.9820808917063230e-01  3.0862271104054062e-01  2.9586162547911521e-01  3.1150924120914919e-01  3.1084560288918917e-01  3.2167220963915144e-01  3.2177324812098196e-01  3.1089936946507096e-01  3.1156033690840418e-01  3.2204370383794828e-01  3.1104683899569602e-01  3.1168757506955069e-01  3.2239801934412399e-01  3.1125164894863733e-01  3.1186845504219735e-01  3.2277647014855781e-01  3.1146580026248538e-01  3.1204803611332932e-01  3.2310757220243053e-01  3.1164049182396220e-01  3.1217880549682203e-01  3.2323347400476238e-01  3.1173615501888774e-01  3.1227155389643335e-01  2.9372057339819208e-01  2.9039460223996849e-01  2.9041385698377098e-01  2.9373518235841839e-01  2.9046743715457007e-01  2.9377840087900614e-01  2.9054054841022470e-01  2.9384041311172332e-01  2.9062100488448089e-01  2.9391270545603188e-01  2.9069582238618147e-01  2.9398639040992242e-01  2.9075154836352507e-01  2.9404930183386957e-01  3.5109692277539323e-01  3.4821475198612650e-01  3.4823189868986676e-01  3.5111490225615849e-01  3.4828404366381149e-01  3.5117848234383986e-01  3.4837494430655841e-01  3.5128746073025208e-01  3.4851074265973764e-01  3.5144572849004585e-01  3.4869820564992754e-01  3.5165750678199598e-01  3.4894177046361213e-01  3.5192243427349723e-01  3.0494019300301589e-01  3.0498406500729602e-01  3.0510861118135285e-01  3.0526719514427519e-01  3.0541901710512337e-01  3.0552424070585138e-01  3.0553774630851610e-01  3.2062607576791197e-01  3.2073351670225386e-01  3.2100129413603823e-01  3.2134552866291427e-01  3.2171398328348921e-01  3.2204699606332038e-01  3.2221254589736031e-01  3.1532731361779892e-01  3.1540415534440647e-01  3.1558895529106029e-01  3.1582297484713390e-01  3.1604949891414247e-01  3.1620571247023604e-01  3.6600847573257544e-01  3.6605031023092793e-01  3.6613401301859505e-01  3.6627075200469400e-01  3.6647366129970521e-01  3.6675465490524678e-01  3.4048512588558355e-01  3.4347308079843752e-01  3.5046637832323446e-01  3.5048108456534138e-01  3.4349157573919203e-01  3.4051217134935857e-01  3.5052848641847068e-01  3.4354677692770963e-01  3.4058899114987551e-01  3.5060701086907070e-01  3.4363645212744981e-01  3.4070162493415396e-01  3.5071571496560838e-01  3.4375873074152175e-01  3.4084250983761660e-01  3.5085404720006835e-01  3.4391176155642933e-01  3.4100321658895277e-01  3.5102188027843273e-01  3.4409241252965717e-01  3.4116677412591151e-01  2.7547219267831330e