<?xml version="1.0"?>
<VTKFile type="UnstructuredGrid"  version="0.1"  >
<UnstructuredGrid>
<Piece  NumberOfPoints="2079" NumberOfCells="9507">
<Points>
<DataArray  type="Float64"  NumberOfComponents="3"  format="ascii">3.043337470832685 3.893618346309415 2.516291880899538  3.171609049366181 3.87286483450106 2.490000571147053  3.087798057669787 3.917798524558844 2.390938770672379  3.100068746045136 3.986679719396641 2.406217108565277  3.189780426668619 3.937017967640141 2.512142779613798  3.058048653443291 3.959331837489706 2.535455499325632  3.072629858494173 4.025016123243442 2.554580916281363  3.207731134543272 4.00123690506112 2.534209508750396  3.11222365165228 4.055480385464032 2.421455740326946  3.087126577165476 4.090655244845169 2.57367948018021  3.225597639964185 4.065490386986919 2.556268225717969  3.124294686886377 4.124235852928926 2.436668903568791  3.101595944389625 4.156252966510735 2.592770270060065  3.243470314686859 4.129735858119296 2.578342823125424  3.136328223147776 4.192948788633448 2.451869455965109  3.148360327494768 4.261610757842181 2.467062592527846  3.261412337820681 4.193932759584754 2.600438559553552  3.116076457221233 4.221786456845985 2.611855269395502  3.160416617749657 4.330196412968883 2.482263537373534  3.279469054816594 4.258040411934458 2.622554988535147  3.130607439357192 4.287250560798807 2.630930292895758  3.090712136085501 3.720948950975469 2.858471074013983  3.149253561589558 3.632211317963186 2.961336979739941  3.202882518364831 3.66841312698491 2.86037832298124  3.227488149634823 3.719070485395668 2.890542470822694  3.172480080199433 3.682775090741899 2.991466372445062  3.113341558499093 3.773726093134361 2.889034653469623  3.19545415978803 3.733615942585698 3.021536846627809  3.13575723496617 3.826683752678677 2.919537227318769  3.251839391078984 3.770041893137889 2.920652016408046  3.218390403682144 3.784588513675263 3.051674619119936  3.158105088782025 3.879738052331261 2.950053740197849  3.276159564824959 3.821161216371389 2.95083428722745  3.180495774128689 3.932807249244101 2.980610974453975  3.241410688926829 3.835633470708034 3.081897534444044  3.300576306276182 3.872336294550011 2.981102492371307  3.203016931922861 3.985814794976482 3.011226752584449  3.264625488995217 3.886663547692261 3.11221340607416  3.325206424991556 3.923480998744662 3.011479768218424  3.225730989058279 4.038675465531924 3.041908240934304  3.288163292535236 3.937573950981149 3.142660948434879  3.350155324002604 3.974470379633787 3.041989149737127  2.986277671797887 3.592598128501711 3.137398683642794  3.041567774085228 3.496060869518975 3.247244131348483  3.115823031504233 3.536779643129708 3.140938818518286  3.135990855060174 3.586671188653702 3.172534161838594  3.059474701957411 3.544511635526056 3.28258735655184  3.006577463119065 3.642490950397726 3.17065842148482  3.077152020521054 3.593136194949722 3.317906482004051  3.026660367657235 3.692569711959859 3.203866847965311  3.155911798948797 3.63681525168885 3.204114823865409  3.094785876144126 3.641860323570544 3.353308462808317  3.046696776724841 3.742734425224227 3.237124787338001  3.175786966340119 3.687094011344705 3.235779187714699  3.112468595399797 3.690644992222295 3.388783298753195  3.066776213068878 3.79293395446035 3.270434493832522  3.195735297288416 3.737457363154048 3.267528488038144  3.130283361406509 3.739450132047952 3.424324921882187  3.086990304243241 3.843112908877038 3.30380329963597  3.215863688299354 3.787853571899883 3.299369851968494  3.107414666325414 3.893207575615107 3.337237100753099  3.148323902198049 3.788235497488218 3.459942637152615  3.236281317623143 3.838223817029808 3.331303325889435  2.457681039307306 3.177300804202682 3.713222133004824  2.567849147028682 3.083018267300357 3.75198258841404  2.590341529485928 3.213873630317342 3.661497006504904  2.60090012913469 3.249464845158539 3.712722964332955  2.575126622789554 3.114423464983571 3.806722623786356  2.467285455235374 3.209579268583147 3.767216473831435  2.611334632854301 3.284995701796586 3.763953133094765  2.582334057888241 3.145692711488134 3.861447793641705  2.476801484453094 3.241781230455645 3.821186326880353  2.621697481417077 3.320484438545936 3.815156349990385  2.589479696152853 3.176894722636561 3.916115386543975  2.486265143808692 3.273934933506568 3.87510478782346  2.632052035717146 3.355932473458534 3.866341259518582  2.596592420115246 3.208061873392251 3.970719604398445  2.495721073131345 3.306042673784063 3.928984246774728  2.642430446163439 3.391365230062704 3.917496730143569  2.603703148309897 3.239219130322692 4.025260457723222  2.505191086827672 3.338129438286027 3.982820157650221  2.652872252552539 3.426806851918021 3.968608573809208  2.610833827829158 3.270402415125449 4.079726491933632  2.514702936554919 3.37021393799392 4.03660389258911  2.820731287567142 3.508943699533167 3.327927496788878  2.900762578416398 3.559716878095457 3.238164094334091  2.787991127870957 3.621125335142153 3.214631296558807  2.806989393869743 3.670162074058966 3.251845732481587  2.919302513688376 3.60798915781226 3.27509769678997  2.838114047179361 3.554902916448249 3.367917369153992  2.825827421804375 3.719309669217432 3.289024950603445  2.93764902359691 3.65643289615987 3.31200252896593  2.855296315272914 3.600991618194576 3.407870075934251  2.844613311835037 3.768483358076458 3.326219063995225  2.955960719983703 3.704929591342174 3.348951677607486  2.87242110453756 3.647116010318209 3.447858209389945  2.863412772920471 3.817641958491854 3.363431172080416  2.974309257283959 3.753444727146863 3.385945649045448  2.889562203156963 3.69324617556362 3.487879651301826  2.882283645002977 3.866746905644245 3.400665040759265  2.992773028971054 3.801943055565843 3.422990129571316  2.906792727924162 3.739352215305968 3.527932392218974  3.011434131106305 3.850387007097149 3.460089013368075  2.924191161236933 3.785400230082424 3.56800951892843  2.901291639773018 3.915743947142503 3.437925105508757  3.037485104277719 3.052623679266858 3.714879405338707  3.082324273738312 3.155723522484229 3.620614626364137  2.970723469998635 3.130412042594987 3.659299660152511  2.977085442483511 3.170939977879879 3.707417645847115  3.089162560401963 3.198854196640382 3.666480383871189  3.041633667669929 3.092978050232251 3.764288744833563  3.045695164146265 3.133167932617154 3.813800167860077  3.09586961535733 3.241899636525011 3.712462581173241  2.983343904863409 3.211365737911699 3.755630700739235  3.049672209444761 3.173290722842612 3.863342709545708  3.102485842976654 3.284931330079036 3.758513191664669  2.989517721303178 3.251754420373655 3.803873672731271  3.053593292385719 3.213406763391983 3.912879829065953  3.109062614872809 3.328000806445415 3.804599448599834  2.995655969547755 3.292148415522258 3.852130341234437  3.115649401439921 3.371155587639342 3.850696800849141  3.057492253392887 3.253571548804204 3.96237766228496  3.001793329046811 3.332599721435746 3.900384162294184  3.12229575057787 3.414446035905609 3.89677721666129  3.061395772344254 3.293847592279364 4.011794354933333  3.007969237482556 3.373171165043966 3.948619686859945  2.443970551580863 3.315833054864698 3.625001279771995  2.577792285708411 3.352077734889897 3.565616105753654  2.591492855817802 3.390173393331451 3.614716143149491  2.456705202875945 3.351409060035616 3.676487062958095  2.469306107946542 3.386968109096926 3.727929621204423  2.605039451820419 3.428292687566302 3.663798687103273  2.481860702886153 3.422479559534562 3.779344623129396  2.6185278302103 3.466386517497785 3.712878072323193  2.494413209554226 3.457945512822089 3.830734721668238  2.632016661103395 3.504449198062361 3.761953676715981  2.506997798686751 3.493373834928133 3.882093355433254  2.645556551703366 3.542485400040501 3.811016556495593  2.519656191426783 3.528768772135739 3.933407553576109  2.659204115533098 3.580489152328511 3.860048916094354  2.263739095604346 3.989393029589581 2.675945984533044  2.353332177045723 3.994619097826134 2.592558501573133  2.256276178222203 4.015416106807783 2.526298349788457  2.264968825426187 4.082125262391201 2.536177822936178  2.362181260409959 4.061099769480291 2.604097458431347  2.271501186037751 4.054915535039754 2.690033470458574  2.370953939071256 4.127457379380338 2.615659680856523  2.279208577712434 4.120307232794939 2.70411118756  2.273557138964084 4.148675326484358 2.546076117649395  2.37967178116498 4.193684129113223 2.62721700500717  2.286867058172065 4.185550555348672 2.718165349011371  2.282081941706424 4.215086121270216 2.555969156549196  2.38835590426643 4.259788413870996 2.638759640997301  2.294495572600272 4.250657298503577 2.732199004058616  2.29057960994721 4.281364681450384 2.565847390619986  2.302112217365663 4.315644889956825 2.746210558234514  2.39702612923506 4.325764659646089 2.650276687471055  2.299075905012622 4.347511951149433 2.575701648977112  2.309755593434202 4.38051575762164 2.760168831391613  2.405725256870031 4.391619731732896 2.661740250436861  2.307613155229197 4.41352349930434 2.585508145750961  3.076298985872936 3.38457634063014 3.374025248217059  3.162501659847572 3.430754102287368 3.280543500950255  3.179665916933239 3.480032388314424 3.31429244015428  3.090823460682293 3.432001739379634 3.411743414161654  3.196592179572094 3.529539707707255 3.348117492912951  3.105141203170959 3.479557077378597 3.449513681526354  3.213458199353285 3.579183532035726 3.382056177927662  3.119392720160763 3.527194643476439 3.487374592605122  2.763697831002166 3.80656762028744 2.924302968967245  2.937841376857757 3.745683902424954 2.924913756808267  2.864841965034201 3.817713144340849 2.839041648790874  2.882830809276775 3.876076891256537 2.866633481769498  2.958527547519826 3.799981706566086 2.955295621813418  2.782259133316284 3.863797288864566 2.952854799841286  2.900656232552805 3.934441026662773 2.894151159603251  2.979001729636716 3.854389493958998 2.985598182607595  2.800646822256732 3.921021146388345 2.98133106196736  2.918395470011302 3.992781882119343 2.9
[...]
<PointData  Scalars="f_14"> 
<DataArray  type="Float64"  Name="f_14"  format="ascii">7.7493185972834266e-01  7.6369370793741864e-01  7.7245054404879321e-01  7.7250875781585771e-01  7.6371581114748865e-01  7.7495633275903431e-01  7.7503718031959290e-01  7.6378892052072977e-01  7.7265928302727682e-01  7.7513792884077115e-01  7.6387850878731622e-01  7.7282884091865556e-01  7.7522463032678224e-01  7.6396125382335245e-01  7.7297440897033565e-01  7.7306183327314992e-01  7.6401541835273257e-01  7.7527020442467143e-01  7.7305160135492368e-01  7.6401618937146898e-01  7.7527094784015049e-01  7.6531926137279405e-01  7.5811563344198829e-01  7.5435010268760028e-01  7.5433757239171495e-01  7.5811437234069745e-01  7.6532349355241336e-01  7.5810417734785307e-01  7.6533449236935081e-01  7.5431003784624329e-01  7.5810049644818067e-01  7.6535942626515496e-01  7.5428802733031031e-01  7.6541123643773556e-01  7.5812854743519165e-01  7.5430221800405972e-01  7.6550052935316582e-01  7.5821490534366875e-01  7.5438282223830533e-01  7.6562848444642861e-01  7.5838317600819305e-01  7.5455246111198471e-01  7.7150292976786239e-01  7.6510351047866243e-01  7.5919782332193497e-01  7.5920997646243105e-01  7.6511689487363621e-01  7.7151298792912937e-01  7.6514078987133227e-01  7.7152994765892668e-01  7.5923016204966653e-01  7.6517528903400900e-01  7.7155882983688473e-01  7.5925904602715111e-01  7.6522849066043130e-01  7.7161668428329289e-01  7.5931211655166930e-01  7.6530989249376247e-01  7.7172136631838739e-01  7.5940526115567508e-01  7.7188736610979358e-01  7.6542803311462082e-01  7.5954387696641290e-01  8.1246500561301760e-01  8.0190153378058193e-01  8.0104089503314679e-01  8.0104138985621887e-01  8.0188386803764256e-01  8.1244829146746933e-01  8.0101506736103656e-01  8.0183438540974050e-01  8.1239765401919450e-01  8.0098343382367654e-01  8.0177249758571911e-01  8.1234052976158033e-01  8.0096406248549867e-01  8.0171622390655950e-01  8.1230127548658182e-01  8.0097744190696241e-01  8.0168407978513256e-01  8.1230706625805049e-01  8.0104100436255876e-01  8.0169286291781339e-01  8.1238779556968621e-01  7.8450974939573370e-01  7.7846623496643286e-01  7.8920254469400686e-01  7.8920710249967596e-01  7.7847367387789468e-01  7.8451005506890148e-01  7.8921776075894157e-01  7.7850058847924808e-01  7.8451165109913934e-01  7.8924006909378042e-01  7.7854271170614253e-01  7.8451993303733858e-01  7.8928924385590093e-01  7.7861186918382286e-01  7.8455204212344720e-01  7.8937788248644980e-01  7.7872021314458506e-01  7.8462822085589123e-01  7.7887673938136737e-01  7.8476594354009188e-01  7.8950772017222726e-01  7.5998674231355290e-01  7.5699534865915052e-01  7.6668962770553972e-01  7.6668891466513922e-01  7.5698502848329063e-01  7.5996659651847132e-01  7.5992394112765982e-01  7.5695427343735044e-01  7.6667751963997210e-01  7.5985378377424451e-01  7.5689999696261678e-01  7.6665355609146368e-01  7.5975181761936805e-01  7.5682096550995526e-01  7.6661049735680398e-01  7.5671369186628290e-01  7.5961115489767883e-01  7.6654136731980715e-01  7.5657395057611498e-01  7.5941788041288449e-01  7.6644237151877004e-01  8.1497815964120512e-01  8.0365799782653302e-01  8.0363259362133355e-01  8.1495284430798542e-01  8.1488587282743219e-01  8.0359004645259402e-01  8.1480924072622685e-01  8.0354480252179461e-01  8.1475647127882878e-01  8.0352029979206629e-01  8.1476135486002621e-01  8.0354285254520097e-01  8.1485591494114762e-01  8.0363342886282163e-01  8.3970553284048699e-01  8.3249053271407525e-01  8.4065126996969175e-01  8.4062842230984325e-01  8.3247855488276312e-01  8.3970000334536332e-01  8.3245200606393099e-01  8.3968709453538770e-01  8.4055951388962535e-01  8.3240978002010002e-01  8.3965955689166083e-01  8.4046285678964205e-01  8.3235249849536719e-01  8.3961822638754868e-01  8.4035309985107232e-01  8.3956366185751141e-01  8.3228045173263931e-01  8.4024400453136483e-01  8.3948475161855529e-01  8.3219298521959384e-01  8.4015182394084920e-01  7.6035105055965146e-01  7.5340060044215529e-01  7.5338597634491056e-01  7.6035321071463591e-01  7.5335192628824721e-01  7.6036151936887153e-01  7.5331357139061073e-01  7.6037125173234910e-01  7.9485444251702730e-01  7.7888269165942670e-01  7.8684065308601170e-01  7.8686258091729133e-01  7.7888761658814465e-01  7.9483882992640575e-01  7.8690859192440277e-01  7.7890011774767542e-01  7.9480268170036383e-01  7.8696592854588154e-01  7.7892659179270141e-01  7.9476832299851452e-01  7.8703207387720642e-01  7.7897669118855994e-01  7.9474681854434504e-01  7.8710327765376475e-01  7.7905846727255668e-01  7.9474783350237732e-01  7.8716770783934964e-01  7.7917079844484372e-01  7.9479078720442808e-01  7.9406520328918850e-01  7.8516287693969111e-01  7.9458016732788483e-01  7.9459826795106436e-01  7.8517537470556942e-01  7.9407769840641751e-01  7.9411214826325927e-01  7.8521236937284045e-01  7.9464303744157772e-01  7.8525012774135494e-01  7.9414140535244515e-01  7.9468411220759783e-01  7.9413755965600796e-01  7.8526285306426791e-01  7.9469277351949674e-01  7.9407579248313398e-01  7.8522734926848314e-01  7.9464440058472641e-01  7.9393951847723521e-01  7.8513548354045581e-01  7.9451736270199247e-01  7.8721909153284009e-01  7.8721630536214870e-01  7.8721635247086319e-01  7.8722701148061003e-01  7.8726193960365942e-01  7.8733298405424412e-01  7.8744133855347653e-01  8.9638257362499474e-01  8.8623749831328391e-01  8.8580518038600287e-01  8.8581178032990182e-01  8.8624231902019712e-01  8.9639556104962625e-01  8.8583262886626102e-01  8.8626163133266633e-01  7.9823035523862540e-01  7.9156367562491214e-01  8.0195037872472230e-01  8.0195401020208013e-01  7.9155269058071809e-01  7.9822100876836977e-01  8.0196889857971032e-01  7.9151438567620991e-01  7.9821010365245693e-01  8.0199129825560267e-01  7.9147637096930223e-01  7.9820243068685814e-01  8.0203715503959627e-01  7.9146209413086843e-01  7.9821542625451625e-01  8.0211939963823420e-01  7.9149601602512176e-01  7.9826777751631595e-01  8.0223636246644614e-01  7.9161180928424668e-01  7.9836734060771730e-01  7.9497555449870327e-01  7.8487034379426557e-01  7.9428488570866496e-01  7.9429700269955938e-01  7.8489824990536305e-01  7.9498895986994011e-01  7.9432470919714127e-01  7.8497644377755749e-01  7.9500199174181141e-01  7.9434801243899145e-01  7.8506964696362325e-01  7.9501043053725806e-01  7.9435039677275909e-01  7.8515000266024682e-01  7.9500717062638060e-01  7.9431709987903198e-01  7.8519732110464846e-01  7.9498632522940638e-01  7.9423827285042825e-01  7.8519203720130271e-01  7.9494641457041659e-01  7.7646099512853828e-01  7.6527084548060997e-01  7.7541253082466266e-01  7.7545520448992633e-01  7.6527837565094115e-01  7.7648197698340526e-01  7.7554296259473954e-01  7.6529169501056216e-01  7.7650934339216005e-01  7.7565027587889002e-01  7.6532041188076616e-01  7.7655303915670437e-01  7.7575322113529976e-01  7.6536962338470127e-01  7.7661155800943427e-01  7.7582901609140897e-01  7.6544033379215892e-01  7.7668302314867999e-01  7.7585990387302661e-01  7.6552775304431042e-01  7.7677074749922681e-01  7.7090627774047404e-01  7.7088919386675103e-01  7.7085086873639053e-01  7.7079434454874574e-01  7.7071822277985158e-01  7.7062249003883088e-01  7.7050617594439463e-01  8.2295819547742532e-01  8.2276622216304274e-01  8.1293081722181537e-01  8.1293171802566577e-01  8.2275919291995836e-01  8.2294581333959738e-01  8.1293268878711511e-01  8.2273678153601892e-01  8.2290946608123217e-01  8.1291984202932377e-01  8.2269835228260946e-01  8.2285094419778626e-01  8.1288057063053010e-01  8.2264063382972985e-01  8.2276982186931125e-01  8.1280383721899185e-01  8.2256182205027528e-01  8.2266685547984031e-01  8.1267769135389079e-01  8.2246593622530861e-01  8.2254800455188903e-01  7.6834991414195730e-01  7.6835356353178608e-01  7.6835658324465794e-01  7.6837189572270626e-01  7.6841723001555029e-01  7.6850937136861774e-01  7.6865991506845854e-01  7.7712981212839072e-01  7.6711409180792633e-01  7.6554142755997545e-01  7.6552639067875439e-01  7.6711092877004128e-01  7.7713656753823990e-01  7.6550862981534751e-01  7.6712200603600944e-01  7.7715976836263911e-01  7.6548757592615480e-01  7.6713459148257135e-01  8.4253053875108930e-01  8.3936106372151220e-01  8.3252849944505103e-01  8.3249649400454484e-01  8.3932527360007847e-01  8.4248942285337924e-01  8.3241574267856133e-01  8.3922526268093167e-01  8.4237856039654002e-01  8.3229847022819570e-01  8.3908636181403884e-01  8.4222624286243786e-01  8.3215562833178203e-01  8.3892806287327593e-01  8.4205373008922157e-01  8.3199816480077859e-01  8.3876952775331903e-01  8.4188124618894644e-01  8.3183598081281085e-01  8.3863718376775809e-01  8.4173520313654371e-01  7.7661339797372042e-01  7.7661175598995558e-01  7.7660181598763700e-01  7.7658354628700121e-01  7.7655778555266097e-01  7.7652789953777401e-01  7.7650197212556837e-01  8.2373337504597732e-01  8.2371091704471133e-01  8.2362947376628359e-01  8.2353623789386787e-01  8.2347218643916920e-01  8.2347722707074145e-01  8.2359154758484499e-01  7.4266971179876573e-01  7.3978636550171284e-01  7.5212701267411830e-01  7.5212105550716557e-01  7.3974153199768156e-01  7.4264026198042887e-01  7.5208662571454998e-01  7.3964849041239711e-01  7.4255209602433137e-01  7.5205601549409251e-01  7.3954939440664480e-01  7.4245111057582902e-01  7.5205000201882233e-01  7.3950089434151034e-01  7.4239865426627660e-01  7.5208244088038756e-01  7.3954556580588171e-01  7.4244837739768099e-01  7.5215914193088607e-01  7.3968149312308029e-01  7.4262120782310026e-01  8.3106943218036877e-01  8.3128762928718569e-01  8.3127728285945035e-01  8.3105116746528185e-01  8.3124609024715512e-01  8.3099664716170607e-01  8.3119337262442750e-01  8.3091469046312716e-01  8.3112316797931907e-01  8.3081263802783978e-01  8.3103944300673527e-01  8.3069774546973019e-01  8.3094009236189503e-01  8.3057835018313375e-01  8.2621213082435607e-01  8.2619504594787352e-01  8.2614711318072320e-01  8.2609834716226327e-01  8.2607853398463604e-01  8.2611552066679939e-01  8.2622742535437743e-01  7.9549060371427616e-01  7.9547721428375062e-01  7.9545034338308862e-01  7.9542811144361236e-01  7.9543307780487582e-01  7.9548874756043531e-01  7.9561181193143860e-01  7.7539100434817287e-01  7.6749655537314709e-01  7.7849480019627992e-01  7.7850243244362483e-01  7.6748756909057259e-01  7.7539437698471436e-01  7.7853200524025090e-01  7.6748095014213225e-01  7.7541623299391793e-01  7.7857336653136600e-01  7.6747652565489810e-01  7.7544604895532909e-01  7.7863022342416266e-01  7.6747725147391710e-01  7.7548039710419281e-01  7.7870889655681197e-01  7.6748776920578743e-01  7.7552040200003192e-01  7.7881008626906345e-01  7.6751380494170240e-01  7.7556381880114078e-01  7.8472995459930017e-01  7.8475403349373607e-01  7.8482732957559320e-01  7.8491054108470193e-01  7.8497326807380496e-01  7.8499009225687089e-01  7.8494291422112783e-01  8.3692123584368416e-01  8.3158931041763962e-01  8.4080225398303732e-01  8.4079699088767179e-01  8.3160844870544215e-01  8.3692289557049082e-01  8.3694015289033097e-01  8.3163120665899459e-01  8.4077775961631629e-01  8.3696209410305278e-01  8.3165214720245406e-01  8.4075520423632522e-01  8.3698805133123588e-01  8.3167505523308494e-01  8.4072907659443086e-01  8.3701938775815621e-01  8.3170252997963046e-01  8.4070126098717601e-01  8.3705087882988316e-01  8.3172778132901282e-01  8.4068025200054053e-01  7.5663407123918436e-01  7.5663157663300995e-01  7.5663181781767241e-01  7.5664119114984518e-01  7.5668332087211720e-01  7.5677769680886031e-01  7.5692269474269691e-01  7.7153334397631490e-01  7.7154641317319561e-01  7.7157713038452203e-01  7.7162052665347070e-01  7.7167966843117575e-01  7.7175909927790987e-01  7.7186179301588342e-01  8.4744531974463655e-01  8.5150960896074068e-01  8.5152204241791407e-01  8.4745522435055098e-01  8.4746703566749593e-01  8.5154941031894293e-01  8.4747848056182540e-01  8.5157438555479681e-01  8.4748448044315450e-01  8.5158624421064111e-01  8.4748150569756897e-01  8.5157530800663161e-01  8.4746963493857130e-01  8.5152607054305540e-01  8.4840637857646883e-01  8.4837707164231646e-01  8.4829815811920883e-01  8.4819497026392310e-01  8.4807953782463907e-01  8.4796346200788897e-01  8.4786432272637080e-01  8.1760313298263365e-01  8.2995887592750250e-01  8.2994245987963911e-01  8.1758966090323026e-01  8.1754644052264702e-01  8.2989769221611320e-01  8.1750037971861111e-01  8.2985200414724936e-01  8.1748186213106122e-01  8.2983371009473594e-01  8.2986656171511874e-01  8.1751856118552191e-01  8.1763517335991698e-01  8.2997075407552057e-01  7.6038672717110711e-01  7.6041579914570268e-01  7.6045979445451928e-01  8.0947281461375553e-01  8.0947217202267818e-01  8.0945409615396269e-01  8.0943834019388772e-01  8.0944552201636422e-01  8.0949447172145239e-01  8.0960442017086653e-01  8.0084531932996172e-01  8.0083744846548399e-01  8.0081252193532848e-01  8.0079052373969040e-01  8.0079221728176830e-01  8.0083306241707308e-01  8.0091822385577971e-01  8.2251459002130867e-01  8.1814724992560528e-01  8.1280640834776552e-01  8.1280221445342360e-01  8.1813600823080024e-01  8.2251500063594185e-01  8.1810382574406282e-01  8.2250562435810837e-01  8.1278920891058970e-01  8.1807344370099244e-01  8.2249772145184019e-01  8.1277895395721889e-01  8.2250173923270420e-01  8.1806998683063503e-01  8.1278947323099571e-01  8.2252822291234062e-01  8.1811443670681971e-01  8.1283273781546628e-01  8.2260166104348376e-01  8.1822267343633293e-01  8.1289744566093847e-01  7.5407396174396701e-01  7.5406731809120864e-01  7.5402793623907127e-01  7.5399430777217957e-01  7.5399644038995928e-01  7.5405706992990917e-01  7.5417875333690587e-01  7.8367083438598006e-01  7.8366467272676188e-01  7.8363952611980336e-01  7.8362336103800401e-01  7.8363668620022453e-01  7.8370017304887873e-01  7.8384055351685344e-01  7.7485334895440783e-01  7.6122699772244617e-01  7.6503814148009064e-01  7.6501695776928225e-01  8.0512757187415707e-01  8.0514225245112181e-01  8.0518063287688757e-01  8.0520866885145548e-01  8.0519833140385000e-01  8.0511868048206814e-01  8.0493370565339195e-01  7.8244294302181872e-01  7.8241669535569924e-01  7.8236009235298398e-01  7.8228656205494007e-01  7.8220658983873592e-01  7.8213195314220108e-01  7.8207314720350596e-01  8.6224038170046380e-01  8.5795489141013948e-01  8.5797090925456221e-01  8.6224553579290475e-01  8.5800559569907142e-01  8.6223695584062210e-01  8.5804037398012678e-01  8.6221860693430941e-01  8.5806282948328028e-01  8.6218602480594886e-01  8.5806098780818862e-01  8.6213651003550607e-01  8.5801872205447549e-01  8.6207728751630330e-01  8.0384690415675486e-01  8.0384313691983544e-01  8.0383324859866234e-01  8.0381347147937698e-01  8.0377507814599436e-01  8.0371140064376845e-01  8.0362237185201835e-01  8.5054412443501348e-01  8.5051226190980456e-01  8.5042760242451587e-01  8.5030627611997645e-01  8.5017065225446264e-01  8.5004095521186551e-01  8.4992704015481479e-01  7.8559552036807956e-01  7.8563071556332187e-01  7.8570175042283430e-01  7.8578661271610406e-01  7.8587050122487456e-01  7.8593920389807159e-01  7.8596206758866960e-01  7.5021235639127348e-01  7.4705436582135998e-01  7.4704525677777389e-01  7.5021599586088816e-01  7.4702741219658375e-01  7.5023032765638720e-01  7.4701436222360307e-01  7.5025517537361208e-01  7.4703882643861197e-01  7.5030804053879574e-01  7.4713656162375774e-01  7.5040946915154738e-01  7.4734706285441221e-01  7.5058000261079771e-01  7.4742904774525709e-01  7.3505913213626628e-01  7.4402072190050417e-01  7.4746598780587858e-01  7.3507188016158287e-01  7.4403413632688686e-01  7.4750794564593170e-01  7.3508665617277125e-01  7.4406396586417278e-01  7.4755509336957982e-01  8.4034849600338690e-01  8.4031647574130108e-01  8.4023384391185962e-01  8.4012140624132858e-01  8.3999482392257740e-01  8.3986963528261183e-01  8.3976434256238086e-01  8.3542559340810052e-01  8.3541287821760779e-01  8.3538086235159459e-01  8.3535077875354780e-01  8.3534420785666152e-01  8.3537925952554470e-01  8.3546938154847417e-01  8.2788833064135670e-01  8.2785055555011822e-01  8.2777846589981696e-01  8.2771220111751531e-01  8.2766960036753634e-01  8.2767007840016715e-01  8.2774551996982426e-01  7.8607904971234144e-01  7.8607080099327775e-01  7.8605507200154301e-01  7.8604018452129021e-01  7.8603772219909629e-01  7.8606477595906254e-01  7.8614991867191808e-01  8.3827949108895450e-01  8.3827444547576713e-01  8.3824111532213441e-01  8.3820770021880064e-01  8.3819689864636582e-01  8.3822804039622245e-01  8.3831638038117362e-01  8.6751039180173661e-01  8.6750419053364058e-01  8.6748619332640042e-01  8.6746194202686577e-01  8.6742774335693495e-01  8.6738121276286650e-01  8.6732926848205305e-01  8.0666009730087807e-01  8.0663829276225330e-01  8.0657301486161148e-01  8.0650701626216248e-01  8.0646778523908580e-01  8.0647942766000691e-01  8.0656881683466508e-01  8.6807684977297894e-01  8.7660105847673897e-01  8.6604102013010087e-01  8.6604594453882056e-01  8.7661639284325643e-01  8.6807869701309626e-01  8.6606404563043349e-01  8.7666304318790611e-01  8.6808674611405523e-01  8.6607701114750490e-01  8.7671093544377010e-01  8.6808722906383495e-01  8.6606957764796999e-01  8.7673504392214918e-01  8.6806661519327011e-01  8.6602919222962538e-01  8.7671140729155916e-01  8.6801559524694749e-01  8.6594760774536561e-01  8.7661623723415905e-01  8.6793224783162726e-01  8.2341160106505551e-01  8.2308775706831594e-01  8.1352984408402440e-01  8.1352647631191044e-01  8.2306621354407783e-01  8.2337936871214346e-01  8.1351586356617533e-01  8.2300637640234753e-01  8.2328866464408679e-01  8.1348324558080332e-01  8.2291270419902662e-01  8.2315812927471088e-01  8.1341409144649401e-01  8.2278796724463399e-01  8.2299431450002081e-01  8.1329118076225182e-01  8.2263483780180890e-01  8.2280475949971155e-01  8.1308578245010188e-01  8.2246636577598442e-01  8.2261721966584367e-01  8.4776934955772243e-01  8.4775497158276547e-01  8.4772138472818814e-01  8.4767321873760804e-01  8.4761151150746461e-01  8.4753785787550151e-01  8.4745644734954195e-01  8.3385896415065497e-01  8.3383857756911495e-01  8.3378679581758364e-01  8.3373496009131998e-01  8.3370855630744201e-01  8.3373088873998635e-01  8.3381796340354286e-01  8.7303588690221789e-01  8.6302106621608621e-01  8.6303737977660089e-01  8.7304248764312586e-01  8.6306954205902042e-01  8.7306415555562467e-01  8.6309531944051820e-01  8.7308306630011456e-01  8.6310158364892475e-01  8.7308208400304366e-01  8.6307543461701097e-01  8.7304551041114109e-01  8.6300102521859279e-01  8.7296072344948272e-01  7.6380111848297683e-01  7.6383223445903403e-01  7.6390762216759112e-01  7.6399620539606172e-01  7.6409058679062591e-01  7.6418143768765834e-01  7.6424570473869835e-01  8.0180061145136994e-01  8.0179199804639745e-01  8.0177046798955498e-01  8.0175184385651366e-01  8.0174497786624865e-01  8.0175633970744820e-01  8.0179303263586343e-01  8.4217396229080810e-01  8.4214961382597509e-01  8.4210718344531643e-01  8.4206750572932920e-01  8.4204670485270250e-01  8.4205629684004968e-01  8.4209930659029220e-01  7.9503954719897207e-01  7.9502543718853491e-01  7.9500708383762797e-01  7.9499862984612735e-01  7.9501365547785341e-01  7.9506406564828747e-01  7.9515298557872172e-01  7.8344733462487004e-01  7.8344915122440262e-01  7.8345688626779875e-01  7.8346738094634294e-01  7.8348383516485420e-01  7.8351173840101607e-01  7.8354580696847009e-01  8.4066809131556730e-01  8.4064016607937941e-01  8.4056180676775949e-01  8.4045001766382066e-01  8.4032133697987232e-01  8.4019207882515767e-01  8.4007808578981791e-01  7.8552348812036921e-01  7.7473072109431118e-01  7.8471881207682737e-01  7.8473911908969229e-01  7.7477765180971714e-01  7.8554658158275692e-01  7.8479241218189300e-01  7.7489033126112550e-01  7.8559562146984396e-01  7.7501375205626954e-01  7.8564559067883233e-01  7.8484753244554784e-01  7.7511114939843961e-01  7.8566638076002593e-01  7.8487427266342114e-01  7.7515202879353062e-01  7.8563498129397924e-01  7.8484716953213796e-01  7.7510742185360704e-01  7.8554722481867623e-01  7.8474553578055106e-01  8.0752682842918166e-01  8.1726761741264420e