<?xml version="1.0"?>
<VTKFile type="UnstructuredGrid"  version="0.1"  >
<UnstructuredGrid>
<Piece  NumberOfPoints="1004" NumberOfCells="4301">
<Points>
<DataArray  type="Float64"  NumberOfComponents="3"  format="ascii">6.339913447568934 3.449681209108572 4.543141306270696  6.223737640074126 3.534152135148025 4.449228595108988  6.337819080634379 3.585059201665868 4.429732127645279  6.235732601403165 3.486084939663082 4.387779396332474  4.861670944494636 3.165642018257675 3.969432872330497  4.972270084964597 3.243188431727228 3.934015046188039  4.857860567867924 3.284027439306707 3.855140114663827  4.837777269009974 3.339935298520955 3.905851870072503  4.955311386469166 3.297582252231833 3.989975307383427  4.842870825161622 3.215918869002716 4.028548150025074  4.938490999650435 3.351749849901056 4.045847886923026  4.824229835059772 3.265990731918052 4.087600929343006  4.817890211022088 3.395645979332228 3.956545552688279  4.921750381652297 3.405737429068002 4.101607831019436  4.805696135288549 3.315890985007071 4.146552002191843  4.798115406539701 3.451208390374647 4.007209678807024  4.905037675325085 3.459605717992267 4.157277260562692  4.787202792849564 3.365676505255861 4.205416745268582  4.778371157419731 3.506668045950752 4.057824166559065  4.888330755926765 3.513372306051767 4.21288208534404  4.768711382728425 3.415365498055563 4.264202828318795  4.758611388891127 3.562033511681428 4.108378065226894  4.750185937677251 3.464993233871438 4.322908828393242  4.871615163478406 3.567029418033611 4.268396341718221  4.738764482033834 3.617349461235469 4.15881979420285  4.755963811952966 3.55320928867869 3.144393419384071  4.823007902742329 3.555106341630957 3.256487652765234  4.893408661389307 3.603591711770878 3.128850266462325  4.874868056987044 3.665663882403504 3.139709546193596  4.801019433433549 3.616971478171557 3.270655166191208  4.733919969620834 3.612866108831938 3.156485794165069  4.856435953334105 3.727834769923489 3.150812713509319  4.779232149795428 3.678945777122737 3.285087405764902  4.712101490424113 3.672682078890457 3.168881859438726  4.838000626649798 3.790124404057205 3.162024149145082  4.757472199755759 3.741022517707266 3.299613033595397  4.690280725855395 3.732667567089998 3.181350770002287  4.819492048211599 3.852500976423631 3.173220106109538  4.735635089472883 3.803163917499305 3.31412535642938  4.668347070175083 3.792778723417174 3.193783467648143  4.800857293718729 3.914917367703012 3.184300195057684  4.713635193831054 3.865318835747629 3.328532429118347  4.646207149392318 3.852960141051493 3.206090598904638  4.782066214560719 3.977317500786588 3.195179943447914  4.691397741995742 3.927412837355647 3.342751538538561  5.141563786684137 3.607884958165014 3.454101691302056  5.131607342116907 3.632093277006738 3.318290031878065  5.034061699394991 3.600039508988027 3.35168706989639  5.015075259735809 3.666329458205038 3.367088171994258  5.118240100753837 3.700374677759064 3.331174099472396  5.127120676155678 3.676424044843346 3.476569684830307  4.996238644968346 3.732527438912947 3.382704890668565  5.104834610466369 3.768553401121352 3.344321149277741  5.112674330468192 3.744825674673646 3.499198148441698  4.977435780583378 3.798690728058967 3.398413335253037  5.091420066725593 3.836723916054514 3.357559764078015  5.098228287823832 3.813176513773776 3.521878809410847  4.958612864066199 3.864838438458762 3.414116663213687  5.078002514346644 3.904904835865461 3.370780748391535  5.083789858987656 3.881492105238701 3.544536830902548  4.939730956992913 3.930944200712113 3.429736259819717  5.064588047457876 3.973068578380451 3.383903837440273  5.06936089540826 3.949751355451172 3.56711351227702  4.920755354417397 3.996957330771687 3.445215012390612  5.051188904225163 4.041156424271324 3.396858541613056  5.054945715052977 4.017916725079623 3.589557762523545  4.784144980621432 3.485671612285435 3.45687335956238  4.841071317280245 3.462078614843557 3.566219359931563  4.916214723402724 3.517965661338521 3.487063138971584  4.894636322088134 3.58213410495681 3.511649608454082  4.818536896831895 3.525253041910273 3.594851564616653  4.76111106295649 3.548628156473965 3.478597421984775  4.873296624824 3.646215672254258 3.536405325926165  4.79626678684129 3.588358774837573 3.623674053667525  4.738333074521126 3.611619443331766 3.500584857115991  4.85205396676342 3.710248509563173 3.561241305030447  4.774104035507135 3.651427672638234 3.652583190019798  4.71563207454102 3.674655229933718 3.522678568251663  4.830808482459637 3.774241027262933 3.586084535179738  4.75193509343287 3.714464111692654 3.681502512208742  4.692889065507056 3.737706429967621 3.544778534158227  4.809491811482202 3.838175132374938 3.610877989180371  4.729675414918135 3.7774522748105 3.710371765473443  4.67001893389753 3.800729843685116 3.566816375741401  4.788007751524738 3.902015115120582 3.635521318451348  4.707214981538125 3.840361804035218 3.739069994470376  4.6469161414542 3.863680309963332 3.588655237552126  6.244042745678076 3.97437786696588 3.977362752051372  6.320795664815916 3.884006767424091 4.126216691744807  6.199538343552494 3.868780152301651 4.067229676585769  6.272404573011869 3.926747952435702 3.930271804744632  6.223432167198774 3.818799137081181 4.019120782896769  4.811838305723025 3.024724208560088 4.429553671604862  4.698804725811061 2.958912158068382 4.426689940443635  4.699481378656864 3.114775990185873 4.358548642044113  4.718079313126815 3.078206883568674 4.289344750831379  4.681917254173616 2.987184808768298 4.500396712526944  4.795680658561731 3.054914890332392 4.503271706126814  4.680920575898103 3.151252873587237 4.427656370468948  4.665082081952102 3.015381773395975 4.574013989745858  4.779576399484184 3.085034892692964 4.576900586599  4.662373674589428 3.187661177574714 4.496677503771427  6.036925063298849 3.325665305805135 3.948879031594727  6.139510186106941 3.393549903502258 3.898628809491469  6.023315434785519 3.427716843128333 3.83406653399822  6.014928061336167 3.485051682668971 3.881309750645006  6.126326439805648 3.448526257826928 3.948664802086544  6.027724090049699 3.380785552026619 4.001852129739587  6.113198378997019 3.503372065363345 3.998851315233907  6.018490741028033 3.435754179628387 4.054981688597481  6.006464929059096 3.542268013039847 3.928751956499831  6.100143810109377 3.558182327102581 4.049095695292842  6.009302609892154 3.49069230356934 4.108156108431808  5.998032213705176 3.599470262526669 3.976260812664206  6.087144595034366 3.613011351178941 4.099357454256942  6.000163939369449 3.545641119908407 4.16133540754009  5.989653727131913 3.656719923314656 4.023792206235638  6.074171626168662 3.667902002189677 4.149625342155927  5.991076211008658 3.600639213341005 4.214505867095424  5.981340323292806 3.71408638910651 4.071331382248673  5.982037704672569 3.655759117243089 4.267663253345026  6.061142171429812 3.722923645058824 4.199871967625065  5.973164303266234 3.771676036316135 4.118867228847909  4.957443713818196 3.599619236230561 3.247014712570776  5.053124099668478 3.625618449421543 3.244921279098925  5.029571202844509 3.641536031203499 3.121576171177958  5.01499900844974 3.705873672330455 3.129904769544825  5.035971669594482 3.691072257710428 3.257250285499532  4.938886157812393 3.663803898495969 3.259883873244601  4.920455928132759 3.728015374252478 3.273007626748273  5.01888301328546 3.756479415794909 3.269838704341514  5.000412820778481 3.770295848733658 3.13853990224138  4.902042230129574 3.792267947643069 3.286242642276604  5.001797651561455 3.821912126234277 3.282535342294943  4.98580945021809 3.834816472278533 3.14728399165809  4.971175093328397 3.899422247984714 3.156007496671345  4.98469190241593 3.887372274994412 3.295223261852372  4.883585204398353 3.856551597323082 3.299479148785619  4.956490093282854 3.964082805728052 3.164600251630291  4.967544582295251 3.952819482429025 3.30780863093729  4.865034110066579 3.920824456004417 3.312613650784598  4.941723089172491 4.028751222275219 3.172955094326924  4.950303865268446 4.018174496232211 3.320198710480883  4.846350752119241 3.985042274598974 3.325556519031183  5.333988220984716 3.327329082185125 3.918637670183334  5.340622060329455 3.206602620425482 4.027014750522026  5.467970983909649 3.274239517364428 3.972516233967275  5.467154703115167 3.327600272351413 4.034242165492609  5.33667765219655 3.257224435470595 4.09206299028449  5.329159295170447 3.384519524911183 3.97573262216984  5.332611211674863 3.30768954241904 4.156969616876287  5.324208342030557 3.441513478224366 4.03271146770862  5.4661278882544 3.380782968382481 4.095852748744353  5.319209213898779 3.498363068483177 4.089607514475073  5.328492980915391 3.358003755979651 4.221730815164648  5.465033490024608 3.433847318589553 4.157400289626328  5.314223100292713 3.55509697289168 4.146423947869322  5.324380193684424 3.408208871861408 4.286401789991188  5.46395087696999 3.486818820940433 4.218879340806899  5.309295871324895 3.611731771679422 4.203158732142852  5.320332828301538 3.458311330595356 4.350988794856218  5.462956363997549 3.539717568263271 4.280285421287611  5.304493441251951 3.66824681487083 4.259821038568009  5.316420694018031 3.50828315564818 4.415513800078958  5.462140715252784 3.592519496768709 4.341620858581044  4.624431960084075 3.611692622348991 3.607092954641163  4.511261181987164 3.530809161347447 3.679000196364032  4.489782888037382 3.577259562873823 3.529292578102684  4.535003345058853 3.470396270988338 3.648225426005976  4.648353626262817 3.549904487914835 3.580574814778371  4.466362251074007 3.638621332075308 3.552225132694328  4.600462699123515 3.673517113195103 3.633622412716275  4.487475140901598 3.591281292121835 3.709787667174968  4.442723601357613 3.700051590722528 3.575033898693843  4.57633587181857 3.735342156858084 3.660076611313305  4.463542479614536 3.651786705607908 3.740501724888387  4.418718405458982 3.761513371620975 3.597606771513857  4.551898324272516 3.797126358646281 3.686304098860703  4.439271994437892 3.712296112117296 3.7
[...]
<PointData  Scalars="f_14"> 
<DataArray  type="Float64"  Name="f_14"  format="ascii">4.8500282325326416e-01  4.9303683754463440e-01  4.8345007809020779e-01  4.9299423304569423e-01  6.0281224703043690e-01  5.9369820511586002e-01  6.0345268241657468e-01  6.0346021335769107e-01  5.9369992895667323e-01  6.0280743344635346e-01  5.9370170849777015e-01  6.0278456691050120e-01  6.0345050677536149e-01  5.9368138626001543e-01  6.0274099362427336e-01  6.0341700778429486e-01  5.9362841878371642e-01  6.0266078613375174e-01  6.0334749695577794e-01  5.9353293991796729e-01  6.0253250354794641e-01  6.0323095808515881e-01  6.0236006132920017e-01  5.9338035278341561e-01  6.0306564264783724e-01  6.1949414669259073e-01  6.1201308212096406e-01  6.0687590916272605e-01  6.0687105292226196e-01  6.1201456390087061e-01  6.1950211862003612e-01  6.0685562883178024e-01  6.1202200818895913e-01  6.1952519180584531e-01  6.0681046911565972e-01  6.1200741823333260e-01  6.1953558860000035e-01  6.0671617447492121e-01  6.1194082475020772e-01  6.1949796091226672e-01  6.0655659269895001e-01  6.1179475746749679e-01  6.1937966973483938e-01  6.0632031249589036e-01  6.1154976882997281e-01  5.8156795083442248e-01  5.8358092792483596e-01  5.9218176494534958e-01  5.9221599217794407e-01  5.8358260410718787e-01  5.8159998391184986e-01  5.9230716359636937e-01  5.8357049513518788e-01  5.8162065500727977e-01  5.9238240100583583e-01  5.8353189634706792e-01  5.8161148212436109e-01  5.9239935331938909e-01  5.8345484663926594e-01  5.8156347817131548e-01  5.9232310420407430e-01  5.8332991726042627e-01  5.8147249561387437e-01  5.9211980549482934e-01  5.8316001062584677e-01  5.8135342491758890e-01  6.1315404600567724e-01  6.0707379476517065e-01  6.0135801731917959e-01  6.0136012279717854e-01  6.0707780693895919e-01  6.1315122195513438e-01  6.0136736490581411e-01  6.0707469055291263e-01  6.1312459510657169e-01  6.0135260502784382e-01  6.0704505162844080e-01  6.1307090452199153e-01  6.0129129937165160e-01  6.0697103015543785e-01  6.1296880341001647e-01  6.0116490429420300e-01  6.0683792679355697e-01  6.1280057628055351e-01  6.0096051626418423e-01  6.0663227621379912e-01  6.1258943342889749e-01  4.8289692779525434e-01  4.7895324250101740e-01  4.8925094610949782e-01  4.8307507936390681e-01  4.8931233366708915e-01  6.0178426933560458e-01  6.1070017927849940e-01  6.0995787965170178e-01  6.0999804546013836e-01  6.1057797060901353e-01  6.0169554336850184e-01  6.0985866179391712e-01  6.1040425989259361e-01  6.0153688273464900e-01  6.0967591748414662e-01  5.1155114881156760e-01  5.0387799633674579e-01  5.1193086724004100e-01  5.1191464453202074e-01  5.0389514228528054e-01  5.1155615806281141e-01  5.0394615902104423e-01  5.1156893165020900e-01  5.1185195227899538e-01  5.0401658104914393e-01  5.1159533056752116e-01  5.1178047536417692e-01  5.0411039612376107e-01  5.1164861715828425e-01  5.1173802291419612e-01  5.0423524523075158e-01  5.1174389321800351e-01  5.1177117046904252e-01  5.1190156361475825e-01  5.0436321830152375e-01  5.1195180446111010e-01  5.9991314585879674e-01  5.9137619200094327e-01  5.9443062824334947e-01  5.9444623740222824e-01  5.9142247127436220e-01  5.9990772420926408e-01  5.9989129148383391e-01  5.9151903640830172e-01  5.9445068012261792e-01  5.9984889220695892e-01  5.9159066886299272e-01  5.9442305244014282e-01  5.9434889516191713e-01  5.9160707028457893e-01  5.9975586684669557e-01  5.9421241846647743e-01  5.9154087448193871e-01  5.9959094008497971e-01  5.9399470084649697e-01  5.9134558505066603e-01  5.9933781662931007e-01  5.6412634284338570e-01  5.6379754558206041e-01  5.5367853304836456e-01  5.5362184190808250e-01  5.6375916790299985e-01  5.6409081002980266e-01  5.6366344955413517e-01  5.6401663719396156e-01  5.5348378587190628e-01  5.6392502521753529e-01  5.6354426855527950e-01  5.5332691947815194e-01  5.6383902820167386e-01  5.6343461248169913e-01  5.5319960479198149e-01  5.6377165456057865e-01  5.6335632761037624e-01  5.5314611555267457e-01  5.6371685382410230e-01  5.6331018683020329e-01  5.5319411751487402e-01  6.2003870112870574e-01  6.2929134214216953e-01  6.3275202884588655e-01  6.2928977063638325e-01  6.2004788331179961e-01  6.3268813863155438e-01  6.1998279534738177e-01  6.2925302006678319e-01  6.3255751731914822e-01  6.1985537943673252e-01  6.2914530472961094e-01  6.3234438766157652e-01  6.1964515299636869e-01  6.2894115564185238e-01  4.9247540431056591e-01  4.8787586095285074e-01  4.8211981764131284e-01  4.8216939277234455e-01  4.8794148371639978e-01  4.9253925627080530e-01  4.8230893750363557e-01  4.8808720347894796e-01  4.9269910677951362e-01  4.8247177447593970e-01  4.8826945116873943e-01  4.9290352827204403e-01  4.8257645291824869e-01  4.8842159036036792e-01  4.9307914266608838e-01  4.8253008491060811e-01  4.8845339105815039e-01  6.0085637073901454e-01  5.9537852103890332e-01  5.8909253126424876e-01  5.8908090573328209e-01  5.9535880453655510e-01  6.0086932538416349e-01  5.8903875645248038e-01  5.9528633315979329e-01  6.0085166409719126e-01  5.8896906623792544e-01  5.9518479212615116e-01  6.0080217242566591e-01  5.8886984449090962e-01  5.9505412611969111e-01  6.0071477783506455e-01  5.8873875505539786e-01  5.9489216398931100e-01  6.0058443454550803e-01  5.8856996541824835e-01  5.9470456830616636e-01  6.0042583255807469e-01  4.9209617923918436e-01  4.9292012381598549e-01  4.8337971418325271e-01  4.9210617385855154e-01  4.9221374575363602e-01  4.8901047814223036e-01  4.8906936551221120e-01  4.8919417825864892e-01  4.8934849533362679e-01  5.9328952419344705e-01  5.9335634665807269e-01  5.9351948355106177e-01  5.9367173243574711e-01  5.9376298196291488e-01  5.9375264622993895e-01  5.9359028820038862e-01  4.9205076852401197e-01  5.3518024783147167e-01  5.2975944864578062e-01  5.2707764419989378e-01  5.2703973564163198e-01  5.2971552260602295e-01  5.3514452527040834e-01  5.2697668585326984e-01  5.2957017146403951e-01  5.3504047905576013e-01  5.2689826313478860e-01  5.2938988267934384e-01  5.3490688820109411e-01  5.2684090973087705e-01  5.2925436982255980e-01  6.0393160030718529e-01  6.0393793723323508e-01  6.0393797735714150e-01  6.0391112229033395e-01  6.0383064589268765e-01  6.0367301814562857e-01  6.0342894430185134e-01  5.1466458307366092e-01  5.1877871478488813e-01  5.1009251898628549e-01  5.1007780526969637e-01  5.1873579044250961e-01  5.1462887458396733e-01  5.1001886618388559e-01  5.1861953405820604e-01  5.1455901370344137e-01  5.0995040271072223e-01  5.1846106334269138e-01  5.1447693592960342e-01  5.0990125877041825e-01  5.1833594887173018e-01  5.1442056090739008e-01  5.0991748999319897e-01  5.1835836912946920e-01  5.1445502020056566e-01  5.1015431360101204e-01  5.1870640064042794e-01  5.1466783420153372e-01  5.8258488922434182e-01  5.7301913115111602e-01  5.7364112062772377e-01  5.7361188256778550e-01  5.7296742197202655e-01  5.8255956020071598e-01  5.7351082827373923e-01  5.7284084118422085e-01  5.8247931496596461e-01  5.7338001261790650e-01  5.7268450349802313e-01  5.8236758877861239e-01  5.7324426828847963e-01  5.7252327367128675e-01  5.8223787489925150e-01  5.7312153326482973e-01  5.7237375639890309e-01  5.8209752279095883e-01  5.7302460203993766e-01  5.7224668468524909e-01  5.8196015373156407e-01  5.0541982260229557e-01  5.0255139661527304e-01  4.9754936339397610e-01  4.9764039544550615e-01  5.0258513441419672e-01  5.0537823454468778e-01  4.9787523497069697e-01  5.0269971467365249e-01  5.0530449108033848e-01  4.9817849578729595e-01  5.0286050461337428e-01  5.0522972535265331e-01  4.9849828542219410e-01  5.0304754957717734e-01  5.0514947908668673e-01  4.9875859294907809e-01  5.0324227673978406e-01  5.0504142557574006e-01  4.9871020443036695e-01  5.0334542830286333e-01  5.0495585309571855e-01  5.1609668613230397e-01  5.0845471827184641e-01  5.0842798171130943e-01  5.1603175209303220e-01  5.1587230257292216e-01  5.0833509082682904e-01  5.0822544524646396e-01  5.1567793103749593e-01  5.0812535425161853e-01  5.1551812926255824e-01  5.0807668402969375e-01  5.1549228566464367e-01  5.0827161017841316e-01  5.1574360186321666e-01  5.5243518190951046e-01  5.5718112867091762e-01  5.4722432322013437e-01  5.4716241213170747e-01  5.5715447047430844e-01  5.5241730292100621e-01  5.4702669253042735e-01  5.5707500013321343e-01  5.5236436813530776e-01  5.4687637915319698e-01  5.5697813949383779e-01  5.5229670845606116e-01  5.4677849917384524e-01  5.5690606142364107e-01  5.5226344823994711e-01  5.4679844381362441e-01  5.5689284671401351e-01  5.5231274389422180e-01  5.4700019606053363e-01  5.5696398406868008e-01  5.5247643829844639e-01  5.0299468092601929e-01  5.0301897906351956e-01  5.0309218379839049e-01  5.0318958690542481e-01  5.0330378420159794e-01  5.0342647113951211e-01  5.0352883997927578e-01  5.5123429694437132e-01  5.5121314876893324e-01  5.5114620815733051e-01  5.5107704977440053e-01  5.5104615216230057e-01  5.5108774607465105e-01  5.5121929233343825e-01  4.8183397415224477e-01  4.8820590806744901e-01  4.8824142515272645e-01  6.1116242002856902e-01  6.1118668042378577e-01  6.1124240766122939e-01  6.1128779698355462e-01  6.1128992122590908e-01  6.1121548965762795e-01  6.1104605159783665e-01  5.8537908408887540e-01  5.8535015755647457e-01  5.8529218523765236e-01  5.8520920470097815e-01  5.8510315202559660e-01  5.8497197390265754e-01  5.8481615253301067e-01  5.5708034867798972e-01  5.6835093422241501e-01  5.6830732353900870e-01  5.5705366352519958e-01  5.6821194720829737e-01  5.5700178912980558e-01  5.6809719416250337e-01  5.5694153384252898e-01  5.6798185876118368e-01  5.5690093123911510e-01  5.6787895339104311e-01  5.5689995709075768e-01  5.6779471420909189e-01  5.5692747090773598e-01  4.9303932786963084e-01  4.8866316592895659e-01  4.8263928531876399e-01  4.9309180901072247e-01  4.8871200519805669e-01  4.9339890073863507e-01  4.8902827604223326e-01  4.8295840841463694e-01  4.9356522171381711e-01  4.8920065893106085e-01  4.8307028136516927e-01  4.9364604069319229e-01  4.9353220491556660e-01  5.2038186767446770e-01  5.2034388248966745e-01  5.2025585237709060e-01  5.2015884313594218e-01  5.2009549447432113e-01  5.2011385924328679e-01  5.2029455236555355e-01  6.2003022188933365e-01  6.2003686322386053e-01  5.0038157003667016e-01  5.0045276133589722e-01  5.0060306929792120e-01  5.0080129463028356e-01  5.0100895418454372e-01  6.1081194297765296e-01  6.2073424882620409e-01  6.0999855167690076e-01  6.2071581784077312e-01  6.0998161769626813e-01  6.1077471320950893e-01  6.2073153212311516e-01  6.2068279096777135e-01  5.9188769474068770e-01  5.9953399674137353e-01  5.9073634415349563e-01  5.9082854040022281e-01  5.9963066552613054e-01  5.9177168355935628e-01  5.9939958520553116e-01  5.9060897818491842e-01  5.9924068876186243e-01  5.9160549932142936e-01  5.9044643308490508e-01  5.8438214668582589e-01  5.8438122701499218e-01  5.8437821840222848e-01  5.8434808317541542e-01  5.8428968087596345e-01  5.8419685105417563e-01  5.8405382056535871e-01  6.2049154238898196e-01  6.1873112234053174e-01  6.1239121468977697e-01  6.1244260102942194e-01  6.1875728531873364e-01  6.2053580055214530e-01  6.1256827865554664e-01  6.1881319510223176e-01  6.2059605618665681e-01  6.1268293749395641e-01  6.1885544145583415e-01  6.2063949384372985e-01  6.1275026088231876e-01  6.1885697008175433e-01  6.2064660037189434e-01  6.1272850283139146e-01  6.1879011932698824e-01  6.2059892890427770e-01  6.1254443455317453e-01  6.1861720589016378e-01  6.2045024114400682e-01  5.2331845726893123e-01  5.2324803426854405e-01  5.2304095002097728e-01  5.2278251992463320e-01  5.2254950660277943e-01  5.2244866131266809e-01  5.2270768693203784e-01  5.6223221587661976e-01  5.6219080355783890e-01  5.6206946957627923e-01  5.6191568790656410e-01  5.6177542033532435e-01  5.6168514137882619e-01  5.6167044661948673e-01  5.5855905624533586e-01  5.5852926949705406e-01  5.5844128968855955e-01  5.5832503109669418e-01  5.5822776608236357e-01  5.5819622183450479e-01  5.5826846749370307e-01  6.0792808626010630e-01  6.0794125155227996e-01  6.0796271889364073e-01  6.0796347786449156e-01  6.0792339769080173e-01  6.0782417790047405e-01  6.0765291830433932e-01  5.0257761994939187e-01  5.2466701462777876e-01  5.2457289078764668e-01  5.2432592894935182e-01  5.2402015412882985e-01  5.2375831916125692e-01  5.2366449376177415e-01  5.2392525793856504e-01  5.6252494741526227e-01  5.6250287921325404e-01  5.6244487012081945e-01  5.6237197824246443e-01  5.6230590549797277e-01  5.6225938237552342e-01  5.6222686808409683e-01  4.9610301382180022e-01  4.9610511116513467e-01  4.8831345001973481e-01  4.9211846767566886e-01  4.9610640631843667e-01  4.8840289976225176e-01  4.9213899293525942e-01  4.9611602593793835e-01  4.8848506861491375e-01  4.9215984676238406e-01  4.9612665419753554e-01  4.8853741206674300e-01  4.9217918937017041e-01  4.9613749816344138e-01  4.8854740658685408e-01  4.9618713557522753e-01  6.2054339814273096e-01  6.1382277227967985e-01  6.1383504907518105e-01  6.2055731692405347e-01  6.1386043078187069e-01  6.2059391605348113e-01  6.1386670194101445e-01  6.2061498492138600e-01  6.1382832281994393e-01  6.2059411895582040e-01  6.1372227125225065e-01  6.2050389242664106e-01  6.1353029516375501e-01  6.2031583671362323e-01  5.3607744728833828e-01  5.4546111114060480e-01  5.3556780308637686e-01  5.3554458551293704e-01  5.4543733626024993e-01  5.3605425437120036e-01  5.3550423770662126e-01  5.4538896200601494e-01  5.3599526039805778e-01  5.3547138180778331e-01  5.4533412406671167e-01  5.3593299568903774e-01  5.3547208106276467e-01  5.4530995978186558e-01  5.3591050959795350e-01  5.3553428440688222e-01  5.4535472517912675e-01  5.3597330902877183e-01  5.3567884963867263e-01  5.4549669753496155e-01  5.3615676044758376e-01  6.1534308062136633e-01  6.1536044721731731e-01  6.1540123962917048e-01  6.1543257951660568e-01  6.1542520303927728e-01  6.1535191693000757e-01  6.1518056917379493e-01  5.5871091700316311e-01  5.4874742667336007e-01  5.4870751325034328e-01  5.5868303600579949e-01  5.4860161229325988e-01  5.5863710032458602e-01  5.4848890408785422e-01  5.5858487750843255e-01  5.4841795863038489e-01  5.5854760565738726e-01  5.4843505814707738e-01  5.5853874012909244e-01  5.4858266683533885e-01  5.5855106178321234e-01  5.8199135214280928e-01  5.8190299383282007e-01  5.8175538762081180e-01  5.7599811442081894e-01  5.7596723562887120e-01  5.7587524910687549e-01  5.7575755105451598e-01  5.7562926499143530e-01  5.7550122290773775e-01  5.7538499278162980e-01  5.7798698066457566e-01  5.7796557830825579e-01  5.7791225528386581e-01  5.7783756037324485e-01  5.7774271826935097e-01  5.7762891218741075e-01  5.7750681833255824e-01  5.6724256294915143e-01  5.6721487902843659e-01  5.6711383654130909e-01  5.6697860817477486e-01  5.6684414844962883e-01  5.6673931545930689e-01  5.6668982469306761e-01  5.4460383602075646e-01  5.4454485065872826e-01  5.4440873405007595e-01  5.4426099219594248e-01  5.4415276856890760e-01  5.4413731408890864e-01  5.4429194176301032e-01  5.3576162776692593e-01  5.3576121863818882e-01  5.3576417025439138e-01  5.3577867246855715e-01  5.3581889813403394e-01  5.3590223130016379e-01  4.8465213372362204e-01  5.0040835936164474e-01  5.0043901016341064e-01  5.0056938432218612e-01  5.0074548871068170e-01  5.0094609679188185e-01  5.0115164336030382e-01  5.0125059053629517e-01  5.4601811236245368e-01  5.4614411532434104e-01  5.0803688461440155e-01  5.0800148758127106e-01  5.0790257940938455e-01  5.0778108651643294e-01  5.0767027763972739e-01  5.0762341353216411e-01  5.0781152693176146e-01  5.2813337350670442e-01  5.2034630329234255e-01  5.1970710112960250e-01  5.1969566752045016e-01  5.2036213496591677e-01  5.2811081376142643e-01  5.1967912711600028e-01  5.2040496663931501e-01  5.2806771324801682e-01  5.1967032976549110e-01  5.2046740047314777e-01  5.2803099436687317e-01  5.1969132387446448e-01  5.2055514518123491e-01  5.2802565508292632e-01  5.1976492132864960e-01  5.2067593989538574e-01  5.2807709849278694e-01  5.1991722164672183e-01  5.2081232432727242e-01  5.2823090583538324e-01  5.4240387381036603e-01  5.4236744888240862e-01  5.4225584009625061e-01  5.4213022709814473e-01  5.4206068358529091e-01  5.4211371254046170e-01  5.4233083706578711e-01  6.0998185370344793e-01  6.0726382352049235e-01  6.0727755691564922e-01  6.0730700458578823e-01  6.0732174151508378e-01  6.0729309292188072e-01  6.0719457177556557e-01  6.0701028020205194e-01  5.4037755579102564e-01  5.4035157484990082e-01  5.4025806059017234e-01  5.4014493180702450e-01  5.4008034346444034e-01  4.9498495273555482e-01  4.9498059885456469e-01  4.9500710399823905e-01  4.8885011192908606e-01  4.9505495548291600e-01  4.9510205281946340e-01  4.9512426398798526e-01  4.9512661232477639e-01  6.2371506453620773e-01  6.2370921037284510e-01  6.2369742207996848e-01  6.2366616927806307e-01  6.2359208620336526e-01  6.2345049069783876e-01  6.2321895047303100e-01  5.4993692098370550e-01  5.4992170356022851e-01  5.4988306870750614e-01  5.4984567091245085e-01  5.4984476428689166e-01  5.4990936844616789e-01  5.5005204533136476e-01  5.2916327709626976e-01  5.2914399971919623e-01  5.2910606045125874e-01  5.2907754850181921e-01  5.2907529715260104e-01  5.2911828064908095e-01  5.2924107183394620e-01  5.5484073125894373e-01  5.5477785184402095e-01  5.5461211736878813e-01  5.5442187665051479e-01  5.5425565786373154e-01  5.5416159854233571e-01  5.5419455647156202e-01  4.8107980141836199e-01  4.8221923361271585e-01  4.7371347163814098e-01  4.8134101918313094e-01  5.3499600500836497e-01  5.3493944021512008e-01  5.3479434361672906e-01  5.3462130668592367e-01  5.3450200561092220e-01  5.3453461169809180e-01  5.4014244247494758e-01  5.3482058882989580e-01  5.4040505284663065e-01  5.4487329554830610e-01  5.4485173271933551e-01  5.4475255806768441e-01  5.4462090909868333e-01  5.4451972284851025e-01  5.9144269332515476e-01  5.9145290616147506e-01  5.9147173086428162e-01  5.9146857773340400e-01  5.9143231259092344e-01  5.9135085541533627e-01  5.9120634558055973e-01  4.9322306551928574e-01  4.8825714448224283e-01  5.9686429780673189e-01  5.9688138249135081e-01  5.9687613230977610e-01  5.9684175953307150e-01  5.9676509167182590e-01  5.9663766339205682e-01  5.9647076659116938e-01  5.0243430247962040e-01  5.0244271444906163e-01  5.0245739468430251e-01  5.0248153492214354e-01  5.0251995942137884e-01  5.0258868878306162e-01  5.0273325795553214e-01  6.2217153941512360e-01  6.2219265644077415e-01  6.2223666567288827e-01  6.2226229586213844e-01  6.2224082430292726e-01  6.2214346617331973e-01  6.2193556433420771e-01  6.2927980016457752e-01  6.2927638602483205e-01  5.2770472493943810e-01  5.2758989858224870e-01  5.2730507935602122e-01  5.2696171715597295e-01  5.2666474171317934e-01  5.2655821713681794e-01  5.2689056967446324e-01  5.2284668297245018e-01  5.2281483818033059e-01  5.2272863051951757e-01  5.2262315437943574e-01  5.2256142232238023e-01  5.2261348324973123e-01  5.2283842000364877e-01  5.7356721816997625e-01  5.7350070911798312e-01  5.7332696267801309e-01  5.7311395274821930e-01  5.7289799261276508e-01  5.7270991000582760e-01  5.7257749491082077e-01  6.2854697781329383e-01  6.1754761325129970e-01  6.1756094964232833e-01  6.2852287143968721e-01  6.1759775064018652e-01  6.2845982231082542e-01  6.1761806126598018e-01  6.2837063185183462e-01  6.1758957543691795e-01  6.2824248530437676e-01  6.1748319365347148e-01  6.2806009373437277e-01  6.1725861930565551e-01  6.2783402737021266e-01  5.2927661332619647e-01  5.2962007984991599e-01  4.9292618014082035e-01  4.9293510908840077e-01  4.9295100953416349e-01  4.9297069802472049e-01  5.6901078067401578e-01  5.6898322029172355e-01  5.6892777612929868e-01  5.6885557702809153e-01  5.6877572748867211e-01  5.6869435589264328e-01  5.6861251773821431e-01  5.6373396559815958e-01  5.6356989218389320e-01  5.6341445728636808e-01  5.6329576272386783e-01  5.6323199372131083e-01  5.5374266067336286e-01  5.5376541716870542e-01  5.2802041196469141e-01  5.3112622739577919e-01  5.3109657394596077e-01  5.2802315083557283e-01  5.3100792002160513e-01  5.2800364278451395e-01  5.3090684786771758e