<?xml version="1.0"?>
<VTKFile type="UnstructuredGrid"  version="0.1"  >
<UnstructuredGrid>
<Piece  NumberOfPoints="1007" NumberOfCells="4310">
<Points>
<DataArray  type="Float64"  NumberOfComponents="3"  format="ascii">4.835772757098651 2.791863139997921 0.8231085654265681  4.859928352991076 2.966519487149783 0.8183280400299996  4.949323731928574 2.869646665403472 0.8220359210997742  4.843521516621431 2.781842784593771 0.7532801393072164  4.866740759856238 2.970598572727202 0.7452098626654561  4.956062980280707 2.864062794301271 0.7507973375668849  4.873568306354763 2.974639002367988 0.6722999655919009  4.962797925284274 2.858514698176455 0.6798111205590183  4.880382228919934 2.978634506368365 0.5996339798982626  4.859086882358516 2.761970267253339 0.6143829702742524  4.969527458429766 2.852958361178944 0.6090659181115927  4.976219049453461 2.847393387007213 0.5384750965050916  6.157681317132066 2.919719119725295 0.46182769172886  6.18325137753023 2.744677025376244 0.4800975208679201  6.274638769463772 2.833770575759379 0.4670342547659785  6.183508977681953 2.7513591939958 0.5470909801992284  6.158761453821255 2.920201132749966 0.5307136220273811  5.511746720712249 3.642158910153803 1.274720927133771  5.547195075612395 3.706789264963342 1.415106885313266  5.647981529105828 3.69081367065596 1.330207491246554  5.637616154037612 3.756809407915922 1.300890941095809  5.536965766305884 3.774235567436456 1.393210506199743  5.504360502601066 3.707757799714418 1.242735107273603  5.52689319765313 3.841673614457259 1.370962370810803  5.497083476933717 3.773160249614809 1.21041850308709  5.627450351996432 3.822695209821706 1.271290131017023  5.516939844734253 3.909176297902279 1.348587702071125  5.489918521090493 3.838531166034453 1.178005972026615  5.617396013382316 3.888574649333648 1.241615696370247  5.482804745846816 3.903937599881278 1.145594901032641  5.507021834984534 3.976801191114895 1.326205945909035  5.607389578129764 3.954500208470895 1.211941172903297  5.475672242245147 3.96941183776786 1.113241981560179  5.497059631335339 4.044579635535294 1.303910097306737  5.597350833413636 4.020506801413337 1.182302862358418  5.468487919000236 4.034977085356075 1.081025996214408  5.486976398039687 4.112569608272571 1.281785971298938  5.587158046067922 4.086608119342749 1.152745247762773  5.197916926860623 2.847455911660786 0.8528708723293883  5.167041084552177 2.994003544944141 0.8462778866193785  5.284536732137712 2.990043242681298 0.8576382632805318  5.290869875970272 2.99137343159175 0.7863015817111494  5.174374370363712 2.994510114469369 0.774278306750699  5.203738134505552 2.841017182977948 0.7836656317230081  5.297133206818152 2.992686060588906 0.7152245579550764  5.181654279820702 2.995016079230581 0.7025824944728247  5.20953022163294 2.834579739149963 0.7146716969219794  5.303359560671695 2.993930294371444 0.6443919743149537  5.18889491723932 2.995465320983763 0.6311384976579723  5.215307261215069 2.828142293425817 0.6458936151441641  5.309554178174819 2.995091682004734 0.5737457861621511  5.196113602674366 2.99583007621057 0.559889592793536  5.221032330815099 2.821700632289442 0.5772980585389555  5.315729842097669 2.996208103575724 0.5032489855869281  5.203306873374824 2.996142002394027 0.4887901771598355  5.226719231676231 2.815242766184559 0.5088722298132561  5.321917192319682 2.997316896631484 0.4328900734273002  5.210487697754633 2.996435079492784 0.4178360382867072  5.232391174456708 2.808762072487837 0.4406353112796041  5.843173441582264 3.636861845221132 1.199928445144739  5.867650332083743 3.71964657481699 1.328893038572687  5.953136680305652 3.68859916693397 1.249672572048406  5.946350143530421 3.746804237168756 1.205867429035095  5.857559152726245 3.782210205038515 1.293482341415928  5.837562182832313 3.695271645649315 1.154922723696491  5.832002548074215 3.753504195289158 1.109846835303994  5.847655824315559 3.844632726403006 1.257995856737707  5.93965258024948 3.804857363778451 1.16204483470532  5.826525541102562 3.811641956657087 1.064784255029227  5.837873388709112 3.906994615604082 1.222494153827313  5.933057067708574 3.862838017291516 1.118235676330727  5.828156154130829 3.969332769964452 1.18698930439921  5.82111995727112 3.869729696095095 1.019749958167865  5.926536261872906 3.920770242875901 1.074438294404144  5.818457905477095 4.031649953816173 1.15150922392565  5.815757987186654 3.92778838449404 0.9747309367179673  5.92008049026597 3.978675450794352 1.030645617220133  5.808735050216717 4.093944136441008 1.116062291562558  5.810426553555362 3.985837889847273 0.9297442296416958  5.913655927013704 4.036557171923787 0.986873918700422  5.65298609373969 3.02989748350969 0.8824570571358131  5.742104942025443 3.180136101466756 0.9168121806878026  5.803866293719117 3.053229049808087 0.8922689253654835  5.805087456103397 3.062688314693629 0.8221953142206841  5.744496601155662 3.19662617771979 0.8465839461511959  5.656344368247601 3.037189002481164 0.8122612417186101  5.806234693471596 3.072018491501287 0.7522648211355472  5.746766876192456 3.212949262833715 0.7764591718935925  5.659630313394721 3.044370867816387 0.7422149593573378  5.807327203267345 3.081218652404123 0.6824560631588702  5.74895589412473 3.229116453799343 0.7064464796364989  5.662860690073958 3.051445927926446 0.672324447274966  5.808414440427769 3.090328852431593 0.6127692607257033  5.751147518864197 3.245179878519135 0.6365487380327816  5.666068277428388 3.058424263396382 0.6025717415725311  5.80955915092081 3.099403433738828 0.5432084803963219  5.753408275392673 3.261196709661935 0.5667721631237463  5.669319669996429 3.065364280811107 0.532958809394744  5.81078634109557 3.108526957932978 0.4737613291379466  5.755805798613328 3.277234542501482 0.4971301552722933  5.672641881806635 3.072345217483221 0.4634739957592563  5.952913626469313 3.045880476146032 0.8893861616529026  5.869842102046612 2.928349711594145 0.8848108078793431  5.868981658012503 2.931355994203617 0.8157407009690524  5.950769112126045 3.056114109250808 0.8194943421901695  5.868081071373071 2.934268006926814 0.746817468679042  5.948576226474573 3.066203154546441 0.7496993135123979  5.86714840443602 2.93708446892662 0.678043779937234  5.946338592759814 3.076160237650485 0.6800225235245715  5.866211668573963 2.939810500790605 0.6093979103052979  5.944108403314509 3.086038076078817 0.6104575746688466  5.865301113413901 2.942528297019821 0.5408596394970654  5.941939626100595 3.095890629026276 0.5410036231050241  5.86446157854334 2.945302122613133 0.4724238315095269  5.93985377175587 3.105814021566078 0.4716445146789152  5.656802001841332 3.745444204469788 1.486077739416267  5.762791880031061 3.73845421507962 1.397417914754449  5.750830735716022 3.804034389680675 1.369861273121185  5.643746838933227 3.812006608350207 1.465853614016752  5.739111900857782 3.86955198446202 1.342109080241186  5.63092857860143 3.878587684175052 1.445342661279515  5.727527277106694 3.935073185017998 1.314291364307741  5.618245023581374 3.945244635071146 1.42471180435082  5.715984146792577 4.000627014209162 1.286464129225754  5.605592885393205 4.01200529862864 1.40407253738164  5.704395279985575 4.066226402160328 1.258667306231705  5.592866723452612 4.078875744822208 1.383498294643409  5.692690279938819 4.131879967282136 1.23094135452175  5.579940110328066 4.145833340677998 1.363063634460945  5.320629045979161 3.69860017905417 1.506185856604827  5.446636448968052 3.705649625372035 1.481246192203296  5.419895320717464 3.673766260924092 1.359195287127757  5.412758706993618 3.74188530939507 1.335572957483355  5.436795466906652 3.773381369352465 1.465035197860378  5.313384725836995 3.766991589854777 1.493265804635223  5.405709335371642 3.809973017396267 1.311526755754094  5.427086050906429 3.841209052267698 1.448392566699981  5.306180631871821 3.835474319949616 1.479894683253567  5.398762121691565 3.878136471376608 1.287351501909142  5.417475250272217 3.909184665472381 1.431602415812686  5.299053606820096 3.904161111106472 1.466369070787457  5.391848398066504 3.946426054079202 1.263169082141971  5.407896798815912 3.977341668469341 1.414813096206  5.291961137985507 3.973079437370589 1.452862621102212  5.384907139134361 4.014894196175999 1.239060726272905  5.398272709720128 4.045698606358672 1.398126010319385  5.284851110272967 4.042262933786543 1.439484905649448  5.377902032558515 4.083594104982956 1.215102569890493  5.388521399394166 4.114266871438015 1.38163965332732  5.277664725047783 4.111751404110779 1.426363617463955  5.114776010659194 2.746118282763628 0.581858499432222  4.997347526382589 2.668053728692989 0.5885869146064212  5.133666369822802 2.594714075949667 0.6245879862146992  4.990490766195546 2.682871193344882 0.6547325902157985  5.108239813610813 2.757491962668568 0.6492330610847457  5.138165199276657 2.57926071554179 0.5606613754526955  5.121270271362205 2.734729660452908 0.514644954630029  5.004149054933904 2.653227252238886 0.5225909158953012  5.142608563328923 2.563759604912179 0.4969229170095164  5.127699853251326 2.723304147664729 0.4475897876254027  5.010854372874558 2.638336716735564 0.4567626000939495  5.466487512484925 3.57825655711502 1.160809911821606  5.592207528928865 3.549803510822644 1.12088316478842  5.529440405557992 3.465271487683699 1.041565058651002  5.527760490450103 3.513187966975292 0.9837817257764536  5.589134623322995 3.604745003766451 1.070149593587237  5.461379794878706 3.638231095192785 1.11636203987434  5.526023587248195 3.560767878195405 0.9259669520484239  5.586037664780139 3.659380664255318 1.019312014928839  5.456329887342353 3.69792323082719 1.071671106014314  5.524308542684967 3.608174592554133 0.8681842814414805  5.583009113861504 3.713870810770761 0.9684721880920035  5.451380695626002 3.757516500321582 1.026936476673397  5.522652019472277 3.655496657578063 0.8104609683032211  5.580055044629153 3.768303866152488 0.9176742456043445  5.446492309464722 3.817101511462774 0.982219899514526  5.521067277912694 3.702782313723699 0.7528199989259174  5.57715740
[...]
<PointData  Scalars="f_14"> 
<DataArray  type="Float64"  Name="f_14"  format="ascii">6.3063000657202195e-01  6.2864924570300251e-01  6.2072133647957861e-01  6.3064124889938467e-01  6.2866778561293379e-01  6.2073289474515680e-01  6.2872188211556934e-01  6.2078760460032134e-01  6.2881394111584166e-01  6.3072605099214174e-01  6.2087717108446905e-01  6.2100713665713325e-01  5.0912991808508190e-01  5.0755712342135162e-01  4.9817515355316755e-01  5.0763607618315520e-01  5.0917593961818464e-01  5.6620259421542096e-01  5.6227444361650236e-01  5.5326846815092645e-01  5.5331555784169317e-01  5.6228659684310955e-01  5.6623305566305615e-01  5.6232700082686704e-01  5.6630204078918100e-01  5.5343490299950948e-01  5.6238212363016016e-01  5.6638582529317505e-01  5.5357754945270066e-01  5.6646774295171054e-01  5.6244087326342040e-01  5.5372333062387824e-01  5.6653188953312605e-01  5.6249994337977238e-01  5.5384761543652472e-01  5.6657287784372434e-01  5.6257094718539502e-01  5.5389547979554976e-01  5.9825423952676837e-01  6.0073721469523755e-01  5.8996431001348404e-01  5.8995263912040707e-01  6.0071291175655339e-01  5.9825526648969063e-01  5.8993749003902629e-01  6.0064966852677293e-01  5.9826659169923790e-01  5.8993417272777804e-01  6.0060203613390495e-01  5.9829970756433171e-01  5.8996990011509032e-01  6.0059274623673808e-01  5.9837389743264124e-01  5.9006821702559986e-01  6.0064445556360335e-01  5.9850341196115620e-01  5.9024847236515010e-01  6.0078950199563452e-01  5.9869257946767707e-01  5.3534795592847151e-01  5.3266937981106988e-01  5.2477627711206698e-01  5.2478185056764726e-01  5.3269964755719612e-01  5.3536229843521244e-01  5.3539643902503808e-01  5.3279863835913699e-01  5.2484286354941245e-01  5.3545343904716425e-01  5.3293759461213830e-01  5.2493982562066543e-01  5.3310268421942686e-01  5.3553356128575824e-01  5.2507372917816997e-01  5.3328296976797407e-01  5.3563306977904590e-01  5.2524329820667004e-01  5.3347031475831042e-01  5.3575683418139219e-01  5.2542742251716767e-01  5.5591286039431942e-01  5.4705617970834697e-01  5.4205165903896846e-01  5.4204867960714653e-01  5.4705447245127670e-01  5.5590949742401974e-01  5.4204707709845423e-01  5.4705050335907424e-01  5.5588964876988545e-01  5.4205161150465841e-01  5.4705501040864701e-01  5.5587262152203065e-01  5.4206161133660680e-01  5.4707567721811545e-01  5.5587557566555557e-01  5.4207364752753140e-01  5.4712049993034495e-01  5.5591154721228353e-01  5.4209148031155896e-01  5.4718894282439845e-01  5.5599071399082256e-01  5.2861887685242903e-01  5.3668873719654808e-01  5.3669701641132017e-01  5.2865976486619992e-01  5.3676365365018719e-01  5.2876691228546335e-01  5.3684865567618389e-01  5.2890351991993168e-01  5.3692690465093695e-01  5.2903566818062153e-01  5.3696992441619995e-01  5.2912782907061284e-01  5.3692600606117469e-01  5.2913064127053377e-01  5.5194950847811508e-01  5.4226910152213992e-01  5.4228960946751803e-01  5.5196012626204161e-01  5.4236492508686995e-01  5.5200615656642993e-01  5.4246843796439081e-01  5.5207663788191841e-01  5.4258473814858688e-01  5.5215561474385866e-01  5.4269754845482643e-01  5.5223060998473184e-01  5.4279726171222820e-01  5.5228837096314076e-01  5.8255337536276586e-01  5.7129382979059495e-01  5.7417670058286052e-01  5.7419184908133203e-01  5.7132340130055204e-01  5.8258216573817045e-01  5.7420831986426468e-01  5.7138360256759058e-01  5.8262009761535050e-01  5.7423172651165677e-01  5.7145531334737076e-01  5.8266137528637785e-01  5.7425923368453291e-01  5.7153017165910647e-01  5.8270665571323332e-01  5.7428990912664102e-01  5.7160140094094158e-01  5.8276060625282033e-01  5.7433103731174218e-01  5.7165116064093469e-01  5.8283442073975145e-01  6.0818013331554543e-01  6.1884477777638969e-01  6.0622789029538782e-01  6.1877306155153500e-01  6.0813351512273706e-01  6.0637622124562407e-01  6.0828679212866710e-01  6.1897489283376994e-01  6.0657923130386660e-01  6.0849298600011581e-01  6.1917276582837100e-01  5.7098997009642638e-01  5.5931743800859768e-01  5.6573854313530836e-01  5.6578402740517386e-01  5.5933174861808854e-01  5.7104675712291819e-01  5.6589076525901560e-01  5.5935487386066030e-01  5.7116381468553257e-01  5.6602110630771141e-01  5.5938906895921614e-01  5.7130596373435572e-01  5.6615861123838995e-01  5.5942846019544856e-01  5.7144339792302712e-01  5.6628877213683404e-01  5.5946757393228363e-01  5.7154488492370281e-01  5.6637814263632069e-01  5.5950861209406366e-01  5.7158399492069678e-01  4.9909823248250296e-01  4.9564700001138923e-01  5.0464259992627769e-01  5.0470190991176778e-01  6.0499844778602319e-01  5.9785739666239035e-01  5.9272163814939249e-01  5.9275949197420541e-01  5.9790873690627810e-01  6.0504575451450404e-01  5.9287903166648892e-01  5.9805071028205703e-01  6.0515251867142705e-01  5.9304059714164270e-01  5.9824151159063677e-01  6.0529925982115973e-01  5.9322439435772256e-01  5.9845444548969329e-01  6.0547092535994529e-01  5.9341029681047308e-01  5.9866369230805927e-01  6.0565292384727554e-01  5.9357059185873562e-01  5.9881011746939383e-01  6.0583194416074670e-01  5.1368846443239258e-01  5.0072596768650546e-01  5.1370969011367440e-01  5.5795557724936895e-01  5.4954095068601827e-01  5.4440913369665700e-01  5.4440787482466102e-01  5.4956268260890218e-01  5.5795033630090907e-01  5.4959493582813301e-01  5.5794058766949595e-01  5.4439910090985144e-01  5.4964348298289900e-01  5.5794058785259537e-01  5.4440184978509920e-01  5.4970359222810006e-01  5.5796045847800135e-01  5.4442626156946450e-01  5.4976909544976238e-01  5.5800401048241877e-01  5.4447987834405165e-01  5.4983716906110780e-01  5.5807241311772227e-01  5.4456312143525798e-01  6.2357703217694083e-01  6.0998650818101374e-01  6.1639407706415661e-01  6.1637467187948647e-01  6.0999196613464113e-01  6.2360160739961856e-01  6.2366966508001820e-01  6.1001165214128261e-01  6.1633609094447861e-01  6.2377108206017018e-01  6.1004606398368610e-01  6.1631339375700067e-01  6.2390660395214170e-01  6.1010739654246726e-01  6.1633203450771312e-01  6.2407855493548248e-01  6.1020801102018096e-01  6.1642174119131565e-01  6.2428900498336237e-01  6.1035863445710692e-01  6.1660969281671374e-01  5.5514485864348662e-01  5.5516573378730927e-01  5.5520782846226346e-01  5.5526707065818415e-01  5.5533196487691860e-01  5.5539451169998599e-01  5.5546099958125916e-01  5.5963252948785924e-01  5.5958737441400919e-01  5.5946816258233478e-01  5.5934298626577006e-01  5.5924398959393284e-01  5.5920221652423430e-01  5.5928347235354881e-01  5.4385084790742033e-01  5.4384938012199646e-01  5.4384240778865056e-01  5.4385460377986194e-01  5.4388539659315605e-01  5.4394332202844164e-01  5.4406438468523866e-01  6.0902983315095072e-01  6.0902746384321416e-01  6.0898918319849826e-01  6.0896990263137218e-01  6.0899144099782587e-01  6.0907310876705156e-01  6.0924242273635232e-01  5.2053001139019262e-01  5.0945366458037766e-01  5.0807447117677518e-01  5.2049522177245089e-01  5.0944543703670753e-01  5.0805558910896687e-01  5.2041194128249357e-01  5.0939950691984959e-01  5.0798243182256797e-01  5.0933136827183056e-01  5.2031044774189861e-01  5.0787402623828914e-01  5.0925112909885939e-01  5.2019551587816859e-01  5.0775028988076543e-01  5.2007702226518204e-01  5.1999323664101837e-01  5.4677782133912700e-01  5.4675962261056232e-01  5.4670747942688735e-01  5.4665283161139988e-01  5.4659978034135204e-01  5.4655266759884746e-01  5.4656035808551151e-01  4.9146293707327066e-01  5.8627321514151898e-01  5.8629685148002786e-01  5.8635280163773651e-01  5.8641920300412598e-01  5.8649188417637099e-01  5.8656411060797098e-01  5.8661026482810852e-01  5.8502793016187626e-01  5.8503255979829583e-01  5.8504884684176761e-01  5.8508574998048635e-01  5.8515884097396031e-01  5.8527950833937292e-01  5.8545773293105641e-01  5.7770149525260373e-01  5.7450135413806391e-01  5.7451700266981154e-01  5.7770027572773508e-01  5.7770306976204666e-01  5.7454554976280947e-01  5.7772394974941366e-01  5.7459597362467274e-01  5.7778221926548901e-01  5.7467630999390018e-01  5.7789396334675447e-01  5.7479602598640067e-01  5.7807313920841197e-01  5.7496370173230971e-01  5.2224477917316370e-01  5.1512158894363858e-01  5.1513019735143717e-01  5.2229314681337480e-01  5.2244628270333549e-01  5.1516270881192261e-01  5.2263959808125771e-01  5.1520256239680307e-01  5.2283538929776352e-01  5.1523429522710917e-01  5.2299569144768554e-01  5.1524389737949672e-01  5.2304880393503084e-01  5.1522567629135574e-01  6.0973531177477747e-01  6.0980836531893046e-01  6.0996478719800584e-01  6.1016826080398467e-01  6.1039690882936282e-01  6.1062418831556986e-01  6.1080893585983109e-01  5.6513822583585460e-01  5.5269750991027367e-01  5.5266729568663975e-01  5.6508771960054394e-01  5.6499927188892807e-01  5.5260428053656940e-01  5.6491886499154575e-01  5.5254102545258132e-01  5.6487247714525446e-01  5.5250087619970412e-01  5.6489084174991100e-01  5.5250510548901222e-01  5.6499880992500018e-01  5.5258971204174179e-01  5.2780768778179921e-01  5.2190172193395812e-01  5.3111006113968495e-01  5.3111848194965106e-01  5.2190267246752220e-01  5.2780704821895996e-01  5.2192155442172206e-01  5.2779125830799289e-01  5.3113320986853008e-01  5.2196853540194765e-01  5.2779596781481353e-01  5.3116569192666097e-01  5.2783241305663831e-01  5.2204128471327860e-01  5.3122015555450486e-01  5.2791720950873600e-01  5.2213662400837801e-01  5.3130086197787418e-01  5.2807931597768143e-01  5.2227667738782346e-01  5.3141519280334604e-01  5.2419832537700350e-01  5.2422397406903121e-01  5.2430434945062798e-01  5.2439699001123630e-01  5.2447530214396509e-01  5.2451100463288869e-01  5.2446034078501180e-01  5.1164884359381180e-01  5.1754168243795373e-01  5.1756372568600406e-01  5.1167713001343240e-01  5.0482128166960394e-01  5.1173672730120456e-01  5.1763225745900221e-01  5.0497971704209399e-01  5.1182860876321667e-01  5.1773369243590284e-01  5.0515982896831990e-01  5.1195586153710937e-01  5.1785547447561631e-01  5.0534121543927280e-01  5.1212221128123292e-01  5.1798640346087466e-01  5.0549999431623549e-01  5.1231786327340989e-01  5.1810842960453030e-01  5.1377969930700751e-01  5.1388164483724830e-01  5.1399085446346027e-01  5.1409016773540750e-01  5.1418532416913942e-01  5.7745588834407857e-01  5.7750683585427032e-01  5.7761696822107700e-01  5.7775893138889733e-01  5.7790657790479694e-01  5.7803998606553475e-01  5.7815452959240043e-01  5.9594666988519274e-01  5.8804505686703834e-01  5.8463780677341859e-01  5.8457352307219990e-01  5.8803637013615251e-01  5.9590665007180987e-01  5.8443891220922772e-01  5.8804419242856409e-01  5.9583165386062409e-01  5.8430897758552169e-01  5.8807524846747916e-01  5.9577295627038929e-01  5.8422314393833374e-01  5.8813951254434294e-01  5.9575488743640637e-01  5.8422020080057202e-01  5.8823916529145159e-01  5.9580126289951618e-01  5.8438208565329641e-01  5.8836895323584815e-01  5.9593990037140543e-01  6.1037114768482803e-01  6.1036184416669037e-01  6.1032825738439112e-01  6.1031252336345465e-01  6.1033181588223850e-01  6.1041004795393683e-01  6.1058799768233674e-01  5.0726205610137953e-01  5.0726715878319095e-01  5.4692317767889853e-01  5.4695735731010386e-01  5.4705005591217282e-01  5.4716237897669318e-01  5.4728714383758148e-01  5.4741510331573984e-01  5.4750437238149274e-01  6.2973085735219136e-01  6.2974555521733588e-01  6.2978866322813287e-01  6.2986350110993639e-01  6.2998258477669211e-01  6.3015629838616694e-01  6.3038445370750507e-01  5.1763378801930071e-01  5.2728575694323310e-01  5.2728861701324281e-01  5.1765306534675348e-01  5.2729319136032682e-01  5.1771495718323801e-01  5.2731728617320306e-01  5.1780956058249827e-01  5.2737176074781700e-01  5.1794492819093951e-01  5.2746931695428356e-01  5.1812458660071814e-01  5.2763284104678254e-01  5.1832502497314414e-01  5.0566064647094522e-01  5.0568148257474665e-01  5.0571325395412892e-01  5.0575176653436860e-01  5.0578878392814364e-01  5.0581384662063056e-01  5.0581776963502345e-01  5.9137102174252643e-01  5.7944765967827161e-01  5.8402661873000938e-01  5.8410426493577916e-01  5.7949370733460559e-01  5.9137067998933812e-01  5.8430052087096374e-01  5.7961949023975956e-01  5.9136238325798574e-01  5.8454084635409609e-01  5.7977359880982582e-01  5.9135868845701756e-01  5.8478640501106016e-01  5.7993347412286167e-01  5.9136385366440591e-01  5.8499461301690658e-01  5.8007832234173451e-01  5.9138500389121096e-01  5.8507224326622831e-01  5.8016434415648188e-01  5.9147512621548881e-01  5.8430437503868593e-01  5.7211493158772997e-01  5.7890715441827312e-01  5.7892329088606276e-01  5.7213422762246802e-01  5.8435461075072315e-01  5.7895897086118187e-01  5.7216545708153377e-01  5.8447054860680958e-01  5.7901925356515049e-01  5.7221405492542277e-01  5.8462203083202435e-01  5.7910691314663221e-01  5.7228149266674155e-01  5.8478750845685723e-01  5.7921576207495429e-01  5.7236823198026154e-01  5.8494398894596145e-01  5.7933515897125254e-01  5.7246502762298768e-01  5.8506237398610839e-01  6.0036902518128243e-01  6.0040239874696011e-01  6.0049468426918851e-01  6.0062508381267177e-01  6.0077880349679391e-01  6.0093619110134344e-01  6.0106938360541051e-01  6.1797356163410144e-01  6.1804024995226481e-01  6.1820858146158830e-01  6.1842717367008415e-01  6.1867746255564293e-01  6.1893536274819005e-01  6.1915513916721865e-01  5.3802600000351886e-01  5.3805961828400206e-01  5.3813439697691046e-01  5.3823365122930045e-01  5.3835467484806865e-01  5.3848835223830638e-01  5.3859506419938286e-01  5.1750461796264313e-01  5.1752738041525903e-01  5.1758586039550925e-01  5.1767585821820405e-01  5.1780681247920823e-01  5.1799104649590766e-01  5.1822433030218362e-01  5.5493713122126487e-01  5.5493645528546098e-01  5.5491781196301504e-01  5.5490157436422094e-01  5.5489429196134465e-01  5.5490005037712475e-01  5.5493926160245766e-01  5.6036722843502584e-01  5.6039175169770727e-01  5.6043806989629974e-01  5.6049359906449747e-01  5.6054670521583527e-01  5.6058242162332872e-01  5.6058695514005785e-01  5.0726736692657115e-01  5.0729911499321689e-01  5.0737905516171344e-01  5.0752575602185435e-01  5.0777869988260527e-01  5.9719583355575878e-01  5.9720637002384980e-01  5.9722570581692735e-01  5.9725911017551447e-01  5.9730787707486266e-01  5.9737248335738602e-01  5.9746247621983362e-01  5.8725190258433246e-01  5.9648527436948351e-01  5.9649719184052818e-01  5.8725739237599694e-01  5.9653196722135382e-01  5.8727852572096295e-01  5.9659394022764034e-01  5.8732280516880808e-01  5.9669061307369586e-01  5.8739727430497879e-01  5.9682767665617520e-01  5.8750315255166508e-01  5.9701225224394194e-01  5.8764569174183934e-01  5.1329654147058623e-01  5.0299510952923354e-01  5.0303462288393996e-01  5.1328761035338688e-01  5.0314476550454934e-01  5.1327614376710962e-01  5.0330040753013527e-01  5.1329956349274142e-01  5.0350305462137745e-01  5.1336886293373329e-01  5.0375299884022939e-01  5.1349583972091606e-01  5.0402690463177624e-01  5.1372160141700585e-01  5.7453131413594094e-01  5.7452549815176035e-01  5.7451736714312285e-01  5.7452655812300446e-01  5.7457579302430906e-01  5.7467728013082398e-01  5.7482677758677081e-01  5.6700399762696152e-01  5.6701092248686413e-01  5.6703302605909500e-01  5.6707073719647616e-01  5.6714170923545704e-01  5.6725399962162992e-01  5.6739513929222407e-01  6.2211048178170369e-01  6.2219531205210032e-01  6.2240285517825966e-01  6.2266762453342461e-01  6.2296818564806766e-01  6.2894644105227815e-01  6.2328351832089190e-01  6.2912319487884827e-01  6.2353252018682992e-01  6.2935970056218093e-01  5.6557015124721055e-01  5.6556902828805600e-01  5.6557255197327472e-01  5.6559109734989910e-01  5.6563464946180197e-01  5.6571385394707496e-01  5.6584315701745047e-01  5.2597603386379299e-01  5.2602129610233572e-01  5.2612623290162297e-01  5.2626199387906747e-01  5.2640643244626362e-01  5.2653752362205331e-01  5.2662841121162451e-01  6.2312765172267026e-01  6.1795368092918213e-01  6.1796691987905261e-01  6.2309830541428513e-01  6.2302642924367713e-01  6.1800397142861063e-01  6.2297114220299254e-01  6.1807204689549311e-01  6.2296292881014503e-01  6.1817695581768783e-01  6.2303746698452744e-01  6.1832468852183298e-01  6.2324594837370118e-01  6.1851577698529814e-01  5.3961935720187504e-01  5.3473628700918818e-01  5.3475122942392095e-01  5.3963950764725055e-01  5.3968799773620069e-01  5.3479676163352752e-01  5.3975439543218240e-01  5.3486414229128254e-01  5.3493835745405893e-01  5.3983620205990235e-01  5.3500517929481695e-01  5.3992659722937497e-01  5.3505533650220194e-01  5.4000782680607529e-01  6.2674956198095433e-01  6.1291369440880850e-01  6.1294636378437084e-01  6.2677204677622089e-01  6.2682679105766559e-01  6.1303763373845510e-01  6.2691835976055987e-01  6.1317560973002327e-01  6.2705126522274357e-01  6.1334389980460835e-01  6.2723473685730102e-01  6.1352866715478194e-01  6.2747777693626794e-01  6.1371929551461735e-01  5.9044600458283103e-01  5.9050607182797443e-01  5.9066714392405018e-01  5.9087490282939181e-01  5.9109607861011870e-01  5.9129811665915599e-01  5.9142382234116786e-01  6.0381967924471525e-01  6.0380877193255023e-01  6.0379140790745212e-01  6.0378929197238584e-01  6.0381388305277850e-01  6.0388280657788074e-01  6.0403764761998213e-01  6.0209270412208205e-01  5.9129822237191620e-01  5.9410699661207556e-01  5.9409568053192274e-01  5.9134408990022969e-01  6.0211831909407054e-01  5.9409034410966943e-01  6.0215298084628688e-01  6.3158846940374114e-01  6.2039090494204729e-01  6.2043936421262336e-01  6.3161484768409459e-01  6.2055497353019418e-01  6.3166366676275409e-01  6.2071914907482162e-01  6.3174971219866882e-01  6.2091625583036414e-01  6.3187573324932234e-01  6.2114041134056019e-01  6.3204574318905904e-01  6.2139269941600006e-01  6.3226371897388578e-01  5.1063785765693626e-01  4.9851800376385780e-01  5.1036833978452845e-01  5.1993736436428029e-01  5.1478428982203517e-01  5.0955039329332885e-01  5.1994997846075064e-01  5.1480187126566834e-01  5.0959005811957836e-01  5.1485237708075549e-01  5.1998285607881778e-01  5.0971703217282560e-01  5.1494071408386599e-01  5.2005252841893368e-01  5.0989277622137807e-01  5.1506667228015779e-01  5.2015828642141637e-01  5.1011208602858571e-01  5.1522968373153899e-01  5.2029753245407839e-01  5.1543214246990288e-01  5.2048184081896698e-01  6.1585419993099888e-01  6.2559695742019417e-01  6.2187214029617499e-01  6.2172456813956123e-01  6.1568985277229082e-01  6.2584435792908855e-01  6.1600129794891345e-01  6.2206940131900346e-01  6.4993899443889847e-01  6.3663296240192779e-01  6.4386777696001007e-01  6.4388354579178331e-01  6.3662470647477409e-01  6.4997698185860464e-01  6.4392532713344253e-01  6.3661408330497271e-01  6.5007723775293746e-01  6.4400314004246173e-01  6.3663812394837871e-01  6.5022330585042409e-01  6.4412997458875476e-01  6.3671495713674375e-01  6.3099738312252118e-01  6.3101821183000717e-01  6.3107122946909067e-01  6.3115682912131699e-01  6.3128947575354355e-01  6.3147720924365758e-01  6.3170192722417073e-01  6.0814608421455130e-01  6.0813873897140192e-01  6.0812677042912899e-01  5.7140163074045569e-01  6.0471725254637954e-01  6.0472198964105495e-01  6.0473623161075230e-01  6.0476369279369124e-01  6.0481277476841377e-01  6.0489972344297005e-01  6.0504719394692441e-01  6.1873927708264786e-01  6.1873738849107707e-01  6.1874306167923332e-01  5.3689888296806543e-01  5.3690173031416444e-01  5.3693315135055908e-01  5.3698806034095636e-01  5.3706269039351262e-01  5.3715508256030453e-01  5.3725605226922368e-01  5.9411891398597638e-01  5.9411669690315616e-01  5.9410504284200072e-01  5.9417233867502994e-01  6.2117406205331138e-01  6.2133250760949132e-01  4.9734393183470088e-01  6.1245388874611295e-01  5.9963355007420016e-01  5.9965317698352449e-01  6.1248768535513776e-01  5.9970176071842396e-01  6.1258604141785755e-01  5.9975967599171320e-01  6.1271531513563937e-01  5.9982644648038963e-01  6.1286581305763332e-01  5.9989633105908879e-01  6.1303033313147082e-01  5.9996654381027259e-01  6.1317903897215720e-01  4.9601877965482455e-01  5.0444154201247760e-01  5.0439379653812477e-01  5.2820448488745508e-01  5.2823388679900851e