<?xml version="1.0"?>
<VTKFile type="UnstructuredGrid"  version="0.1"  >
<UnstructuredGrid>
<Piece  NumberOfPoints="2275" NumberOfCells="10082">
<Points>
<DataArray  type="Float64"  NumberOfComponents="3"  format="ascii">9.094173925064778 3.680739223457439 3.609707729621877  8.974074714784079 3.63017503845702 3.693390042021607  9.084317025112236 3.627439826924734 3.70405588382302  9.082913863021151 3.684079227111119 3.739611611864856  8.972825159620786 3.68777162096141 3.727149345104348  9.092603799532878 3.738575932422564 3.63876107865531  8.967493775225321 3.9745230544923 3.896843728713279  9.08553622675373 4.027128515339742 3.785047074177867  9.076726087554711 3.965636916718212 3.91788752958675  9.086977039454791 3.969380426832473 3.755913006459457  9.934620869223124 3.893722256974707 3.20251320624355  9.866795192279152 3.921606578204871 3.113111358860062  9.826582413044678 3.86458465614687 3.249921202810234  9.822477909236369 3.91807358628391 3.271212235507683  9.860356257996092 3.973502932433574 3.132112009068786  9.92861826726979 3.946112066927183 3.224184323330544  9.818308047458123 3.971630877699502 3.292627886642588  9.853887762680918 4.025496044157539 3.151221112458557  9.922588942366817 3.998595693256586 3.245949656945938  9.81410229740287 4.02530509878747 3.314121361652903  9.847397976414888 4.077626474464172 3.170401935992226  9.916536521435074 4.051206812301688 3.267784093565078  9.809894438500972 4.079114304890538 3.3356409917651  9.84088936705289 4.129918753222813 3.189617716990079  9.910473769699379 4.103966600286645 3.289658899093128  9.805723444980469 4.133075608001336 3.357139265101383  9.834372912078761 4.182405509270577 3.208828018052984  9.904421796193928 4.15690422491158 3.311543053633461  9.801661441440991 4.187206364227761 3.378551975459983  9.827879006177616 4.23512901959733 3.227986887845084  9.898403936491572 4.210069561502609 3.333407740142931  11.46918238537791 3.73144422164939 3.690194489027493  11.34371061177841 3.833511991213953 3.624466178810795  11.35291028153968 3.700808976165242 3.712626405680792  11.35681082491192 3.740928279920273 3.781021273376167  11.34473509392808 3.881579040355123 3.687341419570479  11.47180675023099 3.772836754733573 3.76066206336606  11.34547945836829 3.930155655795188 3.750051684343204  11.47404260221692 3.814443242983587 3.831407470748881  11.36022369092216 3.781632713248555 3.849542419029982  11.34618252976586 3.978959755774821 3.81278426391396  11.47599470384265 3.856380046820278 3.902415013121464  11.36348271973778 3.822643717379771 3.91824786588638  11.34684031348935 4.027945674179016 3.875607689522013  11.47789784378288 3.898645463317317 3.973709511716842  11.36675242175493 3.863833160843714 3.98721199949969  11.47965987768687 3.941261307144691 4.045192685947126  11.34740185876545 4.077055397616475 3.938712801316399  11.37004611918152 3.905134767778785 4.056456018808102  11.48088569169225 3.984144492222966 4.117032307301804  11.34791824705297 4.126127915275148 4.002179110151451  11.37316019227145 3.946266847151567 4.126251059751003  8.987591692058965 3.847146714848024 3.054437152995741  8.938308606269832 3.869509059736925 2.963256761118864  8.896527013464288 3.825852286775401 3.101628448577795  8.892515603372233 3.878431044328029 3.115853191099767  8.93408000014438 3.92021297714988 2.978987093091362  8.982994217993078 3.898981413613638 3.069034684712581  8.978473352321386 3.95095282094022 3.08373368533469  8.929925716709658 3.97111500184896 2.994779615506154  8.888590787016541 3.931217799346595 3.130214861599225  8.974006646934336 4.003132814828959 3.098498755972897  8.925810203751551 4.022218088025737 3.010629539438528  8.884729225248314 3.984218122616571 3.144651517136657  8.96953537170085 4.055529910560666 3.113304315932727  8.921685499713199 4.073544495789157 3.026540819790161  8.88087766539191 4.037455988452161 3.159121980107157  8.965012167813233 4.10816858655315 3.128122563065066  8.917504387358493 4.125136224547095 3.042525043351042  8.876974048227517 4.090964005662689 3.173590004504922  8.913205175866649 4.177015785935831 3.058568706588044  8.960366753043406 4.161118729546361 3.142909829174596  8.872919135181176 4.144844291846601 3.188011662424925  8.973520021082338 3.942939582164623 2.761174704851625  8.919437161971761 3.973172598385624 2.664763798342906  8.850000488309339 3.924430951421513 2.77700045749684  8.845558936027526 3.974246134588466 2.794653993755094  8.914166478567155 4.023139872836157 2.683635033795931  8.968496262255448 3.992509072475547 2.779410391332544  8.963549666110868 4.042255946091477 2.79758731486911  8.908980749828478 4.073339856758101 2.70239775104662  8.841212600020709 4.024305650680372 2.812261683004634  8.958618594348721 4.092194028826115 2.815810582417105  8.903804985710346 4.123712351629403 2.721188720606563  8.836894168489238 4.074569616046895 2.829906045595228  8.953672894035131 4.142305310517072 2.83412099183176  8.898603822019675 4.174241179737948 2.74008187731194  8.832556856507283 4.125039009432236 2.847645875211998  8.828154626954319 4.17570064699957 2.865540116899665  8.893343848974583 4.224892920708889 2.759144583969554  8.948665184007591 4.192616678837588 2.852583469980953  8.887972614817221 4.27563985573046 2.778454943097415  8.943545650576706 4.243084699946415 2.871261481109642  8.823619076358034 4.226636111743328 2.883700043952831  8.990904526618728 3.703110878801826 3.556865444742028  8.988110986449346 3.761779809917843 3.581597130188125  8.985464613763671 3.820398943615236 3.60656360458235  8.975082618645859 4.055403828305302 3.706572553970174  8.91969193935979 3.903739148817139 2.853349498971146  8.91514730212038 3.953532003266118 2.870435668089378  8.910680143292728 4.003566914142301 2.887523943345037  8.906236428437648 4.05380924853706 2.904661833501768  8.901776005392803 4.10425729769339 2.921880057969638  8.897260402694561 4.154914808381353 2.939207644853848  8.892628173690408 4.205789038705409 2.956705871656081  9.464834165975125 3.509678280676943 3.806891115006415  9.358863483544365 3.563401046119201 3.774094414457075  9.383337203384682 3.455671376469039 3.865291915175391  9.390671115387587 3.496337577912266 3.921325552784612  9.362970254109488 3.612168951177063 3.821375905646348  9.472562424325815 3.553888864071617 3.85849134305187  9.397899498950853 3.536825924924611 3.977268278766124  9.367026670356442 3.660757343158181 3.868653918585233  9.480142547329347 3.597923338566543 3.910057254753796  9.405082008373627 3.577188014290841 4.03314665856418  9.371072289775951 3.709224792785952 3.91592027315982  9.487672774226297 3.641848413922416 3.961600193735869  9.412276640051466 3.617451994077123 4.088971382743197  9.375141243565119 3.757615072587064 3.963155172242622  9.495224949753641 3.6856978805827 4.013112212649236  9.419517305927577 3.657626029963379 4.144739538690294  9.379253553729855 3.805950256498333 4.010336192989061  9.502851285998982 3.729479310675794 4.064569315370041  9.426835404034028 3.697722128971895 4.20044581380513  9.383403052772875 3.854240157047294 4.057443616152565  9.510580408649112 3.773175880561477 4.115928282086077  9.974003808340562 3.745374381560763 3.484492712057105  9.870588387408359 3.772979871047733 3.430968638913205  9.899624348631358 3.687139509022197 3.560467769255372  9.900811071706725 3.735566552362967 3.600890466830168  9.869885001282148 3.824515618254137 3.463138968119012  9.97111120171621 3.79538168545173 3.520683398288771  9.968163673639406 3.845443604410274 3.556980099506475  9.869060700082711 3.876085582577085 3.495427939773633  9.901858586801948 3.784031748188293 3.641450137532036  9.965199186244559 3.895612952798092 3.593353992496278  9.868194229018371 3.927725299647491 3.527778089028659  9.902863257747947 3.832556365799246 3.682075511323692  9.962261633105808 3.945898314508669 3.629790096547046  9.867346305277 3.979452082024074 3.560163398730677  9.903898277522309 3.881166733582289 3.722756957264811  9.866572959134942 4.03126223374729 3.592545194557926  9.959378186058785 3.996332344890383 3.666288951647141  9.905039185548706 3.929902823193613 3.763494101993638  9.956513789992952 4.046903888409117 3.702848324585357  9.865947179062083 4.083239706439532 3.624946527510053  9.906360294811888 3.978793930098474 3.804314641527654  9.733437488808706 3.8859869902793 3.175477467232727  9.728467981459573 3.939157589068572 3.193841997950252  9.723445801632922 3.992429272785077 3.212367301305956  9.71840565148932 4.045819057188343 3.230965429207924  9.713359098090345 4.099359828811988 3.249581687477798  9.708325560667133 4.153078706484415 3.268160037083971  9.703345252139803 4.207000211139617 3.28663389615714  8.801977227266025 3.840976379840709 3.023592456374373  8.798755602450578 3.892653072206757 3.038368010073994  8.795622144649553 3.944544934728655 3.053242507970128  8.792541187855146 3.996672940811393 3.068180280852149  8.789471949704728 4.049060976350285 3.083166144770087  8.78635690080684 4.101746193247229 3.098185179174368  8.783133910646924 4.154796541790195 3.113227854068029  11.2460374211805 3.753234248156851 3.688371533731913  11.246950230679 3.796984388653835 3.752457297276558  11.24739810228192 3.841478305703868 3.816401638955701  11.24782373449721 3.886212732215935 3.880458645456128  11.24837716116403 3.931070738069276 3.944705613065913  11.24901263347475 3.975936109096617 4.009241594164979  11.24965736812706 4.020500473484151 4.074327679052863  9.9834258898888 3.802470667077648 3.399939356932026  9.924849832001332 3.852351726832807 3.29873097493634  9.920847478743063 3.904862876036571 3.324489011224913  9.979351486450579 3.854241406162376 3.430777134960951  9.975241776634896 3.906100472069475 3.461715519217153  9.916775852425857 3.957481934883604 3.350373238881342  9.971113630218436 3.958067617405949 3.492731511247707  9.912678321498257 4.010208537383609 3.376327407583125  9.908590213271218 4.063063228105995 3.402318593916569  9.966993472375904 4.01017528451956 3.523808874884629  9.904551125480946 4.116087928922213 3.428320242429811  9.
[...]
<PointData  Scalars="f_14"> 
<DataArray  type="Float64"  Name="f_14"  format="ascii">2.4960033746605159e-01  2.6289205573313584e-01  2.5187346518553183e-01  2.5192309533372592e-01  2.6289322593869646e-01  2.4960866181596350e-01  2.6318479526567440e-01  2.5003509878433849e-01  2.5269766854790882e-01  2.4992032286766822e-01  1.5861691704630043e-01  1.6477732920645091e-01  1.6994778150879833e-01  1.6994184279102056e-01  1.6476863809661768e-01  1.5861436573939300e-01  1.6991926800877910e-01  1.6474200311445328e-01  1.5860566156639033e-01  1.6988939704461251e-01  1.6470516745266334e-01  1.5858956477744604e-01  1.6986787558463606e-01  1.6466846641440200e-01  1.5857586015503153e-01  1.6987487283951125e-01  1.6464500910247010e-01  1.5857672952059776e-01  1.6993498290751627e-01  1.6465765025145057e-01  1.5859590045219232e-01  1.7016910987248987e-02  2.6704154483960518e-02  2.6155787661606356e-02  2.6065756953190827e-02  2.6627287062312273e-02  1.6952270930157099e-02  2.6381437504410132e-02  1.6775365131996494e-02  2.5796668166199081e-02  2.5997814391712837e-02  1.6499126592171690e-02  2.5393500639350117e-02  2.5508647981455884e-02  1.6108880375634942e-02  2.4883201676211695e-02  1.5586106645168287e-02  2.4942100199684770e-02  2.4288769402062767e-02  1.4902612541025990e-02  2.4321358921938537e-02  2.3661572850573968e-02  2.5361387806485347e-01  2.5728882073050491e-01  2.6324537262824893e-01  2.6326276422259720e-01  2.5729648113947362e-01  2.5362711702497559e-01  2.5366318580492581e-01  2.5731556791337906e-01  2.6331016107691763e-01  2.5371524215790880e-01  2.5734809049372903e-01  2.6337994607578941e-01  2.5378143698899908e-01  2.5739385613001553e-01  2.6346835743028563e-01  2.5385909369772647e-01  2.5745221070554208e-01  2.6357082843984819e-01  2.5752665314754830e-01  2.5394474756839069e-01  2.6367910867074978e-01  2.5104961945675297e-01  2.5504091794818101e-01  2.6343822450713728e-01  2.6344404062359145e-01  2.5504726065039990e-01  2.5105781745152850e-01  2.5108647783315668e-01  2.5506765152590105e-01  2.6345920249875182e-01  2.5112929634815001e-01  2.5509885502464003e-01  2.6348560345268252e-01  2.5117751013954759e-01  2.5513330159085434e-01  2.6352048789765847e-01  2.6356084463684337e-01  2.5516195520407398e-01  2.5122317431961799e-01  2.5517325796845852e-01  2.5124960737404484e-01  2.6360453086071484e-01  2.5945821307187883e-01  2.5947710041800887e-01  2.5953165540738582e-01  2.5999099381586244e-01  2.5766333573678507e-01  2.5767145765948046e-01  2.5769848570690651e-01  2.5774045763549869e-01  2.5779278490724644e-01  2.5784958731248309e-01  2.5790350717945126e-01  2.1405899004670723e-01  2.2461995593252834e-01  2.2356721346472297e-01  2.2359200536073287e-01  2.2467270410027473e-01  2.1406889849289859e-01  2.2365019362990479e-01  2.2478031922196437e-01  2.1408772862614744e-01  2.2373890997430868e-01  2.2492338321722807e-01  2.1412861039495809e-01  2.2385971830661311e-01  2.2509105327467910e-01  2.1420356362001192e-01  2.2401327363999157e-01  2.2527097297380902e-01  2.1432007240052142e-01  2.2417889860768161e-01  2.2544907805475181e-01  2.1446753688848641e-01  1.5739748976965282e-01  1.6716644954997725e-01  1.6571629475882246e-01  1.6571137645643061e-01  1.6714754423474198e-01  1.5743550549186849e-01  1.5754820041687037e-01  1.6712481992453029e-01  1.6572508260429922e-01  1.5768393549775497e-01  1.6709878676927153e-01  1.6574794975417406e-01  1.5782741451560539e-01  1.6708552614877298e-01  1.6578948436810195e-01  1.6710215946829599e-01  1.5795718448786200e-01  1.6586159540209566e-01  1.5798518465449318e-01  1.6716357932198558e-01  1.6595893887289440e-01  1.7887913921602702e-01  1.7887818804870667e-01  1.7886970663162724e-01  1.7885820077957029e-01  1.7885109490117657e-01  1.7885795431807042e-01  1.7889172127298028e-01  2.7145066060373829e-01  2.7146260436891362e-01  2.7150259952227140e-01  2.7156699623988201e-01  2.7165318396558330e-01  2.7175944968230953e-01  2.7188432439455334e-01  3.4935965374780456e-02  3.4878693249124348e-02  3.4652652970812096e-02  3.4292235586801917e-02  3.3829510507226934e-02  3.3308424760686052e-02  3.2791646917043893e-02  1.5546068431815532e-01  1.6034606797689804e-01  1.6033127742224576e-01  1.5547833275321976e-01  1.5553937435630194e-01  1.6030817711141046e-01  1.5561030518681743e-01  1.6028158047104202e-01  1.6026507566730627e-01  1.5568588531034960e-01  1.6027691886821516e-01  1.5575185616672835e-01  1.5576091778631443e-01  1.6032829752119768e-01  2.3415466268700377e-01  2.3413462457981399e-01  2.3410309785758726e-01  2.3408941368727104e-01  2.3410739763242319e-01  2.3417421530266255e-01  2.3433184373791360e-01  1.7492134536616999e-01  1.7487203338368301e-01  1.7472857823757199e-01  1.7456573269226797e-01  1.7442272069255083e-01  1.7434387734932141e-01  1.7443557256960440e-01  1.6138546646897584e-02  2.3134807789976324e-02  2.3849658972375273e-02  2.3783101748281667e-02  2.3056917915753070e-02  1.6116321010795590e-02  2.3587353793901904e-02  2.2843061106555290e-02  1.6010116177669207e-02  2.3258186780807183e-02  2.2499159022822488e-02  1.5785342439922186e-02  2.2799047988344003e-02  2.2026352379361163e-02  1.5428581425231703e-02  2.2211379323137243e-02  2.1424428630787553e-02  1.4929674037415387e-02  2.1490320004134034e-02  2.0702602336893430e-02  1.4237295093852190e-02  1.7437597477197492e-01  1.7436126296712115e-01  1.7428540769346432e-01  1.7419544559994793e-01  1.7412214452448890e-01  1.7410083040262975e-01  1.7418398327909301e-01  2.6673324685779864e-01  2.6674138499381678e-01  2.6676559270735462e-01  2.6680699197778907e-01  2.6686407179525384e-01  2.6693440903462062e-01  2.6701830193508985e-01  2.4015292875538488e-01  2.3732044862614537e-01  2.4729171827011204e-01  2.3725593668625775e-01  2.4006919423161951e-01  2.4742065148742695e-01  2.4026886785865265e-01  2.3744743080930597e-01  2.3382777617383876e-01  2.3229906679386336e-01  2.4452835402823583e-01  2.4453503774666804e-01  2.3231478315650914e-01  2.3383776977478865e-01  2.4455137643177671e-01  2.3236150497272373e-01  2.3386344695193514e-01  2.4457761837429801e-01  2.3242245415670287e-01  2.3389921480688811e-01  2.4461273835405151e-01  2.3248814317849373e-01  2.3394115669615576e-01  2.4465518444397813e-01  2.3254809446813707e-01  2.3398445186805075e-01  2.4470655438699115e-01  2.3258087114429718e-01  2.3402841896880827e-01  3.2803481997009630e-02  3.2746721834210103e-02  3.2554244504928956e-02  3.2228183618014210e-02  3.1773997698920288e-02  3.1197429318400981e-02  3.0521763626619937e-02  2.4564616622692731e-01  2.4565405745113242e-01  2.4567950695737042e-01  2.4571849347999558e-01  2.4576829826085850e-01  2.4582614415371790e-01  2.4588997637519658e-01  8.2875495148067389e-03  1.5929602965091286e-02  1.6633663000162866e-02  1.6562607252829202e-02  1.5880293324389793e-02  8.2163343407812266e-03  1.6361388065662619e-02  1.5714982082267664e-02  8.0527217122450725e-03  1.6045454096875248e-02  1.5428672219915377e-02  7.8210834002395181e-03  1.5615007509923234e-02  1.5024281681504707e-02  7.5124180820900586e-03  1.5067017554544588e-02  1.4484981616963674e-02  7.0863192449538643e-03  1.4368738976320175e-02  1.3805522305972717e-02  6.4440985693877788e-03  2.2082803461094511e-01  2.3095452115459400e-01  2.2870293240780923e-01  2.2870939861879333e-01  2.3096025914914850e-01  2.2082740181902941e-01  2.2873483262988209e-01  2.3099855495404883e-01  2.2083347804031303e-01  2.2877890887211147e-01  2.3105604315089648e-01  2.2085513716022534e-01  2.2884397946948443e-01  2.3113260204118849e-01  2.2089728201945061e-01  2.2893282907154858e-01  2.3122743596167672e-01  2.2096508596680592e-01  2.2905968691662379e-01  2.3132377419832048e-01  2.2106544446165979e-01  2.7452967628173580e-01  2.7453760976244179e-01  2.7457137055306657e-01  2.7462518274253400e-01  2.7469615029814748e-01  2.7477861028551365e-01  2.7486423700744278e-01  9.0239166491515362e-03  1.7764556704616987e-02  1.7681279264039999e-02  8.9924247792331873e-03  1.7465823456007945e-02  8.9124712864966146e-03  1.7138798508372556e-02  8.7756797342842842e-03  1.6708797654640249e-02  8.5531386318754513e-03  1.6172686113433830e-02  8.1823851378248717e-03  1.5503371523274734e-02  7.5166571053077256e-03  2.1438743012985195e-01  2.2012074076389992e-01  2.2015111818519886e-01  2.1440421271491306e-01  2.1444543090822241e-01  2.2023054851571783e-01  2.1450774077629420e-01  2.2033848812086698e-01  2.1459439296588823e-01  2.2046959793137044e-01  2.1470998260231125e-01  2.2061560609177350e-01  2.1485416752503270e-01  2.2075276849156766e-01  8.7379561891779960e-03  1.7098171327219233e-02  1.7055359286302422e-02  8.7285833282244544e-03  1.6917389646136469e-02  8.6831038911560684e-03  1.6679089725724870e-02  8.5877980703821712e-03  1.6333283335947496e-02  8.3968036546446748e-03  1.5857670366479650e-02  8.0575759922168252e-03  1.5175681108307823e-02  7.4835077697844171e-03  1.8316575035120344e-01  1.8316597856656802e-01  1.8316178061433561e-01  1.8315934697242578e-01  1.8316663983212336e-01  1.8319301405370633e-01  1.8325403560336856e-01  2.0942182502979304e-01  2.1116422435901785e-01  2.2276492547229396e-01  2.2277477198096529e-01  2.1116945401560949e-01  2.0943134251353970e-01  2.2280205830325098e-01  2.1118289499905396e-01  2.0946092557466783e-01  2.2283990118851138e-01  2.1120062099406209e-01  2.0949947163867250e-01  2.2288184845676159e-01  2.1121954794346701e-01  2.0954040527000306e-01  2.2292125273965213e-01  2.1123571121780113e-01  2.0957683071680794e-01  2.2295138253448235e-01  2.1124329783556525e-01  2.0959887853629075e-01  1.3358542031747667e-01  1.3773762189506719e-01  1.4637994410201616e-01  1.4635464782230423e-01  1.3772274385767158e-01  1.3353674490814754e-01  1.4629102110171538e-01  1.3765866214603995e-01  1.3340774844217071e-01  1.4621173254601452e-01  1.3756780170982752e-01  1.3323615331760652e-01  1.4613019396351579e-01  1.3746666425486800e-01  1.3304851582669994e-01  1.4606000547276979e-01  1.3737341803323022e-01  1.3287980825949830e-01  1.4603502183731573e-01  1.3731016457114278e-01  1.3280551824036577e-01  2.3986530393452066e-01  2.3859702650058184e-01  2.3860550552717960e-01  2.3987843552917729e-01  2.3862740968251012e-01  2.3992152158984245e-01  2.3866755448602303e-01  2.3998359568540159e-01  2.3872648500345736e-01  2.4006273169509351e-01  2.3880428928274702e-01  2.4015720345269978e-01  2.3890986782397500e-01  2.4025862565438164e-01  2.3628139662365155e-02  2.3546617755340189e-02  2.3317284166022571e-02  2.2954804061095336e-02  2.2469844518387534e-02  2.1861356767554945e-02  2.1147724273998896e-02  2.1758730832382928e-01  2.1759897059074776e-01  2.1763352924028168e-01  2.1768044917755011e-01  2.1773213328171220e-01  2.1778108014163877e-01  2.1781894883716102e-01  3.4828743049744162e-02  2.5143280297870094e-02  1.5366392788602484e-01  1.5364904673739913e-01  1.5361940186855227e-01  1.5359006245286319e-01  1.5356526178022770e-01  1.5355424129240455e-01  1.5358581846289462e-01  2.8001893707649206e-01  2.8003994713809849e-01  2.8009817580549379e-01  2.8018709484747656e-01  2.8030200118627280e-01  2.8057978651180365e-01  1.8853187132892213e-01  1.8715230728784213e-01  1.9893055540932783e-01  1.9893269703106944e-01  1.8715401949508212e-01  1.8853670421024374e-01  1.9893631778328039e-01  1.8715604687693577e-01  1.8854801252640163e-01  1.9894103090116266e-01  1.8715641335926811e-01  1.8856150312704656e-01  1.9894702413404983e-01  1.8715579540151669e-01  1.8857622492838291e-01  1.9895466235326145e-01  1.8715472237003075e-01  1.8859224655134096e-01  1.9896842679285615e-01  1.8715319306419986e-01  1.8861090282202947e-01  2.2827692097951358e-01  2.2829056102867834e-01  2.2832783756066399e-01  2.2837949626652090e-01  2.2843964808409559e-01  2.2850425050890746e-01  2.2857167107392246e-01  0.0000000000000000e+00  0.0000000000000000e+00  0.0000000000000000e+00  0.0000000000000000e+00  0.0000000000000000e+00  0.0000000000000000e+00  0.0000000000000000e+00  1.4799727847280048e-01  1.4796508914140266e-01  1.4788003712310607e-01  1.4777395635132284e-01  1.4766607006367760e-01  1.4757824799315813e-01  1.4755473602306193e-01  3.1882679809799447e-02  3.1823510831330913e-02  3.1638978411938551e-02  3.1323542338812939e-02  3.0877158280922263e-02  3.0301813853672338e-02  2.9604807519231387e-02  2.1132201401338635e-01  2.0708822098045243e-01  2.0706096538386359e-01  2.1130924515610366e-01  2.0700368445600711e-01  2.1128266425858994e-01  2.0695426942741282e-01  2.1127380820966621e-01  2.0694208690408150e-01  2.1130213104817488e-01  2.0699698604559902e-01  2.1138180453403682e-01  2.0714973423243863e-01  2.1152493058067670e-01  1.9104887625687561e-01  1.9106518588325044e-01  1.9110315861044877e-01  1.9114941073235353e-01  1.9119977913007677e-01  1.9125032352903867e-01  1.9129205139291167e-01  2.4861482315034877e-01  2.4861379454754501e-01  2.4861396581102085e-01  2.4863209479688686e-01  2.4867058151640284e-01  2.4873481669362579e-01  2.4885113553479762e-01  2.6510226987073621e-01  2.7709998779373829e-01  2.7708938484618234e-01  2.6508310889949688e-01  2.7712316219354072e-01  2.6506665571840543e-01  2.6505368022043835e-01  2.7719554295175947e-01  2.6505678305963537e-01  2.7724085130625908e-01  1.9944274900378525e-01  1.9945355410442020e-01  1.9948521391049126e-01  1.9952653705177237e-01  1.9957131336697154e-01  1.9961403449315779e-01  1.9964772568900263e-01  3.6554821333125813e-02  3.6226744287055253e-02  3.5800861112600356e-02  3.5321814363835469e-02  2.8392907355235431e-01  2.8399110427926372e-01  2.4852400272711603e-01  2.4854800021890855e-01  2.4861218791172771e-01  2.4869852966578113e-01  2.4880175944306868e-01  2.4891621855708390e-01  2.4902346223230942e-01  2.7582182453140375e-01  0.0000000000000000e+00  8.1720437001189614e-03  8.3657864081019481e-03  8.3193902580418269e-03  8.1173334640772237e-03  0.0000000000000000e+00  8.1954496396445305e-03  7.9925740330372558e-03  0.0000000000000000e+00  7.9989910981113146e-03  7.7837814065633230e-03  0.0000000000000000e+00  7.7246302233377325e-03  7.4861672335386322e-03  0.0000000000000000e+00  7.3314204889699530e-03  7.0598057038806367e-03  0.0000000000000000e+00  6.7260006881932127e-03  6.4394732630220592e-03  0.0000000000000000e+00  1.7991407982466048e-01  1.8696734883803268e-01  1.8695856612938985e-01  1.7987790806829573e-01  1.8694682079111266e-01  1.7978279715952933e-01  1.8694656744599525e-01  1.7968010400124726e-01  1.8697999601167098e-01  1.7960602203547896e-01  1.8706874563530404e-01  1.7960242169492371e-01  1.8721547054123949e-01  1.7970823623780968e-01  2.3646835935788377e-01  2.3647664137259222e-01  2.3649797412056853e-01  2.3653106187933351e-01  2.3657313513880274e-01  2.3662146236133044e-01  2.3667313248137065e-01  4.0643306099581521e-02  4.2515213051591637e-02  4.2470522898617226e-02  4.0570381460451901e-02  4.2308638709107373e-02  4.0369030789060102e-02  4.2020949442252528e-02  4.0042624510975483e-02  4.1607362972970213e-02  3.9593673369028470e-02  4.1073245080731027e-02  3.9024861202738639e-02  4.0434146145407475e-02  3.8348076244379893e-02  3.7322363858777532e-02  3.7284437664699778e-02  3.7095190479817401e-02  3.6769834616444792e-02  3.6336437867313241e-02  3.5830716425866410e-02  3.5314689296600740e-02  1.7765370843063799e-01  1.7765242449423632e-01  1.7764815031717379e-01  1.7764010201591904e-01  1.7763138593338473e-01  1.7762655282403397e-01  1.7763094068344271e-01  0.0000000000000000e+00  7.5509790728419028e-03  7.8392549383305282e-03  7.7921191116151218e-03  7.3809488864970121e-03  0.0000000000000000e+00  7.6670553649777198e-03  0.0000000000000000e+00  7.4550910954864725e-03  7.1617796399573242e-03  0.0000000000000000e+00  7.1475263023441987e-03  6.8383925996688133e-03  0.0000000000000000e+00  6.7117517847188196e-03  6.3927382201785119e-03  0.0000000000000000e+00  6.0467734181238221e-03  5.7275438918199233e-03  0.0000000000000000e+00  1.5727489904747146e-02  1.5173199511253068e-02  1.5093511925063875e-02  1.4172295472972938e-02  1.3471326809527532e-02  1.2714912618105100e-02  1.3435897326743933e-02  7.8409638431051042e-03  7.7552825085757601e-03  7.5661945427836479e-03  7.3020185320828192e-03  6.9602819267026829e-03  6.5084570531771038e-03  5.8666001659344151e-03  1.9315328467005471e-01  1.9319824988435019e-01  1.9330966960521367e-01  1.9344949268093861e-01  1.9360811851949408e-01  1.9377499608512694e-01  1.9392653397761009e-01  2.3810612464637276e-01  2.3811841544529910e-01  2.3815008363958701e-01  2.3819663214012915e-01  2.3825527966504270e-01  2.3832350655504039e-01  2.3840066695129106e-01  1.0532611697425366e-01  1.1669755359692960e-01  1.0720157429797132e-01  1.0718493322688988e-01  1.1666869549570984e-01  1.0530282992962083e-01  1.0712196554119024e-01  1.1657733202476499e-01  1.0521906829297205e-01  1.0702002693172497e-01  1.1644609071258355e-01  1.0508948180830578e-01  1.0686918595109794e-01  1.1628121835276527e-01  1.0490990339246434e-01  1.0665635858658921e-01  1.1609045393206867e-01  1.0467700696985632e-01  1.0637705486042751e-01  1.1588672500903205e-01  1.0440083893402391e-01  2.5753018107798203e-01  2.5755697744733985e-01  2.5762733559496431e-01  2.5773004047873410e-01  2.5785170397008528e-01  2.5810837828434408e-01  1.6780646881845454e-02  2.5627887659509175e-02  2.5580775787082247e-02  1.6697008772288024e-02  2.5378630985727926e-02  1.6490493889929854e-02  2.5040592072406657e-02  1.6170135085835636e-02  2.4576973351637544e-02  1.5725834760447654e-02  2.4007878423102650e-02  1.5162830299668495e-02  2.3358020210228717e-02  1.4462369878352822e-02  0.0000000000000000e+00  8.4164083449513958e-03  8.3408447022211406e-03  0.0000000000000000e+00  8.1448701993109187e-03  0.0000000000000000e+00  7.8862403390074515e-03  0.0000000000000000e+00  7.5652487641469923e-03  0.0000000000000000e+00  7.1408719826503379e-03  0.0000000000000000e+00  6.4973250675213643e-03  0.0000000000000000e+00  2.2289209799514190e-01  2.2289995121421199e-01  2.2292063963196002e-01  2.2294907541571496e-01  2.2298023216129209e-01  2.2300760239598777e-01  2.2302321674838443e-01  0.0000000000000000e+00  8.1740960146351651e-03  8.1191672062491185e-03  0.0000000000000000e+00  7.9884378430968902e-03  0.0000000000000000e+00  7.7725834698660285e-03  0.0000000000000000e+00  7.4602540598768174e-03  0.0000000000000000e+00  7.0284350485932331e-03  0.0000000000000000e+00  6.3837914431497129e-03  0.0000000000000000e+00  0.0000000000000000e+00  0.0000000000000000e+00  0.0000000000000000e+00  0.0000000000000000e+00  0.0000000000000000e+00  0.0000000000000000e+00  0.0000000000000000e+00  8.8255898282078755e-03  8.8328330837805953e-03  8.8014541910395178e-03  8.7079090732803139e-03  8.5181140045953296e-03  8.1804634986500351e-03  7.5768472235891388e-03  0.0000000000000000e+00  0.0000000000000000e+00  0.0000000000000000e+00  0.0000000000000000e+00  0.0000000000000000e+00  0.0000000000000000e+00  0.0000000000000000e+00  8.5533690529521769e-02  8.6741460827333527e-02  9.6143423652605711e-02  9.6124263375796146e-02  8.6714891563975133e-02  8.5513186680162473e-02  9.6078740439275306e-02  8.6643128349281118e-02  8.5455273070104823e-02  9.5987862891636327e-02  8.6509628063462782e-02  8.5338826107412002e-02  9.5830669938891527e-02  8.6291199425695964e-02  8.5136157935873299e-02  9.5582999783746792e-02  8.5962113882691593e-02  8.4818282688368926e-02  9.5212493611683283e-02  8.5498292965616479e-02  8.4358045425193484e-02  1.2789243765691929e-01  1.3893347702068684e-01  1.3891443645769799e-01  1.2785582403203455e-01  1.3886293053271540e-01  1.2776982716513757e-01  1.3879128060868862e-01  1.2765218605880288e-01  1.3871177440242849e-01  1.2751443274238375e-01  1.3863806430787215e-01  1.2736853571052797e-01  1.3857741970604601e-01  1.2722807108099396e-01  1.3799526127238493e-01  1.5128732604597189e-01  1.4141331745317726e-01  1.4140400752504376e-01  1.5127886309163113e-01  1.3797524638498249e-01  1.4137835805323229e-01  1.5124172885994058e-01  1.3793238824849799e-01  1.4133856363450290e-01  1.5118943222132808e-01  1.3787035929212113e-01  1.4128790040928488e-01  1.5113151080050058e-01  1.3778954902467527e