<?xml version="1.0"?>
<VTKFile type="UnstructuredGrid"  version="0.1"  >
<UnstructuredGrid>
<Piece  NumberOfPoints="2087" NumberOfCells="9434">
<Points>
<DataArray  type="Float64"  NumberOfComponents="3"  format="ascii">11.46641280331104 1.978122275020119 1.394446091484733  11.35112708813064 1.969618428127058 1.427889556521546  11.35397954416854 2.055688654879765 1.298265511165015  11.34753544151227 2.002138674320801 1.248688896117169  11.34681411568483 1.907640142425082 1.391748362997348  11.46161173912474 1.91325535864852 1.356815625174671  11.34107788199354 1.948470048541591 1.198714646285942  11.34231547907771 1.845364512998333 1.355466138507336  11.45672366197889 1.84792781350578 1.319307489095343  11.33487018276668 1.894605872785707 1.148611932250708  11.33796772901803 1.782758807862701 1.319182442196807  11.45189808968412 1.782265947546264 1.281814034876885  11.32901548773711 1.840501187873724 1.098480120627111  11.33387228978227 1.719820606493373 1.282878121325721  11.44714773104993 1.716400315243423 1.24417468401477  11.44257005086261 1.65031626667854 1.206271163277489  11.33004035586849 1.656628147685703 1.246457859766936  11.32356016426388 1.786014796367966 1.048265922193724  11.4383365356169 1.583960083815935 1.167919462011583  11.32652146345419 1.593210887272218 1.209726817368533  11.31849692782392 1.731223033194754 0.9978673701063457  11.13416909211307 1.949121114050913 1.483148170531242  11.01260965547261 1.94416566159979 1.51068751389263  11.10492700604044 2.013121452137105 1.385259079919105  11.09678618448488 1.961600597188983 1.34263379414761  11.00713282191337 1.889155504510666 1.477755671319004  11.12987378782852 1.891441579279574 1.449525481600207  11.08831472408569 1.910047400509391 1.299662988109774  11.00118477254009 1.83399058890714 1.444467295989129  11.12527274469664 1.833587386891385 1.415574203617328  11.08001853500847 1.858296293521921 1.25661793490534  10.99527837114818 1.778593289941384 1.411082538545348  11.12079773359866 1.775484686856045 1.381546857568388  11.0720877382213 1.806296178766142 1.213588119388454  10.98965336574366 1.722971055284742 1.377713114546812  11.1166652206534 1.717121210385723 1.347565027103599  11.06460623438643 1.754031676358774 1.170619320512891  10.98448432329771 1.667119499870029 1.344424366804062  11.11295731644537 1.658500041849037 1.313640458860225  11.05752341701922 1.701508065208752 1.127694806800334  10.97985074377213 1.610993986878529 1.311175209033102  11.10955024764831 1.599595818157727 1.279623108976954  10.75551151635523 1.784058705103561 2.005521691742546  10.66061109222855 1.76869702417188 2.074578686285489  10.65284610100074 1.77874381278011 1.94232667488286  10.65721122581665 1.721175515712972 1.932262516866031  10.66675519009116 1.711727372119526 2.070608634821387  10.76072868135851 1.726490711198767 2.000211796981598  10.66137666573213 1.663534562138034 1.922036186763983  10.67276322656562 1.654663424756005 2.066496184760392  10.76579149547398 1.668781152802846 1.994757340295042  10.66552228009309 1.605839979193222 1.911774272835915  10.6787544907778 1.597508533975713 2.062333819161765  10.77085434465547 1.610952555428156 1.98926200563428  10.6697655952806 1.548091564482889 1.901550969768912  10.68481441326139 1.540283814982124 2.058188696267266  10.77601203132772 1.553035935602705 1.98379413644085  10.6741932828901 1.490293748980559 1.891424681755945  10.69100718505469 1.48301231716266 2.054108134434568  10.78133348088108 1.495045813778869 1.978398789696409  10.67884824846661 1.432460021451823 1.881429558759123  10.69736435600483 1.425713587100671 2.050147406311897  10.78688278232497 1.436990526440031 1.973113841042062  10.03617965698703 3.7065987064617 0.8692861443173574  10.04418622241064 3.598834226573001 0.8339598380096087  9.93207089939734 3.613033129566723 0.8549644709563538  9.922745689267213 3.629628062241274 0.7832060709439241  10.03416666205774 3.614268433032245 0.7623493992833978  10.02725011340499 3.730846877888712 0.7994702623091356  10.01846750119299 3.75534218828326 0.7295762053531251  10.02428381006517 3.629916377154819 0.6906081447652352  9.913496770347898 3.646418800997101 0.7112983073691115  10.00459488754353 3.661254725855371 0.5468605644590778  10.00100262995815 3.80446390192767 0.5895508466232299  9.895028105200479 3.68001602730062 0.5671743945447697  9.904275376617283 3.66324784925729 0.639283908347778  10.01445321192021 3.645614643475499 0.6187738574504782  9.992179912609018 3.828866673384242 0.5194155651032909  9.994631841089264 3.676744721162463 0.4748573954786582  9.885700840397487 3.696639415200236 0.4949641805165525  9.983224894082875 3.853048622630048 0.4491648369210692  9.984504485695153 3.69202462885571 0.4027359422867317  9.876258274070858 3.71308293416067 0.4226163500545815  11.24591443997037 2.026037954974446 1.3491621502864  11.23931414941956 1.971155260021494 1.30561875221525  11.23258981222001 1.916109628108199 1.261647774693023  11.22607679544068 1.860840804107217 1.217565072630756  11.21995384550351 1.805286437592474 1.173487004586076  11.21426447393981 1.749439567810947 1.129452379484412  11.20885150353269 1.693275981464313 1.085383497093428  11.58182836547067 1.917454376357157 1.502317995779022  11.46262443809366 1.916118119141014 1.52291848497637  11.4599040153571 1.847602699480436 1.496020715363237  11.58055459574814 1.845495258088406 1.475071447258003  11.45700455963641 1.778561356379468 1.469478679042052  11.57922352851604 1.77276574862162 1.448608781127282  11.45416947977693 1.709156071355226 1.443033339433868  11.57793844056689 1.699670970909899 1.422251027240647  11.45148295553453 1.639472139852304 1.416449434943799  11.57671052239827 1.626393927110415 1.395575614461754  11.4489411370682 1.569559343660349 1.389470787674971  11.57549225774489 1.553085854707726 1.368224010955782  11.44677410219518 1.499432155080526 1.361913310463172  11.57456100859603 1.479815071143863 1.339862973926275  11.45375371973424 1.862504408884632 1.74297697409685  11.33605292085519 1.854409119717372 1.784673748056624  11.34526589828675 1.877712380031892 1.649717228641862  11.34519962757693 1.810214041864694 1.633527898770111  11.33794696433819 1.78767911156842 1.775903062837526  11.45425525683664 1.792771350402872 1.733598178879462  11.34491703892734 1.742396735454493 1.617580194997502  11.33969358451382 1.720726358777528 1.767492102935496  11.45454077435324 1.722644467061094 1.724874957391681  11.34460700862836 1.674304344798901 1.601712871503583  11.34135794599467 1.653546167126559 1.759215087893359  11.4547275855246 1.652184039314498 1.716313443592381  11.34442122138629 1.605942598926831 1.585793193934863  11.34305017019214 1.58615428550546 1.750879830567998  11.45490515567182 1.581446504254773 1.707583847629985  11.34442720510969 1.537302058866871 1.569664579163162  11.34486167671669 1.518533528000199 1.742318001388743  11.45517975164427 1.510416180988439 1.698493943285337  11.34469242473423 1.468395980751833 1.553238003599732  11.34700692111584 1.450617814358389 1.733538713753087  11.45566200589856 1.438999309413215 1.688962970036281  10.78755454465316 1.604860002051778 2.090713427689579  10.793029512569 1.547297755613097 2.088199660875326  10.79865448524552 1.489691916020999 2.085764465988298  10.80449346487146 1.432069714388184 2.083429457234092  11.34927549822711 1.915516130009321 1.532594075929756  11.22363184984027 1.908947457881894 1.550932395896849  11.24045612397852 1.963493233133518 1.449727038504483  11.23699084766832 1.90393106069111 1.414691733988565  11.22234919522922 1.846170011547253 1.524234036898645  11.3473638821441 1.850194377572064 1.505021252317915  11.23331489111995 1.844140655294255 1.379339874987003  11.22089958406677 1.783173854956967 1.497395029361355  11.34527563597702 1.784521624941057 1.477478263833878  11.22980166906131 1.784056113415312 1.343921709576413  11.21955414953399 1.719947799861903 1.470567154944733  11.34327855746367 1.718537300462028 1.449996941909339  11.22663442947705 1.723667871840904 1.308550150386871  11.21849880298948 1.656457720694911 1.443797640973852  11.34149433736795 1.652254334909946 1.422492115928601  11.22378115840257 1.663017507466688 1.273136177597901  11.2177043417395 1.592712949467186 1.416957297829228  11.33991366134819 1.585694377613871 1.394777743898494  11.22121081960763 1.602175361166788 1.237573824731537  11.21715039957179 1.528752419099052 1.389989301847973  11.33864730465953 1.518911271329314 1.366725763616173  10.56484382939248 3.369792704725523 0.7627306381169537  10.4712273986084 3.309904896692468 0.7775194254748214  10.48425787727582 3.441228915326241 0.7678286633389517  10.47969359877315 3.444176972423119 0.6957786112463238  10.46496116872203 3.303527730016263 0.7076257189170276  10.55882409546924 3.368622468451551 0.6911180908303763  10.47545248723199 3.447431554959965 0.6236451753776425  10.45901994824625 3.297383951040388 0.6376029192042644  10.5531906806731 3.367765975252509 0.6194414197217806  10.47137355113637 3.450849818129154 0.5514923208409682  10.45323924241637 3.291372812748197 0.5675378433011157  10.54774894733779 3.367107409730816 0.5477541576721194  10.46730070011156 3.454288393068223 0.479359060411132  10.44746002064233 3.285388501789257 0.497487451027341  10.54232450438181 3.366507922256132 0.4761011457374481  10.46304938246314 3.457568446115016 0.4072659241414993  10.44151238954436 3.279283469936465 0.4274803159785424  10.5367091260848 3.365769699065065 0.4045154169707135  10.45839172997819 3.460462578879403 0.3352009619410806  10.43517529576783 3.272850153523462 0.3575120995297871  10.53059293386949 3.364618927161996 0.3330268304921413  11.22591657205205 1.870634019108108 1.675488066839275  11.2264391597693 1.805789797436217 1.660005122674704  11.22677783214896 1.740670325640972 1.644563256052682  11.22711407939331 1.675351632734488 1.629156889499763  11.22761179038925 1.609814885195161 1.613754149677606  11.22840107858511 1.5440305126732 1.598301453016983  11.22950438818295 1.477952453107786 1.582726334633818  10.
[...]
<PointData  Scalars="f_14"> 
<DataArray  type="Float64"  Name="f_14"  format="ascii">1.7919821147696160e-02  2.7136097334296391e-02  2.6721234803732837e-02  2.6689411039394848e-02  2.7106834853690673e-02  1.7924612408866447e-02  2.6519646448998870e-02  2.6985922995121776e-02  1.7880508132531798e-02  2.6208153340853763e-02  2.6734945635099344e-02  1.7731541183991121e-02  2.5744548039752947e-02  2.6333446665139246e-02  1.7443384461884318e-02  1.6967515881018105e-02  2.5757106853284660e-02  2.5121511555764722e-02  1.6251385668429968e-02  2.4948361398031822e-02  2.4332937435496471e-02  4.5545835632389127e-02  5.6663912892238585e-02  4.7957971724105264e-02  4.7956270727882659e-02  5.6665712655023459e-02  4.5511743568589634e-02  4.7863061807875189e-02  5.6619621629361780e-02  4.5377080696195192e-02  4.7638545310566001e-02  5.6469488015501355e-02  4.5109979087932781e-02  4.7264465287954860e-02  5.6185170503647325e-02  4.4701249058873904e-02  4.6738549637936409e-02  5.5741099868313583e-02  4.4151368378561526e-02  4.6073211324463154e-02  5.5129235652633765e-02  4.3480634772136484e-02  8.3587706144081259e-02  9.3507176926177771e-02  9.3604825134748618e-02  9.3602156174317719e-02  9.3502332629793225e-02  8.3584595199045181e-02  9.3569135860053707e-02  9.3468749911758242e-02  8.3560057926582748e-02  9.3508426422606775e-02  9.3409023563690408e-02  8.3503092647128838e-02  9.3419031740462052e-02  9.3328278899741018e-02  8.3411424604152407e-02  9.3301699305365082e-02  9.3230970201855029e-02  8.3283501408092361e-02  9.3162004411081870e-02  9.3124096967359141e-02  8.3109320013868046e-02  1.4010858407541535e-01  1.4020989987655980e-01  1.5068001463922095e-01  1.5070831037709859e-01  1.4023765738371058e-01  1.4010291175692924e-01  1.4009462890389834e-01  1.4031322666479454e-01  1.5077275014631264e-01  1.4053952861602884e-01  1.4013223255476023e-01  1.5096978633912703e-01  1.5086304748993185e-01  1.4041854675419957e-01  1.4020229628995928e-01  1.4066710822676859e-01  1.5108307732266865e-01  1.4034285411963560e-01  1.4078964243460415e-01  1.5119770343274902e-01  3.5654285730414327e-02  3.5642142976065321e-02  3.5476895839059559e-02  3.5169255882438889e-02  3.4711458792097610e-02  3.4109042656199573e-02  3.3389189474627767e-02  8.8774121108797649e-03  1.8314218411929314e-02  1.8297915486225936e-02  8.8444522999917615e-03  1.8234117908139211e-02  8.7674108032166787e-03  1.8062412430138834e-02  8.6172160099180113e-03  1.7744240589126575e-02  8.3609763141550102e-03  1.7236541789298107e-02  7.9437579655368701e-03  1.6461355114162683e-02  7.2431079963865318e-03  1.9189501118097824e-02  2.8913104748269178e-02  2.7914634683676793e-02  2.7872072865463525e-02  2.8859903549764598e-02  1.9164354628386407e-02  2.7732608861476309e-02  2.8709521382053956e-02  1.9067849811148386e-02  2.7475734435444082e-02  2.8450285747303235e-02  1.8870795722573722e-02  2.7075867709806890e-02  2.8058577763559401e-02  1.8540031622631195e-02  2.6505810921575747e-02  2.7501763358503344e-02  1.8028998679519320e-02  2.5732915050626217e-02  2.6725742291998825e-02  1.7273986433154049e-02  8.2596603909504643e-02  8.2552613856134258e-02  8.2467207628438899e-02  8.2309242063217714e-02  2.7380890347505335e-02  3.7871779838620216e-02  3.6242458339758879e-02  3.6187306629107414e-02  3.7808684186745482e-02  2.7338297427214081e-02  3.5989228463110014e-02  3.7599655187307852e-02  2.7179110727211051e-02  3.5644435536308770e-02  3.7252238388982797e-02  2.6888805785389887e-02  3.5152816182884974e-02  3.6762323163089271e-02  2.6450332014628895e-02  3.4524004225783125e-02  3.6140577398989161e-02  2.5850003490789808e-02  3.3763077155815599e-02  3.5410131162827159e-02  2.5051270872107654e-02  9.2146881005800943e-02  1.0123761745412260e-01  9.9073994048724676e-02  9.9026309593408510e-02  1.0124109353508490e-01  9.2157496769786629e-02  9.8914777701752388e-02  1.0122822726508868e-01  9.2187074435432045e-02  9.8764806643565822e-02  1.0119358043727163e-01  9.2194093104610048e-02  9.8597868778754191e-02  1.0113936231275446e-01  9.2165591276493319e-02  9.8436631240335581e-02  1.0106632637673711e-01  9.2090461730024414e-02  9.8311502544541240e-02  1.0097542455582351e-01  9.1937797680412006e-02  3.8032104091830020e-02  3.7994613308592620e-02  3.7855204011216725e-02  3.7599289319847816e-02  3.7208808313540218e-02  3.6659160554709809e-02  3.5927771340553298e-02  6.7218284966867783e-02  6.1578498085965792e-02  6.1628736601846666e-02  6.7265954943246761e-02  6.1654250548195302e-02  6.7327475441686130e-02  6.1577945495263117e-02  6.7314774083170908e-02  6.1355952353033920e-02  6.7183289267569404e-02  6.0951884698142840e-02  6.6890830135278814e-02  6.0332728899281693e-02  6.6364154998761721e-02  1.6077313054687205e-02  2.4653017574579633e-02  2.4582236377063887e-02  2.4487657118767395e-02  2.4580453946103274e-02  1.5962772171453116e-02  2.4238268071275462e-02  2.4373862718308048e-02  1.5689924932743644e-02  2.3854277369451758e-02  2.4043802387956361e-02  1.5300740035473191e-02  2.3334274244521547e-02  2.3598173651734330e-02  1.4789699743764075e-02  2.2664954152820875e-02  2.3037684948965308e-02  1.4137074358894747e-02  2.1858904133219316e-02  2.2328507484018472e-02  1.3304636853265392e-02  9.6570155339034177e-03  1.9039261809257125e-02  1.8479706924227127e-02  1.8431759437851823e-02  1.8995030698839222e-02  9.6357676630408739e-03  1.8303850880735106e-02  1.8875172990603078e-02  9.5643376118398522e-03  1.8077585187393316e-02  1.8655827047431496e-02  9.4229908786244397e-03  1.7719960581117262e-02  1.8304061747258817e-02  9.1721750285759466e-03  1.7186882683003505e-02  1.7769446388577439e-02  8.7427681912403427e-03  1.6420815323807250e-02  1.6960866702543879e-02  8.0040483204720774e-03  7.2592857453722334e-02  7.2611053065840619e-02  7.2606138494050926e-02  7.2515726796493971e-02  7.2301405911770270e-02  7.1922025552376131e-02  7.1323203728428805e-02  3.3407720426213830e-02  3.3314240635104880e-02  3.3062446905990306e-02  3.2668241734611470e-02  3.2157707823845000e-02  3.1540685920522976e-02  3.0783301939500702e-02  0.0000000000000000e+00  9.6419146327911473e-03  9.6286076382827573e-03  0.0000000000000000e+00  9.5758122044657511e-03  0.0000000000000000e+00  9.4585874775847574e-03  0.0000000000000000e+00  9.2376248259291895e-03  0.0000000000000000e+00  1.0938248480189719e-01  1.0930900102278480e-01  1.0912166187764132e-01  1.0889788225610425e-01  1.0867737680194108e-01  1.0850329741677266e-01  1.0844455923171629e-01  3.3579395823082461e-02  3.3456654803125138e-02  3.3135110310917919e-02  3.2675124294799629e-02  3.2113319643153851e-02  3.1476999777407429e-02  3.0792240954340244e-02  8.7758143436373212e-02  9.3037708227158317e-02  1.0147697504093625e-01  1.0147820239159772e-01  9.3040918644228157e-02  8.7757700593820986e-02  1.0146508155928682e-01  9.3031803131550184e-02  8.7743131640856509e-02  1.0141689004816347e-01  9.2978177452831268e-02  8.7681861684292234e-02  1.0131087003957057e-01  9.2847235026011082e-02  8.7540576641430320e-02  1.0112327060463801e-01  9.2604476351703463e-02  8.7279740286137622e-02  1.0082863070868850e-01  9.2206712003072192e-02  8.6847777675788274e-02  7.7657062394208526e-02  7.7656044993514250e-02  7.7593431892073961e-02  7.7453254263078322e-02  7.7216252273483166e-02  7.6871076506707686e-02  7.6418815901641277e-02  2.7078109814417287e-02  2.7019460183084043e-02  2.6852017058296228e-02  2.6574804838511722e-02  2.6167653936803915e-02  2.5600085680358094e-02  2.4822210656792052e-02  9.4450808885665941e-02  9.4455400321407895e-02  9.4452471133294469e-02  9.4411432671796525e-02  9.4305450740506946e-02  9.4102006493660795e-02  9.3752249653713565e-02  1.3122275807044342e-01  1.2793436533312225e-01  1.3114774240974653e-01  1.2802359905538216e-01  1.3132833171890379e-01  1.0446374771000067e-01  1.1532112979512295e-01  1.1196355175313531e-01  1.1199997917912599e-01  1.1538040826212101e-01  1.0448908482957815e-01  1.1206872020620108e-01  1.1550391083041409e-01  1.0453321446568335e-01  1.1212016444993719e-01  1.1561485082570316e-01  1.0453897911390020e-01  1.1211076155509507e-01  1.1565424067933128e-01  1.0446855623251827e-01  1.1200132414918540e-01  1.1556853623486324e-01  1.0429961268051866e-01  1.1175257977107396e-01  1.1530615528993594e-01  1.0403636972099617e-01  9.7971319763644898e-02  1.0969035493961066e-01  1.0525120450548414e-01  1.0524320844630145e-01  1.0966205026271808e-01  9.7946673338353399e-02  1.0524703249979181e-01  1.0961228419262507e-01  9.7910664524837390e-02  1.0523700544998708e-01  1.0954491610111856e-01  9.7853272330800808e-02  1.0520830666221316e-01  1.0946738365821772e-01  9.7770883352488278e-02  1.0515309993014818e-01  1.0938874109756563e-01  9.7660742889621510e-02  1.0504163230200234e-01  1.0930998954919939e-01  9.7512657614135315e-02  4.8180549306555305e-02  4.8151395273236364e-02  4.8005012318553003e-02  4.7734918070259230e-02  4.7333151663847516e-02  4.6799480332429519e-02  4.6164196959130890e-02  9.4661475212654847e-02  9.4647583834273435e-02  9.4613446852810229e-02  9.4554017216866668e-02  9.4463001096304997e-02  9.4336640467453117e-02  9.4180521305796863e-02  6.0226507957851325e-02  7.0312415304294856e-02  6.9271614868890122e-02  6.9182964433037258e-02  7.0236597166850337e-02  6.0100010333413535e-02  6.8959551878731193e-02  7.0041096494658589e-02  5.9778604018340536e-02  6.8644526536860928e-02  6.9763207036622990e-02  5.9339600449935394e-02  6.8259007719555939e-02  6.9427557553355460e-02  5.8828600654038658e-02  6.7848152859677102e-02  6.9075449609904249e-02  5.8303252684806323e-02  6.7491264180102109e-02  6.8765232483105385e-02  5.7860677020973993e-02  1.0112092506363154e-01  1.0110767510769011e-01  1.0105772257020480e-01  1.0098202931222626e-01  1.0087933899525989e-01  1.0074814388852155e-01  1.0060019817467454e-01  0.0000000000000000e+00  9.3663624878310651e-03  9.3124706396920613e-03  0.0000000000000000e+00  9.1772041011253230e-03  0.0000000000000000e+00  8.9692781079506196e-03  0.0000000000000000e+00  8.6671585132337692e-03  0.0000000000000000e+00  8.2164463812783063e-03  0.0000000000000000e+00  7.5414666234697126e-03  0.0000000000000000e+00  4.9299168418160851e-02  4.9249827447973106e-02  4.9100813083646735e-02  4.8844510734719668e-02  4.8470737864589948e-02  4.7958297203820430e-02  4.7298444207573856e-02  8.8758409929867426e-03  1.7181463056865832e-02  1.7104223239356585e-02  8.8299873102276518e-03  1.6904582401333353e-02  8.7117644853690474e-03  1.6592422128511627e-02  8.5182371401786236e-03  1.6162932525657651e-02  8.2292477343930536e-03  1.5592959572438858e-02  7.7978795042314636e-03  1.4868553757450505e-02  7.0635520407108304e-03  1.3883665667357201e-01  1.5040328321560925e-01  1.4033526201959470e-01  1.4039317589197636e-01  6.1522145212064547e-02  6.1406703242264285e-02  6.1116922166211500e-02  6.0722623977745464e-02  6.0270199658805257e-02  5.9812440500344344e-02  5.9443196088312278e-02  3.8346273440578546e-02  3.8292186616378898e-02  3.8112532248435839e-02  3.7815594723470305e-02  3.7400091511300547e-02  3.6858627548427912e-02  3.6173700514567801e-02  3.9001981444187442e-02  3.8964982066150400e-02  3.8820450481558764e-02  3.8560004973046146e-02  3.8174538400888323e-02  3.7649227943723759e-02  3.6960746616324570e-02  8.6634883646323994e-03  8.6505874992442895e-03  8.5551803891148071e-03  8.3889205349409902e-03  8.1267619487065575e-03  7.7293112171928375e-03  7.0949802735796649e-03  8.4555596098639801e-02  8.4544316993108742e-02  8.4480611041138395e-02  8.4342300950952201e-02  8.4112492056611782e-02  8.3774798830122149e-02  8.3325283539841630e-02  0.0000000000000000e+00  8.7298639484407695e-03  8.7646574163750702e-03  8.7355954834781556e-03  8.7035767028077402e-03  0.0000000000000000e+00  8.6495982304718722e-03  8.6123297149941890e-03  0.0000000000000000e+00  8.5069322593835893e-03  8.4562564571126382e-03  0.0000000000000000e+00  8.2802420094492575e-03  8.2163383426243873e-03  0.0000000000000000e+00  7.9131738278004106e-03  7.8410652072267613e-03  0.0000000000000000e+00  7.2813853920726456e-03  7.2256269077849763e-03  0.0000000000000000e+00  7.0201515499729084e-02  7.0219702825502495e-02  7.0226865701487270e-02  7.0147221566218179e-02  6.9933296488852173e-02  6.9548310443421371e-02  6.8965455181706672e-02  3.5127458292255616e-02  3.6588687032299040e-02  4.6272606296640845e-02  4.6189814266621894e-02  3.6521558271730113e-02  3.5055736223798040e-02  4.5978320554596386e-02  3.6315933338877983e-02  3.4847933992582028e-02  4.5671263720479083e-02  3.6001784551659158e-02  3.4531207845202798e-02  4.5292430694497246e-02  3.5599788117248586e-02  3.4128451885309559e-02  4.4866535121849023e-02  3.5126164355963364e-02  3.3659067603999712e-02  4.4434887400747629e-02  3.4598982039607595e-02  3.3143892264212563e-02  4.9548159637349133e-02  4.9502056140077966e-02  4.9354864286989375e-02  4.9104936817720879e-02  4.8744833067879391e-02  4.8262680399400501e-02  4.7651789650065668e-02  4.2189542248498711e-02  4.2053630644608625e-02  4.1682617304762019e-02  4.1154687438602823e-02  4.0530618496094462e-02  3.9858662162396655e-02  3.9226006993847012e-02  0.0000000000000000e+00  7.8676000817219614e-03  7.8579910966306721e-03  0.0000000000000000e+00  7.8086018425711457e-03  0.0000000000000000e+00  7.6929718725605653e-03  0.0000000000000000e+00  7.4881095240990911e-03  0.0000000000000000e+00  7.1330769676450651e-03  0.0000000000000000e+00  6.3848431847202429e-03  0.0000000000000000e+00  1.1139793677731773e-01  1.2195238430972785e-01  1.2197143260296392e-01  1.1140706305108945e-01  1.2202286300159051e-01  1.1141814165178628e-01  1.2208136752705802e-01  1.1141883075195035e-01  1.2213092478011424e-01  1.1140231206143876e-01  1.2216046538424095e-01  1.1136568215975275e-01  1.2216836444620036e-01  1.1131500079129432e-01  6.0393776145255366e-02  6.0372341874709821e-02  6.0268616272335540e-02  6.0071976375596345e-02  5.9780150380817687e-02  5.9385465831714578e-02  5.8842229668185295e-02  0.0000000000000000e+00  8.6300577975013757e-03  8.2202485521130908e-03  8.2034784300873513e-03  8.6074758634107924e-03  0.0000000000000000e+00  8.1422786726250886e-03  8.5409774287493710e-03  0.0000000000000000e+00  8.0166093424544789e-03  8.4080935928262952e-03  0.0000000000000000e+00  7.7985260466801555e-03  8.1856549804136172e-03  0.0000000000000000e+00  7.4324610602452979e-03  7.8222198912728160e-03  0.0000000000000000e+00  6.8158088122984911e-03  7.2224797775425412e-03  0.0000000000000000e+00  1.3412838367680485e-02  1.6537425292471080e-02  1.8093301088522661e-02  1.8050883336847210e-02  1.6502612101708412e-02  1.6396708146249359e-02  1.7927987040245355e-02  1.6186682237019960e-02  1.7712546533085575e-02  1.5850135734503546e-02  1.7382502880020669e-02  1.5368862092611287e-02  1.6903969504850475e-02  1.4722031894291878e-02  1.6228794282525282e-02  1.1599417849350732e-01  1.1594263113071643e-01  1.1582470514636395e-01  1.1569051066062545e-01  1.1555634098406468e-01  1.1544080858985523e-01  1.1539022817999005e-01  1.2526250877438733e-01  1.2528236489379790e-01  1.9878357225360094e-02  2.9413814268949772e-02  2.9420321649210705e-02  1.9926646805775390e-02  2.9343251176120310e-02  1.9959705306299834e-02  2.9134794684948180e-02  1.9875849085203748e-02  2.8767227208355950e-02  1.9636564637315189e-02  2.8226622876472929e-02  1.9197704323684887e-02  2.7546266843882759e-02  1.8455970663873330e-02  6.1379811545812159e-02  7.1067225471176609e-02  7.1006866882431310e-02  6.1301574038864645e-02  7.0833772497538153e-02  6.1105731525270789e-02  7.0580084152675526e-02  6.0819777978056759e-02  7.0279599594185824e-02  6.0486227465645415e-02  6.9967019183285281e-02  6.0146024198882167e-02  6.9675174279090119e-02  5.9827915513442034e-02  1.7936897021892113e-02  1.7889871016087688e-02  1.7750719854635756e-02  1.7520559165099689e-02  1.7181196587611990e-02  1.6698607430202302e-02  1.6021087404607143e-02  6.0701449325140759e-02  6.0648192096460544e-02  6.0493509772640404e-02  6.0244608338550172e-02  5.9906619801139670e-02  5.9482548203848289e-02  5.8972385986398861e-02  0.0000000000000000e+00  9.8168933089366524e-03  9.8017297171393396e-03  0.0000000000000000e+00  9.7383859562556480e-03  0.0000000000000000e+00  9.6046102879512821e-03  0.0000000000000000e+00  9.3772130427960104e-03  0.0000000000000000e+00  9.0062975626035088e-03  0.0000000000000000e+00  8.3703083684408212e-03  0.0000000000000000e+00  8.1228770958551105e-02  8.7785112148482058e-02  9.1525151419274031e-02  8.7781036956387198e-02  8.1203293909588734e-02  9.1468046866175171e-02  8.7758804437117685e-02  8.1132830589048049e-02  9.1303006347667845e-02  8.7690793823686469e-02  8.1005604172087908e-02  9.1074548807407993e-02  8.7582054171241513e-02  8.0823891628018951e-02  9.0816249482754199e-02  8.7438372169573050e-02  8.0595616901598485e-02  9.0560613104115631e-02  8.7232188058954982e-02  8.0317879753214694e-02  9.0358770768495411e-02  6.6412493917800478e-02  6.6331413738709752e-02  6.6110762653417532e-02  6.5806738495375952e-02  6.5462534377162651e-02  6.5128098395920805e-02  6.4840479858819466e-02  4.3833925723458900e-02  4.3741400591043068e-02  4.3501156133993898e-02  4.3160476618911890e-02  4.2752570568166053e-02  4.2308145643855571e-02  4.1855310823993019e-02  7.9696291891693291e-02  7.9704784403187179e-02  7.9683179682497440e-02  7.9607917349498569e-02  7.9474922370867659e-02  7.9287694201259154e-02  7.9050725866601168e-02  1.6708548220855095e-02  1.6640444761537261e-02  1.6471223920965571e-02  1.6201444878489443e-02  1.5821194637699130e-02  1.5305953195419974e-02  1.4628129769218345e-02  8.8420203942727163e-02  8.8418239580098201e-02  8.8368845710632679e-02  8.8257827373033296e-02  8.8075077401592622e-02  8.7825072792745651e-02  8.7532364537552795e-02  0.0000000000000000e+00  0.0000000000000000e+00  0.0000000000000000e+00  0.0000000000000000e+00  0.0000000000000000e+00  0.0000000000000000e+00  0.0000000000000000e+00  1.2084216982877359e-01  1.2082036067372860e-01  1.2077676383205690e-01  1.2073057899456438e-01  1.2068555022562545e-01  1.2065474019590930e-01  1.2066443106859867e-01  4.2667531683685644e-02  4.2516602117161822e-02  4.2120247871598890e-02  4.1580456337911451e-02  4.0966076539014892e-02  4.0343174329111241e-02  3.9817296054241003e-02  1.0906444254747276e-01  1.0904852190008854e-01  1.0899843105516535e-01  1.0893346133291440e-01  1.0885895666095287e-01  1.0878147246854179e-01  1.0870796930711257e-01  0.0000000000000000e+00  0.0000000000000000e+00  0.0000000000000000e+00  0.0000000000000000e+00  0.0000000000000000e+00  0.0000000000000000e+00  0.0000000000000000e+00  1.1210024219604743e-01  1.1849769211820389e-01  1.1045179244625560e-01  1.1044932897726471e-01  1.1850271116663426e-01  1.1209574994065850e-01  1.1043856715611006e-01  1.1850717138939960e-01  1.1208789429550405e-01  1.1040521614808105e-01  1.1849729811058124e-01  1.1205814703002161e-01  1.1033355923988600e-01  1.1845896185156833e-01  1.1198918450934615e-01  1.1020860511161756e-01  1.1838020213094186e-01  1.1186395936115198e-01  1.1001446023575398e-01  1.1825946345084484e-01  1.1166279317819400e-01  1.3221256893993119e-01  1.2397585282213530e-01  1.3217537344676078e-01  1.2397323127675366e-01  1.3224916256626498e-01  1.2394202364930293e-01  5.9559577150582202e-02  6.3721001228877541e-02  7.1806408094042873e-02  7.1806956561205573e-02  6.3737467948830548e-02  5.9562500056100150e-02  7.1784480824370570e-02  6.3724786140332917e-02  5.9535104736248373e-02  7.1687591746432383e-02  6.3614533808943607e-02  5.9419299066941836e-02  7.1474125602758481e-02  6.3360089710056577e-02  5.9167223063816499e-02  7.1099090305148868e-02  6.2925436830730375e-02  5.8733931945901569e-02  7.0521148470809480e-02  6.2275747463060166e-02  5.8077999244558753e-02  3.6069403552727849e-02  3.8137518234919482e-02  4.7660208596408633e-02  4.7603653775968514e-02  3.8115638185697361e-02  3.6013590595183428e-02  4.7449189800848612e-02  3.8019103969339781e-02  3.5850732713775875e-02  4.7201517380164398e-02  3.7824359462758750e-02  3.5586380902769048e-02  4.6862386548829231e-02  3.7523799863864005e-02  3.5229410598237719e