<?xml version="1.0"?>
<VTKFile type="UnstructuredGrid"  version="0.1"  >
<UnstructuredGrid>
<Piece  NumberOfPoints="2117" NumberOfCells="9512">
<Points>
<DataArray  type="Float64"  NumberOfComponents="3"  format="ascii">2.857274006961209 2.897154650663679 3.837235610919816  2.859900085775696 2.769680489418801 3.90766629971775  3.003699485289884 2.795908100102143 3.898981283261265  3.00071358387055 2.829352474525627 3.956250334964079  2.856589821099302 2.798103826263661 3.966826001480557  2.858269373689722 2.930231930738433 3.892775702667103  2.859243205669689 2.963090850117612 3.948337263935005  2.853315633802437 2.826290491800682 4.025927262071173  2.997751248684766 2.862524970123393 4.013501019162925  2.860176660510477 2.995815547824835 4.003848008357762  2.850037006017567 2.854331767921884 4.084939025659082  2.994776177341594 2.895542947656563 4.070675050490751  2.991763928105214 2.928493502366791 4.127764880005215  2.846729531830692 2.882304264639984 4.1438586976531  2.86106385231994 3.028480220997411 4.059266604851321  2.988701340450031 2.961428601318871 4.184747934555795  2.843374610059997 2.910255411235465 4.202663437351218  2.861902212161401 3.061150335415117 4.114587855756126  2.98557021823212 2.994394897782842 4.241609725528157  2.839951468473607 2.938231609801271 4.261337402078794  2.862688447896161 3.093874647530072 4.169779141663042  1.018064369749025 2.558121832939007 3.795628070656118  1.163365300516769 2.607902211891847 3.814566004168331  1.029369944752563 2.726232233914455 3.800206817057172  1.023231579576074 2.729622617168813 3.865960027426981  1.157050274935273 2.607550472897475 3.878978314365631  1.011579166252618 2.555324933466658 3.860875235357743  1.017749518639427 2.733343408591981 3.932407506781606  1.151458248870237 2.60739775681565 3.943984594919316  1.005838228229706 2.552752176270976 3.926808492371163  1.012228586142033 2.736968055581434 3.999446234136049  1.145941487565078 2.607119026394114 4.009494226024104  1.000129560149382 2.550036050974194 3.993344866383726  1.006469865228256 2.740413007720365 4.067046369985685  1.14021955165681 2.606671598992393 4.075450829878416  0.9941639348855057 2.547097772204101 4.060442971504783  1.000328156505355 2.743658894096198 4.135214853253823  1.134104676819248 2.606068634707023 4.141834314361356  0.9877589906819283 2.54394304955109 4.12811347849008  0.9936097122836696 2.746662890968773 4.203961169978799  1.127394626239849 2.605356268857567 4.208668614055217  0.9806708056308252 2.540594988185886 4.196457648997789  2.80628675389779 2.306549087719228 4.289832718258673  2.918502860661325 2.426758683258195 4.300918374977171  2.934283687787572 2.270638699880878 4.319860804547685  2.818038121231186 2.304563083720079 4.223328320577026  2.907889098709526 2.435143007526396 4.367651618888853  2.794544981217878 2.308479012478565 4.356214437440022  2.923171106984372 2.270832607734446 4.387746095337629  2.782816568372461 2.310319626247131 4.422527572921293  2.897277108396541 2.44344604670136 4.434253152119518  2.912080363211637 2.270933768667805 4.455529525147613  2.267936284113912 2.692751510029201 3.899664879659639  2.392483590961954 2.812792469557434 3.876102857160163  2.255377305545724 2.83680005849232 3.869317030174541  2.255905981938801 2.851375859039901 3.93129594331009  2.392215585112827 2.830030643275609 3.937404138531961  2.26600549928511 2.703111349291361 3.962315509381535  2.264166050703659 2.713335554729331 4.024885387715507  2.392022772261805 2.847114419504249 3.998624674543214  2.256529585697978 2.865811262699155 3.993162842435354  2.262395699223094 2.723456910809164 4.087338103945082  2.391858999451904 2.864084372193456 4.059738126264826  2.257193849144568 2.880143285607032 4.054939277243538  2.26063319240485 2.733524584774575 4.149684534145226  2.391682009453623 2.880996091879036 4.120749346004478  2.257852281979264 2.89442318481787 4.116616162310947  2.258809037329661 2.743600304492686 4.211916135081939  2.391446993563724 2.897902611070204 4.181646946032085  2.258447428697102 2.908706961838534 4.178188731262174  2.256848147844251 2.753755025640359 4.274017880828033  2.391105522767343 2.914868067010951 4.242408441945057  2.258914232707262 2.923064933825837 4.239645565663559  2.982383347539891 2.124953806887455 4.24586774528689  2.81871534561609 2.141918244619491 4.216695598487724  2.945402354527653 2.270386652073865 4.251861720801688  2.829959610604324 2.149048881945439 4.150094179224385  2.972179177951543 2.115311789440992 4.313615796196582  2.807488694998913 2.134774637088094 4.283180283123585  2.961989040943975 2.105623545063653 4.381253964115305  2.796292723476642 2.127589121024053 4.349548573361234  2.951835493772029 2.09585046233425 4.448787407277201  2.785136820960325 2.120309502763707 4.415812340461848  2.82830041013697 2.449382676775642 4.003827331231717  2.853473374388984 2.298478566427508 4.022879558534808  2.961140698456826 2.392655354051404 4.032501287384969  2.818873177632431 2.458569246338764 4.069836014911267  2.841608770113067 2.300519733079985 4.089873920081125  2.790914378591836 2.48571796125378 4.266792017975194  2.78161258181335 2.494650675497683 4.332170292829549  2.772288600834241 2.503530960701219 4.397421605528348  1.363076166749801 3.040003921966899 3.782221477821357  1.39863670117844 2.899021952226087 3.818279640022923  1.512751845252476 3.042685037436229 3.794933698277688  1.393280120491287 2.911079250004823 3.881668938842076  1.358279343912989 3.057983385078952 3.84463096076686  1.50767742818564 3.060774686162001 3.857072487181711  1.388503957076871 2.923353240452959 3.945340937312517  1.354047998907601 3.076271556687965 3.907369475727268  1.503103662668155 3.079080562332861 3.919483741586785  1.38385499478389 2.935641991197696 4.009383564050207  1.349921396240385 3.094613574744929 3.970471205625133  1.498673794471949 3.097438577304317 3.982160362469655  1.379085228869409 2.947866951342625 4.073731266998758  1.345675578735825 3.112927724614543 4.033907195513039  1.494159202917089 3.115771786969856 4.045079088637481  1.374040718441 2.960019650652478 4.138320313917923  1.341161541410202 3.131196218275753 4.097651858378842  1.489417519931305 3.134069022275256 4.108218499671167  1.368601454066927 2.97210165352847 4.203060988966518  1.164239935648944 2.764574722372185 3.812617108454148  1.029019410138561 2.882794449878584 3.782989292083059  1.023487318997381 2.893340433476352 3.848534576650013  1.158151733738049 2.769860405611902 3.877378991151604  1.018529231106071 2.904336309077907 3.914626932315637  1.152726022164912 2.775422733939126 3.942661915883778  1.013533755237705 2.915306948295035 3.981319597369208  1.147328620929025 2.78091351012746 4.008486613719054  1.008355249182376 2.92615605883178 4.048567723493373  1.14172403392357 2.786266140170003 4.074779465709608  1.002890355411886 2.936844959861299 4.116348313595829  1.135754120905935 2.791465221861948 4.141489953625533  0.9969860246048976 2.947332022753162 4.184651165996282  1.129283383756106 2.796512330188026 4.208555545953035  2.515262962947311 2.330477931584017 3.957783915996172  2.639148990531443 2.34963560199999 3.980404129631478  2.59423320496122 2.484538165638715 3.96505392887393  2.585145226777069 2.493036806519016 4.029217861806768  2.626870223921692 2.351543185599005 4.045165645323836  2.503856516760003 2.330176819409747 4.021677383170878  2.576140361992167 2.501448710563026 4.093218016125848  2.614675207863301 2.353409045805674 4.109765816068889  2.492525558223643 2.329830994771372 4.085418041682403  2.567183661533458 2.509783972332792 4.157065636520512  2.602528960847017 2.355241964531785 4.174198638666343  2.481255559572438 2.329446202496747 4.149005597507371  2.558240244080951 2.518071218391935 4.220777657507948  2.590402688472304 2.357046901922769 4.238492490747075  2.470009651590598 2.329040020053537 4.212458863179067  2.549282077693635 2.526327466291334 4.284355242113851  2.578287480446111 2.35881854476428 4.302658573758189  2.458773353943698 2.328616043108023 4.275781016739758  2.540281879980876 2.534570768617363 4.347791855304778  2.566191193527953 2.360540162354491 4.366698447466285  2.447546478871334 2.328166454693696 4.338949009083755  1.79966335946516 1.610644184842764 3.555723774737396  1.919896758363949 1.613350101901332 3.581267469047186  1.808027181181352 1.721416207852052 3.63843455153719  1.79781140513665 1.686234596564078 3.690560490231414  1.910541393199016 1.573893820309958 3.630307671429203  1.790486064002196 1.571288311748821 3.605123937210708  1.787861144154638 1.651191815535856 3.742767371044132  1.901394517794007 1.534571194335412 3.679445160760325  1.763911585264281 1.453543821479261 3.753784636007834  1.883259836873325 1.455943846752686 3.77771680834004  1.768176152647275 1.581069983005865 3.847140640141763  1.758228467228452 1.545937517223314 3.89924781176141  1.874087038484532 1.416564712886495 3.826777318974161  1.75496782119761 1.414179217334198 3.803297823438608  1.748089727078415 1.510765052309123 3.951248098408018  1.86478491325236 1.377111642276211 3.875720277483898  1.745832398079939 1.374718285924049 3.852717602037177  2.720006682448193 2.600541447199098 3.955918301864939  2.847970902479382 2.649810131202995 3.957625653864594  2.738392837485705 2.747691437237454 3.907166651092115  2.73457794312564 2.771123793870395 3.967756552946936  2.840552176553085 2.672222132542054 4.019827585805938  2.712232718094249 2.617890925066808 4.018826510076339  2.730830208605054 2.794360189044473 4.02824591960299  2.833231035123028 2.694429882014175 4.081895712622438  2.704548260646663 2.635073916185413 4.08159654222529  2.727096049137643 2.817457837269526 4.088619680878901  2.825942565483932 2.716511651344247 4.143831189058065  2.696911670392201 2.65214422101527 4.144233089584663  2.723339728419389 2.840476500915919 4.148883696967347  2.81864092944042 2.738517229046515 4.205644226163226  2.689276939025425 2.669147927938526 4.206741065457629  2.719533681562878 2.863465452272425 4.20903312710475  2.811297984634576 2.760485271974303 
[...]
<PointData  Scalars="f_14"> 
<DataArray  type="Float64"  Name="f_14"  format="ascii">-1.6133294234891352e-14  -1.6115454983177071e-14  -1.5849578643384393e-14  1.8300630983783214e-01  1.8671495650690764e-01  1.7923176692562134e-01  3.5237643995055784e-01  3.6331315544131698e-01  3.5938662232386631e-01  5.2041473900473012e-01  5.3228988983265269e-01  5.2866478534202022e-01  6.9123914388855645e-01  6.9473502691367450e-01  6.8399820958115809e-01  8.4789404344659780e-01  8.5093603033149323e-01  8.4378428231232716e-01  1.0000000000000049e+00  1.0000000000000047e+00  1.0000000000000047e+00  -1.9474318104567271e-14  -1.9223994543691991e-14  -1.9466618029137525e-14  1.8056598721199837e-01  1.7724037744650548e-01  1.7425359843650270e-01  3.5323017313718069e-01  3.4936405056406472e-01  3.4517175553829682e-01  5.2126028249286405e-01  5.1729271493181983e-01  5.1270539297350060e-01  6.8552372086213376e-01  6.8146792552615021e-01  6.7709165037172647e-01  8.4597910916877139e-01  8.4235474881587002e-01  8.3889106214408138e-01  1.0000000000000013e+00  1.0000000000000016e+00  1.0000000000000013e+00  7.1255318416080460e-01  7.1205346254118751e-01  7.2676634919073824e-01  5.5289625513341090e-01  8.6110354983969373e-01  8.6186910231872860e-01  8.7157596705672302e-01  1.0000000000000047e+00  1.0000000000000049e+00  1.0000000000000049e+00  -1.7203719366858929e-14  -1.6986613033499562e-14  -1.7242998971305740e-14  1.8112769938355702e-01  1.8134285748324269e-01  1.8046069483741450e-01  3.5425372881493211e-01  3.5554832226894012e-01  3.5579347721921017e-01  5.2246035022956649e-01  5.2375728288175494e-01  5.2435343905262222e-01  6.8581802573479933e-01  6.8694525122350547e-01  6.8733813617029860e-01  8.4486336779528415e-01  8.4557802738973276e-01  8.4544131127440891e-01  1.0000000000000036e+00  1.0000000000000038e+00  1.0000000000000036e+00  5.6920634911113743e-01  5.5640093670345436e-01  5.6922155691070231e-01  3.8552942732031742e-01  7.2609669570423341e-01  7.1520479599371578e-01  8.6989754611562775e-01  8.6294312974366105e-01  1.0000000000000051e+00  1.0000000000000047e+00  -1.6151746152815573e-14  -1.6102955142612149e-14  -1.5904477624714080e-14  1.9222643778776255e-01  1.9927903693490109e-01  7.0347124757401647e-01  8.5554260047917785e-01  1.0000000000000047e+00  -1.8912338806104963e-14  -1.8833168095671704e-14  -1.8646618052368062e-14  1.8362284141818522e-01  1.8324383532988733e-01  1.8633029354419808e-01  3.5900858215546022e-01  3.5789817506006955e-01  3.6293824040759559e-01  5.2791731386997498e-01  5.2654344037919376e-01  5.3225927955341368e-01  6.9109307485012328e-01  6.8988168364506464e-01  6.9505647740798326e-01  8.4873889777079115e-01  8.4814531693540895e-01  8.5137580751808795e-01  1.0000000000000020e+00  -1.9235579042734674e-14  -1.9478778245886545e-14  1.7622139653669502e-01  1.8293997882754656e-01  3.4763915904332915e-01  3.5660357235473217e-01  5.1527667419363832e-01  5.2490906892294653e-01  6.7950937868965167e-01  6.8872726182757071e-01  8.4088170967962761e-01  8.4791693351003872e-01  1.0000000000000013e+00  1.0000000000000016e+00  -1.6732606378154996e-14  -1.6503917411872408e-14  -1.6589665478724884e-14  1.9069419511236485e-01  1.8652652220388508e-01  1.8186013055933334e-01  3.6854948157705797e-01  3.6425782597803963e-01  3.5716932273286023e-01  5.3782914746441979e-01  5.3382362751256718e-01  5.2592052314645221e-01  6.9998836948057097e-01  6.9591065360604432e-01  6.8863965353688050e-01  8.5494637800196116e-01  8.5121139785141797e-01  8.4603501853799201e-01  1.0000000000000042e+00  1.0000000000000042e+00  1.0000000000000040e+00  -1.8045157367020317e-14  -1.7832327904843706e-14  -1.8028665585906439e-14  1.8240436426203727e-01  1.8276145685989442e-01  1.8056123759991291e-01  3.5704645341838381e-01  3.5658555434121653e-01  6.8583479232316902e-01  6.8873839302587980e-01  6.8904721502810284e-01  8.4737836020874713e-01  8.4785594229044081e-01  8.4582994320110194e-01  1.0000000000000029e+00  1.0000000000000029e+00  1.0000000000000027e+00  -1.6364441419827048e-14  -1.6129136381763853e-14  -1.6340645048260453e-14  1.7928022738314142e-01  1.9215370449341435e-01  1.8501844454132865e-01  3.5408608669302050e-01  3.7142814705030680e-01  3.6201299357975203e-01  5.2270041622113261e-01  5.4113718956769230e-01  5.3126012186992477e-01  6.8559864280560834e-01  7.0267934945759725e-01  6.9351118054448535e-01  8.4380861785798877e-01  8.5640652162629072e-01  8.4938225557349323e-01  1.0000000000000044e+00  1.0000000000000047e+00  1.0000000000000044e+00  -1.7811747432827705e-14  -1.7607997035571304e-14  -1.7836950868394754e-14  1.8328189206990134e-01  1.8595710315240216e-01  1.7980229043289800e-01  3.5837633020096737e-01  3.6040576972678007e-01  3.5376951293892817e-01  5.2707161588410800e-01  5.2882233351766594e-01  5.2216274993673384e-01  6.9019148830221499e-01  6.9234582869937300e-01  6.8542359979083456e-01  8.4805859856141919e-01  8.5090950016463629e-01  8.4418730938417974e-01  1.0000000000000029e+00  1.0000000000000033e+00  1.0000000000000031e+00  1.0000000000000049e+00  1.0000000000000047e+00  1.0000000000000049e+00  8.5240998716834082e-01  8.4537839965545925e-01  -1.9688052872910929e-14  -1.9677291306081174e-14  1.7775169582703887e-01  1.7492070828528034e-01  3.4894903718407172e-01  3.4559408398720659e-01  5.1649142963852601e-01  5.1311761192548322e-01  6.8105561846865204e-01  6.7763924990302893e-01  8.4266239013709299e-01  8.3962151944190377e-01  1.0000000000000011e+00  1.0000000000000011e+00  -1.7684858022815021e-14  -1.7905858189793974e-14  -1.7669281440948317e-14  1.8543823975957194e-01  1.9444415657103215e-01  1.8746356597490321e-01  3.6099191253483570e-01  3.7325944218444734e-01  3.6415617221430202e-01  5.2971241942899394e-01  5.4282463065430464e-01  5.3327804227856079e-01  6.9266356959037101e-01  7.0475191181131525e-01  6.9583868099884605e-01  8.5000829082072482e-01  8.5851760996594828e-01  8.5194489556063779e-01  1.0000000000000031e+00  1.0000000000000029e+00  1.0000000000000031e+00  -1.6601862802796183e-14  -1.6555617057116087e-14  1.8528504587789829e-01  1.8052692943194032e-01  3.6022325238441361e-01  3.5528937793915882e-01  5.2871287865465599e-01  5.2385916842097247e-01  6.9173684332172025e-01  6.8677310706528372e-01  8.4963468097162098e-01  8.4482507925719896e-01  1.0000000000000042e+00  1.0000000000000042e+00  -2.0048485697597311e-14  -1.9802891432686463e-14  -1.9814979390245892e-14  1.7456285186463855e-01  1.8501197133571418e-01  1.8280981606998611e-01  3.4624836600856834e-01  3.5880737740540308e-01  3.5588362238184923e-01  5.1407863481947724e-01  5.2715496578138388e-01  5.2404070835458960e-01  6.7824018295377742e-01  6.9094017117790818e-01  6.8815920662062846e-01  8.3944957557295674e-01  8.4977698946277880e-01  8.4808942176037294e-01  1.0000000000000009e+00  1.0000000000000009e+00  1.0000000000000007e+00  -1.6946023919425018e-14  -1.6763379071893855e-14  1.8455176693332087e-01  1.7932748249925518e-01  3.5246280329013763e-01  3.5868248199635960e-01  5.2054835904968655e-01  5.2685222589338110e-01  6.8415661922491189e-01  6.8994585821301346e-01  8.4397517267844169e-01  8.4825817839423112e-01  1.0000000000000038e+00  1.0000000000000040e+00  -1.8277066425004843e-14  -1.8258025557793207e-14  1.8234162518454336e-01  -1.5900022221485355e-14  1.9893311344959713e-01  3.8002430815988064e-01  5.5008644046294886e-01  7.1066972228620318e-01  8.6183704178907850e-01  1.0000000000000049e+00  1.0000000000000031e+00  1.0000000000000029e+00  8.4386538278091583e-01  -1.7407373149419783e-14  1.8578189937339515e-01  3.6110394399885332e-01  5.2986688626840439e-01  6.9287657467013675e-01  8.5038244225046833e-01  1.0000000000000033e+00  -1.7497021114780096e-14  1.8498101275757395e-01  3.6154573925770866e-01  5.3072398261139253e-01  6.9320538259889841e-01  8.4947396314714307e-01  1.0000000000000033e+00  -1.6299098340277981e-14  1.9632072246227295e-01  3.7279370893258967e-01  3.8231936825571067e-01  3.7656144856356122e-01  5.4284995903889455e-01  5.4652948234420118e-01  7.0741581376767271e-01  8.5970920302548604e-01  1.0000000000000044e+00  6.8812120276294830e-01  5.2421466601524558e-01  8.4750322546261048e-01  1.0000000000000027e+00  -1.6340869707206100e-14  1.8569225186094085e-01  3.5989293942558076e-01  5.2825468303253720e-01  6.9175173967560299e-01  8.5060647711706183e-01  1.0000000000000044e+00  -2.0096939419942883e-14  -1.9891404373897455e-14  -2.0096915074363094e-14  1.7462720552845223e-01  1.7237477629803988e-01  1.8022966301682775e-01  3.5175614653517046e-01  3.4237335406332825e-01  3.4559720053738924e-01  5.1949079051998215e-01  5.0970777991447169e-01  5.1323958339480014e-01  6.7444839382102351e-01  6.8459859968431491e-01  6.7805907292864220e-01  8.3711911525801974e-01  8.4660095289751258e-01  8.4030641997458067e-01  1.0000000000000007e+00  1.0000000000000009e+00  1.0000000000000007e+00  -1.9688825952602699e-14  1.7254551879963137e-01  3.4369540323201653e-01  5.1147071380270592e-01  6.7591590842513094e-01  8.3781636787473890e-01  1.0000000000000011e+00  -1.6852090294915121e-14  1.8888364861378054e-01  3.6397697885502228e-01  5.3242755823526333e-01  6.9547718705813955e-01  8.5304171920977334e-01  1.0000000000000040e+00  1.7644763006081385e-01  3.4846921524716318e-01  5.1621468518698943e-01  6.8021798342707462e-01  8.4103212573776187e-01  1.0000000000000049e+00  -1.8031390322152911e-14  -1.8040808071211847e-14  1.8839747371538643e-01  1.7846557879383368e-01  3.5216033683891923e-01  3.6441017666973391e-01  5.2057753983662547e-01  5.3333426068122292e-01  6.8397512290123152e-01  6.9621424161510448e-01  8.4316311821680889e-01  8.5293574446949494e-01  1.0000000000000029e+00  1.0000000000000029e+00  -1.9043812748857436e-14  1.8095779962259234e-01  3.5498272559096905e-01  5.2343288371016206e-01  6.8689059821743736e-01  8.4583697541637171e-01  1.0000000000000018e+00  1.0000000000000020e+00  -1.8473680566371903e-14  1.7932887498207839e-01  -1.8109870972049398e-14  -1.8139609067982745e-14  1.9128471274806397e-01  1.8796005210449002e-01  3.6520802692839333e-01  3.6867022153797180e-01  5.3457143028770526e-01  5.3806896365753887e-01  6.9705741078403294e-01  7.0048966685836211e-01  8.5272901324368677e-01  8.5583007638608299e-01  1.0000000000000027e+00  1.0000000000000027e+00  -1.8413579178163352e-14  -1.8407759267722327e-14  1.8646477505445794e-01  1.8675995916402913e-01  3.6392739387692036e-01  3.6379887259338817e-01  5.3351879537352731e-01  5.3326943059786858e-01  6.9589985300561674e-01  6.9574262447279289e-01  8.5133068094192277e-01  8.5162776052605382e-01  -1.7439428985577169e-14  -1.7625672144873554e-14  1.7695295862179364e-01  1.6958489770359098e-01  3.4096026846522504e-01  3.4982560993046297e-01  5.0862234844784537e-01  5.1790358805083048e-01  6.7250189326473120e-01  6.8155726873385170e-01  8.3381287949620786e-01  8.4169021621224183e-01  1.0000000000000033e+00  1.0000000000000031e+00  -1.8969368131545276e-14  -1.8803745900014291e-14  -1.9018267356825157e-14  1.8649664399266414e-01  1.8417619265362398e-01  1.7498915932538420e-01  3.6134856592619985e-01  3.5910555663724253e-01  3.4710579068162034e-01  5.2999133877009552e-01  5.2795503136949229e-01  5.1510630234540078e-01  6.9340092194211522e-01  6.9148774229382570e-01  6.7897848859480281e-01  8.5131382505844666e-01  8.4974801247492104e-01  8.3960095977962035e-01  1.0000000000000018e+00  1.0000000000000020e+00  1.0000000000000018e+00  -1.7638944363681086e-14  1.8500852573698620e-01  3.6159914775459884e-01  5.3072757141157012e-01  6.9330681995241583e-01  8.4974590681743112e-01  1.0000000000000031e+00  -1.7864754255049789e-14  1.8533350039466143e-01  3.6109396240108910e-01  5.3004902180527369e-01  6.9287157444139680e-01  8.4988007073435523e-01  1.0000000000000029e+00  -1.9891550460611076e-14  1.7508031288743925e-01  3.4586295672091061e-01  5.1348514215246688e-01  6.7838490143365981e-01  8.4070641174399330e-01  1.0000000000000009e+00  -1.7414560362943579e-14  -1.7408752277876591e-14  1.7431417840201713e-01  1.7766652334343400e-01  3.4962255101168704e-01  3.4645451798740329e-01  5.1740212124203599e-01  5.1434569817411280e-01  6.8141043013281333e-01  6.7818262043513533e-01  8.4232542679290789e-01  8.3913658845034766e-01  1.0000000000000033e+00  1.0000000000000033e+00  -1.9433898489726406e-14  -1.9263977450182820e-14  1.8193860534195919e-01  1.7714149700554210e-01  3.5435542462786407e-01  3.4879535358508512e-01  5.2230532951293251e-01  5.1656862226079103e-01  6.8651787464231162e-01  6.8096420022682236e-01  8.4689853143782734e-01  8.4228857658593514e-01  1.0000000000000016e+00  1.0000000000000013e+00  -1.7715135281689075e-14  1.9041064704346247e-01  3.6799781173536167e-01  5.3747090906952932e-01  6.9971823527422072e-01  8.5492094550696018e-01  1.0000000000000031e+00  -1.7444043928784998e-14  -1.7218816296466916e-14  1.8419573296867531e-01  1.8556388045777272e-01  3.6088382234330552e-01  3.5753198730029034e-01  5.2957898939332970e-01  5.2552942451547280e-01  6.9270632259993048e-01  6.8909536941637584e-01  8.4845408808561651e-01  8.5028257967601062e-01  1.0000000000000036e+00  1.0000000000000033e+00  -2.0274725375468685e-14  1.8050951500456494e-01  3.5177263297054129e-01  5.1910791404449419e-01  6.8362167262692120e-01  8.4523959309524899e-01  1.0000000000000004e+00  -1.8279025628755454e-14  1.8477631238323988e-01  3.6055865719647257e-01  5.2957717818348427e-01  6.9255634939894251e-01  8.4968290116119927e-01  1.0000000000000024e+00  -1.8333557126826208e-14  1.8353192886047376e-01  3.5899681088618790e-01  5.2792599589449274e-01  6.9089974365515994e-01  8.4832141573702724e-01  1.0000000000000024e+00  -1.9889177646701854e-14  1.7900411168973310e-01  3.5159826719085852e-01  5.1994067969362823e-01  6.8436515716026058e-01  8.4495560874911346e-01  1.0000000000000009e+00  -1.6748789481934049e-14  -1.6585253568652767e-14  -1.6753015789220321e-14  1.9222496211278481e-01  1.9273632242677396e-01  1.9080887377440653e-01  3.7039348442070785e-01  3.7315439770500514e-01  3.7018964101161128e-01  5.3977380322502733e-01  5.4329908248725567e-01  5.4007081513440303e-01  7.0177242270409890e-01  7.0417556173478579e-01  7.0139467018630275e-01  8.5643049752788858e-01  8.5651074203362476e-01  8.5489548129946769e-01  1.0000000000000040e+00  1.0000000000000042e+00  1.0000000000000040e+00  1.0000000000000051e+00  1.0000000000000049e+00  1.0000000000000051e+00  8.6080081205438874e-01  -1.6343504515685098e-14  -1.6191770520907425e-14  -1.6378567073959775e-14  2.0028770736661006e-01  2.1233858825768698e-01  2.1528204114421609e-01  3.8362650819388699e-01  3.9858381926712322e-01  4.0233704463662467e-01  5.5423121235576167e-01  5.6935362984036564e-01  5.7313902247372095e-01  7.1382236297457724e-01  7.2693621050945412e-01  7.3048223769311305e-01  8.6303568330752256e-01  8.7186048308239639e-01  8.7456579146419544e-01  1.0000000000000044e+00  1.0000000000000047e+00  1.0000000000000044e+00  -1.6361424123032806e-14  -1.6168531275335719e-14  1.9773891070658084e-01  1.9447711727728684e-01  3.7772514123082995e-01  3.7386834223310295e-01  5.4753576145306526e-01  5.4352392162309404e-01  7.0849567949855907e-01  7.0486476142326915e-01  8.6077570295224359e-01  8.5798294893864302e-01  1.0000000000000047e+00  1.0000000000000044e+00  -1.6139765629474102e-14  -1.5930802624547523e-14  -1.5978908080694153e-14  2.0633544228085124e-01  2.2768826201998540e-01  2.0937440248205894e-01  3.9477496481539726e-01  4.1786747646097661e-01  3.9754102375903055e-01  5.6637394904829041e-01  5.8870736021460857e-01  5.6903369081360455e-01  7.2352185656128809e-01  7.4406311553653282e-01  7.2621870705439118e-01  8.6786371405181473e-01  8.8336059174774062e-01  8.7034725849905248e-01  1.0000000000000049e+00  1.0000000000000049e+00  1.0000000000000047e+00  -1.9902062715204209e-14  1.8622453034102202e-01  3.6152734753210841e-01  5.3064455418452261e-01  6.9443296630562923e-01  8.5246180313171416e-01  1.0000000000000009e+00  3.4487616411604255e-01  3.4856652426154283e-01  1.7329565286559553e-01  5.1602470283314728e-01  5.1259391989222813e-01  6.8039693891135367e-01  6.7667062731221095e-01  -1.8358326262793166e-14  -1.8274633709984382e-14  1.8791895381978863e-01  1.8558832957314877e-01  3.6484059913388012e-01  3.6135299448650637e-01  5.3411261960001388e-01  5.3035849867337215e-01  6.9675072307191699e-01  6.9331422305155199e-01  8.5269920831499169e-01  8.5037572634946923e-01  1.0000000000000024e+00  1.0000000000000024e+00  -1.6699949148605059e-14  -1.6584017099073123e-14  -1.6499452525845140e-14  1.9805080598979485e-01  1.9481111207455554e-01  2.0180534091973645e-01  3.8167314107698319e-01  3.7604673746144046e-01  3.8534017443317176e-01  5.5247758153138482e-01  5.4633066796983676e-01  5.5594526188468318e-01  7.1180436371109379e-01  7.0693256611716171e-01  7.1540456379426076e-01  8.6081083197374308e-01  8.5846673145335461e-01  8.6418617296438160e-01  1.0000000000000044e+00  1.0000000000000042e+00  1.0000000000000042e+00  -1.6535320126070456e-14  1.9245639525424274e-01  3.7188507562258377e-01  5.4174946085901943e-01  7.0313452687502087e-01  8.5648067981481979e-01  1.0000000000000042e+00  -1.8575923514611193e-14  -1.8419913505609879e-14  -1.8604535996401868e-14  1.8620970472642354e-01  1.8441488893082439e-01  1.8461715168130532e-01  3.6226013302104365e-01  3.6124762262729676e-01  3.6036349807148882e-01  5.3150655580042094e-01  5.3062402207292125e-01  5.2949782942508816e-01  6.9445278705955138e-01  6.9316738277167522e-01  6.9261489785762831e-01  8.5129006817243069e-01  8.4933536635935791e-01  8.4982612491492437e-01  1.0000000000000022e+00  1.0000000000000024e+00  1.0000000000000022e+00  -1.8052876341872698e-14  1.8602328215022140e-01  3.6223454023067858e-01  5.3128134954460737e-01  6.9394026511502127e-01  8.5047696075341728e-01  1.0000000000000027e+00  -1.6959087043517308e-14  1.7931076689342310e-01  3.5470930552236712e-01  5.2348397538644764e-01  6.8594156558224328e-01  8.4327875488717752e-01  1.0000000000000038e+00  -1.9601079390920515e-14  -1.9372613303490896e-14  -1.9586364023185486e-14  1.8283803154115974e-01  1.8108249355831010e-01  1.7951464909192422e-01  3.5640932177220458e-01  3.5563525582952299e-01  3.5364198597791141e-01  5.2471903870392234e-01  5.2435723557121383e-01  5.2215729651617682e-01  6.8863990176265033e-01  6.8775584591377148e-01  6.8570374070870188e-01  8.4826904117187674e-01  8.4611914308854408e-01  8.4480462695910563e-01  1.0000000000000011e+00  1.0000000000000013e+00  1.0000000000000011e+00  -1.9646580379573015e-14  1.7811208331395009e-01  3.4957235808498072e-01  5.1731690691142451e-01  6.8193806836912874e-01  8.4354269783038549e-01  1.0000000000000011e+00  -1.6540277191179638e-14  1.9459113533247516e-01  3.7718157247474265e-01  5.4785648047110813e-01  7.0773636833270792e-01  8.5798611359179489e-01  1.0000000000000042e+00  -1.6417334130829269e-14  -1.6341237647068731e-14  2.0005622929425457e-01  1.9224380656597082e-01  3.8306463975754229e-01  3.7167910290709477e-01  5.5373717846291404e-01  5.4169693859257251e-01  7.1346703076332985e-01  7.0327626009745348e-01  8.6277979257172310e-01  8.5665031833994776e-01  1.0000000000000044e+00  1.0000000000000044e+00  -1.7905757138101622e-14  1.8754199024562504e-01  3.6501834345183298e-01  5.3452572289691735e-01  6.9672229591323742e-01  8.5200035865478352e-01  1.0000000000000029e+00  -1.6412023667692626e-14  8.3802836407587289e-01  1.0000000000000044e+00  -1.8495319521860784e-14  1.8608240277860191e-01  3.6201178360779024e-01  5.3103867755258716e-01  6.9404447335967712e-01  8.5100099776118332e-01  1.0000000000000022e+00  -2.0252791913903233e-14  -2.0240640789523506e-14  1.8044180635873799e-01  1.7572073566155014e-01  3.4754491452365249e-01  3.5301121316442524e-01  5.1525723851642335e-01  5.2110216857209235e-01  6.7924727940288432e-01  6.8538463869238209e-01  8.4006351912104849e-01  8.4622994297051912e-01  1.0000000000000004e+00  1.0000000000000004e+00  -1.9648954593071835e-14  1.7810881336138853e-01  3.5031445944994644e-01  5.1829004413956425e-01  6.8271465197131265e-01  8.4377772772514936e-01  1.0000000000000011e+00  -1.6312009388869015e-14