<?xml version="1.0"?>
<VTKFile type="UnstructuredGrid"  version="0.1"  >
<UnstructuredGrid>
<Piece  NumberOfPoints="2217" NumberOfCells="10109">
<Points>
<DataArray  type="Float64"  NumberOfComponents="3"  format="ascii">11.34256211003533 2.559963610454043 3.662915467942084  11.23041676328445 2.651653979168271 3.732827329951541  11.22654493170889 2.522080549939639 3.633936557215388  11.2271424548698 2.477950412016679 3.68647644053894  11.2316603871206 2.61342959716206 3.792986449823797  11.34344321932059 2.516540269140279 3.719197409562518  11.22683132920075 2.433268100843837 3.739509264215929  11.23210012896514 2.574863378073209 3.853805701071212  11.34349062990687 2.472472411856851 3.776051356920952  11.22632456455674 2.38806773681234 3.793078386235965  11.2324778456343 2.535774501879789 3.915195505496533  11.34338486626016 2.427893090400786 3.833572194690457  11.22595042096629 2.342372571446584 3.847169088995505  11.23306406960327 2.496233284094554 3.977182685592514  11.34336844321755 2.382831595205946 3.891820545401331  11.22588065665453 2.296166667219494 3.901752853016943  11.23407283180669 2.456215594717369 4.039769359013426  11.34360242476936 2.337248358748571 3.950832103395797  11.22636577811407 2.24940938010779 3.956835608451353  11.23579182069453 2.415617451933174 4.102895289599583  11.34433312903732 2.290924857888474 4.010715215094062  10.10045521657062 3.293531735918288 3.825672093657032  9.999230122857304 3.338935986229512 3.810729469843685  9.994608010491566 3.225259736244798 3.855491712405533  10.00328720448549 3.243528652932193 3.919760468420326  10.00404089133932 3.364408668619846 3.872219962209264  10.1040087490871 3.313722129144391 3.889571991261783  10.01176718085974 3.261617343990179 3.984158431946041  10.00867100552684 3.389730705202493 3.933875881713112  10.10739282852106 3.333746126972152 3.953620347215611  10.02017767936987 3.279636607614367 4.048637589784755  10.01324026731882 3.415010847291644 3.995624725730937  10.11072689706094 3.353724727905309 4.017766154144434  10.02860884934516 3.297634790674067 4.113166503951819  10.01784198890073 3.440294933427788 4.057427395824183  10.11408566871473 3.37371346543202 4.081993663837004  10.03714507755204 3.315637275164977 4.177727736049881  10.02256601064767 3.465601877383448 4.119267409944608  10.11754272014504 3.393758414603044 4.146333550073638  10.04591182118902 3.333713936424501 4.24230775208205  10.0274831095871 3.491010323740006 4.181202787987784  10.12117405315929 3.413916307591572 4.210831668926923  11.45017313350942 2.916924176512455 3.83578465703532  11.35592941900119 3.012875163010499 3.868285342044679  11.32664056721734 2.875209698350337 3.836812574918075  11.33154950168484 2.854299117138548 3.909020417914622  11.35971225008262 3.000459966062045 3.944533165793009  11.45315473437145 2.897308470834177 3.910023945454036  11.36306823277795 2.988143880511002 4.02141497589185  11.45561067174809 2.877287746080698 3.985203530891194  11.33601889371579 2.833174190201677 3.982113193773494  11.3663791788716 2.975590429717057 4.098924824119757  11.45782756665671 2.857071986891709 4.061257779094712  11.3402682997464 2.811794640376938 4.055866118100417  11.46001907804282 2.83669533639754 4.138080236025102  11.36991102595112 2.962672641634218 4.177255120840473  11.3445918043419 2.790083880484417 4.130277602418792  11.46252851047075 2.8159742797214 4.215786302428707  11.37390045941859 2.949499343180149 4.256304052496713  11.34930354527794 2.767986808706764 4.205469180081297  11.46549816718832 2.795067643106027 4.294536613596675  11.37854670792716 2.935950973824475 4.336258616164265  11.35501712784644 2.745517699430303 4.28152410317271  11.22985479022653 3.026625669198073 3.876304859304197  11.23335453612093 3.018413052135011 3.95146254081644  11.23627828083607 3.010526565785237 4.027429970613115  11.23921129221637 3.002344781110382 4.104050438440328  11.24234667037797 2.99384081514369 4.18127299065784  11.24587211410469 2.984989219893052 4.258998770081665  11.25008938314555 2.975803801660739 4.33712249278377  11.1218940323388 3.044060303420383 3.880338226641348  11.19743606152493 2.924460951123327 3.863682866623614  11.19839064254816 2.908150089363812 3.936746556067799  11.11958296308339 3.036435215624464 3.954473491081779  11.19882496566886 2.891867390446864 4.01059760425292  11.11660193799984 3.029139747688169 4.029263928522287  11.19925044920103 2.87526957583677 4.085059397090249  11.11357531471332 3.021541592705498 4.104690842319654  11.19988870878425 2.858295727640284 4.16008789451013  11.11076467463587 3.013622769508598 4.180608982433681  11.201007441164 2.840968084861712 4.23563275831653  11.10833633596535 3.005385522218571 4.256904058196389  11.20285678337005 2.823324772528568 4.3115682968244  11.10640862693329 2.996835461749688 4.333431198721572  10.63466443309029 2.40110381633999 3.522723604796444  10.55628298005653 2.461316273715987 3.577027574823821  10.4831908517984 2.393471218342823 3.521098624464123  10.4857741404746 2.352520911544397 3.56380890360632  10.55723405817466 2.421283787296829 3.62283059818201  10.63481157850055 2.358947290965796 3.565806856580581  10.48794745811372 2.31151189872338 3.606511335892026  10.55768977446951 2.381185206872638 3.668652176921114  10.6343954821987 2.316676178983172 3.608932732674373  10.48994243107649 2.270408226064786 3.649200257331383  10.55794112602073 2.340949388052442 3.714483280270574  10.6337735883993 2.274234879891481 3.652088994909125  10.49197264968439 2.229196423413705 3.691857099826545  10.55822296253674 2.300573920768089 3.760317827225499  10.63321382074632 2.231625019926884 3.695274829941322  10.49421564570415 2.187913732434148 3.734486920285571  10.55873931681514 2.260094025655073 3.806159976305058  10.63294322088776 2.188865959600459 3.738510037514444  10.49689500404515 2.146617499675637 3.777100297460225  10.55973739471617 2.219555662144724 3.852020197454712  10.63319915499756 2.145966031957449 3.781832817129321  11.57694427130069 2.701959091411587 3.752444259497754  11.47891133233145 2.801560487550037 3.802305400844375  11.4681068195285 2.666909767148381 3.727083072094366  11.46729900872911 2.628688596814997 3.79086973838677  11.48068461839901 2.772353385882574 3.873380243952731  11.57537676465182 2.66571202929006 3.820491479202544  11.46609878518946 2.589401289770934 3.855203135081244  11.48191061046881 2.742370276458251 3.945036950091243  11.57371471728053 2.628569706782815 3.889309454882811  11.46510942643102 2.549622921309886 3.920395344389827  11.48317650644342 2.712203333444647 4.017435215938757  11.57238650508054 2.591025730560782 3.959005713009034  11.46435398105588 2.509649526574528 3.986459618830391  11.48449533496621 2.682096363835602 4.090695092559328  11.57143320208519 2.553492742389152 4.029612451278301  11.46380237222378 2.469511492739694 4.053396345840538  11.48589744362979 2.65177477402838 4.16485433866134  11.5704755094579 2.516051296199172 4.101034832687248  11.46342109662802 2.429156188136206 4.121480014072626  11.48785497134932 2.62092575890281 4.240049610454774  11.56950800317497 2.479180568419862 4.173686503933427  11.09532023212082 2.915439758791479 3.856958806819461  11.09112934661492 2.896934617578685 3.927673317017779  11.08615049321809 2.878476756298743 3.999220314523061  11.08113753373887 2.859777246868817 4.071288214398636  11.0763021363637 2.840720248585022 4.143810679754251  11.07182909956799 2.821319100158869 4.216742777197508  11.06783571356518 2.801610614099016 4.290052308863984  10.54725485047735 2.328993176542256 3.450128961523271  10.54902029292025 2.28633373622652 3.489751002849701  10.55032837056613 2.243588427443266 3.529381311506091  10.55144453506648 2.200720867997409 3.56901262536094  10.55402582199866 2.114645491168501 3.64824275701149  10.55592177287646 2.071504096343644 3.687875979450851  9.860926223423379 2.399542671118393 3.670577426892411  9.753287782081907 2.412352291432748 3.717927386640648  9.812664003101373 2.319229053819123 3.605314934820608  9.825946596051663 2.277137080322814 3.645369632254679  9.767318345472921 2.373272969075409 3.764362015340797  9.87489385493191 2.360044658100655 3.715089593824227  9.888862305662483 2.320557090325813 3.759515810624412  9.781362008415993 2.334218973459897 3.810716397559725  9.8392656001897 2.23507438400196 3.685343008899176  9.902835316562998 2.281096979047054 3.803877896718061  9.79541506787672 2.295190965838234 3.857013975215695  9.852621960885728 2.193047483394126 3.72527946786933  9.91681188154115 2.241660062704184 3.848192768251554  9.80946839867709 2.25618568051516 3.903264111677492  9.865977195823961 2.151041514634433 3.7651747677316  9.930754482601676 2.202226954473718 3.892450496417936  9.823477479028027 2.217182871556757 3.949451420232637  9.879282796490338 2.109039247180496 3.805016986929017  9.837408038964872 2.178161254288647 3.995570159266324  9.944606552521146 2.162793815737747 3.93663297028373  9.892471361662672 2.067030952263218 3.84479186883476  9.893096170225924 3.330077343770696 3.833672421559524  9.905774755572454 3.356428025994557 3.894331500217075  9.918170480203765 3.382655957839717 3.955147568735568  9.930475934842628 3.408841909501477 4.016034100584051  9.942793908941693 3.435019784023454 4.076962643743848  9.955226458833868 3.461218868689701 4.137926192204388  9.968088342313413 3.487478009283688 4.198904696657757  11.111338661408 2.603931407627285 3.700937210508366  11.11138103402832 2.564032907316586 3.756854141223573  11.11052572833579 2.52376115782404 3.813473377042377  11.10948837291228 2.48303511169377 3.870539337136218  11.10861516077439 2.441856626335174 3.92804459477413  11.1081262961732 2.400200922708723 3.985974142754576  11.10831548248506 2.357954111550768 4.04435073136652  11.34711222588896 3.125502288126574 3.875353960343597  11.22673002907236 3.177930931417255 3.887121552248308  11.22971001043798 3.179119851232588 3.963879870338087  11.35204391653452 3.124127405397821 3.952728785618473  11.23222857827469 3.180646150449876 4.041434083969869  11.356
[...]
<PointData  Scalars="f_14"> 
<DataArray  type="Float64"  Name="f_14"  format="ascii">-6.3090693645134747e-16  -8.3876958126615025e-16  -8.5182083304190401e-16  1.8547330349978786e-01  1.9558210604861509e-01  1.8991791500869001e-01  3.6260163903620785e-01  3.7567103965074478e-01  3.6765531845822114e-01  5.3212840230245950e-01  5.4582171297782822e-01  5.3721652386185959e-01  6.9457688587464672e-01  7.0709303073969587e-01  6.9938883377797201e-01  8.5040995003287234e-01  8.5957315845930371e-01  8.5448913741981458e-01  1.0000000000000200e+00  1.0000000000000200e+00  1.0000000000000202e+00  -3.1262876379005455e-15  -3.3287713147551198e-15  -3.3594452373385756e-15  1.8065941885835926e-01  1.7037589702255174e-01  1.8374252864373303e-01  3.5447231336723400e-01  3.4245004059207929e-01  3.5706160685347055e-01  5.2235002043472689e-01  5.0977027217512505e-01  5.2450111895389040e-01  6.8506561882852146e-01  6.7241837918408609e-01  6.8744443832222291e-01  8.4378745452778625e-01  8.3216024448522652e-01  8.4716961720623674e-01  1.0000000000000175e+00  1.0000000000000175e+00  1.0000000000000178e+00  -4.1844588025364272e-16  -5.8288037730853088e-16  -6.4178446800592365e-16  1.9936058061097625e-01  2.0427596447473145e-01  1.8470888536050378e-01  3.8746369153185040e-01  3.6530974007456007e-01  3.8228438798363940e-01  5.5761075862584419e-01  5.3561606109970150e-01  5.5210906943706628e-01  6.9592997753623709e-01  7.1696646863943703e-01  7.1077313832316036e-01  8.4782188802065672e-01  8.6625424837527798e-01  8.5960640803933341e-01  1.0000000000000204e+00  1.0000000000000202e+00  1.0000000000000202e+00  -8.1817882408641272e-16  2.0374277975546831e-01  3.8934287664616202e-01  5.6007478701048641e-01  7.1820538967866532e-01  8.6482280519005317e-01  1.0000000000000200e+00  -1.0341669097600527e-15  -8.8962213834826889e-16  2.1957838451466213e-01  2.0520743714702572e-01  4.0584716239598995e-01  3.9146052999949371e-01  5.7642540570729428e-01  5.6289511386589897e-01  7.3379840672136210e-01  7.2122939838051003e-01  8.7791799528728764e-01  8.6721494421334189e-01  1.0000000000000200e+00  1.0000000000000198e+00  -2.0793550854934365e-15  -2.2443754314594065e-15  -2.4007733505312907e-15  1.7294399131372554e-01  1.7043881800638097e-01  1.7653393291383371e-01  3.4177644239784644e-01  3.4034099408287316e-01  3.4770942570903124e-01  5.0860626113717611e-01  5.0762751304345166e-01  5.1547914116693916e-01  6.7395909859096981e-01  6.7254597871573552e-01  6.8028856201305332e-01  8.3805685124554319e-01  8.3573446939038365e-01  8.4226774932800685e-01  1.0000000000000184e+00  1.0000000000000187e+00  1.0000000000000187e+00  -2.0935086272967329e-16  -3.7458163667093555e-16  -4.0111125079583177e-16  1.8115196736091277e-01  1.9849016316405113e-01  1.9765810115621929e-01  3.5932408680600236e-01  3.7980820002855958e-01  3.7976982636180395e-01  5.2969629568254517e-01  5.4990421491545471e-01  5.5106509348962962e-01  6.9177740857558234e-01  7.1004520870385734e-01  7.1194625598763561e-01  8.4676319292598579e-01  8.6082031552273086e-01  8.6223680241666456e-01  1.0000000000000204e+00  1.0000000000000204e+00  1.0000000000000207e+00  -1.0999806029652840e-15  2.0785569730153972e-01  3.9452985552460068e-01  5.6606817673993415e-01  7.2456399931958915e-01  8.7026438846328902e-01  1.0000000000000198e+00  -2.2654417513169130e-15  1.7088537708794732e-01  3.3992034861707154e-01  5.0696459398393556e-01  8.3639958321305163e-01  1.0000000000000187e+00  -3.7602379345732611e-15  -4.0027945375031863e-15  -3.8694159435614999e-15  1.8089669852422571e-01  1.9633786210098733e-01  1.8776769469811871e-01  3.6454582440474259e-01  3.7538181727162961e-01  3.5603090245573760e-01  5.3388006793711429e-01  5.4523936018582764e-01  5.2514389800444583e-01  6.9658486764681682e-01  7.0719250852737114e-01  6.8855883610509983e-01  8.5269272599867751e-01  8.6070465356498382e-01  8.4658974875161175e-01  1.0000000000000169e+00  1.0000000000000171e+00  1.0000000000000169e+00  -3.5475182599434513e-15  1.8145054492079585e-01  3.5678659741108271e-01  5.2516515368065331e-01  6.8749495244300929e-01  8.4551446918635442e-01  1.0000000000000173e+00  -1.0760284513690592e-15  1.8983500797899455e-01  3.6917434502392610e-01  5.3937272944271875e-01  7.0110520968844459e-01  8.5487348075238101e-01  1.0000000000000198e+00  -5.9041842945957597e-16  -8.1194728168921133e-16  2.0907344173332784e-01  1.9585158229948188e-01  3.9575057507044109e-01  3.7901825026280694e-01  5.6684494794333340e-01  5.4956587828074832e-01  7.2471398409279719e-01  7.0883488613071421e-01  8.7014150809200108e-01  8.5832204400031165e-01  1.0000000000000200e+00  1.0000000000000202e+00  -3.6068713650602508e-16  -5.8199438818693082e-16  -5.6714914864963570e-16  2.0020849523090170e-01  1.9474195842330097e-01  1.9778754049890826e-01  3.7811203694764595e-01  3.7718987426189776e-01  3.8343557416429158e-01  5.4757440702452442e-01  5.4747282592702851e-01  5.5363535465161173e-01  7.0750357792782947e-01  7.0692715392951522e-01  7.1261539354386660e-01  8.5910556559748985e-01  8.5713280672587289e-01  8.6170341828733421e-01  1.0000000000000202e+00  1.0000000000000204e+00  1.0000000000000202e+00  -1.0637013676818644e-15  -1.2666933790761014e-15  -1.2523676522870741e-15  1.9843208032288290e-01  2.0669486938455994e-01  2.1261620009273721e-01  3.8284671036195289e-01  3.9302640847272946e-01  3.9959849545242726e-01  5.5412438202824577e-01  5.6444681075099168e-01  5.7105654297375696e-01  7.1357157533605720e-01  7.2286731775264401e-01  7.2897778399955238e-01  8.6212626220025801e-01  8.6876165565066943e-01  8.7378574034023815e-01  1.0000000000000195e+00  1.0000000000000195e+00  1.0000000000000198e+00  -7.9961743563236099e-16  -1.0144779233774246e-15  -9.9196562253279908e-16  2.1476160098926084e-01  2.1466224027821623e-01  2.0640053449239645e-01  4.0383687044877009e-01  4.0302709731219694e-01  3.9214390444890607e-01  5.7521833836646774e-01  5.7421347310827242e-01  5.6288309935535730e-01  7.3191927837282356e-01  7.3092877925808875e-01  7.2073136639288249e-01  8.7452277876901385e-01  8.7381525612103661e-01  8.6705220555464357e-01  1.0000000000000198e+00  1.0000000000000198e+00  1.0000000000000200e+00  -5.7339568493621053e-16  -7.6609892763745602e-16  -7.4444511722554443e-16  2.0356024382442758e-01  1.9268002033735931e-01  1.9591905029056272e-01  3.8778050706463446e-01  3.7513189124398361e-01  3.7616230101013209e-01  5.5814954266592187e-01  5.4564231604117797e-01  5.4582154714234488e-01  7.1683716502173522e-01  7.0528179953086878e-01  7.0608937568773744e-01  8.6486222755706144e-01  8.5534247219544046e-01  8.5838184489521030e-01  1.0000000000000202e+00  1.0000000000000202e+00  1.0000000000000202e+00  -4.0254451861664177e-15  -4.1002496377983858e-15  -4.2798870237127896e-15  2.0307723264525576e-01  2.0534302597688989e-01  2.0743326752594024e-01  3.8835311596601929e-01  3.9032055623473244e-01  3.9164878789682517e-01  5.5917251234038379e-01  5.6104439733397871e-01  5.6209858487072650e-01  7.1745134859271531e-01  7.1960672508407431e-01  7.2089550594532881e-01  8.6427562167612026e-01  8.6672327133446547e-01  8.6851829315318319e-01  1.0000000000000164e+00  1.0000000000000167e+00  1.0000000000000169e+00  -1.3119899813254073e-15  -1.2869593117350712e-15  1.9277074748253342e-01  1.9465134588163380e-01  3.7188232922697578e-01  3.7606334937079733e-01  5.4185181518450387e-01  5.4676338567883132e-01  7.0366711883448352e-01  7.0773911595958217e-01  8.5736298090179153e-01  8.5923253539472411e-01  1.0000000000000195e+00  1.0000000000000195e+00  -4.0561283334680647e-16  -6.3312200887891265e-16  1.8601723877705756e-01  1.9209067725100945e-01  3.6224971061289563e-01  3.7037440789810772e-01  5.3157252593468818e-01  5.4051059314479244e-01  6.9459561337542985e-01  7.0321704429702525e-01  8.5121852153058353e-01  8.5791656331663579e-01  1.0000000000000202e+00  1.0000000000000204e+00  -4.1193726862310593e-15  2.0382005183453458e-01  3.8792660597484330e-01  5.5852771321018746e-01  7.1744555770178398e-01  8.6576112583465514e-01  1.0000000000000167e+00  -4.1420039656330671e-15  1.8482092076605564e-01  3.6166668115873302e-01  5.3116788288669481e-01  6.9379760521725398e-01  8.4996450961959935e-01  1.0000000000000167e+00  -6.2682912462864070e-16  1.9397084848186188e-01  3.7492028382897025e-01  5.4515386869187410e-01  7.0582829770608713e-01  8.5803080767211737e-01  1.0000000000000202e+00  -2.4836762006267153e-15  -2.6718942523947996e-15  1.7056541980046899e-01  1.6915940487017223e-01  3.3764276677145211e-01  3.3879725927514959e-01  5.0424841934153408e-01  5.0544212743815908e-01  6.6925651875716141e-01  6.7100358216021871e-01  8.3340857257931977e-01  8.3582991705268805e-01  1.0000000000000184e+00  1.0000000000000182e+00  -1.1012563084097187e-15  -1.3605575477115041e-15  1.9641235373860302e-01  2.0847876732006265e-01  3.7933169685290108e-01  3.9430220370487018e-01  5.5009182098361165e-01  5.6549998326533379e-01  7.1015090391050029e-01  7.2403347270542118e-01  8.6026266023024689e-01  8.6999657859752910e-01  1.0000000000000195e+00  1.0000000000000198e+00  -1.3679627551731610e-15  2.0430793542661174e-01  3.8744549179878807e-01  5.5794662430377229e-01  7.1769043338591754e-01  8.6663564246887081e-01  1.0000000000000195e+00  -1.5063617514435318e-15  -1.5956418786844290e-15  -1.7173904956069448e-15  1.8682396962829073e-01  1.8993241059386590e-01  1.9338184126304236e-01  3.6379243241227777e-01  3.6894795258539548e-01  3.7394905593345579e-01  5.3304900662299060e-01  5.3859204119261761e-01  5.4433735421587437e-01  6.9542750653902152e-01  7.0005432081609420e-01  7.0574855935556458e-01  8.5125113585923462e-01  8.5390077955943944e-01  8.5839758613223460e-01  1.0000000000000191e+00  1.0000000000000193e+00  1.0000000000000193e+00  -1.5496411252902072e-15  -1.8096318868409803e-15  -1.5348341336538583e-15  1.8951613991250871e-01  1.8392888150418821e-01  1.9092530265621452e-01  3.6727599787559562e-01  3.5955785762892722e-01  3.6963605176419334e-01  5.3688045641089999e-01  5.2853579569290354e-01  5.3946386685641978e-01  6.9927528746905743e-01  6.9156357735411533e-01  7.0134624425110892e-01  8.5446300760456828e-01  8.4882780722699136e-01  8.5552289001244730e-01  1.0000000000000193e+00  1.0000000000000191e+00  1.0000000000000193e+00  -1.0726721772005635e-15  1.8942681434598158e-01  3.6694959621492923e-01  5.3643375947934790e-01  6.9871551803416143e-01  8.5390098866424535e-01  1.0000000000000198e+00  -7.5776306050938657e-16  2.0924713697926220e-01  3.9486640898541370e-01  5.6543955225013831e-01  7.2307055045078938e-01  8.6892970473284448e-01  1.0000000000000202e+00  -9.5453865988059660e-16  2.0349893431303911e-01  3.8917795881626915e-01  5.6003462854275698e-01  7.1796285515167990e-01  8.6440216013979065e-01  1.0000000000000200e+00  -2.1042537236163241e-16  -4.2736962236830692e-16  1.7913511271090507e-01  1.8164055901320247e-01  3.5390439462879231e-01  3.5849785520915239e-01  5.2308024312814028e-01  5.2900165210289707e-01  6.8650706381056736e-01  6.9248744746110091e-01  8.4489773181203720e-01  8.4866161053426969e-01  1.0000000000000204e+00  1.0000000000000207e+00  -1.1916013498323730e-15  2.1738978466667555e-01  4.0560650989954528e-01  5.7702430076969302e-01  7.3400358659007792e-01  8.7703745525372367e-01  1.0000000000000195e+00  8.4814037240889750e-01  8.3283943363450508e-01  8.4029507353110267e-01  6.6857105326856814e-01  6.8777815704604972e-01  1.0000000000000171e+00  1.0000000000000173e+00  1.0000000000000175e+00  -2.7394394389357157e-15  1.7315017512260297e-01  3.4220663517056554e-01  5.0914227481630814e-01  6.7451307494087187e-01  8.3879693430855928e-01  1.0000000000000180e+00  -1.7775321575851602e-15  1.8517748403055420e-01  3.6075807123622777e-01  5.2983174127994126e-01  6.9310392796224851e-01  8.5051483467741307e-01  1.0000000000000191e+00  -4.3666221395476265e-15  2.0648715008295679e-01  3.9207655344407449e-01  5.6292453658738328e-01  7.2089409891827849e-01  8.6715696539362841e-01  1.0000000000000164e+00  -1.8861387717129434e-15  1.8286515248359886e-01  3.5719880652292046e-01  5.2558331322198903e-01  6.8884314063002294e-01  8.4769248209181558e-01  1.0000000000000189e+00  -2.1581837650152108e-15  -2.4708978152623227e-15  -2.2574935047461987e-15  1.6579479287328069e-01  1.8359270853040030e-01  1.7018346757180650e-01  3.3518825869139568e-01  3.5583123947948120e-01  3.4069749821856710e-01  5.0207084432974758e-01  5.2350635248888988e-01  5.0799642413830304e-01  6.6627738951232041e-01  6.8763815407702789e-01  6.7179723104647782e-01  8.2938187628388516e-01  8.4863585454421264e-01  8.3342444038423280e-01  1.0000000000000187e+00  1.0000000000000184e+00  1.0000000000000187e+00  -1.4926477722803728e-15  1.9237427288772396e-01  3.7308175508259800e-01  5.4327556175920477e-01  7.0393056619368954e-01  8.5621688909356897e-01  1.0000000000000193e+00  0.0000000000000000e+00  -2.0614107909403470e-16  1.9537358165118027e-01  2.1331338750046561e-01  4.0148387746629643e-01  3.7767246104194663e-01  5.7659423334524407e-01  5.5061060624762048e-01  7.3881189132435698e-01  7.1375029113985222e-01  8.8458882749652756e-01  8.6532441343620126e-01  1.0000000000000209e+00  1.0000000000000207e+00  -1.8374640235023726e-16  -3.7387667354485088e-16  1.9176691414738198e-01  1.8778977558208168e-01  3.7226189657712855e-01  3.6755348160767426e-01  5.4195350376048423e-01  5.3810235729132649e-01  7.0183954536949578e-01  6.9956155686561350e-01  8.5357625083197552e-01  8.5211100268033957e-01  1.0000000000000204e+00  1.0000000000000207e+00  -2.0425336169816713e-15  1.8198127160976468e-01  3.5518039786958966e-01  5.2327845642050974e-01  6.8721434665414793e-01  8.4716522135323535e-01  1.0000000000000189e+00  8.4949613121677581e-01  6.9025788497271623e-01  1.0000000000000171e+00  -4.2277541674387045e-15  -4.4752674814445087e-15  -4.3590845232173666e-15  1.8705959056869115e-01  1.9199768459622962e-01  1.9228842981760846e-01  3.6472165408178442e-01  3.7229508467764499e-01  3.7145870602059988e-01  5.3441110662265678e-01  5.4266700440666293e-01  5.4127842378897806e-01  6.9666287594472254e-01  7.0380838398887258e-01  7.0278951423368219e-01  8.5207816722336749e-01  8.5631322679045141e-01  8.5621187070904969e-01  1.0000000000000164e+00  1.0000000000000164e+00  1.0000000000000167e+00  -3.6480529511776439e-15  -3.8617668365195577e-15  1.8835253784111186e-01  1.8486019022059785e-01  3.6708504677443721e-01  3.6196250439514888e-01  5.3691296841717107e-01  5.3144174022856117e-01  6.9868578168328921e-01  6.9386098675032470e-01  8.5293908665400775e-01  8.4981032166128911e-01  1.0000000000000169e+00  1.0000000000000171e+00  -2.3583185078376663e-15  1.7915032117711913e-01  3.5316577708754732e-01  5.2131731564567685e-01  6.8454015251666434e-01  8.4386424982219432e-01  1.0000000000000184e+00  -2.0199311677191430e-15  1.7765830659921608e-01  3.5040691763245796e-01  5.1867639425319823e-01  6.8298582397992413e-01  8.4363146525705646e-01  1.0000000000000189e+00  -1.3325513785564828e-15  2.1377125692407012e-01  3.9797554320081002e-01  5.6873325550898413e-01  7.2811304570986202e-01  8.7520696124332142e-01  1.0000000000000195e+00  -4.0824746439556288e-15  1.8907104450892995e-01  3.6857475060406103e-01  5.3863638562493332e-01  7.0001232991274642e-01  8.5352739604884897e-01  1.0000000000000167e+00  -3.1117556511442363e-15  -3.1404106632532860e-15  -3.4242970774829048e-15  1.6885395624874142e-01  1.6834347179495474e-01  1.8181743688020990e-01  3.5479084676583966e-01  3.3797516801337585e-01  3.3634004973213921e-01  5.2312193522923101e-01  5.0496995249259569e-01  5.0302372564335718e-01  6.6994267618114922e-01  6.6850924525353084e-01  8.3376403317946635e-01  8.3347671192431105e-01  1.0000000000000178e+00  1.0000000000000178e+00  5.3904004124034610e-01  7.0096821616895921e-01  8.5504024312811866e-01  1.0000000000000162e+00  -8.4997789097395296e-16  1.8421014634078503e-01  3.5990802470262184e-01  5.2899695624391763e-01  6.9206823483913771e-01  8.4940014264488928e-01  1.0000000000000200e+00  -8.6397497166778252e-16  -1.0865854973787708e-15  1.9574647477962495e-01  1.9206780974305707e-01  3.7793908849791313e-01  3.7430294534081410e-01  5.4873780038248687e-01  5.4527797502106390e-01  7.0908100523749118e-01  7.0579069866473365e-01  8.5959651862289987e-01  8.5670502863647369e-01  1.0000000000000198e+00  1.0000000000000200e+00  -2.6534785252767397e-15  1.7819162973402208e-01  3.5268154393160001e-01  5.2125973003266057e-01  6.8439205502056921e-01  8.4276751190239729e-01  1.0000000000000182e+00  -2.0623770480142280e-16  1.9014901513068505e-01  3.7018762739955230e-01  5.4211846383079276e-01  7.0566989385830570e-01  8.5916960768390516e-01  1.0000000000000207e+00  -2.9392479905282364e-15  -3.0459798279218089e-15  -3.2434474774059586e-15  1.8084704303955204e-01  1.8254367460622165e-01  1.7514210935614635e-01  3.5544049928202448e-01  3.5682949733008273e-01  3.4584774751936448e-01  5.2414991865003857e-01  5.2515637798746617e-01  5.1318819567803475e-01  6.8753664442524276e-01  6.8850220409430585e-01  6.7764497130636669e-01  8.4592741063558363e-01  8.4725815056765830e-01  8.3972045285781471e-01  1.0000000000000175e+00  1.0000000000000178e+00  1.0000000000000180e+00  -2.1659875271211499e-15  -2.3904794178531326e-15  -2.4259521514189276e-15  1.9065645295912295e-01  1.9499348103671435e-01  2.0169154037981846e-01  3.7041615498299907e-01  3.7437999476815959e-01  3.8281132156871872e-01  5.4006553201086893e-01  5.4379086167165103e-01  5.5256073823198959e-01  7.0100552414460704e-01  7.0497144990118399e-01  7.1290487645966327e-01  8.5414768565323829e-01  8.5799270301119301e-01  8.6430938794257461e-01  1.0000000000000184e+00  1.0000000000000184e+00  1.0000000000000187e+00  -1.5155878861815222e-15  2.0304044211413363e-01  3.8620567928002864e-01  5.5668423154669477e-01  7.1611034849701283e-01  8.6512692685358794e-01  1.0000000000000193e+00  1.0000000000000162e+00  1.0000000000000162e+00  1.0000000000000160e+00  8.5478402386998975e-01  8.5018105911050423e-01  0.0000000000000000e+00  1.8477326790057413e-01  3.6554848091589937e-01  5.4011725621787643e-01  7.0648555189842166e-01  8.6252901770407009e-01  1.0000000000000209e+00  -6.4076511348473985e-16  1.8120314419976877e-01  3.5543706651017087e-01  5.2419486057882381e-01  6.8779630247716661e-01  8.4654971240205357e-01  1.0000000000000202e+00  -3.1633459075421693e-15  1.7823594109960911e-01  3.5017031345792626e-01  5.1812065098628812e-01  6.8280241099418426e-01  8.4440732644506711e-01  1.0000000000000178e+00  -2.1298770269633189e-15  1.9204204170680975e-01  3.7164733434386299e-01  5.4120896667445906e-01  7.0193343559514687e-01  8.5477548908780676e-01  1.0000000000000187e+00  -2.2231817332321923e-15  1.9332778353115992e-01  3.7154166323054072e-01  5.4086691535043463e-01  7.0272717878010627e-01  8.5776963969177034e-01  1.0000000000000187e+00  0.0000000000000000e+00  -1.8313014726211490e-16  -1.8821610825553630e-16  1.8276695376961233e-01  1.9037579526775744e-01  1.9554200485713619e-01  3.6185732016881950e-01  3.7007051275754455e-01  3.7883009648276689e-01  5.3292177246669670e-01  5.4189855762565775e-01  5.5380422926404327e-01  6.9543924939223711e-01  7.0520375293230209e-01  7.1954495558792109e-01  8.4947480053891256e-01  8.5923549240310493e-01  8.7394940940139121e-01  1.0000000000000207e+00  1.0000000000000207e+00  1.0000000000000209e+00  1.0000000000000160e+00  -5.4459210446830386e-16  1.9223731985699649e-01  3.7245975674752996e-01  5.4222125481921546e-01  7.0262745595566012e-01  8.5475354816728455e-01  -2.5731804102683725e-15  1.9113729600967072e-01  3.6896885108889488e-01  5.3798182842841302e-01  6.9988435255924963e-01  8.5495843323303333e-01  1.0000000000000182e+00  -4.3150931615166520e-15  -4.6167019063081490e-15  2.1418956270442718e-01  2.0280936487021667e-01  4.0167076083860698e-01  3.8915174396639390e-01  5.7253685371703256e-01  5.6025633354845139e-01  7.2940554495614351e-01  7.1813477454987773e-01  8.7296789361473248e-01  8.6424867842311304e-01  1.0000000000000162e+00  1.0000000000000164e+00  -8.6222263503502262e-16  2.0780680668196977e-01  3.9317619777258717e-01  5.6419228706654168e-01  7.