<?xml version="1.0"?>
<VTKFile type="UnstructuredGrid"  version="0.1"  >
<UnstructuredGrid>
<Piece  NumberOfPoints="1019" NumberOfCells="4434">
<Points>
<DataArray  type="Float64"  NumberOfComponents="3"  format="ascii">3.040499123927028 1.091262261578935 1.559183395965518  3.102096739291639 1.236358431580989 1.46904986684666  3.169241256971824 1.141308152273055 1.537752109566606  3.176981406455282 1.102678229151692 1.483894916483357  3.108010766895289 1.203629223913985 1.412163689746041  3.047179038934279 1.050990039994738 1.503882937041196  3.18494404737948 1.064055964142823 1.430110847076315  3.114191922934284 1.170873787540793 1.355313362381191  3.054057651090953 1.010679264911963 1.448618133800213  3.192987752717754 1.025459008851886 1.3763626568528  3.120453511856445 1.138121128346653 1.298480016151935  3.061007215987506 0.9703682587442582 1.393357882359062  3.200992996189763 0.9868998259523116 1.322621047321907  3.126673659497658 1.105395823828184 1.241635020796153  3.067931120890727 0.9300864786433334 1.338066238818964  3.208837959429416 0.9483867104148036 1.268859281981767  3.132727767554685 1.072714097912225 1.184738958048859  3.074743551154591 0.8898504931952843 1.282692347281298  3.216386403033194 0.9099154890879768 1.215044355419397  3.138482801266036 1.040093028906617 1.127734595383005  3.081330065082594 0.8496377031879285 1.227207218173386  3.189058439783921 0.8830925862354735 1.793900082481117  3.3142606313554 0.9372679605161209 1.767013047520003  3.33708198609435 0.8598671919176238 1.897419515054894  3.353860630786617 0.8000490214087879 1.868215688893548  3.326886269243581 0.8835241291884051 1.7273265249627  3.203154926007446 0.8275849301783598 1.752991397171334  3.217541030389753 0.7721337900158458 1.712153367742454  3.339741600199311 0.8299059078524669 1.68768981165186  3.370951653578412 0.7403721863140303 1.83905567629484  3.232006376825464 0.7167242886949898 1.67134206415306  3.352671766728385 0.7763625463078168 1.648084726849494  3.388131965719963 0.6807754363381339 1.809919375971748  3.246419382819593 0.6613442062635939 1.630531488738448  3.365560182820665 0.7228662505158847 1.608494684022497  3.405253650228363 0.6212201302551221 1.780799516093984  3.260657618847829 0.6059732275590226 1.589689605192857  3.378282880652548 0.6693874986227786 1.568900971892679  3.422161950442563 0.5616695285801988 1.751682329920147  3.274556187272446 0.5505614288421506 1.548738680831721  3.390658360093542 0.61588178263312 1.529290622839794  3.438638103037019 0.5020311716079512 1.722527115540903  3.212966949383933 0.8127546833757252 1.911102955931437  3.228864998101136 0.7496922443503884 1.882390415911973  3.245040954781259 0.6867119188633278 1.853697771317747  3.261254768339405 0.6237825431686096 1.825021772900609  3.277385975601128 0.5608715509762954 1.796352527272187  3.293330918047999 0.4979406489773587 1.767665040526241  3.309018620986266 0.4349023566297197 1.738897439696976  4.081640546948464 1.345659919939201 1.430598890936869  4.23050974949776 1.318620380464691 1.440013187991054  4.163335647225318 1.232107722132449 1.521832093096484  4.16137278021691 1.190854620275321 1.477309266070155  4.227838873704096 1.281717565004353 1.392448354756398  4.078280128389792 1.311203756975619 1.381906716524274  4.159221241807056 1.149627589325098 1.432832780608407  4.225001511751921 1.244841963234732 1.344910422967135  4.074739537361222 1.276773169233287 1.33326675525699  4.15699590645757 1.108434217542583 1.388395724197973  4.222110395081283 1.207991850452403 1.297407869074641  4.071134235946446 1.242371571026344 1.284677893952557  4.154778819233774 1.067270305393502 1.343995076461401  4.219240868722552 1.171162882878909 1.249940160994407  4.067544356577264 1.207998352651907 1.236138801736971  4.152647030972502 1.02613325662255 1.29963047776114  4.216466159467103 1.134349806411545 1.202507003572682  4.064054036771586 1.173657848594059 1.187652329087835  4.1507029295018 0.9850099551639796 1.255307842938965  4.213882653572034 1.097540518157281 1.155095247985158  4.060789958875551 1.139350654256149 1.139218865650837  3.933047626817647 0.895849284793385 2.125737915126262  4.06250084182857 0.9223124525139431 2.066134820512163  4.061575575361343 0.8891255688278126 2.189115044510169  4.067912079993287 0.8277560609383582 2.18143890907356  4.068343086093254 0.8629225807013235 2.050097921524667  3.937462511350494 0.8348163591037797 2.113591954256724  4.074056202413501 0.766410164002839 2.173691713536623  4.073987806583669 0.8035524905601205 2.034014241771385  3.941577425366857 0.7738097774102561 2.101356002838814  4.080126892420825 0.7051328041924751 2.165934034626506  4.079539444456548 0.7442274543147485 2.017923207631437  3.945560708851831 0.7128563922185733 2.089092501582036  4.086185598815323 0.6439289037202454 2.158193679297687  4.08506555468857 0.6849554315180271 2.001846409272345  3.949504209687744 0.6519625196380148 2.07683602579225  4.092307642106536 0.5827942693824949 2.150490897162344  4.090634922840106 0.6257375380701096 1.985793610388362  3.953507168075809 0.5911497651652579 2.064618899547127  4.09863385366883 0.5216872809342361 2.142848524317408  4.096372978230181 0.566560314549486 1.969782472431092  3.957806666276348 0.530451423102388 2.052473639747666  3.348715081288336 1.532965490217844 1.340201426245352  3.439705519800317 1.449122362668344 1.384566689628491  3.308059610106487 1.387809556802674 1.407063786990254  3.311868991427054 1.359660213565135 1.352073609780115  3.442145177079245 1.421733715671116 1.330881434151755  3.350992026096556 1.507957057366861 1.285611274548542  3.315900677416824 1.331510621713023 1.297146477930341  3.444762434473098 1.394350776013112 1.277274730675565  3.35346881675475 1.482943457892224 1.231073894412696  3.320014674135074 1.303373456839664 1.242264234142513  3.447452689384686 1.366979389084396 1.223725064434054  3.356024202921289 1.457930517596982 1.176576695890585  3.324097117095895 1.275253733354488 1.187413522863432  3.450127785180669 1.339627506582445 1.170221141234152  3.358554782379032 1.43292387133143 1.122111485664279  3.328023247147186 1.247158978137566 1.132585766377168  3.452688926986483 1.312311643422801 1.116764869578706  3.36094934847406 1.407938604783951 1.06767781849942  3.331664230860057 1.219132646005783 1.077738946017839  3.454988515954353 1.285072933649271 1.063365859321723  3.363080287034886 1.383021231337618 1.013262423999367  4.427192581385651 0.8168878521360564 1.891980002469841  4.425543638753638 0.7838006359808077 2.038832001215191  4.518890976655906 0.8055022020001731 1.980501032210702  4.419004396859291 0.8434941204383523 2.049383716645754  4.524468583631729 0.7456687042419188 1.969187871907358  4.432073091104334 0.7581273154369781 1.875411988489405  4.432069210250819 0.7241612529844519 2.028291322798891  4.530073639401902 0.6858852485762809 1.957898798848081  4.43700473600453 0.6994187925264737 1.858870849811244  4.438598960844422 0.6646006922707555 2.017782051324788  4.535756004923448 0.6261660413484598 1.946642341234806  4.442045778408275 0.6407723179805185 1.842359665243736  4.445165446467139 0.6051378882531663 2.007308987111877  4.310482048367197 1.194346404459654 1.468560619179416  4.254102643080818 1.100299904738604 1.562619915436509  4.379402895134503 1.125623084157085 1.53441029001632  4.254203839887175 1.148538482124086 1.600966615264932  4.380575705760496 1.077958016734575 1.495404717940637  4.308513491357494 1.152386023266631 1.424522751806723  4.253803846780729 1.052095725461293 1.524309313839779  4.3817094874938 1.03031381848412 1.45642177543432  4.306479167067399 1.110440013395325 1.380501142526454  4.25343981646868 1.003936058933926 1.486038292674307  4.382859624040954 0.9826893815668525 1.417463657139656  4.304461220840555 1.068508480434906 1.33650003579611  4.253089494648825 0.9558223106524465 1.447811042787605  4.3840703133411 0.9350809770954466 1.378533836028573  4.302536985218516 1.026584943528059 1.292515930355292  4.252840247730846 0.9077586286346828 1.409636878538301  4.385325782180604 0.8874671834554736 1.339631099815162  4.300808534086742 0.9846638807614674 1.248536241827538  4.252809994963342 0.8597273963405599 1.371487311704958  3.567212389403531 0.8468532829340146 2.173792412569871  3.703752688286283 0.860336621653393 2.259925771997227  3.594607238501702 0.8469055578849887 2.334883576455969  3.711197043699401 0.7974498362232665 2.26106966496767  3.577791528214281 0.782980000829101 2.168664859310205  3.603720841959586 0.7838942477983135 2.340490675477463  3.718506394106264 0.7346515157050526 2.262111106242178  3.588370273393346 0.7192022648289765 2.163478420259153  3.612825609746781 0.7209633243056661 2.346037668749796  3.725742245370517 0.6719245120726036 2.263124582053847  3.598930601184086 0.6555079172633655 2.158276006416741  3.621903152389133 0.6581180763371084 2.351567636663879  3.73293890633341 0.6092627471923049 2.264137990111582  3.609453468787016 0.5918675807583529 2.153082811641032  3.630941319481108 0.5953421404829822 2.357098876999284  3.740118018593711 0.5466951278468821 2.265167820081453  3.619903966162963 0.5282770209967778 2.147917491553247  3.639908698016319 0.5326575760000566 2.362637206459833  3.747317658546971 0.4842839364629188 2.266246216718224  3.630229438123628 0.4647727360964972 2.142798832071418  3.881121821600188 1.281564673511617 1.491038520804802  3.939874679943595 1.381746452343744 1.416574166579204  4.017183289190439 1.250366052094913 1.508123755633317  4.015263194308377 1.211300917720532 1.462031015446821  3.937034777034983 1.349834025799797 1.366739129957095  3.880279810332078 1.244886881945254 1.443359990727855  4.013166565442248 1.172288641849737 1.416010736270572  3.934063210932986 1.317956808186044 1.316986712367177  3.879320648253189 1.208257183964369 1.395750242167963  4.011001436998033 1.133325381982786 1.370056339898455  3.931042465586969 1.286111327390828 1.267301790216728  3.878314035252779 1.17167212479614 1.348208580103233  4.008842760824265 1.094406878848159 1.324159783886028
[...]
<PointData  Scalars="f_14"> 
<DataArray  type="Float64"  Name="f_14"  format="ascii">-1.8222375227474562e-13  -1.8124631614357202e-13  -1.7994343948526548e-13  1.9424773334838111e-01  1.9308906975907872e-01  1.9552688120111117e-01  3.7469507830366849e-01  3.7284122549661158e-01  3.7955791960310148e-01  5.4507741080928429e-01  5.4309038337428528e-01  5.5106158317764642e-01  7.0626195129267932e-01  7.0496037893187624e-01  7.1082071752205245e-01  8.5853874327902790e-01  8.5822178127652293e-01  8.5980250232690847e-01  1.0000000000000540e+00  1.0000000000000528e+00  1.0000000000000517e+00  -1.7930487382683155e-13  -1.7706983431310744e-13  -1.7649379763269144e-13  2.0504070706970931e-01  1.9462679756843576e-01  2.1199825963644389e-01  4.0132612657936029e-01  3.7693122030246085e-01  3.9148141138176379e-01  5.7323448467165528e-01  5.4757054192019838e-01  5.6268466720450616e-01  7.3020079393354453e-01  7.0738045941363148e-01  7.2096258463968688e-01  8.7323453902323855e-01  8.5736599037843730e-01  8.6695369936247324e-01  1.0000000000000548e+00  1.0000000000000568e+00  1.0000000000000575e+00  -1.7879069695517027e-13  2.3731359035194918e-01  4.3037027448844989e-01  6.0143638535235699e-01  7.5477069522826312e-01  8.9054073183107818e-01  1.0000000000000553e+00  -1.6282406551524199e-13  -1.5981856301289802e-13  -1.6114622504638130e-13  1.8766272893130664e-01  1.9698391687500008e-01  1.8924060961944017e-01  3.6644685492595069e-01  3.7700523820028653e-01  3.6620021431242794e-01  5.3634332523969630e-01  5.4687652151970700e-01  5.3549184296070140e-01  6.9815624204362670e-01  7.0806889787194116e-01  6.9821284944847151e-01  8.5269629096675192e-01  8.6035153275071741e-01  8.5420782956982555e-01  1.0000000000000728e+00  1.0000000000000742e+00  1.0000000000000713e+00  -1.6522754938237143e-13  -1.6267407527675258e-13  -1.6256772001995032e-13  2.1621140901388322e-01  1.8689977702478908e-01  1.9015106746840474e-01  4.0140085123694313e-01  3.6578014222570593e-01  3.6891661058449787e-01  5.7151263733384461e-01  5.3550410260745318e-01  5.3840790418143603e-01  7.2985916136091789e-01  6.9679057061124283e-01  6.9972171841916297e-01  8.7531725100848812e-01  8.5088388144212967e-01  8.5377528775314115e-01  1.0000000000000713e+00  1.0000000000000713e+00  1.0000000000000686e+00  -1.7690935247307043e-13  -1.7516710566369100e-13  -1.7758633762693280e-13  1.7881409834692685e-01  1.7232471860567569e-01  1.7246542879311783e-01  3.5113958042588622e-01  3.4194627532338695e-01  3.4179573884827535e-01  5.1925031407986799e-01  5.0926127551625411e-01  5.0895554071959037e-01  6.8365726881718614e-01  6.7453600677677639e-01  6.7428221109877462e-01  8.4432456176129889e-01  8.3808534583708583e-01  8.3794715010354948e-01  1.0000000000000564e+00  1.0000000000000588e+00  1.0000000000000571e+00  5.3257315886279577e-01  5.2987947321366202e-01  5.2661186203706911e-01  3.6125163170186803e-01  6.8952541947710755e-01  6.9485592265898899e-01  6.9283521463940001e-01  8.4710787877636284e-01  8.5083304039533036e-01  8.5042469292835188e-01  1.0000000000000802e+00  1.0000000000000784e+00  1.0000000000000784e+00  1.9056620469965430e-01  2.0593843675930548e-01  2.0577860490771305e-01  -1.5926012946383609e-13  3.8874387283263179e-01  3.7136439471221333e-01  3.8907890999325440e-01  5.5900400817265039e-01  5.4166748729699066e-01  5.5933498688067107e-01  7.1848343024542760e-01  7.0231439258244421e-01  7.1911427812551199e-01  8.6743924786191473e-01  8.5435628857594781e-01  8.6802809406486636e-01  1.0000000000000773e+00  1.0000000000000759e+00  1.0000000000000748e+00  -1.7202596975411923e-13  -1.6940243118083354e-13  -1.7131727625274864e-13  1.8712975328312179e-01  1.8227125037639766e-01  1.9301231556294685e-01  3.6426964671372430e-01  3.5999348171655615e-01  3.7176643324864289e-01  5.3338373470379696e-01  5.2949697090243597e-01  5.4122522057358791e-01  6.9545711716176239e-01  6.9130571710076105e-01  7.0309144944897417e-01  8.5132519547215724e-01  8.4689104075107113e-01  8.5713401523701771e-01  1.0000000000000644e+00  1.0000000000000617e+00  -1.6674299666149730e-13  -1.6563546129888356e-13  -1.6406385211561237e-13  1.8993296451586433e-01  1.8166806906694802e-01  1.7941143573285845e-01  3.6707038180225671e-01  3.5523741023711208e-01  3.5343327985877326e-01  5.3615637837884111e-01  5.2348261104836635e-01  5.2190098314040556e-01  6.9839554215178512e-01  6.8716988665180456e-01  6.8529742169246111e-01  8.5390919051632241e-01  8.4631400427417902e-01  8.4435832798820132e-01  1.0000000000000699e+00  1.0000000000000684e+00  1.0000000000000673e+00  -1.8330429952653350e-13  2.0568039834111410e-01  3.8859475525839932e-01  5.5947219260005643e-01  7.1949877078412061e-01  8.6856190989279769e-01  1.0000000000000506e+00  -1.6964592681573845e-13  -1.6975438659207261e-13  -1.6770322455072382e-13  1.7043315904978779e-01  1.6413593157687670e-01  1.6656734308693555e-01  3.3807982822891935e-01  3.2959412103322261e-01  3.3373967105004626e-01  5.0457721774585451e-01  4.9525371040744692e-01  5.0005127399102800e-01  6.7037007715620878e-01  6.6137398231781075e-01  6.6560752199334228e-01  8.3572549978719968e-01  8.2876287478390764e-01  8.3117751427554953e-01  1.0000000000000662e+00  1.0000000000000642e+00  1.0000000000000644e+00  -1.7831339095124693e-13  1.8466851979728074e-01  3.6128326199976157e-01  5.3074280870872270e-01  6.9355460945712410e-01  8.5007325791624622e-01  1.0000000000000557e+00  -1.7485705784279205e-13  1.9979213388762243e-01  3.8068783364597786e-01  5.5068663078747537e-01  7.1126458607260856e-01  8.6275099594098170e-01  1.0000000000000591e+00  -1.7948184608809750e-13  1.8221787485591101e-01  3.5746892200441222e-01  5.2666236194066163e-01  6.9015166342865331e-01  8.4810341616699481e-01  1.0000000000000544e+00  -1.6508620641059632e-13  1.9685494656021704e-01  3.7766874892505486e-01  5.4748736200383197e-01  7.0798341486380545e-01  8.5958445767340463e-01  1.0000000000000686e+00  -1.6543418639181146e-13  1.8765886712658786e-01  3.6516470669495465e-01  5.3440108427169397e-01  6.9647102144571238e-01  8.5187777776649076e-01  1.0000000000000686e+00  -1.8400723786254397e-13  -1.8423103014790210e-13  -1.8215181044457798e-13  2.2565396397315948e-01  2.2917722908907653e-01  2.2553455116117879e-01  4.2270065321207095e-01  4.2058847583439352e-01  4.1857706375411435e-01  5.9430018570716714e-01  5.9270267639542118e-01  5.9042940828759516e-01  7.4455144280575580e-01  7.4790709783101905e-01  7.4563492170997248e-01  8.8158945752839624e-01  8.8463007710283581e-01  8.8216911466104020e-01  1.0000000000000500e+00  1.0000000000000497e+00  1.0000000000000520e+00  1.9208346648909252e-01  1.8528377448482269e-01  3.7329702734506642e-01  3.6432060201645289e-01  5.4356298157820915e-01  5.3419524643387295e-01  7.0392480888766173e-01  6.9541706895231403e-01  8.5564940442258219e-01  8.4923336552886552e-01  1.0000000000000773e+00  1.0000000000000755e+00  -1.7181946680087800e-13  -1.6921137879676449e-13  -1.7074635954239166e-13  1.9409481051059072e-01  1.9560151888309726e-01  1.9148268865042015e-01  3.6896043459429140e-01  3.7368524011149989e-01  3.7212741348655209e-01  5.3818259502284072e-01  5.4272122326169991e-01  5.4114174904745904e-01  7.0457978021343937e-01  7.0050633085750580e-01  7.0281627120362000e-01  8.5592713596262460e-01  8.5875154352799499e-01  8.5743222941619968e-01  1.0000000000000620e+00  1.0000000000000646e+00  1.0000000000000631e+00  -1.6729307621576804e-13  1.9287265451577290e-01  3.7110916760644858e-01  5.4037242414501174e-01  7.0183367975840116e-01  8.5590884308558701e-01  1.0000000000000666e+00  -1.7905838718624099e-13  1.7482645398747521e-01  3.4598431963921050e-01  5.1385066220370468e-01  6.7864351878983431e-01  8.4058337916228210e-01  1.0000000000000548e+00  -1.5792928448567782e-13  -1.5578253766143736e-13  -1.5576060429913358e-13  1.8318458925161718e-01  1.8670963564831014e-01  3.6349829632859543e-01  3.5877905033775620e-01  5.2767763796547473e-01  6.9035922969664176e-01  8.4749466550213803e-01  1.0000000000000762e+00  -1.8262940968071974e-13  1.8450571841977498e-01  3.6123060144816077e-01  5.3101922881042385e-01  6.9420694050630172e-01  8.5097984576061814e-01  1.0000000000000513e+00  -1.5814654320224963e-13  -1.8081057735509291e-13  1.7731266034431895e-01  3.5042988885336313e-01  5.1902437964956194e-01  6.8308591029902144e-01  8.4302928185580783e-01  1.0000000000000531e+00  -1.7416141289720880e-13  2.0123455477525554e-01  3.8233305757146790e-01  5.5226930859357615e-01  7.1271370907254727e-01  8.6349511986788685e-01  1.0000000000000597e+00  -1.7553198286694291e-13  -1.7343789880742055e-13  -1.7469649397290806e-13  1.9382316251658460e-01  1.8261815458860425e-01  1.8195089724954233e-01  3.7249461333734191e-01  3.5813306339076045e-01  3.5676621035792783e-01  5.4197684589144179e-01  5.2703760381116604e-01  5.2559160561703311e-01  7.0367566864777675e-01  6.9009527864093090e-01  6.8882654526795206e-01  8.5742526438162192e-01  8.4781424011484163e-01  8.4680202184782127e-01  1.0000000000000593e+00  1.0000000000000604e+00  1.0000000000000584e+00  -1.8441528231324257e-13  -1.8468511929637855e-13  -1.8230388100922073e-13  2.2943654297105637e-01  -1.8275650355985368e-13  -1.8245618176830179e-13  -1.8060418676606608e-13  1.6928700446097636e-01  1.7096745132830143e-01  1.7627468584254855e-01  3.3781773224797784e-01  3.3920808078272158e-01  3.4752968994342143e-01  5.0476976299027965e-01  5.0607672394877556e-01  5.1548862003978091e-01  6.7025897924984945e-01  6.8054038723506183e-01  -1.6372062999125385e-13  -1.6250247675794013e-13  -1.6117447221874369e-13  1.7425197802821210e-01  1.7835917422858977e-01  1.8475114170054943e-01  3.6084511132398928e-01  3.5059280741693594e-01  3.4659962911254782e-01  5.3007069240200522e-01  5.1875153767168880e-01  5.1475283679946582e-01  6.9317262254502354e-01  6.8331036503180664e-01  6.7879042134896650e-01  8.5029273037304065e-01  8.4426839015060706e-01  8.3938983756078811e-01  1.0000000000000728e+00  1.0000000000000715e+00  1.0000000000000704e+00  -1.7141762963261001e-13  1.7086461514482226e-01  3.3812278113525929e-01  5.0463752936233308e-01  6.7087683051094160e-01  8.3695889581860083e-01  1.0000000000000626e+00  -1.6801341104679811e-13  1.8630276035574567e-01  3.6134184333398456e-01  5.2985840824184449e-01  6.9279529208222890e-01  8.5068696298797120e-01  1.0000000000000659e+00  -1.8038389941039947e-13  -1.8099516867771941e-13  2.3221515036905391e-01  2.3780404988232651e-01  4.2793403612520803e-01  4.3468987817983024e-01  5.9956033809151499e-01  6.0615430419390082e-01  7.5170377187601045e-01  7.5721752587705382e-01  8.8593562578504259e-01  8.8939038696576722e-01  1.0000000000000528e+00  1.0000000000000535e+00  -1.7303849061200793e-13  1.8000798063471968e-01  3.5667493354805763e-01  5.2582720863300381e-01  6.8785457362367297e-01  8.4408675570801861e-01  1.0000000000000608e+00  -1.6773720638760203e-13  1.8054049048197324e-01  3.5680739838688497e-01  5.2580655944345056e-01  6.8797848360515357e-01  8.4479079429047776e-01  1.0000000000000662e+00  -1.7390236657119036e-13  1.8795014297668736e-01  3.6564958551199461e-01  -1.7304107570362339e-13  1.6642342403909330e-01  3.3264394001833580e-01  4.9870772641527278e-01  6.6493642654663931e-01  -1.7360720024567194e-13  -1.7127849799916238e-13  -1.7086955603764683e-13  1.8993058886807301e-01  1.9745859072250724e-01  1.8838922143658990e-01  3.6885642054488005e-01  3.7622902918664691e-01  3.6796583385170767e-01  5.3827262277527688e-01  5.4552465494790014e-01  5.3783754461381084e-01  6.9974425807813367e-01  7.0694606793877623e-01  6.9879990914264878e-01  8.5378177811475442e-01  8.6057659867298597e-01  8.5191965313331242e-01  1.0000000000000628e+00  1.0000000000000626e+00  1.0000000000000604e+00  -1.7680290048245862e-13  1.8935911699475486e-01  3.6717229554897157e-01  5.3675503814225589e-01  6.9887660012307806e-01  8.5372620238956498e-01  1.0000000000000571e+00  -1.6140767186377226e-13  -1.5848788733545008e-13  1.9483886563829117e-01  3.7484038275810538e-01  5.4471706642652340e-01  7.0575700305709044e-01  8.5829890107269291e-01  1.0000000000000726e+00  -1.7316379526638969e-13  1.9895257343234707e-01  3.7884697259624633e-01  5.4855212234059492e-01  7.0942588680650420e-01  8.6187188195270537e-01  1.0000000000000606e+00  -1.8449155835806176e-13  1.9302032622089074e-01  3.7356299216985328e-01  5.4415965394536714e-01  7.0557194554838010e-01  8.5795496518177672e-01  1.0000000000000495e+00  -1.5811739393318097e-13  1.7750009655694052e-01  3.5267714309303771e-01  5.2162620651627833e-01  6.8431541256268935e-01  8.4215626265510291e-01  1.0000000000000762e+00  -1.6743626561348905e-13  -1.6428153262812214e-13  2.0676936695519751e-01  1.8632485696445883e-01  3.6328074226541140e-01  3.8769834806087616e-01  5.3224702786767686e-01  5.5722083292625157e-01  7.1763985902275151e-01  6.9425753583334249e-01  8.6802765943302596e-01  8.4996330660334896e-01  1.0000000000000697e+00  1.0000000000000664e+00  -1.7514588278997641e-13  -1.7258898821311531e-13  1.8680615353791852e-01  1.9413101095036250e-01  3.6485566649056023e-01  3.7387086403042130e-01  5.3426602537976275e-01  5.4374312446486872e-01  6.9602747361469952e-01  7.0501939739610986e-01  8.5102385922159340e-01  8.5817723345580710e-01  1.0000000000000613e+00  1.0000000000000588e+00  -1.8253919435879472e-13  2.4433681696401932e-01  4.4009366956580526e-01  6.1082579368413947e-01  7.6128224860516658e-01  8.9301808301723085e-01  1.0000000000000513e+00  -1.6626489663036036e-13  1.8985699419316998e-01  3.6746191217171142e-01  5.3650017956075557e-01  6.9825965153642877e-01  8.5333673178085023e-01  1.0000000000000677e+00  3.8214406211960394e-01  5.5257202440851427e-01  7.1248278614363669e-01  8.6224106579329218e-01  1.0000000000000724e+00  -1.7612286861725942e-13  1.8667870336681530e-01  3.6738680124623069e-01  5.3801835985677626e-01  -1.7497644205450986e-13  1.9078510197323628e-01  3.7298818302302816e-01  5.4371495328902564e-01  7.0390034617749120e-01  8.5495422806237087e-01  1.0000000000000591e+00  -1.6895123783948041e-13  1.8866941829180425e-01  3.6620921134306234e-01  5.3527282075450222e-01  6.9699950964384283e-01  8.5190697932945891e-01  1.0000000000000648e+00  -1.7843055708807835e-13  1.9097640821952588e-01  3.7187075298480610e-01  5.4236070026212890e-01  7.0335574490923725e-01  8.5573231767188485e-01  1.0000000000000555e+00  -1.8514659512802042e-13  2.0424347688743746e-01  3.9066422494994302e-01  5.6236749306925271e-01  7.2093279524905240e-01  8.6706485759960539e-01  1.0000000000000488e+00  -1.8423581618845655e-13  2.1741312445751976e-01  4.0719236965287342e-01  5.7902554138030349e-01  7.3551104862878935e-01  1.0000000000000497e+00  8.6718513624111593e-01  8.5721825416850239e-01  1.0000000000000788e+00  1.0000000000000795e+00  -1.5993951541347344e-13  1.9065408992857333e-01  3.6872920856538982e-01  5.3822904897322155e-01  7.0017932512320913e-01  8.5493829452571102e-01  1.0000000000000742e+00  -1.6966055119691482e-13  1.9999382955655251e-01  3.7845478298707441e-01  5.4750849404505331e-01  7.0875397662596584e-01  8.6204587309797742e-01  1.0000000000000642e+00  -1.6225668222929426e-13  -1.6027634627058079e-13  -1.5895066598317418e-13  1.8405242993032031e-01  1.9447505713458932e-01  1.9599599259650516e-01  3.6122065340891213e-01  3.7397330545537161e-01  3.7532790644212372e-01  5.3062828263600859e-01  5.4375091393284214e-01  5.4485425003395149e-01  6.9285904922391650e-01  7.0512907203276676e-01  7.0615691957447813e-01  8.4889569648839269e-01  8.5823742721924079e-01  8.5918447331807379e-01  1.0000000000000751e+00  1.0000000000000737e+00  1.0000000000000717e+00  -1.6086147930399180e-13  1.8617810436455234e-01  3.6384689449229485e-01  5.3338870580982167e-01  6.9550625845512182e-01  8.5099228598161925e-01  1.0000000000000733e+00  -1.6591679085151766e-13  -1.6424039550027433e-13  1.9999286915429035e-01  1.8382608012843701e-01  3.7989588411059072e-01  3.6079905326244710e-01  5.4935049159818428e-01  5.2997319228036377e-01  7.1030530609524789e-01  6.9198592223457522e-01  8.6229285343785900e-01  8.4807130103834305e-01  1.0000000000000697e+00  1.0000000000000679e+00  4.2488981214583077e-01  5.9663596682542308e-01  7.4899768318216986e-01  8.8391749104208284e-01  1.0000000000000515e+00  -1.6795934323970898e-13  -1.6513482210483199e-13  -1.6702998619416408e-13  1.9623136738901659e-01  1.7927092676148490e-01  1.7826645121660104e-01  3.5367602713757601e-01  3.5522447471204516e-01  3.7447202217436731e-01  5.2250734172086521e-01  5.2421537765848081e-01  5.4360235259124234e-01  6.8504689575157041e-01  6.8650247182069779e-01  7.0522864089365778e-01  8.4280923734029978e-01  8.4358808512819994e-01  8.5915248046356940e-01  1.0000000000000659e+00  1.0000000000000688e+00  1.0000000000000668e+00  -1.6063976639849241e-13  2.0288235281141784e-01  3.8406322211416616e-01  5.5395745147346076e-01  7.1445239233853275e-01  8.6530337315784012e-01  1.0000000000000735e+00  -1.6267227688683922e-13  1.8684655885158344e-01  3.6571156646754832e-01  5.3547441628374448e-01  6.9694517379802812e-01  8.5097611725203071e-01  1.0000000000000713e+00  -1.7723408222044661e-13  1.8073391367331598e-01  3.5456655493910721e-01  5.2314188759132751e-01  6.8689264788539472e-01  8.4613447201902525e-01  1.0000000000000568e+00  -1.8116630558342795e-13  -1.8086689292292626e-13  -1.8320761454048758e-13  2.1435260986944105e-01  2.1609826452746619e-01  2.1566948916835457e-01  4.0305029892208033e-01  4.0787760687018471e-01  5.7998972998960419e-01  5.7465974012000798e-01  5.7871938922234578e-01  7.3147551382392029e-01  7.3510337412430038e-01  7.3424168181936944e-01  8.7431268895326508e-01  8.7513452872755548e-01  1.9862975836323651e-01  3.8021468565630717e-01  5.5036849360944495e-01  7.1096396883498425e-01  8.6215071554558065e-01  1.0000000000000742e+00  -1.7872466425183579e-13  1.7309209451634586e-01  3.4264288108952856e-01  5.0993416005323744e-01  6.7538738731732462e-01  8.3908421192044935e-01  1.0000000000000553e+00  -1.8088714327046851e-13  1.7854330455144410e-01  3.5032289873037709e-01  5.1832835516024112e-01  6.8305734558833675e-01  8.3474936618705109e-01  8.4432099049308618e-01  1.0000000000000533e+00  1.0000000000000531e+00  -1.7537047924047372e-13  1.7487703993994030e-01  3.4675942058976889e-01  5.1476895759873631e-01  6.7921148455787705e-01  8.4055188723543117e-01  1.0000000000000586e+00  -1.6325348345270112e-13  1.8064009829344482e-01  3.5741596587889352e-01  5.2658363627380733e-01  6.8854036019738996e-01  8.4494888871872653e-01  1.0000000000000706e+00  -1.8250095669751726e-13  -1.8056804074677275e-13  2.0267424688252855e-01  2.1170356145241440e-01  3.9038201820417695e-01  4.0144915229006978e-01  5.6242791292833905e-01  5.7351622359505361e-01  7.2026777870537717e-01  7.3035825574533120e-01  8.6546268850050856e-01  8.7309399745899230e-01  1.0000000000000535e+00  1.0000000000000515e+00  3.6081789749689297e-01  3.7576269594900596e-01  1.9610857748375879e-01  5.3055771044932298e-01  5.4540469858188689e-01  6.9241008549421645e-01  7.0655988419108784e-01  8.4758064584880621e-01  8.5934444865248416e-01  1.0000000000000799e+00  1.0000000000000768e+00  -1.7686119015321978e-13  2.1287159916842541e-01  3.9970903822787329e-01  5.7083788255401402e-01  6.9890039803761661e-01  7.2856068057460432e-01  8.5153946430755967e-01  8.7321829006045260e-01  1.0000000000000577e+00  1.0000000000000571e+00  -1.7420364801136682e-13  1.6822609584849274e-01  3.3563326245057518e-01  5.0214195754030166e-01  6.6789064121570763e-01  8.3331904699231696e-01  -1.6580764814163489e-13  -1.6768506951123017e-13  1.7154547257474562e-01  1.7569044193527972e-01  3.4139717100671896e-01  3.4596605520889173e-01  5.0865913610197955e-01  5.1331132590657536e-01  6.7363111835728717e-01  6.7825834517758565e-01  8.3690864498042739e-01  8.4090813529725206e-01  1.0000000000000664e+00  1.0000000000000682e+00  8.3419764553125753e-01  8.3419948167122349e-01  1.0000000000000564e+00  -1.8296292720963522e-13  -1.7010540194232402e-13  -1.6944141482667462e-13  1.8384754389153413e-01  1.7299011778147730e-01  3.5774697403327088e-01  3.4614497633260322e-0