<?xml version="1.0"?>
<VTKFile type="UnstructuredGrid"  version="0.1"  >
<UnstructuredGrid>
<Piece  NumberOfPoints="1020" NumberOfCells="4418">
<Points>
<DataArray  type="Float64"  NumberOfComponents="3"  format="ascii">2.957001636327565 3.331464299290024 0.8767269349677969  3.000783051010208 3.203750655107275 0.8586236765208732  2.848678121822029 3.232114494871337 0.8452472430537005  2.857653399636142 3.246843115139344 0.7637935884590156  3.008495329447965 3.217730855008415 0.7779449422406489  2.966693089353639 3.357122527119087 0.7969178277083777  3.016318687133043 3.231583663261269 0.697305292967204  2.97646910383617 3.382677897146618 0.7171308110907721  2.86674365385331 3.261471793296028 0.6823814850302772  3.024186229212587 3.245349515690334 0.616716279312635  2.986264668262604 3.408172793999967 0.6373837911253138  2.875863346783012 3.276039587134662 0.6009982413899518  3.032032370221103 3.259059408714159 0.5361692109227219  2.996025743456513 3.433630544943798 0.5576667999905613  2.884955814270927 3.290574848554593 0.5196398368130033  2.893988823529623 3.305078871276485 0.4382831891948534  3.039802890805909 3.272749808800531 0.4556526946537864  3.005731862640629 3.459059125448225 0.477956497781009  2.902965431132187 3.319562493550493 0.356894677791182  3.047469798035703 3.286451828473374 0.3751288311689135  3.015389660924009 3.484455570802974 0.3982183808653313  3.179214107900854 3.03617855153557 0.8528137542545382  3.278440755230003 3.169005856729401 0.8615816796601879  3.307547427420377 3.045302268486585 0.8440821367485494  3.300543182469791 3.050541679021938 0.7649890185403561  3.274495043251769 3.183290791309249 0.7815071365073698  3.179087127441906 3.039508770332678 0.7737493498578153  3.293651420504612 3.055648528355261 0.6860146343733233  3.270709358430306 3.197427649178184 0.7014940657473254  3.179068295387259 3.042681275405387 0.694761164634993  3.286826154306355 3.060629903296842 0.6071314051693989  3.266989047819271 3.211445226513176 0.6215611611213063  3.179119934725088 3.045740701091636 0.615849849792793  3.280036412508429 3.065563869736264 0.5283139387549678  3.263255724843749 3.225376329506217 0.541695067250479  3.179210633050573 3.048753534937278 0.5369925316448753  3.273209398172618 3.07049467647006 0.4495526378181295  3.259455795527118 3.239276840710881 0.4618747065386433  3.179265274461393 3.051756441736649 0.458180046726125  3.266273750766088 3.075467507039201 0.3708576807786728  3.255515279679896 3.253211069252856 0.3820969109535029  3.1791532223454 3.054785109149623 0.3794269044351742  2.573948854758965 3.603525721673367 0.9896083884241657  2.661596166966952 3.70706529106924 1.100160066950673  2.734125521392809 3.614527079647563 1.019116253810849  2.741292019952726 3.673877669412157 0.9575022781892061  2.66816754194622 3.772132982787244 1.045362645588486  2.58001795820155 3.659237835802264 0.92500656823599  2.674757333452036 3.837220520205572 0.9906020536582455  2.586104785382333 3.714978738960895 0.8604261087361054  2.748488416056998 3.733234405993048 0.8959237419042076  2.681376409065393 3.902292354169867 0.9358243221355843  2.592207350759732 3.770709227081752 0.7958298978447852  2.75570486521274 3.792578675254782 0.8343475345539069  2.687991516917423 3.96734833820146 0.8810134527533285  2.598312631686386 3.826418908466527 0.7311958300664213  2.7629237377599 3.851897810914452 0.7727444114793609  2.694565115958364 4.032391696809924 0.8261534507941974  2.604392736151734 3.882112791236356 0.6665103921690444  2.770114375004584 3.911187142146747 0.711101453398117  2.701058425590654 4.097422707953821 0.7712287526996364  2.610388746040901 3.937799566032052 0.6017627969637567  2.777238856797811 3.970438179702756 0.6494178561871604  2.542116427993332 3.005293433471897 0.804925745310703  2.686165934355897 2.95470857258614 0.8194821543002921  2.592735726966057 2.868687383456193 0.820172682528268  2.597082943383878 2.855099358098035 0.7434900698070946  2.691612761764322 2.948955439519786 0.7406696470838889  2.548109162980375 3.0001671555838 0.7250488582192478  2.554201336598476 2.995002801738392 0.6451685897403886  2.697192253813117 2.943151885448774 0.6618666623993925  2.601539341657705 2.841474196076519 0.6668132593609976  2.560337392716307 2.989818087714738 0.5652817527595129  2.702829498106638 2.937316647511996 0.5830730705873266  2.606038012705068 2.827825086667584 0.5901465285543023  2.566475826221459 2.984609672695038 0.4853864211059324  2.70846170622523 2.931467615583265 0.5042867848359569  2.610529708704795 2.814157887503261 0.5134855717446914  2.614981241621973 2.800458161733081 0.4368224269558254  2.714046827421115 2.925599325863438 0.4254979723462211  2.572586771782732 2.979367562140797 0.4054688856554479  2.61936227896052 2.786716924298234 0.3601404431295215  2.719547442187174 2.919696136804033 0.3466855159553062  2.578637439656131 2.97407792433878 0.3255179385113581  2.901445569454301 3.451498730769702 0.9268714878165617  2.802931475036309 3.350017311218497 0.8661165391699234  2.811694316855128 3.378584919351408 0.7865610980989155  2.911517939962289 3.488360396435851 0.8505462264014521  2.820547625696001 3.407082528230382 0.7070307614651639  2.921659570641957 3.525151027793939 0.7742441228645163  2.829414494376054 3.435545108037739 0.6275231943485352  2.931802633654304 3.561899191328754 0.6979717626824322  2.838260688803335 3.463976275541941 0.5480230834590482  2.941925412380634 3.598606927219374 0.6217076626998532  2.847072617622363 3.492369869112246 0.4685051527922555  2.952018960398575 3.635277063421886 0.5454287368380704  2.855833770822368 3.520717776795963 0.3889548789974635  2.962084360234567 3.671910869504906 0.4691263060347586  3.293692565451235 2.927590962353801 0.8407610859497247  3.394720682955727 2.851849901291966 0.845489989719323  3.270176649715034 2.795052701267756 0.8661642120184279  3.266628202651244 2.780628283820695 0.7930836143832095  3.389219650933562 2.840140625727656 0.7704321027653407  3.28890557653737 2.922728585236655 0.7634755105724147  3.263178035791628 2.766137958132169 0.7201199448634495  3.383787030343434 2.828349520669732 0.6955020927347897  3.284189957437077 2.917743274285037 0.6863135649017182  3.259810764544264 2.751604375995139 0.6472648908544701  3.378443856868513 2.81651810152222 0.620690455555829  3.279570601316932 2.912693875381575 0.6092447459975742  3.256472110445849 2.737044490207458 0.5744973046699285  3.373132317252573 2.804660699198003 0.5459766548915991  3.274988213606887 2.907607260378443 0.5322508341587235  3.253091844800758 2.722485899009148 0.5018069728421301  3.367785810226914 2.792809385673467 0.4713548646789337  3.270360086352559 2.902524416843733 0.4553354209072567  3.249608569750634 2.707970883277991 0.429191071272443  3.36236361476128 2.781007660342954 0.3968116202714431  3.265626875234735 2.897494909683828 0.3785044980129631  2.93422248174319 2.8144810387701 0.8552243223230117  2.948279754414577 2.962251065999844 0.8390889022246154  3.056526270064895 2.849641053571059 0.8571012579842974  3.058986503275746 2.837731452774838 0.7821090956679305  2.954450067213738 2.956944039560175 0.761007523744898  2.939303657046851 2.79979263557812 0.78107654382325  3.06159654502813 2.825753367358871 0.7071908537896656  2.960757608837134 2.951526522388404 0.6829833238174864  2.94455580559154 2.785033124340665 0.7069876609718385  3.064309962648716 2.813710741698061 0.6323388796569789  2.967157939943943 2.946055316548467 0.6050024635543629  2.949894918304975 2.770227197795933 0.6329537609843983  3.067043546528907 2.801636058739057 0.5575478262983415  2.973570457453079 2.94055524131775 0.5270605737482754  2.955235830106217 2.755397759213162 0.5589725420375198  3.069704949598969 2.789557703827653 0.4828150615063349  2.979912144986157 2.935047000425173 0.4491524548075777  2.960488457063422 2.740564243864346 0.4850409786942974  3.072169171354697 2.777509266668471 0.4081280080624444  2.986086255977259 2.929562167490126 0.3712539220466072  2.96553794227571 2.725744018273608 0.411136471447327  3.330783383374958 2.122041728024408 1.108579997867051  3.300552942699741 2.270622312990229 1.049289299535241  3.427695613498731 2.262237779753202 1.046191208901116  3.423597084532243 2.238048654430592 0.9885679366834934  3.297706522627931 2.246483971508183 0.9912942630397066  3.328511951557188 2.099845146547191 1.052260616178745  3.4195565506985 2.213885317179087 0.9310003874300817  3.29494674844546 2.222382579889587 0.9333523592215506  3.326325244338597 2.077679457691201 0.9959727099334545  3.415533584823503 2.189750547326644 0.8734854404440318  3.292222133403299 2.198304792544338 0.8754604866557719  3.324180232899009 2.055528882610119 0.9397209858293259  3.411504643732318 2.165625793607625 0.8160281856538857  3.289492128810087 2.174232199908779 0.8176255381579589  3.322033398205594 2.03337842514701 0.8835131600950553  3.407442531086926 2.141491753355861 0.7586444289436555  3.28670706694956 2.150148971204795 0.7598670847621286  3.319833028784898 2.011213282712299 0.827364739588503  3.403315843837199 2.117321556237978 0.7013743990859553  3.283806569237787 2.126028173007174 0.7022273997115612  3.317509750094108 1.989008651531841 0.7713115300873361  2.971606608172654 3.554445968760059 0.9878310484940392  3.133624974694714 3.504196640444869 0.9874722643599971  3.041716989624162 3.415356625286794 0.9269781216320283  3.051321482280003 3.452039682231114 0.8512180670226044  3.142209644731321 3.548655617201431 0.9153294571120886  2.982135395871843 3.604886913563755 0.9188033259714944  3.061008412196625 3.488620567824655 0.7755042336797274  3.150885404951747 3.593009600126321 0.8432379467709175  2.992697125577122 3.655272902502797 0.8498196470283206  3.070713134025941 3.525136648651499 0.6998309763752362  3.15956450053562 3.637290019680254 0.7711993518778295  3.003247076912602 3.705620964657691 0.7808784647975839  3.08038778842804 3.561608495772992 0.624192045947434  3.168210606204032 3.681511545033207 0.6991951773650197  3.013783958498211 3.755923857583185 0.71193721
[...]
<PointData  Scalars="f_14"> 
<DataArray  type="Float64"  Name="f_14"  format="ascii">-1.8485562803451246e-13  -1.8401668163139626e-13  -1.8692380209733214e-13  1.9926806648572404e-01  1.8776700955343600e-01  2.1156775883047721e-01  3.6850188306282672e-01  3.9651142988422500e-01  3.8360277347164362e-01  5.3861614233995170e-01  5.6680217973130109e-01  5.5451579439729359e-01  6.9903887561282241e-01  7.2501352234802041e-01  7.1362339398216168e-01  8.6207872808520136e-01  8.5137349995115374e-01  8.7158668233083469e-01  1.0000000000000473e+00  1.0000000000000502e+00  1.0000000000000493e+00  -1.8075684595243273e-13  -1.7896469045302364e-13  -1.7844475167944333e-13  1.8977664811604322e-01  1.8902705442745471e-01  1.7619028608508269e-01  3.6857952308726083e-01  3.6853140624530828e-01  3.5166907011342891e-01  5.3759582096408154e-01  5.3782961868245538e-01  5.2041483364826335e-01  6.9822869089490514e-01  6.9821870970278288e-01  6.8226253020528038e-01  8.5229665164206836e-01  8.5129950288768996e-01  8.3882770512844296e-01  1.0000000000000553e+00  1.0000000000000548e+00  1.0000000000000533e+00  -1.9219002578840150e-13  -1.9046090800293940e-13  -1.8912708735171531e-13  2.0108099624863110e-01  2.0706715925153119e-01  2.0337139930949821e-01  3.9172907627078329e-01  3.8930540551798154e-01  3.8803716619454176e-01  5.6250330395655856e-01  5.6025468662056965e-01  5.5949240799869826e-01  7.2142707154795793e-01  7.1841257826950866e-01  7.1741086806336951e-01  8.6886713828029316e-01  8.6518766483094289e-01  8.6349213114514378e-01  1.0000000000000437e+00  1.0000000000000417e+00  1.0000000000000449e+00  -1.9279771939877884e-13  -1.9003305090897405e-13  -1.9181688637431917e-13  2.0097561782448814e-01  1.9205400983834039e-01  1.9451253467644131e-01  3.7717066576131286e-01  3.7424239400465104e-01  3.8323329058701011e-01  5.4813650228687294e-01  5.4489874621821688e-01  5.5378071869528356e-01  7.0837103065974671e-01  7.0503969699322355e-01  7.1420991833912895e-01  8.6438197050692089e-01  8.5564374721570891e-01  8.5880459535554321e-01  1.0000000000000422e+00  1.0000000000000440e+00  1.0000000000000413e+00  -1.8590515630449718e-13  -1.8782852194552651e-13  2.1383158971524660e-01  2.0115121631751526e-01  4.0088640622958988e-01  3.8814896929538883e-01  5.7170297028589689e-01  5.5944078708901868e-01  7.2878308710444362e-01  7.1713396186704104e-01  8.7289406155637084e-01  8.6306144618061897e-01  1.0000000000000462e+00  1.0000000000000482e+00  -1.7863682431469734e-13  -1.7668616015173676e-13  -1.7902253994458491e-13  1.7858086704303056e-01  1.9047698016205764e-01  1.9700269297061848e-01  3.5369852496285198e-01  3.6941512487216216e-01  3.7582099769983085e-01  5.2257643199873161e-01  5.3932702544596345e-01  5.4497166761860305e-01  6.8556034293495716e-01  7.0128805309701214e-01  7.0624994360958959e-01  8.4365862763521415e-01  8.5559398477440740e-01  8.5972535964641550e-01  1.0000000000000551e+00  1.0000000000000573e+00  1.0000000000000553e+00  -1.8524093194021321e-13  -1.8499461457386321e-13  -1.8297267526183892e-13  1.8365098501689286e-01  1.8793848134703642e-01  1.8977121633183078e-01  3.5912098354969491e-01  3.6677517676226346e-01  3.6734163125159397e-01  5.2804666242333531e-01  5.3653508554957208e-01  5.3687464111564054e-01  6.9088364249363976e-01  6.9820651379637699e-01  6.9928534948186361e-01  8.4830187125487588e-01  8.5250170558119631e-01  8.5457187650802191e-01  1.0000000000000511e+00  1.0000000000000491e+00  1.0000000000000488e+00  -1.7759639180213759e-13  -1.7824336076856212e-13  -1.7584357899789500e-13  1.5955259237819844e-01  1.6124558288714469e-01  1.5903626281133232e-01  3.2265776205614410e-01  3.2440750285264897e-01  3.2108885151703703e-01  4.8781607834815766e-01  4.8953751717406424e-01  4.8558014759635709e-01  6.5498373409551180e-01  6.5683914497076989e-01  6.5277479359488422e-01  8.2471046831482597e-01  8.2674254484795462e-01  8.2350516023079423e-01  1.0000000000000582e+00  1.0000000000000557e+00  1.0000000000000564e+00  -1.8456438393476097e-13  -1.8146882002564292e-13  -1.8321932049611396e-13  1.9739275476581603e-01  1.9757778773711651e-01  2.2199872578392013e-01  3.8142504181526232e-01  3.8178564894866346e-01  4.1011116158316552e-01  5.5194245100465888e-01  5.5238674110495123e-01  5.8057116270358911e-01  7.1072036339035305e-01  7.1111196346630789e-01  7.3695217294400539e-01  8.5958529700922326e-01  8.5934506863797022e-01  8.7935268916533005e-01  1.0000000000000511e+00  1.0000000000000526e+00  1.0000000000000495e+00  -1.8802247102345649e-13  -1.8883619097222356e-13  -1.8594218636148965e-13  2.0324266658333143e-01  1.9901983792359285e-01  1.9475020231492585e-01  3.8536814998941293e-01  3.8335547173297552e-01  3.7673611880639979e-01  5.5547380554189729e-01  5.5438754695232617e-01  5.4733398437344438e-01  7.1543703439978346e-01  7.1367114021900180e-01  7.0769370625914441e-01  8.6538530778150191e-01  8.6218155825377185e-01  8.5856695905839098e-01  1.0000000000000482e+00  1.0000000000000453e+00  1.0000000000000460e+00  -1.8496974806881198e-13  -1.8268662061531790e-13  -1.8297607767407403e-13  1.7209987064337001e-01  1.7530635848301088e-01  1.7168565350486251e-01  3.4055666952799402e-01  3.4658940712627379e-01  3.4233310913774140e-01  5.0775441448096958e-01  5.1464435935671271e-01  5.1033761470770078e-01  6.7411847957659898e-01  6.7970844472063696e-01  6.7563725998514423e-01  8.3920418410350961e-01  8.4179826180348361e-01  8.3822552994319477e-01  1.0000000000000511e+00  1.0000000000000513e+00  1.0000000000000491e+00  -1.8152148616525792e-13  1.9146690123174170e-01  3.6972310221861360e-01  5.3886668225908019e-01  6.9982502533824931e-01  8.5381095474050428e-01  1.0000000000000526e+00  -1.8332845492095573e-13  1.7729017890909646e-01  3.5120606443597335e-01  5.1985415088808928e-01  6.8349986795357309e-01  8.4260062672895797e-01  1.0000000000000508e+00  -1.8325527519184034e-13  1.9328104566252816e-01  3.7164247213193263e-01  5.4096951318444886e-01  7.0247799033788316e-01  8.5675947576374945e-01  1.0000000000000508e+00  -1.7969267282689712e-13  1.9251751777378492e-01  3.7351488116892917e-01  5.4324306884887963e-01  7.0323390871001579e-01  8.5487584813333728e-01  1.0000000000000544e+00  -1.8875469392219661e-13  2.0627633271874143e-01  3.9478864399780239e-01  5.6627310296192801e-01  7.2325320309010854e-01  8.6754993558989668e-01  1.0000000000000455e+00  -1.9077344845651367e-13  -1.9183093738036470e-13  2.0297634834128325e-01  2.0415940317018952e-01  3.8890840544442962e-01  3.8772531686792638e-01  5.6025464382142065e-01  5.5848905800124349e-01  7.1881791358317548e-01  7.1794723758441104e-01  8.6558197879322496e-01  8.6662849618643312e-01  1.0000000000000422e+00  1.0000000000000433e+00  -1.8251867276218600e-13  1.8289909577071453e-01  3.5901032685428719e-01  5.2779852814894912e-01  6.8994439004167596e-01  8.4697837198721337e-01  1.0000000000000515e+00  -1.9379787037279429e-13  2.0130389381645797e-01  3.8465326994174376e-01  5.5512104730658196e-01  7.1440375890985564e-01  8.6343450903048502e-01  1.0000000000000402e+00  7.2206715904689012e-01  7.0854146819890040e-01  7.1097846184110491e-01  5.5211793861359781e-01  8.6825238217579948e-01  8.5835671160960891e-01  8.6032781721977303e-01  1.0000000000000595e+00  1.0000000000000562e+00  1.0000000000000568e+00  3.2000420649125011e-01  4.8441713327278002e-01  6.5148385331135450e-01  8.2206420254390844e-01  1.0000000000000544e+00  -1.8750276120023484e-13  1.9896026277708928e-01  3.7979759786960093e-01  5.4996741980204333e-01  7.1074165474132800e-01  8.6216167859914083e-01  1.0000000000000466e+00  -1.9483282780996678e-13  1.9281637386689521e-01  3.7422259229447935e-01  5.4474289277923238e-01  7.0536517533884724e-01  8.5690474807302219e-01  1.0000000000000393e+00  8.6827967746846269e-01  8.6237827097377417e-01  8.6204982382913153e-01  7.1281428739547203e-01  1.0000000000000608e+00  1.0000000000000595e+00  1.0000000000000617e+00  -1.8083358454341557e-13  1.8961978023307186e-01  3.6566900203864777e-01  5.3450797578337861e-01  6.9697843080017219e-01  8.5357586759397519e-01  1.0000000000000531e+00  -1.8975728153206863e-13  -1.8701854389715284e-13  -1.8978685109491525e-13  1.7283735165760039e-01  1.7591111921171981e-01  1.7177175888969887e-01  3.4295029667554489e-01  3.4931323685782051e-01  1.0000000000000471e+00  1.0000000000000442e+00  1.0000000000000442e+00  8.3881846158831230e-01  8.4372586794335336e-01  -2.0166079539083232e-13  -2.0007947061392467e-13  -1.9847754616779337e-13  1.9636423821977714e-01  1.9719929693273461e-01  1.9666543607686823e-01  3.7843514524749128e-01  3.8034137589676326e-01  3.7862405057128684e-01  5.4888670827713815e-01  5.5084694486474683e-01  5.4893106458797736e-01  7.0884001148773168e-01  7.1018425492388948e-01  7.0889046598672489e-01  8.5918450898912069e-01  8.5961369453462333e-01  8.5945278478693676e-01  1.0000000000000355e+00  1.0000000000000340e+00  1.0000000000000324e+00  -2.0322598454743680e-13  1.9836970096483450e-01  3.8163878245874666e-01  5.5213921795991094e-01  7.1132789942166796e-01  8.6047510719814690e-01  1.0000000000000309e+00  -1.8220553294015732e-13  1.9925370238101175e-01  3.8077336539799589e-01  5.5059815755239583e-01  7.1031209150542529e-01  8.6088200157172001e-01  1.0000000000000520e+00  -2.0040967298823351e-13  1.9171832966311381e-01  3.7209354005524481e-01  5.4219123003729630e-01  7.0297461599312439e-01  8.5553044368412212e-01  1.0000000000000338e+00  -2.0170595235837679e-13  2.0343850982176964e-01  3.8799500398742198e-01  5.5860206718572247e-01  7.1706205345289709e-01  8.6480734283331462e-01  1.0000000000000324e+00  5.4935289012841948e-01  5.4719810737680330e-01  5.4944431217379053e-01  7.0871485880662266e-01  7.0657727499552092e-01  8.5876865666253577e-01  8.5688400027305545e-01  1.0000000000000555e+00  1.0000000000000573e+00  -1.8098172648983961e-13  -1.7880012942142666e-13  -1.8037751487308976e-13  1.6477974485415975e-01  1.6308443417900165e-01  1.6015592253215696e-01  3.3014138283242489e-01  3.2828491068611565e-01  3.2306164288752803e-01  4.9625249235388186e-01  4.9438199021192880e-01  4.8805241944311623e-01  6.6320783212741419e-01  6.6136284739703566e-01  6.5517735540434208e-01  8.3109502482200237e-01  8.2952237251557170e-01  8.2504795924800034e-01  1.0000000000000553e+00  1.0000000000000531e+00  1.0000000000000537e+00  -1.9966508477165712e-13  -1.9768380047353242e-13  -1.9796238484532403e-13  2.0720126245561971e-01  2.0064291313924668e-01  2.0317542168051075e-01  3.9187670094100163e-01  3.8627614593075599e-01  3.8815405856369833e-01  5.6245128283407952e-01  5.5718457381014463e-01  5.5879582512287040e-01  7.2109045694542939e-01  7.1542100255499175e-01  7.1703283347895541e-01  8.6866277712346240e-01  8.6255726990262971e-01  8.6443436144211960e-01  1.0000000000000362e+00  1.0000000000000364e+00  1.0000000000000344e+00  -1.9097296353352384e-13  2.0693594089978098e-01  3.9514078337058961e-01  5.6660362038071632e-01  7.2372252978285900e-01  8.6788531358319065e-01  1.0000000000000431e+00  -1.7458582317588376e-13  -1.7246612570030427e-13  -1.7236053019235102e-13  1.9599376131650917e-01  1.8787810568196647e-01  8.6004551109061722e-01  8.5225643775592852e-01  6.9830221704133622e-01  7.0803630294936293e-01  1.0000000000000595e+00  1.0000000000000617e+00  -1.9374290902535514e-13  2.0245379475035016e-01  3.8678882495265321e-01  5.5767280421240539e-01  7.1670151972242524e-01  8.6461916606104394e-01  1.0000000000000404e+00  -2.0346594800201210e-13  1.9471966880269306e-01  3.7615862304712644e-01  5.4645087882656740e-01  7.0685086719582058e-01  8.5829904505208576e-01  1.0000000000000306e+00  -1.8994137205969996e-13  2.0985710870380353e-01  3.9692532497806865e-01  5.6803562766396043e-01  7.2564265511405690e-01  8.7065398361157431e-01  1.0000000000000442e+00  7.1705432198211594e-01  8.6552203298012198e-01  1.0000000000000562e+00  -2.0174103250582001e-13  1.9045833453138825e-01  3.7027159682161748e-01  5.4029890812882908e-01  7.0146840487266160e-01  8.5468960256452542e-01  1.0000000000000324e+00  -1.9191667160683117e-13  1.7642767585334865e-01  8.4395848737813084e-01  6.8253008738243370e-01  1.0000000000000422e+00  -1.8355715292997677e-13  -1.8199118136639194e-13  -1.8442250832484582e-13  1.9818828367158342e-01  1.9865342057182023e-01  2.0894872694122030e-01  3.8381422758641232e-01  3.8319340567498700e-01  3.9402634776795203e-01  5.5504147511849622e-01  5.5406416683303439e-01  5.6474087932502037e-01  7.1350602096827664e-01  7.1284582200076307e-01  7.2305744322932564e-01  8.6093215998003148e-01  8.6115518327801599e-01  -1.9431597767585418e-13  1.9556277488496385e-01  3.7574920019128721e-01  5.4618353110182771e-01  7.0793941790891446e-01  8.6076050152733119e-01  1.0000000000000397e+00  -1.8497106190955740e-13  1.7302702990658522e-01  3.4211224014171626e-01  5.1087062751977608e-01  5.0964274448066571e-01  6.7665648391820854e-01  6.7567621751885198e-01  8.4000218166296092e-01  8.3992142546153092e-01  1.0000000000000491e+00  -1.8054214512316039e-13  -1.7997198663964010e-13  -1.7822253247985204e-13  1.7105018288060250e-01  1.7066665775428372e-01  1.6657284367059752e-01  3.3924889518812695e-01  3.4089210597043479e-01  3.3394065020688873e-01  5.0635548554280330e-01  5.0871500496081279e-01  5.0076136336754506e-01  6.7249670526746641e-01  6.7409063268889069e-01  6.6690485360861718e-01  8.3752458982159306e-01  8.3739337294383343e-01  8.3263937142653155e-01  1.0000000000000557e+00  1.0000000000000542e+00  1.0000000000000535e+00  -1.8288563550613783e-13  1.6038780281903384e-01  3.2430894327108317e-01  4.8980625008949430e-01  6.5675664019749225e-01  8.2570955840384075e-01  -1.7989643118163101e-13  -1.7794237011214948e-13  -1.7881643279395806e-13  2.1530816301984415e-01  2.0441839189023239e-01  1.9694047536423642e-01  3.8798814010322530e-01  3.9926975172442980e-01  3.7927738966115193e-01  5.5814514323485698e-01  5.6925372472437707e-01  7.2740215663119412e-01  8.7437510120325601e-01  1.0000000000000542e+00  -2.0119217127609500e-13  -1.9999840852855103e-13  1.8954105486262568e-01  1.8759482167446245e-01  3.6591734261455794e-01  3.6903010428216615e-01  5.3569177593911932e-01  5.3894375936574312e-01  6.9772288569899044e-01  7.0010785211009829e-01  8.5226656640995535e-01  8.5344198522583026e-01  1.0000000000000329e+00  1.0000000000000340e+00  -2.0466390167005573e-13  1.9981103142270110e-01  3.8248032342127875e-01  5.5274898090163427e-01  7.1220861574915373e-01  8.6180155377153678e-01  1.0000000000000295e+00  -2.0081362564775704e-13  -1.9861060734110116e-13  2.1003119584922869e-01  2.0122466442132000e-01  3.8762958397077008e-01  3.9598751837189772e-01  5.5858618261371340e-01  5.6653443381938084e-01  7.1636769066774830e-01  7.2396445367396967e-01  8.6268944622773147e-01  8.6938776761712167e-01  1.0000000000000333e+00  1.0000000000000355e+00  7.2008157237136627e-01  7.2659539944836327e-01  8.7304822118022263e-01  8.6669227118757497e-01  1.0000000000000575e+00  1.0000000000000595e+00  -1.8069186689191019e-13  1.9754137141784625e-01  3.7946601943069280e-01  5.4935762258353016e-01  7.0866519249185156e-01  8.5885062248292032e-01  1.0000000000000533e+00  -1.8742732117693460e-13  1.8219638639535227e-01  3.5653069006910731e-01  5.2581552605700888e-01  6.9036379561831462e-01  8.4965578451273926e-01  1.0000000000000466e+00  -1.7626943902639874e-13  -1.7452851489867112e-13  -1.7667756949064615e-13  1.9744406280135252e-01  5.5304514560655516e-01  5.6824988268024312e-01  5.4896304038073485e-01  3.9834673009849325e-01  7.0933605559913671e-01  8.6039637451926132e-01  1.0000000000000573e+00  -1.9452411066459307e-13  -1.9425772964205634e-13  -1.9234153798627844e-13  1.8799356916335272e-01  1.7863190562656373e-01  3.5870475637751342e-01  3.5467830522277383e-01  3.6428101849709155e-01  5.3379725356975960e-01  5.2438370745016771e-01  5.2781660460972990e-01  6.9714735102596692e-01  6.8764100385331095e-01  6.9215274847881192e-01  8.5375975199237764e-01  8.4520198815074943e-01  8.5088441228911627e-01  1.0000000000000415e+00  1.0000000000000397e+00  -2.0030057800336335e-13  2.1155751505890880e-01  3.9866020561938503e-01  5.6936400951086596e-01  7.2624803649051417e-01  8.7043229662321719e-01  1.0000000000000340e+00  -1.8084464181738814e-13  -1.7889478913846081e-13  1.8219489132952091e-01  1.8498366518002737e-01  3.5857559769193698e-01  3.5581633278151686e-01  5.2704167759978893e-01  5.2446358027642648e-01  6.9099886824615642e-01  6.8866137092946522e-01  8.5028668888060210e-01  8.4817831880283046e-01  1.0000000000000533e+00  1.0000000000000551e+00  2.1407370576898760e-01  -1.8597353654641008e-13  2.0740824233362989e-01  3.9238482943763797e-01  5.6326144760296659e-01  7.2166434753628939e-01  -1.7470095030588779e-13  -1.7662272815718771e-13  1.8711305075007995e-01  1.8974640103341614e-01  3.6786414324018468e-01  3.6286759100282467e-01  5.3758756867842650e-01  5.3213383813116011e-01  6.9977878723025888e-01  6.9565884342015560e-01  8.5465032218880477e-01  8.5291812075042084e-01  1.0000000000000593e+00  1.0000000000000573e+00  -1.9855397342122853e-13  -1.9878350558564905e-13  -1.9641422760222982e-13  1.8611197893197812e-01  2.0041924039981890e-01  1.8297365037464516e-01  3.5979221458874933e-01  3.8018989266098530e-01  3.6409392662698431e-01  5.2951162481290526e-01  5.5006025110406964e-01  5.3421676678366314e-01  6.9256632250479233e-01  7.1136234426065148e-01  6.9692127477839172e-01  8.4930397996648599e-01  8.6384381989922099e-01  8.5239450232788616e-01  1.0000000000000355e+00  1.0000000000000353e+00  1.0000000000000377e+00  -1.9787560773601104e-13  1.8911304001997117e-01  3.6975090045751968e-01  5.4010172676165724e-01  7.0100968983921574e-01  8.5351036842652583e-01  1.0000000000000362e+00  -1.8650135243523228e-13  2.0173819784538580e-01  3.8851653980365963e-01  5.5988265654366287e-01  7.1781349612182577e-01  -1.8799807871127194e-13  2.0485403972148461e-01  3.9002481165984260e-01  5.6102314847491197e-01  7.1943494832998944e-01  -1.9422028606093204e-13  2.0505993061749067e-01  3.9038646544260452e-01  5.6113783391092997e-01  7.1938450287630640e-01  8.6687974475647889e-01  1.0000000000000400e+00  -1.8942600134803908e-13  2.0330002294410068e-01  3.8507124841189483e-01  5.5565641719883596e-01  7.1635334018855323e-01  8.6694316274970129e-01  1.0000000000000446e+00  3.7893184593169082e-01  -1.9446965470465585e-13  -1.9437181081871940e-13  -1.9267336029786401e-13  2.1842827995897057e-01  2.0250792690240993e-01  2.0613962610437225e-01  4.0542454467118638e-01  3.8944465744787699e-01  3.9188910029960639e-01  5.7611437435415580e-01  5.6052949269980668e-01  5.6278208921426187e-01  7.3300181511588824e-01  7.1844278156384944e-01  7.2098374093291262e-01  8.7650321623616245e-01  8.6511551098426787e-01  8.6743258950760016e-01  1.0000000000000413e+00  1.0000000000000397e+00  1.0000000000000395e+00  -1.8522648174342151e-13  1.7876207787977261e-01  3.5208223971545227e-01  5.2083297261929051e-01  6.8527675201643290e-01  8.4533131925275995e-01  1.0000000000000488e+00  -2.0423205506414370e-13  1.9830071235092089e-01  3.7878780949230240e-01  5.4871438319626342e-01  7.0956933331112815e-01  8.6137998248013492e-01  1.0000000000000300e+00  -1.8517210995738343e-13  -1.8787839175144994e-13  1.6488443715267140e-01  1.6688302985603637e-01  3.3087349742560407e-01  -1.8134062140378753e-13  1.7590946317275546e-01  3.5032364786864717e-01  5.1900409639450285e-01  6.8235759224286341e-01  8.4138688563549480e-01  1.0000000000000526e+00  -1.7648171547532247e-13  -1.7395406629915210e-13  1.6424467097537021e-01  1.6562015756400192e-01  3.2992147137638361e-01  3.3182750528382327e-01  4.9622427467690911e-01  4.9824931473657241e-01  6.6316130719661026e-01  6.6486738122154887e-01  8.3086505469798888e-01  8.3185248294124736e-01  1.0000000000000575e+00  1.0000000000000602e+00  -1.7394506577999414e-13  1.8446026340042185e-01  3.6026271026368473e-01  5.2962372267626134e-01  6.9298549214432303e-01  8.5036265550389634e-01  1.0000000000000602e+00  -1.7794111384317469e-13  1.7107340553017120e-01  3.4158277571354623e-01  5.0949737273820173e-01  6.7477779210856514e-01  8.3772723631399881e