<?xml version="1.0"?>
<VTKFile type="UnstructuredGrid"  version="0.1"  >
<UnstructuredGrid>
<Piece  NumberOfPoints="964" NumberOfCells="4044">
<Points>
<DataArray  type="Float64"  NumberOfComponents="3"  format="ascii">2.961140698456826 2.392655354051404 4.032501287384969  2.853473374388984 2.298478566427508 4.022879558534808  2.978940329231937 2.269540462565849 4.046912819963094  2.967702013749262 2.269812303696878 4.11541644561627  2.841608770113067 2.300519733079985 4.089873920081125  2.950393597970528 2.401267495392564 4.099875119173254  2.939730116986483 2.409818136514153 4.167057807082682  2.829808414931844 2.302547865535383 4.156685994577996  2.956535543057018 2.270103658732305 4.183724321204283  2.929110365618519 2.418313819763549 4.234060115034591  2.818038121231186 2.304563083720079 4.223328320577026  2.945402354527653 2.270386652073865 4.251861720801688  2.918502860661325 2.426758683258195 4.300918374977171  2.934283687787572 2.270638699880878 4.319860804547685  2.782816568372461 2.310319626247131 4.422527572921293  2.897277108396541 2.44344604670136 4.434253152119518  2.912080363211637 2.270933768667805 4.455529525147613  2.923171106984372 2.270832607734446 4.387746095337629  4.520702717571171 2.985255448206937 3.992044945807234  4.643540127852481 2.917409662143308 4.070676904177448  4.670237673119112 3.055396314519562 3.987518641050083  4.648862958524856 3.100845724177191 4.04884202246805  4.623968864309475 2.952962430217332 4.140188299484421  4.502172205772433 3.028229752827099 4.055470471406371  4.483774726931648 3.07095373451681 4.11887839210237  4.604535449558501 2.988284755057183 4.209525227807831  4.627705697656493 3.146026700836273 4.110091002064728  4.465481387970826 3.113501860988984 4.182221070488007  4.58519067667416 3.023445993701962 4.278730728892532  4.606665016887906 3.191060804741466 4.171266443166174  4.447234095565808 3.1559441676462 4.245495896243188  4.565899267102469 3.058500571687521 4.347823457638446  4.585673046472934 3.235993943375852 4.232359944485176  4.428988187229722 3.19832937526553 4.308687283946986  4.546631108583743 3.093481135534216 4.416810273031727  4.564689700227643 3.280849561542823 4.293363630919777  4.410707447553698 3.240715421936797 4.371751113026725  4.527352726610687 3.128412443874479 4.485697368659015  4.543650670996517 3.32564516662157 4.354232763874665  2.852546197220924 2.163417706152591 4.016400693047211  3.013146307199994 2.153965983201897 4.041715258486888  3.002838820070175 2.144233063714127 4.109946666784899  2.841226754121314 2.156205093582706 4.083330923807986  2.992599871133721 2.134583332602372 4.177977731757879  2.829959610604324 2.149048881945439 4.150094179224385  2.982383347539891 2.124953806887455 4.24586774528689  2.81871534561609 2.141918244619491 4.216695598487724  2.972179177951543 2.115311789440992 4.313615796196582  2.807488694998913 2.134774637088094 4.283180283123585  2.961989040943975 2.105623545063653 4.381253964115305  2.796292723476642 2.127589121024053 4.349548573361234  2.951835493772029 2.09585046233425 4.448787407277201  2.785136820960325 2.120309502763707 4.415812340461848  4.547217598211874 2.742581184869082 4.117064671591086  4.656261941702246 2.807430068104886 4.119035038820164  4.534627208653336 2.871664951196835 4.059060356364737  4.515549386528082 2.9048233505363 4.129153890536486  4.638141470487733 2.834897165405917 4.193135743777472  4.529249399564005 2.765423913672818 4.192122588567491  4.511374732491266 2.788119691822933 4.267012228151684  4.620119191578925 2.862158768358293 4.266943106951109  4.496628371620433 2.937726616031922 4.199021542802436  4.47779545025537 2.970466448112735 4.268767192508381  4.602173123633037 2.889289418989279 4.340583139319637  4.493583099981648 2.810678265546635 4.341693084083271  4.459020719635062 3.003087138051675 4.338398977013077  4.584284008966627 2.916319340582911 4.414079422231763  4.475847966393435 2.833123371955362 4.416236049638073  4.440272990344183 3.035632670574985 4.407925554805995  4.566445493608822 2.94327112797253 4.487456272313174  4.458164094735335 2.855491013130153 4.490647088791021  4.421506515348353 3.068138433246586 4.47731829265081  4.548643863632641 2.970158232618574 4.560718310509091  4.440509753445949 2.877825564813373 4.56492327899752  4.472031415522371 2.229592389262311 4.134139705490029  4.592552872261765 2.251467948422923 4.154452293763769  4.504323413519156 2.378999728811303 4.151805587796273  4.491561165859061 2.37575090259823 4.230086851888209  4.58136396198117 2.240630588324844 4.232532540055006  4.462907111324701 2.217885092834946 4.21098279056141  4.570129331737527 2.229840555235601 4.31036955826705  4.453736647667039 2.206221300975463 4.287611796642048  4.478783799817905 2.372535215581117 4.308088496042574  4.558887475237678 2.219069852172146 4.38800230225309  4.444572395463724 2.194581830198422 4.364030593284595  4.466028870157741 2.369298603756227 4.3858542433484  4.54767823422125 2.208280837007998 4.465470154087084  4.435431295905595 2.182912919790498 4.440275718167854  4.453319457374683 2.365991284512325 4.4634349321528  4.536528681335791 2.197466049361784 4.542814069267644  4.426347610043571 2.171210911193314 4.516379702227801  4.44066919017611 2.362623760666266 4.54086306796066  4.417421789161565 2.159423183049503 4.59236201960205  4.525554406328889 2.186574289428071 4.620017217956002  4.42816539862448 2.359201595991546 4.618188234963354  2.80951813333365 2.467687602030678 4.135647172448398  2.800209141268656 2.476731330779915 4.201289254988476  2.790914378591836 2.48571796125378 4.266792017975194  4.375119805735861 3.142968498612337 4.028728600346482  4.493202392844165 3.228010970557858 3.991221440259769  4.356174954249415 3.190761645513768 4.086039405798763  4.474197724752933 3.279515912205445 4.045108287914163  4.337255113536509 3.238479866430296 4.1433354843427  4.455224561310955 3.330945466167788 4.098979925949322  4.318297771467963 3.286174023433037 4.200564764173758  4.436219011952663 3.382351972575878 4.15278056932489  4.299223034332067 3.333902960710841 4.257626721258069  4.417113713298888 3.433815179032052 4.206424384936499  3.782367906746166 2.231593764874835 4.069131813723079  3.895266940937816 2.151914819545175 4.063756544432291  3.935824938542371 2.304224274723468 4.082743359271871  3.93003373554023 2.300858567932666 4.156539133223884  3.889892028801698 2.138360327547061 4.135277273721413  3.77849965112358 2.22339265774104 4.141377228972964  3.924246078237009 2.297500707438103 4.230040768906014  3.884511844436847 2.124872906167615 4.206544384170043  3.7746506919218 2.215205415255255 4.213364375800927  3.918480174971403 2.294113018763058 4.30327097696728  3.879150098483036 2.11139966493729 4.277579343995393  3.770820013167478 2.207004980784517 4.285105417955224  3.912743729211594 2.290663738620943 4.376288769371676  3.873796415460377 2.097913219833875 4.3484153680642  3.767004218197209 2.198757419271964 4.356636509304375  3.907033444020164 2.287144994041904 4.449132702708466  3.86848748211448 2.08438260288085 4.419064395308509  3.76320162760039 2.190451752747649 4.427965283828066  3.90138617461592 2.283579418477796 4.521810879062366  3.863252262906161 2.070789140792892 4.489516384982144  3.759426705287468 2.18211310739325 4.49908380028339  4.149757290859772 2.92971764355614 3.924708730303263  4.289400467100438 2.877793851377732 3.990898696954017  4.29312691972657 2.989880454636291 3.915467473961032  4.274263931555256 3.035041728080523 3.973890094816803  4.273069527835909 2.915280127088504 4.056263499709871  4.136396957527472 2.97337448530373 3.984340348846845  4.255596693378839 3.079908684634029 4.03237737080304  4.256851145598008 2.952483293672283 4.121579597503879  4.123115838479378 3.016698993475909 4.044043614097447  4.237018639752513 3.124601344872699 4.090884972943233  4.240711439565969 2.98949087153127 4.186819111008707  4.10987845279729 3.059842863026058 4.103761409899626  4.218468141326182 3.169208047491578 4.14937485218769  4.224612723442165 3.026384752690211 4.251985007092097  4.096638363946274 3.102902310101913 4.163448241677368  4.199884058378407 3.213789148818808 4.20779882616842  4.208513111673841 3.06322340392599 4.317068406017055  4.083356646851517 3.145945934475934 4.223054901853674  4.181131600478551 3.258411759127094 4.266080258620024  4.192323248511499 3.100078662914433 4.382034708497527  4.070009809297534 3.189056859321156 4.2825403510143  4.169128217149863 1.956880205237853 4.034911409443569  4.292497885272632 1.855832082239117 3.990956394775582  4.32428316291172 1.979767647556557 4.050765001404393  4.319978714315283 1.950238787986494 4.119385689273576  4.289723481527664 1.81733598891255 4.053100108483117  4.163958208783303 1.92820433470798 4.102476373492004  4.315628192161049 1.920875026943601 4.187861133443931  4.286852813307664 1.779034731829799 4.115194962862861  4.158735792377455 1.899689291168338 4.169916133312621  4.311235909690396 1.891624667141423 4.256205522743755  4.28396009789227 1.740840837779906 4.177206741467865  4.153468747770435 1.871275974067538 4.237216922476862  4.306859071179928 1.862402124299328 4.324430009886039  4.281114713084708 1.702686427576519 4.239111373666599  4.148233988460317 1.842894540002609 4.304385077767604  4.302561437845132 1.833136157649527 4.392532623019085  4.278357750556799 1.664498973791511 4.300877929671785  4.143078093787317 1.814470430737816 4.371408984506218  4.298389182128847 1.803760717607085 4.460505273628242  3.436430048857162 2.305694426239056 4.068795215453845  3.372944807684996 2.238516179465379 4.069168357818172  3.51313558347118 2.202866416964794 4.064625577419087  3.51454406219793 2.191486913777478 4.135530664212311  3.374978410757823 2.232806108754585 4.140545442481545  3.438197276636349 2.303815881324789 4.140648123806632  3.51601906423479 2.180118652622471 4.206221181108596  3.377075974685495 2.227107873217046 4.211676414588919  3.440012561261296 2.301938238519129 4.212220944757704  3.51752912261677 2.168734427987383 4.276676811585731  3.379211
[...]
<PointData  Scalars="f_14"> 
<DataArray  type="Float64"  Name="f_14"  format="ascii">-1.7880216136082290e-13  -1.8103349571420770e-13  -1.7840625719512928e-13  2.1144198301327988e-01  1.9927903694239166e-01  1.9814763960154091e-01  3.8176819729600864e-01  3.8231936826644114e-01  3.9823201235538985e-01  5.5264172683015222e-01  5.5289625513739893e-01  5.6922155691865384e-01  7.1205346254268764e-01  7.2676634919219507e-01  1.0000000000000531e+00  1.0000000000000553e+00  1.0000000000000557e+00  8.7157596705865581e-01  -1.4764182783100526e-13  -1.4529208178545755e-13  -1.4483010726978542e-13  1.9621525808000265e-01  2.0795171839961446e-01  1.9973617470731447e-01  3.8318862657107872e-01  3.9290504450659952e-01  3.7986850098978359e-01  5.5389413217582939e-01  5.6358615560650127e-01  5.5071802450318763e-01  7.1340712644921001e-01  7.2199418826336004e-01  7.1004357501423920e-01  8.6239917277505074e-01  8.6876123285355589e-01  8.5911131130686380e-01  1.0000000000000866e+00  1.0000000000000888e+00  1.0000000000000893e+00  -1.8103918843735774e-13  -1.7771851935504821e-13  2.0927216794462306e-01  2.0100554077765234e-01  3.9762789007592791e-01  3.8552942733659840e-01  5.6920634911499635e-01  5.5640093671361457e-01  7.2609669570688751e-01  7.1520479599752629e-01  8.6989754611685066e-01  8.6294312974535359e-01  1.0000000000000564e+00  1.0000000000000533e+00  -1.4719451319910139e-13  -1.4509599421403355e-13  -1.4739544986209485e-13  1.9736755435189493e-01  2.0284544223928891e-01  2.0592621639877681e-01  3.9017358618722336e-01  3.8815245548881600e-01  3.8108672500157087e-01  5.5196128269075428e-01  5.5907710741120231e-01  5.6082844378863117e-01  7.1151219977900015e-01  7.1747957751072589e-01  7.2003871214987047e-01  8.6074856247463172e-01  8.6450498447487634e-01  8.6801322885782928e-01  1.0000000000000868e+00  1.0000000000000890e+00  1.0000000000000870e+00  -1.4909782745268684e-13  -1.4687688029742145e-13  -1.4832997708425323e-13  1.9317763622847928e-01  2.0082923645207423e-01  1.9497255791683185e-01  3.8450113907873407e-01  3.7689188893508496e-01  3.7491491944330507e-01  5.5527465326290737e-01  5.4728156098743319e-01  5.4541574212135002e-01  7.1468786254196470e-01  7.0715058737396375e-01  7.0581482425332209e-01  8.6372194825798831e-01  8.5774137897638214e-01  8.5716147952921484e-01  1.0000000000000853e+00  1.0000000000000873e+00  1.0000000000000859e+00  3.7279370893323172e-01  5.4284995903862199e-01  7.0347124757869028e-01  3.8607259386587378e-01  3.8163792458514167e-01  5.5663861751920973e-01  5.5210589381612296e-01  7.1654153945318311e-01  7.1190155318619763e-01  8.6582718460802344e-01  8.6174782459953758e-01  1.0000000000000844e+00  1.0000000000000868e+00  -1.6216558560929229e-13  -1.6013595959238568e-13  -1.5912029193430604e-13  1.8820549369571765e-01  1.9198077200313909e-01  1.9296891729215390e-01  3.6707589307043975e-01  3.7090428800102143e-01  3.7188976072176499e-01  5.3646583334466691e-01  5.4023160411266302e-01  5.4114884309163225e-01  6.9745019660639762e-01  7.0121905075592472e-01  7.0218287834241222e-01  8.5139426932182605e-01  8.5468545541594987e-01  8.5586769636503002e-01  1.0000000000000753e+00  1.0000000000000742e+00  1.0000000000000722e+00  -1.5485440199108029e-13  -1.5210139197673472e-13  -1.5215652687328383e-13  1.9040019443505063e-01  1.9185331723773655e-01  1.9261758670231402e-01  3.7098380798221481e-01  3.7230435093728514e-01  3.7249750915210011e-01  5.4123553384090228e-01  5.4230165428836985e-01  5.4213881697735267e-01  7.0217949078185615e-01  7.0294558815700292e-01  7.0293451681982089e-01  8.5478422294492384e-01  8.5515690119326471e-01  8.5564577057317115e-01  1.0000000000000822e+00  1.0000000000000822e+00  1.0000000000000795e+00  -1.5526013867404431e-13  -1.5314822832969095e-13  -1.5227062242965466e-13  1.9726748521057175e-01  2.1257861761906682e-01  2.0715154275985206e-01  3.8176224882296123e-01  3.9835437232450505e-01  3.9227877180421256e-01  5.5255057765327475e-01  5.6882954710287392e-01  5.6271302647639665e-01  7.1121373316430125e-01  7.2664564817981114e-01  7.2082316483859976e-01  8.5938767067695643e-01  8.7212787214557441e-01  8.6724883526003038e-01  1.0000000000000822e+00  -1.6876674139777888e-13  -1.7008592420794367e-13  -1.6735962592683769e-13  2.0580903706317066e-01  2.0576096266677416e-01  1.9590830112741589e-01  3.8875562228523780e-01  3.9189866934966361e-01  3.8046031886838133e-01  5.5861727141052142e-01  5.6264329320773876e-01  5.5122974954718906e-01  7.1781847214182770e-01  7.2021540807345252e-01  7.0982971063225164e-01  8.6655346863576721e-01  8.6622243220435891e-01  8.5824317722947208e-01  1.0000000000000671e+00  1.0000000000000644e+00  1.0000000000000657e+00  -1.4604166200394346e-13  -1.4372325022174375e-13  -1.4369634015044561e-13  1.9876952756034413e-01  2.0938643348066796e-01  2.0497696728660167e-01  3.8926201945097888e-01  3.9474617921722643e-01  3.8353331291338832e-01  5.6005206583897782e-01  5.6545786210859950e-01  5.5454925904755747e-01  7.1923958706758784e-01  7.2358184835289496e-01  7.1325711825767057e-01  8.6729168077188401e-01  8.6974899068325240e-01  8.6112491905525812e-01  1.0000000000000904e+00  1.0000000000000882e+00  1.0000000000000904e+00  -1.7050137864844863e-13  2.0390606680314746e-01  3.8898861379145272e-01  5.5959216714542193e-01  7.1780309640533180e-01  8.6488863319021092e-01  1.0000000000000639e+00  -1.5055110422740247e-13  1.9101230113075968e-01  3.7141864380277650e-01  5.4132468068140993e-01  7.0169006328003447e-01  8.5373308744048382e-01  1.0000000000000839e+00  -1.6848993799216821e-13  -1.6616405408897196e-13  1.8308093929127980e-01  1.8947234871694030e-01  3.6083228577923110e-01  3.6934895580807409e-01  5.3017234979645889e-01  5.3914848985711727e-01  6.9162241705772787e-01  6.9988835732572952e-01  8.4662645350662913e-01  8.5286964610911020e-01  1.0000000000000682e+00  1.0000000000000659e+00  -1.4298027218171287e-13  -1.4278211408457143e-13  8.6356200511116854e-01  8.7058852941820530e-01  1.0000000000000913e+00  1.0000000000000913e+00  -1.4932987369030416e-13  -1.5109283463085168e-13  2.0254026314865733e-01  2.1180776212059207e-01  3.9749659800834342e-01  3.8650117295735803e-01  5.6811332549644056e-01  5.5675630228159045e-01  7.2597758936238777e-01  7.1541981930871179e-01  8.7163729130699630e-01  8.6349661065720884e-01  1.0000000000000848e+00  1.0000000000000833e+00  -1.4956742347155669e-13  1.9466420576310947e-01  3.7643836904812178e-01  5.4683334828017294e-01  7.0710185946131787e-01  8.5821725493031131e-01  1.0000000000000846e+00  -1.4879109693706414e-13  1.9161857630569590e-01  3.7550965944353254e-01  5.4634113673913098e-01  7.0546245516806949e-01  8.5476176509474944e-01  1.0000000000000855e+00  -1.5898749738447074e-13  -1.5695007476677434e-13  1.8957478409095188e-01  1.9890578452572205e-01  3.7982853275806344e-01  3.6933562631569233e-01  5.4924567032497862e-01  5.3914361174310976e-01  7.0923796395534622e-01  6.9996157778149759e-01  8.6027138757615107e-01  8.5306457273828584e-01  1.0000000000000753e+00  1.0000000000000773e+00  1.9830078124235620e-01  3.8263124112906821e-01  5.5353306830070403e-01  -1.5156665648386050e-13  1.9851696611429812e-01  3.8044890968423839e-01  5.5038128537110442e-01  7.0997277802422210e-01  8.6024946974594285e-01  1.0000000000000828e+00  -1.5428409105486438e-13  1.9692749959375902e-01  3.7730438920963305e-01  5.4685623672204564e-01  7.0723960048001733e-01  8.5904797299433788e-01  1.0000000000000802e+00  -1.4601414397474743e-13  1.9986215229496782e-01  3.8373738015432252e-01  5.5471514512988540e-01  7.1418907134717080e-01  8.6308634621612834e-01  1.0000000000000882e+00  -1.5963663881173396e-13  -1.5791027571638268e-13  -1.5735351626838399e-13  1.9439604033461841e-01  2.1382687493215380e-01  1.9390809002913389e-01  3.7462249164964018e-01  3.9831476811677413e-01  3.7676182096269828e-01  5.6853193796595825e-01  5.4428251545214434e-01  5.4693542601958600e-01  7.0443641592427375e-01  7.0664768302034520e-01  -1.4979022980394677e-13  -1.4979563141246075e-13  2.0473890613359552e-01  2.0306107598879755e-01  3.8750517094220560e-01  5.5785052361725906e-01  7.1758811522165056e-01  8.6682845500041927e-01  1.0000000000000844e+00  -1.5365236755652480e-13  2.0737186898679572e-01  3.9157547869864340e-01  5.6186957945980687e-01  7.2036017771265592e-01  8.6775869093213331e-01  1.0000000000000806e+00  -1.7922462907531245e-13  -1.7633656115968717e-13  -1.7653919456202288e-13  1.9662051010854478e-01  2.0913098281276185e-01  1.9776703838715151e-01  3.8006805517686459e-01  3.9523106186242807e-01  3.8017664192763978e-01  5.5086806293765067e-01  5.6626291036208432e-01  5.5053691766191759e-01  7.1043256259826615e-01  7.2426765157431139e-01  7.1050976021968149e-01  8.5992162126236560e-01  8.6980061629944649e-01  8.6080081205401615e-01  1.0000000000000577e+00  1.0000000000000577e+00  1.0000000000000551e+00  3.7592260474249395e-01  5.4648882900799423e-01  7.0628834259811357e-01  8.5661819550484219e-01  1.0000000000000888e+00  -1.5765307647143718e-13  -1.5530991207041298e-13  -1.5731464556909246e-13  1.9466459044720960e-01  1.9675385113738014e-01  1.8876025241565184e-01  3.7438908567913776e-01  3.7838423812658234e-01  3.6894079700296356e-01  5.4410993129252549e-01  5.4843870977316989e-01  5.3895185252860456e-01  7.0496199079450750e-01  7.0842834502499286e-01  6.9974737154955524e-01  8.5777776899974123e-01  8.5931687118122979e-01  8.5257075339154964e-01  1.0000000000000768e+00  1.0000000000000788e+00  1.0000000000000766e+00  -1.5273769611013904e-13  2.0078061103553760e-01  3.8200705737325608e-01  5.5173830676282531e-01  7.1168637949063529e-01  8.6251687455443449e-01  1.0000000000000817e+00  -1.6191903039873767e-13  1.9095871306040421e-01  3.7048341087820652e-01  5.3993450167416746e-01  7.0064771581786212e-01  8.5380706805955908e-01  1.0000000000000724e+00  1.0000000000000682e+00  1.0000000000000655e+00  1.0000000000000675e+00  8.5664138411627744e-01  8.6231751880548302e-01  2.0212815063737324e-01  3.8835232682588844e-01  5.5946694122369434e-01  7.1734187987228681e-01  -1.4497313596947447e-13  -1.4544954783086030e-13  -1.4707399211034969e-13  2.0827107297041561e-01  2.0712946452533565e-01  2.0843115231090828e-01  3.9437212842718061e-01  3.9363626910354244e-01  3.9622424379590748e-01  5.6514566478772477e-01  5.6474496744027736e-01  5.6756544138712384e-01  7.2277407412319949e-01  7.2251634343031668e-01  7.2477088300939163e-01  8.6824409241875222e-01  8.6820995723455296e-01  8.6912738708838866e-01  1.0000000000000873e+00  1.0000000000000888e+00  1.0000000000000893e+00  -1.7366463831744886e-13  -1.7414464543003165e-13  1.9974088858887551e-01  2.1432743292745290e-01  4.0226053119824173e-01  3.8416598344403219e-01  5.7338259507325706e-01  5.5513772581869569e-01  7.3037963867089284e-01  7.1423526469182819e-01  8.7378971398922445e-01  8.6253121234789543e-01  1.0000000000000606e+00  1.0000000000000602e+00  -1.6036262748842528e-13  1.9580443456662572e-01  3.7789331376182123e-01  5.4806425443402729e-01  7.0810344746450304e-01  8.6110354984256199e-01  -1.5664467002315021e-13  1.9680034087927156e-01  3.7713488102594045e-01  5.4678202279141952e-01  7.0741426347751746e-01  8.5938276664420921e-01  1.0000000000000777e+00  -1.5526645768541461e-13  -1.5353105212292214e-13  1.9230819648994901e-01  1.9651465364682838e-01  3.7735013805339090e-01  3.7418029481820514e-01  5.4722913394881023e-01  5.4439852602830685e-01  7.0779509510652738e-01  7.0439519850685661e-01  8.5946319648877667e-01  8.5545077480220733e-01  1.0000000000000788e+00  1.0000000000000808e+00  -1.6897187787511796e-13  -1.6873401463873537e-13  -1.6618664312095136e-13  2.2010860550336567e-01  1.9358317196980152e-01  2.0128363830916096e-01  3.8438365858706758e-01  4.0639879019470959e-01  3.7648206517556343e-01  5.5441563223805979e-01  5.7648963419280064e-01  5.4704517177388834e-01  7.1352003362027749e-01  7.3358076961429186e-01  7.0648203044649061e-01  8.7752267714722565e-01  1.0000000000000657e+00  -1.5269109921967147e-13  -1.5045315963718953e-13  1.9606504046923404e-01  1.9240772685312274e-01  3.7656780790326067e-01  3.7282548028871981e-01  5.4649196324127602e-01  5.4251196846150773e-01  7.0702886286445854e-01  7.0289770529616868e-01  8.5893889327475892e-01  8.5496000905537151e-01  1.0000000000000839e+00  1.0000000000000817e+00  -1.4317410372720398e-13  -1.4231755325967397e-13  2.1332764979010363e-01  -1.4714248960015133e-13  2.1254591105325885e-01  3.9938781380681637e-01  5.7044809730596313e-01  7.2791092155448378e-01  -1.7515735364102037e-13  -1.7589989271284378e-13  2.2026598488153398e-01  2.1541980426208132e-01  4.1024110747206999e-01  4.0649166260848130e-01  5.8146118928477419e-01  5.7812871718974179e-01  7.3698496030987948e-01  7.3346898128836502e-01  8.7773869118633663e-01  8.7411173599121927e-01  1.0000000000000582e+00  1.0000000000000591e+00  -1.5709164271182374e-13  1.8636102080683908e-01  3.6619383915745385e-01  5.3603879695460432e-01  6.9702820106389163e-01  8.5043385463391252e-01  1.0000000000000770e+00  -1.5046133824983853e-13  -1.4834765614417009e-13  1.9584386280189323e-01  2.0366224935140229e-01  3.8886719243743900e-01  -1.7291406172351918e-13  2.2517754305212132e-01  4.1567434726246499e-01  5.8648968379539013e-01  7.4124278319415160e-01  8.8060792924202258e-01  1.0000000000000615e+00  -1.4610618466590867e-13  -1.4507447778384572e-13  2.0641374279514502e-01  1.9355712521336257e-01  3.7728384033836981e-01  3.9106068417132706e-01  5.4828145855270061e-01  5.6175109533655643e-01  7.0785570779744589e-01  7.2022144704743807e-01  8.5725391759436287e-01  8.6744038651231081e-01  1.0000000000000882e+00  1.0000000000000890e+00  -1.4822487350391899e-13  -1.5017621784757110e-13  1.8257610319106762e-01  2.0104740728097611e-01  3.8312474486354636e-01  3.6232005770811682e-01  5.5347867169582665e-01  5.3244988746517941e-01  7.1354421030533632e-01  6.9344521980358098e-01  8.6363923223018058e-01  8.4660516625487248e-01  1.0000000000000859e+00  1.0000000000000842e+00  6.9807345976256707e-01  7.0094814188312626e-01  8.5306800002851813e-01  8.5490598865788259e-01  1.0000000000000675e+00  1.0000000000000644e+00  -1.7667746969957705e-13  2.0424717811423670e-01  3.9182517061619582e-01  5.6336104833549749e-01  7.2095407329034478e-01  8.6612174393032426e-01  1.0000000000000575e+00  -1.4303863836337197e-13  2.1344830904740067e-01  4.0002492748394886e-01  5.7068286259948875e-01  7.2805315971105244e-01  8.7271157358287677e-01  1.0000000000000910e+00  -1.6158841630685947e-13  2.0025138310219393e-01  3.8125705164279383e-01  5.5078063986192427e-01  7.1067213895415404e-01  8.6146806388055075e-01  1.0000000000000728e+00  -1.7329852350641679e-13  2.1896900535359198e-01  4.0830246571308548e-01  5.7920416912561334e-01  7.3498776524470810e-01  8.7653542857814370e-01  1.0000000000000611e+00  -1.7601612766929858e-13  -1.7313027170080572e-13  -1.7365667304460601e-13  1.8943202069036577e-01  2.0586533553162265e-01  2.0227230353680173e-01  3.6990759997035022e-01  3.8932957146516123e-01  3.8439280629755712e-01  5.4019129059424609e-01  5.5986259448238662e-01  5.5463604461951244e-01  7.0134086724040412e-01  7.1915095825126285e-01  7.1477988528734338e-01  8.5411463569056534e-01  8.6746090290874511e-01  8.6467139919135760e-01  1.0000000000000606e+00  1.0000000000000611e+00  1.0000000000000582e+00  -1.7149465747210944e-13  2.1179090489087876e-01  4.0073347800863324e-01  5.7186742755255582e-01  7.2813546640554561e-01  8.7087511002913476e-01  1.0000000000000628e+00  1.0000000000000704e+00  1.0000000000000699e+00  8.6519172514486620e-01  -1.7875207328509688e-13  1.9893311344803741e-01  3.8002430815616500e-01  5.5008644045659150e-01  7.1066972228100311e-01  8.6183704178699527e-01  1.0000000000000555e+00  -1.5166707660727113e-13  -1.4968543660163069e-13  1.9375101200044939e-01  1.9270929210291438e-01  3.7471689446035222e-01  3.7278794874105586e-01  5.4489724288007124e-01  5.4256780496392321e-01  7.0544538172308147e-01  7.0316196208928072e-01  8.5723226808983466e-01  8.5572277355105608e-01  1.0000000000000846e+00  1.0000000000000826e+00  -1.7818497253757661e-13  -1.7579420539445998e-13  -1.7591936220188778e-13  1.9058236830895789e-01  1.8300630982894175e-01  1.8817681285344057e-01  3.6949685999699011e-01  3.5938662230826324e-01  3.6461600354461110e-01  5.3935582388461334e-01  5.2866478533734151e-01  5.3381206022592909e-01  7.0105331480153132e-01  6.9123914388091068e-01  6.9662810819330756e-01  8.5507910572316426e-01  8.4789404342807617e-01  8.5307801718246468e-01  1.0000000000000584e+00  1.0000000000000560e+00  1.0000000000000584e+00  -1.5960254189748893e-13  1.9501964555200993e-01  3.7523721948320871e-01  5.4462195542502889e-01  7.0490615041797777e-01  8.5714992330152950e-01  1.0000000000000748e+00  -1.7435604276463525e-13  -1.7139308455009249e-13  1.9817270613744112e-01  2.1262688197515164e-01  3.8095240320686441e-01  3.9972713061651982e-01  5.5133287391838104e-01  5.7050779706196242e-01  7.1076128988578624e-01  7.2771932783373616e-01  8.6039789792260779e-01  8.7209397079271200e-01  1.0000000000000631e+00  1.0000000000000600e+00  -1.7909811313734633e-13  -1.7744306312887037e-13  -1.7963892644234168e-13  2.2379070373106472e-01  2.2768826202685047e-01  2.0633544228808887e-01  3.9477496481601909e-01  -1.4806949327714885e-13  1.9895535998284494e-01  3.8081631941198790e-01  5.5139567383227295e-01  7.1174725705517128e-01  8.6284014554893051e-01  1.0000000000000862e+00  -1.7429974556682894e-13  2.1754339620591431e-01  4.0699087345938439e-01  5.7827058791434938e-01  7.3423400489318280e-01  8.7588525319594179e-01  1.0000000000000600e+00  -1.6651372930075191e-13  -1.6416317083811122e-13  1.8837663258817308e-01  1.9090813924616531e-01  3.6810724433253450e-01  3.7254999047079335e-01  5.3775668076414718e-01  5.4261095907467138e-01  6.9845067130260219e-01  7.0253220848621056e-01  8.5181756982781087e-01  8.5425845061274408e-01  1.0000000000000702e+00  1.0000000000000679e+00  -1.7107237985034210e-13  2.1802787481352928e-01  4.0518754907528776e-01  5.7575406755406278e-01  7.3256699889932519e-01  8.7595135337555174e-01  1.0000000000000633e+00  -1.5650335154253867e-13  -1.5709641985853224e-13  1.9345127539760068e-01  1.9486615853887565e-01  3.7388074814018324e-01  3.7527268563774058e-01  5.4361931113162165e-01  5.4495526279402617e-01  7.0422629471420506e-01  7.0536388251865245e-01  8.5649335141925831e-01  8.5738316944021653e-01  1.0000000000000773e+00  1.0000000000000779e+00  5.5964314290606065e-01  7.1783355220226808e-01  8.6484439776584843e-01  1.0000000000000839e+00  -1.6194068518646348e-13  1.9022106124786395e-01  3.6861187229024867e-01  5.3791647874213600e-01  6.9922030699899884e-01  8.5363806696688638e-01  1.0000000000000722e+00  -1.6392714058102650e-13  -1.6199546407109439e-13  1.9228731526633910e-01  2.0469699429393995e-01  3.7316362752446980e-01  3.8646778022757267e-01  5.4298710904930259e-01  5.5604781481213128e-01  7.0324716472760884e-01  7.1555717073728320e-01  8.5515562352290531e-01  1.0000000000000724e+00  -1.4695290595136049e-13  2.0409843442053144e-01  3.8898149523909237e-01  5.5989250922865219e-01  7.1867617064445899e-01  8.6637806389825422e-01  1.0000000000000873e+00  -1.5246908295726295e-13  1.9576218517338195e-01  3.7574695074709280e-01  5.4517258608579489e-01  7.0556355326188303e-01  8.5785471766165466e-01  1.0000000000000819e+00  -1.5571561724110438e-13  2.0120015541275607e-01  3.8388027758951715e-01  5.5414910912076221e-01  7.1379364071704476e-01  8.6348903881146610e-01  1.0000000000000784e+00  1.0000000000000790e+00  -1.7627584466012279e-13  2.2478972595368199e-01  4.1535774811423742e-01  5.8634781863987262e-01  7.4119318872370343e-01  8.8056071119559420e-01  1.0000000000000580e+00  1.0000000000000617e+00  1.0000000000000608e+00  1.0000000000000602e+00  -1.6504717043400096e-13  -1.6401837129031448e-13  -1.6338723213882939e-13  1.8699003223842783e-01  1.8919643053479482e-01  1.8752367314663723e-01  3.6526721541212664e-01  3.6760395089224907e-01  3.6577308931128788e-01  5.3464226282733152e-01  5.3687720102103542e-01  5.3506480819894997e-01  6.960988480121536