<?xml version="1.0"?>
<VTKFile type="UnstructuredGrid"  version="0.1"  >
<UnstructuredGrid>
<Piece  NumberOfPoints="957" NumberOfCells="4084">
<Points>
<DataArray  type="Float64"  NumberOfComponents="3"  format="ascii">2.732335376117434 1.66638585452141 1.290071810752866  2.722950465402513 1.820323141355819 1.239402432854118  2.840498700174469 1.747052140861566 1.257027532418624  2.838006570746491 1.727167329260977 1.198873334768759  2.719543608276602 1.800481269578528 1.181166422553479  2.729195632697138 1.64624814321405 1.230829993240138  2.835580694609585 1.707288046412273 1.140678693780197  2.71616071225073 1.780646286974157 1.122890738777097  2.726089635822877 1.626100368369329 1.171540583342557  2.83318058012887 1.687406608899301 1.082457210156879  2.712782907055408 1.76080999128512 1.064592257678306  2.722991246875437 1.605947501501507 1.112217682646655  2.830762850662639 1.667530216772567 1.024211737039129  2.709384556216063 1.740973452585005 1.006273502290385  2.719871850186728 1.585806611846631 1.052859343882602  2.828277939249429 1.647667016352889 0.9659291587650127  2.705938789081356 1.721139543619658 0.9479202003588051  2.716700401368031 1.56569893092354 0.9934447301293239  2.825663071658508 1.627820563046296 0.9075814962504192  2.702416814164366 1.701303766422468 0.8894957279824569  2.713439913092545 1.545643363543238 0.9339231979165886  2.836457456246591 2.198102385851322 1.089313687146886  2.933066974147376 2.338165343377995 1.027752844124886  2.973111473277982 2.222660469096899 1.077802056503666  2.972784870544727 2.198295994895777 1.01983875408022  2.933484481343144 2.311532721631965 0.9683490439959253  2.835372706457253 2.172952000431572 1.031449236443224  2.9725872222452 2.173963856469749 0.9618821319754185  2.93404360585803 2.284923708610853 0.9089593426763549  2.834379098853268 2.147825860753317 0.9735850551530009  2.972443044596548 2.149637070851713 0.9039463243651543  2.93465979793192 2.258318078335722 0.8496024521346129  2.833420794655984 2.122704334342985 0.9157349101669681  2.972287016830208 2.125300820080722 0.8460423211270423  2.935260902390191 2.231702612399366 0.7902846178467867  2.832445579065267 2.097571543139338 0.8579073770583727  2.97204228109773 2.100934855932785 0.7881782133170603  2.935767690024595 2.205060063479256 0.7310132499191299  2.831394180698538 2.072404908479665 0.8001082484447872  2.971596483834642 2.076496006110401 0.7303676899027021  2.936069352598302 2.178355430811687 0.6718005806286018  2.830195163807304 2.047154916570473 0.7423418086211161  3.087019441450381 2.169663283727971 1.097883590246876  3.054059112763204 2.321715262458607 1.036045596114644  3.187519907526141 2.289427642784629 1.046595506300232  3.185645991976933 2.265129607646258 0.9881490553775447  3.053736913319741 2.296328283932687 0.9770029345215313  3.085707766328044 2.147017349000541 1.04038097338391  3.084514829438119 2.124402722871118 0.9828862879531109  3.053549845220674 2.270982838530896 0.9180019365133346  3.18388093080473 2.240869073922777 0.9297470253317902  3.182164075620565 2.21662174164921 0.8713853098580211  3.0534224662097 2.24564171845863 0.8590355104975785  3.083377163546451 2.101800806206189 0.9254240528469513  3.180441172421088 2.192373447692473 0.8130767961851039  3.053286540503378 2.220293828688467 0.8001159820623344  3.082231269320364 2.079190643909028 0.8679942714521677  3.178646930291358 2.168107773816459 0.7548367694593585  3.053062872415957 2.194924822883837 0.741254369847399  3.081002110608333 2.056556207900003 0.810609273403735  3.176696096698505 2.143802674323737 0.6967010390369202  3.05263292494478 2.169511092013469 0.6824808300697491  3.079585694830139 2.033862768988044 0.7532908468811224  2.118907520557077 2.67724748322519 0.8470006506761207  2.19583443823808 2.573452765945556 0.8991103911558596  2.070273019548794 2.52343715427923 0.9166980903556573  2.077208127614695 2.491681784506147 0.8542569484135906  2.199429290588021 2.542699787354559 0.8345041951557164  2.125450536385045 2.650552308857423 0.7783874443569118  2.084228372063889 2.459929441115712 0.7918101052519506  2.203073756797999 2.511930167632984 0.7699022569415455  2.132047484966462 2.623860374521235 0.7097680158711294  2.091309696443829 2.42817191462057 0.7293444567480498  2.206762393153269 2.481146284019566 0.7052953530345101  2.138688240551299 2.597153223454984 0.6411420388328762  2.098405878253355 2.396382824226297 0.666863726493951  2.210460526711067 2.450332908175924 0.6406866359196753  2.145338057588504 2.570416921211812 0.5725093020396307  2.2141432702173 2.41947260597458 0.5760881894727927  2.151975161561757 2.54363072963142 0.5038786083698077  2.105480523071096 2.364531772707808 0.6043832905397021  2.217814273094299 2.388573858465132 0.511499864372764  2.158591598856997 2.516787160055554 0.4352473389606409  2.112496061153375 2.332621344659554 0.5419222933460909  2.922441510566666 1.993031037938122 1.168084460005123  3.039465070876777 1.926748248910554 1.188451943375137  2.968016789682111 1.833903506421042 1.222795298772328  2.966210915395237 1.814018124402225 1.165701739470076  3.038049367238037 1.906679300046185 1.13168292043173  2.92043880460831 1.972346928599854 1.11086116479221  2.918528943198429 1.951685010424158 1.05361909001514  3.0367561378042 1.886630368146145 1.074895881266981  2.964509206915313 1.794148825209307 1.108572000423656  2.916657261331845 1.931025308861308 0.9963740079968451  3.035517150489802 1.866582159648579 1.01810566730666  2.962851431645515 1.774280138996774 1.051427497265887  3.034267310051298 1.846526656562103 0.9613197890285549  2.914771955952282 1.910355596814184 0.9391333393780477  2.961179363357724 1.754407986504537 0.9942720782877388  3.032930877421286 1.826453709970514 0.9045338749358894  2.912813800635992 1.889660340635979 0.8818934443589579  2.959426701852094 1.73452823455821 0.937095697481701  3.03140881034506 1.806342464514167 0.8477371617888037  2.910704264356507 1.868911132043669 0.8246353463620641  2.95750911882058 1.714623260668019 0.8798769438442655  2.364546205299263 2.068719226109992 1.167084175005611  2.451092077502237 2.182216092197378 1.110734044669502  2.488677200063918 2.032695312667722 1.175186548539333  2.485844062163256 2.008934583906315 1.117808948857671  2.449441214418546 2.154950123677402 1.053289534029942  2.362997380912755 2.043352025486791 1.109986929677849  2.361466665049976 2.01801429527365 1.052872437819488  2.447804067667725 2.127701693210768 0.9958432681704744  2.483008074496295 1.98519793697831 1.06042070814903  2.35993080246027 1.992698878405088 0.9957369509284891  2.44617335071305 2.100464911806218 0.9383924378470571  2.480161652458699 1.961471322232308 1.003024513077387  2.358382171398155 1.967365728763672 0.9385867948010616  2.444524045881999 2.07322326773683 0.8809395090936363  2.477288177126619 1.937745248034914 0.9456245087069159  2.356816375911399 1.941964408472779 0.881426426574328  2.442855690962623 2.045922394464775 0.8234977546541681  2.474386062912941 1.913991921387302 0.8882213142052765  2.355227565946931 1.916457686186253 0.824274762704548  2.441185204937754 2.018520452942468 0.7660837049803439  2.471500021928948 1.890136763405394 0.8308123058552099  1.967923772750005 2.765259219687525 0.8005168680356354  2.088494630778945 2.838099868570146 0.7939117251041017  2.095955383625021 2.820162101872163 0.719507816543224  1.976665887136422 2.742878418031831 0.7289333607915079  2.103441356502187 2.802237931292414 0.645075726115541  1.98542861779578 2.720535438997742 0.6573152808281676  2.110953053519659 2.78430287852431 0.570628280322389  1.994218609883174 2.69819201673198 0.5856795647068795  2.118481190863415 2.766331090302081 0.4961738402504334  2.003022165301376 2.675815681469836 0.5140398854337139  2.126009185574161 2.748307128374866 0.4217093191176032  2.011830125236649 2.653378704013409 0.442406411488836  2.133527311181422 2.730214363815299 0.3472312025938356  2.020639779157163 2.630865880494651 0.3707713310798063  1.98699593003604 2.617640535477223 0.8571944475943436  1.995586548463049 2.588494408211781 0.7911351303720763  2.004244362263143 2.559366051282113 0.7250596732778495  2.012952364254797 2.530234923718383 0.6589712844477592  2.021670651642575 2.50107314087028 0.592874441712404  2.030372460250682 2.471850019459769 0.5267842947139179  2.03903991811308 2.442557603954822 0.4607045692196943  2.833823160162062 1.897446599888609 1.20698266505497  2.831007992040145 1.877192144730455 1.149526460129607  2.82824876913051 1.856953244971137 1.092031164120068  2.825514266357088 1.836714536945205 1.034516403069451  2.822764035321357 1.816470131476002 0.9769906491386641  2.819954446840018 1.796213517891558 0.9194463416659968  2.817032387853741 1.775928153957172 0.8618657104663962  1.84469926846706 2.695714920688769 0.8067931298169893  1.819042298760024 2.838060306836959 0.7615399800580729  1.829725830752271 2.819531853528904 0.6879778790914136  1.855468322678071 2.670263646384384 0.7379579093511437  1.840387258333107 2.801085990720838 0.6143685896269317  1.866265953402304 2.644880624776716 0.6690776645812306  1.851049727449759 2.782664253358939 0.5407330111067282  1.877093478288635 2.619511581954785 0.600173857570245  1.861713703152364 2.764225190942577 0.4670908977014412  1.887924733590141 2.594118387060712 0.5312633137401548  1.87239842418221 2.745719889813964 0.3934654489283201  1.898758319850341 2.568652691804703 0.4623732882983823  1.883149813874271 2.727098135876559 0.3198752603698288  1.90960143920452 2.543080396821133 0.3935093668372004  3.370011380523691 1.682275792562697 0.8985533884378724  3.205151509865623 1.658744304136452 0.901926897397837  3.31899657890981 1.574918573308962 0.9369550049963675  3.20528704739778 1.679447115783285 0.9577184909429864  2.625838839706284 1.73555469654092 1.273994355985354  2.621794032435346 1.715732915079366 1.214885210231872  2.617748567245513 1.695905056203223 1.155736670965698  2.613691527690761 1.67607184480461 1.096556089487759  2.609608759672883 1.65624649681362 1.037346523194
[...]
<PointData  Scalars="f_14"> 
<DataArray  type="Float64"  Name="f_14"  format="ascii">-1.8850266210100751e-13  -1.8884853512747103e-13  -1.8659841236570626e-13  1.6990312342706568e-01  1.6438542959264277e-01  1.7155642169948154e-01  3.3754871953431892e-01  3.2953530357211536e-01  3.4066729109740651e-01  5.0416617120048257e-01  4.9526557456382964e-01  5.0793570124870646e-01  6.7013754383467250e-01  6.6179019422796759e-01  6.7354688481600833e-01  8.3565203478994310e-01  8.2956622575999461e-01  8.3761650586563086e-01  1.0000000000000473e+00  1.0000000000000451e+00  1.0000000000000455e+00  -1.8697069804998710e-13  -1.8517210995738343e-13  -1.8438410505539228e-13  1.6110185990085607e-01  1.6488443715267140e-01  1.6351178182073703e-01  3.2419990379267966e-01  3.3087349742560407e-01  3.2743562250096359e-01  4.8921874684503514e-01  4.9729401168053772e-01  4.9281512854308818e-01  6.5630807994861673e-01  6.6416009869112280e-01  6.6002271275890179e-01  8.2600471785338436e-01  8.3160251867705026e-01  8.2927249554688065e-01  1.0000000000000497e+00  1.0000000000000488e+00  1.0000000000000471e+00  -1.8222599881787998e-13  -1.8288563550613783e-13  -1.8037751487308976e-13  1.6015592253215696e-01  1.6038780281903384e-01  1.5925550633444027e-01  3.2153175893873720e-01  3.2430894327108317e-01  3.2306164288752803e-01  4.8805241944311623e-01  4.8980625008949430e-01  4.8617789880971962e-01  6.5517735540434208e-01  6.5675664019749225e-01  6.5341479408637837e-01  8.2504795924800034e-01  8.2570955840384075e-01  8.2402334234164065e-01  1.0000000000000537e+00  1.0000000000000511e+00  1.0000000000000517e+00  -2.0052983467031778e-13  -1.9906374385544463e-13  -2.0125953337117041e-13  1.6620426405698135e-01  1.7766468737303320e-01  1.8411753278194284e-01  3.3466187691862465e-01  3.4975400791014494e-01  3.5934869533970776e-01  5.0204256828580807e-01  5.1825659541796798e-01  5.2857620023331198e-01  6.6790681059361479e-01  6.8345152070666537e-01  6.9234132095453293e-01  8.4493585293653539e-01  8.5036293035218469e-01  8.3248731265361831e-01  1.0000000000000349e+00  1.0000000000000335e+00  1.0000000000000329e+00  -1.8525804253514334e-13  -1.8300710492768332e-13  -1.8429392828670125e-13  1.6682495167435896e-01  1.6422264833894673e-01  1.6345697483587487e-01  3.2727589859812811e-01  3.2914628737515650e-01  3.3292483977824661e-01  4.9233113982577392e-01  4.9471404192498930e-01  4.9885401465571411e-01  6.6129247110661316e-01  6.5913980866575927e-01  6.6495474556415046e-01  8.2933791032047188e-01  8.2822180658451361e-01  8.3170874707643994e-01  1.0000000000000511e+00  1.0000000000000486e+00  1.0000000000000497e+00  -1.9560560959760186e-13  -1.9413625962494080e-13  -1.9333925509052930e-13  1.5598866210498333e-01  1.5510669226545298e-01  1.4938216577382488e-01  3.0658169775511102e-01  3.1477391180304215e-01  3.1547970191135094e-01  4.6898430219569481e-01  4.7840049942313323e-01  4.7880149597401672e-01  6.3676083340567513e-01  6.4630523333633827e-01  6.4643738268878081e-01  8.1145354752594312e-01  8.1943191772863522e-01  8.1935367362163958e-01  1.0000000000000384e+00  1.0000000000000397e+00  1.0000000000000406e+00  -2.0336355532415577e-13  -2.0119217127609500e-13  1.8759482167446245e-01  1.8514442805858650e-01  3.6591734261455794e-01  3.6178438434142846e-01  5.3569177593911932e-01  5.3129817987737937e-01  6.9772288569899044e-01  6.9420307585977004e-01  8.5226656640995535e-01  8.5082343978309249e-01  1.0000000000000329e+00  1.0000000000000306e+00  -2.0288102679301235e-13  1.8149301615549249e-01  3.5493035763556874e-01  5.2371284853286726e-01  6.8837114179858183e-01  8.4853844994834882e-01  1.0000000000000313e+00  -1.8686085406299844e-13  1.6262447035985303e-01  3.2693269087635157e-01  4.9224272843753181e-01  6.5882092444692597e-01  8.2734470906932356e-01  1.0000000000000471e+00  -2.0556920495189719e-13  -2.0616504663904853e-13  1.8494338872520133e-01  1.8401941116132106e-01  3.6342109115648824e-01  3.5940529881791167e-01  5.3318735179386478e-01  5.2842272738657958e-01  6.9492594540574038e-01  6.9153267520950668e-01  8.4965915283830762e-01  8.4880833495009322e-01  1.0000000000000280e+00  1.0000000000000286e+00  1.0000000000000573e+00  1.0000000000000542e+00  1.0000000000000564e+00  8.3419764553125753e-01  -1.9053543063661821e-13  1.6707124321657124e-01  3.3387439006965886e-01  5.0035136485969622e-01  6.6665243216706382e-01  8.3304169776947889e-01  1.0000000000000435e+00  3.2695452281369514e-01  3.3362234723060119e-01  3.3549307608501594e-01  1.6248276340638348e-01  1.6742339304735723e-01  5.0184507438163606e-01  4.9234544673471398e-01  4.9963890225281682e-01  6.6801108686944810e-01  6.5887544312987323e-01  6.6594777677180061e-01  8.2718662872711501e-01  8.3282002820082579e-01  1.0000000000000555e+00  1.0000000000000526e+00  -1.8787839175144994e-13  1.6688302985603637e-01  3.3338183336027255e-01  4.9998328504694284e-01  6.6678836549065912e-01  8.3364940679270172e-01  1.0000000000000462e+00  -2.0423205506414370e-13  1.9830071235092089e-01  3.7878780949230240e-01  5.4871438319626342e-01  7.0956933331112815e-01  8.6137998248013492e-01  1.0000000000000300e+00  6.6300959151809236e-01  8.3057677554486720e-01  -1.8245618176830179e-13  -1.8458735069049529e-13  1.7046256750589428e-01  1.7096745132830143e-01  3.3920808078272158e-01  3.3932716446689581e-01  5.0607672394877556e-01  5.0632376874601537e-01  6.7193699243168470e-01  6.7161666294779698e-01  8.3687790716949984e-01  8.3565011978199844e-01  1.0000000000000515e+00  1.0000000000000493e+00  1.6374293092375922e-01  3.2805938390431971e-01  4.9332744355930114e-01  6.5996168847268966e-01  8.2847593110968187e-01  1.0000000000000535e+00  -1.9520027849783578e-13  1.5614779534078596e-01  3.1589778421159959e-01  4.7941875426318098e-01  6.4724217865582756e-01  8.2034077789138482e-01  1.0000000000000389e+00  -1.7971100665651709e-13  -1.7824336076856212e-13  -1.7759639180213759e-13  1.5806061879584707e-01  1.6124558288714469e-01  1.5903626281133232e-01  3.2000420649125011e-01  4.8441713327278002e-01  6.5148385331135450e-01  8.2206420254390844e-01  1.0000000000000544e+00  -1.8920796450597377e-13  -1.8744676583732533e-13  -1.8898233495321349e-13  1.6122923838405012e-01  1.6214763176258873e-01  1.5910475878464092e-01  3.2419442887799121e-01  3.2528892450269226e-01  3.2091299555236430e-01  4.8901550211729977e-01  4.9014574738023481e-01  4.8526801453838597e-01  6.5606242417410243e-01  6.5716942300983727e-01  6.5251149098541861e-01  8.2591082658813098e-01  8.2691914038409808e-01  8.2342498810640752e-01  1.0000000000000451e+00  1.0000000000000466e+00  1.0000000000000449e+00  -1.9191667160683117e-13  -1.8978685109491525e-13  -1.9214474515404674e-13  1.6710957479077423e-01  1.7177175888969887e-01  1.7642767585334865e-01  3.3407122562262209e-01  3.4100382686525260e-01  3.4858567857095674e-01  5.0085399554908960e-01  5.0867022353692726e-01  5.1726541500494472e-01  6.6753537795607265e-01  6.7473930915856495e-01  6.8253008738243370e-01  8.3398075079247813e-01  8.3881846158831230e-01  8.4395848737813084e-01  1.0000000000000417e+00  1.0000000000000442e+00  1.0000000000000422e+00  1.7720661814992461e-01  3.4874947304462944e-01  5.1690685553372062e-01  6.8198277795878637e-01  8.4374644562641277e-01  1.0000000000000435e+00  6.8054038723506183e-01  6.7025897924984945e-01  8.3474936618705109e-01  8.4253146251435995e-01  1.0000000000000533e+00  1.0000000000000513e+00  3.4295029667554489e-01  3.4931323685782051e-01  5.1087062751977608e-01  5.1849253843148557e-01  6.7665648391820854e-01  6.8335471778464407e-01  8.4000218166296092e-01  8.4372586794335336e-01  1.0000000000000471e+00  -1.9744733370331229e-13  1.5249288815552425e-01  3.1028186432058175e-01  4.7288455923709061e-01  6.4091417512123749e-01  8.1560683231320508e-01  1.0000000000000364e+00  -1.9116108367481795e-13  1.5690031306732566e-01  3.1782873088254704e-01  4.8184309576784318e-01  6.4923780903036143e-01  8.2099734655339873e-01  1.0000000000000429e+00  1.7050867582228396e-01  3.3920058774070072e-01  5.0638759841515857e-01  6.7222287244612411e-01  8.3676348720879490e-01  1.0000000000000417e+00  -1.8275650355985368e-13  1.7627468584254855e-01  3.4752968994342143e-01  5.1548862003978091e-01  -1.9399888201143848e-13  1.7219836757185425e-01  3.4195964911241150e-01  5.1004696440888952e-01  6.7643249482254275e-01  8.4067087443075117e-01  1.0000000000000400e+00  -1.9830652252627175e-13  -1.9639556046514510e-13  -1.9708693672201621e-13  1.8201866135130565e-01  1.7822991394877843e-01  1.8447522823888521e-01  3.5528685074657118e-01  3.5280779797788875e-01  3.5940512851400686e-01  5.2407445271773334e-01  5.2189202197527262e-01  5.2852325678919876e-01  6.8891356894918820e-01  6.8530908208334418e-01  6.9226081151142949e-01  8.4900717751624943e-01  8.4359230235485494e-01  8.5052030714806659e-01  1.0000000000000369e+00  1.0000000000000377e+00  1.0000000000000357e+00  -1.9094504604226639e-13  1.6220255135583564e-01  3.2569155086140039e-01  4.9080636997620275e-01  6.5787139317420895e-01  8.2735814375565320e-01  1.0000000000000431e+00  4.9684437467117570e-01  5.0475534387749377e-01  5.0801351716132370e-01  3.3792969140208395e-01  3.3098490088000176e-01  6.7386173306214314e-01  6.6359976060791137e-01  6.7090101346350095e-01  8.3826265890223917e-01  8.3148669983997847e-01  8.3648758637916898e-01  1.0000000000000377e+00  1.0000000000000373e+00  1.0000000000000355e+00  8.4156567244547853e-01  1.0000000000000375e+00  1.0000000000000286e+00  1.0000000000000269e+00  1.0000000000000531e+00  -1.9167505027055008e-13  1.5582213678688187e-01  3.1631876411760995e-01  4.8025238603386505e-01  6.4782549954730084e-01  8.2001284119015116e-01  1.0000000000000422e+00  -1.9855397342122853e-13  1.8297365037464516e-01  3.5979221458874933e-01  5.2951162481290526e-01  6.9256632250479233e-01  8.4930397996648599e-01  1.0000000000000355e+00  -1.9844467154856101e-13  1.6944221976171614e-01  3.3750816726798261e-01  5.0484124037220257e-01  6.7148614840391541e-01  8.3709303846135430e-01  1.0000000000000355e+00  1.7863190562656373e-01  1.8435227260688347e-01  1.8799356916335272e-01  -1.9452411066459307e-13  3.6428101849709155e-01  3.5467830522277383e-01  3.5870475637751342e-01  1.0000000000000397e+00  1.0000000000000395e+00  1.0000000000000415e+00  8.5088441228911627e-01  -1.9313069816180031e-13  1.5695939599690714e-01  3.1787284375192715e-01  4.8177470977476544e-01  6.4903541468392012e-01  8.2060777198939794e-01  1.0000000000000409e+00  -1.8904749677432929e-13  -1.8999426071751718e-13  1.6690738651074566e-01  1.5914182146235331e-01  3.3298478028865097e-01  3.2196771213745246e-01  4.9951081281957521e-01  4.8693706197837250e-01  6.6663758513373861e-01  6.5414006573319661e-01  8.3416975035235086e-01  8.2420637890480120e-01  1.0000000000000440e+00  1.0000000000000449e+00  3.4877942074698437e-01  5.1738633655072608e-01  6.8201045978588226e-01  8.4275647594628311e-01  1.0000000000000417e+00  -1.8252619969547865e-13  -1.8005443414004320e-13  1.6194770115103047e-01  1.6231572114147944e-01  3.2499346076768570e-01  3.2579626489322994e-01  4.8973965712483497e-01  4.9083875463039212e-01  6.5666694031368611e-01  6.5782941278279383e-01  8.2637029616464963e-01  8.2726746878338286e-01  1.0000000000000540e+00  1.0000000000000515e+00  -1.9708461701641103e-13  1.5754666396349123e-01  3.1847163613579804e-01  4.8243343926765503e-01  6.4987640758140963e-01  8.2164932258879875e-01  1.0000000000000369e+00  -1.9166073076829516e-13  1.6037610244340605e-01  3.2350923165923223e-01  4.8877328919791946e-01  6.5630486587524373e-01  8.2642580987327419e-01  1.0000000000000422e+00  -1.8459381082549554e-13  1.8111473577533277e-01  3.5419465720317339e-01  5.2259907809793782e-01  6.8687079026303244e-01  8.4684251796452514e-01  1.0000000000000493e+00  -1.8709400872263657e-13  1.5947603893639739e-01  3.2191419897759171e-01  4.8653163544354305e-01  6.5356443751312665e-01  8.2371055294518214e-01  1.0000000000000469e+00  -1.8049655777023449e-13  6.5880784383485269e-01  6.5942461113713580e-01  8.2817800976567180e-01  8.2855928522580602e-01  1.0000000000000562e+00  1.0000000000000582e+00  -1.8649357450225456e-13  1.7286065357174440e-01  3.4341099484696841e-01  5.1114836489111792e-01  6.7613384867794157e-01  8.3872865304886157e-01  1.0000000000000475e+00  -2.0078491044998662e-13  1.6199658983268347e-01  3.2663579192125408e-01  4.9261678178060764e-01  6.5976684223731197e-01  8.2830132589805627e-01  1.0000000000000333e+00  -1.9632487151582045e-13  -1.9468426495434239e-13  1.6138421521075302e-01  1.6681710559707047e-01  3.2572710864667431e-01  3.3506745279716660e-01  4.9168365696019273e-01  5.0257558694516746e-01  6.5910532307790148e-01  6.6917311472336394e-01  8.2824323528097632e-01  8.3472950857431782e-01  1.0000000000000393e+00  1.0000000000000377e+00  1.6252752068403750e-01  1.6769509395719104e-01  1.6236719385852533e-01  -2.0111648235745716e-13  3.2815879893182620e-01  3.2643993717688752e-01  3.3187595290250177e-01  4.9416365910351440e-01  4.9176913934864885e-01  4.9725184603056033e-01  6.6035678569556666e-01  6.5885060428679865e-01  6.6479985991359447e-01  8.2756059659427550e-01  8.2787461954179009e-01  8.3447191380960817e-01  1.0000000000000333e+00  1.0000000000000351e+00  1.0000000000000331e+00  -2.0921587749414244e-13  -2.0948778409640592e-13  -2.0704931069450627e-13  1.6444244355480339e-01  1.7373069285617643e-01  1.6569165165519381e-01  3.2920579523600185e-01  5.3379725356975960e-01  5.2781660460972990e-01  6.9714735102596692e-01  6.9215274847881192e-01  -1.9923016452140752e-13  1.5526021348466404e-01  3.1457289232033048e-01  4.7789160769365702e-01  6.4574704555730922e-01  8.1932085192091264e-01  1.0000000000000349e+00  -1.9891026122070435e-13  -1.9629679208245139e-13  -1.9439925934489165e-13  -1.9430513742760456e-13  1.6745855845594432e-01  1.7182625192024137e-01  1.7431876481348571e-01  3.3412997986176951e-01  3.4073779431397211e-01  3.4485189581909165e-01  5.0046529588523725e-01  5.1260312343467229e-01  6.6673840928101302e-01  6.7778258198134134e-01  8.3315592950890394e-01  8.4042450281378056e-01  1.0000000000000395e+00  1.0000000000000397e+00  -1.9660456061709863e-13  1.6558776416637164e-01  1.8611197893197812e-01  3.6409392662698431e-01  -1.9880699427249756e-13  1.6277371293764153e-01  3.2662882426269074e-01  4.9236941976039295e-01  6.6013404619489369e-01  8.2989780052625794e-01  1.0000000000000353e+00  -1.9674126968337755e-13  1.6003654698193598e-01  3.2334957106058665e-01  4.8895267590524072e-01  6.5669840830250437e-01  8.2682576554424680e-01  1.0000000000000373e+00  -2.0214579269214474e-13  -2.0081139595263740e-13  -1.9998525684650236e-13  1.5009227006915102e-01  1.5128416553131269e-01  1.5049555499705775e-01  3.0658934871968030e-01  3.0926375061286732e-01  3.0752302322400993e-01  4.6876556484332133e-01  4.7221478050373550e-01  4.6993945538208781e-01  6.3708871209742790e-01  6.4038962934072274e-01  6.3819350705886602e-01  8.1290316572214050e-01  8.1489090079366067e-01  8.1345798595413954e-01  1.0000000000000340e+00  1.0000000000000333e+00  1.0000000000000320e+00  -2.0341941326920448e-13  -2.0360609070163118e-13  1.5273287596586829e-01  1.5757674960355234e-01  3.1207339122688582e-01  3.1965813119562791e-01  4.7536038209374643e-01  4.8416250380850390e-01  6.4275576766462172e-01  6.5102974526007740e-01  8.1553115868220361e-01  8.2122563390464010e-01  1.0000000000000304e+00  1.0000000000000306e+00  -2.0145387155486053e-13  -1.9954206705329339e-13  1.4782587387104393e-01  1.4977316725615147e-01  3.0401989618200936e-01  3.0808814606305068e-01  4.6591115041830705e-01  4.7080688574407631e-01  6.3383466268776933e-01  6.3822655530555616e-01  8.0945673844773713e-01  8.1183490182889961e-01  1.0000000000000344e+00  1.0000000000000326e+00  -2.0502807911821409e-13  -2.0485981321744538e-13  -2.0291143907423215e-13  1.5699766777192814e-01  1.5872328509135628e-01  1.5647908556033763e-01  3.1675942083280256e-01  3.2141618729900695e-01  3.1715424625767596e-01  4.8058940502151409e-01  4.8644496033662593e-01  4.8127264696285305e-01  6.4899130850075781e-01  6.5378431404860848e-01  6.4908680070507696e-01  8.2239781382362365e-01  8.2403961104463042e-01  8.2129175443721614e-01  1.0000000000000311e+00  1.0000000000000293e+00  1.0000000000000291e+00  -1.9262309071885926e-13  1.6414890628885526e-01  3.2890854635323630e-01  4.9453700122959271e-01  6.6130252362527298e-01  8.2957862272003724e-01  1.0000000000000413e+00  -2.0702440318776645e-13  -2.0498614918737998e-13  1.7330942313957939e-01  1.7721429735436409e-01  3.4526054508164433e-01  3.4986877027456453e-01  5.1346847797666018e-01  5.1811925486461019e-01  6.7801015856415037e-01  6.8228767685253500e-01  8.3920359920024368e-01  8.4273920651996170e-01  1.0000000000000291e+00  1.0000000000000271e+00  -1.7783476225243690e-13  1.6316873855553976e-01  3.2675350438577938e-01  3.2108885151703703e-01  4.9179949534201423e-01  4.8558014759635709e-01  6.5277479359488422e-01  8.2350516023079423e-01  1.0000000000000564e+00  -1.8481647540559840e-13  1.5825199529742551e-01  3.2047659231693382e-01  4.8496401770448538e-01  6.5187460424712507e-01  8.2219945529842853e-01  1.0000000000000493e+00  -2.0250245024797182e-13  1.6100274221779395e-01  3.2349544442588929e-01  4.8853306146660197e-01  6.5644404889515606e-01  8.2732303962509990e-01  1.0000000000000315e+00  6.6400260248937848e-01  8.3138353013956501e-01  1.0000000000000311e+00  -1.9783573850398871e-13  1.5251399043035663e-01  3.0985575130220461e-01  4.7244974376697862e-01  6.4094007175002421e-01  8.1638446120013519e-01  1.0000000000000362e+00  -1.9481232613186720e-13  1.5969386055276666e-01  3.2213425085725866e-01  4.8678028453462130e-01  6.5393473200459007e-01  8.2430941352270259e-01  1.0000000000000391e+00  -2.0288324698548111e-13  1.6664534433556721e-01  3.3257215905579657e-01  4.9896485421516734e-01  6.6597295409737767e-01  8.3348326110040649e-01  1.0000000000000313e+00  -2.0752796665718929e-13  -2.0777246847459131e-13  -2.0512981977922438e-13  1.7406857808261531e-01  1.6267376369640840e-01  -1.9871648079497511e-13  -2.0046091812420037e-13  -1.9815021816008638e-13  1.5746287331560579e-01  1.5422542103899126e-01  1.5218082072755892e-01  3.1838164667310193e-01  3.1482155179951388e-01  3.1026279537044127e-01  4.8279501206811160e-01  4.7906511038727939e-01  4.7325922372193852e-01  6.5092486519449433e-01  6.4687422588170107e-01  6.4153533388044282e-01  8.2318526733657871e-01  8.1901215130194494e-01  8.1604584780863199e-01  1.0000000000000360e+00  1.0000000000000335e+00  1.0000000000000353e+00  -2.0171520726535161e-13  1.5470807275954165e-01  3.1220242101921591e-01  4.7479771918816649e-01  6.4328768396406277e-01  8.1869768357987271e-01  1.0000000000000324e+00  -2.0558400505270545e-13  1.5248421372186574e-01  3.1472786918417178e-01  3.4099890584870673e-01  4.7914195087022116e-01  5.0739458761981715e-01  6.4566940573146991e-01  6.7420390070000935e-01  8.1588631019128843e-01  8.4080066480647242e-01  1.0000000000000286e+00  1.0000000000000291e+00  -1.9589821837331050e-13  -1.9663658030215452e-13  1.5411582535852808e-01  1.5332712786907934e-01  3.1284054889682633e-01  3.1356510890703404e-01  4.7614870305896101e-01  4.7760580585525098e-01  6.4446850441426606e-01  6.4528229303298634e-01  8.1857852470735326e-01  8.1747884672633486e-01  1.0000000000000373e+00  1.0000000000000380e+00  -1.9229156410118162e-13  -2.0393019259907010e-13  1.5132510246560477e-01  3.0889051560770031e-01  4.7147745314502071e-01  6.3938234238775704e-01  8.1409811029881762e-01  1.0000000000000302e+00  1.0000000000000511e+00  3.5668524015085817e-01  5.2577417037658281e-01  6.8945257784179903e-01  8.4777524698618167e-01  1.0000000000000475e+00  -1.9365703032683161e-13  1.6013447385148852e-01  3.2266480866425445e-01  4.8770170440563615e-01  6.5532737269469932e-01  8.2590312005281619e-01  1.0000000000000402e+00  -2.0609308000669740e-13  -2.0430347132360247e-13  1.5006451116335104e-01  1.5260170298334386e-01  3.0794593738846554e-01  3.1258606452800830e-01  4.7078429956158813e-01  4.7600691713381937e-01  6.3879738401474706e-01  6.4308614632373506e-01  8.13