<?xml version="1.0"?>
<VTKFile type="UnstructuredGrid"  version="0.1"  >
<UnstructuredGrid>
<Piece  NumberOfPoints="949" NumberOfCells="4059">
<Points>
<DataArray  type="Float64"  NumberOfComponents="3"  format="ascii">5.402918909482917 2.243528021096917 1.011976667639334  5.379425003637693 2.39572027624683 0.9652633235387037  5.52907998028894 2.384025407040352 0.967173068745708  5.528517355552086 2.366840169578951 0.9080577412460787  5.379442180700587 2.378303046256443 0.9061339070510999  5.402511587187947 2.225100416277317 0.9547785402576925  5.527884766860235 2.349753976245521 0.8490118247953485  5.379385759153642 2.360989018890285 0.8470700676502831  5.402044930328969 2.206799338754962 0.8976158315746752  5.527229949671312 2.332741298224752 0.7900379684662701  5.379294484131769 2.343760454752045 0.7880955098821724  5.401576074500954 2.188585030357211 0.840482127496155  5.379213770547203 2.326574388442459 0.7291911674153402  5.401118772057029 2.170404199749932 0.7834250302977354  5.526590182123279 2.315768056950167 0.7311523117410365  5.379156133055583 2.309364839388086 0.6704093878308425  5.400687746811999 2.152177514004141 0.7264612484444326  5.525980785606465 2.298768697023315 0.6723846511595915  5.379151544468373 2.292045986493209 0.6117959524632721  5.400311186792324 2.133813827666956 0.6696428597822749  5.525436962987882 2.281660192244893 0.6137726776848073  4.786983214811 1.884382493512087 1.136928227852321  4.93053526947514 1.974278757717681 1.103738957629154  4.918641539883173 1.825513181575037 1.159212577780355  4.9189268104954 1.80361276479185 1.104190297393644  4.93121306909751 1.953886971893096 1.048330970320182  4.787735379935856 1.863156345683027 1.082395302734342  4.931917764285224 1.933602713808838 0.9929154703486526  4.78853528553343 1.842012900292067 1.02785440192556  4.91922538501619 1.781814266578224 1.049166729426529  4.789361040803463 1.820912176451162 0.9733274509871975  4.932637487215899 1.913384574854575 0.9375362973911328  4.919538122035306 1.760060157856438 0.9941538723866663  4.790197925639892 1.799815535276468 0.9188311513436032  4.933364214295916 1.893175493475659 0.8821969533341009  4.919862999122697 1.738310292134182 0.9391690015900327  4.791033157842948 1.778683081514852 0.8643789012579338  4.934089143802618 1.872925179651368 0.8269227385862782  4.920203343792782 1.716523236547463 0.8842295675230211  4.791854648643156 1.757470695748378 0.8099931187107831  4.934815738329742 1.852571999538611 0.7717419977978707  4.92057502102533 1.694648573667344 0.8293492615991598  4.78599486165572 2.023061793146026 1.082524463706253  4.894405497906132 2.101677550971678 1.057620330608495  4.895978814888014 2.081391306284647 1.001841604182173  4.787569576296042 2.002124784358094 1.027537175457687  4.89759029147333 2.061223216552628 0.9460836282988559  4.789202592880151 1.981285979116597 0.9725627473397975  4.790864905241028 1.960498541102514 0.9176094053394569  4.899221538169881 2.041123121979065 0.8903517723862977  4.900854844509192 2.021041339676754 0.8346686302438545  4.792531748614952 1.93972347410594 0.8627050646639375  4.902470702141046 2.000923657905195 0.7790650167617523  4.794179000234265 1.918912872925146 0.8078689591053233  4.904056002385256 1.980699422187433 0.723581879406672  4.795777236717369 1.898007180447521 0.7531392563304993  5.578501448909284 1.728299400042676 1.214746759453062  5.597376131098953 1.865165419991613 1.150717872153484  5.715482288840001 1.808672219723738 1.186793918789053  5.72115317674027 1.782864678069984 1.133586320672846  5.600103805792603 1.841514489553034 1.096350232387745  5.58289992551788 1.701389878246826 1.161444129561497  5.60286776988926 1.817963762113207 1.041939471370682  5.587362997065465 1.674556352895244 1.108086590115903  5.726960588019788 1.757130015107042 1.080351568204795  5.605658582640483 1.794457857334943 0.9875329293090331  5.591859012409835 1.64775478298721 1.054716226152935  5.732830620289239 1.731435778736612 1.027129080376793  5.608452728405335 1.770952963057502 0.9331540035358822  5.596353758702639 1.62094985067334 1.001355171958211  5.738698081081012 1.705745771176436 0.9739354372221452  5.611225306401502 1.747402107195155 0.8788126690771674  5.600814098538505 1.594104436684286 0.9480071216415143  5.744498762362547 1.680019088604944 0.9207708986368014  5.605212527770016 1.567171194546637 0.8946709443601256  5.613965230776102 1.723735995182972 0.8245025656531825  5.750166290714558 1.65419791524968 0.8676188329369396  6.24788326942454 1.738984873881676 0.9708556690154542  6.362021348657262 1.670975207165629 1.025143868334318  6.203691911658977 1.609156108004659 1.034829802672502  6.256690422743075 1.710775936506654 0.9200054559464246  6.370142224470033 1.640945212756055 0.9749623108460997  6.213077794410689 1.578873326829883 0.9850190553148758  5.133341453516713 2.418936475347998 0.9534801298832076  5.075301733863841 2.524182671726107 0.9185292413105022  5.218897387525037 2.552904144775617 0.916385428331101  5.221427900211205 2.535264716656441 0.8546034036229342  5.079183363385154 2.505051382985989 0.8572939742547334  5.135365851474166 2.399907777529987 0.89409507716287  5.223946174028836 2.517688894905021 0.792940573942134  5.083071017849179 2.485988739381323 0.7961795588318862  5.137366806131279 2.380948962740324 0.8347824891087007  5.226422389574909 2.500198097244074 0.7314163057654434  5.086931188919936 2.46701820709528 0.7351955142509844  5.139336979560076 2.362085822595911 0.7755689272462839  5.228879561170442 2.482759105224657 0.6700190252711388  5.09077899534944 2.448109598612141 0.674327710521464  5.141310210821548 2.343284639459207 0.7164511817050974  5.231326911744344 2.465314597100261 0.608764853789818  5.094596890540566 2.429198571541168 0.6135984009664667  5.143270545285755 2.324472028720943 0.6574674266359342  5.233767169232658 2.447805395681938 0.5476854694855482  5.098353089789406 2.410222193787358 0.553054056691728  5.145212555042763 2.30556971326668 0.5986719999840585  4.856337497479197 2.680208700966711 0.8534559004802439  4.96981583037611 2.72763370120867 0.8542841617322269  4.978329803399727 2.603846721006456 0.8849193412793007  4.983995396120761 2.585533259524325 0.8214099410596482  4.976706190784066 2.71262920583289 0.7875470237652668  4.864899633809443 2.663035951088048 0.7878103191459452  4.989679220901792 2.567303798436076 0.7580793799296675  4.983603274218536 2.697724872074985 0.7210392824178136  4.873512912690616 2.645956892851059 0.7223341868046192  4.995344748953766 2.54914430217962 0.6949000363627381  4.990490766195546 2.682871193344882 0.6547325902157985  4.882134474237772 2.628941335253899 0.6570308895243501  5.000992060982445 2.531046335002831 0.6318555482999171  4.997347526382589 2.668053728692989 0.5885869146064212  4.890737953491624 2.611971058564245 0.5918678277437036  5.006585983754952 2.512949334474249 0.5689647070769878  5.004149054933904 2.653227252238886 0.5225909158953012  4.89927574486325 2.594994365859309 0.5268414453114002  5.012077689665998 2.494802691615322 0.5062615239846566  5.83218550784072 1.775961878215842 1.219255897708189  5.830857510463925 1.89142555998139 1.160603869151395  5.960948735885658 1.853244441756633 1.197946508831842  5.96950362783626 1.825943398595952 1.146010901478331  5.837596561343365 1.866097273269382 1.107542296738516  5.840196886768614 1.74877550507157 1.167068322013077  5.978303379156613 1.798696673433359 1.094135127381028  5.84451741632305 1.840839924309293 1.054490466346554  5.848428113193755 1.721650306350594 1.114894703539116  5.987221486660988 1.771509059703226 1.042323147325408  5.851524129704394 1.815631605249543 1.001473082912043  5.856756822554791 1.69456710928857 1.062750405891398  5.996139282176776 1.744353822430299 0.9905780455664622  5.858531408356185 1.790438759848267 0.94850219926515  5.865082381724606 1.667497455542071 1.010645007388195  6.004934599460292 1.71719691429049 0.938895468184637  5.86545332919221 1.76522120094908 0.8955797995540602  5.8733050123739 1.640404420857702 0.9585727697493417  6.013465137017754 1.68999218201608 0.8872546991113679  5.872188382075273 1.739920284040039 0.8427011819323385  5.881304869667435 1.613240948864387 0.9065151642613416  5.130510713089661 2.061313313403173 1.074204824646324  5.239346033080009 2.167800850919171 1.038135153803121  5.273926665664891 2.02440088245063 1.086625568211646  5.273624729747964 2.004901698400488 1.030782789320083  5.239270748243613 2.148820528978118 0.9816103803790988  5.130764393593727 2.041727822582515 1.018252516933429  5.273286906150227 1.985540543038191 0.9749280170494533  5.239168117119702 2.129983419284777 0.9250988567837507  5.131008054902971 2.022277330518047 0.962302038034762  5.272940575413265 1.966252796716991 0.9190955263947794  5.23906105819565 2.111234681206653 0.868623718543035  5.131250972221701 2.00290229793795 0.9063770905664473  5.272599877663937 1.946977338129462 0.8633068296055055  5.238959646893926 2.092512526445048 0.8122094389640565  5.131498105202125 1.983544699325188 0.850502627292151  5.272277412744754 1.927649071460791 0.8075853756274396  5.238871634986118 2.073746256766064 0.755887826778135  5.13175231707799 1.964140246517949 0.7947069483459785  5.271994777979173 1.908184247134917 0.7519560919009338  5.238814500703456 2.054841635754924 0.699703413730058  5.132017469359677 1.944608127986527 0.7390313952760862  5.734969650647464 1.63418648001084 1.141661513054676  5.742083185549266 1.605197352576786 1.089611163025068  5.74918429632189 1.576212911643752 1.037586867100693  5.756202083651353 1.547201176161137 0.9855842617362387  5.76307555851341 1.518115845127269 0.9335803143613863  5.088469379821668 2.79176499782371 0.852572208134546  5.115376907747489 2.656876919423869 0.8819186724210318  5.119972049069553 2.641227863994893 0.8173068048934945  5.095071396736966 2.780284735795491 0.7845518773410119  5.124564465616872 2.625667846137118 0.7529087278324158  5.101665406083623 2.768876965185369 0.7167845467739261  5.129133039242435 2.610166046735453 0.688674
[...]
<PointData  Scalars="f_14"> 
<DataArray  type="Float64"  Name="f_14"  format="ascii">-1.3608736318696882e-13  -1.3650611167904866e-13  -1.3336537401392843e-13  1.7340663423258815e-01  1.6899412095561950e-01  1.6950264639011892e-01  3.4328004697841363e-01  3.3688344506365331e-01  3.3727562108764036e-01  5.1062486625411341e-01  5.0350403551796219e-01  5.0386618908537162e-01  6.6912955534408813e-01  6.6951736086035185e-01  6.7574496901456804e-01  8.3418324182646453e-01  8.3469230789145321e-01  8.3889872783862940e-01  1.0000000000000975e+00  1.0000000000000979e+00  1.0000000000001006e+00  -1.4863246646620437e-13  -1.4575800111223605e-13  -1.4600831841962590e-13  1.7453716728104635e-01  1.6755707126951558e-01  1.6722825232794944e-01  3.3446993157825639e-01  3.3455493770184203e-01  3.4475910075218991e-01  5.0098771136389686e-01  5.0086052956431693e-01  5.1232257198283060e-01  6.6661733337418427e-01  6.6701291845857325e-01  6.7759561849120375e-01  8.3212816621370400e-01  8.3324428321894051e-01  8.4052358693533269e-01  1.0000000000000855e+00  1.0000000000000884e+00  1.0000000000000882e+00  -1.4864097292692607e-13  -1.4646223062424316e-13  1.6201413239536247e-01  1.6626050388732805e-01  3.2649886916970533e-01  3.3184434177532046e-01  4.9762186466183028e-01  4.9195577648674027e-01  6.5845105779509805e-01  6.6389669556644759e-01  8.2680523151243923e-01  8.3116344814578191e-01  1.0000000000000877e+00  1.0000000000000855e+00  -1.3264769160701568e-13  -1.3217978011168479e-13  -1.2969954176508731e-13  1.8239962823062397e-01  1.8279880842790247e-01  1.8328133782113082e-01  3.5703875491254022e-01  3.5911713895116515e-01  3.5720202779422439e-01  5.2558526290702379e-01  5.2822862975151175e-01  5.2594499141490214e-01  6.8921748549231365e-01  6.9111779745134372e-01  6.8923723841679063e-01  8.4794123309371716e-01  8.4819766102327265e-01  8.4741936296430309e-01  1.0000000000001015e+00  1.0000000000001019e+00  1.0000000000001044e+00  8.3297411453761172e-01  8.3268705252296216e-01  8.3987922114829949e-01  1.0000000000001148e+00  1.0000000000001172e+00  1.0000000000001137e+00  -1.4157073507004527e-13  -1.4271204808165737e-13  -1.3975502779968544e-13  1.7214614478442214e-01  1.6887980938902558e-01  1.6818198413536001e-01  3.4211401725210594e-01  3.3753154965407944e-01  3.3513036363517418e-01  5.0966631728110134e-01  5.0472475758171609e-01  5.0152356603813997e-01  6.7505269456478190e-01  6.7040251803432838e-01  6.6765614403822859e-01  8.3844677408462243e-01  8.3498843442429760e-01  8.3377197683446391e-01  1.0000000000000941e+00  1.0000000000000913e+00  1.0000000000000924e+00  -1.4713783887972765e-13  -1.4483201647543108e-13  -1.4467474264695035e-13  1.7844401919688407e-01  1.8105843557760165e-01  1.7878480642503936e-01  3.5064313099139149e-01  3.5705697586959728e-01  3.5420487081670288e-01  5.1899909327792482e-01  5.2659389704534854e-01  5.2367476896597431e-01  6.8380539591085920e-01  6.8991083362162908e-01  6.8716227584365563e-01  8.4497563130046616e-01  8.4747342272121196e-01  8.4536216746143655e-01  1.0000000000000893e+00  -1.2723860637953290e-13  -1.2716737226524502e-13  -1.2443467630458376e-13  1.7873442602718212e-01  1.7936356216504995e-01  1.7971581123857391e-01  3.5114740356988894e-01  3.5242083959926862e-01  3.5382449284554784e-01  5.1916777862198027e-01  5.2059519473171201e-01  5.2235870744546509e-01  6.8336116998092866e-01  6.8440485413366980e-01  6.8575013368009297e-01  8.4396194959203419e-01  8.4425237079236115e-01  8.4458620186113409e-01  1.0000000000001097e+00  1.0000000000001070e+00  1.0000000000001068e+00  -1.4173064478564852e-13  -1.3949343710580745e-13  -1.3883256525160660e-13  1.6997288099771388e-01  1.6628169870453921e-01  1.6708362984440187e-01  3.3806892124695065e-01  3.3251512334043593e-01  3.3362731206886065e-01  5.0476682126642403e-01  4.9857227791426456e-01  4.9984285920808208e-01  6.7036813298037212e-01  6.6469392617906786e-01  6.6595971921415631e-01  8.3527007096233341e-01  8.3142917305638353e-01  8.3236501757180514e-01  1.0000000000000953e+00  1.0000000000000946e+00  1.0000000000000924e+00  3.6827532404081703e-01  5.3762672959258684e-01  7.0004271381899441e-01  8.5533241695168583e-01  1.0000000000001044e+00  -1.4235240443028875e-13  -1.4184883883004865e-13  1.7961952155248076e-01  1.8557957349100668e-01  3.5268640983845562e-01  3.6291633096350562e-01  5.2111935837044410e-01  5.3261916729941894e-01  6.8531124649018438e-01  -1.2408464966677493e-13  1.7750727491417648e-01  3.4934363214194575e-01  5.1719861750576657e-01  6.8162721162099349e-01  8.4281464881672585e-01  1.0000000000001101e+00  -1.4882293721657133e-13  1.6325553674928250e-01  3.2784353560337642e-01  4.9332649519190774e-01  6.5980939204052114e-01  8.2802428748541401e-01  1.0000000000000853e+00  -1.3419876546247998e-13  1.7278985365088514e-01  3.4312829067682582e-01  5.1072333128336633e-01  6.7576501666890842e-01  8.3858111778204825e-01  1.0000000000000997e+00  -1.4716652899076445e-13  1.7376054654168213e-01  3.4499870190525922e-01  5.1309171376168683e-01  6.7809186536992694e-01  8.4007707204493143e-01  1.0000000000000868e+00  1.0000000000000868e+00  -1.2912904687713806e-13  -1.2647318131789019e-13  -1.2962002556778196e-13  1.8241231344902958e-01  1.7618927415777219e-01  1.7866054634176587e-01  3.5611981353647404e-01  3.4824837940091941e-01  3.5103702734749981e-01  5.2447585298108290e-01  5.1617117211826447e-01  5.1901929920035494e-01  6.8818038862963438e-01  6.8033894913601600e-01  6.8315602502193196e-01  8.4725245901125212e-01  8.4124602905248180e-01  8.4373700231291826e-01  1.0000000000001046e+00  1.0000000000001077e+00  1.0000000000001050e+00  -1.2059106886679968e-13  -1.1783123293156955e-13  -1.1773930123634326e-13  1.6892007348139179e-01  1.7233369971725851e-01  1.7175809256647301e-01  3.4160553842429348e-01  3.4157887029753414e-01  3.3645044828173232e-01  5.0891887631935862e-01  5.0875930327226371e-01  5.0297112486976980e-01  6.7392923386374681e-01  -1.3919288144051789e-13  -1.3670156346621896e-13  1.7405045188395749e-01  1.7510331016811551e-01  3.4606334362231039e-01  3.4423030026555956e-01  5.1374613835669991e-01  5.1163148284969551e-01  6.7851880997123182e-01  6.7662231344671464e-01  8.4064385644934891e-01  8.3946793145221754e-01  1.0000000000000948e+00  1.0000000000000973e+00  -1.5334856804621483e-13  -1.5095145004196559e-13  -1.5349969794106499e-13  1.7057188310351101e-01  1.6791551447338074e-01  1.6975643028824330e-01  3.3912282284358458e-01  3.3480815464698344e-01  3.3696399830089857e-01  5.0583013149358469e-01  5.0099168571992791e-01  5.0314578614097116e-01  -1.3869061680347543e-13  1.6832880680203327e-01  3.3509902247260337e-01  5.0135839444131358e-01  6.6746219026177034e-01  8.3373034028762039e-01  1.0000000000000953e+00  6.7932654761541578e-01  6.7283791039317464e-01  6.8709829977725745e-01  8.4070263906412623e-01  8.3666284293880544e-01  8.4676294491133708e-01  1.0000000000001135e+00  1.0000000000001161e+00  1.0000000000001155e+00  -1.3697319882603341e-13  1.6844915948222289e-01  3.3605292956542449e-01  5.0256569912384808e-01  6.6821016950667234e-01  8.3351772042533445e-01  1.0000000000000970e+00  -1.4401348174654636e-13  1.6546336078301269e-01  3.3198708959560297e-01  4.9845417514861101e-01  6.6480390690035795e-01  8.3139756600678638e-01  1.0000000000000899e+00  5.2528333701022722e-01  5.3938124388687148e-01  3.5662159112453923e-01  6.8887234356768323e-01  7.0156164064707360e-01  8.4755506286622306e-01  8.5615094179269413e-01  1.0000000000000993e+00  1.0000000000000993e+00  -1.3472609064791048e-13  1.8232628541346382e-01  1.6812184440039343e-01  1.7290865351678966e-01  1.7475022178801236e-01  -1.1935969630791552e-13  3.3556134862783532e-01  3.4338743590251247e-01  3.4467516337454002e-01  5.0191538407636882e-01  5.1084379052063389e-01  5.1194050081137521e-01  6.6749142440253995e-01  6.7550054670486304e-01  6.7695226327548153e-01  8.3791053957403816e-01  1.0000000000001119e+00  -1.1785825198556776e-13  -1.1550199056258977e-13  -1.1484943798144672e-13  1.7615599410516944e-01  -1.5344215884737422e-13  -1.5387446678184004e-13  -1.5158705316957928e-13  1.6704029289471786e-01  -1.3900828398351996e-13  -1.3683516245912614e-13  1.7104057859425631e-01  1.6833386404339895e-01  3.3560364095323153e-01  3.4030790772021957e-01  5.0210469959819504e-01  5.0754770746181377e-01  6.6806212842475354e-01  6.7282116499256039e-01  8.3381483700533132e-01  8.3656752226924180e-01  1.0000000000000950e+00  1.0000000000000970e+00  -1.2045713344299377e-13  1.7470006050694764e-01  3.4458922410404719e-01  5.1179600190206298e-01  6.7694907671609283e-01  6.6876005817565654e-01  8.4010701803445165e-01  8.3709688672429217e-01  8.3424487277152137e-01  1.0000000000001137e+00  1.0000000000001137e+00  1.0000000000001166e+00  -1.5108949130578209e-13  1.6409151524322496e-01  3.2935154545586021e-01  4.9497456759197173e-01  6.6114356465912305e-01  8.2863250226238816e-01  1.0000000000000830e+00  6.6681431893303444e-01  8.3277647281367739e-01  1.0000000000000833e+00  -1.3701980887859888e-13  1.7900772245328617e-01  3.5194764925839334e-01  5.2021368194104711e-01  6.8435738156496706e-01  8.4444474690422400e-01  1.0000000000000970e+00  -1.4167477063447724e-13  1.6933334370347794e-01  3.3779571878526166e-01  5.0478035326034443e-01  6.7033574315060640e-01  8.3492510896975836e-01  1.0000000000000924e+00  -1.3192494279826038e-13  1.7717049646938998e-01  3.4928887376214235e-01  5.1722287368036013e-01  6.8143196118849947e-01  8.4229077252885365e-01  1.0000000000001021e+00  5.2527789282356607e-01  6.8851976889189137e-01  8.4642496817319901e-01  1.0000000000000973e+00  1.0000000000001183e+00  -1.3173730631277915e-13  1.7614795733623578e-01  3.4742870145246907e-01  5.1508028314575527e-01  6.7964608063434351e-01  8.4136139898572970e-01  1.0000000000001024e+00  3.3373564359363711e-01  5.0005470842487931e-01  6.6614815535454353e-01  -1.4129700222504284e-13  1.7883041338024713e-01  3.5152878114257380e-01  5.1987556189454520e-01  6.8431412036872863e-01  8.4473211446408758e-01  1.0000000000000928e+00  -1.3950914020991193e-13  1.8082544046782700e-01  3.5333858863198681e-01  5.2160089724019676e-01  6.8602284094875299e-01  8.4661331529897732e-01  1.0000000000000944e+00  -1.2049816649828563e-13  -1.2214758226858958e-13  -1.1956390465552009e-13  1.8573866608920275e-01  1.8551053536808718e-01  1.8321232480091973e-01  3.6212976949601827e-01  3.6202827270597077e-01  3.5795424163078704e-01  5.3136082413117791e-01  5.3136725030366405e-01  5.2684154498280455e-01  6.9426815433153855e-01  6.9428151847553121e-01  6.9056200407088353e-01  8.5092878500082347e-01  8.5090879850411660e-01  8.4893155299701528e-01  1.0000000000001146e+00  1.0000000000001119e+00  1.0000000000001137e+00  3.5093867302990511e-01  5.1897911342706038e-01  6.8313918024916587e-01  8.4368485259579240e-01  1.0000000000001115e+00  7.0175299910830169e-01  6.9580749156374844e-01  8.5128484173338270e-01  8.5538079574614223e-01  1.0000000000001052e+00  1.0000000000001017e+00  -1.4839796123238417e-13  1.6709842831550320e-01  3.3363746499369817e-01  4.9998476805007674e-01  6.6639624102168182e-01  8.3305505762736265e-01  -1.2614095464071654e-13  -1.2434273694635628e-13  -1.2332879849942102e-13  1.8489184483377757e-01  1.8132957685478801e-01  1.8317901064798917e-01  3.6008367208924130e-01  3.5682368037043133e-01  3.5825118823714031e-01  5.2908815298726808e-01  5.2589640259631187e-01  5.2713545568348419e-01  6.9247815459936457e-01  6.8886332036799325e-01  6.9044303827318343e-01  8.5028028148335177e-01  8.4629248932716772e-01  8.4832472061294339e-01  1.0000000000001108e+00  1.0000000000001097e+00  1.0000000000001079e+00  -1.2326018376834807e-13  -1.2037297969398009e-13  1.7702096996489472e-01  1.7713829573080678e-01  3.4876107555701252e-01  3.4902299723526348e-01  5.1679885466039732e-01  5.1701431554387500e-01  6.8150713468570967e-01  6.8152312815886940e-01  8.4297109321898800e-01  8.4283044216673275e-01  1.0000000000001139e+00  1.0000000000001110e+00  -1.3460692256194311e-13  -1.3342895845455565e-13  1.7209402102266211e-01  1.7128245357794900e-01  3.4158957301362736e-01  3.4034787780877990e-01  5.0878258707102397e-01  5.0737727333815097e-01  6.7398673044307822e-01  6.7263016859182534e-01  8.3755413916369914e-01  8.3656426284680407e-01  1.0000000000001006e+00  1.0000000000000995e+00  -1.3685258621140129e-13  -1.3674514577966214e-13  1.7828982283014472e-01  3.5072735119657439e-01  3.5626531578965853e-01  5.1885906784941338e-01  6.8319023093740261e-01  8.4386780083194479e-01  1.0000000000000973e+00  -1.2590820894579069e-13  1.8129009017566103e-01  3.5408865607499501e-01  5.2223413607424563e-01  6.8645468869405379e-01  8.4661417192093624e-01  1.0000000000001084e+00  1.6563914935536861e-01  -1.5127521430413080e-13  1.7025654994995482e-01  3.3907442841795937e-01  5.0628860271778098e-01  6.7195771992004261e-01  -1.2544936747264156e-13  1.8386426904048461e-01  3.5825842502147870e-01  5.2704025141933430e-01  6.9085078812268985e-01  8.4966700523241590e-01  1.0000000000001088e+00  -1.2569047118576510e-13  -1.2309153890636225e-13  1.7525726252433377e-01  1.7769312829921347e-01  3.4642721221277678e-01  3.5012699527538482e-01  5.1413723315369242e-01  5.1824646310793920e-01  6.7874724531888508e-01  6.8246716866825818e-01  8.4058924991588335e-01  8.4300328397083546e-01  1.0000000000001112e+00  1.0000000000001086e+00  -1.2331599853456880e-13  -1.2102032242031004e-13  1.7360506484236030e-01  1.7516495638283441e-01  3.4627697382848355e-01  3.4334057359780912e-01  5.1396967385505055e-01  5.1052913225002383e-01  6.7860521568273968e-01  6.7567182897030398e-01  8.4052200755848683e-01  8.3902545663642825e-01  1.0000000000001108e+00  1.0000000000001132e+00  -1.2298632021557397e-13  1.7409153127873339e-01  3.4658793229491580e-01  5.1488135133844726e-01  6.7903504619724298e-01  8.3967578042849556e-01  1.0000000000001112e+00  -1.4332069155345827e-13  1.7520746707410925e-01  3.4601957990203269e-01  5.1404036865028291e-01  6.7948012248345746e-01  8.4222489145321044e-01  1.0000000000000908e+00  -1.4394262077012408e-13  1.6921310849112747e-01  3.3775680549758941e-01  5.0491134949181338e-01  6.7080957122524298e-01  8.3562560173831779e-01  1.0000000000000902e+00  -1.3444765566493749e-13  1.7517353250833848e-01  3.4562644087454941e-01  5.1312372059326505e-01  6.7805375669398205e-01  8.4063677488235433e-01  1.0000000000000995e+00  -1.4341479784695795e-13  1.6784722005759795e-01  3.3510113478269593e-01  5.0181460635798181e-01  6.6810452368824569e-01  8.3418159263589464e-01  1.0000000000000906e+00  -1.4678509768661132e-13  1.6176824462136699e-01  3.2615325890488972e-01  4.9165643731064046e-01  6.5829156055819915e-01  8.2672129677724826e-01  1.0000000000000857e+00  1.0000000000000873e+00  3.5547154589698848e-01  5.2386851385664379e-01  6.8761258657989976e-01  8.4685370182678965e-01  1.0000000000001092e+00  -1.2852053932765541e-13  1.7583212223179759e-01  3.4777376264877724e-01  5.1566784601301241e-01  6.7987367455007774e-01  8.4087772026713348e-01  1.0000000000001057e+00  -1.5095641175582981e-13  1.7408843013022701e-01  3.4339642692459332e-01  5.1045677448563265e-01  6.7579153532100100e-01  6.7108759066943102e-01  8.3953070601313573e-01  8.3544613495550069e-01  1.0000000000000833e+00  1.0000000000000806e+00  -1.4418040198327712e-13  1.6685730699149087e-01  3.3297421481779133e-01  4.9918983948070877e-01  6.6576605270382205e-01  8.3285758324498027e-01  1.0000000000000899e+00  -1.2155955097960064e-13  1.7559082572109289e-01  3.4587008808744563e-01  5.1322032547828800e-01  6.7823931390951053e-01  8.4097885699887709e-01  1.0000000000001128e+00  -1.1880643966540853e-13  1.6643751269672694e-01  3.3306013358455377e-01  4.9914762633802084e-01  6.6493933555891949e-01  8.3109904513993660e-01  1.0000000000001155e+00  -1.4454882118052942e-13  1.6455490117882546e-01  3.2957348795313962e-01  4.9535197447077428e-01  6.6208608560469373e-01  8.3014296641666596e-01  1.0000000000000895e+00  -1.3620336977540012e-13  1.7121600441440116e-01  3.4015903037840167e-01  5.0711009357169889e-01  6.7237861948224265e-01  8.3639563183372434e-01  1.0000000000000977e+00  -1.3872530022847943e-13  1.8134947030403298e-01  3.5479079428802679e-01  5.2326747721043676e-01  6.8724120117108811e-01  8.4681548579115085e-01  1.0000000000000953e+00  8.4522529915024069e-01  1.0000000000000921e+00  -1.3962288831733827e-13  1.7775335962658495e-01  3.5198945204606963e-01  5.2075531369956263e-01  6.8431389759439454e-01  8.4329928850662439e-01  1.0000000000000944e+00  3.4755044083597014e-01  -1.3154594935419112e-13  -1.3059638540462974e-13  1.7660746798762039e-01  1.7631079879973707e-01  3.4842715693003368e-01  3.4846219337515894e-01  5.1633700379943925e-01  5.1654008570695931e-01  6.8066134709946990e-01  6.8085878598068916e-01  8.4178757973169183e-01  8.4178113122491482e-01  1.0000000000001035e+00  1.0000000000001024e+00  -1.1799735728820213e-13  1.6819309333091056e-01  3.3499420069941299e-01  5.0116567110125010e-01  6.6714603167932129e-01  8.3331742285479782e-01  1.0000000000001164e+00  -1.4212569918539013e-13  -1.4361923945287782e-13  -1.4127556447627488e-13  1.6438269093945124e-01  1.6407674985247550e-01  1.6486744110582408e-01  3.2976539598813748e-01  3.2929538993770208e-01  3.3027559396468203e-01  4.9553322975846165e-01  4.9516704562591896e-01  4.9609942872567603e-01  6.6183410385887376e-01  6.6176555859261277e-01  6.6253525158562043e-01  8.2924600865364173e-01  8.2956806205435030e-01  8.3008771669734316e-01  1.0000000000000926e+00  1.0000000000000904e+00  1.0000000000000919e+00  -1.3087307770995797e-13  1.7753161911411194e-01  3.4888174127110244e-01  5.1659922561110883e-01  6.8117757639826926e-01  8.4279493690539842e-01  1.0000000000001033e+00  5.3136284256234134e-01  6.9420114730392590e-01  8.5110566346134042e-01  1.0000000000001070e+00  -1.2241487669704591e-13  -1.3488072978040877e-13  1.7729542564159395e-01  3.4921267822752688e-01  5.1729543017149993e-01  6.8190721953777600e-01  8.4322787552719236e-01  1.0000000000000990e+00  -1.1524738053192790e-13  -1.1583973362124175e-13  -1.2823773953758311e-13  -1.2823827552415027e-13  -1.2575448998224069e-13  1.7961248804544591e-01  1.7985802475144250e-01  1.8063997639184545e-01  3.5269949926294947e-01  3.5327513507676239e-01  3.5349031358394833e-01  5.2101925216037215e-01  5.2167603165231646e-01  5.2164834055005194e-01  6.8507949108623278e-01  6.8556209439722282e-01  6.8575953090993058e-01  8.4499595315310094e-01  8.4506074037794288e-01  8.4584130537543256e-01  1.0000000000001084e+00  1.0000000000001059e+00  1.0000000000001059e+00  1.0000000000001177e+00  1.0000000000001199e+00  8.5760861429171686e-01  8.5453434390350580e-01  7.0329834572380845e-01  1.0000000000000981e+00  1.0000000000000961e+00  -1.4897239024426628e-13  1.7117396530239296e-01  3.4059208534174096e-01  5.0806289140656435e-01  6.7366933489149017e-01  8.3757954520065037e-01  -1.4908748432013303e-13  1.7627727231714346e-01  3.4735938738195488e-01  5.1506951749699081e-01  6.7986802102187238e-01  8.4181918192879934e-01  1.0000000000000850e+00  -1.3460351647702608e-13  1.7363613311596754e-01  3.4494673646225898e-01  5.1275648191946799e-01  6.7721592405342601e-01  8.3898532870615361e-01  1.0000000000000995e+00  -1.3095516920506033e-13  1.7476328681005385e-01  3.4590222155529332e-01  5.1355691566823325e-01  6.7809670228848673e-01  8.3995506234481254e-01  1.0000000000001030e+00  -1.5208076325692795e-13  1.7402065586422238e-01  3.4478086621253606e-01  5.1228214195033905e-01  6.7686075843661941e-01  -1.3243192610365076e-13  1.8272660858969930e-01  3.5632050610418875e-01  5.2472670945985189e-01  6.8864189389299879e-01  8.4802480645659295e-01  1.0000000000001015e+00  5.2486050099399695e-01  6.8802967690424388e-01  8.4615023488196739e-01  1.0000000000001086e+00  -1.3488442942179903e-13  -1.3432329015833600e-13  1.7960553246965727e-01  1.8194451804603901e-01  3.5307379422080309e-01  3.5739074157000744e-01  5.2149030062628698e-01  5.2643518940507794e-01  6.8523326462086021e-01  6.8965627088079706e-01  8.4469621105603188e-01  8.4756009198273130e-0