<?xml version="1.0"?>
<VTKFile type="UnstructuredGrid"  version="0.1"  >
<UnstructuredGrid>
<Piece  NumberOfPoints="997" NumberOfCells="4300">
<Points>
<DataArray  type="Float64"  NumberOfComponents="3"  format="ascii">5.83349320170168 2.396159728010131 4.232392342208047  5.991660867185877 2.365521959297128 4.230851136380902  5.954891390459629 2.511707350870121 4.259667658048257  5.95020889244117 2.501020180564715 4.342121305910991  5.98777254567937 2.342692910521508 4.309751047119654  5.831423365676634 2.377399662591351 4.312785350847534  5.945453596487776 2.490351016458935 4.424467096895794  5.98379693808737 2.31988494324799 4.388564596982912  5.829284845680042 2.358661909129329 4.393067542272558  5.940654760372648 2.479658978804046 4.506715615773973  5.979771038716313 2.297078588953686 4.467313158877489  5.827104997729361 2.339917856308037 4.473258726213913  5.935856781069462 2.468938066314953 4.588895952171259  5.97572777316647 2.274266234873029 4.546012510023073  5.824901982272516 2.321168300894866 4.553383073712863  5.822727596870475 2.302390599700626 4.633447796062099  5.971735443623333 2.251424767141494 4.624662560838557  5.9310951690378 2.45818960494154 4.671001083677912  5.820677696819946 2.283563739265053 4.713433169059269  5.967885816561587 2.228539138217999 4.703251852502311  5.926455940329285 2.447378319462262 4.753046056452628  5.46416211743795 2.745381363019189 4.248333246495232  5.445185818525446 2.583683449095705 4.262065620326183  5.577223024224714 2.615426168780923 4.261161341783235  5.577223809725 2.618916380294633 4.346028667088579  5.444124763210901 2.584099983043564 4.346994615351176  5.462190897623173 2.760343159600615 4.332259774689946  5.460129636970285 2.775265876016151 4.416009361948674  5.44299127908713 2.584521435166526 4.431728621824349  5.577131977078432 2.622407515446983 4.430702311519294  5.458015081390811 2.790116899844765 4.499594853850535  5.4418149906305 2.584902252258735 4.516302721522528  5.576997338517426 2.625859480615969 4.515223540682702  5.455892326288686 2.804895899880462 4.583061817719599  5.440645391814512 2.58523960664923 4.600761864375573  5.576860311569167 2.629265198859982 4.599637843110506  5.576750469346861 2.632640727124401 4.683985206098123  5.439505318622793 2.585547272194503 4.685148156962217  5.453814326464903 2.819622866524005 4.666420285521215  5.576727473489903 2.635957368153128 4.768284752294345  5.438472957667394 2.585788881219743 4.769475529212078  5.451847215506798 2.834269349409657 4.749712374908502  5.722378872659964 3.107795652805364 4.106444899948475  5.79863982263941 2.995814232970353 4.174099350559306  5.864477846385126 3.091669308878448 4.124389254420058  5.857452559412446 3.134562565499746 4.193546930469217  5.794089874372198 3.031431271766081 4.248907441377297  5.718316926310928 3.152131876651065 4.175430051637233  5.850369896715634 3.177297737156629 4.262683067138116  5.789463603701276 3.066916736777118 4.323616321506011  5.714154534770128 3.196324600191301 4.244369525528274  5.784810001277607 3.102312817635271 4.398252117884756  5.709950005455414 3.24042748793696 4.313258840229275  5.843278042273117 3.219943048813693 4.331771197347582  5.780164210863624 3.137642461150788 4.472824045192824  5.705752756214348 3.284468823216232 4.382092547677  5.836209247638073 3.262538703785988 4.400818366540554  5.775551338314112 3.172922798109854 4.547342862225836  5.701609121216259 3.328467649620052 4.450874355320111  5.829186042343308 3.305104045179952 4.469825742858045  5.77105017200531 3.208150564234728 4.621837549266336  5.69760283085914 3.372421925122579 4.519615174664668  5.822233444202873 3.347651527126781 4.538801133714149  5.825187553386252 2.552362819084582 4.257907061583317  5.823184948766894 2.544374081424752 4.341121959322006  5.821111664225429 2.536414067278554 4.424206755623763  5.818995236746785 2.52842540989354 4.507175252837729  5.816872427849069 2.520398412394227 4.590058127324859  5.814780301186731 2.512333412495304 4.672874071676715  5.812796979067272 2.50421174970361 4.755630374514303  4.76691174886101 2.844776138010002 4.130327970709926  4.876991455182813 2.902850150869355 4.133169639271048  4.774319120071495 2.967683953215253 4.080889350348453  4.755456035417883 3.004699930809069 4.150540795043339  4.860603553028233 2.933526510252073 4.207588388893284  4.749780233662713 2.873520607391814 4.204725482067954  4.732724141810492 2.902102512060833 4.278902302716252  4.844292906511187 2.964049176153888 4.281748200754211  4.736722637355665 3.041533043578876 4.220022155662548  4.71573770603074 2.930556198824891 4.352868079583183  4.828043768235291 2.994442596638625 4.355723504191082  4.718079313126815 3.078206883568674 4.289344750831379  4.698804725811061 2.958912158068382 4.426689940443635  4.811838305723025 3.024724208560088 4.429553671604862  6.086413867481157 2.475006359132313 4.262562629751941  6.071159121211311 2.630892428887544 4.275890171627796  6.06394523144863 2.629643535578632 4.3593267192186  6.079115303729758 2.461112815617712 4.344238955325006  6.071723968094903 2.447236284111971 4.425801725923394  6.056657892166863 2.628391093224914 4.442645127572537  6.064301538298793 2.433349350443791 4.507290017156398  6.049344018286934 2.627106383674715 4.525874489581054  6.056880161494929 2.41944483432572 4.588719629066274  6.04204332928298 2.62578276477809 4.60903396427379  6.034792259111541 2.624413199967669 4.692142971786143  6.049500061736882 2.405511368483915 4.670106936546579  6.042255515237629 2.391507839689495 4.75145997050797  6.027636551227362 2.622986894991021 4.775202665286877  5.705732092058337 2.462307038271123 4.243201985603465  5.705386299590306 2.321131017899588 4.213306549081275  5.708189498396572 2.296874512775601 4.291911977465233  5.708307229524259 2.44807266182679 4.325301315671288  5.710944497936513 2.272655016976296 4.37040992756159  5.71081479725851 2.433873736239555 4.407275673776807  5.713656751682763 2.248447660598237 4.448821736730988  5.713277122672276 2.419667419145756 4.489131599016922  5.716340655605125 2.224244297233244 4.527172584539614  5.7157261333175 2.405439284170674 4.570903395548983  5.719051434179879 2.200013980593963 4.605456473903875  5.718190956976041 2.39118223573068 4.652611454232076  5.721831480228297 2.175724265517427 4.683648880016026  5.720741988334074 2.376865178013689 4.734251643698546  5.025269783148383 2.018181562813294 4.101066029987957  5.129120303709351 1.942718188171436 4.049563143234959  5.143964545560063 2.050882410103614 4.116981640289866  5.146007035598737 2.009783426014931 4.184803561880142  5.133726722136864 1.895198134822849 4.110641628804251  5.026699774028031 1.978304841195126 4.169017805233506  5.147971246664474 1.968780193454814 4.252566021611023  5.138284961680736 1.847763694259194 4.171695272193745  5.028054679845932 1.938526496151268 4.23690593125313  5.149894789575243 1.927834493896013 4.320272325689315  5.142830502232703 1.800386075735664 4.232707081353668  5.029371421617117 1.898812991486333 4.304736906082391  5.151822014526702 1.886903386969388 4.387908342699697  5.147388032616893 1.753026140811909 4.293650657061693  5.0306961848021 1.859117439798552 4.372495533883344  5.153794486462569 1.845948513384813 4.455462123112544  6.181934599244978 3.066714238416446 4.187483044248772  6.317628412536499 3.118399371689295 4.173093207679869  6.176866232313984 3.184004881907993 4.106478244363474  6.16564423362011 3.231549179890183 4.170027604433463  6.307690932586271 3.159980122447353 4.242322252962291  6.170687321591533 3.104742252377249 4.259376589193205  6.154475524220183 3.27893471163188 4.233590726972839  6.29781139609841 3.201449543085846 4.311481736250828  6.159475987540673 3.142650934910769 4.331229681451725  6.143367999833784 3.32625788524498 4.297135260652376  6.287979268715788 3.24284663597257 4.380588098312922  6.148311103771205 3.180495746756204 4.403033742204684  6.13229921853786 3.373549529611451 4.360662833988947  6.278180151926724 3.284186565927563 4.449659809154163  6.137183046381238 3.218293873462593 4.474804868464931  6.121243857502795 3.420822529710338 4.424182131057406  6.268395574142829 3.325467436089535 4.518713220382522  6.126076011687384 3.256051341191584 4.546559203597694  6.110169410435527 3.468094027634529 4.487692864051387  6.258613334383404 3.366680657234195 4.587767526533739  6.114956448506669 3.293767217730703 4.618312163111175  4.767569308999906 2.731126584642215 4.171233491139226  4.895468281294752 2.621437351892881 4.208484775606906  4.902403829628214 2.778739514024833 4.183610828791069  4.888279179292821 2.800332382043885 4.262312137570966  4.882237408655544 2.630692756883268 4.28951580118957  4.751438922456201 2.749956353335136 4.249455431748297  4.874167559643179 2.821835772664828 4.340711386464633  4.868982260112148 2.63992351478436 4.370270215817959  4.73533538021657 2.768694859053277 4.327422855808586  4.860092339834528 2.843242940790541 4.418898777274274  4.855736476845744 2.649083349081381 4.450802872074071  4.719277448149579 2.787330155419887 4.405182749279267  4.846052079243158 2.864555958787876 4.49692954411465  4.842529772033106 2.658171780915163 4.531173556938362  4.703265935778945 2.805869007445371 4.482785136026117  4.832075546235262 2.88578497853149 4.574842476495085  4.829388302955957 2.667201811698185 4.61142010180141  4.687318185587185 2.824325098566487 4.560261156427183  4.818193920499002 2.906954771724237 4.652676221450179  4.816352736275501 2.676171156962131 4.691569424231857  4.671456815218999 2.84273127237782 4.63764398285803  5.675467272242591 2.983793930309471 4.176915741761174  5.670943919108505 3.018842251201408 4.252802499587317  5.666339446905046 3.053768161956801 4.328573674229444  5.661692514095485 3.088606277044362 4.404246646735502  5.657046770689191 3.123376695721359 4.479838027673468  5.652448233273357 3.158091490155725 4.555363228163405  5.647970156521394 3.192722923139615 4.630868233559098  4.831136494763791 1.891321263282532 4.02409832430761  4.976695644055694 1.905080337784034 4.0307745558012
[...]
<PointData  Scalars="f_14"> 
<DataArray  type="Float64"  Name="f_14"  format="ascii">-1.2470436297907627e-13  -1.2211588800300411e-13  -1.2247904090525575e-13  1.9755000786312446e-01  1.9754529174105295e-01  1.9281081940171438e-01  3.7952507978026140e-01  3.8024114374303003e-01  3.7329191166335213e-01  5.4945149829159123e-01  5.5036821552184234e-01  5.4303890493108686e-01  7.0899166616323861e-01  7.0956687442414501e-01  7.0310443854696825e-01  8.5499732495900660e-01  8.5929200709807307e-01  8.5942672183170898e-01  1.0000000000001092e+00  1.0000000000001119e+00  1.0000000000001115e+00  -1.3035434193492100e-13  -1.3094433691097947e-13  -1.2859335999421050e-13  2.0744834808191751e-01  2.1228500546910051e-01  2.1488210647947756e-01  4.0311630803893178e-01  4.0097369742724143e-01  3.9417438806651978e-01  5.7428791072476182e-01  5.7225881852319160e-01  5.6524993977805138e-01  7.3097748055223166e-01  7.2885122348303422e-01  7.2297213290150641e-01  8.6830406120902237e-01  8.7182255300302036e-01  8.7388077216112081e-01  1.0000000000001055e+00  1.0000000000001033e+00  1.0000000000001039e+00  -1.2540893990694065e-13  -1.2428133446260119e-13  -1.2303671931121031e-13  1.8736625696776626e-01  1.9484045980412348e-01  1.9307972405007473e-01  3.6657069045230728e-01  3.7617700480497512e-01  3.7301578389371343e-01  5.4615621637525746e-01  5.4285958251787492e-01  5.3620509065645383e-01  7.0622615674004141e-01  7.0372561049989113e-01  6.9724660848615838e-01  8.5736942365561453e-01  8.5633108332701868e-01  8.5070000410848934e-01  1.0000000000001097e+00  1.0000000000001086e+00  1.0000000000001108e+00  -1.2455070705992383e-13  1.9560541040054166e-01  3.7726255488425048e-01  5.4718217580124551e-01  7.0684733686636625e-01  8.5770739069209878e-01  1.0000000000001095e+00  -1.4298027218171287e-13  -1.4086625272532085e-13  -1.4278211408457143e-13  2.1104962002620262e-01  2.0662869981344595e-01  2.0212815063737324e-01  3.8835232682588844e-01  3.9375329190630420e-01  3.9765248019715577e-01  5.5946694122369434e-01  5.6488393681197591e-01  5.6837297445209678e-01  7.1734187987228681e-01  7.2212665248274688e-01  -1.2034673938089776e-13  -1.2032407717321265e-13  1.9949536267135987e-01  2.0085817704367873e-01  3.8493682469626161e-01  3.8324774936221556e-01  5.5525578181595658e-01  5.5359501834521008e-01  7.1364185768408361e-01  7.1236036883466447e-01  8.6086505851198325e-01  8.6163998232704120e-01  1.0000000000001135e+00  1.0000000000001137e+00  -1.2665893891224084e-13  -1.2693762887198328e-13  1.9483664675580700e-01  1.8971510751768708e-01  3.7639978941616359e-01  3.7135694238406258e-01  5.4658659307683433e-01  5.4172378036603219e-01  7.0658521087134096e-01  7.0164293869027217e-01  8.5772010678485655e-01  8.5290178449688780e-01  1.0000000000001072e+00  1.0000000000001075e+00  -1.3940489373427609e-13  -1.3772521046582931e-13  -1.3723455810786322e-13  2.0222212410605211e-01  2.0930031888203238e-01  2.0397202739425957e-01  3.8891194784860372e-01  3.9479712884806556e-01  3.9099784108473584e-01  5.6031030368371759e-01  5.6557324250597385e-01  5.6233003609343035e-01  7.1828480893313018e-01  7.2370746309816814e-01  7.1987249287090349e-01  8.6439519233504458e-01  -1.1765174966760124e-13  -1.1517114244477266e-13  -1.1754737767227052e-13  1.9169892983364586e-01  1.9782995539712284e-01  2.0837474401092973e-01  3.7041399631884026e-01  3.8041972040802335e-01  3.9161706325570222e-01  5.3995505243478537e-01  5.5069680920540043e-01  5.6162550254061383e-01  7.0166320585348663e-01  7.1036896282639694e-01  7.2073906169304192e-01  8.5591853769242821e-01  8.6020824307518962e-01  8.6899215755403547e-01  1.0000000000001164e+00  1.0000000000001188e+00  1.0000000000001164e+00  -1.4303863836337197e-13  -1.4080702422441678e-13  -1.4047805424995898e-13  2.1241230300446762e-01  2.0350913160434450e-01  2.1344830904740067e-01  4.0005659220582451e-01  3.8980583720834699e-01  4.0002492748394886e-01  5.7096895422599636e-01  5.6092510936402984e-01  5.7068286259948875e-01  7.2783020115466712e-01  7.1872934149273993e-01  7.2805315971105244e-01  8.7163247200333593e-01  8.6470020031203720e-01  8.7271157358287677e-01  1.0000000000000937e+00  1.0000000000000933e+00  1.0000000000000910e+00  -1.2639566553447357e-13  2.0515835438839525e-01  3.8775486182307201e-01  5.5788070587399186e-01  7.1734141440893517e-01  8.6655720186138951e-01  1.0000000000001075e+00  -1.4317410372720398e-13  -1.4052460400436652e-13  -1.4231755325967397e-13  2.1332764979010363e-01  2.1402755164296874e-01  -1.2958642270535576e-13  -1.2833776138345497e-13  -1.2755571918974834e-13  1.9376747980612133e-01  2.1067881688174458e-01  2.0347976286835398e-01  3.7774883647168689e-01  3.9662859777076970e-01  3.8969482169826419e-01  5.4872342260994811e-01  5.6740248873919996e-01  5.6100655083120177e-01  7.0796796000638074e-01  7.2524515649472632e-01  7.1924259098302201e-01  8.5716841729305593e-01  8.7105815620581895e-01  8.6570625374692844e-01  1.0000000000001066e+00  1.0000000000001059e+00  1.0000000000001048e+00  -1.3080123567085942e-13  -1.2891464356157100e-13  -1.2898373521189792e-13  2.0719590692377451e-01  1.9827268096470088e-01  1.9880770173016557e-01  3.9245657999619110e-01  3.8168776875131744e-01  3.8492793102386641e-01  5.6330945955005707e-01  5.5246652895340931e-01  5.5616506449131820e-01  7.2196089932355501e-01  7.1193303910154049e-01  7.1437170522857008e-01  8.6900516359481694e-01  8.6115468397357842e-01  8.6103658758428525e-01  1.0000000000001052e+00  1.0000000000001052e+00  1.0000000000001035e+00  -1.2411871659075966e-13  -1.2237907935092438e-13  1.9725687311266266e-01  2.0130490309627627e-01  3.8139034373928282e-01  3.8315754526217011e-01  5.5185906781663374e-01  5.5295384560462169e-01  7.1051419078525246e-01  7.1240159115416446e-01  8.5898957384903396e-01  8.6272651497557662e-01  1.0000000000001115e+00  1.0000000000001099e+00  -1.3257154230611867e-13  2.1227803079478036e-01  4.0134942712514032e-01  5.7278119463408006e-01  7.2921536537214848e-01  8.7204687872932807e-01  1.0000000000001017e+00  -1.1946136045141043e-13  -1.1810570685099148e-13  -1.1730267289121596e-13  2.0119920576023470e-01  2.1408730381808810e-01  2.0053639434227602e-01  3.8680256680762876e-01  3.9999244757557861e-01  3.8469727967363299e-01  5.5763510222244927e-01  5.7031613103902912e-01  5.5513621319803741e-01  7.1586204159956268e-01  7.2757411575969022e-01  7.1373190828132727e-01  8.6311892678194579e-01  8.7274075852974742e-01  8.6173297756140110e-01  1.0000000000001166e+00  1.0000000000001157e+00  1.0000000000001146e+00  -1.1337943309349876e-13  -1.1379712749939785e-13  -1.1576687712783997e-13  2.1992146361948423e-01  1.0000000000001201e+00  1.0000000000001206e+00  1.0000000000001181e+00  8.7019084204587616e-01  8.7682657429317079e-01  -1.3172054681300566e-13  -1.3006946304954011e-13  -1.3186098797262464e-13  2.1572531160572178e-01  2.0383518840668569e-01  2.1341229421860347e-01  3.9004014868323394e-01  4.0193028871413655e-01  4.0387982138977802e-01  5.7324554918376802e-01  5.6126250852338044e-01  5.7503107832524891e-01  7.2983210327978854e-01  7.1943020433361715e-01  7.3167121199332852e-01  8.7277019018087632e-01  8.6576486905570083e-01  8.7460443452438497e-01  1.0000000000001026e+00  1.0000000000001041e+00  1.0000000000001024e+00  -1.1502656283437464e-13  2.1647986645962636e-01  1.0000000000001188e+00  4.0080568866598043e-01  -1.2644098014279045e-13  -1.2474506602900839e-13  -1.2630547498826226e-13  2.0351811140242201e-01  2.0083838983765998e-01  2.0194918609626697e-01  3.8345570165982662e-01  3.8551409272186227e-01  3.8769407589586963e-01  5.5344299196390800e-01  5.5582877197085279e-01  5.5805432476690209e-01  7.1470680483540516e-01  7.1253308121683057e-01  7.1663802215276395e-01  8.6330353235233537e-01  8.6214057231988928e-01  8.6437723192359817e-01  1.0000000000001077e+00  1.0000000000001095e+00  1.0000000000001077e+00  -1.1983878692423194e-13  -1.1956850058350000e-13  1.8880067916874643e-01  1.9406218732822006e-01  3.7623221355773978e-01  3.6795546942374413e-01  5.4642070496759543e-01  5.3762327051344472e-01  7.0609086579365521e-01  6.9885879190749478e-01  8.5659512419260486e-01  8.5239411953507649e-01  1.0000000000001141e+00  1.0000000000001144e+00  2.0795171839961446e-01  -1.4038466884105441e-13  -1.3857780568654233e-13  -1.3832470708691316e-13  2.0863593874440450e-01  2.1133248308392077e-01  2.0981786287444018e-01  3.9748877820945672e-01  3.9942611102912334e-01  3.9689568438743789e-01  5.6859573752465209e-01  5.7051884869142089e-01  5.6819907201201492e-01  7.2706429954737628e-01  -1.3125061775136886e-13  2.1138490501437471e-01  3.9724394302511012e-01  5.6799082038743309e-01  7.2595889735710073e-01  8.7169243660812812e-01  1.0000000000001030e+00  -1.3100791858551473e-13  -1.2864138151468602e-13  2.0853201365136928e-01  2.1012468603763326e-01  3.9789559089192467e-01  3.9425186782374527e-01  5.6914261449318093e-01  5.6510250012492802e-01  7.2628117912243806e-01  7.2319222327877541e-01  8.7042628809021361e-01  8.6929025813787741e-01  1.0000000000001030e+00  1.0000000000001057e+00  -1.2220486972732057e-13  -1.2132916416555378e-13  1.9846967783237363e-01  1.9948692734085213e-01  3.7827381093697066e-01  3.8110078137509040e-01  5.4791024943076094e-01  5.5090740797007465e-01  7.0868670921570387e-01  7.1069967349473184e-01  8.6138347942874338e-01  8.6125985650417092e-01  1.0000000000001126e+00  1.0000000000001117e+00  -1.3647792849076101e-13  -1.3624238586657355e-13  2.1611259616738535e-01  2.0702515663953283e-01  4.0501418307063647e-01  3.9584333726451809e-01  5.7619834362295985e-01  5.6735701346410372e-01  7.3222208714968773e-01  7.2391219231077109e-01  8.7442782761893467e-01  8.6739295650770165e-01  8.7053431318086250e-01  1.0000000000000979e+00  1.0000000000000977e+00  1.0000000000000957e+00  -1.1538077184294433e-13  1.8666195134557498e-01  3.6340753659693542e-01  5.3247211618958790e-01  6.9471177708551568e-01  8.5069416698333744e-01  -1.4121066773676690e-13  -1.3847290505662574e-13  2.1635222405326646e-01  2.0968315379805988e-01  4.0396430136255118e-01  3.9720949347412216e-01  5.7474761881144276e-01  5.6825545135349742e-01  7.3130450079967002e-01  7.2524197986533689e-01  8.7452050036396212e-01  8.6523193389143349e-01  8.6956813320134407e-01  1.0000000000000957e+00  1.0000000000000948e+00  1.0000000000000930e+00  -1.3083957739807539e-13  2.1007117046536183e-01  3.9657330362700705e-01  5.6763679507167875e-01  7.2523029001457384e-01  8.7063895889541909e-01  1.0000000000001033e+00  -1.4017883015354973e-13  2.0480225676631661e-01  3.9222546537848035e-01  5.6342885373633156e-01  7.2071839665418935e-01  8.6574993510897458e-01  1.0000000000000939e+00  -1.3420035415879934e-13  2.1418414625141829e-01  4.0373787696291014e-01  5.7512412684068659e-01  7.3109049384668157e-01  8.7292533631462543e-01  1.0000000000000999e+00  -1.3390396831097766e-13  2.1359848172319360e-01  4.0241610155543567e-01  5.7375633724553599e-01  7.3001741708840695e-01  8.7266969625931978e-01  1.0000000000001004e+00  -1.2577227708518043e-13  1.9198218256524982e-01  3.7315125705361785e-01  5.4317101810740398e-01  7.0319095335897541e-01  8.5481811476806457e-01  1.0000000000001081e+00  1.0000000000001064e+00  1.0000000000001086e+00  -1.2784328234239142e-13  1.9094049609193889e-01  3.7292459380235266e-01  5.4369098514068281e-01  7.0410692495811700e-01  8.5541737167291831e-01  1.0000000000001061e+00  -1.3514841327492059e-13  -1.3304108965368128e-13  -1.3295687313158528e-13  2.0739805200818992e-01  2.1151718029139530e-01  2.0422979454773321e-01  3.9549212513707743e-01  3.9988784074141365e-01  3.9168711759105707e-01  5.6702459126465687e-01  5.7099824460594306e-01  5.6319277684732005e-01  7.2415802873538360e-01  7.2767567029018210e-01  7.2055687094237042e-01  8.6854754625767139e-01  8.7105681362734211e-01  8.6550187508855325e-01  1.0000000000001013e+00  1.0000000000001010e+00  1.0000000000000990e+00  -1.2767935647962577e-13  1.9162141021856127e-01  3.7239875636117287e-01  5.4287825791198663e-01  7.0385188832683332e-01  -1.3736469929390403e-13  -1.3531140949255685e-13  2.1536214212692711e-01  2.1413241815071277e-01  4.0381689170562862e-01  4.0220332929346930e-01  5.7494124821143622e-01  5.7310875928145677e-01  7.3132960726368812e-01  7.2964456146050871e-01  8.7409460002010841e-01  8.7288724798769668e-01  1.0000000000000988e+00  1.0000000000000968e+00  -1.2026674165859680e-13  -1.2156978177440982e-13  2.0771161164440546e-01  2.0164676648997043e-01  3.9099186961611232e-01  3.8597854414829885e-01  5.6087163644102533e-01  5.5629147528930023e-01  7.1964354168907574e-01  7.1475387795550138e-01  8.6795235264835413e-01  8.6266111476145002e-01  1.0000000000001124e+00  1.0000000000001137e+00  -1.3672669748148028e-13  2.0766856991603969e-01  3.9557945700582620e-01  5.6690045618014695e-01  7.2381281939712072e-01  8.6810009080804729e-01  1.0000000000000975e+00  -1.2831091591165394e-13  1.9821915225686718e-01  3.8195411430831960e-01  5.5287222468387776e-01  7.1214271708191013e-01  8.6076970089373106e-01  1.0000000000001059e+00  -1.3323141807604333e-13  2.1919942963810388e-01  4.0788767733046499e-01  5.7895609510875001e-01  7.3501722322683993e-01  8.7695992270801082e-01  1.0000000000001008e+00  -1.2010192378411090e-13  2.0358521898576998e-01  3.8898742501703470e-01  5.5960437304362309e-01  7.1751207364518332e-01  8.6439590562149871e-01  1.0000000000001137e+00  -1.3875511099719267e-13  -1.3817360289421900e-13  2.1080632689974332e-01  2.0512735705499274e-01  3.9857079185222477e-01  3.9232180189637705e-01  5.6958234703513466e-01  5.6357490262415766e-01  7.2625038520173912e-01  7.2090144260218258e-01  8.7001904029922295e-01  8.6601494189659223e-01  1.0000000000000959e+00  1.0000000000000955e+00  -1.3588313433190251e-13  2.1022516482895476e-01  3.9758465194201742e-01  5.6869007447221243e-01  7.2573308871380404e-01  8.7015447837401216e-01  1.0000000000000984e+00  -1.3745376887141899e-13  2.0230564819727942e-01  3.8920157717334136e-01  5.6046284235046329e-01  7.1793768243613265e-01  8.6360183162319615e-01  1.0000000000000968e+00  -1.1855038098341374e-13  -1.1814676928773870e-13  2.1228692453776968e-01  2.0657843913018312e-01  3.9890645440328382e-01  3.9362701133710715e-01  5.6950765335116127e-01  5.6452352134090689e-01  7.2650295319494640e-01  7.2160549701518517e-01  8.7104182846618117e-01  8.6675208901133860e-01  1.0000000000001157e+00  1.0000000000001155e+00  -1.3731383125965226e-13  -1.3493611966034479e-13  2.1188143921631089e-01  2.0248154990807429e-01  4.0012085320975310e-01  3.9004734868835911e-01  5.7136622129875858e-01  5.6140868279711498e-01  7.2818058353785431e-01  7.1863009105407272e-01  8.7168327376976318e-01  8.6358383383639403e-01  1.0000000000000993e+00  1.0000000000000968e+00  1.0000000000001223e+00  1.0000000000001201e+00  8.8249845125334625e-01  -1.1807075161443820e-13  1.9903402250190111e-01  3.8515861059154843e-01  5.5619456708117165e-01  7.1402036394427004e-01  8.6072782703193174e-01  1.0000000000001159e+00  8.6717464890734031e-01  1.0000000000000933e+00  1.0000000000000970e+00  -1.1590557652963904e-13  2.0803527930139296e-01  3.9710781631358399e-01  5.6849533050762024e-01  7.2487209836394706e-01  8.6839627754463211e-01  1.0000000000001179e+00  -1.3600376011524998e-13  2.1684095040864415e-01  4.0455394163691549e-01  5.7545218674899579e-01  7.3222145313822640e-01  8.7554850227991066e-01  1.0000000000000981e+00  -1.3472213815395057e-13  2.0880251900344265e-01  3.9762489777676685e-01  5.6918424963695990e-01  7.2583150197472679e-01  8.6919149252508565e-01  1.0000000000000995e+00  -1.2225283768619705e-13  1.9917345024793121e-01  3.8175054457804053e-01  5.5169222478522506e-01  7.1072731220970864e-01  8.6035845716653714e-01  1.0000000000001117e+00  -1.3506984110245240e-13  2.0161405022985909e-01  3.8677623664469724e-01  5.5789540833941242e-01  7.1651025411717306e-01  8.6380366355841898e-01  -1.4369634015044561e-13  -1.4149920218473757e-13  2.1057675113938834e-01  1.9876952756034413e-01  3.9683731953534718e-01  3.8353331291338832e-01  5.6761677689782286e-01  5.5454925904755747e-01  7.2509748457512302e-01  7.1325711825767057e-01  8.7018975663699671e-01  8.6112491905525812e-01  1.0000000000000926e+00  1.0000000000000904e+00  -1.3226729832850452e-13  -1.3384773907433048e-13  2.0401281333755325e-01  1.9950803819753435e-01  3.9072691483280614e-01  3.8412974097246100e-01  5.6201875995531647e-01  5.5521804698121990e-01  7.1994365230560731e-01  7.1423563999260653e-01  8.6576911194031358e-01  8.6356200511116854e-01  1.0000000000000913e+00  -1.1639364564225679e-13  -1.1508698838473908e-13  2.0273939482038264e-01  2.1676532010410779e-01  4.0454391871406037e-01  3.9005906158989778e-01  5.7521321442975992e-01  5.6123905605541913e-01  7.3150173812494268e-01  7.1854957586914747e-01  8.7433671600481855e-01  8.6388926337560146e-01  1.0000000000001175e+00  1.0000000000001190e+00  -1.2253678967930564e-13  -1.2405482573596378e-13  1.9610624967562623e-01  1.9757959999775268e-01  3.7855922822321975e-01  3.7987940950013699e-01  5.4861246898713845e-01  5.4982325339986360e-01  7.0783875959446918e-01  7.0904018325168838e-01  8.5774449187920088e-01  8.5886049908185758e-01  1.0000000000001101e+00  1.0000000000001115e+00  -1.4372325022174375e-13  -1.4207770857499975e-13  2.0108739891136423e-01  2.0938643348066796e-01  3.8709012045724500e-01  3.9474617921722643e-01  5.5822677035858936e-01  5.6545786210859950e-01  7.1630842072814171e-01  7.2358184835289496e-01  8.6293683041917146e-01  8.6974899068325240e-01  1.0000000000000921e+00  1.0000000000000904e+00  -1.1579139740817400e-13  2.0701670648619908e-01  3.9187446704807466e-01  5.6233571375633140e-01  7.2039964299711146e-01  8.6720802293088395e-01  1.0000000000001183e+00  -1.3769682433374145e-13  2.1193089798826831e-01  3.9871641015796455e-01  5.6946894194257802e-01  7.2632677483189079e-01  8.7066486469887261e-01  1.0000000000000966e+00  -1.3413002767340166e-13  -1.3200118791314210e-13  -1.3197147572450554e-13  2.0495253091030602e-01  2.0703310684673798e-01  2.0966468030796637e-01  3.9529683864866216e-01  3.9224572615027026e-01  -1.2071659576145098e-13  2.0301769205340237e-01  3.8797904712376485e-01  5.5839018632313397e-01  7.1639463551900273e-01  8.6374141234742985e-01  1.0000000000001130e+00  -1.2987490052785042e-13  -1.2981881606766277e-13  2.0370721399396874e-01  2.0036170614351267e-01  3.8867586950000721e-01  3.8447312844986686e-01  5.5985925944688064e-01  5.5568817520828384e-01  7.1874770886688322e-01  7.1521382171362458e-01  8.6635275033924608e-01  -1.3919082468570328e-13  2.0971083324766790e-01  3.9658506109300962e-01  5.6760167979782239e-01  7.2482858108653270e-01  8.6985042764792919e-01  1.0000000000000948e+00  -1.4179570710686279e-13  -1.3977501673830179e-13  2.0378136224484528e-01  2.0776668241318719e-01  3.9080499146236686e-01  3.9429926867503157e-01  5.6203577008419647e-01  5.6522261995380374e-01  7.1961654523020502e-01  7.2279590353492873e-01  8.6517407110049060e-01  8.6825638475365119e-01  1.0000000000000944e+00  1.0000000000000924e+00  -1.2726693985661169e-13  1.9456074990620095e-01  3.7631149871832409e-01  5.4658679876147875e-01  7.0644044221837232e-01  8.5727200503186873e-01  1.0000000000001068e+00  -1.3966568241368447e-13  2.1073873663665221e-01  3.9761445669207329e-01  5.6854999142013085e-01  7.2573705902757457e-01  8.7031408203311378e-01  1.0000000000000944e+00  -1.2560272154366231e-13  2.0232216591411614e-01  3.8516652488328346e-01  5.5528081307476129e-01  7.1449955459035297e-01  8.6389796747389858e-01  1.0000000000001084e+00  1.0000000000001044e+00  -1.2361242325326183e-13  1.9557354749390049e-01  3.7776296690875943e-01  5.4775991528588497e-01  7.0712544263288490e-01  8.5720787173412383e-01  1.0000000000001104e+00  -1.3931942522469215e-13  2.1413706766073470e-01  4.0093924741886428e-01  5.7175344842976505e-01  7.2873053467925608e-01  8.7298216537712170e-01  1.0000000000000948e+00  1.0000000000001199e+00  1.0000000000001206e+00  8.6625899081692159e-01  -1.2517503925612145e-13  2.0067046533780583e-01  3.8337640201404599e-01  5.5348580576799500e-01  7.12675173443