<?xml version="1.0"?>
<VTKFile type="UnstructuredGrid"  version="0.1"  >
<UnstructuredGrid>
<Piece  NumberOfPoints="993" NumberOfCells="4291">
<Points>
<DataArray  type="Float64"  NumberOfComponents="3"  format="ascii">1.168031883077998 1.565794378947948 1.461504770759602  1.272581444076399 1.521625932910584 1.510496282104881  1.171617514535125 1.479624859145885 1.566984213007006  1.169123676584748 1.427272208622997 1.528277108932676  1.270797890057483 1.471828506583195 1.469692668167073  1.167170168863462 1.51462419374292 1.420781043438865  1.167082524639161 1.374673229576896 1.489538612446404  1.269428980460013 1.421745095141326 1.428844520986864  1.166694438322433 1.463191654151283 1.379931760414859  1.165180031193294 1.321868035618547 1.450799520895255  1.268216226891822 1.371436498252238 1.387952730591155  1.166349611642288 1.411502715295474 1.338992567987036  1.163173653602846 1.268901793936658 1.412060503635295  1.266952965935529 1.320958864101668 1.34702506124377  1.165921021159405 1.359570898338491 1.298005891591861  1.160833961865265 1.215840791546152 1.373286860359055  1.265442445970548 1.270372693162983 1.306025657999242  1.165232185644893 1.307401691869827 1.25695850810402  1.157882278371628 1.162736749529886 1.334389198793342  1.263434995290146 1.219735329014493 1.264853851041764  1.164110897417296 1.254972299054182 1.215751152135518  0.90886118326683 1.568194029775064 1.451838172839612  1.028418194306059 1.591826850599213 1.42525398245944  1.029571910832461 1.502513684375585 1.545810206785947  1.028770787919751 1.447934888157908 1.507613463108309  1.030684118322486 1.537688143127911 1.38510164501021  0.9108675150194077 1.5120793861319 1.411568532426912  1.028440820141858 1.393100141312324 1.469305668055986  1.033361708466014 1.483290300428163 1.344756714921517  0.9132588531166863 1.455695968482952 1.371088384614982  1.028195795252194 1.338019048012366 1.430970071922264  1.03611068015011 1.428600958491477 1.304302728430658  0.9156843409289125 1.39899110231402 1.330518724455424  1.02778679140666 1.282706193091746 1.392637236196107  1.038740440778415 1.373619074131222 1.263795422432382  0.9179588272903071 1.341958562062866 1.289911967044037  1.027001780010056 1.227179677270221 1.354297325026629  1.041109491682449 1.318332134552477 1.223252802521433  0.9199423984513926 1.284564433060815 1.249284657804295  1.025653473038957 1.171448065902729 1.315900497246646  1.043119132064437 1.262668472720355 1.182691894452265  0.9215308745458362 1.226731924955578 1.208607150049943  1.653837620587346 1.487934359018609 1.419348649526156  1.610309434283778 1.39112834095568 1.508895767031083  1.746550144566283 1.387792208415137 1.479541508619159  1.61909314852576 1.435515961839519 1.555706773152887  1.658817275468362 1.527962793865104 1.469736227497901  1.73540958826739 1.346628006807065 1.429073906846858  1.649094995397051 1.447672878737614 1.369043424639414  1.60166903747482 1.346459834049687 1.462254971353468  1.724337477799191 1.305359373994737 1.378680071166599  1.644475468624703 1.407272805945968 1.318743207522587  1.593142719739779 1.301645929490841 1.415668105951223  1.713310556867832 1.264098431675236 1.328293848853412  1.639874107526476 1.36681177448786 1.268398733504984  1.584668667700083 1.256795656679529 1.369074177336384  1.70230648524157 1.222983805241038 1.277853727116712  1.635190632096216 1.32639305531403 1.217971040804407  1.576181930380668 1.212053742195501 1.322414026825869  1.691382262421497 1.18217506060718 1.227284003844348  1.630358597207758 1.286191560288068 1.167404195580947  1.567627802005152 1.167626558063576 1.275589692664338  1.162608287760912 1.664055138173127 1.338509909433131  1.293560309399381 1.591476590608855 1.424148674554688  1.293945817379612 1.542888961045387 1.381225512279102  1.165933759925364 1.613951765150827 1.29454913035168  1.294725606207837 1.494072837740243 1.338226735550218  1.169624578504436 1.56371432971523 1.250350283931954  1.295654783451753 1.445053455398269 1.295162421260308  1.173415737948194 1.513231038756235 1.206024823355139  1.296525868479381 1.395845674193447 1.252046154838067  1.177125741962954 1.462480496440024 1.161634128043996  1.297168665331297 1.346479500952777 1.208862448947158  1.180636387505957 1.411434100549847 1.117205248062915  1.297376147816357 1.296978486146341 1.165553287966082  1.183887383355013 1.360047578208046 1.072759720683142  1.537235754372968 1.513682895250969 1.491809817349388  1.532369009020873 1.469600775681609 1.445261825972738  1.527776705542276 1.425265519429831 1.398820951423184  1.523329490822096 1.380784074900491 1.352388739345749  1.518894516323524 1.336234229559942 1.305922826096048  1.514334594725888 1.291726098960352 1.259380629410913  1.509543122288487 1.247410301606636 1.212662279521325  1.5436878936295 1.612652648023666 1.409998787177517  1.543362594876404 1.571403923000437 1.361692297761476  1.54340034917408 1.529938530555695 1.313281004972627  1.543611058419377 1.488300346233484 1.264779734780505  1.543834160597973 1.446528143604814 1.216197616979419  1.543915407658629 1.404662284191487 1.167499379394197  1.543644340878618 1.36277936350607 1.118602946876295  0.9101126112069072 1.727534614377724 1.252893593097417  1.028777099371395 1.659542150591836 1.331706767035231  0.9134127280867991 1.643051533591803 1.347515190781951  0.9153295865423352 1.588064586759601 1.303805229715064  1.031821266009403 1.607119314768782 1.287461451795425  0.9127129103207532 1.676139559074788 1.203453291033653  0.9175122685965673 1.532798297334002 1.259837744422735  1.035181294137744 1.554458097091209 1.242927770871042  0.9155136002053691 1.624559720616801 1.153627386311073  0.919725211038026 1.477228945176278 1.215736169598475  1.038589799173103 1.501527697959846 1.198267522030253  0.9183651518725725 1.572695071411591 1.103599004090305  0.9218488422925273 1.421323960135746 1.171571662998972  1.041906207438229 1.448282880898148 1.153544610768347  0.9211864454667661 1.520496802559223 1.053476658326245  0.9238135164701821 1.365049748733252 1.127389183709  1.045052270301818 1.394679951846122 1.108794723659548  0.9239404683301922 1.467910955530799 1.003317438873814  0.9256073144983141 1.308385376868582 1.08322545015455  1.048012289838259 1.340689488419257 1.064014275029671  0.926639261684868 1.414870836834186 0.9531231359262168  0.9015076258280418 1.497575657497388 1.554606768103657  0.9020982335287164 1.439702970466835 1.518133692012502  0.9031655981824587 1.38155024982139 1.481545575649707  0.9042498450019099 1.32312066780249 1.44491981217277  0.9051211429026134 1.264424895439558 1.408286144538788  0.9055851287512877 1.205451226902444 1.371647530774134  0.9054289587320701 1.146149912356309 1.33499031919626  0.924044040878388 1.432128595369544 1.664186914570495  0.9223691268400848 1.374223495610336 1.629942438904301  0.9213218703484809 1.316077219994551 1.59560547689723  0.9203512317810431 1.257687348638479 1.561259236264491  0.919145708729486 1.199100053630129 1.5269334752622  0.9174196079821428 1.140349876233861 1.492615184902386  0.9148237566106255 1.081405706113339 1.458284421920046  1.296094566915521 1.458548843669839 1.585354143975234  1.291332210389893 1.408601948471194 1.545131851894811  1.286968472301761 1.358392962788149 1.504972543988854  1.282785334477385 1.307993456401885 1.464830247866531  1.278569425724543 1.257480053804823 1.42468612633423  1.274119241337772 1.206960687584886 1.384499096721351  1.269172058476056 1.156596322376186 1.344179914168273  1.422763725597528 1.376170577293208 1.663042986422518  1.543272208720203 1.36704919991794 1.637620508399492  1.434931366854542 1.302970045969892 1.745381389455912  1.420986308410769 1.253154636438723 1.705124589501164  1.531675695023968 1.320198830781027 1.593397700071757  1.412939850458073 1.327129245427569 1.622119824228047  1.407200877256098 1.203202580968522 1.665114983027018  1.52022225307812 1.273140646552042 1.549405976798603  1.403317536712467 1.277853480902432 1.581389054861863  1.393585437019123 1.153153819414078 1.625232985265903  1.508903940834919 1.225964998158465 1.50552418691433  1.393861979328179 1.228427761171905 1.540732449106777  1.380049754468823 1.103084628642018 1.585420155845295  1.497652741030446 1.178777364726491 1.46168124561297  1.384453440576924 1.17895152400284 1.500105661619399  1.366473034978981 1.053150295081219 1.545588598148961  1.486399911630081 1.131730993983069 1.41781915020205  1.374981410856101 1.129563345666392 1.459469092704311  1.352833610414303 1.003627982041596 1.505608870916955  1.475103091254164 1.085087120569465 1.373808608736612  1.365307166677469 1.080525421741205 1.418732224257178  0.7901843441868376 1.807727939643819 1.166601663410335  0.7885063132823793 1.71398120741801 1.260151620253778  0.7896303194974211 1.660039532290009 1.210138334538388  0.7912112789397492 1.757302188298132 1.11133829788434  0.7908893512299655 1.60586345065846 1.159760623576341  0.7923893694253378 1.706811402676113 1.055675624327433  0.7921987606930336 1.551398349592358 1.10919950180357  0.7936401097009672 1.656109337429039 0.999768425875543  0.793504495311284 1.496589738977557 1.058545222389981  0.7949280307858397 1.605108266473562 0.9437427882646481  0.7947685951686924 1.441384364728692 1.007862866462348  0.7962362756441302 1.553731604326935 0.8876851600584361  0.7959834549970464 1.385736075782399 0.9572009197885799  0.7975789560075592 1.501915105059077 0.8316640027618213  1.404163762548326 1.433320156677658 1.595396147511919  1.302907561157424 1.392769982787602 1.667949777930924  1.294640151739925 1.341841103810213 1.629276540950695  1.397176783607824 1.384859686431778 1.553581993548404  1.286739056133124 1.290695378764217 1.590730320524042  1.390501704017007 1.336150718917473 1.511924946262435  1.279040044664671 1.239386191221824 1.552232586721428  1.383998997386229 1.287282280815018 1.47030974835498  1.271336995399238 1.187999246267931 1.513763760477276  1.377503986747957 1.238339150665135 1.428690343300216  1.263427829208467 1.136685631438564 1.47528573
[...]
<PointData  Scalars="f_14"> 
<DataArray  type="Float64"  Name="f_14"  format="ascii">-2.1672488494911908e-13  -2.1469173041794734e-13  -2.1648144409342306e-13  1.7052954468284814e-01  1.6461545692671078e-01  1.6453431424474319e-01  3.3660615179727460e-01  3.2961000294456028e-01  3.3072083071105468e-01  5.0225225503051685e-01  4.9478007218143283e-01  4.9646549879033247e-01  6.6856057269303382e-01  6.6073151163220745e-01  6.6182882515696140e-01  8.3583740037021348e-01  8.2850907158327980e-01  8.2794509336002742e-01  1.0000000000000175e+00  1.0000000000000193e+00  1.0000000000000171e+00  -2.2144983094937976e-13  -2.1932107448289916e-13  -2.1913706783799938e-13  1.6894160026385396e-01  1.6941345712836547e-01  1.7333168950546823e-01  3.3607331910778426e-01  3.3863946597967520e-01  3.4424399449293419e-01  5.0227584343721798e-01  5.0589892565257510e-01  5.1214262898407104e-01  6.6802001637664821e-01  6.7121444880017178e-01  6.7713868212560524e-01  8.3367539005548896e-01  8.3523564928617822e-01  8.3944946151693711e-01  1.0000000000000147e+00  1.0000000000000147e+00  1.0000000000000124e+00  1.6665283614317364e-01  1.6696805883148658e-01  1.7499396499740510e-01  -2.0818769670435980e-13  -2.0760330413656336e-13  3.4426541634778501e-01  3.3263541293551052e-01  3.3340901394003875e-01  5.1151099461776373e-01  4.9838498119963814e-01  4.9929767019521848e-01  6.7731427366414154e-01  6.6456598396337319e-01  6.6507582862305370e-01  8.4133808299128088e-01  8.3209438046550321e-01  8.3128474204933767e-01  1.0000000000000284e+00  1.0000000000000266e+00  1.0000000000000262e+00  -2.1699591881627931e-13  -2.1442926794187817e-13  1.7452763536623339e-01  1.7824994670789249e-01  3.4250147947331239e-01  3.5031573683363942e-01  5.0879642653832780e-01  5.1825679866200436e-01  6.7444920290724353e-01  6.8287913339472017e-01  8.3964563572882533e-01  8.4416777752449768e-01  1.0000000000000195e+00  1.0000000000000169e+00  -2.0980536403867432e-13  1.7213284254889355e-01  3.3842426821578747e-01  5.0397690194333489e-01  6.6994239682956969e-01  8.3668311557997455e-01  1.0000000000000244e+00  -2.0980946437958819e-13  1.5914362017495670e-01  3.2304780537972572e-01  4.8767413176727054e-01  6.5315482815972603e-01  8.2102923295365982e-01  1.0000000000000244e+00  -2.2177925764003225e-13  -2.1947514147772881e-13  -2.2155153123074127e-13  1.8448182021900519e-01  1.8633325474000670e-01  1.8363267911784395e-01  3.5928594125919633e-01  3.6054110502902720e-01  3.6015416568531378e-01  5.2819864052111010e-01  5.2926737101395982e-01  5.2960245214389001e-01  6.9192157904935614e-01  6.9334193268182109e-01  6.9232162845083245e-01  8.5017754028343429e-01  8.5221799663033926e-01  8.4864639707060230e-01  1.0000000000000122e+00  1.0000000000000144e+00  1.0000000000000120e+00  -2.2144255137617749e-13  1.7245389932065811e-01  3.4136225243033552e-01  5.0843480837312716e-01  6.7413199582757921e-01  8.3864647836786588e-01  1.0000000000000124e+00  -2.2090998835737685e-13  1.6420001368322287e-01  3.3008072809752126e-01  4.9588626577092404e-01  6.6183281290314733e-01  8.2875257922337286e-01  1.0000000000000129e+00  -2.1414850068677215e-13  1.6364727779602298e-01  3.2760031126868949e-01  4.9228343360361693e-01  6.5837377210219272e-01  8.2670008689845020e-01  1.0000000000000200e+00  -2.1167586274034060e-13  -2.0944453266182520e-13  -2.1130487711928490e-13  1.6668122874899383e-01  1.7155804582135489e-01  1.6137991156123613e-01  3.3266053568578641e-01  3.3826560626419866e-01  3.2531913364780346e-01  4.9813045473674078e-01  5.0419214090217301e-01  4.8993343529819222e-01  6.6383906474629117e-01  6.7020260434847412e-01  6.5567770039355144e-01  8.3079581956047188e-01  8.3684582119440420e-01  8.2386848457871609e-01  1.0000000000000229e+00  1.0000000000000249e+00  1.0000000000000226e+00  -2.2404452547000793e-13  -2.2392059156639773e-13  1.8938057028208655e-01  1.9089566295090882e-01  3.6675587694735767e-01  3.6950759730849891e-01  5.3626810983422779e-01  5.3922543190006111e-01  6.9875945523652061e-01  7.0104569329265809e-01  8.5423183264123426e-01  8.5521842473848431e-01  1.0000000000000098e+00  1.0000000000000095e+00  -2.1211689293040632e-13  -2.1390893059959151e-13  1.6311361080374423e-01  1.6955801987752650e-01  3.2662427256959714e-01  3.3404545040804590e-01  4.9105357499261909e-01  4.9897092940775151e-01  6.5718298149969789e-01  6.6529926761130198e-01  8.2621590155969149e-01  8.3386836232063422e-01  1.0000000000000202e+00  1.0000000000000220e+00  -2.1847754011258927e-13  -2.1608515454097334e-13  -2.1840706636257278e-13  1.6331458476187138e-01  1.6314663978626470e-01  1.6601762353177188e-01  3.2836056808860403e-01  3.2690531081584223e-01  3.3074840726886162e-01  4.9337077605426216e-01  4.9143723126954725e-01  4.9587631833075863e-01  6.5887714026132971e-01  6.5743365586913838e-01  6.6214509459687387e-01  8.2620067541316644e-01  8.2609638149214271e-01  8.3040626878134038e-01  1.0000000000000155e+00  1.0000000000000180e+00  1.0000000000000155e+00  -2.1255488865140828e-13  -2.0999377285938477e-13  -2.1230005473935055e-13  1.6489572510053138e-01  1.7276939953626369e-01  1.7449578273736524e-01  3.3142592621521832e-01  3.3934311305580378e-01  3.4400130437835785e-01  4.9716767129195072e-01  5.0505742883372451e-01  -2.1234341939841351e-13  1.5727389248115214e-01  3.2030256929038547e-01  4.8458928675999596e-01  6.5017492109353880e-01  8.1890076073758844e-01  1.0000000000000218e+00  -2.1206463331366644e-13  1.6924496555377810e-01  3.3553532391133251e-01  5.0107216660503151e-01  6.6674965925008778e-01  8.3322848568843433e-01  1.0000000000000220e+00  -2.3043075419863337e-13  -2.2850855973947230e-13  -2.2859981582666147e-13  1.8415697832468700e-01  1.8252083298022503e-01  1.8243110498919576e-01  3.6020425317434202e-01  3.5775009583647738e-01  3.5841791843347448e-01  5.2923718692125110e-01  5.2658646267904785e-01  5.2789142629786978e-01  6.9173235348594497e-01  -2.2082417149225847e-13  -2.2063200978619610e-13  1.6861822289782413e-01  1.7163740199154809e-01  3.3573382713005750e-01  3.3877624121009148e-01  5.0148382434455574e-01  5.0483289992553826e-01  6.6665071190107261e-01  6.7080726990774220e-01  8.3219900664750412e-01  8.3702776507922150e-01  1.0000000000000133e+00  1.0000000000000131e+00  -2.2324194974843943e-13  1.7292401476630914e-01  3.4162145126360949e-01  5.0868169776061178e-01  6.7452235836243835e-01  8.3927910332215516e-01  1.0000000000000107e+00  1.6267376369640840e-01  1.6064113868678764e-01  1.7406857808261531e-01  -2.0752796665718929e-13  3.4099890584870673e-01  3.2686205014542619e-01  3.2480478479421404e-01  5.0739458761981715e-01  4.9181521179547977e-01  4.8984088837192180e-01  6.7420390070000935e-01  6.5811657587486450e-01  6.5586600045604548e-01  8.4080066480647242e-01  8.2691238949461898e-01  8.2406748731749024e-01  1.0000000000000291e+00  1.0000000000000264e+00  1.0000000000000266e+00  -2.1349173803424389e-13  -2.1363646320857740e-13  -2.1111443084022917e-13  1.7780606759310238e-01  1.6401252224494980e-01  1.7556462009291496e-01  3.5017001750794557e-01  3.2994862470204511e-01  6.6054431541346714e-01  6.7708102989154217e-01  6.8176007787788040e-01  5.1280706105423612e-01  4.9528657930728920e-01  8.4214553654289181e-01  8.2725229042152548e-01  -2.2966211896814734e-13  -2.2765164713227012e-13  -2.2737394621584250e-13  1.7732380083921512e-01  1.7742574370161515e-01  1.8172641063904382e-01  3.4818350094252754e-01  3.4887494629438681e-01  3.5519143765803279e-01  5.1572887007035328e-01  5.1660682643907740e-01  5.2355288986056425e-01  6.8065366362027435e-01  6.8126664089932276e-01  6.8733710626250033e-01  8.4289557604444598e-01  8.4311836165097953e-01  8.4661672496555695e-01  1.0000000000000064e+00  1.0000000000000062e+00  1.0000000000000040e+00  -2.2621454579502362e-13  -2.2622628876863678e-13  1.8685964195018442e-01  1.8755302528365927e-01  3.6469037179071490e-01  3.6568260789389367e-01  5.3428843065470477e-01  5.3531171568380331e-01  6.9629349664139850e-01  6.9715374708543731e-01  8.5122065256890167e-01  8.5183783501719379e-01  1.0000000000000073e+00  1.0000000000000073e+00  -2.2302227491670769e-13  -2.2291207460678093e-13  1.7517150267937895e-01  1.7042550141299864e-01  3.4374521952466408e-01  3.3793160400815375e-01  5.0997238748733176e-01  5.0394488358392275e-01  6.7514436167900527e-01  6.6917808143393975e-01  8.3958181957451183e-01  8.3438806531855703e-01  1.0000000000000109e+00  1.0000000000000109e+00  -2.2359302938055060e-13  -2.2374750198504798e-13  1.8256009002041726e-01  1.7204085829943541e-01  3.5637237548248513e-01  3.4229910959753151e-01  5.2511423196605933e-01  5.0984275506109178e-01  6.8944343619519755e-01  6.7479017446998724e-01  8.4895717666430570e-01  8.3741097182242630e-01  1.0000000000000100e+00  1.0000000000000102e+00  -2.2986782357960090e-13  1.7761034364693515e-01  3.5105563879716029e-01  5.1959018617826713e-01  6.8316185165737475e-01  8.4217814992441153e-01  1.0000000000000038e+00  -2.3188528877095356e-13  -2.3195422522234523e-13  -2.2977276620706779e-13  1.8233562476226517e-01  1.9165265691939917e-01  1.8291248358512194e-01  3.5728391387104808e-01  3.7079616979584623e-01  3.6038760122575203e-01  5.2639489727542776e-01  5.4190312833357290e-01  5.3130275925732273e-01  6.8998732854904232e-01  7.0484352678274409e-01  6.9513823197926605e-01  8.4812348037402918e-01  8.5864689754694057e-01  8.5143503155363831e-01  1.0000000000000040e+00  1.0000000000000018e+00  1.0000000000000020e+00  -2.2500629581946629e-13  -2.2734295538464994e-13  1.7063647314936731e-01  1.6855236692062467e-01  3.3982230746807413e-01  3.3594306495845150e-01  5.0668492421984668e-01  5.0200517856112370e-01  6.7151882651872208e-01  6.6715438528030890e-01  8.3522424470392898e-01  8.3220263504512237e-01  1.0000000000000064e+00  1.0000000000000089e+00  -2.2315053599400806e-13  -2.2316240935775553e-13  1.6994583011677142e-01  1.6727645738331115e-01  3.3775917385830090e-01  3.3449178098276022e-01  5.0413622698986094e-01  5.0075535964308193e-01  6.6967550812647958e-01  6.6623369456260673e-01  8.3476778279755492e-01  8.3158708287174243e-01  1.0000000000000107e+00  1.0000000000000107e+00  -2.3226064259385781e-13  -2.3228663250282510e-13  -2.3029486394851664e-13  1.8685206013723726e-01  1.8470701900975883e-01  1.8471557767185159e-01  3.6431946391177933e-01  3.6274344248259338e-01  3.6361849213605896e-01  5.3405477326330930e-01  5.3427266234068249e-01  5.3533449190272930e-01  6.9638407329099949e-01  6.9830207883713757e-01  6.9893005935213959e-01  8.5159793000958617e-01  8.5379304034648584e-01  8.5352455109378367e-01  1.0000000000000033e+00  1.0000000000000013e+00  1.0000000000000016e+00  -2.3031902519276016e-13  -2.2823342492259327e-13  1.8944265412482064e-01  1.8873907696169578e-01  3.6776604098587584e-01  3.6713244407330070e-01  5.3747930928120324e-01  5.3730014330107778e-01  6.9939171186263827e-01  6.9938611982711041e-01  8.5379524603706747e-01  8.5372444132065106e-01  1.0000000000000053e+00  1.0000000000000033e+00  -2.2798877676701472e-13  -2.2590385882159152e-13  -2.2567552966894922e-13  1.7532391165094294e-01  1.8715283895884791e-01  1.8248549737728428e-01  3.4795670909680965e-01  3.6214891172791752e-01  3.5781000312379080e-01  5.1646019513952413e-01  5.3107398678063578e-01  5.2695366128325138e-01  6.8099232896575612e-01  6.9457552439071379e-01  6.9020571045794865e-01  8.4186751671407212e-01  8.5238601321934637e-01  8.4780194218750071e-01  1.0000000000000080e+00  1.0000000000000078e+00  1.0000000000000056e+00  -2.2559202028039784e-13  1.7594136018896836e-01  3.4711627612148022e-01  5.1506655553086200e-01  6.8006600808013873e-01  8.4212293893733625e-01  1.0000000000000082e+00  3.3102909506170997e-01  3.4101407332735573e-01  1.6356153027708015e-01  5.0782981739302746e-01  4.9766985932455765e-01  6.7335306815928864e-01  6.6325467387624182e-01  8.3785698129045527e-01  8.2860039497075533e-01  1.0000000000000251e+00  1.0000000000000271e+00  -2.2592529015805537e-13  -2.2607856374771124e-13  -2.2377335140566004e-13  1.8271148091932929e-01  1.8795005933599435e-01  1.8096180931493819e-01  3.5791205216550459e-01  3.6508001973624193e-01  3.5643300684431445e-01  5.2692921646094693e-01  5.3450828188236765e-01  5.2558411891650259e-01  6.9026305155762957e-01  6.9694612815165191e-01  6.8870171563833771e-01  8.4810434199401097e-01  8.5264237523286734e-01  8.4631675599326328e-01  1.0000000000000100e+00  1.0000000000000075e+00  1.0000000000000078e+00  -2.2539367301035902e-13  -2.2540043344500885e-13  1.7665517604163938e-01  1.6812308545102450e-01  3.4649719376347204e-01  3.3642040070435675e-01  5.1381146889510254e-01  5.0305024932579634e-01  6.7919622742244190e-01  6.6830944910514645e-01  8.4262554303837800e-01  8.3302699557009241e-01  1.0000000000000084e+00  1.0000000000000084e+00  -2.2817357837880528e-13  -2.2812487514900846e-13  1.8745004696733697e-01  1.8412958041342903e-01  3.6465569522069013e-01  3.6028379421865081e-01  5.3418974503473760e-01  5.2963429457345279e-01  6.9660099524392871e-01  6.9251675722234640e-01  8.5216176578558345e-01  8.4932443586032247e-01  1.0000000000000056e+00  1.0000000000000053e+00  -2.2515866087364201e-13  1.7087119126875056e-01  3.3900119317194505e-01  5.0531893389498173e-01  6.7035902304496719e-01  8.3463948477617167e-01  1.0000000000000087e+00  -2.2836461546334171e-13  -2.2654899115588860e-13  1.8953530565902135e-01  1.8897965365150027e-01  3.6744019119736460e-01  3.6630094286040349e-01  5.3692080735380809e-01  5.3563889311665147e-01  6.9886381589053559e-01  6.9773676729645395e-01  8.5370593984044441e-01  8.5308422467288969e-01  1.0000000000000071e+00  1.0000000000000053e+00  -2.1598057929743995e-13  1.6945957299919742e-01  3.3531506728747551e-01  5.0061956234005123e-01  6.6617149718048851e-01  8.3278217783512110e-01  1.0000000000000180e+00  1.0000000000000207e+00  -2.1863662670407369e-13  -2.1634121661109992e-13  1.6019868276655694e-01  1.6709009963088939e-01  3.2345409494086685e-01  3.3224264234550865e-01  4.8789770474209726e-01  4.9758376458350950e-01  6.5397571997954351e-01  6.6377868325321454e-01  8.2303789758153556e-01  8.3144383604396876e-01  1.0000000000000178e+00  1.0000000000000153e+00  -2.2988456408730753e-13  -2.3206106474376531e-13  -2.2989476211252956e-13  1.8853911131948511e-01  1.8597547857227933e-01  1.8182547442374722e-01  3.6549777001619016e-01  3.6573941665506549e-01  3.5782571360937165e-01  5.3517660813251333e-01  5.3701641395497335e-01  5.2749694920800883e-01  6.9795714452933444e-01  6.9946595264435341e-01  6.9082881038797972e-01  8.5377356402923832e-01  8.5287120150669271e-01  8.4812043272130577e-01  1.0000000000000038e+00  1.0000000000000016e+00  1.0000000000000038e+00  -2.3014407935194139e-13  -2.3026395240754888e-13  1.8918031171167199e-01  1.8611901922093796e-01  3.6825509883942092e-01  3.6401369604191491e-01  5.3871909356648950e-01  5.3422187183882952e-01  7.0093995478848481e-01  6.9676935638916015e-01  8.5489313531212918e-01  8.5189463890850281e-01  1.0000000000000033e+00  1.0000000000000036e+00  -2.3173802198161759e-13  -2.3194211736282026e-13  1.8451002565244654e-01  1.8076924242503339e-01  3.6147411248523120e-01  3.5641604457760717e-01  5.3198217478795651e-01  5.2616012528817646e-01  6.9587020956224255e-01  6.8978959698574882e-01  8.5235642230923658e-01  8.4697918756514190e-01  1.0000000000000018e+00  1.0000000000000020e+00  -2.1367294778958673e-13  1.6629656121206565e-01  3.3058776431450670e-01  4.9537732761951014e-01  6.6139080387513005e-01  8.2961638535858706e-01  1.0000000000000204e+00  -2.3212818352862662e-13  -2.3229007960928307e-13  1.8761984216650299e-01  1.9411370033336606e-01  3.7494184109417500e-01  3.6785554252302560e-01  5.4687190712239653e-01  5.3981792697377429e-01  7.0281085581495006e-01  7.0961502123944475e-01  8.5592710220645762e-01  8.6179401926860599e-01  1.0000000000000013e+00  1.0000000000000016e+00  -2.1753667853320586e-13  -2.1482727657416413e-13  -2.1719814079883067e-13  1.8240839295677772e-01  1.7789975973133915e-01  1.8797126314235957e-01  3.4984713859310007e-01  3.6505895759047158e-01  3.5679009040131959e-01  5.1777251550205183e-01  5.3457304037425490e-01  5.2558426069150221e-01  6.8222070706161020e-01  6.9733878988007147e-01  6.8935188724922103e-01  8.4338252198617758e-01  8.5318843839839953e-01  8.4820389903571980e-01  1.0000000000000191e+00  1.0000000000000162e+00  1.0000000000000167e+00  -2.2662049156277672e-13  -2.2454411651372683e-13  1.8887167849358175e-01  1.8388898023595610e-01  3.6675236650020987e-01  3.6036243880859792e-01  5.3622660346960738e-01  5.2946634022095318e-01  6.9811953872874721e-01  6.9178358653959637e-01  8.5305762162771448e-01  8.4804001860055445e-01  1.0000000000000091e+00  1.0000000000000069e+00  -2.2823838481666014e-13  1.8950920767929183e-01  3.6758371645665550e-01  5.3741087085844763e-01  6.9961757332254471e-01  8.5452905958384739e-01  1.0000000000000053e+00  -2.2769728929087468e-13  -2.2778466881266674e-13  1.7556974776731638e-01  1.8244150469077497e-01  3.5699928198160785e-01  3.4875681743576464e-01  5.2615125861441814e-01  5.1741610028603791e-01  6.9022898814393996e-01  6.8158216907614000e-01  8.4933199396278147e-01  8.4152003099183303e-01  1.0000000000000060e+00  1.0000000000000060e+00  -2.2239264733522164e-13  -2.1992824677096725e-13  -2.2217521843781933e-13  1.9400394598231649e-01  1.8722716755981011e-01  1.8643524204156137e-01  3.7325957662802917e-01  3.6565709019835874e-01  3.6453579458698232e-01  5.4311799382716885e-01  5.3545585452928879e-01  5.3418747396851518e-01  7.0470948595646798e-01  6.9741672942416433e-01  6.9605786996081442e-01  8.5812848553698151e-01  8.5203848498903956e-01  8.5075236196310999e-01  1.0000000000000115e+00  1.0000000000000138e+00  1.0000000000000113e+00  -2.2764443274090012e-13  -2.2761746820141300e-13  1.7575856713415458e-01  1.7969261101607481e-01  3.5280499166923385e-01  3.4755247347558554e-01  5.2124966057835898e-01  5.1545814629201558e-01  6.8555055132169684e-01  6.7978364804714853e-01  8.4576834189364392e-01  8.4076484278181596e-01  1.0000000000000060e+00  1.0000000000000062e+00  -2.2088645128377124e-13  1.6697465038704820e-01  3.3282816983962504e-01  4.9843447909777455e-01  6.6426544048590042e-01  8.3093236769889489e-01  1.0000000000000129e+00  1.6163873761352318e-01  -2.2432920874371757e-13  1.9225656807030575e-01  3.7101322684955834e-01  5.4062547056363586e-01  7.0212265965082221e-01  8.5580580317126187e-01  1.0000000000000093e+00  -2.1025484007366646e-13  1.6409754071839303e-01  3.2899424974487607e-01  4.9401806510970381e-01  6.5986073620880015e-01  8.2745496471656466e-01  1.0000000000000240e+00  -2.2988226001210721e-13  1.8219643430123983e-01  3.5783465924541358e-01  5.2724837035612571e-01  6.9058334097538321e-01  8.4801493669442851e-01  1.0000000000000038e+00  -2.2996940997473567e-13  1.8099678341194245e-01  3.5776716256630259e-01  5.2764353268531017e-01  6.9059933218449332e-01  8.4712849066334150e-01  1.0000000000000036e+00  -2.1459485262602679e-13  1.6792222791740241e-01  3.3677642100249061e-01  5.0354121210599978e-01  6.6850544428395153e-01  8.3255434902128089e-01  1.0000000000000193e+00  -2.2535918398603386e-13  1.7059094551267387e-01  3.4029908433881195e-01  5.0769492432107299e-01  6.7294693423818919e-01  8.3641111819798908e-01  1.0000000000000084e+00  6.6244008898713069e-01  8.2863483652532754e-01  1.0000000000000218e+00  -2.3407600241527314e-13  -2.3214664436024912e-13  1.8720071339588001e-01  1.9702519271164129e-01  3.6767274625316920e-01  3.8291208533597104e-01  5.3988439934129606e-01  5.5932045684247311e-01  7.0304027122877921e-01  7.2502504802894374e-01  8.5627341960697756e-01  8.7650306062936190e-01  1.0000000000000016e+00  1.0000000000000000e+00  -2.2196098896914725e-13  -2.1982910560113252e-13  1.9415156863131391e-01  1.8897101621204768e-01  3.7265161510320505e-01  3.6720753583929727e-01  5.4237670146776162e-01  5.3697658385681468e-01  7.0444974879823785e-01  6.9896457063235473e-01  8.5857079732201924e-01  8.5354055442338594e-01  1.0000000000000140e+00  1.0000000000000118e+00  1.6131716191316711e-01  3.2725108310668072e-01  4.9331171686859876e-01 