<?xml version="1.0"?>
<VTKFile type="UnstructuredGrid"  version="0.1"  >
<UnstructuredGrid>
<Piece  NumberOfPoints="2257" NumberOfCells="10332">
<Points>
<DataArray  type="Float64"  NumberOfComponents="3"  format="ascii">8.123963870888062 3.031974882518874 0.8525083330028909  8.062703390031361 2.955567925177228 0.8521412388386504  8.032128368178475 3.092276104198452 0.8458160966112692  8.037936290068743 3.093385738973185 0.7766207560153507  8.073565353376337 2.944767355376157 0.7857748748764195  8.133079056443346 3.026177435772532 0.7841489845661386  8.084464375073898 2.93391195261643 0.7194425315704228  8.142239769194484 3.020306137171641 0.7158048174275504  8.043729862777251 3.094459485787887 0.7074106971852143  8.151438911859241 3.014370591868898 0.6474893197501572  8.095401095383085 2.923007395622081 0.6531549802706634  8.049548975826514 3.095473060358844 0.6381904452000667  8.160669442654651 3.008385973708942 0.5792022167337173  8.10635993687753 2.912055245952138 0.5869036493941394  8.055398117026648 3.096429650902681 0.5689699871181255  8.169922566881707 3.002367963514136 0.5109367073323179  8.117330192871481 2.901063805497584 0.5206816208900307  8.061277839457814 3.097331523933728 0.4997522991739667  8.179194589204972 2.99632815773972 0.4426932636569148  8.128298304375338 2.890050980044395 0.4544774168028328  8.0671952496579 3.098179490855676 0.430535374745681  8.343726342201517 3.94649873602344 1.337671600620535  8.239969820286356 3.919744049257905 1.325989551393637  8.313488361973585 3.984345728894108 1.431192176324541  8.299362810092113 4.049046138419655 1.404785612938534  8.228720571008056 3.982263070026244 1.29197226741454  8.330439592025614 4.009245224871819 1.303349356603288  8.285451393068659 4.113810506600871 1.378245206062355  8.217580714647086 4.044803701304532 1.257819529650936  8.31732070659897 4.072009071604265 1.26894055411169  8.271602657925657 4.178638669634904 1.351624072986166  8.206463296881161 4.107384829021377 1.223579667695483  8.304257199970186 4.134802043561025 1.234460929268231  8.257709560738704 4.243527719697726 1.324958400263295  8.195297506779962 4.170011079288298 1.189276657086578  8.29115692327203 4.19762391777882 1.19992193951389  8.24366057370926 4.308470005871381 1.298273355035456  8.184016265587744 4.23268588341095 1.154930903256453  8.277928814169051 4.26046624004281 1.1653301286072  8.229260341801965 4.373434978107928 1.271587946262003  8.172521172201725 4.295448759630711 1.120552910519801  8.26447042177897 4.323290073448154 1.130705623305655  8.892112911961314 3.413147062187461 0.8784869437777838  8.795603031922198 3.304520121808256 0.8751292726293461  8.781972346306633 3.474217356819844 0.9048787849713804  8.775085013613895 3.489883018951054 0.8310499827243478  8.786052251999765 3.305880802759257 0.8014439402600004  8.883053660742265 3.427541230832335 0.8045777996585735  8.76814180745747 3.505608063357051 0.7571349844141272  8.776461413720336 3.307208473822248 0.7276767956774568  8.873924264858873 3.441983819536168 0.7305696705173041  8.761185393055023 3.521321036985004 0.6831489123341739  8.766866277219565 3.308466093788831 0.6538605651707685  8.864780487069117 3.456391912367287 0.6564738452050449  8.75424877615745 3.536976940321967 0.6090985790397927  8.757290530967685 3.309656326218314 0.5800137037195975  8.85565524477567 3.470732352043029 0.5823086028645597  8.747353729641274 3.552545488784046 0.5349825923227662  8.747754464109086 3.310781578404282 0.5061392280164253  8.277449772338057 3.447060798235477 0.9049939228936621  8.220254459799055 3.358789680648172 0.8899929707808734  8.167128769607853 3.481188653005215 0.925955806180787  8.162342799559186 3.511823100261368 0.8592708430980502  8.218898701594661 3.376824633465779 0.8194411109663139  8.275300411786601 3.471882670452947 0.8350326026556653  8.157545079327889 3.542472741879122 0.7925317681955457  8.217541472197 3.394848986769978 0.7488328213080975  8.273128745175145 3.496712202399843 0.7650136876252358  8.152751432848936 3.573093693539084 0.7257232603944779  8.216201294679317 3.41282321928071 0.6781695958236311  8.270968201809849 3.521502210072502 0.6949269154992458  8.147964802312044 3.603673476893563 0.6588397016769867  8.214886197214435 3.430737661833623 0.607459396451157  8.268824029810451 3.546237097457974 0.6247710373634306  8.143180615026475 3.634204759750125 0.591875526319812  8.21360053678152 3.448586139450126 0.5367091896179538  8.266692254362844 3.570913409809688 0.5545349274490922  8.138361336446382 3.664665211413308 0.5248368024388311  8.212334915796848 3.46635526286282 0.4659217240700014  8.264595555934998 3.595522196875867 0.4842184622110968  7.914583213520623 3.026891808092581 0.8315482885395671  7.92291789465583 3.025693483221596 0.7633375105642373  7.931239522704056 3.024479396107608 0.695118126586904  7.939578599507342 3.023227154275873 0.626892608583617  7.94794196290166 3.021922209900048 0.5586667077743549  7.956329683852723 3.020556476741135 0.4904441610319007  7.964751531344106 3.019124643098418 0.4222315249107816  8.195955422444648 3.976351966118678 1.469619459313372  8.184877971651284 4.041183289385097 1.446068932298798  8.173928309278988 4.106107067299129 1.422335406506712  8.162989907146565 4.171130595457315 1.398510061730141  8.151988827343047 4.236248072946024 1.374647380942567  8.140840871537479 4.301467472820772 1.350778739478122  8.129430578999406 4.366800354321525 1.326925429614461  9.001778035516782 2.802820622614381 0.9838453316914378  8.882790196043876 2.867547058150486 0.9371389813380175  9.003738622348529 2.917445577691455 0.9131358420170691  8.884685532769161 2.835178638475659 0.8801795234448366  9.002809496475955 2.767707440580363 0.9308092620318847  9.00483688066152 2.884612512838711 0.8549033258405183  8.886544996414328 2.802697155851299 0.8233541392721412  9.003794465369024 2.73247061508124 0.8779307273165275  9.005898949728728 2.85165501749769 0.7967643709005591  8.888374559447191 2.770207176432746 0.766613542042348  9.004752948517082 2.697252218387885 0.8251382351072292  9.006952612769849 2.818706249407749 0.7386751878168047  8.890223412425486 2.737837664392813 0.709888700418765  9.005737634189856 2.662190528908788 0.7723461938831596  9.008043840628719 2.785865873367932 0.6805762647790377  8.892195276637361 2.705696217547315 0.6530979335962824  8.091894663020534 3.404190209052431 0.8992500980843563  8.090390479107034 3.429599997277939 0.8312686574340469  8.088869580308577 3.454988468027453 0.763224148191457  8.08735312095774 3.48033794207398 0.6951244546713511  8.085846994934265 3.505637975285707 0.6269645155808111  8.084342711163599 3.530878825909896 0.5587324293810818  8.082853597728636 3.556053676686236 0.490402174171973  8.13866060033668 4.318873674400593 2.10227512559805  8.234261738735649 4.355692881251115 1.987258321554007  8.261941554448029 4.335860647034629 2.117183879328102  8.145762453433161 4.258709272714468 2.097175136945506  8.221486929936338 4.417436731622852 1.991501554946359  8.131284171890417 4.379374826281685 2.107593686497002  8.251500654600827 4.395870596503079 2.123837790335006  8.688842736335692 3.3817933049061 0.8926705857355368  8.686637093596859 3.391102015580147 0.8185865464468886  8.684375019573654 3.400412065831828 0.7444115039723543  8.682111600381543 3.409673686629503 0.6701836490789789  8.679871479227206 3.418871210051885 0.5959090257631656  8.677670652927311 3.427992275671195 0.5215831627826015  8.740474433796612 3.567986477056323 0.4607958403906466  8.738273892225832 3.3118247077079 0.4322225138742335  8.675544525815496 3.437039083876095 0.4471814990152221  8.909170683370716 3.29943028069354 0.8553142090233061  8.903793745924816 3.297302508749781 0.7803667336674731  8.898355108002605 3.295110568988896 0.7053342817379795  8.892915522762301 3.292851295539009 0.6302712399992838  8.887501921267933 3.290534139410787 0.555180969262683  7.968698968981044 4.010230575738307 1.813500500081994  7.87490901612593 4.008125162806969 1.888262517025648  7.957214907475893 4.011391285706919 1.907339266605891  7.954010650749837 4.073298272932183 1.90680715582847  7.872812886690507 4.070342641182775 1.887053032533219  7.964680928045239 4.07354192197507 1.810719026877772  7.950800498681646 4.135424943201987 1.90610956211482  7.870662076712049 4.132762475984286 1.885693405938894  7.960663829673428 4.137038050254168 1.807735089370143  7.947529118330603 4.197780309162228 1.905381781765047  7.868450401113043 4.19538834789525 1.884302756468349  7.956578961724018 4.200731465733663 1.804713986302218  7.944179045432949 4.260366466597012 1.904709754407747  7.866183433816296 4.258241663446713 1.882957737812539  7.952408682793303 4.264643690275234 1.801741110634246  7.940763495898951 4.323207711233263 1.90414662407188  7.863887352110127 4.321361688586125 1.881705517350889  7.948164658267104 4.328802384271987 1.798873032210585  7.937333450136081 4.386334170620517 1.90375398734405  7.861575115874005 4.384783737538389 1.880619011897668  7.943893601698388 4.393255085425012 1.796181506440157  8.759381886919138 2.904293554208575 0.9840416912954976  8.626830271431487 2.918088393777086 0.9667385153313008  8.704455757854367 2.979728135882777 0.946848870571699  8.709542994650763 2.954818561700113 0.883961623407181  8.633784496826729 2.890017406701415 0.9067898502238135  8.764122423356286 2.874060402292887 0.9256547402479447  8.71464837221758 2.929681309199712 0.8212208893703108  8.640786729268735 2.861741225058967 0.8470271015490106  8.768877903333449 2.843605018804088 0.8674673675796505  8.719747513843046 2.904427036565001 0.7585894963099664  8.647800186216646 2.833369918721152 0.7874034968424999  8.7736249955712 2.813055140660328 0.8094206370731039  8.724837695850695 2.879131876027213 0.6960348356574191  8.65480152991363 2.804984694117684 0.7278785756374202  8.778348656903416 2.782490965076112 0.7514691640132927  8.729944773902224 2.85389719483192 0.6335192115692294  8.661790601830644 2.776680226660018 0.6684083807187022  8.783086326701907 2.752041555911225 0.6935618
[...]
<PointData  Scalars="f_14"> 
<DataArray  type="Float64"  Name="f_14"  format="ascii">-6.7942438673518474e-15  -6.9330892979618967e-15  -6.9613663894470444e-15  1.9016115027374791e-01  2.0558110775113211e-01  2.0565040597054410e-01  3.8731423113297986e-01  3.8759082999522299e-01  3.7081439104510616e-01  5.5745916140101226e-01  5.5709127781617662e-01  5.4068380412442618e-01  7.1712559665744791e-01  7.1734120408523394e-01  7.0091351066689467e-01  8.6700049551061931e-01  8.6749152076603231e-01  8.5297144963493376e-01  1.0000000000000140e+00  1.0000000000000140e+00  1.0000000000000138e+00  -6.2046642153702173e-15  -6.4066027810282998e-15  -6.2697234015699727e-15  1.9018079107901539e-01  1.9065144905687570e-01  1.9267924634452949e-01  3.6930070057620035e-01  3.6995757306689886e-01  3.7325518788511675e-01  5.3914019989328688e-01  5.3981738655178413e-01  5.4345126163125990e-01  7.0075071776357400e-01  7.0115991482365070e-01  7.0432409845125543e-01  8.5473070489131064e-01  8.5444867291044535e-01  8.5667820074254786e-01  1.0000000000000147e+00  1.0000000000000144e+00  1.0000000000000147e+00  -5.2224508994378003e-15  -5.4413595303117450e-15  -5.4189229195950954e-15  1.9159173484651260e-01  2.0633815606435835e-01  2.0558125190226167e-01  3.7443562574223599e-01  3.9108569535478049e-01  3.9282220135075857e-01  5.4527421112908148e-01  5.6108142925953564e-01  5.6380748485052457e-01  7.0496248850281540e-01  7.1919212649450071e-01  7.2119877206184690e-01  8.5527889955388214e-01  8.6649779356527690e-01  -6.3985257709739421e-15  -6.5316220481725641e-15  -6.6108473773416699e-15  2.0883092780682225e-01  1.8889229159838627e-01  2.1608913215984410e-01  3.9283634838276388e-01  3.7250670084932330e-01  4.0112469908839732e-01  5.6314034356654097e-01  5.4355534229386304e-01  5.7159921559218430e-01  7.2226723946728466e-01  7.0298580575355785e-01  7.2995365812769553e-01  8.7026868513844979e-01  8.5230145036942195e-01  8.7685303528118863e-01  1.0000000000000142e+00  1.0000000000000142e+00  1.0000000000000144e+00  -7.2056073521341705e-15  1.9371907259820825e-01  3.7368613255204036e-01  5.4334928393116799e-01  7.0386182544174614e-01  8.5622422515779839e-01  1.0000000000000135e+00  -6.4992555213227421e-15  1.8612118420740908e-01  3.6279762291353274e-01  5.3191962091667033e-01  6.9432214276278481e-01  8.5071612110365558e-01  1.0000000000000144e+00  1.7999805247056139e-01  1.8559102771350952e-01  1.8684410756175623e-01  3.6057673326139283e-01  3.5330669171081514e-01  3.6581327935817676e-01  5.2979054417338678e-01  5.2250749708050537e-01  5.3659198483536652e-01  6.9367295682488594e-01  6.8767629587701418e-01  6.9949159684001527e-01  8.5166311685683849e-01  8.4802986910944100e-01  8.5428894770808805e-01  1.0000000000000155e+00  -6.7731794268486926e-15  2.0347761534769604e-01  3.8621812160291313e-01  5.5637833035359052e-01  7.1593337247861488e-01  8.6556074315120235e-01  1.0000000000000140e+00  8.2323591938499230e-01  8.3285488380463679e-01  8.2126194373160544e-01  6.5304621479179259e-01  1.0000000000000144e+00  1.0000000000000142e+00  1.0000000000000144e+00  -5.6145750002789198e-15  1.9264821755236150e-01  3.7332949155434092e-01  5.4347479869870663e-01  7.0366461717292661e-01  8.5600932958520759e-01  1.0000000000000153e+00  1.0000000000000153e+00  1.0000000000000153e+00  -5.2111742116718415e-15  2.4251653413273005e-01  4.3261389433781056e-01  6.0286416987174840e-01  7.5709423819162702e-01  -6.9735579993546716e-15  -7.1627930246045464e-15  -7.0104321592714564e-15  1.6575676245706414e-01  1.6781846064039690e-01  1.7043713037168626e-01  3.3201863112422292e-01  3.3460580079679447e-01  3.3922866915459382e-01  4.9817005761341371e-01  5.0106227109890122e-01  5.0633301309257761e-01  6.6449045515764327e-01  6.6755255505816902e-01  6.7211236874566060e-01  8.3132590935786166e-01  8.3415650620021986e-01  8.3670090713729717e-01  1.0000000000000138e+00  1.0000000000000138e+00  1.0000000000000138e+00  -5.6008560328030768e-15  -5.8477528044305922e-15  -5.6842389801803885e-15  1.8640413489105417e-01  1.8228517024810117e-01  1.8691513528294385e-01  3.6230406283799421e-01  3.5655084403472981e-01  3.6099500117721800e-01  5.3132362803644362e-01  5.2556250005591998e-01  5.2977616721781806e-01  6.9408800363057221e-01  6.8980000658217466e-01  6.9396056389669114e-01  8.5115049460076520e-01  8.4881172928155701e-01  8.5294815835688365e-01  1.0000000000000151e+00  1.0000000000000149e+00  1.0000000000000153e+00  -5.8153949894469816e-15  -5.7850711387977450e-15  -6.0164602509015551e-15  1.8908722752986948e-01  1.9569210707303739e-01  2.0187659876665548e-01  3.7169507876731123e-01  3.7651378759834442e-01  3.8592919223959271e-01  5.4234163800661395e-01  5.4660463600171882e-01  5.5647384710628145e-01  7.0212519208556945e-01  7.0695457301405595e-01  7.1547372565950307e-01  8.5283025108666233e-01  8.5928397168871629e-01  8.6359056545611423e-01  1.0000000000000149e+00  1.0000000000000151e+00  1.0000000000000151e+00  -6.3906445992383288e-15  -6.6235486248052196e-15  -6.6390191422650600e-15  1.6872262462707027e-01  1.6696358197568309e-01  1.5889772583669148e-01  3.3486215337188513e-01  3.3396654481124022e-01  3.2150004561958734e-01  5.0084820288292020e-01  5.0063980673711206e-01  4.8619098286139673e-01  6.6714831746577419e-01  6.6682235504938558e-01  8.3405438953725541e-01  1.0000000000000142e+00  -5.7497527319052437e-15  1.6458167053924844e-01  3.3239421714286377e-01  4.9960071015419683e-01  6.6597604770980812e-01  8.3177390475052893e-01  1.0000000000000151e+00  -7.1320192340241952e-15  1.7865647865754547e-01  3.4974296623689177e-01  5.1751430395792564e-01  6.8275164786201248e-01  8.4517138570482953e-01  1.0000000000000138e+00  -6.4641424769065582e-15  1.6300153542492513e-01  3.3000650006616744e-01  4.9646197976698109e-01  6.6196399640166126e-01  8.2746056058621864e-01  1.0000000000000144e+00  -8.0269344922199994e-15  -8.2181854724279517e-15  -8.1948145711355908e-15  2.0852295829577958e-01  2.0800006417795841e-01  2.1910814214567242e-01  3.9688931789230170e-01  3.9529315747607036e-01  4.0687906457959921e-01  5.6829791345190517e-01  5.6656390007032686e-01  5.7784526235907308e-01  7.2522033999417090e-01  7.2392392327568278e-01  7.3471505514151858e-01  8.6900583912494400e-01  8.6838976163140646e-01  8.7786715672180327e-01  1.0000000000000127e+00  1.0000000000000127e+00  1.0000000000000129e+00  -6.0534963314232472e-15  2.2353695483938110e-01  4.0901749471841908e-01  5.7923616100528863e-01  7.3686568568526734e-01  8.8195408808639741e-01  1.0000000000000149e+00  -6.3065864011659329e-15  1.8957534538378734e-01  3.6678907052741239e-01  5.3622198423438694e-01  6.9880469298525960e-01  8.5471207520872117e-01  1.0000000000000144e+00  -5.1159756708410345e-15  -5.3702112111969970e-15  -5.2564923909274258e-15  1.9513900693076602e-01  3.7617144682545545e-01  5.4693351241460120e-01  7.0854938104117571e-01  8.6116204372942828e-01  1.0000000000000155e+00  -8.4035218399409090e-15  2.1076950078892207e-01  -6.8252521884512758e-15  1.9135841689538838e-01  3.7168172701410296e-01  5.4155060532392918e-01  7.0228695111633466e-01  8.5488672594871917e-01  1.0000000000000140e+00  -5.4478995709591690e-15  -5.5242761314576728e-15  -5.6638835492674774e-15  1.9364775242936985e-01  2.0334618044864791e-01  2.0338793111610715e-01  3.8884474910127492e-01  3.8860379743211393e-01  3.7729355663721842e-01  5.6002519554522912e-01  5.5968539730185052e-01  5.4836247282593309e-01  7.1864662357516396e-01  7.1822282249087077e-01  7.0783405333263472e-01  8.6555915854576737e-01  8.6514556515768204e-01  8.5706720551588211e-01  1.0000000000000153e+00  1.0000000000000153e+00  1.0000000000000151e+00  -6.5245484859562108e-15  1.8274222288952369e-01  3.5716867438080790e-01  5.2587617677145948e-01  6.8955438965610838e-01  8.4844968563243062e-01  1.0000000000000142e+00  -7.1281224821114090e-15  1.9855284287493477e-01  3.7997200769038042e-01  5.4969915815007286e-01  7.0968127938055692e-01  8.6065241418409000e-01  1.0000000000000138e+00  -8.3859616210626595e-15  2.2036802213922088e-01  -7.5982001715606708e-15  -7.8932512542761546e-15  -7.8119844946404660e-15  1.8803449634932071e-01  1.8718010486964073e-01  1.8759032824165439e-01  3.6704985721611805e-01  3.6478488212528387e-01  3.6408055518206778e-01  5.3727236759166574e-01  5.3452629276509878e-01  5.3344517689864324e-01  6.9910928334555711e-01  6.9695479972165508e-01  6.9645202423660002e-01  8.5308217388174723e-01  8.5238911954360830e-01  8.5297406311607893e-01  1.0000000000000131e+00  1.0000000000000129e+00  1.0000000000000133e+00  -7.5963158375816628e-15  1.8779375778595697e-01  3.6583259683133940e-01  5.3573879120957779e-01  6.9797639767887587e-01  8.5291241844767707e-01  1.0000000000000133e+00  -5.7029604779206011e-15  2.1027602079502022e-01  3.9529663290848316e-01  5.6603883754748274e-01  7.2456318213658399e-01  8.7160491456912847e-01  1.0000000000000151e+00  -6.8892691121899633e-15  -6.9672456881473284e-15  1.9550698500795519e-01  1.9603754770089113e-01  3.7777143103398902e-01  3.7745310221828327e-01  5.4783914175577353e-01  5.4737146475403375e-01  7.0763825061798380e-01  7.0700352237033304e-01  8.5832003206007312e-01  8.5729585760709059e-01  1.0000000000000140e+00  1.0000000000000138e+00  -6.8508198696923407e-15  1.6476897056155995e-01  3.2937201476900035e-01  4.9489516213026685e-01  6.6179873499710729e-01  8.3036218475649493e-01  1.0000000000000140e+00  -5.4818020166965468e-15  1.7119498044349823e-01  3.4700857402166702e-01  5.1657503797035720e-01  6.7937880155416586e-01  8.3643221952082103e-01  1.0000000000000153e+00  -6.9629611159130691e-15  1.9777182778351843e-01  3.7813112695415441e-01  5.4777971476984555e-01  7.0817149500202281e-01  8.6057166101290117e-01  1.0000000000000138e+00  -6.2706525570084412e-15  -6.2257190109474297e-15  -6.4595716422777127e-15  2.0624573761797182e-01  2.0452227708442852e-01  2.0940955763808086e-01  3.9116375898130634e-01  3.8868084859227536e-01  3.9518913931872235e-01  5.6170021067348097e-01  5.5914874108989820e-01  5.6596268034471575e-01  7.2007269624907044e-01  7.1796867676866827e-01  7.2416699018957031e-01  8.6685578623262394e-01  8.6632013574639910e-01  8.6987820912881741e-01  1.0000000000000144e+00  1.0000000000000147e+00  1.0000000000000147e+00  -7.3377101374406408e-15  1.9092300363842676e-01  3.7111797697284160e-01  5.4087161235456027e-01  7.0113597654617699e-01  8.5329390788257109e-01  1.0000000000000135e+00  -7.1876117070358344e-15  2.0551735728493406e-01  3.8668707159091836e-01  5.5618218522603213e-01  7.1584193253355144e-01  8.6650179838268870e-01  1.0000000000000135e+00  5.5518611696822329e-01  5.4870068087711066e-01  5.4944084249124581e-01  3.8425464889191102e-01  7.0979475307268036e-01  7.1507727364979379e-01  7.0904898789587556e-01  8.6010996313109855e-01  -5.1565241422233615e-15  -5.2373668518539280e-15  -5.3469271192012010e-15  1.9653291023942437e-01  2.0354588887334490e-01  2.1097826898895627e-01  3.8201505811729664e-01  -5.8663849236512573e-15  1.9873750182830915e-01  3.8215598731310901e-01  5.5300478054839097e-01  7.1261291974701368e-01  8.6166024055075785e-01  1.0000000000000149e+00  -5.8758340989560261e-15  -5.7748887969201234e-15  -5.9868640809633487e-15  2.0527265665146557e-01  2.1669463231223529e-01  2.0553485365640323e-01  3.9085181493691012e-01  4.0263278766666605e-01  3.9147049256661010e-01  5.6156132999893438e-01  5.7313511544716456e-01  5.6259027307625809e-01  7.1977696630111521e-01  7.3092758886192177e-01  7.2102356477654050e-01  8.6643433017407512e-01  8.7620496713479279e-01  8.6743637062123846e-01  1.0000000000000149e+00  1.0000000000000151e+00  1.0000000000000149e+00  -5.8626319241484042e-15  -6.0650512719939209e-15  -5.9045845015333154e-15  1.6218855391641918e-01  1.4813096043484250e-01  1.5350647053510688e-01  3.2582492031499538e-01  3.0492028778057073e-01  3.1239285201111405e-01  4.9168663459549383e-01  4.6757270115152050e-01  4.7622379519570901e-01  6.5985553309322342e-01  6.3600763982758413e-01  6.4530629600610623e-01  8.3008553799590279e-01  8.1147856118390771e-01  8.2009876491827927e-01  1.0000000000000149e+00  1.0000000000000147e+00  1.0000000000000149e+00  -5.9156281319888680e-15  1.9647992448273308e-01  3.8058789957872163e-01  5.5165669830890085e-01  7.1117217257009335e-01  8.6015848044664900e-01  1.0000000000000149e+00  -6.6739216113127062e-15  -6.9060797118729763e-15  -6.7248777039037612e-15  1.6555937335285720e-01  1.6781296967744841e-01  1.6080623363352162e-01  3.3228518211137081e-01  3.3481782940844385e-01  3.2419061164600510e-01  4.9871243975153312e-01  5.0120363321175998e-01  4.8925992032184601e-01  6.6489551148159076e-01  6.6728994999134672e-01  6.5614606806602416e-01  8.3140281506187563e-01  8.3349026632593337e-01  8.2549666769973229e-01  1.0000000000000142e+00  1.0000000000000140e+00  1.0000000000000142e+00  -7.1212927181457159e-15  -6.9732269269319421e-15  1.8836425839719675e-01  1.8900275945827844e-01  3.6684195755205307e-01  3.6778822047690657e-01  5.3622713482867856e-01  5.3715443265398888e-01  6.9753952565974953e-01  6.9801381936573503e-01  8.5189670436017084e-01  8.5149145282137739e-01  1.0000000000000138e+00  1.0000000000000138e+00  -5.8786338621384180e-15  1.4560240466995222e-01  3.0064245429860892e-01  4.6250493281568306e-01  6.3146448925354515e-01  8.0901897122212174e-01  1.0000000000000149e+00  -7.1778315354089524e-15  1.9010899208302223e-01  3.6824428746297228e-01  5.3746253977544745e-01  6.9888368760441444e-01  8.5332989463561992e-01  1.0000000000000138e+00  3.3596400759627715e-01  3.2521158508992115e-01  3.3469415392754659e-01  1.6146995910889295e-01  5.0202059885340822e-01  5.0384569824763581e-01  4.9088316420394829e-01  6.6919930264921323e-01  6.7015204765590131e-01  6.5845822947106092e-01  8.3578953529482214e-01  8.3480019907813219e-01  8.2795874810505854e-01  1.0000000000000155e+00  1.0000000000000155e+00  1.0000000000000153e+00  -6.1217255996394671e-15  1.5782434093344999e-01  3.2030704574225843e-01  4.8544335332444327e-01  6.5314125237303411e-01  8.2376572104200063e-01  1.0000000000000147e+00  -6.9513010026362317e-15  1.7517792722142508e-01  3.4544824601605001e-01  5.1284434912547705e-01  6.7792378027980149e-01  8.4076873853873346e-01  1.0000000000000140e+00  1.4823744771004269e-01  3.0330406439358676e-01  4.6494804159001540e-01  6.3375461442001391e-01  8.1103423486032766e-01  1.0000000000000147e+00  -6.0725401533240309e-15  1.9112271592153110e-01  3.7457535100045730e-01  5.4564656915437215e-01  7.0514623199238380e-01  8.5491427488461502e-01  1.0000000000000147e+00  -7.4111616516355366e-15  -7.5702838317386310e-15  -7.5632345373470888e-15  1.9631881492446157e-01  2.0226749146472517e-01  2.0004526721285118e-01  3.7878293910938160e-01  3.8517430851253887e-01  3.8105544261853247e-01  5.4927837703303728e-01  5.5565955368983266e-01  5.5095065254873865e-01  7.0909274737740879e-01  7.1535485602535598e-01  7.1110947898174026e-01  8.5935787581645584e-01  8.6451187706549149e-01  8.6230257011399236e-01  1.0000000000000133e+00  1.0000000000000133e+00  1.0000000000000133e+00  -7.1354515852343983e-15  1.8862507282652285e-01  3.6890549983516774e-01  5.3847583221389839e-01  6.9868786753800149e-01  8.5127394800996559e-01  1.0000000000000138e+00  -6.0509803441305202e-15  2.0864906164222990e-01  3.9128400994942297e-01  5.6161987421421222e-01  7.2122155072436778e-01  8.7065460837596265e-01  1.0000000000000149e+00  -5.9461926607634943e-15  1.6972704950691098e-01  3.3838271432469236e-01  5.0595116598540468e-01  6.7238378727225467e-01  8.3753409466027817e-01  1.0000000000000149e+00  1.7047976778293938e-01  1.6672284129392489e-01  3.3954411006159185e-01  5.0736439547443690e-01  6.7398972772454246e-01  8.3912453138644449e-01  1.0000000000000153e+00  -7.9882131039921244e-15  2.0339209056414784e-01  3.8991879404088703e-01  5.6145731587704373e-01  7.1973425889688369e-01  8.6586935198435178e-01  1.0000000000000129e+00  -7.3310989576061761e-15  1.8924845130630313e-01  3.6855369784343478e-01  5.3811354633430464e-01  6.9905059089611443e-01  8.5234326588739562e-01  1.0000000000000135e+00  -8.0860388531664610e-15  2.0482365552544798e-01  3.9061401803006046e-01  5.6189157225947051e-01  7.2026511702799290e-01  8.6675264663797846e-01  1.0000000000000127e+00  -7.0455488978762560e-15  1.6648804800353315e-01  3.3132141200170184e-01  4.9698441629382545e-01  6.6396619957069669e-01  8.3236243633340612e-01  1.0000000000000138e+00  -7.7921332948309937e-15  2.0110809216719047e-01  3.8608279159703479e-01  5.5724979665890850e-01  7.1608373953158866e-01  8.6363100953733984e-01  1.0000000000000131e+00  -6.7165123304160613e-15  -6.6774870145244385e-15  2.0643986706693881e-01  2.0399842449022851e-01  3.9034431067371689e-01  3.8737911338056757e-01  5.6075100826605240e-01  5.5766116178626990e-01  7.1983969059314235e-01  7.1673846524488738e-01  8.6809495207305254e-01  8.6542680749498579e-01  1.0000000000000142e+00  1.0000000000000142e+00  -6.7664598466493140e-15  1.9450902767282433e-01  3.7690539046431076e-01  5.4722965469344198e-01  7.0705194644081359e-01  8.5755539464912467e-01  1.0000000000000140e+00  -7.1795945964383541e-15  1.8682714675916398e-01  3.6597706315999923e-01  5.3562414440756612e-01  6.9661533694250255e-01  8.5034863955575679e-01  1.0000000000000135e+00  -6.1989804026097368e-15  1.9576891514135575e-01  3.8014458594764639e-01  5.5091960653489902e-01  7.0967588900347900e-01  8.5798725421457978e-01  1.0000000000000147e+00  8.3218954425234337e-01  8.3961360852310707e-01  1.0000000000000158e+00  1.0000000000000158e+00  -6.1977615569402236e-15  1.7059584988237564e-01  3.3963938674069699e-01  5.0702143814306266e-01  6.7282318248175510e-01  8.3707964512387123e-01  1.0000000000000147e+00  -7.0413166795573264e-15  -6.8331773893565341e-15  1.5577191435365179e-01  1.6072462528968817e-01  3.1743285362332785e-01  3.2295437577746905e-01  4.8165668785488047e-01  4.8753017910706564e-01  6.4856560334855506e-01  6.5500333463577387e-01  8.1920606564212706e-01  8.2587947689786012e-01  1.0000000000000140e+00  1.0000000000000138e+00  -7.3649084050816458e-15  -7.3427645914864216e-15  1.9333465414988349e-01  1.9024358728942053e-01  3.7480472429533845e-01  3.7136186717723096e-01  5.4478281633662373e-01  5.4145278066064617e-01  7.0464519337017184e-01  7.0155852242959149e-01  8.5567062682798123e-01  8.5301059983801419e-01  1.0000000000000135e+00  1.0000000000000135e+00  -7.5796688707674250e-15  1.9877862024759646e-01  3.8179929121040601e-01  5.5234332086454196e-01  7.1183440075151605e-01  8.6135032327752714e-01  1.0000000000000133e+00  -8.3076751749760259e-15  2.0409037577743214e-01  3.8999706159739039e-01  -7.2787478646167199e-15  -7.5270535994513765e-15  -7.4462448232510788e-15  1.5983979664941123e-01  4.7095232899458511e-01  4.6734881448792098e-01  4.7821487234719473e-01  6.4660303218933524e-01  6.3614356183876675e-01  6.3964957131297828e-01  8.1961622316574156e-01  8.1293245158219363e-01  8.1513381580863176e-01  1.0000000000000155e+00  1.0000000000000153e+00  1.0000000000000155e+00  -6.2356312667745242e-15  1.9301582369510131e-01  3.7560703343962221e-01  5.4621746605285559e-01  7.0587256184079250e-01  8.5588019332699516e-01  1.0000000000000147e+00  -6.2455403743522072e-15  1.9952594816052760e-01  3.8091886836732225e-01  5.5108615505088099e-01  7.1156374313760740e-01  8.6267639015550068e-01  1.0000000000000147e+00  -6.6233526723355507e-15  1.8825538297213104e-01  3.6562340370295243e-01  5.3498863069314562e-01  6.9707329548056829e-01  8.5242878475003669e-01  1.0000000000000142e+00  -6.9731904399951224e-15  -7.1535184836706998e-15  -6.9687924149767678e-15  1.9740238060971396e-01  1.9105560680016354e-01  1.8534999342870104e-01  3.7622763682629862e-01  3.6998912440470083e-01  3.6356724189300049e-01  5.4557043831209051e-01  5.3940024114836993e-01  5.3302605782319157e-01  7.0709887543922767e-01  7.0055495621302633e-01  6.9454345989889876e-01  8.6105677578686579e-01  8.5413843262162470e-01  8.4911588309685071e-01  1.0000000000000138e+00  1.0000000000000138e+00  1.0000000000000138e+00  4.8392772626757224e-01  4.9624311098699292e-01  3.1872601617288571e-01 