<?xml version="1.0"?>
<VTKFile type="UnstructuredGrid"  version="0.1"  >
<UnstructuredGrid>
<Piece  NumberOfPoints="2086" NumberOfCells="9499">
<Points>
<DataArray  type="Float64"  NumberOfComponents="3"  format="ascii">7.942863510534979 1.389919556947329 1.940959907789745  7.963620646833376 1.378370874575523 2.047418823898493  7.849989199692477 1.36308492061138 2.047228763556958  7.858131697061848 1.302278403813664 2.039522421197939  7.971808028995327 1.317835925855169 2.039498211596534  7.95154971187922 1.32922095891475 1.930885128722055  7.979898000330548 1.257283061675143 2.031651930826067  7.960166929365987 1.268503568183073 1.920868453077597  7.866200958446051 1.241476239815363 2.031907599565401  7.987944164897611 1.196730114377325 2.023838077426058  7.968752555680919 1.207783312664105 1.910882130199208  7.874231478348332 1.180679270441912 2.024331353070509  7.995974312189677 1.136186319768582 2.016046199499069  7.977326963326565 1.147067925590649 1.900919187930322  7.882238443261408 1.119891631777941 2.016776919856702  8.00402063908744 1.075659158487262 2.008268199172972  7.985912355161016 1.08636491215615 1.890978353520554  7.890233219842706 1.059120496073546 2.009232845376658  7.994541776316323 1.025673189216565 1.881048091207197  8.012147910110968 1.015165250965818 2.000470993416982  7.89824032246281 0.9983988421008605 2.001663107738845  7.519831619537139 1.59328964959122 1.014942182085192  7.655365129714078 1.626203956059272 1.001740511105749  7.613798681672336 1.712899549786171 0.9496682641267675  7.649759420874334 1.659957811951161 1.05713556009956  7.619070439087767 1.681278148094266 0.8934442334316332  7.519352835508276 1.555628267869692 0.9614332535802456  7.661002916036892 1.592476613743852 0.9461955495433535  7.624393526737684 1.649646041874887 0.8370570859679677  7.519019858611442 1.517976982750804 0.907796377327169  7.666681897620948 1.558764533492915 0.8904496325765822  8.895410063286967 1.533073795375506 2.265189620919304  8.829261961723663 1.519893364385529 2.351681881466638  8.785000649550204 1.508458591726102 2.218545167109312  8.800138778550526 1.452216962157738 2.214968025306426  8.84276415532578 1.464248753174139 2.354287853381695  8.909984542888278 1.477565453090246 2.262031543868289  8.8155917200756 1.396087273595136 2.211255137808454  8.856529518938723 1.408691026331007 2.356782764915007  8.924843985216095 1.422206698563671 2.258761701886309  8.831149601338334 1.340031352806665 2.207501496078323  8.870393481855743 1.353186757890479 2.359228118293865  8.939799469174652 1.366947694228204 2.255442227247299  8.846670433621679 1.284015247224772 2.203756867934394  8.884231833523902 1.297712513586374 2.361671956906095  8.954718633314984 1.311758280090648 2.252127783833031  8.862013279833953 1.227993731037308 2.2000715179152  8.897914283709735 1.24223943976896 2.364160189416463  8.96944191281813 1.256618725266207 2.248876616353454  8.876981943354807 1.171868364188725 2.196514999487009  8.911268026980755 1.186724861634997 2.366749582668999  8.983718650333959 1.201448954758979 2.24573256702803  7.791642661456647 1.372014718224905 1.929215280185241  7.800081931855297 1.310806000673973 1.919260021403625  7.808471446828672 1.24958140742015 1.909368990186379  7.816830784874786 1.188351182322745 1.899512695624238  7.825169054933262 1.127121977967172 1.88967870335272  7.833495093154307 1.06589988220053 1.879860350393235  7.841828118730501 1.004693222855209 1.870052292635684  9.019624951031915 2.064451882544189 1.376831785549784  9.122096300865362 2.091633986253709 1.377753791827352  9.077199916701501 2.169076243492801 1.334974158191225  9.11644742530828 2.1148059591856 1.425478514831641  9.012473665710187 2.087283616673989 1.42497174124746  9.082745952382398 2.146009614980637 1.28777010782208  9.026757616248629 2.041685358099113 1.328922888563356  9.127715905444967 2.068524249409973 1.330259815986157  9.088293008666165 2.123021737721033 1.240792134201174  9.033884271247686 2.018998222289875 1.281220330369993  9.133333840756993 2.045492600180047 1.28297621689253  9.093813878394423 2.100139873071904 1.194053707698265  9.040961320080672 1.996371261468282 1.23373799315006  8.305618931698151 2.437596726836075 1.136657103369128  8.210760883467648 2.376532609860462 1.123834859305424  8.245503399695226 2.509216825462968 1.078048599523687  8.265887319538253 2.485063386867563 1.027707646523515  8.231995623221341 2.354360038078393 1.074157730992279  8.326123310864117 2.414487322975192 1.087466876181903  8.346943641936415 2.391334013418923 1.038511361230087  8.25357913382863 2.33217968003205 1.024691101751453  8.286561723710847 2.46088001826117 0.9775931213226514  8.367909066074732 2.368195192328478 0.9897336669876637  8.275321918472695 2.310023939304246 0.9753578403807358  8.307374470301577 2.436707757164487 0.9276189890802244  8.388868600134094 2.345105814910148 0.9410618466260517  8.29705729271126 2.287909844346782 0.926084461623786  8.328181595813639 2.412573907803214 0.8777236645934708  8.409640278283465 2.322094666690491 0.8924143335925451  8.31859437079555 2.265834881063811 0.8767928954715665  8.348827014309174 2.38849829605071 0.8278331544687185  8.429927369203199 2.299126908727474 0.8436902597669693  8.339665234843554 2.243714226719836 0.8273842286329044  8.369075514718832 2.364445447135188 0.7778836751048661  7.881951635997163 1.398881734592015 1.844095142493143  7.890754477429987 1.337894702354729 1.831791241876866  7.899526864644648 1.276875017994744 1.819520277166504  7.908284069323284 1.215842318806973 1.807271255579743  7.917031383236488 1.154803559460072 1.795046724106758  7.925772354823337 1.093760170894382 1.782853116459668  7.934524555924086 1.032703475288981 1.770696683779939  9.032859261027092 1.652487851683533 1.886084267880581  9.017255972096189 1.617692023750645 1.986971295186179  8.908329320417753 1.620291473448971 1.891734035138775  8.921148339019815 1.567725453908666 1.869438842538521  9.028753353487362 1.564015512433149 1.970094573748742  9.045215752327346 1.60120136991791 1.862382756492755  9.057675126896557 1.550139964589735 1.838613264785015  9.040331634885572 1.510552373372666 1.95310964182216  8.93408116757205 1.51541683638344 1.847062371321303  9.070155636989861 1.499268144743736 1.814845585270473  9.051945848609538 1.457248358021274 1.936075301526091  8.947049461692361 1.463279577545841 1.82467299682304  9.082588305273614 1.448533837584026 1.791138014135962  9.063530966643663 1.404053000410836 1.919050725818988  8.959964377218522 1.411266560454347 1.802330296507852  9.094876228116304 1.397897838185491 1.767564138109118  9.075010867911097 1.35093461086047 1.902098750499668  8.97271801693951 1.359353536991356 1.780100356748482  9.086312599977925 1.297901997065273 1.885339600912399  9.106869646813966 1.347328117143821 1.744178814351769  8.985238674543698 1.307508624112989 1.758050937192706  8.791144904307437 1.545604317955716 2.021772746149184  8.808127409472743 1.527651683989079 2.115788215630238  8.696556422571053 1.495874613119582 2.096560907396565  8.711585913310445 1.438934281303991 2.086198240119265  8.825291630610813 1.472463323599591 2.106290869508111  8.807982098773286 1.491561696512089 2.005429055362284  8.825202590351054 1.437721924929501 1.988988754555877  8.842887932774554 1.417460238915369 2.096675681493565  8.726903355846202 1.382095297451204 2.075733694993439  8.842553920453717 1.3840059835708 1.972515045157183  8.860618015586786 1.362561259663163 2.087023558297969  8.742281535472896 1.325340422873819 2.065251022393002  8.859872052119004 1.330359988674701 1.956061586771367  8.878311127574189 1.307722726974787 2.077382979059333  8.757594619072249 1.268626324949081 2.054787955691678  8.876977027386342 1.276734235151221 1.939677662129262  8.895782313697268 1.252894956259735 2.067796288894749  8.772717118903651 1.211895784906056 2.044375085351681  8.912704733459 1.197935442170935 2.05830247164195  8.893543862395031 1.223004590373194 1.923406525816131  8.787558472290076 1.155023633801119 2.034047715703407  8.965914722870311 2.180375463220109 1.316115795241056  8.958796762410024 2.202752101470122 1.363829378552199  8.973027615265368 2.158009839928115 1.26864066833887  8.980131324385855 2.135708007028473 1.221389223114659  8.987186342858104 2.113509466538448 1.174359375523593  9.099270310590313 2.077398514760172 1.147579820769074  8.994118903120452 2.091469128468093 1.127633197203505  9.04793963166362 1.973786254287034 1.18654735220855  8.952552180600316 1.674521558992057 1.810109828037727  8.965119359282856 1.625553485336471 1.78132999236262  8.977778795383697 1.576848257142393 1.752519332935649  8.990468153276487 1.528325512211932 1.723726735232266  9.003109629622639 1.479916817520843 1.695004460827157  9.015616716150358 1.431575397143186 1.666411165809669  9.027886802143085 1.383244364305581 1.63796911507823  8.123911585525306 1.87816676617412 1.303442640614055  8.150126066475904 1.796513122903549 1.359444451037346  8.045334439157614 1.772608939384607 1.330546777305777  8.065998367639983 1.74053567769721 1.281468532499042  8.172461213226619 1.766701082985099 1.31055482398261  8.146208614351149 1.852174817350505 1.253392516292794  8.168976577771245 1.826219387498128 1.203512229567763  8.195251652549972 1.736961790295053 1.261833260656557  8.087078922816859 1.708447012705029 1.232476021819288  8.191927852891995 1.800292476011616 1.153694158562694  8.218200712564613 1.707258654785851 1.213172578298024  8.10830249324675 1.676351073039542 1.183493045128693  8.214837794739724 1.77437633027866 1.103867046364116  8.241092622643544 1.677562443071595 1.164506842974181  8.129483229298184 1.644239161101818 1.134463720597305  8.237502537230304 1.748441222430595 1.053957543271778  8.263735675148762 1.647843859276683 1.115767720236344  8.150480439204902 1.612095672636041 1.085329405160609  8.259722339917534 1.722453001902267 1.003844018526849  8.285941987834033 1.61805616245787 1.066859795158353  8.171193293710525 1.579894253044718 1.036015003006528  8.701524779605267 1.4884578
[...]
<PointData  Scalars="f_14"> 
<DataArray  type="Float64"  Name="f_14"  format="ascii">-7.6966271156042110e-15  -7.6662217429968848e-15  -7.8727638946729862e-15  1.8040528351070428e-01  1.8167809311974037e-01  1.8493777436551539e-01  3.5746285268270084e-01  3.6123611263139088e-01  3.5542954238737617e-01  5.2646636028694860e-01  5.3035592731970382e-01  5.2417462756492250e-01  6.8912062708099087e-01  6.9284422459261430e-01  6.8693551203516079e-01  8.4623549760534800e-01  8.4937120556917023e-01  8.4466175249256170e-01  1.0000000000000131e+00  1.0000000000000131e+00  1.0000000000000129e+00  7.2467084194971076e-01  7.2506607293185077e-01  7.1520846600428711e-01  5.6770648728789397e-01  8.6291549162559134e-01  8.6897381813789454e-01  8.6930833787609230e-01  1.0000000000000127e+00  1.0000000000000124e+00  1.0000000000000127e+00  -5.8320567363244045e-15  -5.9775967001048843e-15  -6.0613149997374148e-15  1.9324935689799291e-01  1.8653426455077216e-01  1.9420200835067936e-01  3.7299267283700993e-01  3.6424333752212923e-01  3.7178065491597584e-01  5.4300799138943956e-01  5.3385643204367816e-01  5.4116153628120267e-01  7.0444043733583928e-01  6.9599635509282554e-01  7.0359948518338999e-01  8.5740331917323942e-01  8.5118847471567594e-01  8.5883663109242481e-01  1.0000000000000147e+00  1.0000000000000149e+00  1.0000000000000151e+00  -7.9694614207769985e-15  1.8138677493989330e-01  3.5708828699657880e-01  5.2623681857847293e-01  6.8900002307898789e-01  8.4626690838621443e-01  1.0000000000000129e+00  3.2882657110090813e-01  3.2899457603373572e-01  3.2198413332868836e-01  1.6398087732969410e-01  1.6353977664371486e-01  4.8632311522271798e-01  4.9466151259842461e-01  4.9468481940204306e-01  6.5408740315622238e-01  6.6119624551458966e-01  6.6141084777492798e-01  8.2570741017215954e-01  8.2899524780741229e-01  -6.5780662328272506e-15  -6.7853077144260676e-15  -6.6739216113127062e-15  1.6080623363352162e-01  1.6297157077620628e-01  1.5628137054369814e-01  3.1691919913421179e-01  3.2693272884046448e-01  3.2419061164600510e-01  4.8089263419595285e-01  4.9220581491303944e-01  4.8925992032184601e-01  6.4849532014804223e-01  6.5916155618694028e-01  6.5614606806602416e-01  8.2055409589148198e-01  8.2823834959183695e-01  8.2549666769973229e-01  1.0000000000000142e+00  1.0000000000000140e+00  1.0000000000000142e+00  -7.8003667760243832e-15  1.8946166638609671e-01  3.6798534171936398e-01  5.3765541313376009e-01  6.9931826212522541e-01  8.5363379383426463e-01  1.0000000000000131e+00  -5.4956856262015124e-15  -5.5451639920611046e-15  -5.7654561503383546e-15  1.9666089104305920e-01  1.7827951317308238e-01  1.9847852481152922e-01  3.7844294554323632e-01  3.5367973451949236e-01  3.7565950457815006e-01  5.4808643585694239e-01  5.2256539382837175e-01  5.4507862380719863e-01  7.0927056774701758e-01  6.8517907250947085e-01  7.0645786969966884e-01  8.6168645998134852e-01  8.4295746908723090e-01  8.5963626371499746e-01  1.0000000000000153e+00  1.0000000000000153e+00  1.0000000000000151e+00  -6.0240829286957456e-15  -5.9990911239796952e-15  -6.2406598201409647e-15  2.0798020412630541e-01  1.9168873393532468e-01  1.8914500833955852e-01  3.6752266368917846e-01  3.7081066369466720e-01  3.9166692128358682e-01  5.3720845470495526e-01  5.4066571554200082e-01  5.6229474876620433e-01  6.9903295553141076e-01  7.0240543932812194e-01  7.2198407564050382e-01  8.5368328201541310e-01  8.5633440167608244e-01  8.6995969825882746e-01  1.0000000000000149e+00  1.0000000000000149e+00  1.0000000000000147e+00  3.1512796534820481e-01  1.5538623374407742e-01  4.7857246883402937e-01  6.4618888886442305e-01  8.1895335654264423e-01  1.0000000000000155e+00  1.0000000000000153e+00  1.0000000000000155e+00  -5.6519644374690436e-15  1.9318985131161351e-01  3.7304921631078614e-01  5.4282973448886951e-01  7.0381526683237328e-01  8.5672221738449028e-01  1.0000000000000151e+00  -7.1541365612962055e-15  -7.1406108232114548e-15  -7.3488955764316871e-15  1.9886406680381549e-01  1.9766065298006177e-01  1.8840374947824789e-01  3.6599518738904185e-01  3.7836715949120409e-01  3.8209868094587773e-01  5.3567592135168862e-01  5.4870491304954183e-01  5.5289940906648449e-01  6.9818844374662592e-01  7.0993746087211607e-01  7.1256544939216204e-01  8.5368552771644368e-01  8.6203936068489451e-01  8.6171244063824937e-01  1.0000000000000138e+00  1.0000000000000138e+00  1.0000000000000135e+00  -6.2447562964670131e-15  1.9046747318521057e-01  3.7037875027854916e-01  5.4061502957538210e-01  7.0190143917326187e-01  8.5490496734110788e-01  1.0000000000000147e+00  -6.9060797118729763e-15  1.6781296967744841e-01  3.3481782940844385e-01  5.0120363321175998e-01  6.6728994999134672e-01  8.3349026632593337e-01  1.0000000000000140e+00  -6.2461430879250154e-15  1.9361310287368536e-01  3.7517739672222078e-01  5.4586646331559185e-01  7.0670190028424540e-01  8.5816792180598966e-01  1.0000000000000147e+00  -7.3618730939480233e-15  1.9231375746096604e-01  3.7209922333650836e-01  5.4222014419193865e-01  7.0360268387875280e-01  8.5657508375200764e-01  1.0000000000000135e+00  -6.3490025603446209e-15  1.9409079904433088e-01  3.7533173532517172e-01  5.4599498828532111e-01  7.0697539024956735e-01  8.5863684807877483e-01  1.0000000000000144e+00  -5.8580701901606579e-15  1.8704071592178603e-01  3.6677887782985735e-01  5.3675001710186365e-01  6.9778272895771742e-01  8.5111324126857135e-01  1.0000000000000149e+00  -6.0585934547537459e-15  1.9435326655975194e-01  3.7366931754417904e-01  5.4350408934454197e-01  7.0529858289971392e-01  8.5884375528658718e-01  1.0000000000000149e+00  8.4495297481364096e-01  8.4998608119370356e-01  8.4498828439907203e-01  6.9360484729604877e-01  1.0000000000000138e+00  1.0000000000000140e+00  1.0000000000000140e+00  3.0518470450516028e-01  4.6738460114333730e-01  6.3527968943227153e-01  8.1048844056016123e-01  1.0000000000000155e+00  -6.4617938166712221e-15  1.9406773099925267e-01  3.7550383943819299e-01  5.4613795374310636e-01  7.0695815886915225e-01  8.5851105548726514e-01  1.0000000000000144e+00  -6.0181846131131791e-15  -6.0542339697344914e-15  2.1351518675956110e-01  1.8619699663001429e-01  3.9710630880992909e-01  3.6448729963458160e-01  5.6699385511532396e-01  5.3414389042456456e-01  7.2642725033167843e-01  6.9559101791529188e-01  8.7449371735396619e-01  8.4983577749261552e-01  1.0000000000000147e+00  1.0000000000000149e+00  -6.9179982793865671e-15  -7.0069646115261892e-15  -7.1883564640634302e-15  1.8675228369081495e-01  1.9319451440289107e-01  1.9048283736492658e-01  3.6496566105814754e-01  3.7305273672562328e-01  3.6954203513638229e-01  5.3485942956316623e-01  5.4317001664875653e-01  5.3951576531135303e-01  6.9690851487937167e-01  7.0453685187343384e-01  7.0113369930996172e-01  8.5171291858782749e-01  8.5741840152759108e-01  8.5498790898547183e-01  1.0000000000000135e+00  1.0000000000000138e+00  1.0000000000000140e+00  -7.0299101219536549e-15  1.8901502198479153e-01  3.6736701948628259e-01  5.3718400058471127e-01  6.9911968444533934e-01  8.5370013859771188e-01  1.0000000000000138e+00  -6.7225571247958600e-15  -7.0099139653592777e-15  -6.9361726451280514e-15  1.9603207650404797e-01  1.7945138637209695e-01  1.8393343205270291e-01  3.5409188293832233e-01  3.6098598427133660e-01  3.7626936430913871e-01  5.2308652538571998e-01  5.3071879411888767e-01  5.4636923099855050e-01  6.8654070557676772e-01  7.0766313525606928e-01  8.5989520360730420e-01  1.0000000000000138e+00  -7.5982001715606708e-15  -7.6821323139251585e-15  -7.8932512542761546e-15  1.8718010486964073e-01  1.8236577499942788e-01  1.8759032824165439e-01  3.6478488212528387e-01  3.5729276351724953e-01  3.6408055518206778e-01  5.3452629276509878e-01  5.2632153789303182e-01  5.3344517689864324e-01  6.9695479972165508e-01  6.8986736541976634e-01  6.9645202423660002e-01  8.5238911954360830e-01  8.4814050169413346e-01  8.5297406311607893e-01  1.0000000000000129e+00  1.0000000000000131e+00  1.0000000000000133e+00  3.0421675416588834e-01  1.4846146362295853e-01  4.6585507459139330e-01  6.3393904888919406e-01  8.1010895944434180e-01  1.0000000000000153e+00  -6.3091894707248271e-15  2.0535621247321253e-01  3.8788509474750227e-01  5.5839575825246679e-01  7.1873812422101824e-01  8.6810261632881280e-01  1.0000000000000144e+00  -6.2120670583360933e-15  -6.2645631924828770e-15  1.8492078570928686e-01  1.9122957161402787e-01  3.7195973695250911e-01  3.6443516233956202e-01  5.4238734174499903e-01  5.3467098841192184e-01  7.0344808875970988e-01  6.9624533634086838e-01  8.5574303187100009e-01  8.5040067734244185e-01  1.0000000000000147e+00  1.0000000000000147e+00  -6.3840305424696936e-15  -6.5455181431416956e-15  1.9973150776976503e-01  1.8968316857464435e-01  3.6958667901121206e-01  3.8173593525787125e-01  5.3996567761358605e-01  5.5225701709135977e-01  7.0139666099355780e-01  7.1275002110894503e-01  8.5447704778119327e-01  8.6322369041413127e-01  1.0000000000000144e+00  1.0000000000000142e+00  5.3029883224223640e-01  6.9290693651199875e-01  8.4945147482523076e-01  1.0000000000000127e+00  -6.3995781845954872e-15  2.0726378016893199e-01  3.8921250784604244e-01  5.5947193119766347e-01  7.1968616025234655e-01  8.6969039064046505e-01  1.0000000000000144e+00  -6.5250543565316237e-15  -6.6267259429976827e-15  1.9533803802912617e-01  1.9785618461654991e-01  3.7676389910572261e-01  3.7851052168384569e-01  5.4730772144049800e-01  5.4876975428553443e-01  7.0807347084487504e-01  7.1016440319762641e-01  8.5946433395226096e-01  8.6218220377007504e-01  1.0000000000000142e+00  1.0000000000000142e+00  5.1757851251132780e-01  5.2235427574485638e-01  5.4015977591087683e-01  3.4927573487865082e-01  3.5358428195492730e-01  7.0264850019653557e-01  6.8176953098511861e-01  6.8579658302525748e-01  8.5760886663948066e-01  8.4445800864779497e-01  -6.4444478326085402e-15  -6.5668247060275896e-15  -6.6998439710568217e-15  1.8933455132832530e-01  1.9545568046542278e-01  1.9465913760095038e-01  3.6920974850843546e-01  3.7658636587263677e-01  3.7385050399202530e-01  5.3934482429328656e-01  5.4664867766781178e-01  5.4341716745810253e-01  7.0035744400976530e-01  7.0703217336716495e-01  7.0481944670398800e-01  8.5310938680754933e-01  8.5842572165885234e-01  8.5826300925142462e-01  1.0000000000000142e+00  1.0000000000000142e+00  1.0000000000000144e+00  -7.5617443615474072e-15  2.0616051066167213e-01  3.9113480755675301e-01  5.6214844789579388e-01  7.2099202895618308e-01  8.6802128220666386e-01  1.0000000000000133e+00  -7.1931851341979309e-15  1.8919292481070479e-01  3.6718746531931812e-01  5.3693181141956192e-01  6.9918610230644673e-01  8.5421683418426941e-01  1.0000000000000135e+00  -6.6297300561873222e-15  1.8691973665617465e-01  3.6433250866220851e-01  5.3381484969785264e-01  6.9614076263118807e-01  8.5187507429274267e-01  1.0000000000000142e+00  -6.7395632087643153e-15  2.0683080241886853e-01  3.8873829310655766e-01  5.5901537900188691e-01  7.1949055197250877e-01  8.6920938500975375e-01  1.0000000000000140e+00  -7.8600602351507704e-15  1.8530836379044829e-01  3.6078256633035816e-01  5.2984652750103256e-01  6.9305324915783162e-01  8.5055207558524459e-01  1.0000000000000129e+00  -6.7605080091723929e-15  -6.8755624746683309e-15  -6.9683308498493244e-15  1.9595091344597951e-01  1.9502609515882968e-01  1.8975136682144828e-01  3.7591776981860214e-01  3.7610928501611418e-01  3.6734088361408362e-01  5.4586747659987256e-01  5.4644972303683614e-01  5.3703723427395011e-01  7.0703362142273218e-01  7.0724410672015181e-01  6.9974872922065079e-01  8.5923170855603326e-01  8.5896758214231494e-01  8.5541049453743079e-01  1.0000000000000138e+00  1.0000000000000140e+00  1.0000000000000140e+00  -5.8786338621384180e-15  -6.0698217152307428e-15  -6.0650512719939209e-15  1.4823744771004269e-01  -5.3720414426008604e-15  -5.6067940960684377e-15  -5.3871924383880450e-15  1.7524369563484993e-01  1.8258043044135641e-01  1.7668749708141959e-01  3.4839337253456687e-01  3.5683983051449769e-01  3.5019693621286885e-01  5.1679272792387332e-01  5.2524905384121978e-01  5.1849632148767011e-01  6.8047211997872092e-01  6.8841584818011481e-01  6.8191726964284294e-01  8.4050869824292029e-01  8.4686565061009245e-01  8.4129998673281758e-01  1.0000000000000153e+00  1.0000000000000153e+00  1.0000000000000155e+00  -7.4037728889380476e-15  1.9276075337506901e-01  3.7107817342047728e-01  5.4066040656144287e-01  7.0259177214807911e-01  8.5679318404090632e-01  1.0000000000000133e+00  -7.1112100217534049e-15  1.9277431934065031e-01  3.7571081061121248e-01  5.4665063162092919e-01  7.0665069673300018e-01  8.5701609209615903e-01  1.0000000000000138e+00  -5.6227797749963313e-15  1.7305487483947091e-01  3.4629067322032614e-01  5.1464738281484235e-01  6.7807665541601325e-01  8.3789919914830524e-01  1.0000000000000151e+00  -5.7867263056967676e-15  1.7494330994081278e-01  3.4974600235698045e-01  5.1870125803971456e-01  6.8163614640816783e-01  8.4003486939432115e-01  1.0000000000000151e+00  1.8680698213652139e-01  1.8663261448288335e-01  1.8571052165577659e-01  3.6227021737839360e-01  3.6305503574412556e-01  3.6343697391164648e-01  5.3151043698012812e-01  5.3231620711060212e-01  5.3263561832645789e-01  6.9419868483066682e-01  -7.2404627562593238e-15  1.9603006331216161e-01  3.7600026734049768e-01  5.4609538891882448e-01  7.0754937916503147e-01  8.6021499763832698e-01  1.0000000000000135e+00  -5.7813641536980069e-15  -6.0324058678180215e-15  -5.7737941788893646e-15  1.8263025141454983e-01  1.9038512470895366e-01  1.8402805036564929e-01  3.5775206084766936e-01  3.6768125848244598e-01  3.5921437912434695e-01  5.2656712979576736e-01  5.3706214909679406e-01  5.2806027064854644e-01  6.8963105515365308e-01  6.9960862089885434e-01  6.9129014944813938e-01  8.4747689793084369e-01  8.5494755577302739e-01  8.4900620207670496e-01  1.0000000000000151e+00  1.0000000000000149e+00  1.0000000000000151e+00  7.2078873768791840e-01  7.3886954768175661e-01  7.3675475740671814e-01  8.7732282945621609e-01  8.7959472583304232e-01  8.6588724563998554e-01  1.0000000000000129e+00  -7.6579373488367927e-15  -7.8212606651201193e-15  -7.5985233460629116e-15  2.1004545353044196e-01  2.1249944221717876e-01  2.1300922823120966e-01  3.9795688732028300e-01  4.0210041009668779e-01  4.0156764951552187e-01  5.6935259663093274e-01  5.7384038487113120e-01  5.7294761509707037e-01  7.2660907775024564e-01  7.3008828894373823e-01  7.2960615973141929e-01  8.7072636768234279e-01  8.7225224234168997e-01  8.7275736863315478e-01  1.0000000000000133e+00  1.0000000000000131e+00  1.0000000000000131e+00  4.0947206729632679e-01  4.0953769636330611e-01  5.8117469554690815e-01  5.8076087356975981e-01  7.3665996729336192e-01  8.7797279423658947e-01  1.0000000000000129e+00  -5.2444872043688110e-15  -5.4567588705342365e-15  -5.2485061655996570e-15  1.5403973919773467e-01  1.4930582180631208e-01  1.5078112709484578e-01  3.1403176773727032e-01  3.0526213892620430e-01  3.0812094576989307e-01  4.7821487234719473e-01  4.6734881448792098e-01  4.7095232899458511e-01  -6.1446669096437822e-15  1.8441960898504031e-01  3.6201001167612001e-01  5.3173936614158157e-01  6.9403952010568404e-01  8.4969665701839170e-01  1.0000000000000147e+00  3.4504084942664953e-01  5.1249448797615949e-01  6.7787534240120018e-01  8.4103182860395431e-01  -7.2470047788314954e-15  1.9962066981469873e-01  3.8337340022288380e-01  5.5425150164501624e-01  7.1371553073304117e-01  8.6260415589208517e-01  1.0000000000000135e+00  -6.4903128733747925e-15  1.9730338217311333e-01  3.7966738867738931e-01  5.5038693994531729e-01  7.1061396490173345e-01  8.6090149984519482e-01  1.0000000000000142e+00  -5.5692391615444381e-15  1.8918718047192348e-01  3.6483457490013488e-01  5.3355294626095007e-01  6.9643743057741692e-01  8.5349626525542643e-01  1.0000000000000153e+00  -5.4194533673608685e-15  -5.6232030681311930e-15  -5.3663085863018616e-15  1.7003997599761894e-01  1.8646572258312047e-01  3.3901261128946569e-01  3.6057595972651030e-01  5.0605937767866715e-01  5.2909800419042075e-01  6.7144101849545346e-01  6.9324704610948051e-01  8.3544877381837124e-01  8.5219301043170703e-01  1.0000000000000151e+00  1.0000000000000153e+00  -5.8170034851614828e-15  -6.0037506836554044e-15  -5.8033358177728691e-15  1.5705710506461310e-01  1.6254838087085596e-01  1.6995700762170343e-01  3.1792590641122370e-01  3.2680734903997849e-01  3.3679922425629605e-01  4.8182594860303579e-01  4.9234463779361259e-01  5.0297086386359746e-01  6.4923387835640400e-01  6.5941032715777581e-01  6.6914054716983085e-01  8.2101672727861741e-01  8.2821797651325113e-01  8.3541849549216440e-01  1.0000000000000151e+00  1.0000000000000149e+00  1.0000000000000149e+00  -7.5104967523105151e-15  -7.4460883504576858e-15  2.1612108377788039e-01  2.0233959604519364e-01  4.0360058122776449e-01  3.8924789919063252e-01  5.7450625023583346e-01  5.6071673510333475e-01  7.3159686300090443e-01  7.1834883444602338e-01  8.7515294673011346e-01  8.6382267453984152e-01  1.0000000000000133e+00  1.0000000000000133e+00  -6.0139429798245174e-15  -6.1915442623154831e-15  1.7278896644908376e-01  1.6422236849820088e-01  3.4077766764711137e-01  3.3207117393355851e-01  5.0767101575149298e-01  4.9887487187889701e-01  6.7403224759044789e-01  6.6436977320798829e-01  8.3953744660916674e-01  8.2950457858650917e-01  1.0000000000000147e+00  1.0000000000000149e+00  -6.2053988973379522e-15  -6.3866438062024568e-15  1.7669686242656346e-01  1.7753790847051967e-01  3.4735785380270795e-01  3.5013519080174105e-01  5.1486274116604125e-01  5.1852254880166737e-01  6.7969019160417365e-01  6.8325465663494522e-01  8.4176628781994933e-01  8.4439862277779176e-01  1.0000000000000144e+00  1.0000000000000147e+00  -6.4129470247160100e-15  -6.5857643660369182e-15  1.7492451472920861e-01  1.8214813876466562e-01  3.4803356151655013e-01  3.5714328542140433e-01  5.1654592624317230e-01  5.2579216974894238e-01  6.8042814579735300e-01  6.8884680529350351e-01  8.4029467537997748e-01  8.4676895671074282e-01  1.0000000000000142e+00  1.0000000000000144e+00  -5.6329173515135627e-15  -5.8208649958714519e-15  1.8064923865598576e-01  1.8651878009061520e-01  3.5305112257164573e-01  3.6218696160589459e-01  5.2102713623838792e-01  5.3096296423770928e-01  6.8536661012832367e-01  6.9394606508134460e-01  8.4586431766958659e-01  8.5112677049933361e-01  1.0000000000000149e+00  1.0000000000000151e+00  -6.1929452945149111e-15  -6.3786672224919079e-15  -6.1856552425886404e-15  1.5643661266179845e-01  1.5881160176483852e-01  1.6263807890170009e-01  3.1613240462830072e-01  3.2119473154802386e-01  3.2614342567608795e-01  4.7962854813673550e-01  4.8593601199357822e-01  4.9123285781012999e-01  6.4757661847683190e-01  6.5314319548209243e-01  6.5837735358394744e-01  8.2067531901369117e-01  8.2343120213902521e-01  8.2794094305563992e-01  1.0000000000000147e+00  1.0000000000000144e+00  1.0000000000000147e+00  1.8158874230404998e-01  3.5627092793899423e-01  5.2514753417678417e-01  6.8871763186888868e-01  8.4733954622631624e-01  1.0000000000000149e+00  7.5298164244402987e-01  8.8977307762279279e-01  1.0000000000000127e+00  -6.0094619521947768e-15  1.8381779453613667e-01  3.6129901138695664e-01  5.3085051555334173e-01  6.9288716808945228e-01  8.4850327258661395e-01  1.0000000000000149e+00  -6.7557761869983710e-15  -6.9470104796646457e-15  -6.7583304082333715e-15  1.7559832371498912e-01  1.7641114711244460e-01  1.8157848544099123e-01  3.4658452017812136e-01  3.5065808893556810e-01  3.5591374383366570e-01  5.1440251634712897e-01  5.1960697174396242e-01  5.2487319747944627e-01  6.7942549034631394e-01  6.8321874442530051e-01  6.8889737452447086e-01  8.4160884399814417e-01  8.4229263650852126e-01  8.4804907836695131e-01  1.0000000000000140e+00  1.0000000000000140e+00  1.0000000000000140e+00  -4.9077479533783991e-15  -4.9871001389662460e-15  -5.1600881888588892e-15  1.8182114276481293e-01  1.8118342137700774e-01  1.8505291115730194e-01  3.5623867958667899e-01  3.5619702325753599e-01  3.6060467113509853e-01  5.2480495497773261e-01  5.2500010057917745e-01  5.2945824505254013e-01  6.8812398089824223e-01  6.881