<?xml version="1.0"?>
<VTKFile type="UnstructuredGrid"  version="0.1"  >
<UnstructuredGrid>
<Piece  NumberOfPoints="2090" NumberOfCells="9527">
<Points>
<DataArray  type="Float64"  NumberOfComponents="3"  format="ascii">10.47859488461395 1.743199149549865 2.310221683024858  10.39011876681951 1.746475835728203 2.389186253413879  10.38273083948475 1.724029119284048 2.239661572515492  10.38905879737766 1.667763615780034 2.242278509007262  10.39683539946244 1.69240529673649 2.398864054048915  10.48597589267946 1.688015048236318 2.317507211734648  10.39525864057125 1.611415413315949 2.244792593467745  10.40347460904878 1.638254956620224 2.408512436685674  10.49329241959396 1.63275112263528 2.32471043883513  10.40142678604492 1.555024175394698 2.247285859556934  10.41008562860593 1.58403959932603 2.418148189787025  10.50060100487238 1.577426358742889 2.331893258842316  10.41672859369495 1.529787024632423 2.427807391808069  10.50795116995733 1.522058110705792 2.339107318438697  10.40764227875548 1.498597133978777 2.249807817571164  10.42344169225265 1.475503761082034 2.43752695641128  10.51537027436656 1.466659465806737 2.346397574449021  10.41395715113066 1.442143086847034 2.252394613525482  10.43023782909035 1.421187278292761 2.447327135254973  10.52285832381607 1.411205931080995 2.35380424121657  10.4203808474043 1.385644156210024 2.255083961648562  10.63466443309029 2.40110381633999 3.522723604796444  10.54725485047735 2.328993176542256 3.450128961523271  10.65740971157491 2.331263174391724 3.447750906643321  10.65785089364024 2.287970157534074 3.487698234413719  10.54902029292025 2.28633373622652 3.489751002849701  10.63481157850055 2.358947290965796 3.565806856580581  10.65771707645725 2.244525559934601 3.527690075171925  10.55032837056613 2.243588427443266 3.529381311506091  10.6343954821987 2.316676178983172 3.608932732674373  10.65738080905151 2.200892769570538 3.567713869408353  10.55144453506648 2.200720867997409 3.56901262536094  10.6337735883993 2.274234879891481 3.652088994909125  10.6571158270118 2.15708596171349 3.607770717177103  10.55261053759159 2.157727734358333 3.608629661761074  10.63321382074632 2.231625019926884 3.695274829941322  10.65714739735403 2.113133706437825 3.647882742113115  10.55402582199866 2.114645491168501 3.64824275701149  10.63294322088776 2.188865959600459 3.738510037514444  10.65769410288581 2.069062217600059 3.688092116352069  10.55592177287646 2.071504096343644 3.687875979450851  10.63319915499756 2.145966031957449 3.781832817129321  10.48248309297318 2.184887968269668 3.285991548284267  10.39163410013394 2.220848143792308 3.342615390556269  10.40551595589035 2.133802160685357 3.223893315908657  10.40988983807781 2.089676379701861 3.255234144087097  10.3960070941263 2.177849958472393 3.377838090192046  10.48646451330311 2.140761681758718 3.319263675196207  10.41399860871648 2.045514045818498 3.286556704983237  10.40009929414558 2.13482358730456 3.413046109051646  10.49012913986647 2.096581760535316 3.352520894710195  10.41798578509117 2.001297163285727 3.317860528190084  10.4040643347849 2.091746485985573 3.44823108087012  10.49365314869946 2.052323085446162 3.385762674549059  10.42198689348132 1.957034551071707 3.349152008842085  10.40804184608123 2.048621924003262 3.483390913091249  10.49720573536601 2.007993250300787 3.418997537217989  10.42614487154544 1.912748088089549 3.380430560129369  10.41217980640455 2.005473113258669 3.518515757249288  10.50096065793855 1.963618413326412 3.452223073897106  10.43063262212487 1.868461862819047 3.411670750149567  10.41666573530122 1.962342935542526 3.553579490346768  10.50510855817727 1.919224021457545 3.48542820705659  10.96015102626148 2.24476764532159 3.332605193699599  10.97133608475358 2.322232570414888 3.433243688480085  10.84736047586136 2.307854493063652 3.419897571549045  10.8478539060525 2.261469225959241 3.457705095317975  10.97190275004993 2.274791339147167 3.471971296781261  10.961627470762 2.196237782197406 3.36684059158195  10.84770464895464 2.214763217281008 3.495599772600215  10.971744257335 2.226916406948251 3.510789863764705  10.96248731883501 2.147317546381259 3.40102806037566  10.8473630509282 2.167754688386741 3.533593215156777  10.9713955416401 2.178658997693599 3.549780335531479  10.96316503121099 2.098057327643328 3.435368844408428  10.84713309123 2.120477544992053 3.571726116257813  10.97116780009625 2.130061638338414 3.588994675138483  10.96399275209431 2.048499342029388 3.469913123096842  10.84725050838665 2.07297060663925 3.610045757742301  10.97129518916429 2.081147600919325 3.628471237363068  10.96518550871988 1.998674646843764 3.504712023718087  10.84788935941648 2.025211585293154 3.648538077144551  10.97195212359921 2.031895946477884 3.668234072404974  10.9668445590167 1.948553711790464 3.539747262858032  10.27152196064401 1.716801932954888 2.300138723315616  10.27699425532111 1.661195147128171 2.304883785151629  10.28232460014057 1.605517142029648 2.309582582328512  10.28759464672217 1.549815811955658 2.314261329287917  10.29290140189602 1.494102782507372 2.318959808634514  10.29831887022975 1.43838533612635 2.323713682689108  10.30388424073986 1.382626064677627 2.328544645217313  9.524486172983208 1.894423738320423 3.072529535859104  9.425936205174128 1.908122245238897 3.127490306487424  9.454040413016964 1.845006067356836 3.006830537930293  9.462117805287527 1.799990561798499 3.031964015958329  9.433697916343521 1.862879790317049 3.152939067086798  9.532767908874277 1.849343625215287 3.097581882597165  9.441535273791397 1.817632619097159 3.178341634670738  9.541148005670079 1.804271914921158 3.122582606493121  9.47028009895376 1.75497564625529 3.057034723062074  9.549569224306838 1.759214274426862 3.147542702486218  9.44940726917504 1.772393200092095 3.203707192620144  9.47847653700012 1.709969501330268 3.082063338136365  9.557986983863577 1.714172279227788 3.172472275655399  9.45727723812381 1.727158900236281 3.229046545381786  9.486666930538741 1.664978140102654 3.107063166583217  9.566356117211036 1.669141222301906 3.197384520402304  9.465106826151798 1.681925791756036 3.254370310073452  9.494813029272098 1.619999946386539 3.132052485767023  9.574610962654242 1.624105167607541 3.222300768635864  9.472854383015324 1.636682019906344 3.279698687553435  9.502865496133451 1.575028018533279 3.157065589901537  10.49197264968439 2.229196423413705 3.691857099826545  10.49421564570415 2.187913732434148 3.734486920285571  10.82814780794954 2.237862688789833 3.328222401293788  10.82964544145707 2.191038008919653 3.362501003677856  10.83055738557071 2.143863802310904 3.396802763311708  10.8312788820499 2.096422361662588 3.431178772507587  10.83210454460437 2.048744399059906 3.465673757914985  10.83327209840294 2.000854053649681 3.500338002441995  10.83495631714372 1.952722866405791 3.535210000712967  9.553213561971107 1.692242699470965 2.639569533554867  9.424701910508393 1.662423639804791 2.589161249319794  9.528409903984603 1.670580408474905 2.539473647540267  9.536711966467877 1.617831103271958 2.547952938444555  9.432785009215388 1.610125665712554 2.600180355191136  9.561615566077061 1.641220067113647 2.65447893951913  9.570035501171018 1.590233652626806 2.66929588324331  9.440870852430967 1.557862730038447 2.61106941567902  9.545017570771412 1.565134472277366 2.55632516033529  9.578444181143873 1.53930262850067 2.684055724145317  9.448951915157117 1.505644631339751 2.621889858043449  9.553312080189311 1.512481249081644 2.564633768560185  9.457019080937155 1.453474743461292 2.632687171475329  9.586837609042124 1.488437148764276 2.698785212298447  9.561594050334447 1.459882916295616 2.572916916339095  9.595209206964054 1.437646002129307 2.713515477497376  9.465056302883493 1.401386510885865 2.643502585752632  9.569866883757101 1.407344929642711 2.581212290080458  9.60353357279309 1.386910975642145 2.728275697480514  9.473062653760827 1.349380402070583 2.654389309961248  9.578090951448065 1.354916243976923 2.589567313902493  10.12187354662648 2.023451590190072 3.113190321454531  10.05827430135474 2.065515669507915 3.195533959213763  9.980611037662829 2.0162215987653 3.141400803845674  9.988370498409887 1.971759910960195 3.168539980758404  10.06600434456413 2.02162620160527 3.22444541938774  10.12847002615854 1.979161503041123 3.140655171703289  9.996150573798641 1.927347483887534 3.19563058799724  10.07372411283473 1.97778436122914 3.253307849381268  10.1350074970474 1.934904716082493 3.168084471699196  10.00393262875889 1.882970244317182 3.222675341051092  10.08142776017558 1.933970432425944 3.282129519465911  10.14150852426371 1.890664219565491 3.195478261015096  10.01170954163524 1.838623739905114 3.249674221574906  10.08912727574698 1.89017566179102 3.310908440231145  10.14800890287883 1.846436468027522 3.222836565778182  10.01947469687073 1.794315355900225 3.276620720292324  10.09683628027408 1.846405892364079 3.339633910360154  10.15454964740501 1.802233145150412 3.25015094053725  10.02720955815926 1.750050411992349 3.303503850016738  10.10454790911452 1.802681232209535 3.368280747747131  10.16116415395965 1.758093633262549 3.277390632281457  10.05156397523807 1.974597703775644 3.047639077427889  10.05817723658448 1.93007154975189 3.073878461769327  10.06476307388691 1.885585550809186 3.100074846986188  10.07133032850467 1.841123387249235 3.12623191894464  10.07789677466032 1.796681034049244 3.152352657845217  10.08448352076774 1.752265632671572 3.178434630702502  10.09110532318362 1.707900888674237 3.204458572132321  10.04026633414281 1.709679861258228 2.418393358256904  9.987577938641103 1.722385719625658 2.494529301737767  9.938043659707755 1.695413937468635 2.376590788778683  9.942655348985683 1.640954270432488 2.382450866959082  9.993022836367262 1.670062497594853 2.507533725106371  10.04577070594899 1.655921042517942 2.4281930857771  9.947051154760715 1.586515068094505 2.388247263837176  9.998321539481406 1.617765609594029 2.520525735666978  10.05108032779657 1.602170531126936 2.4379646292239
[...]
<PointData  Scalars="f_14"> 
<DataArray  type="Float64"  Name="f_14"  format="ascii">-2.3668652766570250e-15  -2.5686571699576121e-15  -2.5698767836643240e-15  1.9908645243219050e-01  1.8308950213563277e-01  1.9209829689520511e-01  3.8060696070417444e-01  3.5941576109050077e-01  3.7051275775246412e-01  5.5097842651243478e-01  5.2888628674391658e-01  5.4033961661480423e-01  6.9172985524790997e-01  7.0262994938065026e-01  7.1184286895269255e-01  8.4848201778891053e-01  8.5728215123867912e-01  8.6285264360007152e-01  1.0000000000000182e+00  1.0000000000000184e+00  1.0000000000000182e+00  -2.0793550854934365e-15  -2.2654417513169130e-15  -2.0306606345644577e-15  1.7164254929427514e-01  1.7088537708794732e-01  1.7653393291383371e-01  3.4198765749287768e-01  3.3992034861707154e-01  3.4770942570903124e-01  5.0949793372318797e-01  5.0696459398393556e-01  5.1547914116693916e-01  6.7430100241339630e-01  6.7231753022514562e-01  6.8028856201305332e-01  8.3687928945950329e-01  8.3639958321305163e-01  8.4226774932800685e-01  1.0000000000000189e+00  1.0000000000000187e+00  1.0000000000000187e+00  -2.4022776545758347e-15  -2.5992876490152966e-15  -2.5693250136639011e-15  1.6814714568628972e-01  1.7172718391984521e-01  1.7358014732615348e-01  3.3587237407981191e-01  3.4018155174514486e-01  3.4229024885806886e-01  5.0252287686470420e-01  5.0700014876328869e-01  5.0918843134822389e-01  6.6835033581827485e-01  6.7272747431093438e-01  6.7485707739828682e-01  8.3381893614924896e-01  8.3740204185432821e-01  8.3942012847769942e-01  1.0000000000000182e+00  1.0000000000000182e+00  1.0000000000000184e+00  -1.3875896657867201e-15  -1.3663627496404671e-15  -1.6253733720621266e-15  1.7904955806246162e-01  1.7869768914241210e-01  1.7687754337400266e-01  3.5149596190341614e-01  3.5163069835302707e-01  3.4806375104736292e-01  5.1967484570911249e-01  5.1995350767458048e-01  5.1580590542280946e-01  6.8409371368418570e-01  6.8407364553906602e-01  6.8062146316735139e-01  8.4469890722291729e-01  8.4417054107123934e-01  8.4240143296288550e-01  1.0000000000000193e+00  1.0000000000000195e+00  1.0000000000000195e+00  -2.8233029534335023e-15  1.9632180037011343e-01  3.7653016305097470e-01  5.4668405496359751e-01  7.0797692350157582e-01  8.6032927523288838e-01  1.0000000000000180e+00  -4.5035891463841445e-15  -4.7206650361882473e-15  -4.6574732648152509e-15  1.7125521660985235e-01  1.6849560027809812e-01  1.6945855918905339e-01  3.3598186157696269e-01  3.3732058029348916e-01  3.4025268547656023e-01  5.0404176868929840e-01  5.0252844818508968e-01  5.0735033380162797e-01  6.6984178701243990e-01  6.6834540225529360e-01  6.7277891418965174e-01  8.3506183196322759e-01  8.3383210176580635e-01  8.3687277076373934e-01  1.0000000000000162e+00  1.0000000000000162e+00  1.0000000000000162e+00  6.7395909859096981e-01  8.3805685124554319e-01  -1.6637196711053363e-15  1.7281561406915483e-01  3.4308205378774481e-01  5.1058071958647289e-01  6.7552153070873089e-01  8.3823802602853925e-01  1.0000000000000191e+00  -4.4366407814085333e-15  -4.7184161206998953e-15  -4.4852760624539350e-15  1.8015698365746871e-01  1.8680698213652139e-01  1.9655126088785393e-01  3.7519902354384471e-01  3.6343697391164648e-01  3.5533172577090716e-01  5.4480058279212396e-01  5.3263561832645789e-01  5.2426108855598108e-01  6.9523158615304093e-01  7.0703069431539056e-01  6.8723922483570132e-01  8.6096537508386417e-01  8.5125748948394786e-01  8.4516160104343119e-01  1.0000000000000164e+00  1.0000000000000162e+00  1.0000000000000164e+00  -3.1895564197885706e-15  -3.3284733403102405e-15  -3.5001728843452649e-15  1.7231757551647514e-01  1.6858687598540639e-01  1.6771563873308723e-01  3.4050335444572100e-01  3.3592729239019398e-01  3.3455301644188079e-01  5.0727911791755464e-01  5.0239334736207797e-01  5.0082571173080670e-01  6.7325469904385016e-01  6.6827697573308564e-01  6.6681194507972297e-01  8.3826079873575898e-01  8.3395593094888787e-01  8.3296071968000329e-01  1.0000000000000173e+00  1.0000000000000175e+00  1.0000000000000175e+00  -3.3434932817370753e-15  1.6484114731856528e-01  3.3128736387893137e-01  4.9747262957735272e-01  6.6341289432544781e-01  8.2987647338278747e-01  1.0000000000000175e+00  -3.3472707417978222e-15  -3.4687191984506900e-15  -3.5713743175543256e-15  1.8832457944550110e-01  1.8329042911005625e-01  1.9368778677878262e-01  3.6568025142676475e-01  3.5843196800306804e-01  3.7144332479611009e-01  5.3502075497849044e-01  5.2738157890789694e-01  5.4098259229476175e-01  6.9732788567048765e-01  6.9072614189066950e-01  7.0349944876560777e-01  8.5270753329482973e-01  8.4856853900453966e-01  8.5879333117274281e-01  1.0000000000000173e+00  1.0000000000000173e+00  1.0000000000000175e+00  -2.8192791705668657e-15  1.7344191389251851e-01  3.4206792880927789e-01  5.0886597853558457e-01  6.7444287530146296e-01  8.3865048966935807e-01  1.0000000000000180e+00  -4.7536979289861941e-15  1.8663261448288335e-01  3.6305503574412556e-01  5.3231620711060212e-01  6.9523175714109664e-01  8.5175725336346730e-01  1.0000000000000160e+00  1.0000000000000158e+00  -4.4830646414083887e-15  1.7739006793269527e-01  3.5111722368631426e-01  5.1983001477418123e-01  6.8376670722477084e-01  8.4352225423087024e-01  1.0000000000000164e+00  -4.0962510210747055e-15  -4.3528308070030748e-15  -4.1168244546108743e-15  1.7019711294073456e-01  1.6873871729366186e-01  1.6814672607077336e-01  3.3897726863492916e-01  3.3686860782395101e-01  3.3555403099283698e-01  5.0596140455007954e-01  5.0362779428236981e-01  5.0207310750725398e-01  6.7139538664826603e-01  6.6911382739389746e-01  6.6786334549339810e-01  8.3566189771678756e-01  8.3394854757638170e-01  8.3342383466348902e-01  1.0000000000000167e+00  1.0000000000000164e+00  1.0000000000000167e+00  -4.3007044829742871e-15  1.6875467534854804e-01  3.3625866189128989e-01  5.0277425441632217e-01  6.6852930346778139e-01  8.3395467786250155e-01  1.0000000000000164e+00  -9.1229149618259500e-16  -1.1014843922966919e-15  -1.1284419632007435e-15  1.7036337349895136e-01  1.7052701812739313e-01  1.7276327562353164e-01  3.3832906929240364e-01  3.3969606791882379e-01  3.4135113085645108e-01  5.0490651569055289e-01  5.0685348207916936e-01  5.0822841865501478e-01  6.7047310761891055e-01  6.7209708443651639e-01  6.7393718697766769e-01  8.3540820994156184e-01  8.3587260148323483e-01  8.3869019319196836e-01  1.0000000000000198e+00  1.0000000000000198e+00  1.0000000000000200e+00  -6.4472404580494264e-16  -8.5414629396298531e-16  -8.5650078458086900e-16  1.6760392314550646e-01  1.6621755429811905e-01  1.6832296342702716e-01  3.3415384935512293e-01  3.3263683522140458e-01  3.3465432526984962e-01  5.0006231589381367e-01  4.9858484184832441e-01  5.0059793737758163e-01  6.6570682096710720e-01  6.6428299755047104e-01  6.6660637256793664e-01  8.3176907055328075e-01  8.3055582801160965e-01  8.3317653851588880e-01  1.0000000000000200e+00  1.0000000000000200e+00  1.0000000000000202e+00  -3.3640405589950946e-15  -3.4242970774829048e-15  -3.6226591118684744e-15  1.7403132790782910e-01  1.8181743688020990e-01  1.6741487931336568e-01  3.4500455888108372e-01  3.5479084676583966e-01  3.3614139179193447e-01  5.1288039452089340e-01  5.2312193522923101e-01  5.0324137570849725e-01  6.7791077158842317e-01  6.8777815704604972e-01  6.6857105326856814e-01  8.4029507353110267e-01  -3.7275792491854465e-15  1.8286849940668948e-01  3.5805585508853804e-01  5.2697027280718611e-01  6.9012514724032303e-01  8.4785344093057269e-01  1.0000000000000171e+00  -1.7193361100208630e-15  -1.9469216918125604e-15  -1.7403874636995466e-15  1.8418700321180148e-01  1.7905801902234050e-01  1.7899325617319697e-01  3.5854138825089504e-01  3.5369091796840979e-01  3.5413645209899497e-01  5.2702988004607709e-01  5.2249699791359450e-01  -4.6421455112845116e-15  1.8616043481786840e-01  3.6237222188779683e-01  5.3159370446695597e-01  6.9461500820911637e-01  8.5155796225987757e-01  1.0000000000000162e+00  1.0000000000000160e+00  -4.3987635665645351e-16  -6.5641497197318788e-16  1.6719800243339913e-01  1.6568020205984252e-01  3.3206569336830094e-01  3.3398701458144259e-01  4.9820320868541107e-01  4.9999665620417127e-01  6.6404422523989026e-01  6.6557762324310699e-01  8.3030229934839694e-01  8.3146730771235455e-01  1.0000000000000204e+00  1.0000000000000202e+00  -3.6917705136140617e-15  1.8402184058230361e-01  3.5764720812457340e-01  5.2619948160504904e-01  6.9025788497271623e-01  -1.1662528174800997e-15  1.7926399593630027e-01  3.5146530558287553e-01  5.1960493663039120e-01  6.8426718485408122e-01  8.4537454493577835e-01  1.0000000000000198e+00  -1.3177013205887220e-15  1.7205487859133328e-01  3.4098076048426024e-01  5.0791220949957627e-01  6.7325754834542528e-01  8.3738933149690775e-01  1.0000000000000195e+00  -1.0873229524695093e-15  1.7106743183885323e-01  3.3871505594188528e-01  5.0507121734895633e-01  6.7072579175025915e-01  8.3612978684364903e-01  1.0000000000000198e+00  -4.8914433566196969e-15  1.8524829993564079e-01  3.6132697599796820e-01  5.3042450738555824e-01  6.9319071925326592e-01  8.4992030827197396e-01  1.0000000000000160e+00  8.4068120129490265e-01  8.6876122174539483e-01  8.4854596919003322e-01  6.8018886270493562e-01  7.1156451440586976e-01  1.0000000000000207e+00  1.0000000000000207e+00  1.0000000000000209e+00  -2.1209628624627748e-16  -4.1381997307698676e-16  -4.2970402418123173e-16  1.6757894942828588e-01  1.7008814482097526e-01  1.7850683089290212e-01  3.3583201736032037e-01  3.3829232803007142e-01  3.5131491791667274e-01  5.0262558561889481e-01  5.0508867154298920e-01  5.2064109116414059e-01  6.6775253809308188e-01  6.7063737766088527e-01  6.8615429848917453e-01  8.3206017619949790e-01  8.3527242852848171e-01  8.4676951696524494e-01  1.0000000000000204e+00  1.0000000000000204e+00  1.0000000000000207e+00  -3.1117556511442363e-15  1.6834347179495474e-01  3.3634004973213921e-01  5.0302372564335718e-01  -2.7769130657414044e-15  1.6639081639799611e-01  3.3365555112389939e-01  4.9997355667757049e-01  6.6561619493989022e-01  8.3145466517537836e-01  1.0000000000000180e+00  8.4077963073279383e-01  1.0000000000000204e+00  -2.0440063726678453e-16  1.7237576543130212e-01  3.4332067516053538e-01  5.1205692428783345e-01  6.7797522262145316e-01  8.4030394996557611e-01  1.0000000000000207e+00  -2.1119131643154662e-16  -4.1740124181966290e-16  1.6973992321851208e-01  1.7596027765089864e-01  3.3902827919630651e-01  3.4908726250422067e-01  5.0623663112513118e-01  5.1863580422486932e-01  6.7113172990485381e-01  6.8400405236752382e-01  8.3433837277621414e-01  8.4446211963484030e-01  1.0000000000000204e+00  1.0000000000000207e+00  -3.9016144840909828e-15  -4.1411775675333736e-15  -3.8638081131305467e-15  1.7729082538973556e-01  1.7734636692718497e-01  1.7751927665529921e-01  3.4896586437961630e-01  3.5061808509945741e-01  3.5074623907965641e-01  5.1700230735750630e-01  5.1921350503354713e-01  5.1931833844727060e-01  6.8178153579618084e-01  6.8326417988312937e-01  6.8351936371087818e-01  8.4325021166307579e-01  8.4313149417802147e-01  8.4360780080067954e-01  1.0000000000000169e+00  1.0000000000000167e+00  -6.2095298586169428e-16  1.7356636482352503e-01  3.4202787350716879e-01  5.0863475565298444e-01  6.7402535457205082e-01  8.3845127652163232e-01  1.0000000000000202e+00  -3.6006662901679044e-15  1.7240641169171420e-01  3.4451949273890381e-01  5.1264396446807048e-01  6.7657539316236748e-01  8.3740055881410302e-01  1.0000000000000173e+00  -3.5327286941074768e-15  1.6705270530274852e-01  3.3456441378150203e-01  5.0117464310604531e-01  6.6692028506128231e-01  8.3239416590382764e-01  1.0000000000000173e+00  -4.2736111398852620e-16  -6.4632735199507585e-16  -6.2019918806019601e-16  1.7015003489200292e-01  1.7822643867249116e-01  1.7376401815290998e-01  3.3881757815858304e-01  3.4903288271177912e-01  3.4406717617907318e-01  5.0525435028404952e-01  5.1610196235200545e-01  5.1140908678498165e-01  6.6984311717882783e-01  6.8041437992378362e-01  6.7608618996569247e-01  8.3365698129225974e-01  8.4217636330361179e-01  8.3851931287326331e-01  1.0000000000000202e+00  1.0000000000000202e+00  1.0000000000000204e+00  -4.1117530623876903e-15  1.7824638782189917e-01  3.5039643149936961e-01  5.1861295250208417e-01  6.8335101125997877e-01  8.4448535742448327e-01  1.0000000000000167e+00  -2.1491464119181592e-16  -4.2736962236830692e-16  -4.4746092706700432e-16  1.7972380783466740e-01  1.8662421845158123e-01  -1.5737248726364928e-15  1.8224657892656027e-01  3.5649730369641169e-01  5.2521475993134925e-01  6.8900109309112334e-01  8.4786473869992229e-01  1.0000000000000193e+00  -2.9937946764622176e-15  1.7196328907699338e-01  3.4027947643841083e-01  5.0688835078952199e-01  6.7227875661841796e-01  8.3675463285467289e-01  1.0000000000000178e+00  0.0000000000000000e+00  -2.1549076886954392e-16  1.8426015922743660e-01  1.9284767166111480e-01  3.7472220094538988e-01  3.5898116109427430e-01  5.5032183516435451e-01  5.2888279087652690e-01  7.1841164674530944e-01  6.9392512894327674e-01  8.7414982647401740e-01  8.5240495975051911e-01  1.0000000000000209e+00  1.0000000000000207e+00  0.0000000000000000e+00  1.8843858744733852e-01  3.6849146636377789e-01  5.4314975203337423e-01  7.1159990861030609e-01  8.6939828074127001e-01  1.0000000000000209e+00  0.0000000000000000e+00  0.0000000000000000e+00  1.8039142119301871e-01  3.7183954677051484e-01  3.5892749429986481e-01  3.6294991298377138e-01  5.3315765627829981e-01  5.4592437421360651e-01  5.3309329557347729e-01  6.9716236709314794e-01  7.1236752640791212e-01  7.0136329106497008e-01  8.5388567447341757e-01  8.6783811956892476e-01  8.6077246219435299e-01  1.0000000000000207e+00  1.0000000000000209e+00  1.0000000000000209e+00  -6.4281093276485780e-16  -8.6244441808047488e-16  -8.3076918199179020e-16  1.7591596229959555e-01  1.7054222419362694e-01  1.6996920936976057e-01  3.4594958037361839e-01  3.3975475645331221e-01  3.3841901383657480e-01  5.1302743957449515e-01  5.0648989873654049e-01  5.0511458072718840e-01  6.7785709784116688e-01  6.7112969052905636e-01  6.7037038131649462e-01  8.4069819436319193e-01  8.3460401187041489e-01  8.3490271024279994e-01  1.0000000000000200e+00  1.0000000000000200e+00  1.0000000000000202e+00  -6.2646833667298348e-16  1.7573538573298564e-01  3.4561645879981800e-01  5.1247552880958103e-01  6.7701567181857647e-01  8.3970914011284203e-01  1.0000000000000202e+00  0.0000000000000000e+00  -2.2839347157008871e-16  1.6775712979222807e-01  1.7769969287674983e-01  3.3651523022653429e-01  3.5359803982736704e-01  5.0444145928666029e-01  5.2760029629702820e-01  6.7075101046296703e-01  6.9799946906003341e-01  8.3506169340979941e-01  8.6068013621451367e-01  1.0000000000000207e+00  1.0000000000000209e+00  0.0000000000000000e+00  -2.1175782989241250e-16  -2.1046948032023073e-16  1.7362127887207310e-01  1.7577913985851829e-01  1.7905651270363948e-01  3.4484894959022550e-01  3.4900256207003505e-01  3.5564646741188427e-01  5.1383796449279862e-01  5.1857553930996148e-01  5.2958792615488259e-01  6.7972004433313693e-01  6.8376796744057033e-01  6.9884844561826098e-01  8.4160992591408490e-01  8.4390216114144978e-01  8.6021968190496090e-01  1.0000000000000207e+00  1.0000000000000207e+00  1.0000000000000209e+00  -3.8502938670660462e-15  1.7862736490014366e-01  3.5266089069062884e-01  5.2134741128549389e-01  6.8491571989294431e-01  8.4399457186377969e-01  1.0000000000000169e+00  -4.9574099409262689e-15  1.8571052165577659e-01  6.9419868483066682e-01  8.5063306774374525e-01  1.0000000000000158e+00  -8.4358579095869865e-16  1.7911925358727310e-01  3.4994863273479493e-01  5.1708377074835543e-01  6.8144976150625558e-01  8.4324130489130145e-01  1.0000000000000200e+00  -3.7695798981716563e-15  1.6896902455103416e-01  3.3688036612157191e-01  5.0359284703759433e-01  6.6924500151565947e-01  8.3424619507371300e-01  1.0000000000000171e+00  -6.4076511348473985e-16  1.8120314419976877e-01  0.0000000000000000e+00  1.8261335046188887e-01  3.6248298106855897e-01  5.3748978163538708e-01  7.0589269764713891e-01  8.6418977654599682e-01  1.0000000000000209e+00  3.5327257701314724e-01  5.2204043804753419e-01  6.8622752388207509e-01  8.4588271140511928e-01  1.0000000000000204e+00  1.8316076511933888e-01  1.8713288693280289e-01  1.7315613194592930e-01  0.0000000000000000e+00  3.6212463134226219e-01  3.6805678572125777e-01  3.4551660441130755e-01  5.4336773346701139e-01  5.3663476565566748e-01  5.1487615728540681e-01  7.0497835583034807e-01  8.6406787550986153e-01  1.0000000000000209e+00  -6.8892235175810090e-16  -8.8057496868529775e-16  1.7901681840757744e-01  1.8171506401162918e-01  3.5267420484050349e-01  3.5489843879762967e-01  -2.7511001924503472e-15  1.9339608158807481e-01  3.7500345592262579e-01  5.4564453136608948e-01  7.0629852625302691e-01  8.5761659781135557e-01  1.0000000000000180e+00  0.0000000000000000e+00  1.7831229023951381e-01  3.5526679307789616e-01  5.2944888886083030e-01  6.9917279634962393e-01  8.6096144546932440e-01  1.0000000000000209e+00  -2.8593742270323248e-15  1.8861362780776100e-01  3.6620087977625881e-01  5.3581765445264573e-01  6.9826621695563817e-01  8.5357707030486507e-01  1.0000000000000180e+00  0.0000000000000000e+00  1.8036400552957135e-01  3.5987430532377701e-01  5.3503555537178649e-01  7.0412363819723356e-01  8.6335059250370894e-01  1.0000000000000209e+00  -2.0936104335845986e-16  -4.4009940125573749e-16  1.7196183314679545e-01  1.6919524831755767e-01  3.3865902573239748e-01  3.4102895138021866e-01  5.0721091800356044e-01  5.0835727502245365e-01  6.7386106920225020e-01  6.7405279032619381e-01  8.3768154568244102e-01  8.3820482310038935e-01  1.0000000000000207e+00  1.0000000000000204e+00  1.0000000000000158e+00  0.0000000000000000e+00  -2.0766440426016197e-16  1.7276022190991616e-01  1.8694116882172868e-01  3.4502080343371366e-01  3.6661620192246103e-01  5.1441808706924574e-01  5.4141303763301130e-01  6.7994413917047913e-01  7.0997174151496656e-01  8.4118959422824890e-01  8.6818499126285575e-01  1.0000000000000207e+00  1.0000000000000209e+00  0.0000000000000000e+00  1.7534720485916303e-01  3.5058974221162587e-01  5.2435677910397704e-01  6.9476251333029981e-01  8.5799705107638380e-01  1.0000000000000209e+00  -2.8483332419003711e-15  1.6575952007326927e-01  3.3270287881328570e-01  4.9901068391512560e-01  6.6477621917987995e-01  8.3077597344506215e-01  1.0000000000000180e+00  -4.2417626834909123e-16  1.7311404168388872e-01  3.4376431599607649e-01  5.1168511643418979e-01  6.7664289003356348e-01  8.3895815714503308e-01  1.0000000000000204e+00  1.0000000000000160e+00  6.6850924525353084e-01  1.0000000000000160e+00  1.0000000000000160e+00  -6.4524190088326296e-16  -6.8150931255040430e-16  1.6961700461609056e-01  1.7149920365629420e-01  3.3750004057332744e-01  3.4143131748192140e-01  5.0416100294350896e-01  5.0890622148582809e-01  6.6974850534996666e-01  6.7400344398601997e-01  8.3471619076833559e-01  8.3720386397269653e-01  1.0000000000000202e+00  1.0000000000000202e+00  -4.1844678705038923e-16  1.6746923904611616e-01  3.3397065638111106e-01  5.0024084419174997e-01  6.6628179227497386e-01  8.3251812625307808e-01  1.0000000000000204e+00  -1.0639607568395052e-15  1.7887683985779371e-01  3.5037198287872667e-01  5.1788279811647964e-01  6.8224674595411228e-01  8.4363317474316168e-01  1.0000000000000198e+00  -2.2916601436994198e-16  -2.0075520908707633e-16  1.7489843590862955e-01  3.4666247687302254e-01  5.1543648079522786e-01  6.8065932877500712e-01  8.4186013412046112e-01  1.0000000000000207e+00  -3.5868082529515759e-15  1.6612249678362662e-01  3.3283253834462007e-01  4.9910548096675827e-01  6.6502955707278422e-01  8.3125638181548234e-01  1.0000000000000173e+00  0.0000000000000000e+00  1.7273300541969117e-01  3.4732790626960763e-01  5.2097417775341981e-01  6.9181899313902950e-01  8.5626508472984020e-01  1.0000000000000209e+00  -2.0637792773507975e-16  1.6748702124384685e-01  3.3598340625746531e-01  5.0415318720332614e-01  6.7095241978176035e-01  8.3570826546491361e-01  1.0000000000000207e+00  -4.8273969314844627e-15  1.8257218477813542e-01  3.5823