<?xml version="1.0"?>
<VTKFile type="UnstructuredGrid"  version="0.1"  >
<UnstructuredGrid>
<Piece  NumberOfPoints="2269" NumberOfCells="10388">
<Points>
<DataArray  type="Float64"  NumberOfComponents="3"  format="ascii">10.89120664377067 4.113844853993423 0.9923997686974888  10.83845635050178 4.008594166425236 0.9226943936388814  10.77217775176884 4.138345705857528 1.018016856440448  10.76454197213542 4.189073856773939 0.9584616360840722  10.83303960429854 4.049856156087908 0.8552060096616328  10.88265015856132 4.162002603761521 0.9285440981659938  10.75728687263333 4.239697259625288 0.8992439783850347  10.82796489394984 4.091110124504421 0.7880594416845789  10.87451462896663 4.210035839606575 0.8650987932544891  10.75031672766627 4.290121856844523 0.8403215102117338  10.82316189180318 4.132228712982715 0.7212736971349542  10.86667326837487 4.257844462271557 0.8020074874004868  10.7435116626241 4.340290995770124 0.7817006090095578  10.81845662736617 4.173158909723794 0.6548114739225905  10.85897885375239 4.305326735838661 0.7392715409271126  10.73667892496839 4.390190692406029 0.723426970722528  10.81376986975677 4.213961249338126 0.5887133585205394  10.85130076874424 4.352547234629028 0.6769220289782582  10.72941745948475 4.439670574299743 0.6654833615019531  10.80878383757522 4.254413224076732 0.5230271564568912  10.84330174393554 4.399315306573809 0.6149813071581555  10.11508387863723 4.590115813479801 2.334385059974007  10.17546535832004 4.584356688105304 2.431986848531248  10.10558733471603 4.54399922261197 2.472317325697901  10.19493216806104 4.531712953119619 2.417404646583659  10.08667228633378 4.595761974287822 2.488007199088726  10.09519517157963 4.643370066563987 2.347995268948226  10.15572468999148 4.636638942253356 2.446528384572166  10.71151990722335 4.043168749830587 0.9568038549299135  10.70485065318515 4.087477987637863 0.8935187551706726  10.69856243607851 4.131789383440235 0.830539691038461  10.69249085665298 4.175983498573603 0.767869501217339  10.68652832565394 4.22007898589764 0.7054765933464763  10.68049746354168 4.264032223140249 0.6433484553912823  10.67404998811983 4.307649294158229 0.5813909103865424  10.84916142554143 4.422053292325817 1.402302267709014  10.75447552904147 4.396100788972966 1.373131182817375  10.79872559919848 4.441298505133911 1.491013114851897  10.7894549427823 4.513589294552555 1.469669276688572  10.7439161592801 4.465369403680489 1.342800515687846  10.83979349678078 4.494622045867589 1.375745657231893  10.83084428228455 4.566662670599815 1.349390544683882  10.7338542523298 4.534195308973715 1.31269414520654  10.78056066689236 4.585255019718652 1.448550231672677  10.82216070114378 4.63810770041579 1.323177686052635  10.72409688457415 4.60252986420167 1.282725547618957  10.77190692074237 4.656373846416198 1.427571961179853  10.81361830126413 4.708959023449986 1.296987612430951  10.71450895152331 4.670348072871075 1.252800600829284  10.76341063273724 4.726935440462664 1.406613093010523  10.80500849755812 4.779186350863694 1.270800392621534  10.70482010787026 4.737612858432707 1.222906604294286  10.75482200784246 4.796916987582335 1.38561025956432  10.79587943177943 4.848743945994398 1.24467920315663  10.694688007029 4.804301513215048 1.193152904106514  10.74578703424209 4.866215293373743 1.364580607743804  11.47791584296261 4.003118700952301 0.8740228665872284  11.3722953398243 3.978465775270532 0.8699036629768907  11.37904136788859 4.10683860381133 0.9334117247911181  11.37528628875238 4.1526720132861 0.8511586933871362  11.36953123108349 4.011491726594715 0.7837764445868729  11.47260903825902 4.037897842418194 0.7845558416407734  11.46754606756564 4.071995802329653 0.6960328619634885  11.36708257804611 4.044201341101598 0.6984494249086883  11.37174001515175 4.197874731306763 0.7700998364433718  11.4628375154502 4.105473724357366 0.6086859963547535  11.36509354808274 4.076569994247358 0.6140126828547827  11.36854393281642 4.242507034008684 0.6900559006578212  11.45859200985625 4.138690408075821 0.5225211164339574  11.36357280856607 4.10878997325571 0.5305882183890522  11.36574338920296 4.286447716274522 0.6108390209834644  11.36254128186764 4.140948430538304 0.4481108490533293  11.45465764620497 4.171647837808933 0.4374537392430664  11.36343355645199 4.329796211915153 0.5324200805450588  11.36221968321029 4.172896939013537 0.3665379490851193  11.45170814456725 4.204446461136603 0.3533284276933442  11.36174406169745 4.372577176800116 0.4551297104024916  11.1739757583279 4.086802749370673 0.9249134099423838  11.05667738104307 4.058779302425082 0.923279602259885  11.05364143595518 4.173479822643415 1.01310531172084  11.04413388008827 4.226427580768625 0.9478924742150583  11.04822122569639 4.101530002990765 0.8512347724112865  11.16634063633356 4.131224115309663 0.8498921153366548  11.0351199501697 4.279049642606948 0.8832472981298574  11.04026160885514 4.144142461585882 0.7797091384021069  11.1591503828668 4.175378608405638 0.7755265095447773  11.02652093822623 4.331180811166938 0.8190931040913649  11.03258871771954 4.186447410883351 0.7086803100913401  11.15223311926288 4.219102845119864 0.7017749618710556  11.01807722308651 4.382829123241505 0.7553414493087025  11.02498924749939 4.228381641714325 0.6381342031761941  11.14543508448536 4.262375638668021 0.628586884482994  11.00969515330966 4.433998866334234 0.6919968842291558  11.01742817560256 4.269966029996302 0.5680832384103125  11.13873585867922 4.305150927533568 0.5560048097265864  11.00111550818995 4.484745315185254 0.6291329230852437  11.00979786067929 4.311194766490378 0.4985646163938792  11.13208753746154 4.347487935066356 0.4841472698035937  10.74876089847245 3.94915651307609 0.8939474617986947  10.6324966731378 3.930011763891823 0.8942396114288712  10.62747009302633 3.96653613917826 0.827265241402291  10.74399711111163 3.986427799953603 0.8257835018532294  10.73958654535454 4.02373817712426 0.7579743710025364  10.62280603142874 4.00314671426714 0.7606084943824587  10.73536947491991 4.06099700817744 0.6904485074505515  10.61832417773047 4.039764459200968 0.6941721061191282  10.73125500443526 4.098234041736821 0.6232035552460737  10.61395556840671 4.076437459029695 0.6279562427818498  10.72706877938715 4.135377023194204 0.5562471230567434  10.609464986437 4.112987534246306 0.5619235696292592  10.72244583577395 4.172178013834615 0.4895458253199138  10.60460800424038 4.14921553020435 0.4960554435512169  10.69079942131187 4.433773957274989 1.507042218396244  10.68139360864624 4.504132720688013 1.486242335385288  10.67231745376 4.574006876367472 1.46566435854913  10.66355062373286 4.643379184194904 1.445187757534025  10.6549676191103 4.71226990051396 1.424709991271189  10.6462760249336 4.780651986576729 1.404197254999224  10.63711525780883 4.848499963037534 1.383680845771175  10.59813569376975 4.070543356058357 0.987078191790894  10.59071253183514 4.117362057732481 0.9272355138604951  10.58364472897117 4.164178031200425 0.867658467564883  10.57679874295857 4.210921561203298 0.8083058934916338  10.57007276118012 4.257616776870304 0.7491748403251995  10.56323817007321 4.30412068614754 0.690222523722747  10.55601829386584 4.350300107409869 0.6313874714536349  10.41339667894499 4.431220870996158 2.093513705097723  10.36495670393908 4.425425127587103 1.993461950860477  10.26073298611181 4.380728429977245 2.064421678572368  10.23979686676259 4.43903503721195 2.071864846042307  10.34705749708592 4.487142590942662 1.996740310769184  10.39582183856257 4.492067251135623 2.099335496691658  10.21947061734104 4.497240855458362 2.079223541283881  10.32969942676158 4.548623245526887 2.000028258580378  10.37874628179161 4.552639915478354 2.105136321733721  10.19947648977254 4.555282657821633 2.086516917548409  10.31267571463381 4.609812322880755 2.003308432064483  10.36199123822777 4.612922889918035 2.110914844111477  10.179605389013 4.61312772583329 2.093753589187566  10.29582226958392 4.670719068513698 2.006556101143644  10.34539036255364 4.672898162653038 2.116647992009308  10.15967922934923 4.670717881360609 2.10093031553219  10.27888892431617 4.731302086407481 2.009658436502262  10.32872020444279 4.73252915011342 2.122240502360932  10.13935733755861 4.727937678169457 2.108022612713676  10.26155116703805 4.791506455427248 2.012623877279582  10.31170353444002 4.791699986438841 2.127696891517671  10.62214627444999 4.455404472774101 1.631321088246295  10.61013734784674 4.470896558416358 1.761780843948682  10.70212773303592 4.47748911556711 1.710192781898632  10.69236862794999 4.547910585559328 1.699672708444127  10.59832488420312 4.539337146076259 1.754188255119081  10.61088288801217 4.524831603896759 1.617943214533159  10.68292649879121 4.617743282699881 1.689366217592252  10.58690743527792 4.607322644413246 1.746766347868286  10.6000153372627 4.593801637076085 1.604752178713387  10.67376976314571 4.687029620041078 1.679200438036222  10.57582033983722 4.674815444515141 1.739487663981489  10.58945171249323 4.662307229226211 1.591661904622325  10.66475465141673 4.755812029828625 1.669071322300533  10.56488730308672 4.741847346397121 1.73219695610588  10.57907927908873 4.730354795633717 1.578556107899102  10.65566996178218 4.824077014255533 1.65885547868511  10.55386343436328 4.808396647508595 1.724802836915744  10.56856937321119 4.797900267651783 1.565393502953429  10.64615025634687 4.89179185265024 1.6484544873782  10.5424234414015 4.874423663117083 1.717220785337598  10.55758554944624 4.864905106916687 1.552100743223195  10.36065330052441 4.40144556513866 2.188396514474979  10.33985681554614 4.458713811157328 2.199645600881365  10.3196682275378 4.515797342233432 2.210789761008439  10.29978491783939 4.572663280066175 2.221866634813583  10.28003044058384 4.629275080213525 2.232903384752183  10.26020063420587 4.685586879506096 2.243824058059623  10.2399825069185 4.741488760569752 2.254633412014173  10.28143002458531 4.402502068016292 1.918303482798483  10.26190489733716 4.464062001682903 1.919436504498096  10.24295155740762 4.5
[...]
<PointData  Scalars="f_14"> 
<DataArray  type="Float64"  Name="f_14"  format="ascii">-1.2523165542387094e-15  -1.3483395970644508e-15  -1.4557624284681159e-15  2.0940260903938146e-01  1.9756628857945843e-01  1.9167643945928350e-01  3.9304001164793217e-01  3.8028025379888714e-01  3.7492603822708109e-01  5.6272618651139750e-01  5.5017687228696721e-01  5.4551733621791565e-01  7.2091038225546811e-01  7.0900946878543569e-01  7.0451321077410956e-01  8.6864354170726688e-01  8.5822616428025289e-01  8.5385237877038633e-01  1.0000000000000193e+00  1.0000000000000195e+00  1.0000000000000195e+00  8.3600107543889535e-01  8.3845720611450159e-01  8.4326665101285991e-01  6.7704004703103560e-01  1.0000000000000182e+00  1.0000000000000182e+00  1.0000000000000184e+00  -1.5725787601310608e-15  1.9974210795234093e-01  3.8290103600761644e-01  5.5284760112549503e-01  7.1165999604553420e-01  8.6083359932168912e-01  1.0000000000000193e+00  -1.2910873993886138e-15  -1.4623614156603516e-15  -1.3761739686644606e-15  1.9384471244003179e-01  2.0579248329180816e-01  2.0612321988448046e-01  3.8985831292821499e-01  3.9020657988149615e-01  3.7598888783144563e-01  5.5994956832867582e-01  5.6034442811441010e-01  5.4613916701053211e-01  7.1848374911776247e-01  7.1842210587446098e-01  7.0570339527353942e-01  8.6649557426715573e-01  8.6536346688201959e-01  8.5616768057598913e-01  1.0000000000000195e+00  1.0000000000000193e+00  1.0000000000000195e+00  -3.2090748199187968e-16  -4.7612469302168148e-16  -4.6146709402967004e-16  2.1221323064014755e-01  2.1324425065760177e-01  2.2189326568808163e-01  4.1505138804832836e-01  4.0274634628870060e-01  4.0566243387133177e-01  5.8757806761853926e-01  5.7443676001869048e-01  5.7803599449894771e-01  7.4213458090427442e-01  7.3027247872534995e-01  7.3228919354036204e-01  8.7205415088324301e-01  8.8039564679518234e-01  8.7123386601966246e-01  1.0000000000000204e+00  1.0000000000000207e+00  1.0000000000000204e+00  -7.8321862217470846e-16  -9.7730877493097657e-16  -9.7655867907291220e-16  2.0137461989437022e-01  2.1534348578398035e-01  2.2458918905906392e-01  3.8877380509741233e-01  4.0213761376530688e-01  4.1433483577741792e-01  5.6005576330226670e-01  5.7273133001514298e-01  5.8498976165698469e-01  7.1736431383466848e-01  7.2972953247536754e-01  7.4021346779000508e-01  8.6262656073859745e-01  8.7348023086263749e-01  8.8044059213984838e-01  1.0000000000000200e+00  1.0000000000000200e+00  1.0000000000000200e+00  -1.5119637874742941e-15  -1.7267206838757301e-15  1.9950261606524158e-01  2.0192539141378599e-01  3.8449149168563534e-01  3.8278920280167045e-01  5.5426256757242531e-01  5.5282096391684032e-01  7.1319604489574417e-01  7.1157140889084280e-01  8.6255068554944403e-01  8.6020386637619262e-01  1.0000000000000193e+00  1.0000000000000191e+00  -1.5700979718549397e-15  2.0004515688848501e-01  3.8308473646848629e-01  5.5301087874542576e-01  7.1178871167313862e-01  8.6070379551451293e-01  1.0000000000000193e+00  -1.7797047714522685e-15  2.0797516810504754e-01  3.9207377134387716e-01  5.6191179528377444e-01  7.2008780666511385e-01  8.6744607926542860e-01  1.0000000000000191e+00  -2.1301641959478565e-15  -2.2235755419277100e-15  -2.4569655873896736e-15  1.8402213464220610e-01  1.9873938179941320e-01  1.9653903897521519e-01  3.6037269487481072e-01  3.7904410249251769e-01  3.7705865220293366e-01  5.2945059931141203e-01  5.4857554210710635e-01  5.4662654727715698e-01  6.9202526878947335e-01  7.0908616702913041e-01  7.0689618618976457e-01  8.4868435315203050e-01  8.6080507655592864e-01  8.5843878009874885e-01  1.0000000000000184e+00  1.0000000000000187e+00  1.0000000000000187e+00  -1.6971896337312469e-15  -1.7213392201047984e-15  -1.5468207479397699e-15  1.9014398380830086e-01  1.9402533630835578e-01  2.0193542631645456e-01  3.7028949643385684e-01  3.7467174777701912e-01  3.8443947237899845e-01  5.3987153220840212e-01  5.4435377481511016e-01  5.5428870549327525e-01  7.0013873501771318e-01  7.0456107094438447e-01  7.1355831946163772e-01  8.5249495222679694e-01  8.5632947274389359e-01  8.6298000730480784e-01  1.0000000000000193e+00  1.0000000000000191e+00  1.0000000000000191e+00  -2.2553228260681335e-15  1.9704842604022901e-01  3.7637933001491369e-01  5.4590016991941515e-01  7.0726883289784237e-01  8.6019602751267921e-01  1.0000000000000187e+00  -2.3953443673021194e-15  1.9730691353295043e-01  3.7675329529936585e-01  5.4617934553027625e-01  7.0728237165274976e-01  8.5988830933299709e-01  1.0000000000000184e+00  -6.0807482338687604e-16  2.2233615571210905e-01  4.1216206581076825e-01  5.8275062687139068e-01  7.3693191265330416e-01  8.7663966419120487e-01  1.0000000000000202e+00  -1.8853428961642627e-15  1.9737454577267863e-01  3.7900951407830524e-01  5.4897635612868612e-01  7.0882633989828125e-01  8.5949349266123820e-01  1.0000000000000189e+00  -1.9030972758389743e-15  2.0547525349200094e-01  3.8940467347282920e-01  5.5950323410665392e-01  7.1793204310258951e-01  8.6565148132495429e-01  1.0000000000000189e+00  -6.1545576002519219e-16  -7.9022804542674987e-16  2.0669456132613226e-01  2.2637384458207777e-01  3.9787637728267244e-01  4.1950503360286179e-01  5.7026046397184715e-01  5.9042561874829347e-01  7.4331770845544110e-01  7.2652327013972084e-01  8.8006781532616585e-01  8.6924616639877117e-01  1.0000000000000202e+00  1.0000000000000200e+00  -1.5244478454331282e-15  -1.8103447498521076e-15  -1.5891178332285100e-15  2.0762672881492117e-01  2.0144393222839979e-01  1.9345086387892205e-01  3.9159624594792120e-01  3.8453255471201769e-01  3.7669804775520976e-01  5.6153723580319892e-01  5.5447475250671008e-01  5.4705668323273005e-01  7.1972401936290842e-01  7.1323436405754348e-01  7.0597378648812159e-01  8.6715994234715055e-01  8.6197351876304606e-01  8.5553319792937832e-01  1.0000000000000193e+00  1.0000000000000191e+00  1.0000000000000193e+00  -1.5089060349306530e-15  -1.4990282865971725e-15  -1.7310257325524628e-15  1.9000316970516068e-01  1.9657521028936059e-01  1.8889720307071708e-01  3.6936471727882420e-01  3.7641726267733316e-01  3.6813836116660598e-01  5.3883135605980825e-01  5.4581218545384713e-01  5.3769473719464922e-01  6.9954805418488564e-01  7.0627371327528143e-01  6.9871131704678680e-01  8.5272056234540239e-01  8.5846827659019853e-01  8.5223023640870188e-01  1.0000000000000191e+00  1.0000000000000193e+00  1.0000000000000193e+00  -1.5360326957173784e-16  -3.2146432524609572e-16  2.0398517811855618e-01  2.2603239204661946e-01  3.9454474974001907e-01  4.2135393143818706e-01  5.6782760737583382e-01  5.9548970906836451e-01  7.2520060969926681e-01  7.5114995289554209e-01  8.6793228902882547e-01  8.8812053976636562e-01  1.0000000000000207e+00  1.0000000000000207e+00  -1.6622990587136286e-15  1.9889641174078612e-01  3.8249820596116302e-01  5.5258810120696777e-01  7.1122350051904881e-01  8.5983870099408655e-01  1.0000000000000191e+00  -1.1116918614397810e-15  2.0052824184507129e-01  3.8527560969473901e-01  5.5614955241800246e-01  7.1476085983730220e-01  8.6301813168919228e-01  1.0000000000000198e+00  -1.0174661172693803e-15  -1.1817526264394063e-15  -9.9694790320897823e-16  2.0234700138278308e-01  1.9554562850763041e-01  1.9918787793569204e-01  3.8690275232813337e-01  3.7854635636644035e-01  3.8246893615324057e-01  5.5758277021355462e-01  5.4889057325839674e-01  5.5277754285409686e-01  7.1608542189362745e-01  7.0812515310365898e-01  7.1173537901044981e-01  8.6374246400044397e-01  8.5800208074058926e-01  8.6072268564000998e-01  1.0000000000000198e+00  1.0000000000000198e+00  1.0000000000000198e+00  -1.2264921924429195e-15  1.9828853028258839e-01  3.8086949366430228e-01  5.5079394331485942e-01  7.0970220086652136e-01  8.5912459179545142e-01  1.0000000000000195e+00  -1.1440716910082141e-15  2.0816348753062056e-01  3.9337732501906952e-01  5.6390063246483413e-01  7.2176162572877522e-01  8.6853042867269004e-01  1.0000000000000198e+00  -3.1535996522849560e-16  -4.9107306688531579e-16  -4.7384880358714442e-16  2.0223421346680465e-01  2.0797492868160855e-01  2.0754016936462774e-01  3.8687144056830930e-01  3.9455851995851737e-01  3.9618864644002916e-01  5.5813283746190012e-01  5.6621356580007109e-01  5.6833633966933839e-01  7.1726186684505289e-01  7.2489297278059583e-01  7.2577920496762904e-01  8.6498644335515362e-01  8.7072797022354109e-01  8.6950639176964573e-01  1.0000000000000204e+00  1.0000000000000204e+00  1.0000000000000207e+00  -1.5884811996671180e-16  -3.1665648139976874e-16  2.0046316666582611e-01  2.1180989742536385e-01  4.0165045230630964e-01  3.8613969282091382e-01  5.7479473312302987e-01  5.5807125045575778e-01  7.3225321342429139e-01  7.1712996025951670e-01  8.7447534996488485e-01  8.6429326213746305e-01  1.0000000000000207e+00  1.0000000000000207e+00  -1.4659559153637207e-15  1.9666350610398109e-01  3.7765789509689440e-01  5.4726154976572638e-01  7.0708500644705186e-01  8.5829912348599702e-01  1.0000000000000193e+00  0.0000000000000000e+00  -1.5857161695918520e-16  -1.5822746554435098e-16  2.2730532956025226e-01  2.1428698245392341e-01  2.1800691076021722e-01  4.2230740629930552e-01  4.0689056521408856e-01  4.1661535516646048e-01  5.9640958303370761e-01  5.8068685131795894e-01  5.9467703963449403e-01  7.5170196226379882e-01  7.3710681272465828e-01  7.5331918883796456e-01  8.8778979644512890e-01  8.7682520085856930e-01  8.9139117987386685e-01  1.0000000000000207e+00  1.0000000000000207e+00  1.0000000000000209e+00  0.0000000000000000e+00  -1.4711150600244644e-16  -1.4766736710893204e-16  2.2393948074158790e-01  2.4653247640762951e-01  2.4522584832278649e-01  4.2143961411990444e-01  4.4785392602773172e-01  4.5121922190464053e-01  5.9607002699361056e-01  6.2178574367130246e-01  6.2856972275437406e-01  7.5037110559352327e-01  7.7205849369885560e-01  7.8110335238447881e-01  8.8537479310538059e-01  8.9955816699453173e-01  9.0879212276858257e-01  1.0000000000000207e+00  1.0000000000000207e+00  1.0000000000000209e+00  -1.5416025691047683e-16  2.3231095821659672e-01  4.3033983941446102e-01  6.0322045097341270e-01  7.5477629491873377e-01  8.8688396344365361e-01  1.0000000000000207e+00  -6.4570062816081981e-16  -4.8004087995654998e-16  1.9489603093343930e-01  1.9481346813558933e-01  3.7758828143869622e-01  3.7581326189147551e-01  5.4841228081938398e-01  5.4619964420984579e-01  7.0826837940289233e-01  7.0689005236374947e-01  8.5816808970461700e-01  8.5847637003894672e-01  1.0000000000000204e+00  1.0000000000000202e+00  -1.9488763981821814e-15  -2.0025220569544239e-15  -2.2274207679329597e-15  1.9740670368945801e-01  2.0309666751247166e-01  1.9919372408924266e-01  3.7802150202024060e-01  3.8590516620501181e-01  3.8166828340590964e-01  5.4768827934157349e-01  5.5582276153700372e-01  5.5177022725114977e-01  7.0792115935977129e-01  7.1499182207400447e-01  7.1126355321885837e-01  8.5920364123292459e-01  8.6417507147750161e-01  8.6096500350790295e-01  1.0000000000000187e+00  1.0000000000000189e+00  1.0000000000000189e+00  -2.0736376391556592e-15  -2.1572637962446253e-15  -1.9706294045067406e-15  1.9090097095783248e-01  1.9132525735422845e-01  2.0534065107767535e-01  3.7267723955811760e-01  3.7213516187754964e-01  3.8819849302505044e-01  5.4280315350855401e-01  5.4187201513485006e-01  5.5801509279706318e-01  7.0258128811252507e-01  7.0194676585347560e-01  7.1705951916030930e-01  8.5378335960052087e-01  8.5399962105922367e-01  8.6574801525003497e-01  1.0000000000000189e+00  1.0000000000000187e+00  1.0000000000000189e+00  -3.0482347274415073e-16  -3.1776222366559785e-16  2.0708312807896959e-01  2.0739508119238206e-01  3.9626277897653184e-01  3.9444888294505742e-01  5.6861594519677072e-01  5.6590764473236421e-01  7.2591651170430582e-01  7.2329155837223535e-01  8.6944174155640186e-01  8.6787385602571765e-01  1.0000000000000207e+00  1.0000000000000207e+00  -6.3317352506707699e-16  1.9070272268328009e-01  3.7263918120850215e-01  5.4365112010239813e-01  7.0455958709064337e-01  8.5619679037000573e-01  1.0000000000000202e+00  0.0000000000000000e+00  -1.8953396558321574e-16  2.0627970079575061e-01  2.1880189755203383e-01  3.9641043507078744e-01  4.1430698334346361e-01  5.7055435546804734e-01  5.9140618706643022e-01  7.2943206454453147e-01  7.5080735566613166e-01  8.7292638319716209e-01  8.9036120938557628e-01  1.0000000000000207e+00  1.0000000000000209e+00  -8.3319574506324080e-16  -1.0052270274013878e-15  2.1831804226337287e-01  2.1939284157099159e-01  4.0634987508094117e-01  4.1042436629781209e-01  5.7689413276430990e-01  5.8170430538713935e-01  7.3272085942684972e-01  7.3659638937268279e-01  8.7507498205473344e-01  8.7661672009671709e-01  1.0000000000000200e+00  1.0000000000000200e+00  0.0000000000000000e+00  2.5065152375076133e-01  4.5173783401633277e-01  6.2589538054916816e-01  7.7725097435983281e-01  9.0569511139970627e-01  1.0000000000000209e+00  -2.0922124752917244e-15  1.9197487244057479e-01  3.7277301389746670e-01  5.4267456478697662e-01  7.0296595253826988e-01  8.5482357714875934e-01  1.0000000000000187e+00  -2.2081892513065621e-15  1.9120496623715971e-01  3.7138169257252523e-01  5.4097755804262060e-01  7.0127065895586627e-01  8.5357190389207904e-01  1.0000000000000187e+00  -4.6523415136363592e-16  2.2255727280213483e-01  4.1836872863285701e-01  5.9022593162902992e-01  7.4247894915867074e-01  8.7818451298330080e-01  1.0000000000000204e+00  -1.6381203816387045e-16  -3.3474724022273080e-16  -3.3695708383484888e-16  1.8184436917670516e-01  1.8170303859713155e-01  1.8077475707423704e-01  3.5883086116608048e-01  3.5643130054841038e-01  3.5786843731795881e-01  5.2875578810608492e-01  5.2551982876433001e-01  5.2956440517218406e-01  6.9134699622411400e-01  6.8874509824637364e-01  6.9461204367282103e-01  8.4677417395112409e-01  8.4634795231262194e-01  8.5171198921629165e-01  1.0000000000000207e+00  -6.4565553947620774e-16  1.9483206367743425e-01  3.7569030002190801e-01  5.4585286732405514e-01  7.0648306072660383e-01  8.5821511030949049e-01  1.0000000000000202e+00  -1.8875175721926381e-15  -2.0295960163065647e-15  1.9992942327220686e-01  2.0170096685378086e-01  3.8345489880383204e-01  3.8513423286088866e-01  5.5366368701092772e-01  5.5516670754963993e-01  7.1261033652005290e-01  7.1389542861491917e-01  8.6135657614075734e-01  8.6253792174774935e-01  1.0000000000000189e+00  1.0000000000000189e+00  -1.9660208293488570e-15  1.9809096898731068e-01  3.7907234698932096e-01  5.4879683969490300e-01  7.0898190279658746e-01  8.6019813976794490e-01  1.0000000000000189e+00  0.0000000000000000e+00  -1.5848873090271737e-16  2.0213326070853224e-01  2.1726324628626387e-01  3.9000684997434659e-01  4.1220345179720352e-01  5.6312779818270875e-01  5.8889739354400428e-01  7.2200896880050336e-01  7.4780510803693800e-01  8.6715047584748550e-01  8.8794898596086536e-01  1.0000000000000207e+00  1.0000000000000209e+00  -1.9549619626400115e-15  -2.1693774307310392e-15  1.9343526892800669e-01  1.9098066645271011e-01  3.7070442218868538e-01  3.7350086698537044e-01  5.4027484580030771e-01  5.4299979548555410e-01  7.0086799108848763e-01  7.0333380646960919e-01  8.5367883108551879e-01  8.5541062693004599e-01  1.0000000000000189e+00  1.0000000000000187e+00  -1.7787621466182954e-15  -1.6912718417675675e-15  -1.9056537428693378e-15  1.9507016795063339e-01  1.9778256707676414e-01  1.9686528446310467e-01  3.7715031371859764e-01  3.8054217542941565e-01  3.7877060278961089e-01  5.4744854843809210e-01  5.5086883595475067e-01  5.4889551365454725e-01  7.0699640671413011e-01  7.1027672070530978e-01  7.0840953754579417e-01  8.5731603471660733e-01  8.5992935149343241e-01  8.5889925019990576e-01  1.0000000000000189e+00  1.0000000000000191e+00  1.0000000000000191e+00  -1.7915839966015650e-15  -1.8627922362662961e-15  2.0512075620540002e-01  2.0280669762441567e-01  3.8851521676188316e-01  3.8649289882209636e-01  5.5848723577418569e-01  5.5666960402847343e-01  7.1716097423295844e-01  7.1533762190732286e-01  8.6547650944594967e-01  8.6345181592745068e-01  1.0000000000000189e+00  1.0000000000000191e+00  -5.1182904708515861e-16  1.9160692502487475e-01  3.6848664367855544e-01  5.3753041857138606e-01  6.9967764327844895e-01  8.5546241642447052e-01  0.0000000000000000e+00  -1.6725748514243509e-16  -1.6114145722530702e-16  2.0065902787632969e-01  1.9510932169520656e-01  2.0692258698465876e-01  3.8751415504119996e-01  3.7867268449980868e-01  3.9860498613812639e-01  5.6146434460336936e-01  5.5195269779384459e-01  5.7593057059731190e-01  7.2211109179469268e-01  7.1453945541654273e-01  7.3861629820645858e-01  8.6889290386086093e-01  8.6519349037629756e-01  8.8423089403776700e-01  1.0000000000000207e+00  1.0000000000000207e+00  1.0000000000000209e+00  -3.2225985115587121e-16  -4.6556116884360505e-16  -4.7905058480727305e-16  1.9783977986056944e-01  1.9915518611661839e-01  2.0111866823810526e-01  3.8143419723670546e-01  3.8353252048933101e-01  3.8702087372473182e-01  5.5236602608791852e-01  5.5473051166484655e-01  5.5859884045542663e-01  7.1173133165388924e-01  7.1377120765090429e-01  7.1674919307925267e-01  8.6074895032065557e-01  8.6200869139975100e-01  8.6300054382473934e-01  1.0000000000000204e+00  1.0000000000000204e+00  1.0000000000000207e+00  -2.2745934410405445e-15  2.0215002486680025e-01  3.8346190537443853e-01  5.5302678220023316e-01  7.1264702930727719e-01  8.6276724039071628e-01  1.0000000000000187e+00  -2.6008598777196235e-16  -3.0125193376512854e-16  2.3652927889258890e-01  2.3527587347271722e-01  4.3362144135053082e-01  4.3564639465360133e-01  6.0607438599327101e-01  6.0873594963266953e-01  7.5757076809492596e-01  7.5874167365491507e-01  8.8965747891372637e-01  8.8843345381081318e-01  1.0000000000000207e+00  1.0000000000000207e+00  -1.1577683965722315e-15  2.0422331053691575e-01  3.8814985495540816e-01  5.5864723050405551e-01  7.1746833721242076e-01  8.6573347360692088e-01  1.0000000000000198e+00  0.0000000000000000e+00  2.2552309147278587e-01  4.2532388626749495e-01  6.0257687829879003e-01  7.6038557148523500e-01  8.9737399479220714e-01  1.0000000000000209e+00  -2.0826918104889253e-15  2.0727577721192836e-01  3.9185274897749778e-01  5.6212152690878892e-01  7.2040776182147237e-01  8.6737308608650765e-01  1.0000000000000187e+00  0.0000000000000000e+00  -1.6904153660366331e-16  2.0938453778753391e-01  2.1826278393609139e-01  4.0197891002486358e-01  4.1621046588117594e-01  5.7609867828331929e-01  5.9355624444851807e-01  7.3271220096392486e-01  7.5090503342765702e-01  8.7318254845175336e-01  8.8822587012706200e-01  1.0000000000000207e+00  1.0000000000000209e+00  2.0218182799894924e-01  2.0682861095442856e-01  1.9965101330010612e-01  0.0000000000000000e+00  -1.5721964277393617e-16  3.8626418474216329e-01  3.8869928516392582e-01  -1.0402024084909227e-15  -1.2318895049943877e-15  -1.0938662511745709e-15  2.0259176236942614e-01  1.9596905067620318e-01  1.9742172997861693e-01  3.8572069767460571e-01  3.7915472439324904e-01  3.7951458252880010e-01  5.5559118193355628e-01  5.4937163861583538e-01  5.4941122073760362e-01  7.1434615147958880e-01  7.0835275108062312e-01  7.0883669398908700e-01  8.6307758670393653e-01  8.5768895560306857e-01  8.5917377099373793e-01  1.0000000000000198e+00  1.0000000000000195e+00  1.0000000000000198e+00  -4.6898672972815967e-16  2.0128035436363403e-01  3.8578390932472262e-01  5.5680283577799916e-01  7.1581886610720069e-01  8.6390659009023985e-01  1.0000000000000204e+00  1.9609880243680694e-01  1.9820259352292052e-01  -3.2746354052657664e-16  3.8192477310259104e-01  3.7954679059553409e-01  5.5320241225639255e-01  5.5075258262005522e-01  5.6171864885182188e-01  7.1270560760517754e-01  7.1047684033668979e-01  7.2132044445786148e-01  8.6132684404823612e-01  8.5983637076829045e-01  8.6757196267263115e-01  0.0000000000000000e+00  -1.5603154997353767e-16  2.0102421603953313e-01  2.1033949727412712e-01  3.8767687298125109e-01  4.0205304626865046e-01  5.6056913416279031e-01  5.7849767844703581e-01  7.1992921796713238e-01  7.3918633003016643e-01  8.6613360660278238e-01  8.8271304121138572e-01  1.0000000000000207e+00  1.0000000000000209e+00  0.0000000000000000e+00  2.2335965122447665e-01  4.239517