<?xml version="1.0"?>
<VTKFile type="UnstructuredGrid"  version="0.1"  >
<UnstructuredGrid>
<Piece  NumberOfPoints="2257" NumberOfCells="10262">
<Points>
<DataArray  type="Float64"  NumberOfComponents="3"  format="ascii">4.902612084868541 1.468473936384188 3.42062816584029  4.987450543129818 1.528213147709057 3.512544599353532  4.846791063340706 1.531330489665432 3.547134383861237  4.853068316176036 1.47563817048588 3.578937226236635  4.993283683593704 1.472548114457358 3.543505878340805  4.909063684707703 1.414478745310096 3.450508335155616  4.9155248118881 1.36050659706965 3.480374428385462  4.999102514985604 1.416913238540713 3.574449787616349  4.859351300090709 1.41999648301774 3.610721664877022  4.865643574429752 1.36437997671261 3.642495312665719  5.004916998585844 1.361313525184234 3.605371618035668  4.92199292505489 1.306574654451077 3.510216162906475  4.928468762876191 1.252663187744085 3.540027856680713  5.010738345879608 1.305735503617145 3.636259630882622  4.87194410777092 1.308806467172365 3.674225849076081  4.878260012216465 1.253240376118202 3.705899304212136  5.016578052654402 1.250175827139156 3.667090599737562  4.934953891227254 1.198770498909557 3.569787968003235  4.884598880223742 1.19768853631513 3.737484226492301  5.022450006436156 1.194630608855595 3.697844959501749  4.941457475053717 1.144889421628005 3.599476817362736  3.309510379629804 0.8863836409368193 2.616154815527406  3.444182813441553 0.9209586002677446 2.667203884134563  3.328980118271651 0.9521439490552337 2.762453947971372  3.332655598933088 0.8967213002316559 2.78851043660581  3.448401826589566 0.8642325253604897 2.690585360521831  3.31579258608076 0.8280953931305725 2.639930694748617  3.336298194938632 0.8413373348870876 2.81455400698196  3.452574480522336 0.80754298103268 2.713933865372631  3.322102618770432 0.7698559053450988 2.663701515376427  3.339910520426894 0.7859891466894402 2.840585789008104  3.456712043473359 0.750882338130715 2.737273256320213  3.328411795279227 0.7116554172552569 2.687465679565256  3.343493472723937 0.7306761786724061 2.866610772541831  3.46082049465365 0.6942531242978898 2.760607165345694  3.334688177644538 0.6534862464869524 2.711227281879887  3.347039831482192 0.6754069919168225 2.892629007199851  3.464900777326104 0.637659013888338 2.783938243179442  3.340883402761118 0.5953598670357796 2.734980830220038  3.350535924438287 0.6201925860512225 2.918629191040643  3.468950506189825 0.581140988175765 2.807258238499981  3.346915821363121 0.5372907205274948 2.758713401790215  3.790219885451639 1.336987898097291 3.409944751710889  3.919899257800957 1.349659894350455 3.420916386102715  3.874057161004134 1.411371160092791 3.518156173859071  3.875998036616972 1.361000199574543 3.552930510333322  3.922713465846265 1.299230689599719 3.453119511558561  3.79201321421362 1.286870255184708 3.44234002974537  3.877901534226098 1.310689219733414 3.587771703740649  3.925495974893083 1.24883784376596 3.485378563266717  3.793760672484226 1.236790923932431 3.474781388961499  3.879796329050111 1.260415705894742 3.622626312682258  3.928267896252681 1.19846654568978 3.517650891650174  3.795491872946577 1.186737158822734 3.507233066220269  3.881703040326817 1.210155404570535 3.657452055654238  3.931048340747762 1.148100048950528 3.549901483456352  3.797229054224419 1.13669239840557 3.539662364013837  3.8836408452702 1.159881776415965 3.692207393308089  3.933856985139269 1.097717296912597 3.582096401313585  3.798994120667595 1.086637236866642 3.572036948811886  3.885633140977914 1.109560727568339 3.726849718777613  3.936714469568598 1.047289691777819 3.614200487820281  3.800819635150476 1.036548837660143 3.604322347336137  4.680102075918017 1.051658348921923 2.71859553639236  4.802975734908745 1.08318651267892 2.754090686589028  4.738830191058629 1.124524099431383 2.862993432204408  4.746618232273208 1.073084713777428 2.890257275480963  4.809932958583091 1.029119358074707 2.777671553987671  4.687782692303051 0.9973572700489221 2.741051065854985  4.754476736095483 1.02168411383308 2.917544750416081  4.816915723050887 0.975070367368573 2.801273868867032  4.695535053308907 0.9430599691986752 2.763509227925448  4.762363583659877 0.9703050156166292 2.944825035751215  4.823911546276761 0.9210303555616628 2.82487594553066  4.703312495378058 0.8887648500417146 2.785964952482801  4.770251871723918 0.9189382919576861 2.972087006599022  4.830914772240143 0.8669951873710252 2.848470950943216  4.711095366839688 0.8344714265006634 2.808416188063085  4.778119940973102 0.8675761143008115 2.999323010154519  4.837928529660554 0.812963948594897 2.872056121445372  4.718864163875057 0.7801783953805086 2.830865595138155  4.785942263038891 0.8161982332003074 3.026530579640188  4.844962880415538 0.758942180829133 2.895621517956604  4.726585473682266 0.7258866725085849 2.853316758148127  3.189058439783921 0.8830925862354735 1.793900082481117  3.3142606313554 0.9372679605161209 1.767013047520003  3.33708198609435 0.8598671919176238 1.897419515054894  3.353860630786617 0.8000490214087879 1.868215688893548  3.326886269243581 0.8835241291884051 1.7273265249627  3.203154926007446 0.8275849301783598 1.752991397171334  3.217541030389753 0.7721337900158458 1.712153367742454  3.339741600199311 0.8299059078524669 1.68768981165186  3.370951653578412 0.7403721863140303 1.83905567629484  3.232006376825464 0.7167242886949898 1.67134206415306  3.352671766728385 0.7763625463078168 1.648084726849494  3.388131965719963 0.6807754363381339 1.809919375971748  3.246419382819593 0.6613442062635939 1.630531488738448  3.365560182820665 0.7228662505158847 1.608494684022497  3.405253650228363 0.6212201302551221 1.780799516093984  3.260657618847829 0.6059732275590226 1.589689605192857  3.378282880652548 0.6693874986227786 1.568900971892679  3.422161950442563 0.5616695285801988 1.751682329920147  3.274556187272446 0.5505614288421506 1.548738680831721  3.390658360093542 0.61588178263312 1.529290622839794  3.438638103037019 0.5020311716079512 1.722527115540903  3.183855021982071 0.9266916966011867 2.728975185596856  3.239595916759268 1.002106012142572 2.869780049231171  3.242634703182631 0.9484002630190136 2.898292522677149  3.189386137089473 0.8706620167084802 2.757012037780792  3.194936373316584 0.8146721391562888 2.785039328749702  3.24564902943293 0.8947284430644704 2.926789281089172  3.200478556964971 0.7587125935941077 2.813056172949324  3.248639770488599 0.841084093036562 2.95527783227224  3.205991414791407 0.7027836448635859 2.841069620471582  3.251601300209731 0.787467057677252 2.983757847202368  3.211446475162366 0.6468850656667584 2.869092265828673  3.254523002651907 0.7338816496550165 3.012227239516346  3.21676944213806 0.5910254165233325 2.897124200530571  3.257389477376745 0.6803333898725057 3.040686775433139  3.924235845684834 1.054631281481423 2.896407026829799  4.042648438318679 1.018677187878864 2.80291522239478  4.029734928942861 1.086480894916666 2.944184107613537  4.033581811572337 1.035450523225623 2.970238407666375  4.047032421962647 0.9656749557324483 2.826341469258864  3.927785224865167 1.003016755565553 2.922148426255673  4.051363953183974 0.9126517322100309 2.849739858872248  3.931274572950194 0.9513885441188332 2.947865002805727  4.037379158528795 0.9844007145567089 2.996288118415261  3.934733035938298 0.8997583137470264 2.973563971174869  4.055670271107773 0.8596259161615664 2.873116196267135  4.041152961911114 0.9333442221346975 3.022328649986522  3.938187963156937 0.8481354506971741 2.999251581215874  4.059975242076549 0.8066091746322046 2.896482761900796  4.044926575598378 0.8822876213032286 3.048360405467668  3.941666559112415 0.7965275955183193 3.024937364180309  4.064300864416618 0.7536103722465325 2.919855050203848  4.048724443084279 0.8312334234966833 3.074387343770027  3.945198747483074 0.744940545759847 3.050637823756019  4.068665734873053 0.700631522291109 2.943250376855835  4.052569985463395 0.7801836234384977 3.100417422232893  3.212966949383933 0.8127546833757252 1.911102955931437  3.228864998101136 0.7496922443503884 1.882390415911973  3.245040954781259 0.6867119188633278 1.853697771317747  3.261254768339405 0.6237825431686096 1.825021772900609  3.277385975601128 0.5608715509762954 1.796352527272187  3.293330918047999 0.4979406489773587 1.767665040526241  3.309018620986266 0.4349023566297197 1.738897439696976  3.917567988818408 0.9895243592666594 2.76171074308338  3.922087497822786 0.9358718841143401 2.785146459244783  3.92654870632354 0.882200515798256 2.808540423514554  3.93097958570269 0.8285328957924153 2.831906957783342  3.935404964659423 0.7748816737466495 2.855261291474537  3.939847456323109 0.7212572559917418 2.878621369185009  3.944327511688839 0.6676594158387426 2.90201591724711  4.358478989280089 1.037284436718629 2.781353379484818  4.45230853778671 1.012400541590513 2.694290892315442  4.482284864998666 1.061905086215139 2.803104333200595  4.488601521213908 1.009480065210504 2.827862910145921  4.458541324074151 0.9568999751694327 2.713115379807013  4.363993185928181 0.9838375751784043 2.80413536624355  4.494947324322871 0.9570407877874865 2.852621502195785  4.464766785520603 0.9013826952036632 2.731914799427259  4.369487779399154 0.930373341240925 2.826899694305932  4.501308089077008 0.9045966431727638 2.877373319137379  4.470992650372068 0.8458677293861886 2.750704190563797  4.37497844968242 0.8769042331264161 2.849654950570768  4.477227408071798 0.7903615550608907 2.769487046624896  4.380477006225024 0.823438096001991 2.872403257802603  4.507673869629074 0.8521489698351448 2.902119536735071  4.483481045986071 0.7348668028986112 2.788268568055393  4.38599852936984 0.7699798820078559 2.895151403162465  4.514035553789819 0.7996978418786478 2.926865924930304  4.489751262828892 0.6793824297213956 2.807063911788437  4.391553746001064 0.716532185809617 2.917909467565603  4.520400245184372 0.7472433179061417 2.951627041262305  3.950633343717449 1.474859847639299 3.602635626482695  4.107144884559957 1.473512502739929 3.5888235
[...]
<PointData  Scalars="f_14"> 
<DataArray  type="Float64"  Name="f_14"  format="ascii">-1.2749806902886236e-14  -1.2595662758575213e-14  -1.2816063156744338e-14  1.7197111869478010e-01  1.6883604290107587e-01  1.6473982672848783e-01  3.3068201046167633e-01  3.3705155774763063e-01  3.4136446333014503e-01  5.0912770929157625e-01  5.0428471189322799e-01  4.9700220548843005e-01  6.6362389161204360e-01  6.7042967675758669e-01  6.7513254740020923e-01  8.3928735057196191e-01  8.3547952615136623e-01  8.3085827096331910e-01  1.0000000000000080e+00  1.0000000000000082e+00  1.0000000000000080e+00  -1.5660920278826754e-14  -1.5433050985665479e-14  -1.5603774658409760e-14  1.7627816064332744e-01  1.7427834326764116e-01  1.7955763593335944e-01  3.4724878925642327e-01  3.4631657328722654e-01  3.5329643794923399e-01  5.1481667015252974e-01  5.1431107123205611e-01  5.2187234183594344e-01  6.7955087473341058e-01  6.7836703674769128e-01  6.8564811830608663e-01  8.4163360232987094e-01  8.3920415908183521e-01  8.4487287896214180e-01  1.0000000000000051e+00  1.0000000000000053e+00  1.0000000000000051e+00  -1.4650465076216059e-14  -1.4421878720034097e-14  -1.4473871319563518e-14  1.8020262897598446e-01  1.7693910246702585e-01  1.7556498950735080e-01  3.5356381410574805e-01  3.4872305286671434e-01  3.4682878633347469e-01  5.2202325380356185e-01  5.1674348919182378e-01  5.1465095499892799e-01  6.8607090427656947e-01  6.8133517622520856e-01  6.7933473661771104e-01  8.4574362148019189e-01  8.4264220651725286e-01  8.4111971968497823e-01  1.0000000000000064e+00  1.0000000000000064e+00  1.0000000000000062e+00  -1.3277670493559999e-14  -1.3059480404705677e-14  -1.3143756063598030e-14  1.8335762007206849e-01  1.8054315282900651e-01  1.8242153878441678e-01  3.5705303294820817e-01  3.5490657576320411e-01  3.5816627089890835e-01  5.2548328459576321e-01  5.2360616841870045e-01  5.2726646288406842e-01  6.8974136396511876e-01  6.8697115406485854e-01  6.9018363579310626e-01  8.4925775406406290e-01  8.4544367540278775e-01  8.4734702339090240e-01  1.0000000000000078e+00  1.0000000000000078e+00  1.0000000000000075e+00  -1.5949194019320684e-14  -1.5750386836861289e-14  -1.5699148404366112e-14  2.0504070706944216e-01  1.9462679756791929e-01  2.1199825963557634e-01  4.0132612657788913e-01  3.7693122030146964e-01  3.9148141138121895e-01  5.7323448467006799e-01  5.4757054191903098e-01  5.6268466720387800e-01  7.3020079393226200e-01  7.0738045941261241e-01  7.2096258463915119e-01  8.7323453902252846e-01  8.5736599037783445e-01  8.6695369936215172e-01  1.0000000000000049e+00  1.0000000000000051e+00  1.0000000000000051e+00  -1.5843413520695248e-14  -1.5727583217687378e-14  1.7059925048602620e-01  1.7208565575244492e-01  3.4303781532279304e-01  3.3932745938324438e-01  5.1098930967494094e-01  5.0630675558092675e-01  6.7577751031032229e-01  6.7178648207031255e-01  8.3801553703488929e-01  8.3610065070918338e-01  1.0000000000000049e+00  1.0000000000000051e+00  -1.4560391364303188e-14  -1.4377344268766308e-14  -1.4363761817524399e-14  1.7429330366481552e-01  1.7904498633769841e-01  1.7481902106563690e-01  3.5198722524730902e-01  3.4563313500074827e-01  3.4489082390975534e-01  5.1326462355064895e-01  5.2017736638018797e-01  5.1241982799199948e-01  6.7804141691984998e-01  6.8418423128529049e-01  6.7724126824791253e-01  8.4027770500046783e-01  8.4420582531881339e-01  8.3969649442456074e-01  1.0000000000000062e+00  1.0000000000000064e+00  1.0000000000000064e+00  -1.5903457876454925e-14  2.3731359035106811e-01  4.3037027448706211e-01  6.0143638535094279e-01  7.5477069522717877e-01  8.9054073183050975e-01  1.0000000000000049e+00  -1.4605389986317350e-14  1.8210144731026209e-01  3.5626241392931768e-01  5.2494046307392728e-01  6.8874240522751951e-01  8.4764152360428979e-01  1.0000000000000062e+00  -1.3828918483459359e-14  -1.3683525347546330e-14  -1.3604790561295886e-14  1.8230292517575100e-01  1.8940882687388089e-01  1.8489832975085185e-01  3.5711977738569245e-01  3.6643815967727045e-01  3.6036243672806639e-01  5.2588822206304831e-01  5.3563552539367321e-01  5.2935316418331679e-01  6.9801251000876641e-01  6.9259895689497653e-01  6.8924199901343586e-01  8.5357434069387506e-01  8.5006318943976245e-01  8.4741013240670537e-01  1.0000000000000071e+00  1.0000000000000069e+00  1.0000000000000073e+00  -1.4316360278844162e-14  -1.4050629092705376e-14  -1.4137805531730886e-14  1.8318452003614000e-01  1.8105861085321315e-01  1.8308190188006554e-01  3.5523437419371873e-01  3.5803698940835033e-01  3.5936606308787916e-01  5.2707090673451351e-01  5.2402133354283964e-01  5.2876094921702488e-01  6.9065766667083250e-01  6.8777340871535397e-01  6.9173081765766087e-01  8.4879556455881822e-01  8.4670380209246887e-01  8.4864599276982255e-01  1.0000000000000064e+00  1.0000000000000069e+00  1.0000000000000067e+00  -1.5272928085766041e-14  -1.5238696086309538e-14  -1.5040573524847205e-14  1.8882510466061922e-01  1.9301231555674606e-01  1.7830762372786538e-01  3.7176643323790404e-01  3.5287439502843165e-01  3.6500951188440628e-01  5.2173121463684735e-01  5.4122522057245370e-01  5.3388769947008152e-01  6.8501836648777881e-01  7.0309144944831758e-01  6.9634695099158361e-01  8.4356958083663935e-01  8.5713401523672406e-01  8.5264669628659140e-01  1.0000000000000056e+00  1.0000000000000056e+00  1.0000000000000058e+00  5.1410060987938966e-01  5.1652693188497201e-01  5.3164692999364260e-01  3.4787646415785328e-01  3.4568685102751606e-01  6.9510190842645936e-01  6.7955217258257428e-01  6.8160071697285729e-01  8.5200036113089317e-01  8.4180985029935240e-01  8.4294958390226948e-01  1.0000000000000082e+00  1.0000000000000084e+00  1.0000000000000082e+00  -1.4855923651068218e-14  -1.4929885588640618e-14  -1.4710518620297980e-14  1.7143928920045490e-01  1.7355903314909449e-01  1.7040448067019637e-01  3.4047571904981083e-01  3.4330606849268441e-01  3.3887516971835591e-01  5.0742882980563464e-01  5.1058033816183301e-01  5.0570979660966353e-01  6.7258925649458035e-01  6.7577746787237114e-01  6.7116822281373223e-01  8.3641426443332367e-01  8.3910318366067349e-01  8.3567910754266161e-01  1.0000000000000060e+00  1.0000000000000058e+00  1.0000000000000060e+00  -1.5834395051717990e-14  -1.5629476020309620e-14  1.8675402579429659e-01  1.8653089525954919e-01  3.6425089270620287e-01  3.6522963599320285e-01  5.3376074809191965e-01  5.3547975854671281e-01  6.9608688697593069e-01  6.9769835812016190e-01  8.5160610839229645e-01  8.5228862564754404e-01  1.0000000000000051e+00  1.0000000000000049e+00  1.7569350356129235e-01  -1.3504090801207375e-14  -1.3587704083643697e-14  -1.3364354680711702e-14  1.7175738512007188e-01  1.7265015965371278e-01  1.7419201388426450e-01  3.4088673817096571e-01  3.4275054805682159e-01  3.4536964801337716e-01  5.0813073697643818e-01  5.1029160532982742e-01  5.1329895175982920e-01  6.7373979002769291e-01  6.7542674118262458e-01  6.7804180259336266e-01  8.3780881528013162e-01  8.3844252362231675e-01  8.3994935775903024e-01  1.0000000000000075e+00  1.0000000000000073e+00  1.0000000000000073e+00  -1.4697014036530215e-14  -1.4469882115328028e-14  -1.4460421816098381e-14  2.1621140900577598e-01  1.8689977702493821e-01  1.9015106746816232e-01  4.0140085123747810e-01  3.6578014222584482e-01  3.6891661058403968e-01  5.7151263733461566e-01  5.3550410260755643e-01  5.3840790418094264e-01  7.2985916136161999e-01  6.9679057061128891e-01  6.9972171841876163e-01  8.7531725100884628e-01  8.5088388144211546e-01  8.5377528775289802e-01  1.0000000000000064e+00  1.0000000000000064e+00  1.0000000000000060e+00  -1.5923362985279278e-14  -1.5688128581822950e-14  -1.5891528618459097e-14  1.7172184121535958e-01  1.6941813492834273e-01  1.6776448599542740e-01  3.4044193340821749e-01  3.3727682885502075e-01  3.3539404460417488e-01  5.0740236451735432e-01  5.0393648336328178e-01  5.0203396445024473e-01  6.7301721331973785e-01  6.6963942960034695e-01  6.6776469357941348e-01  8.3746143904759840e-01  8.3476426299968820e-01  8.3315536418123881e-01  1.0000000000000049e+00  1.0000000000000051e+00  1.0000000000000049e+00  -1.3324471184786890e-14  -1.3115860727546104e-14  1.6504810366988887e-01  1.7354556327608706e-01  3.3106616291563612e-01  3.4322610352616262e-01  4.9702402977481219e-01  5.1048377586377258e-01  6.6304547817487247e-01  6.7572221182540537e-01  8.2994608543383774e-01  8.3906886012973025e-01  1.0000000000000078e+00  1.0000000000000075e+00  -1.5538739399236404e-14  1.6965937773796039e-01  3.3800424294875153e-01  5.0477069151937937e-01  6.7022156988122406e-01  8.3485304733487098e-01  1.0000000000000053e+00  -1.5873029710058639e-14  -1.5745311766165921e-14  -1.5547661696886923e-14  1.7230983919095869e-01  1.7596639252470328e-01  1.7644455055311939e-01  3.4259809735904090e-01  3.4700302007717931e-01  3.4824685372354591e-01  5.1017098108228920e-01  5.1479333528605409e-01  5.1625434973723772e-01  6.7510823005825715e-01  6.7978532155055638e-01  6.8083001990342829e-01  8.3786410534647127e-01  8.4198350614402262e-01  8.4212027962139158e-01  1.0000000000000053e+00  1.0000000000000051e+00  1.0000000000000049e+00  -1.4240179793238058e-14  1.7698716869551392e-01  3.4954403796600581e-01  5.1786898183077712e-01  6.8221193329487484e-01  8.4281909277062650e-01  1.0000000000000067e+00  -1.4120428197522989e-14  -1.3863670978044504e-14  -1.3944121565187232e-14  1.7091775074465829e-01  1.7098428992705539e-01  1.6989074827488981e-01  3.3945299252370909e-01  3.3953107437807944e-01  3.3804368789112194e-01  5.0631842377784020e-01  5.0640757825400784e-01  5.0463736139089765e-01  6.7181727074004993e-01  6.7196124053822626e-01  6.6994147313039765e-01  8.3628099892352314e-01  8.3652329471752251e-01  8.3453585977335987e-01  1.0000000000000069e+00  1.0000000000000069e+00  1.0000000000000067e+00  -1.5679495420192465e-14  1.7792597364802443e-01  3.4994763166734649e-01  5.1805094793406603e-01  6.8262864881401464e-01  8.4377736318330299e-01  1.0000000000000051e+00  -1.4611096003914194e-14  -1.4352611773591764e-14  -1.4426395255218812e-14  1.8113445591030669e-01  1.9488680383015930e-01  1.9991543976948850e-01  3.5662932024258021e-01  3.7469252463958158e-01  3.7994234302609292e-01  5.2573825771648719e-01  5.4453137187749701e-01  5.4982092965910268e-01  6.8889383994252429e-01  7.0573908476688663e-01  7.1123864373668044e-01  8.4673089457153949e-01  8.5829265920281883e-01  8.6361673822839258e-01  1.0000000000000064e+00  1.0000000000000064e+00  1.0000000000000062e+00  -1.5106321426588056e-14  -1.4925365155780857e-14  -1.5161930774084191e-14  1.7682168770613488e-01  1.7497810998859670e-01  1.7583275650074992e-01  3.4868576418941805e-01  3.4632102566378714e-01  3.4658303163688237e-01  5.1668274787149304e-01  5.1423407419939571e-01  5.1413189902310963e-01  6.8117481747025854e-01  6.7891988317064056e-01  6.7897985360778157e-01  8.4239049544295674e-01  8.4066369534794838e-01  8.4125268829460809e-01  1.0000000000000056e+00  1.0000000000000060e+00  1.0000000000000058e+00  3.6125163170905911e-01  3.6349829632147940e-01  3.5773189411213524e-01  5.2661186206785848e-01  5.3257315885213530e-01  5.2987947321754059e-01  6.8952541948988400e-01  6.9485592266328255e-01  6.9283521464113551e-01  8.4710787877910054e-01  8.5083304039732321e-01  8.5042469292556055e-01  1.0000000000000069e+00  1.0000000000000069e+00  1.0000000000000071e+00  -1.4882403763810127e-14  -1.4884627774544596e-14  -1.4676864512378465e-14  1.7446394773497792e-01  1.7201855444495620e-01  1.7445643363083360e-01  3.4450865533361197e-01  3.4114963198857662e-01  3.4484880365267573e-01  5.1184914271737003e-01  5.0821437940768532e-01  5.1240968309125867e-01  6.7695948160073383e-01  6.7358305594131274e-01  6.7750138517269243e-01  8.3995149052823903e-01  8.3750918616901837e-01  8.4023840723682053e-01  1.0000000000000062e+00  1.0000000000000060e+00  1.0000000000000060e+00  -1.3976234109538692e-14  1.9039790621811795e-01  3.6789489803260517e-01  5.3733432747063425e-01  6.9981998709977444e-01  8.5508972376701786e-01  1.0000000000000069e+00  -1.3918499235431818e-14  -1.3686495978119134e-14  1.7287802324729554e-01  1.7406610585141866e-01  3.4235851329540085e-01  3.4492182366292479e-01  5.0947110936731044e-01  5.1261501244423635e-01  6.7458768994129470e-01  6.7742217859002707e-01  8.3806340083887509e-01  8.3968884100389751e-01  1.0000000000000071e+00  1.0000000000000069e+00  -1.4791813613262337e-14  1.7527814746094433e-01  3.4667570751589510e-01  5.1447413784163665e-01  6.7900723537320351e-01  8.4068473531461241e-01  1.0000000000000060e+00  -1.5301734495088245e-14  -1.5068370307292229e-14  1.8712975327793535e-01  1.8227125037518385e-01  3.6426964670944245e-01  3.5999348171444023e-01  5.3338373469988321e-01  5.2949697090011938e-01  6.9545711715920588e-01  6.9130571709883815e-01  8.5132519547108487e-01  8.4689104074997312e-01  1.0000000000000058e+00  1.0000000000000056e+00  6.7407031602593426e-01  6.8568609515035794e-01  8.4559430708941707e-01  8.3755856680210283e-01  1.0000000000000087e+00  1.0000000000000087e+00  -1.4060226541789306e-14  1.7091778800795202e-01  3.3985623356186523e-01  5.0677870594306806e-01  6.7191683798221047e-01  8.3583299364699737e-01  1.0000000000000067e+00  -1.4191708332831431e-14  -1.4414114925227405e-14  1.7058490251811198e-01  1.7146773435615750e-01  3.3925084238778086e-01  3.4051402805120135e-01  5.0618727755999715e-01  5.0756293438112865e-01  6.7164895388302082e-01  6.7289038551032987e-01  8.3603721526467889e-01  8.3686613010933431e-01  1.0000000000000064e+00  1.0000000000000067e+00  -1.6084997802593619e-14  -1.5999519277506827e-14  -1.5845274164221512e-14  1.8492650734535587e-01  1.7969220085957882e-01  1.8700165880278807e-01  3.6083431133895000e-01  3.5377812227472194e-01  3.6293694430374368e-01  5.2999239457708447e-01  5.2254629915652495e-01  5.3214505196347206e-01  6.9296217933283055e-01  6.8630943455248161e-01  6.9531607492317371e-01  8.4990930853704272e-01  8.4537839965545925e-01  8.5240998716834082e-01  1.0000000000000049e+00  -1.4692872286954881e-14  -1.4586016648747750e-14  -1.4445701151098710e-14  1.8782519954221130e-01  1.8134949429893366e-01  1.8630558763365523e-01  3.6456652970184644e-01  3.5607100115209661e-01  3.6313159958313640e-01  5.3391793575851287e-01  5.2496657336357577e-01  5.3251756569227060e-01  6.9659610808059425e-01  6.8850640678802155e-01  6.9509756246778243e-01  8.5257692267498164e-01  8.4695902709936033e-01  8.5107735538431672e-01  1.0000000000000064e+00  1.0000000000000062e+00  1.0000000000000062e+00  -1.3115558909192918e-14  1.9511683027481672e-01  3.7417795005197269e-01  5.4380672454056145e-01  7.0561129146334178e-01  8.5919443649417415e-01  1.0000000000000078e+00  -1.4647984520377690e-14  -1.4436601092334553e-14  1.7156246400720712e-01  1.7054374004295192e-01  3.4088391215217917e-01  3.3921563685610484e-01  5.0810111068736208e-01  5.0607550977758209e-01  6.7343056992630068e-01  6.7140446902095097e-01  8.3721591805515216e-01  8.3568165212888201e-01  1.0000000000000064e+00  1.0000000000000062e+00  -1.3294489226082795e-14  -1.3382906786751715e-14  1.8284356259100876e-01  1.7330827881976124e-01  3.5749079631348096e-01  3.4418594453927287e-01  5.2657028968025432e-01  5.1215030655056493e-01  6.9049346254450850e-01  6.7719590694092446e-01  8.4913592451460407e-01  8.3954974274166283e-01  1.0000000000000075e+00  1.0000000000000075e+00  -1.3394314712512119e-14  1.8208772274628704e-01  3.5655599944473926e-01  5.2529607193958461e-01  6.8899196005538177e-01  8.4769973772401319e-01  1.0000000000000073e+00  -1.5553560096841912e-14  1.9979213388741188e-01  3.8068783364551012e-01  5.5068663078689994e-01  7.1126458607209286e-01  8.6275099594066729e-01  1.0000000000000053e+00  -1.4737134079640438e-14  1.7798039245034833e-01  3.5070826325773063e-01  5.1905228442461304e-01  6.8327869020857168e-01  8.4361450427871520e-01  1.0000000000000060e+00  -1.4684441609212181e-14  1.9685494655848113e-01  3.7766874892271007e-01  5.4748736200188730e-01  7.0798341486260663e-01  8.5958445767164782e-01  1.0000000000000062e+00  -1.5964903704474116e-14  1.7219334558059154e-01  3.4171357672880781e-01  5.0913091544614708e-01  6.7458434278888035e-01  8.3824364387850347e-01  1.0000000000000049e+00  -1.2967945967931654e-14  1.6649220725138408e-01  3.3368959342275845e-01  5.0047022469712732e-01  6.6672460338433859e-01  8.3266868906562086e-01  1.0000000000000078e+00  -1.2937271364578554e-14  -1.2754957270178404e-14  -1.2917040935545450e-14  1.6117261538950939e-01  6.5743265432122500e-01  6.6844235337125535e-01  6.5678513665410954e-01  4.9006967455567507e-01  8.2571050060091644e-01  8.3416226495335677e-01  8.2591209198364779e-01  1.0000000000000080e+00  1.0000000000000080e+00  1.0000000000000080e+00  -1.6253942818645229e-14  -1.6023889355076509e-14  -1.6242054006472633e-14  1.7588253624549299e-01  1.7912527011651991e-01  1.7374634521393642e-01  3.4377312119795511e-01  3.5096361880074911e-01  3.4721653753787235e-01  5.1885576798839694e-01  5.1112074246215988e-01  5.1502062018263284e-01  6.7617745048384792e-01  6.8343981357802419e-01  6.7971225177402261e-01  8.3916542509130032e-01  8.4459421549519687e-01  8.4145670523560867e-01  1.0000000000000047e+00  1.0000000000000049e+00  1.0000000000000047e+00  -1.4160034832788057e-14  -1.4230789893695985e-14  -1.4046279340293209e-14  1.7582467400674734e-01  1.7755394902153468e-01  1.8193947293863597e-01  3.5527856609082470e-01  3.5058025242276764e-01  3.4925656500422603e-01  5.1881747162573055e-01  5.2353605522835689e-01  5.1780342456056583e-01  6.8742777388659282e-01  6.8244847733617908e-01  6.8148381717522477e-01  8.4695149782072332e-01  8.4225823813928224e-01  8.4113624707849277e-01  1.0000000000000067e+00  1.0000000000000067e+00  1.0000000000000067e+00  -1.6367470002673568e-14  -1.6387376352268840e-14  -1.6202429404844661e-14  2.2565396397073612e-01  2.2917722908408078e-01  2.2553455115861146e-01  4.2270065320444256e-01  4.2058847582377040e-01  4.1857706375030218e-01  5.9430018570105958e-01  5.9270267638538876e-01  5.9042940828367518e-01  7.4455144280268959e-01  7.4790709782705367e-01  7.4563492170188628e-01  8.8158945752485074e-01  8.8463007710099095e-01  8.8216911465943004e-01  1.0000000000000044e+00  1.0000000000000047e+00  1.6292145482123510e-01  1.6239802230369463e-01  1.6598449485509670e-01  -1.2692783959971530e-14  3.2755557746630021e-01  3.2670691953892195e-01  3.3230123991806060e-01  4.9227301111293570e-01  4.9336813972005455e-01  4.9887611942871463e-01  6.5915038071382415e-01  6.6040629213662194e-01  6.6568045375328000e-01  8.2781002177539764e-01  8.2892621861742721e-01  8.3276497299300167e-01  1.0000000000000082e+00  1.0000000000000084e+00  1.0000000000000082e+00  -1.5328133090835148e-14  -1.5334235136039502e-14  1.7467450602042719e-01  1.7689731047345900e-01  3.4550284871344061e-01  3.4941730804879800e-01  5.1313830161103757e-01  5.1773598051248371e-01  6.7794598958510488e-01  6.8203950624088039e-01  8.4015069240615581e-01  8.4265013318088877e-01  1.0000000000000056e+00  1.0000000000000056e+00  1.8423464233078374e-01  1.8440800857105782e-01  1.9561526167992635e-01  -1.5697338864058091e-14  -1.5408610051804526e-14  3.6171917011598581e-01  3.6101287188853853e-01  3.7482716309437702e-01  5.3141733386894130e-01  5.3060038573939239e-01  5.4457098930699299e-01  6.9396341346558310e-01  6.9348985915575245e-01  7.0616711145004774e-01  8.4985983549276700e-01  8.4996929120800702e-01  8.5946401898884683e-01  1.0000000000000053e+00  1.0000000000000051e+00  1.0000000000000053e+00  -1.6055464298204258e-14  -1.6107501777244994e-14  1.7051547324483882e-01  1.7206623061153004e-01  3.3859398603623903e-01  3.4150713982660874e-01  5.0522753302094825e-01  5.0862280760760425e-01  6.7076237106682812e-01  6.7381930737228091e-01  8.3560755569308121e-01  8.3743666394460270e-01  1.0000000000000047e+00  1.0000000000000047e+00  -1.2680657737036964e-14  -1.5098599255509788e-14  1.6964051722484527e-01  3.3797463503572389e-01  5.0481963348956915e-01  6.7037031752631371e-01  8.3507654063681058e-01  1.0000000000000058e+00  -1.4880742884401794e-14  1.9287265451381003e-01  3.7110916760358093e-01  5.