<?xml version="1.0"?>
<VTKFile type="UnstructuredGrid"  version="0.1"  >
<UnstructuredGrid>
<Piece  NumberOfPoints="2251" NumberOfCells="10238">
<Points>
<DataArray  type="Float64"  NumberOfComponents="3"  format="ascii">2.732335376117434 1.66638585452141 1.290071810752866  2.722950465402513 1.820323141355819 1.239402432854118  2.840498700174469 1.747052140861566 1.257027532418624  2.838006570746491 1.727167329260977 1.198873334768759  2.719543608276602 1.800481269578528 1.181166422553479  2.729195632697138 1.64624814321405 1.230829993240138  2.835580694609585 1.707288046412273 1.140678693780197  2.71616071225073 1.780646286974157 1.122890738777097  2.726089635822877 1.626100368369329 1.171540583342557  2.83318058012887 1.687406608899301 1.082457210156879  2.712782907055408 1.76080999128512 1.064592257678306  2.722991246875437 1.605947501501507 1.112217682646655  2.830762850662639 1.667530216772567 1.024211737039129  2.709384556216063 1.740973452585005 1.006273502290385  2.719871850186728 1.585806611846631 1.052859343882602  2.828277939249429 1.647667016352889 0.9659291587650127  2.705938789081356 1.721139543619658 0.9479202003588051  2.716700401368031 1.56569893092354 0.9934447301293239  2.825663071658508 1.627820563046296 0.9075814962504192  2.702416814164366 1.701303766422468 0.8894957279824569  2.713439913092545 1.545643363543238 0.9339231979165886  2.171478137168154 1.309859334646997 1.505424260637562  2.266327400593965 1.416276572378371 1.432023815598247  2.305406424771003 1.304691958039174 1.480703958381454  2.293833213677006 1.272195267170737 1.421047386937245  2.256386709372238 1.387350406335945 1.372224887076698  2.15696502944493 1.275155908974247 1.447731011433955  2.282175595730838 1.239553292974362 1.361440011198881  2.246366343749277 1.358284627696172 1.312459494445362  2.142304003500572 1.240301784247671 1.390157282546023  2.270484304551292 1.206880841079307 1.301829478338095  2.236302120930782 1.329181995054974 1.252694282351362  2.127603588815862 1.205416853463736 1.332618701677491  2.258808674984143 1.17425476931056 1.24217157728487  2.226233869481641 1.30012182086037 1.192893295684815  2.112936064751094 1.170584178000428 1.275050405541261  2.24719007089044 1.141740123203499 1.182422832927253  2.216202292439736 1.271176481351646 1.133019053538971  2.098370405737796 1.135881419076565 1.217393462955147  2.235637388122885 1.109410479614537 1.122548610476684  2.206243149640968 1.242426638974518 1.073013917584397  2.08396381816333 1.101375190776417 1.159577855227305  2.858125694931744 0.7787426506851316 2.442961464369869  2.819532983981846 0.7510203846784462 2.299045264024552  2.958693894990739 0.7542017644347682 2.318349479270927  2.961964991001333 0.6840963499821017 2.330439206047895  2.818418269824494 0.6791470616055365 2.307078962651036  2.859381255298157 0.7105910858601894 2.46050292131041  2.860537065208665 0.642423536701038 2.47804200681329  2.817152555007538 0.6072406644665352 2.315074573814912  2.965161591142708 0.613949258803663 2.342517032403511  2.861648255750915 0.5742494329518331 2.495591008799811  2.815828821541729 0.5353223777714784 2.323075486925185  2.968329553912004 0.5437987927431049 2.354604234766437  2.862740431176698 0.5060776496117693 2.513172600847997  2.814498335004849 0.4633973039350237 2.331110129220263  2.97147421830445 0.4736492078505039 2.366723493462759  2.86384239111935 0.4379107262353293 2.530808274720405  2.813212679877937 0.3914617913296445 2.339199547991799  2.974609812471653 0.4034923637874118 2.378894879175665  2.86500305820783 0.3697418230613608 2.548504498762467  2.812033664285642 0.3195117926540835 2.3473582023388  2.977790247030474 0.3332992434556866 2.391135831120317  1.168031883077998 1.565794378947948 1.461504770759602  1.272581444076399 1.521625932910584 1.510496282104881  1.171617514535125 1.479624859145885 1.566984213007006  1.169123676584748 1.427272208622997 1.528277108932676  1.270797890057483 1.471828506583195 1.469692668167073  1.167170168863462 1.51462419374292 1.420781043438865  1.167082524639161 1.374673229576896 1.489538612446404  1.269428980460013 1.421745095141326 1.428844520986864  1.166694438322433 1.463191654151283 1.379931760414859  1.165180031193294 1.321868035618547 1.450799520895255  1.268216226891822 1.371436498252238 1.387952730591155  1.166349611642288 1.411502715295474 1.338992567987036  1.163173653602846 1.268901793936658 1.412060503635295  1.266952965935529 1.320958864101668 1.34702506124377  1.165921021159405 1.359570898338491 1.298005891591861  1.160833961865265 1.215840791546152 1.373286860359055  1.265442445970548 1.270372693162983 1.306025657999242  1.165232185644893 1.307401691869827 1.25695850810402  1.157882278371628 1.162736749529886 1.334389198793342  1.263434995290146 1.219735329014493 1.264853851041764  1.164110897417296 1.254972299054182 1.215751152135518  0.90886118326683 1.568194029775064 1.451838172839612  1.028418194306059 1.591826850599213 1.42525398245944  1.029571910832461 1.502513684375585 1.545810206785947  1.028770787919751 1.447934888157908 1.507613463108309  1.030684118322486 1.537688143127911 1.38510164501021  0.9108675150194077 1.5120793861319 1.411568532426912  1.028440820141858 1.393100141312324 1.469305668055986  1.033361708466014 1.483290300428163 1.344756714921517  0.9132588531166863 1.455695968482952 1.371088384614982  1.028195795252194 1.338019048012366 1.430970071922264  1.03611068015011 1.428600958491477 1.304302728430658  0.9156843409289125 1.39899110231402 1.330518724455424  1.02778679140666 1.282706193091746 1.392637236196107  1.038740440778415 1.373619074131222 1.263795422432382  0.9179588272903071 1.341958562062866 1.289911967044037  1.027001780010056 1.227179677270221 1.354297325026629  1.041109491682449 1.318332134552477 1.223252802521433  0.9199423984513926 1.284564433060815 1.249284657804295  1.025653473038957 1.171448065902729 1.315900497246646  1.043119132064437 1.262668472720355 1.182691894452265  0.9215308745458362 1.226731924955578 1.208607150049943  2.833823160162062 1.897446599888609 1.20698266505497  2.831007992040145 1.877192144730455 1.149526460129607  2.82824876913051 1.856953244971137 1.092031164120068  2.825514266357088 1.836714536945205 1.034516403069451  2.822764035321357 1.816470131476002 0.9769906491386641  2.819954446840018 1.796213517891558 0.9194463416659968  2.817032387853741 1.775928153957172 0.8618657104663962  2.986099532647067 1.177379668077275 1.491047841153012  3.102096739291639 1.236358431580989 1.46904986684666  3.040499123927028 1.091262261578935 1.559183395965518  2.990660636559949 1.141905467709328 1.433154138421903  3.108010766895289 1.203629223913985 1.412163689746041  3.047179038934279 1.050990039994738 1.503882937041196  2.99540805748826 1.106382230213803 1.37527745605483  3.114191922934284 1.170873787540793 1.355313362381191  3.054057651090953 1.010679264911963 1.448618133800213  3.000209957433714 1.070856527052859 1.317394884999513  3.120453511856445 1.138121128346653 1.298480016151935  3.061007215987506 0.9703682587442582 1.393357882359062  3.004983210701922 1.035372317027669 1.259473598974057  3.126673659497658 1.105395823828184 1.241635020796153  3.067931120890727 0.9300864786433334 1.338066238818964  3.009628304832856 0.9999466579282053 1.201478807180514  2.717672778169885 0.8468239850122303 1.812359868147136  2.813931084736506 0.8024155756251172 1.873159725957  2.7173950388668 0.7840785830204342 1.951957955041838  2.7099224132058 0.71251054370642 1.930090932536533  2.810194120925464 0.7345137931002147 1.841801268579219  2.709586898599095 0.7814827600566094 1.776657245622399  2.702217735795317 0.640986418232516 1.908201588400322  2.806267147253084 0.6666368052751563 1.810422517012704  2.701256366891849 0.7161722913268145 1.740961244265611  2.694438346563758 0.5694773521090389 1.88630427374108  2.802281770723967 0.5987721423441332 1.779023010799753  2.692856107060877 0.6508741592661382 1.70525078335433  2.686674703722257 0.4979696335958204 1.864415248274364  2.798309363792912 0.530907752540406 1.747614711451435  2.684470183386585 0.5855805044996142 1.669521378167941  2.679000083139988 0.42645135762756 1.842549622271566  2.794410830885222 0.4630392700789054 1.716206593090401  2.676163855159319 0.5202858265234001 1.633770873659907  2.671496940395584 0.3549009183220636 1.820724774325811  2.790630173248034 0.3951698812900066 1.684792090756558  2.668020093840463 0.4549770658280635 1.598013176772473  2.625838839706284 1.73555469654092 1.273994355985354  2.621794032435346 1.715732915079366 1.214885210231872  2.617748567245513 1.695905056203223 1.155736670965698  2.613691527690761 1.67607184480461 1.096556089487759  2.609608759672883 1.65624649681362 1.03734652319407  2.605487716833109 1.636446541731382 0.9780939407494098  2.601326939903608 1.616689602297162 0.918768547074549  2.954751162129228 0.7433431712537902 2.199231328866082  2.956839107014181 0.6709755048855416 2.201788887835689  2.95883020632018 0.5985538194381884 2.204298059466088  2.96078287107953 0.5261186823957009 2.206807888052017  2.962720771417548 0.4536719450725153 2.209349059065049  2.964673434453742 0.3812003792366415 2.211945278352128  2.966702342841288 0.3086754200457223 2.214608651190888  2.578068878657831 0.7653637302979251 2.272280012526093  2.545041159516503 0.7704319193362303 2.13549943142252  2.690543680123414 0.751379464624742 2.220485439503201  2.68438617355765 0.6777479170148142 2.221971434895048  2.535738627302239 0.6963808867523928 2.128578211821793  2.571103901049074 0.6919748825488947 2.27542084112469  2.563965092374952 0.6186101243197799 2.278494147645601  2.526254023622432 0.6223935120596634 2.121562383891432  2.678004256569701 0.6041347229932912 2.223382545576922  2.556751166676162 0.5452596105283742 2.281561672054019  2.516691806370852 0.5484384594010151 2.114535966450509  2.671547671771755 0.5305324346187632 2.224794477627696  2.54954229764046 0.4719142413908887 2.284659147025101  2.50714325615682 0.4744960803639795 2.107535084455835  2.665096884138012 0.456931
[...]
<PointData  Scalars="f_14"> 
<DataArray  type="Float64"  Name="f_14"  format="ascii">-1.6767338484392403e-14  -1.6798103945263986e-14  -1.6597955280991821e-14  1.6990312342677327e-01  1.6438542959319280e-01  1.7155642169803564e-01  3.3754871953344628e-01  3.2953530357259714e-01  3.4066729109515459e-01  5.0416617119907381e-01  4.9526557456384418e-01  5.0793570124648069e-01  6.7013754383316237e-01  6.6179019422746244e-01  6.7354688481432146e-01  8.3565203478895589e-01  8.2956622575779948e-01  8.3761650586472292e-01  1.0000000000000042e+00  1.0000000000000040e+00  1.0000000000000040e+00  -1.7617398055729533e-14  -1.7482386870302102e-14  -1.7402323056270192e-14  1.9342678936583721e-01  1.8403075969495158e-01  1.9589206876633231e-01  3.7329635263903155e-01  3.6014439058095121e-01  3.7485559736177199e-01  5.4365908945829489e-01  5.2963651000623102e-01  5.4482061975442808e-01  7.0535584434539489e-01  6.9298716947960370e-01  7.0702944285005342e-01  8.5833508695332750e-01  8.5020857149229967e-01  8.6093691404941752e-01  1.0000000000000033e+00  1.0000000000000033e+00  1.0000000000000031e+00  -1.6415714626995176e-14  -1.6494917087929067e-14  -1.6274578447064476e-14  2.1236001235544402e-01  2.0848560443147707e-01  2.0222595323837717e-01  3.8700542838433849e-01  3.9622911573211483e-01  4.0054487588565463e-01  5.5808840590861086e-01  5.6769726345679394e-01  5.7214927429931095e-01  7.1694632089513888e-01  7.2496438742484393e-01  7.2937853820391874e-01  8.6447389850815404e-01  8.6924585660714893e-01  8.7308092085005906e-01  1.0000000000000044e+00  1.0000000000000042e+00  1.0000000000000044e+00  -1.9277709329948025e-14  -1.9096859864701519e-14  -1.9256055200657987e-14  1.7052954468310844e-01  1.6461545692701332e-01  1.6453431424492912e-01  3.3660615179757636e-01  3.2961000294494253e-01  3.3072083071122949e-01  5.0225225503081805e-01  4.9478007218183701e-01  4.9646549879048840e-01  6.6856057269327696e-01  6.6073151163254962e-01  6.6182882515707997e-01  8.3583740037034171e-01  8.2850907158347165e-01  8.2794509336008604e-01  1.0000000000000016e+00  1.0000000000000018e+00  1.0000000000000016e+00  -1.9697993916277702e-14  -1.9508640809341024e-14  -1.9492273260828984e-14  1.6894160026403071e-01  1.6941345712848174e-01  1.7333168950559794e-01  3.3607331910793908e-01  3.3863946597972649e-01  3.4424399449300425e-01  5.0227584343734710e-01  5.0589892565258765e-01  5.1214262898409957e-01  6.6802001637674091e-01  6.7121444880016601e-01  6.7713868212560968e-01  8.3367539005553215e-01  8.3523564928616567e-01  8.3944946151693023e-01  1.0000000000000013e+00  1.0000000000000013e+00  1.0000000000000011e+00  -1.6621299538796652e-14  1.6262447036035987e-01  3.2693269087844623e-01  4.9224272843791816e-01  6.5882092444569262e-01  8.2734470906755420e-01  1.0000000000000042e+00  -1.6304943446640464e-14  -1.6121885538198617e-14  -1.6208828679204163e-14  2.0568039833620375e-01  1.9308906975633669e-01  1.9552688119674261e-01  3.8859475525010190e-01  3.7284122548775905e-01  3.7955791959799112e-01  5.5947219259055081e-01  5.4309038336069937e-01  5.5106158316350162e-01  7.1949877077592561e-01  7.0496037892544683e-01  7.1082071751658471e-01  8.6856190988534032e-01  -1.6697994057596453e-14  -1.6544614350594159e-14  -1.6685884950683122e-14  2.2327738545739903e-01  2.3513152073785346e-01  2.1837222793184680e-01  4.1612317378680719e-01  4.2892075680550323e-01  4.1122112050703452e-01  5.8769698381381918e-01  6.0003694327427526e-01  5.8321421030397769e-01  7.4173154267335839e-01  7.5260290172152788e-01  7.3740792523060505e-01  8.7976442018748924e-01  8.8808676270352971e-01  8.7605680382005391e-01  1.0000000000000042e+00  1.0000000000000042e+00  1.0000000000000040e+00  -1.6948153565395207e-14  1.6707124321661754e-01  3.3387439006958775e-01  5.0035136485949916e-01  6.6665243216675585e-01  8.3304169776922665e-01  1.0000000000000038e+00  -1.6296343425174040e-14  2.1566948915538173e-01  4.0675651372389837e-01  5.7871938922953070e-01  7.3424168180474514e-01  8.7488543576590438e-01  1.0000000000000044e+00  -1.6867038024301660e-14  -1.6928486264379517e-14  -1.6702183346895953e-14  2.1100883560349484e-01  2.0984959154084948e-01  2.0129893921427050e-01  3.8720805032331035e-01  3.9835052533368148e-01  3.9918879103446592e-01  5.5870239522498466e-01  5.6997633084816834e-01  5.7065931373108036e-01  7.1707963493643556e-01  7.2692971242925963e-01  7.2771104715787382e-01  8.6377825046004164e-01  8.7036241612721499e-01  8.7158025290290253e-01  1.0000000000000040e+00  1.0000000000000038e+00  1.0000000000000040e+00  -1.6840163988299719e-14  -1.6649810661183787e-14  -1.6619629394965458e-14  1.9756723814944632e-01  2.0861795844051087e-01  2.0589196147601213e-01  3.9490327837590433e-01  -1.6799780623822019e-14  2.0210355724841003e-01  8.2822180658362443e-01  8.3170874707387177e-01  6.6495474555889944e-01  1.0000000000000044e+00  1.0000000000000044e+00  1.0000000000000044e+00  1.0000000000000044e+00  1.0000000000000047e+00  8.8463007710099095e-01  5.6609796566524451e-01  7.2422899145482167e-01  8.6993135935576182e-01  1.0000000000000042e+00  -1.6522569093914560e-14  2.1495073621326249e-01  4.0469907554347556e-01  5.7617012648996235e-01  7.3188664063479059e-01  8.7340877091810154e-01  1.0000000000000042e+00  -1.6935405332418503e-14  1.7720661814643993e-01  3.4874947304099907e-01  5.1690685553121163e-01  6.8198277795747142e-01  8.4374644562588841e-01  1.0000000000000038e+00  5.8778763376984100e-01  5.9129253842579943e-01  5.9663596683897369e-01  4.1998530360240088e-01  4.1571423639817418e-01  7.4899768317153592e-01  7.4108153448954506e-01  7.4496740627071623e-01  8.8391749103904338e-01  8.7791564877945183e-01  8.8267787368528794e-01  1.0000000000000047e+00  1.0000000000000044e+00  1.0000000000000044e+00  -1.7287393787868686e-14  -1.7101348599362665e-14  -1.7047328963963681e-14  2.2259850631872805e-01  2.1077147169097701e-01  2.2373923541671459e-01  4.1369209927149631e-01  4.0075130102113155e-01  4.1410404642691745e-01  5.8513985115129508e-01  5.7277287702443247e-01  5.8524724428520247e-01  7.4011180113168595e-01  7.2898984115031773e-01  7.4047775941286942e-01  8.7984743219703387e-01  8.7097757097396133e-01  8.8042033114230300e-01  1.0000000000000038e+00  1.0000000000000038e+00  1.0000000000000036e+00  -1.6865370679649659e-14  2.1798260248069401e-01  4.0923334807232820e-01  5.8100713492594502e-01  7.3609896120999074e-01  8.7636262061341597e-01  1.0000000000000040e+00  -1.7213848808882017e-14  2.0981231854949772e-01  4.0009525359610726e-01  5.7192330147508774e-01  7.2777089669973605e-01  8.6968346554463583e-01  1.0000000000000036e+00  -1.6534169775918746e-14  -1.6387376352268840e-14  -1.6367470002673568e-14  2.1869890995999591e-01  2.2917722908408078e-01  2.2553455115861146e-01  4.2270065320444256e-01  4.1247311395250108e-01  4.2058847582377040e-01  5.9430018570105958e-01  5.8474725757920332e-01  5.9270267638538876e-01  7.4790709782705367e-01  7.3872607281004987e-01  7.4563492170188628e-01  8.8158945752485074e-01  8.7681742310443411e-01  1.0000000000000042e+00  -1.8518325244419399e-14  -1.8466343371768162e-14  -1.8295576837833261e-14  1.7499396499731629e-01  1.6665283614600773e-01  1.6696805883312768e-01  3.4426541634875046e-01  3.3263541294086202e-01  3.3340901394318478e-01  5.1151099462823746e-01  4.9838498120653568e-01  4.9929767019952165e-01  6.7731427367424191e-01  6.6456598396984068e-01  6.6507582862745462e-01  8.4133808299417101e-01  8.3209438046941064e-01  8.3128474205225955e-01  1.0000000000000024e+00  1.0000000000000024e+00  1.0000000000000022e+00  -1.7073674193326184e-14  2.1626826647168482e-01  4.0346232077065869e-01  5.7445447734378075e-01  7.3171549859738716e-01  8.7560807854184053e-01  1.0000000000000038e+00  -1.6392971137234353e-14  -1.6419071091001622e-14  1.7046256750368083e-01  1.6682495167819458e-01  3.3292483977948761e-01  3.3932716446222461e-01  4.9885401465523821e-01  5.0632376874096252e-01  6.7161666294174582e-01  8.3565011977828774e-01  1.0000000000000044e+00  -1.9301817793451014e-14  -1.9073513820186565e-14  1.7452763536652205e-01  1.7824994670780339e-01  3.4250147947368953e-01  3.5031573683338624e-01  5.0879642653875246e-01  5.1825679866173835e-01  6.7444920290761823e-01  6.8287913339452744e-01  8.3964563572903383e-01  8.4416777752439609e-01  1.0000000000000018e+00  1.0000000000000016e+00  -1.6427767571653637e-14  2.2120767145286668e-01  -1.7004620153247355e-14  2.0205502067036454e-01  -1.6573208081854709e-14  2.1206245212281274e-01  4.0321365172443263e-01  5.7517771152612551e-01  7.3043763932521766e-01  8.7139940019888518e-01  1.0000000000000042e+00  -1.6947256183618428e-14  -1.6758247527923706e-14  -1.6700539255945332e-14  2.3737914487882858e-01  2.1536691605662550e-01  2.2255978338715787e-01  4.3122071147259239e-01  4.0688186459321996e-01  4.1355615325570549e-01  6.0220620660339508e-01  5.7910119263907078e-01  5.8510636567274765e-01  7.5474808832628737e-01  7.3462866435408924e-01  7.4026364503234299e-01  8.8951977243307934e-01  8.7511090038013473e-01  8.8001284636325516e-01  1.0000000000000042e+00  1.0000000000000040e+00  1.0000000000000038e+00  -1.6410550329981493e-14  1.9302032621407081e-01  3.7356299215938760e-01  5.4415965393484589e-01  7.0557194553416114e-01  8.5795496517739278e-01  -1.6244911915489004e-14  1.8450571841526345e-01  3.6123060143962993e-01  5.3101922880002661e-01  -1.7376803015669326e-14  -1.7250457979835209e-14  -1.7401606684772496e-14  1.9630574902752898e-01  2.0523631410419679e-01  2.0786457204211806e-01  3.8011831467438462e-01  3.9046937249822444e-01  3.9392432777313141e-01  5.5109979740765147e-01  5.6142768813385757e-01  5.6500275471451622e-01  7.1044796118666964e-01  7.1985796503359212e-01  7.2300954371734161e-01  8.5950372860485447e-01  8.6668591081083102e-01  8.6888958766655944e-01  1.0000000000000033e+00  1.0000000000000036e+00  1.0000000000000036e+00  -1.7104361942233579e-14  1.7050867581220827e-01  3.3920058774083212e-01  5.0638759841560321e-01  6.7222287244669066e-01  8.3676348720915195e-01  1.0000000000000038e+00  -1.6881471723803224e-14  2.1621936011369980e-01  4.0823994542125591e-01  5.8019705169047420e-01  7.3498843542934811e-01  8.7461780491596752e-01  1.0000000000000040e+00  -1.7683063497489479e-14  1.7922550089932041e-01  3.5356867583549728e-01  5.2245128661134832e-01  6.8608438580001929e-01  8.4462933066308121e-01  1.0000000000000031e+00  -1.6403765599382709e-14  2.2757344970488486e-01  -1.7653383357138570e-14  -1.7488003512688120e-14  -1.7460627497168368e-14  1.7182625192123885e-01  1.6558776416327442e-01  1.7005642637064469e-01  3.4073779431149209e-01  3.3098490088373794e-01  3.3792969140787177e-01  5.0801351716596421e-01  4.9684437467198178e-01  5.0475534387587329e-01  6.7386173306667718e-01  6.6359976060772807e-01  6.7090101346283570e-01  8.3826265890503437e-01  8.3148669983954804e-01  8.3648758638155651e-01  1.0000000000000033e+00  1.0000000000000033e+00  1.0000000000000031e+00  -1.7673500899179117e-14  -1.7482317403674259e-14  1.7512796491436644e-01  1.8107441211823025e-01  3.4714490108206469e-01  3.5365097397327239e-01  5.1544314537812130e-01  5.2198454426422625e-01  6.8021955651911126e-01  6.8680174193451116e-01  8.4156567245366731e-01  8.4753650071128850e-01  1.0000000000000033e+00  1.0000000000000031e+00  -1.8662216964802583e-14  1.7213284255007835e-01  3.3842426821779997e-01  5.0397690194579448e-01  6.6994239683184331e-01  8.3668311558133812e-01  1.0000000000000022e+00  -1.6468815959565328e-14  2.0424347688232897e-01  3.9066422494223596e-01  5.6236749305941547e-01  7.2093279524343457e-01  8.6706485759676399e-01  8.5980250232374378e-01  1.0000000000000044e+00  1.0000000000000044e+00  1.0000000000000047e+00  -1.7432311397499893e-14  2.2374024290746747e-01  4.1402575982305995e-01  5.8518409375873426e-01  7.4038896136145671e-01  8.8051434815791096e-01  1.0000000000000033e+00  -1.6387802016103338e-14  2.1741312445229469e-01  4.0719236964652133e-01  5.7902554137079076e-01  7.3551104862083527e-01  8.7723109529953380e-01  1.0000000000000044e+00  -1.7554003059314922e-14  2.0660229946988506e-01  3.9138520432633628e-01  5.6213588086685606e-01  7.2066739065796759e-01  8.6772803344127269e-01  1.0000000000000033e+00  -1.7043698593986639e-14  2.0877903202949771e-01  3.9750470057570397e-01  5.6918959624723575e-01  7.2603203099665448e-01  8.6965314370476210e-01  1.0000000000000038e+00  1.0000000000000044e+00  -1.6533356412531145e-14  2.1906676422848961e-01  4.1136371693041918e-01  5.8336208291984948e-01  7.3800514693613439e-01  8.7688561062511450e-01  1.0000000000000042e+00  -1.7801003299656539e-14  -1.7610030533375813e-14  -1.7603002088898791e-14  2.1010506353356842e-01  1.9594502072081396e-01  1.9112466957934596e-01  3.9687530050777503e-01  3.7852051087408956e-01  3.7223236777997010e-01  5.6811606323024211e-01  5.4941761497532837e-01  5.4305661908407243e-01  7.2598540932966105e-01  7.0956887706354621e-01  7.0421221711636905e-01  8.7108080463968107e-01  8.5978274795641418e-01  8.5634985225071869e-01  1.0000000000000031e+00  1.0000000000000031e+00  1.0000000000000031e+00  -1.8662581718365495e-14  1.5914362017557573e-01  3.2304780538124656e-01  4.8767413176987434e-01  6.5315482816266679e-01  8.2102923295569474e-01  1.0000000000000022e+00  -1.7542450142028027e-14  2.0384255021124842e-01  3.9109590236498831e-01  5.6250037424279575e-01  7.1999639011718675e-01  8.6516490636853249e-01  1.0000000000000033e+00  -1.7426025681803605e-14  2.0311609279084841e-01  3.9029421662357389e-01  5.6202440858095770e-01  7.2003529825078505e-01  8.6550537479700662e-01  1.0000000000000033e+00  -1.7101976757011115e-14  1.7617100489629547e-01  3.4877942074089618e-01  5.1738633655234456e-01  6.8201045978109942e-01  8.4275647594838965e-01  1.0000000000000038e+00  -1.9727296471840038e-14  -1.9522345001716766e-14  -1.9707040221536933e-14  1.8448182021905202e-01  1.8633325473995271e-01  1.8363267911769596e-01  3.5928594125913405e-01  3.6054110502881481e-01  3.6015416568493580e-01  5.2819864052099808e-01  5.2926737101370214e-01  5.2960245214344426e-01  6.9192157904924845e-01  6.9334193268160804e-01  6.9232162845045986e-01  8.5017754028336734e-01  8.5221799663021980e-01  8.4864639707039191e-01  1.0000000000000011e+00  1.0000000000000013e+00  1.0000000000000011e+00  -1.7209222979977326e-14  -1.7186551358976844e-14  2.0139841841797776e-01  2.0168542301739170e-01  3.8651212206324315e-01  3.8555813843794379e-01  3.8576220651743726e-01  7.1653252656601740e-01  7.1549653261822133e-01  7.1574942601329916e-01  5.5641568721326151e-01  8.6444433451834723e-01  8.6378797815727892e-01  8.6402843378188154e-01  1.0000000000000038e+00  1.0000000000000036e+00  1.0000000000000036e+00  -1.9697346472086089e-14  1.7245389932080232e-01  3.4136225243043239e-01  5.0843480837318833e-01  6.7413199582761285e-01  8.3864647836787598e-01  1.0000000000000011e+00  -1.7035426768008774e-14  1.9890704472335582e-01  3.8379934040119668e-01  5.5511836897892608e-01  7.1413539458910913e-01  8.6206363466612468e-01  1.0000000000000038e+00  -1.6587328832460765e-14  1.9649013791024564e-01  3.7989472309478084e-01  5.5127346424552404e-01  7.1145797553201573e-01  8.6113257886413008e-01  1.0000000000000042e+00  -1.7790239783989260e-14  2.0534462164376555e-01  3.9085790311025076e-01  5.6212645287379104e-01  7.2094039124169451e-01  8.6776673238893420e-01  1.0000000000000031e+00  -1.7207556955505583e-14  2.0049681962711263e-01  3.8725793640348505e-01  5.5882673891725809e-01  7.1665695167320853e-01  8.6250923754575637e-01  1.0000000000000036e+00  -1.9649974956753366e-14  1.6420001368332271e-01  3.3008072809754924e-01  4.9588626577092154e-01  6.6183281290314044e-01  8.2875257922336520e-01  1.0000000000000011e+00  -1.7950447016606510e-14  -1.7760710395650628e-14  -1.7728107237242973e-14  2.0457004860035935e-01  2.1939265395735688e-01  2.0787220297632869e-01  3.8997186235254722e-01  4.0840652385009485e-01  3.9380349545169568e-01  5.6096625709219861e-01  5.7937316840013042e-01  5.6478595235610463e-01  7.1944609605894316e-01  7.3550421181890502e-01  7.2275238601577496e-01  8.6658687954946634e-01  8.7721664142531830e-01  8.6857619243225526e-01  1.0000000000000031e+00  1.0000000000000031e+00  1.0000000000000029e+00  -1.6588629861832858e-14  1.7286065356835015e-01  3.4341099484172827e-01  5.1114836488609305e-01  6.7613384867425774e-01  8.3872865304693978e-01  1.0000000000000042e+00  -1.6750973424039646e-14  2.1547505438008774e-01  4.0533671819461065e-01  5.7695588251242880e-01  7.3294651827207291e-01  8.7467081766443922e-01  1.0000000000000040e+00  -1.7837588197821837e-14  1.8363665352777128e-01  3.5899292791551501e-01  5.2826413737112843e-01  6.9207950571784860e-01  8.5055474403754350e-01  1.0000000000000029e+00  -1.9048539632763201e-14  1.6364727779638719e-01  3.2760031126918043e-01  4.9228343360415161e-01  6.5837377210265446e-01  8.2670008689871544e-01  1.0000000000000018e+00  -1.7996497653541162e-14  -1.8029697854371346e-14  -1.7807180562048355e-14  1.9068943890948958e-01  1.7225896768521948e-01  1.8636228659619561e-01  3.6911627693379628e-01  3.4434428264416256e-01  3.6270783627948627e-01  5.3918352457657903e-01  5.1264275002839965e-01  5.3215215791933168e-01  7.0151144141610000e-01  6.7705368380102482e-01  6.9527790758704477e-01  8.5606688874473980e-01  8.3819661577800619e-01  8.5204285804478808e-01  1.0000000000000031e+00  1.0000000000000029e+00  1.0000000000000029e+00  1.0000000000000047e+00  6.1082579368306933e-01  7.6128224859219951e-01  -1.7908431151632932e-14  1.9282486653417330e-01  3.7598319085179499e-01  5.4701023022226358e-01  7.0654308162280921e-01  8.5606281275080875e-01  1.0000000000000029e+00  1.0000000000000047e+00  -1.7283469537163616e-14  -1.7287963053566245e-14  1.8246533184926678e-01  1.7431876481097364e-01  3.5697953953820249e-01  3.4485189581509462e-01  5.2596503017652863e-01  5.1260312343116021e-01  6.8982308220325106e-01  6.7778258198068653e-01  8.4843544084536937e-01  8.4042450281742109e-01  1.0000000000000036e+00  1.0000000000000036e+00  -1.7437429018365971e-14  1.9481163914956429e-01  3.7655483320654420e-01  5.4723362274546872e-01  7.0781886293600393e-01  8.5879904154725251e-01  1.0000000000000033e+00  -1.7189553180876187e-14  2.2095226842829496e-01  4.1049201601141017e-01  5.8155168086994169e-01  7.3718794859152537e-01  8.7843439961607550e-01  1.0000000000000036e+00  -1.7291841796102735e-14  1.6745855845719163e-01  3.3412997986366566e-01  5.0046529588720223e-01  6.6673840928251149e-01  8.3315592950967099e-01  1.0000000000000036e+00  -1.6617492046289405e-14  2.1726614315348824e-01  4.0730880474369785e-01  5.7901272756173516e-01  7.3495078208603404e-01  8.7605172243569274e-01  1.0000000000000042e+00  -1.8828598031975190e-14  -1.8630120987224431e-14  -1.8795598763241963e-14  1.6668122874232488e-01  1.7155804582129958e-01  1.6137991156160947e-01  3.3266053568644532e-01  3.3826560626504776e-01  3.2531913364843912e-01  4.9813045473039252e-01  5.0419214090420883e-01  4.8993343529909661e-01  6.6383906474750709e-01  6.7020260435101797e-01  6.5567770039450923e-01  8.3079581955958548e-01  8.3684582119619044e-01  8.2386848457935768e-01  1.0000000000000020e+00  1.0000000000000022e+00  1.0000000000000020e+00  -1.7386532625054085e-14  2.0300622606854968e-01  3.8677985937407489e-01  5.5748202517047873e-01  7.1670794482451683e-01  8.6519267003237044e-01  1.0000000000000033e+00  -1.9928792371793312e-14  -1.9917768499373871e-14  1.8938057028205948e-01  1.9089566295060306e-01  3.6675587694716816e-01  3.6950759730782906e-01  5.3626810983397000e-01  5.3922543189924999e-01  6.9875945523628824e-01  7.0104569329195277e-01  8.5423183264109803e-01  8.5521842473808063e-01  1.0000000000000009e+00  1.0000000000000009e+00  -1.8867827850075293e-14  -1.9027229802513887e-14  1.6311361080424505e-01  1.6955801987800567e-01  3.2662427257034360e-01  3.3404545040877759e-01  4.9105357499347302e-01  4.9897092940863463e-01  6.5718298150045484e-01  6.6529926761213209e-01  8.2621590156013647e-01  8.3386836232113770e-01  1.0000000000000018e+00  1.0000000000000020e+00  -1.9433608255210519e-14  -1.9220805170169281e-14  -1.942733966546163