<?xml version="1.0"?>
<VTKFile type="UnstructuredGrid"  version="0.1"  >
<UnstructuredGrid>
<Piece  NumberOfPoints="2098" NumberOfCells="9500">
<Points>
<DataArray  type="Float64"  NumberOfComponents="3"  format="ascii">6.918415688494489 1.342291281204931 1.78675641445025  6.870668226604906 1.304320388270824 1.875220355999042  6.814789887347318 1.353323796106977 1.762682499087119  6.816369599106427 1.29268514894722 1.734022409945216  6.874024211251125 1.240290755089247 1.853793687887143  6.918397721127083 1.280534828936567 1.760772854251563  6.877208014272616 1.176370813957901 1.832341795267029  6.918102701924384 1.21888531108611 1.734763703683339  6.81772493046383 1.23221632309025 1.705323681235388  6.917690533370862 1.157322920943074 1.708770125492908  6.880307690830349 1.112559998861172 1.810900631994961  6.818984036203301 1.171855305672971 1.676635360219514  6.917262798780683 1.095834157524221 1.682813271224162  6.883407406952685 1.048839900364557 1.789493327082652  6.820244221321617 1.111580839328489 1.647987814709853  6.916913545023544 1.034398309214658 1.656905236708547  6.886594258627589 0.9852113428875742 1.768144119153902  6.821617369919287 1.051369784790754 1.619402593573405  6.916759417494692 0.9729773418505598 1.63103656591355  6.889936372629981 0.9216168395391917 1.746833298618195  6.823247104645914 0.9912132699966306 1.59089701585272  8.012256321013862 1.557331764620685 2.883399768510336  7.909690654241443 1.572431076726343 2.924486961336409  7.953959780203164 1.513293336318582 2.81017847784722  7.958426166725816 1.462420280870411 2.837432570456956  6.255082385731794 1.566473477337143 1.435630949835534  6.275002010296897 1.690663204916957 1.353010448185869  6.376775037871307 1.635959540067177 1.40554488535917  6.38416800755081 1.600744863658552 1.356028033474773  6.283996371635302 1.658002326306654 1.303133492298425  6.264228532120765 1.528730074669542 1.388497557362762  6.293197301815034 1.625421749358413 1.253431246722047  6.27364656475822 1.491143008196747 1.341452511140558  6.391690980661442 1.565669861567606 1.306706433267877  6.302550088074621 1.592960204761974 1.20383678762928  6.283210235156846 1.453693452495211 1.294506408250718  6.399336415039286 1.530731787135682 1.257497343118414  6.292796321852919 1.416325957935642 1.24766772937297  6.311933057863657 1.560592170862288 1.154379353223212  6.407022133606283 1.495875807173152 1.208404450824032  6.302267184542239 1.379024669902349 1.20097314643551  6.321220412273778 1.528273037724109 1.105053413924843  6.414662304536792 1.461098253737708 1.159494981803283  6.311425656802648 1.341749469512329 1.154456080600428  6.330190793608695 1.496002735422186 1.055911422946877  6.422106674469466 1.426414732375662 1.110836138668561  7.265710871593158 2.028699415619498 1.080181509938484  7.154424053786584 1.999189660192914 1.110369026446491  7.213083577356434 2.122717654509046 1.037700169150654  7.20568980518121 2.09428788128828 0.982450704679547  7.145078804927564 1.969265247746307 1.056159032522505  7.258445685648654 1.999477898204909 1.02524995442615  7.197849574945541 2.065811251643989 0.9271597984935326  7.135273231378719 1.939266055804421 1.00201461622661  7.250741687486885 1.970161193834136 0.9702710283874519  7.189854721212983 2.037292279517957 0.8718326488782486  7.125285695845184 1.909234491569219 0.9478940005479379  7.242894407913056 1.940788414232399 0.9152512492570293  7.181901042577612 2.008735290479561 0.8164735353574606  7.115331940092511 1.879192452601333 0.8937673243331995  7.235098522055955 1.911375276650617 0.8601873978621158  7.174160169677406 1.980129585318944 0.761071722176457  7.105605237714195 1.849151872687635 0.8395956628160226  7.227515099590922 1.881923223737283 0.8050548603000819  7.166762810656818 1.951477574780643 0.7055745849501761  7.096276421034206 1.819121825831367 0.7853038000912642  7.220244302529994 1.852447154391085 0.7497658441568098  7.632856450548441 1.760811300761715 1.222590031346605  7.521914807488933 1.743486294555148 1.227971490240614  7.592825639395671 1.839040631407414 1.173086843561535  7.598097963276611 1.807714516921841 1.117446607790699  7.521581533607165 1.706151084868306 1.174838250531894  7.638520172098516 1.727387453391457 1.167547185323881  7.60334205708584 1.776167188127122 1.061658841556841  7.521028494840163 1.668602094109703 1.121631693086387  7.644147244532736 1.693714111286037 1.11239771818749  7.60857249621359 1.744534873525738 1.005734562115162  7.520415214065998 1.63095667681793 1.068336397332083  7.649759420874334 1.659957811951161 1.05713556009956  7.613798681672336 1.712899549786171 0.9496682641267675  7.519831619537139 1.59328964959122 1.014942182085192  6.399407468720925 1.371400472671183 1.668192085021196  6.27736734547757 1.405805006640331 1.593518731302049  6.394446678056792 1.448897459389938 1.56391136550219  6.402013722532634 1.40373104649299 1.520852134123718  6.285978070269195 1.358611652002643 1.553680669606272  6.407849726845731 1.320234655256392 1.632077100934915  6.409760658291209 1.358806379837016 1.477826920773256  6.294822097268161 1.311634010218779 1.51384348155154  6.416468258561867 1.269296709881409 1.595933866714303  6.417605886042821 1.314045520947972 1.434869309217113  6.303789443905083 1.264805913064749 1.474060720876272  6.42518716073932 1.218518896289959 1.559816866751533  6.425490120852493 1.269396823069324 1.392019954590381  6.312781586976456 1.218073647939037 1.434358367525118  6.433941144578889 1.167848716526569 1.523768504598063  6.433356168059331 1.224848159167062 1.349346337155369  6.321687545730988 1.17141364609113 1.394783022404374  6.442664008860942 1.117271930636397 1.487843956384546  6.441008778484916 1.180380721880215 1.306905054308686  6.330363643918145 1.124824675385418 1.355402356874943  6.451234115683985 1.066816277539306 1.452131741925589  7.292756227993745 1.300991715429311 2.408625508836266  7.284177267023757 1.324468177797491 2.52207737481427  7.181974771561969 1.297278564744588 2.479902748850964  7.190580282547489 1.235358274923346 2.494036321681926  7.292545508266485 1.264994375709299 2.541068123898997  7.301204514821936 1.239035292882871 2.419305040832407  7.199184897634241 1.173505694016763 2.508167253060124  7.300927635793002 1.205596691878193 2.560028298454286  7.309662289330936 1.177152462821939 2.430013151202469  7.207756946790779 1.111708451301573 2.522284102603933  7.309286989016273 1.146251884390441 2.578963971086933  7.318087063072966 1.115320212159839 2.440720483000406  7.216282835461029 1.049961150275544 2.536390486342949  7.317600037944199 1.086954278520713 2.597883241611036  7.326466550422058 1.053532761033975 2.451422135079984  7.22474152092977 0.9882648360248336 2.55048837526752  7.325837304447353 1.027712001785456 2.616790709235295  7.334780376813269 0.9917938594395702 2.462111506942326  7.233089724055974 0.9266141093006814 2.564560959901237  7.333999562160336 0.9685533526169448 2.635696109118987  7.342980390921398 0.9301045036009321 2.472787228585399  6.727576583872723 1.305239663665317 1.847348825110546  6.731106801930526 1.243665921970429 1.823040414571729  6.734479226638895 1.182254893531887 1.798680531306569  6.737799335166249 1.120965935520514 1.774325882183002  6.741126975888909 1.059786201367574 1.750008289001055  6.744546423011216 0.998737179689035 1.725761980979184  6.748322748292011 0.9378039284172851 1.701632684428622  6.488718910873065 1.587031610085069 1.457830120654309  6.485178574600392 1.679346238605477 1.389133158109627  6.489947027474532 1.645225150307146 1.338025736212638  6.493943502059325 1.548026159965623 1.409514116843837  6.494743916325944 1.611217774290675 1.287121471785315  6.499208887081362 1.509196829518136 1.361340872613457  6.499602099790047 1.577337277843625 1.236364809485948  6.504542982735749 1.470517249882245 1.313280284143344  6.504497241593102 1.543546869345791 1.185752532549311  6.509916149499253 1.431932193799958 1.265345439250489  6.509413397948987 1.509843036672293 1.135324766579526  6.51531734986238 1.393432892013745 1.217580148742847  6.514303000845648 1.476247577918677 1.085173991364418  6.520719048040111 1.355059337615398 1.170093850358279  6.919935994666382 1.656715491140761 1.388551807442606  6.813700877555132 1.654982659833158 1.408156181718905  6.889247436518016 1.735928278239675 1.3364980763142  6.879775204946228 1.700026409352153 1.285130531607466  6.808511145664947 1.616169086572886 1.357029077819834  6.910788164735791 1.616842868082017 1.339113455399254  6.86995585666985 1.664189071248751 1.233954469553713  6.803050548352581 1.577485643239917 1.306058059375796  6.901274562967308 1.57706535945285 1.289846408042878  6.859932933639044 1.628393613285344 1.182950988509245  6.797443661823501 1.538875282517544 1.255249298023814  6.891577411785214 1.537335296372076 1.240725367155564  6.849885160583908 1.592645859249751 1.132072346269014  6.791832967183504 1.50032516514365 1.204575474962905  6.881867432316049 1.497656482797607 1.19171913234838  6.83999734942337 1.556966288721719 1.08129983441048  6.7863696400936 1.461848970954788 1.154023354517917  6.872314601660951 1.458056735027089 1.142815434282112  6.830533425397327 1.521400758693508 1.030619078593029  6.781201416811379 1.423477908509344 1.103624615550264  6.863170346728377 1.418580169244189 1.094022137944291  7.20171463712837 1.285402893763407 2.35799098593728  7.208049120836899 1.221858378789534 2.364395505738853  7.214310323970917 1.158357843813938 2.370849911129554  7.220519031127771 1.094898911687455 2.377316016779236  7.226682889858678 1.03147325803308 2.383783923990276  7.232805368767949 0.9680768670147351 2.390243348902491  7.238911718659836 0.9047237047037806 2.396667981232961  6.292290217831377 1.318900130748111 1.71719331846123  6.302735243347526 1.266976336830907 1.683214262507399  6.31345410053991 1.21528519224771 1.649199926388924  6.324306586065184 1.16372498456704 1.615193283669533  6.335184098100453 1.112253494645148 1.581237495518549  6.345959615822566 1.060840822438941 1.547377566592261  7.8295170567910
[...]
<PointData  Scalars="f_14"> 
<DataArray  type="Float64"  Name="f_14"  format="ascii">-9.4864810445158769e-15  -9.5714920123788685e-15  -9.6565554466537531e-15  1.8295262688823019e-01  1.9639109990846151e-01  1.9015585716187894e-01  3.7749278190851693e-01  3.7049672175254378e-01  3.6286181263315370e-01  5.4111172754394266e-01  5.4898224814198493e-01  5.3420961116218058e-01  7.0258825122060264e-01  7.1169608958325148e-01  6.9702635858105511e-01  8.5528270232782344e-01  8.6458057898028340e-01  8.5168078788060309e-01  1.0000000000000113e+00  1.0000000000000113e+00  1.0000000000000111e+00  -7.5973263230723188e-15  -7.7861203187806375e-15  -7.7092590933089042e-15  1.7921313047487875e-01  -1.0568976472082444e-14  -1.0512961759764043e-14  -1.0343942451312897e-14  1.7544862852477530e-01  1.7183553345272162e-01  1.8204343333428391e-01  3.4093845272073903e-01  3.5523089570184063e-01  3.4509724348057719e-01  5.0778016995594943e-01  5.2322171708407894e-01  5.1209755083896957e-01  6.8709829978301995e-01  6.7283791039077290e-01  6.7719323959067201e-01  8.4676294491403636e-01  8.3666284293560733e-01  8.4060236051382931e-01  1.0000000000000102e+00  1.0000000000000104e+00  1.0000000000000104e+00  -8.7393448816966194e-15  -8.9548431445123203e-15  -8.8151004876354469e-15  1.7898246014127148e-01  1.8281626090469832e-01  1.8172345551356087e-01  3.5300099404822671e-01  3.5736431818861386e-01  3.5722948533221000e-01  5.2150014065700923e-01  5.2603387359629838e-01  5.2611185033860919e-01  6.8483641721496502e-01  6.8950291693784882e-01  6.8881971245870199e-01  8.4374107321894898e-01  8.4788698574850352e-01  8.4614387306846939e-01  1.0000000000000120e+00  1.0000000000000118e+00  1.0000000000000120e+00  -8.1263583890793741e-15  -8.3391629117605165e-15  -8.1749613877470097e-15  1.9941875962142558e-01  2.0707536166484566e-01  2.0751694749974334e-01  3.8456292055361130e-01  3.9511395913408881e-01  3.9585126857111191e-01  5.5611068032851052e-01  5.6703188577645658e-01  5.6770648728789397e-01  7.1520846600428711e-01  7.2467084194971076e-01  -1.0347926950545063e-14  -1.0556229638695336e-14  -1.0345455500310877e-14  1.9325782301618391e-01  1.8585301451627537e-01  1.8162014171547591e-01  3.6925268933395505e-01  3.6139880994860157e-01  3.5644608750048068e-01  5.3781748260099760e-01  5.3003057865038516e-01  5.2490501851150129e-01  7.0066481292714522e-01  6.9281847704846145e-01  6.8779567560446042e-01  8.5743526703938300e-01  8.5011162601599510e-01  8.4588409509672136e-01  1.0000000000000104e+00  1.0000000000000102e+00  1.0000000000000104e+00  -8.8746737623819138e-15  -8.8888047782993716e-15  -9.0639818657301853e-15  1.9916793001461824e-01  1.9299772994300227e-01  1.9057234435398357e-01  3.7930865653964135e-01  3.7086751549328900e-01  3.6923861490884158e-01  5.4919692502046524e-01  5.4035505740756595e-01  5.3896214285484134e-01  7.1039392778801624e-01  7.0278171576004067e-01  7.0074238864717275e-01  8.6225573036784697e-01  8.5811762905955624e-01  8.5486018734914637e-01  1.0000000000000118e+00  1.0000000000000120e+00  1.0000000000000120e+00  -9.8098479572389555e-15  1.9440534294499195e-01  3.7223762970539137e-01  5.4182715339921994e-01  7.0427805213311068e-01  8.5900295809205796e-01  1.0000000000000111e+00  -1.0161051944374695e-14  -1.0152197472225683e-14  1.7072848222190862e-01  1.7404612538533887e-01  3.3821750975511822e-01  3.4400434402537206e-01  5.0448022125833436e-01  5.1104941766250689e-01  6.7028328401049975e-01  6.7565733333456990e-01  8.3604622544938845e-01  8.3843175995787833e-01  1.0000000000000107e+00  1.0000000000000107e+00  -9.4379541216491779e-15  -9.6142850615144153e-15  -9.4797483584668731e-15  1.7077979259810896e-01  1.7028586859142644e-01  1.7993673871146248e-01  3.3932960653522493e-01  3.4080743474161562e-01  3.5200605506392441e-01  5.0619127537372155e-01  5.0917829847906770e-01  5.1984351452511013e-01  6.7164813276441904e-01  6.7492871199692395e-01  6.8399043392703551e-01  8.3621637842473462e-01  8.3809166920119360e-01  8.4487188752873599e-01  1.0000000000000113e+00  1.0000000000000111e+00  1.0000000000000113e+00  -9.0320602578251596e-15  1.8432181540644230e-01  3.6214692640603741e-01  5.3168623499304313e-01  6.9350417459442781e-01  8.4871179081117487e-01  1.0000000000000118e+00  -1.0539702467486131e-14  1.8228818598618185e-01  3.5822277756352239e-01  5.2698850024978894e-01  6.8949712540192132e-01  8.4657067842956157e-01  -7.9369204514621564e-15  1.7660787831360777e-01  -8.3884896669943564e-15  2.1575492192284912e-01  4.0109550626500440e-01  5.7195413114789762e-01  7.3067807064760515e-01  8.6291549162559134e-01  8.7657293171124728e-01  8.6897381813789454e-01  1.0000000000000127e+00  1.0000000000000124e+00  1.0000000000000124e+00  -9.0467920086994004e-15  1.8059716813614871e-01  3.5324860374591777e-01  5.2143508408761674e-01  6.8578408321940043e-01  8.4623528326079267e-01  1.0000000000000118e+00  -9.7953816651668953e-15  -9.9940417120476524e-15  -9.8464796887161745e-15  1.7230903730129826e-01  1.5892594014299422e-01  1.5692270644147138e-01  3.2041939871985531e-01  3.2168503977873164e-01  3.4061801243870937e-01  4.8689963871390340e-01  4.8628346400564954e-01  5.0841388354989581e-01  6.5422861851482406e-01  6.5404998408012105e-01  6.7595777214686525e-01  8.2427101393058733e-01  8.2429950927790951e-01  8.4231673935573625e-01  1.0000000000000111e+00  1.0000000000000109e+00  1.0000000000000109e+00  6.9182312907982035e-01  8.4860495011468717e-01  -1.0251270884387713e-14  -1.0020260142894058e-14  -1.0346005004663602e-14  1.7547342320002512e-01  3.4723313106505199e-01  5.1484685491611137e-01  6.7882978302545716e-01  8.3985800280907053e-01  1.0000000000000104e+00  -9.8705472332486214e-15  1.5162569152925112e-01  3.1278565104653694e-01  4.7776752653060950e-01  6.4599681156703681e-01  8.1807526510721518e-01  1.0000000000000109e+00  -9.6601709902454958e-15  1.6268963643872689e-01  3.2876630613239732e-01  4.9564348461055335e-01  6.6304951863748129e-01  8.3094040810026204e-01  1.0000000000000111e+00  -9.4635228517552596e-15  -9.3733950438846885e-15  -9.5757595082965623e-15  1.7770351273104715e-01  1.9199287120459008e-01  1.8034224219449740e-01  3.5180399610197899e-01  3.7082943025799142e-01  3.5390909118350400e-01  5.2134369334168817e-01  5.4167561957159882e-01  5.2287421592149708e-01  6.8627062518879778e-01  7.0513119291540394e-01  6.8751597972897660e-01  8.4617970817060140e-01  8.6009310746815137e-01  8.4733820967906093e-01  1.0000000000000115e+00  1.0000000000000113e+00  1.0000000000000113e+00  5.3684179892007022e-01  5.4018223015105271e-01  5.4224545886697528e-01  3.7007826724078158e-01  3.6711599099966952e-01  7.0416437965500978e-01  6.9929820357511263e-01  7.0195671340807364e-01  8.5798966008225563e-01  8.5471444843512068e-01  8.5566205996531564e-01  1.0000000000000109e+00  1.0000000000000111e+00  1.0000000000000111e+00  5.2704919143515638e-01  6.8915561892495847e-01  8.4491915563467967e-01  1.0000000000000111e+00  1.0000000000000122e+00  1.0000000000000122e+00  1.0000000000000120e+00  8.4213464934485138e-01  -9.2305454734660088e-15  1.8696120750298320e-01  3.6546598219793119e-01  5.3540493289740310e-01  6.9720347145393891e-01  8.5155789509525137e-01  1.0000000000000115e+00  -8.5499920857798517e-15  -8.7545599012632156e-15  -8.6748201898301937e-15  1.7727027734457529e-01  1.7254820491265518e-01  1.7643205518201582e-01  3.4917716282111516e-01  3.4165601492363423e-01  3.4692519173223468e-01  5.1712442884004761e-01  5.0874700234963610e-01  5.1438711572268081e-01  6.8159515285329253e-01  6.7419714470439995e-01  6.7944683062471600e-01  8.4285937569787839e-01  8.3817255214241670e-01  1.0000000000000122e+00  -1.0413686009298015e-14  -1.0307286025185670e-14  1.6273092330526504e-01  1.6773375348106562e-01  3.3403614902717854e-01  3.2850606185785031e-01  4.9422411857694276e-01  4.9982214908616379e-01  6.6003130119869413e-01  6.6589748506556590e-01  8.2703220115293707e-01  8.3268705253432751e-01  1.0000000000000104e+00  1.8012682219370887e-01  3.5584359421739220e-01  5.2534379219700644e-01  6.8871656320233565e-01  8.4627839611515077e-01  1.0000000000000111e+00  -8.9448484287043217e-15  -8.9503053673294748e-15  -9.1476945272996606e-15  1.8763488038780701e-01  1.9086474669854467e-01  1.8715338910778434e-01  3.6534962772137514e-01  3.6898823190390451e-01  3.6513004347068084e-01  5.3487708553254654e-01  5.3848210591265622e-01  5.3471364136639621e-01  6.9687635602691278e-01  7.0030592222926180e-01  6.9662182363771563e-01  8.5186527444627402e-01  8.5502542435165385e-01  8.5151159327806403e-01  1.0000000000000115e+00  1.0000000000000118e+00  1.0000000000000118e+00  -9.1107041104565039e-15  1.9290534251945793e-01  3.7134260878212910e-01  5.4089124268702526e-01  7.0269922228850878e-01  8.5707548651485710e-01  1.0000000000000118e+00  -9.2891262274303631e-15  1.9537521228449548e-01  3.7573678356797113e-01  5.4607960581783088e-01  7.0734073542695763e-01  8.5936976744831817e-01  1.0000000000000115e+00  -8.1371960697603745e-15  -8.2901233205481306e-15  -8.2806871319789789e-15  1.8324519008642193e-01  1.8823464305788670e-01  1.8197532935055638e-01  3.5946944636294526e-01  3.6466549068152421e-01  3.5848815670421441e-01  5.2860705211594583e-01  5.3368751225079780e-01  5.2773732528130690e-01  6.9117125524825507e-01  6.9633329028099700e-01  6.9024441643424717e-01  8.4792306395217187e-01  8.5263842844308957e-01  8.4678342522098726e-01  1.0000000000000124e+00  1.0000000000000124e+00  1.0000000000000127e+00  5.2281242688181107e-01  6.8616000652294828e-01  8.4460240070394321e-01  1.0000000000000111e+00  -8.1817595352153298e-15  1.9103603066932479e-01  3.7218484523024853e-01  5.4289515422332957e-01  7.0388137666189032e-01  8.5605635540390101e-01  1.0000000000000127e+00  1.5798220604748250e-01  3.1892999896153518e-01  4.8304264588690327e-01  6.5045500042733839e-01  8.2208017115633214e-01  1.0000000000000109e+00  -9.4732312621552801e-15  1.6443651206029791e-01  3.3053626074103243e-01  4.9650619914825000e-01  6.6231646269893951e-01  8.2861997572731116e-01  1.0000000000000113e+00  -8.9807936647932095e-15  1.7463744620363114e-01  3.4880741420283395e-01  5.1770502553398645e-01  6.8128126486702634e-01  8.4050126373420120e-01  1.0000000000000118e+00  8.4726562240518266e-01  1.0000000000000102e+00  -1.0246614014703355e-14  1.6696670036607450e-01  -9.9438703574319205e-15  -1.0117348715323932e-14  1.5720067068844240e-01  1.5713864743487518e-01  3.1787913080717151e-01  3.1824736014186394e-01  4.8215532746460382e-01  4.8210633255256435e-01  6.5014713028554116e-01  6.4917022075014585e-01  8.2230728407626996e-01  8.2052364800018984e-01  1.0000000000000109e+00  1.0000000000000107e+00  -9.6556796906869085e-15  1.6806685116568340e-01  3.3322378625821553e-01  4.9957096034507986e-01  6.6753711880679489e-01  8.3671667977710285e-01  1.0000000000000111e+00  -8.3906706924611137e-15  1.9183856009549982e-01  3.7176332839945953e-01  5.4191357702172582e-01  7.0318916139133547e-01  8.5612537456169324e-01  1.0000000000000124e+00  -9.1734359892612556e-15  1.9107282540632203e-01  3.6937850733246053e-01  5.3923257540332603e-01  7.0149834672840927e-01  8.5612559535775545e-01  1.0000000000000115e+00  -8.4747705870538271e-15  1.8098739461803545e-01  3.5680526206483193e-01  5.2589395341978629e-01  6.8854656215192256e-01  8.4564100611151549e-01  1.0000000000000124e+00  -9.0615197096973620e-15  1.8463212000718268e-01  3.5889059851446947e-01  5.2764797889817594e-01  6.9175360360627358e-01  8.5078161369098815e-01  1.0000000000000118e+00  -1.0215873794420984e-14  -1.0045618021353277e-14  1.6684560723023631e-01  -1.0499371063185789e-14  1.7814785622177551e-01  3.5179294013122908e-01  5.2003849186882845e-01  6.8347890108146070e-01  8.4290217530449485e-01  1.0000000000000104e+00  -7.8727638946729862e-15  -8.0886421559902879e-15  -7.9694614207769985e-15  1.8469285098984134e-01  1.8040528351070428e-01  1.8138677493989330e-01  3.5708828699657880e-01  3.6108234119077287e-01  3.5542954238737617e-01  5.2623681857847293e-01  5.3029883224223640e-01  -8.2906643462995771e-15  -8.3633497109218752e-15  -8.5102712929728064e-15  1.9799909895285661e-01  1.8464704535654400e-01  1.9640006903684645e-01  3.7834359341220447e-01  3.6228993604548360e-01  3.7536155401368049e-01  5.4835151102588198e-01  5.3193178223637672e-01  5.4504000300371402e-01  7.0950503786077113e-01  6.9406935107128664e-01  7.0676305088354208e-01  8.6150433319314523e-01  8.4943227900963403e-01  8.6025346476112508e-01  1.0000000000000122e+00  1.0000000000000124e+00  1.0000000000000124e+00  -8.3819739735810823e-15  1.8683834492088813e-01  3.6530645827986441e-01  5.3510862856752239e-01  6.9691018077874167e-01  8.5142662505858169e-01  1.0000000000000124e+00  3.5756657983509005e-01  5.2622742590452432e-01  6.8928187441890765e-01  4.9529316379694216e-01  4.8426282921906905e-01  3.2006476423969460e-01  6.5106745770523122e-01  6.6177989127938341e-01  8.2160634423350110e-01  -1.0016269383559016e-14  -1.0201740245676491e-14  -1.0178989638853677e-14  1.6245059632842609e-01  1.6216006120798476e-01  1.5809053253373115e-01  3.2617911278451645e-01  3.2440310140040540e-01  4.9112989280021108e-01  4.8887968885069211e-01  6.5774919445546542e-01  6.5619028205824259e-01  8.2679247926054023e-01  8.2695775199102584e-01  1.0000000000000107e+00  1.0000000000000109e+00  -7.8423500401556589e-15  1.9305561131967658e-01  3.7076149276658937e-01  3.4927573487865082e-01  3.5358428195492730e-01  5.4015977591087683e-01  -9.2598533924674364e-15  1.9086357576525118e-01  3.6836657330477746e-01  5.3827141639506437e-01  7.0129347205169534e-01  8.5651719498054824e-01  1.0000000000000115e+00  -1.0634747548115336e-14  -1.0472176610501769e-14  -1.0594498679896514e-14  1.8227562083461563e-01  1.9010290171767463e-01  1.9930158105174500e-01  3.5834505877493450e-01  3.6859418315627757e-01  3.7992332844693061e-01  5.2708570191591242e-01  -9.3697917508378176e-15  1.8759617327947803e-01  3.6742247829164876e-01  5.3840951877833609e-01  7.0082646602033050e-01  8.5470730245445303e-01  1.0000000000000115e+00  -9.9123347401248528e-15  -9.9811236258039669e-15  -1.0087286741784824e-14  1.9100755851614060e-01  1.8926681521772745e-01  1.9148194667899049e-01  3.6750862513581078e-01  3.6604233531493169e-01  3.6799502548403051e-01  5.3643422697123366e-01  5.3511672884077843e-01  5.3694847030004733e-01  6.9916064155776769e-01  6.9757664747906512e-01  6.9940855739627017e-01  8.5544264362647071e-01  8.5364686284752456e-01  8.5546856032990271e-01  1.0000000000000107e+00  1.0000000000000109e+00  1.0000000000000109e+00  -8.5387856430186915e-15  1.8968664946374361e-01  3.6929342181523261e-01  5.3948832689519921e-01  7.0106721620058166e-01  8.5459172440488340e-01  1.0000000000000122e+00  -9.1653632606937484e-15  1.7522885230126409e-01  3.4677574076676659e-01  5.1494153223788586e-01  6.7995254623577095e-01  8.4183653213086906e-01  1.0000000000000115e+00  -9.8365566927760067e-15  1.9061369080025561e-01  3.6858126036259292e-01  5.3827354086514900e-01  7.0075305549592437e-01  8.5616737261554021e-01  1.0000000000000109e+00  3.5572568030656276e-01  5.2470279029886968e-01  6.8718070620758720e-01  -1.0335679919536394e-14  1.9002565925366566e-01  3.6601881953037668e-01  5.3464017375575379e-01  6.9734800358355109e-01  8.5405911387150824e-01  1.0000000000000104e+00  -8.0689216077042072e-15  1.8859070579325612e-01  3.6416144335690831e-01  5.3298388356458271e-01  5.1757851251132780e-01  6.9621816022972904e-01  6.8176953098511861e-01  7.0264850019653557e-01  8.5336349764802888e-01  8.5760886663948066e-01  -8.8600679514102955e-15  1.7846875539334667e-01  3.5212190471532906e-01  5.2059368100821513e-01  6.8413454684802233e-01  8.4339846760766823e-01  1.0000000000000120e+00  -9.9849433274970551e-15  1.5308896434241293e-01  3.1301090887620503e-01  4.7667497181798579e-01  6.4411056204516015e-01  8.1654133615353386e-01  1.0000000000000109e+00  -7.8600602351507704e-15  -8.0757020965208105e-15  -7.8932512542761546e-15  1.8288454292750059e-01  1.8530836379044829e-01  1.8718010486964073e-01  3.5991228664253416e-01  3.6078256633035816e-01  3.6478488212528387e-01  5.2963399819373957e-01  5.2984652750103256e-01  5.3452629276509878e-01  6.9235173897121294e-01  6.9305324915783162e-01  6.9695479972165508e-01  8.4869537493550751e-01  8.5055207558524459e-01  8.5238911954360830e-01  1.0000000000000127e+00  1.0000000000000129e+00  1.0000000000000129e+00  -1.0462844507723456e-14  1.8663799962572633e-01  3.6220277052416461e-01  5.3086040045578353e-01  -8.7227405080664831e-15  1.8949010368339225e-01  3.6894092574584397e-01  5.3886798590862517e-01  7.0014195788056954e-01  8.5350760669543957e-01  1.0000000000000120e+00  3.6979291208376042e-01  5.3898082564155680e-01  7.0112865094122889e-01  -9.7349249350564421e-15  1.8292828530004729e-01  3.5985513847561446e-01  5.2967042691246569e-01  6.9274320510232335e-01  8.4960310776393655e-01  1.0000000000000111e+00  -9.9831557604148259e-15  1.7874511020393963e-01  3.5342712939088283e-01  5.2210885361742154e-01  6.8506810546679242e-01  8.4316623920276490e-01  1.0000000000000109e+00  -8.0957633638099243e-15  1.9186743197591002e-01  3.6908776025257806e-01  5.3835255431639839e-01  7.0082590754768259e-01  8.5626089404288874e-01  1.0000000000000127e+00  -9.9978972356243478e-15  1.7868591183810700e-01  3.5364123474200820e-01  5.2234926261387393e-01  6.8524707736738133e-01  8.4344980546776649e-01  1.0000000000000109e+00  -9.0800999828915935e-15  1.7664531148524859e-01  3.4850377749212436e-01  5.1654374157007865e-01  6.8108742729606575e-01  8.4237965408340676e-01  1.0000000000000118e+00  -1.0326194569969077e-14  1.7407454095881225e-01  3.4820403623750684e-01  5.1666073587071248e-01  6.7963469885372330e-01  -8.0732492743940193e-15  -8.2285626782055561e-15  -8.0315511096413885e-15  2.1868067713907349e-01  2.2194744126989763e-01  2.0400795592940291e-01  4.0947206729632679e-01  4.1184838183831607e-01  3.9142146337096662e-01  5.8117469554690815e-01  5.8313131187111544e-01  5.6314477998489232e-01  7.3675475740671814e-01  7.3886954768175661e-01  7.2078873768791840e-01  1.0000000000000127e+00  1.0000000000000127e+00  1.0000000000000129e+00  8.6588724563998554e-01  8.7959472583304232e-01  3.3380206011150876e-01  5.0047639513433351e-01  6.6700801694180589e-01  8.3338866308821280e-01  1.0000000000000109e+00  -8.8700424029476478e-15  1.7405548965638548e-01  3.4520457672036875e-01  5.1311757916987155e-01  6.7776168707661011e-01  8.3950479688300850e-01  1.0000000000000120e+00  -8.5715112092677534e-15  1.8889121025214259e-01  3.6744609374313153e-01  5.3726610685243525e-01  6.9912694472953307e-01  8.5352160196854743e-01  1.0000000000000122e+00  -9.4778311192430976e-15  1.7458687740341061e-01  3.4871957685854177e-01  5.1742239156507086e-01  6.8081684398083764e-01  8.3975267517630181e-01  1.0000000000000113e+00  -7.8767390599991201e-15  -7.8212606651201193e-15  2.2006148556872965e-01  2.1249944221717876e-01  4.0953769636330611e-01  -9.2898595892178404e-15  1.8026060364639196e-01  3.5736722198379178e-01  5.2714527883621509e-01  6.8946290434128599e-01  8.4523316582496755e-01  1.0000000000000115e+00  -9.9164265114475770e-15  1.7010058997696281e-01  3.4336648281166049e-01  5.1190437187934734e-01  6.7515064429149552e-01  8.3475115322576332e-01  1.0000000000000109e+00  -9.9994321387341114e-15  -1.0134255888343461e-14  1.8266033681790952e-01  1.8102655723215869e-01  3.5717838700338800e-01  3.5563800422401093e-01  5.2558449352343239e-01  5.2413574106267091e-01  6.8860887216973687e-01  6.8708833985393103e-01  8.4688705262600972e-01  8.4521304243103934e-01  1.0000000000000107e+00  1.0000000000000109e+00  6.9328115351574526e-01  -9.8039651198600110e-15  -9.9715741399606750e-15  -9.7983061622225765e-15  1.7332626214646474e-01  1.7133387727503219e-01  1.7728822677456965e-01  3.4202016750455821e-01  3.3990813572726847e-01  3.4992833928933653e-01  5.0981362843241185e-01  5.0682497282013372e-01  5.1874156721012488e-01  6.7694332284838865e-01  6.7229542527416375e-01  6.8398590962461081e-01  8.4270847170116248e-01  8.3639347772886041e-01  8.4531519858016690e-01  1.00000000000001