<?xml version="1.0"?>
<VTKFile type="UnstructuredGrid"  version="0.1"  >
<UnstructuredGrid>
<Piece  NumberOfPoints="2132" NumberOfCells="9705">
<Points>
<DataArray  type="Float64"  NumberOfComponents="3"  format="ascii">6.295917202692371 3.245075399111341 4.080354225475965  6.405817977821505 3.18736647556823 4.143558021735036  6.419617239215071 3.297253761916869 4.064938660382502  6.405809185813004 3.345403822625002 4.125821365540584  6.394698659229316 3.231275804179999 4.210275096036864  6.28374918258186 3.293445442216659 4.141858601372567  6.392138991369293 3.393474622013472 4.186658778910383  6.383676800464774 3.275101300998423 4.276914758215902  6.271671033661703 3.341690883525617 4.203360914028063  6.259660847282538 3.389865977874946 4.264851461958171  6.372716323003821 3.318858940762757 4.343497715672147  6.378552460465253 3.441468416981439 4.247451182638961  6.24769612769501 3.437997204352941 4.326320335086385  6.350865331109472 3.406156344882827 4.476579846795633  6.235732601403165 3.486084939663082 4.387779396332474  6.351447243964118 3.537269749213937 4.368970931041748  6.361788693089028 3.362546673934545 4.410047727421651  6.339913447568934 3.449681209108572 4.543141306270696  6.223737640074126 3.534152135148025 4.449228595108988  6.337819080634379 3.585059201665868 4.429732127645279  5.83349320170168 2.396159728010131 4.232392342208047  5.991660867185877 2.365521959297128 4.230851136380902  5.954891390459629 2.511707350870121 4.259667658048257  5.95020889244117 2.501020180564715 4.342121305910991  5.98777254567937 2.342692910521508 4.309751047119654  5.831423365676634 2.377399662591351 4.312785350847534  5.945453596487776 2.490351016458935 4.424467096895794  5.98379693808737 2.31988494324799 4.388564596982912  5.829284845680042 2.358661909129329 4.393067542272558  5.940654760372648 2.479658978804046 4.506715615773973  5.979771038716313 2.297078588953686 4.467313158877489  5.827104997729361 2.339917856308037 4.473258726213913  5.935856781069462 2.468938066314953 4.588895952171259  5.97572777316647 2.274266234873029 4.546012510023073  5.824901982272516 2.321168300894866 4.553383073712863  5.822727596870475 2.302390599700626 4.633447796062099  5.971735443623333 2.251424767141494 4.624662560838557  5.9310951690378 2.45818960494154 4.671001083677912  5.820677696819946 2.283563739265053 4.713433169059269  5.967885816561587 2.228539138217999 4.703251852502311  5.926455940329285 2.447378319462262 4.753046056452628  5.46416211743795 2.745381363019189 4.248333246495232  5.445185818525446 2.583683449095705 4.262065620326183  5.577223024224714 2.615426168780923 4.261161341783235  5.577223809725 2.618916380294633 4.346028667088579  5.444124763210901 2.584099983043564 4.346994615351176  5.462190897623173 2.760343159600615 4.332259774689946  5.460129636970285 2.775265876016151 4.416009361948674  5.44299127908713 2.584521435166526 4.431728621824349  5.577131977078432 2.622407515446983 4.430702311519294  5.458015081390811 2.790116899844765 4.499594853850535  5.4418149906305 2.584902252258735 4.516302721522528  5.576997338517426 2.625859480615969 4.515223540682702  5.455892326288686 2.804895899880462 4.583061817719599  5.440645391814512 2.58523960664923 4.600761864375573  5.576860311569167 2.629265198859982 4.599637843110506  5.576750469346861 2.632640727124401 4.683985206098123  5.439505318622793 2.585547272194503 4.685148156962217  5.453814326464903 2.819622866524005 4.666420285521215  5.576727473489903 2.635957368153128 4.768284752294345  5.438472957667394 2.585788881219743 4.769475529212078  5.451847215506798 2.834269349409657 4.749712374908502  4.861670944494636 3.165642018257675 3.969432872330497  4.972270084964597 3.243188431727228 3.934015046188039  4.857860567867924 3.284027439306707 3.855140114663827  4.837777269009974 3.339935298520955 3.905851870072503  4.955311386469166 3.297582252231833 3.989975307383427  4.842870825161622 3.215918869002716 4.028548150025074  4.938490999650435 3.351749849901056 4.045847886923026  4.824229835059772 3.265990731918052 4.087600929343006  4.817890211022088 3.395645979332228 3.956545552688279  4.921750381652297 3.405737429068002 4.101607831019436  4.805696135288549 3.315890985007071 4.146552002191843  4.798115406539701 3.451208390374647 4.007209678807024  4.905037675325085 3.459605717992267 4.157277260562692  4.787202792849564 3.365676505255861 4.205416745268582  4.778371157419731 3.506668045950752 4.057824166559065  4.888330755926765 3.513372306051767 4.21288208534404  4.768711382728425 3.415365498055563 4.264202828318795  4.758611388891127 3.562033511681428 4.108378065226894  4.750185937677251 3.464993233871438 4.322908828393242  4.871615163478406 3.567029418033611 4.268396341718221  4.738764482033834 3.617349461235469 4.15881979420285  4.818536896831895 3.525253041910273 3.594851564616653  4.76111106295649 3.548628156473965 3.478597421984775  4.894636322088134 3.58213410495681 3.511649608454082  4.784144980621432 3.485671612285435 3.45687335956238  4.841071317280245 3.462078614843557 3.566219359931563  4.873296624824 3.646215672254258 3.536405325926165  4.79626678684129 3.588358774837573 3.623674053667525  4.738333074521126 3.611619443331766 3.500584857115991  4.85205396676342 3.710248509563173 3.561241305030447  4.774104035507135 3.651427672638234 3.652583190019798  4.71563207454102 3.674655229933718 3.522678568251663  4.830808482459637 3.774241027262933 3.586084535179738  4.75193509343287 3.714464111692654 3.681502512208742  4.692889065507056 3.737706429967621 3.544778534158227  4.809491811482202 3.838175132374938 3.610877989180371  4.729675414918135 3.7774522748105 3.710371765473443  4.67001893389753 3.800729843685116 3.566816375741401  4.788007751524738 3.902015115120582 3.635521318451348  4.707214981538125 3.840361804035218 3.739069994470376  4.6469161414542 3.863680309963332 3.588655237552126  5.722378872659964 3.107795652805364 4.106444899948475  5.79863982263941 2.995814232970353 4.174099350559306  5.864477846385126 3.091669308878448 4.124389254420058  5.857452559412446 3.134562565499746 4.193546930469217  5.794089874372198 3.031431271766081 4.248907441377297  5.718316926310928 3.152131876651065 4.175430051637233  5.850369896715634 3.177297737156629 4.262683067138116  5.789463603701276 3.066916736777118 4.323616321506011  5.714154534770128 3.196324600191301 4.244369525528274  5.784810001277607 3.102312817635271 4.398252117884756  5.709950005455414 3.24042748793696 4.313258840229275  5.843278042273117 3.219943048813693 4.331771197347582  5.780164210863624 3.137642461150788 4.472824045192824  5.705752756214348 3.284468823216232 4.382092547677  5.836209247638073 3.262538703785988 4.400818366540554  5.775551338314112 3.172922798109854 4.547342862225836  5.701609121216259 3.328467649620052 4.450874355320111  5.829186042343308 3.305104045179952 4.469825742858045  5.77105017200531 3.208150564234728 4.621837549266336  5.69760283085914 3.372421925122579 4.519615174664668  5.822233444202873 3.347651527126781 4.538801133714149  5.825187553386252 2.552362819084582 4.257907061583317  5.823184948766894 2.544374081424752 4.341121959322006  5.821111664225429 2.536414067278554 4.424206755623763  5.818995236746785 2.52842540989354 4.507175252837729  5.816872427849069 2.520398412394227 4.590058127324859  5.814780301186731 2.512333412495304 4.672874071676715  5.812796979067272 2.50421174970361 4.755630374514303  4.831136494763791 1.891321263282532 4.02409832430761  4.956296533320759 1.807208560709913 3.93321244455076  4.976695644055694 1.905080337784034 4.030774555801235  4.979962450638258 1.856854442211778 4.090669182711963  4.960587427937094 1.752508535189705 3.983168645038238  4.832259636170821 1.8444177038843 4.084574171904148  4.983163962773374 1.80873616175799 4.150542499110324  4.964832578722372 1.697901701296356 4.033137763494349  4.833302281387864 1.797630892979079 4.145034796380754  4.98635141877436 1.760681548904528 4.21037274508027  4.969067115333534 1.643356217317888 4.083080711799456  4.834325764283654 1.750920072983061 4.205447846991601  4.989555464478743 1.712642314159139 4.270131005011024  4.973314800884469 1.5888353359326 4.132962855279136  4.83537278644879 1.704229596021124 4.265783110915522  4.977597406385909 1.53430591542656 4.182760541123017  4.83648009968689 1.65751132822525 4.326022499706714  4.992807822224806 1.664597379849434 4.329782901788564  4.844292906511187 2.964049176153888 4.281748200754211  4.732724141810492 2.902102512060833 4.278902302716252  4.736722637355665 3.041533043578876 4.220022155662548  4.860603553028233 2.933526510252073 4.207588388893284  4.71573770603074 2.930556198824891 4.352868079583183  4.828043768235291 2.994442596638625 4.355723504191082  4.718079313126815 3.078206883568674 4.289344750831379  4.698804725811061 2.958912158068382 4.426689940443635  4.811838305723025 3.024724208560088 4.429553671604862  4.699481378656864 3.114775990185873 4.358548642044113  4.681917254173616 2.987184808768298 4.500396712526944  4.795680658561731 3.054914890332392 4.503271706126814  4.680920575898103 3.151252873587237 4.427656370468948  4.665082081952102 3.015381773395975 4.574013989745858  4.779576399484184 3.085034892692964 4.576900586599  4.662373674589428 3.187661177574714 4.496677503771427  6.036925063298849 3.325665305805135 3.948879031594727  6.139510186106941 3.393549903502258 3.898628809491469  6.023315434785519 3.427716843128333 3.83406653399822  6.014928061336167 3.485051682668971 3.881309750645006  6.126326439805648 3.448526257826928 3.948664802086544  6.027724090049699 3.380785552026619 4.001852129739587  6.113198378997019 3.503372065363345 3.998851315233907  6.018490741028033 3.435754179628387 4.054981688597481  6.006464929059096 3.542268013039847 3.928751956499831  6.100143810109377 3.558182327102581 4.049095695292842  6.009302609892154 3.49069230356934 4.108156108431808  5.998032213705176 3.599470262526669 3.976260812664206  6.087144595034366 3.613011351178941 4.099357454256942  6.000163939369449 3.545641119908407 4.16133540754009  5
[...]
<PointData  Scalars="f_14"> 
<DataArray  type="Float64"  Name="f_14"  format="ascii">-1.0263136087171265e-14  -1.0098138271123639e-14  -1.0064494322636407e-14  1.8453401703115699e-01  1.9493842358212632e-01  1.8666195133925759e-01  3.6059266619146946e-01  3.7547467726065714e-01  3.6340753659725705e-01  5.3247211619670765e-01  5.4543811943384934e-01  5.2952175456177442e-01  6.9471177707894749e-01  8.5814898920475036e-01  8.5069416698675127e-01  8.4900094371851897e-01  7.0608113466870370e-01  1.0000000000000107e+00  1.0000000000000107e+00  1.0000000000000107e+00  -1.1092470772337971e-14  -1.0862225634477709e-14  -1.0894528059793142e-14  1.9755000786343607e-01  1.9754529174134164e-01  1.9281081940178232e-01  3.7952507978071354e-01  3.8024114374357959e-01  3.7329191166343556e-01  5.4945149829207818e-01  5.5036821552260362e-01  5.4303890493120521e-01  7.0899166616362708e-01  7.0956687442486022e-01  7.0310443854707683e-01  8.5499732495903369e-01  8.5929200709845799e-01  8.5942672183188118e-01  1.0000000000000098e+00  1.0000000000000100e+00  1.0000000000000100e+00  -1.1595037194646392e-14  -1.1647517456851582e-14  -1.1438397555615137e-14  2.0744834808201071e-01  2.1228500546918858e-01  2.1488210647960379e-01  4.0311630803905624e-01  4.0097369742730032e-01  3.9417438806658928e-01  5.7428791072486429e-01  5.7225881852321880e-01  5.6524993977809146e-01  7.3097748055228517e-01  7.2885122348302422e-01  7.2297213290150775e-01  8.6830406120897630e-01  8.7182255300296829e-01  8.7388077216110260e-01  1.0000000000000093e+00  1.0000000000000091e+00  1.0000000000000093e+00  -1.2551210294141017e-14  -1.2361445916312500e-14  -1.2564544832735899e-14  2.0949090707988377e-01  2.0803228278591884e-01  2.0676186592092760e-01  3.9581487373754981e-01  3.9379052432508743e-01  3.9601009480978744e-01  5.6720857824071014e-01  5.6498504803840488e-01  5.6689970509976395e-01  7.2441093157066838e-01  7.2246915373632825e-01  7.2450024433738480e-01  8.6888423542974513e-01  8.6745395193515640e-01  8.6955198919645349e-01  1.0000000000000082e+00  1.0000000000000084e+00  1.0000000000000082e+00  1.9864395748262770e-01  1.9478935569318678e-01  1.9257193453915969e-01  -1.2766537888089652e-14  -1.2639940340484302e-14  3.7566515566580200e-01  3.8181824221015354e-01  3.7495153107549117e-01  5.4680781761618213e-01  5.5269396095245782e-01  5.4524267172027718e-01  7.0671121143669891e-01  7.1252085438756729e-01  7.0653294408805378e-01  8.5659863979458151e-01  8.6194916416786416e-01  8.5898076221162767e-01  1.0000000000000082e+00  1.0000000000000082e+00  1.0000000000000080e+00  -1.1155143107373508e-14  -1.1054842402373550e-14  -1.0944133611289359e-14  1.8736625696742831e-01  1.9484045980420781e-01  1.9307972404877352e-01  3.6657069045255425e-01  3.7617700480519001e-01  3.7301578389283641e-01  5.4615621637564093e-01  5.4285958251634703e-01  5.3620509065769861e-01  7.0622615674044065e-01  7.0372561050059279e-01  6.9724660848771403e-01  8.5736942365582236e-01  8.5633108332832120e-01  8.5070000410947322e-01  1.0000000000000098e+00  1.0000000000000098e+00  1.0000000000000098e+00  -1.1078803068553410e-14  1.9560541040070431e-01  3.7726255488444466e-01  5.4718217580143391e-01  7.0684733686649837e-01  8.5770739069212720e-01  1.0000000000000098e+00  -1.2735356798738764e-14  -1.2556787966394017e-14  -1.2499683572658754e-14  2.1402755163901990e-01  1.9612463542616584e-01  2.1236571737231555e-01  4.0080568864880101e-01  3.7916707565532221e-01  4.0010382459232974e-01  5.7179755391328835e-01  5.5031215538198575e-01  5.7135222224751148e-01  7.2943164578714770e-01  7.1072292462510411e-01  7.2863196998461988e-01  8.6084595398019403e-01  8.7228262602849727e-01  8.7384389743257040e-01  3.9375329191292502e-01  3.8835232681292181e-01  3.9765248020376942e-01  2.0662869981664306e-01  5.5946694122530072e-01  5.6488393682245486e-01  5.6837297447800028e-01  7.1734187988307241e-01  7.2212665248696406e-01  7.2574550566005325e-01  8.6356200511611558e-01  8.6717464891063833e-01  8.7058852942196563e-01  1.0000000000000082e+00  1.0000000000000082e+00  1.0000000000000082e+00  -1.0651054421275083e-14  -1.0491290987600081e-14  -1.0658960560630306e-14  1.6589707000921813e-01  1.6641141231633627e-01  1.6979456623639411e-01  3.3269307671575810e-01  3.3915989426892562e-01  3.3113857752404613e-01  4.9850689734119624e-01  5.0627415463268866e-01  4.9658581418895509e-01  6.6422618743318707e-01  6.7121677772990218e-01  6.6283836133624430e-01  8.3065706168517273e-01  8.3484186229815904e-01  8.3057305744055621e-01  1.0000000000000102e+00  1.0000000000000102e+00  1.0000000000000102e+00  -1.0704859595211012e-14  -1.0702843752749498e-14  1.9949536267184298e-01  2.0085817704435804e-01  3.8493682469734603e-01  3.8324774936297157e-01  5.5525578181716639e-01  5.5359501834606450e-01  7.1364185768508326e-01  7.1236036883538767e-01  8.6086505851235462e-01  8.6163998232755368e-01  1.0000000000000100e+00  1.0000000000000102e+00  -1.1745727495940537e-14  -1.1738881620150873e-14  -1.1528192623466863e-14  1.9948053753689490e-01  2.0966468030139224e-01  2.0710213121653939e-01  3.9642092045901656e-01  3.9370355368399890e-01  3.8347875061539793e-01  5.6515405239665717e-01  5.6765801773104962e-01  5.5474845690084451e-01  7.2320722675307847e-01  7.2552316608932443e-01  7.1460175599225773e-01  8.6867718671001071e-01  8.7078461459449585e-01  8.6360336477629196e-01  1.0000000000000091e+00  1.0000000000000091e+00  1.0000000000000093e+00  -1.1266330534938624e-14  -1.1291120277629002e-14  1.9483664675557869e-01  1.8971510751774251e-01  3.7639978941581870e-01  3.7135694238408440e-01  5.4658659307655078e-01  5.4172378036604030e-01  7.0658521087115855e-01  7.0164293869026295e-01  8.5772010678473676e-01  8.5290178449684240e-01  1.0000000000000095e+00  1.0000000000000095e+00  -1.2682195869459839e-14  -1.2520238537733386e-14  -1.2464122621521401e-14  1.8418766762523425e-01  1.8585744068907131e-01  1.8798135099307636e-01  3.6257697427956004e-01  3.6206873382633337e-01  3.6737053596368213e-01  5.3296895508380904e-01  5.3164692999364260e-01  5.3782186985069957e-01  6.9550422737923079e-01  6.9510190842645936e-01  6.9972825147909012e-01  8.5068887425743045e-01  8.5200036113089317e-01  8.5366078507562837e-01  1.0000000000000084e+00  3.7723900026179674e-01  3.6291051261582907e-01  3.5570722024331231e-01  1.8574655933150172e-01  1.9736120573421254e-01  5.2491218720787325e-01  5.4727326574818302e-01  5.3254262009464348e-01  6.8869928599399466e-01  7.0861044723866218e-01  6.9498411178916786e-01  8.4710741530573297e-01  8.6095996438862343e-01  -1.2400085160542465e-14  -1.2250677071915838e-14  -1.2207033467697989e-14  2.0222212410400300e-01  2.0930031887559011e-01  2.0397202739097012e-01  3.8891194784680522e-01  3.9479712884208451e-01  3.9099784108045293e-01  5.6031030368350432e-01  5.6557324249539531e-01  5.6233003608992116e-01  7.1828480893459368e-01  7.2370746309734924e-01  7.1987249287832733e-01  8.6439519234614681e-01  8.6969464859061008e-01  8.6523193389625874e-01  1.0000000000000087e+00  1.0000000000000087e+00  1.0000000000000084e+00  -1.2510486759908211e-14  -1.2396432006702631e-14  -1.2265550828194558e-14  2.0180791638185261e-01  2.0936353159957882e-01  2.0747600799191593e-01  3.8834860540573740e-01  3.9669239599329109e-01  3.9324759185145308e-01  5.5977963652018359e-01  5.6782055104466755e-01  5.6424731812730489e-01  7.1770013737619931e-01  7.2510182092524733e-01  7.2249896399907476e-01  8.6370516519041984e-01  8.6945356946411190e-01  8.6865199612171318e-01  1.0000000000000087e+00  1.0000000000000084e+00  1.0000000000000082e+00  -1.0245980611075460e-14  1.7606347696769109e-01  3.4689333268905870e-01  5.1425275334427556e-01  6.7888042646559765e-01  8.4123928437147411e-01  1.0000000000000107e+00  -1.0244489424461070e-14  1.9782995539533693e-01  3.8041972040843375e-01  5.5069680920659259e-01  7.1036896283289419e-01  8.6020824307948252e-01  1.0000000000000107e+00  -1.0465139923997123e-14  -1.0455856049157244e-14  1.9169892982845341e-01  2.0837474401048781e-01  3.7041399631922739e-01  3.9161706325577328e-01  5.3995505243526920e-01  5.6162550254178289e-01  7.0166320585912201e-01  7.2073906169473578e-01  8.5591853769809223e-01  8.6899215755514858e-01  1.0000000000000104e+00  1.0000000000000104e+00  7.2805315971748119e-01  7.1872934149379664e-01  7.2783020115892427e-01  8.7163247200572946e-01  8.6470020031272066e-01  8.7271157358619167e-01  1.0000000000000084e+00  1.0000000000000082e+00  1.0000000000000080e+00  1.0000000000000100e+00  1.0000000000000102e+00  1.0000000000000102e+00  8.1312444507562420e-01  8.1608634102909261e-01  -1.1242912376817868e-14  2.0515835438841595e-01  3.8775486182315133e-01  5.5788070587419236e-01  7.1734141440916965e-01  8.6655720186150298e-01  1.0000000000000095e+00  -1.2130054544351256e-14  -1.1930884940978277e-14  -1.1943835495715366e-14  2.0846152210905208e-01  2.0703310684299700e-01  2.2435778269579595e-01  3.9648364133949038e-01  3.9529683864804738e-01  4.1381823017321068e-01  5.6801109314727782e-01  5.6693645010325755e-01  5.8465135017097003e-01  7.2521081605458870e-01  7.2395412028799166e-01  7.4019636865343397e-01  8.6935480017944367e-01  8.6787751873724805e-01  8.8086894015090444e-01  1.0000000000000089e+00  1.0000000000000089e+00  1.0000000000000087e+00  -1.2659166658280550e-14  2.1332764978443491e-01  4.0116173302178382e-01  5.7216844499708552e-01  7.2894415254596345e-01  8.7245963152090322e-01  -1.1526730644599902e-14  -1.1415662155680704e-14  -1.1346099303572204e-14  1.9376747980623399e-01  2.1067881688185858e-01  2.0347976286846187e-01  3.7774883647180646e-01  3.9662859777087500e-01  3.8969482169839070e-01  5.4872342261006868e-01  5.6740248873928179e-01  5.6100655083134976e-01  7.0796796000646844e-01  7.2524515649476329e-01  7.1924259098314702e-01  8.5716841729306614e-01  8.7105815620579174e-01  8.6570625374696297e-01  1.0000000000000095e+00  1.0000000000000093e+00  1.0000000000000093e+00  -1.1634788520344208e-14  -1.1466975808672064e-14  -1.1473121575334876e-14  2.0719590692366799e-01  1.9827268096389838e-01  1.9880770172978338e-01  3.9245657999596939e-01  3.8168776875020166e-01  3.8492793102325601e-01  5.6330945954982337e-01  5.5246652895247517e-01  5.5616506449074143e-01  7.2196089932336249e-01  7.1193303910095140e-01  7.1437170522815052e-01  8.6900516359467672e-01  8.6115468397327821e-01  8.6103658758403823e-01  1.0000000000000093e+00  1.0000000000000093e+00  1.0000000000000091e+00  6.2876833560805490e-01  6.6344431920296476e-01  6.4441814304794987e-01  4.9627178915598646e-01  8.0306470937742225e-01  8.3379484671837423e-01  1.0000000000000102e+00  1.0000000000000100e+00  -1.1040377432136109e-14  -1.0885636483630573e-14  1.9725687311339798e-01  2.0130490309597113e-01  3.8139034374177216e-01  3.8315754526193602e-01  5.5185906781722327e-01  5.5295384560471572e-01  7.1051419078656708e-01  7.1240159115442669e-01  8.5898957384997654e-01  8.6272651497573583e-01  1.0000000000000100e+00  1.0000000000000098e+00  -1.1792257546905890e-14  2.1227803079494659e-01  4.0134942712532806e-01  5.7278119463425092e-01  7.2921536537225862e-01  8.7204687872934294e-01  1.0000000000000091e+00  -1.0472899354598903e-14  1.8225631055785763e-01  3.5580733621503424e-01  5.2405785399896576e-01  6.8791971322795398e-01  8.4755209016292887e-01  1.0000000000000104e+00  -1.0626104973169479e-14  -1.0505519394108499e-14  -1.0434089434884428e-14  2.0119920576041303e-01  2.1408730381854296e-01  2.0053639434261794e-01  3.8680256680826197e-01  3.9999244757643798e-01  3.8469727967420503e-01  5.5763510222370005e-01  5.7031613104021195e-01  5.5513621319875794e-01  7.1586204160102551e-01  7.2757411576083764e-01  7.1373190828199140e-01  8.6311892678288205e-01  8.7274075853038857e-01  8.6173297756175793e-01  1.0000000000000104e+00  1.0000000000000102e+00  1.0000000000000102e+00  2.0552796157875020e-01  3.8997980328258403e-01  5.6117780963516206e-01  7.2069730841197921e-01  -1.0085116722783297e-14  -1.0122270656689943e-14  -1.0297480144785350e-14  2.1992146362073647e-01  2.1130512490253503e-01  2.2705517746117521e-01  4.1906308677951715e-01  4.0211418671789095e-01  4.0982540584942023e-01  5.8990867386228618e-01  5.7372975200272214e-01  5.8077249403518338e-01  7.4353021297600730e-01  7.2898171136251488e-01  7.3593471472305139e-01  8.8145250966410271e-01  8.7019084204809305e-01  8.7682657429519395e-01  1.0000000000000107e+00  1.0000000000000107e+00  1.0000000000000104e+00  8.6974899068454226e-01  8.6729168076832952e-01  8.6112491905634792e-01  7.1325711825659155e-01  7.2358184835158279e-01  1.0000000000000080e+00  1.0000000000000078e+00  1.0000000000000080e+00  7.0884385652303727e-01  7.2196167268348854e-01  7.2046578036740561e-01  5.6255431367260877e-01  8.6140159593758425e-01  8.6916724838410009e-01  8.6803875791246832e-01  1.0000000000000093e+00  1.0000000000000093e+00  1.0000000000000093e+00  1.0000000000000109e+00  1.0000000000000107e+00  -1.2725069980641054e-14  2.0580515076248321e-01  3.9043257787688385e-01  5.6111565665910557e-01  7.1968999688162871e-01  8.6713852189268836e-01  1.0000000000000080e+00  -1.2188232737635622e-14  2.0641132854780914e-01  3.9428306642027078e-01  5.6576015322553896e-01  7.2289561555173287e-01  8.6726656519419454e-01  1.0000000000000087e+00  -1.1599022124012476e-14  -1.1833688042629744e-14  2.0532157786852048e-01  2.0141750903510774e-01  3.9240702206720912e-01  3.8684885121948270e-01  5.6395121536726167e-01  5.5847332059290467e-01  7.2170851808068903e-01  7.1763872912062276e-01  8.6696719556485913e-01  8.6504930738173991e-01  1.0000000000000091e+00  1.0000000000000093e+00  6.9090680942051896e-01  6.9405270330216329e-01  7.0444466596744926e-01  5.4241922616857186e-01  8.4982871715461072e-01  8.4788887400529156e-01  8.5826819712490365e-01  1.0000000000000089e+00  1.0000000000000091e+00  1.0000000000000091e+00  -1.0834919628216280e-14  1.7113757886577705e-01  3.4063647180845452e-01  5.0784236788777060e-01  6.7289116847367392e-01  8.3654166099309191e-01  1.0000000000000100e+00  -1.1716561458266497e-14  -1.1569697241191047e-14  -1.1729053602743000e-14  2.1572531160549091e-01  2.0383518840667941e-01  2.1341229421875732e-01  3.9004014868327641e-01  4.0193028871434594e-01  4.0387982138964701e-01  5.7324554918401982e-01  5.6126250852361215e-01  5.7503107832563827e-01  7.2983210328000592e-01  7.1943020433397931e-01  7.3167121199423557e-01  8.7277019018096291e-01  8.6576486905594907e-01  8.7460443452507075e-01  1.0000000000000091e+00  1.0000000000000093e+00  1.0000000000000091e+00  -1.0231629174685814e-14  2.1647986646151396e-01  4.0823733690825414e-01  5.7969509330078628e-01  7.3425491651552643e-01  8.7404262813127998e-01  1.0000000000000107e+00  -1.0515540869209314e-14  -1.0393314322631706e-14  -1.0562823548652972e-14  2.0630175892555688e-01  2.1554009952828684e-01  2.0803276163587603e-01  3.9494031555281972e-01  4.0399301699175438e-01  3.9464913782663108e-01  5.7524485493083699e-01  5.6606475582652560e-01  5.6593596890225717e-01  7.2355599975994844e-01  7.3184283212924328e-01  7.2288339128900636e-01  8.6845829149223419e-01  8.7510055306302192e-01  8.6674542481838901e-01  1.0000000000000102e+00  1.0000000000000104e+00  1.0000000000000102e+00  -1.1429925260761458e-14  -1.1335820883012073e-14  -1.1531557250091594e-14  1.9108698250853809e-01  7.0249796791224473e-01  7.0470822964047053e-01  7.0403703052066913e-01  5.4289721696694804e-01  5.4119952858058673e-01  8.5839953961026483e-01  8.5508426339441035e-01  8.5618460329395296e-01  1.0000000000000095e+00  1.0000000000000093e+00  1.0000000000000093e+00  -1.2909707327596845e-14  1.0000000000000080e+00  1.0000000000000084e+00  -1.1246943115446276e-14  -1.1096091411362287e-14  -1.1234889935868521e-14  2.0351811140254952e-01  2.0083838983781871e-01  2.0194918609637708e-01  3.8345570166000797e-01  3.8551409272196308e-01  3.8769407589599747e-01  5.5344299196407531e-01  5.5582877197093117e-01  5.5805432476700767e-01  7.1470680483544058e-01  7.1253308121693981e-01  7.1663802215282002e-01  8.6330353235230839e-01  8.6214057231990204e-01  8.6437723192358162e-01  1.0000000000000095e+00  1.0000000000000098e+00  1.0000000000000095e+00  -1.0659677084329234e-14  -1.0635635050046878e-14  1.8880067916991941e-01  1.9406218732860084e-01  3.7623221355846509e-01  3.6795546942650098e-01  5.4642070496856077e-01  5.3762327051774272e-01  7.0609086579456537e-01  6.9885879191202582e-01  8.5659512419312844e-01  8.5239411953790789e-01  1.0000000000000102e+00  1.0000000000000102e+00  8.6876123285450535e-01  7.2199418825963146e-01  1.0000000000000080e+00  -1.2487236076082994e-14  -1.2326515515029929e-14  -1.2304002365291200e-14  2.0863593874224229e-01  2.1133248308511457e-01  2.0981786287297285e-01  3.9748877821277434e-01  3.9942611103197306e-01  3.9689568438598971e-01  5.6859573752337988e-01  5.7051884869601333e-01  5.6819907201602082e-01  7.2706429955542340e-01  7.2545883240945774e-01  7.2476523387512315e-01  8.7053431318541219e-01  8.6953568316807905e-01  8.6836647467450778e-01  1.0000000000000084e+00  1.0000000000000084e+00  1.0000000000000084e+00  -1.2167475374699988e-14  2.1394032561780701e-01  4.0141187622944419e-01  5.7256718753524161e-01  7.2960901112761833e-01  8.7347738411429998e-01  1.0000000000000087e+00  -1.1674761149943106e-14  2.1138490501275556e-01  3.9724394302304489e-01  5.6799082038585746e-01  7.2595889735625929e-01  8.7169243661076967e-01  1.0000000000000091e+00  -1.1849926924851862e-14  -1.1616263635163793e-14  -1.1775078269515140e-14  1.9125616838422027e-01  1.9312071739089798e-01  1.8375590801238054e-01  3.7094869979244960e-01  3.7225541146256325e-01  3.6130029913377282e-01  5.4111338876580484e-01  5.3132165890946559e-01  7.0242171962281041e-01  8.5538810279037980e-01  1.0000000000000091e+00  -1.1653172996578725e-14  -1.1442669139459418e-14  2.0853201365141327e-01  2.1012468603765710e-01  3.9789559089188481e-01  3.9425186782374205e-01  5.6914261449310921e-01  5.6510250012489749e-01  7.2628117912235324e-01  7.2319222327872457e-01  8.7042628809012335e-01  8.6929025813780469e-01  1.0000000000000091e+00  1.0000000000000093e+00  3.7214362939864798e-01  -1.0870140568417204e-14  -1.0792246376340127e-14  1.9846967783294023e-01  1.9948692734117118e-01  3.7827381093831847e-01  3.8110078137563047e-01  5.4791024943277422e-01  5.5090740797075277e-01  7.0868670921771137e-01  7.1069967349533203e-01  8.6138347942990900e-01  8.6125985650446824e-01  1.0000000000000100e+00  1.0000000000000100e+00  -1.2919312472769194e-14  -1.2882658653915259e-14  -1.2750654809336217e-14  2.0686225685265089e-01  1.9621525808371437e-01  1.9352963646480614e-01  3.9133372025332247e-01  3.7986850098959080e-01  3.7592260474016442e-01  5.6195044800251193e-01  5.5071802449330021e-01  5.4648882900555162e-01  7.2045233817217302e-01  7.1004357502005011e-01  7.0628834260528295e-01  8.6785405654261349e-01  8.5911131131035345e-01  8.5661819550568996e-01  1.0000000000000080e+00  1.0000000000000080e+00  1.0000000000000080e+00  8.5047561020826923e-01  8.4559430708941707e-01  8.4968064803593391e-01  6.9310469588706136e-01  1.0000000000000087e+00  1.0000000000000087e+00  1.0000000000000084e+00  3.1476030000983418e-01  3.1821045984127994e-01  3.1101367862411722e-01  1.5640906844378216e-01  4.7796767833305098e-01  4.8185255954599393e-01  4.7234782504368933e-01  6.4796834536144288e-01  6.3884500440564496e-01  8.1851500058942850e-01  1.0000000000000100e+00  -1.2139731098371526e-14  -1.2118779569676346e-14  2.1611259616730880e-01  2.0702515664015295e-01  4.0501418307129000e-01  3.9584333726579124e-01  5.7619834362503397e-01  5.6735701346594469e-01  7.3222208715269421e-01  7.2391219231265191e-01  8.7442782762111881e-01  8.6739295650885828e-01  1.0000000000000087e+00  1.0000000000000087e+00  -1.2657727628712504e-14  2.0748904746649874e-01  3.9251169412020803e-01  5.6325639187761600e-01  7.2171308740637119e-01  8.6830700762464075e-01  1.0000000000000082e+00  -1.0924141155501042e-14  -1.0745697482200420e-14  -1.0801540200508414e-14  1.6826749999582630e-01  1.6712415317624207e-01  1.5437717651598878e-01  3.3123183613946333e-01  3.3604281887474419e-01  5.024338