<?xml version="1.0"?>
<VTKFile type="UnstructuredGrid"  version="0.1"  >
<UnstructuredGrid>
<Piece  NumberOfPoints="1016" NumberOfCells="4296">
<Points>
<DataArray  type="Float64"  NumberOfComponents="3"  format="ascii">6.136166158715032 3.822571241300565 3.274886713764307  6.222709764726726 3.903240936330124 3.233301474856872  6.159754876272062 3.893551683049547 3.147282827938702  6.124341676795716 3.944699879429323 3.168865309765043  6.185014255098896 3.953153403802282 3.258233508213139  6.105755736591256 3.876258330530458 3.300292664108877  6.075609419627858 3.930134289264108 3.32573086346799  6.147660909661735 4.003454231840695 3.283207162570597  6.089237524357851 3.996198876695072 3.190469208989109  6.045545838065894 3.984212870036775 3.351248995851003  6.110405055972965 4.053934815241482 3.308259444701666  6.054216409314396 4.04792004140217 3.212155883768835  6.0154319766718 4.038395630702425 3.376848665546305  6.073073968944207 4.10450700499042 3.333379983959187  6.019111480349337 4.099765041198624 3.233916986313173  5.983742961802297 4.151664299348034 3.255712749459991  6.035459349720901 4.155098954266355 3.358541155388977  5.98509901820474 4.092702798264269 3.402504169489289  5.947713189505186 4.203452815253006 3.277561785392614  5.997129415149553 4.205497362368132 3.38373999971797  5.954215323704203 4.147139456752471 3.428239807947751  6.033015285135861 3.957036522866772 2.485090290710156  6.005692477651858 3.926858314443983 2.623887975571126  6.112815556335619 4.004067308679018 2.582912431269406  6.077059231394999 4.055807499475136 2.587836388054631  5.971395285136457 3.977868932939475 2.631269583228787  5.999000536452023 4.008912784416517 2.488498219165445  5.937427766078018 4.029320697335232 2.638608184443515  5.965309347618031 4.061246353196456 2.491892539814128  6.041601041523227 4.108002364920687 2.592736643536631  5.903408171802544 4.081026352057269 2.645988212187662  5.931637217254336 4.113833288957746 2.495315822428493  6.006205339646885 4.160430608382407 2.597666101272193  5.869205130155776 4.13288713359384 2.653404401193326  5.897812226331258 4.166510854488606 2.498774558822274  5.970693063381772 4.212922607886663 2.60263233786044  5.863664498807376 4.219155985289006 2.50227033297276  5.834576158437923 4.184812660410462 2.660871594161703  5.934925120226441 4.265309579643115 2.607647934454209  5.828981811865893 4.271613139161663 2.505804412856929  5.799329108731897 4.236589667773156 2.66842964571068  5.898669936146946 4.31743923815168 2.612704219009634  5.720347992844976 3.826796146931615 1.886077201466327  5.806583019191011 3.854421136791074 2.02195686841703  5.844748923161091 3.868043621368463 1.890458271661159  5.822407875106803 3.929421582348277 1.885741491165079  5.782063110922714 3.913042755695916 2.022527458904389  5.699259898922955 3.888643789889562 1.884107108847859  5.800413545330214 3.991108500840638 1.880886520499858  5.757863397661137 3.972066691355431 2.023004902997647  5.678458264204282 3.950848401921297 1.881984508684221  5.778527954554974 4.053002277878773 1.87595975212305  5.733735295330242 4.031395138303977 2.023438990853864  5.657719962393249 4.013329018849689 1.879796099278702  5.756574290363064 4.115039113589663 1.871038938640301  5.709496580552551 4.090938281862366 2.023903721333174  5.63687485596162 4.076058113086777 1.877635368296881  5.734416551590543 4.177160160692333 1.866189116335573  5.684969130886293 4.150628773730016 2.024470152911679  5.61574591094383 4.13903302613814 1.875592713633348  5.711913845365187 4.23930759525157 1.861463614401032  5.659920163350006 4.210397463308258 2.025213336134686  5.594146706867406 4.202213845138335 1.873748808674332  5.503816972730406 3.717745363490922 2.446694785063803  5.608876105370785 3.753622772771769 2.329880235840471  5.475060755578077 3.720138047809851 2.324768893597981  5.46316265760479 3.778037997413046 2.328494914240889  5.591216155660037 3.810208239556239 2.335248452937499  5.492629250691381 3.775703699126632 2.450275699188259  5.48151216689492 3.83387227392096 2.453987056365051  5.573726683345972 3.867168672328784 2.340654975647356  5.451324847591845 3.836300534791802 2.332304486002881  5.470332435309651 3.892379048185086 2.457747531513054  5.556184580138972 3.924445182062482 2.346113330518509  5.439428264594548 3.894896545693953 2.336171609523839  5.538491619331985 3.982020471717504 2.351597708200103  5.459021590550446 3.95127805952368 2.461525646150141  5.427415743970467 3.953902475649028 2.340066515079156  5.520542130513414 4.040031866005188 2.357139304854186  5.447568455190455 4.010649953934611 2.465275325420519  5.415254841554984 4.013385387946191 2.344005843177225  5.502149290133665 4.098618274431161 2.362833189573159  5.436041137504592 4.070716606904687 2.46899353617808  5.402841018197978 4.073551769840385 2.34798261690842  5.955816304409664 3.812396134582933 3.027939686655101  5.994743245626038 3.862953996096322 2.905567548624556  5.875984398046093 3.804916230683712 2.909106148925267  5.851100558697389 3.860999373930781 2.919387908605414  5.963665835130034 3.916096941122914 2.916855671831525  5.929275401211817 3.868270289129236 3.041942431692714  5.902890644539897 3.924369386407581 3.056003953511937  5.932802737370827 3.96962159313811 2.928153402521537  5.826318119382653 3.917399927362311 2.929766630691297  5.876541950230967 3.980701159118842 3.070116072324304  5.901953521222571 4.023384263549272 2.939498381853149  5.801534736075917 3.97403873456064 2.940181960933346  5.850093548341252 4.037215538451929 3.084281561915555  5.870968425970766 4.077334156628556 2.950896140820355  5.77662839005212 4.030911833021201 2.950629523213366  5.823444306969642 4.093945757820519 3.098445621084384  5.839680129815836 4.131457168770607 2.962342058503137  5.75150593587099 4.088104616561759 2.961050930445106  5.807797936915681 4.185674342417721 2.973823407464133  5.796237328913136 4.151067134807614 3.112609752199065  5.725873517385177 4.145868147524881 2.971472667456308  5.465809792722993 3.700640839155847 2.874364370977484  5.599254518156492 3.718365556231411 2.884818576341054  5.492033779388525 3.70787627622118 2.737047994451937  5.483276866040106 3.768111613738847 2.738408551897479  5.587545152343846 3.779369974560457 2.887739429569392  5.45880494507574 3.762967067220749 2.876062912225014  5.474411285465043 3.828610971128301 2.739992346167533  5.575741159516356 3.840595872562044 2.890880647318033  5.451614408175535 3.825473409575642 2.878043619382386  5.465452930258591 3.88941142236364 2.741625006301554  5.563865951473497 3.902064709942175 2.894109601144146  5.601782466282978 3.68270871005484 3.250122610725922  5.721982214131226 3.705627280437306 3.20309521746121  5.649065957382173 3.709229831232139 3.117684857513643  5.63917852469106 3.773504849442145 3.126976501968504  5.711733344638439 3.770141581864278 3.215901679083247  5.595741725892687 3.749764071897869 3.262099318860121  5.62909816585605 3.837875273857775 3.136531673136473  5.701304135744074 3.834717571379743 3.22894279797745  5.589403745703884 3.816827270313137 3.274373059074244  5.618951851843954 3.90242259450542 3.14620151570556  5.907275941645332 3.765583004466432 3.152838751031717  5.831658128152075 3.768521863212402 2.999702724986903  5.811494161657934 3.827340031894322 3.009837606737384  5.886592415784807 3.825406042908241 3.167891319348152  5.791351720356103 3.886376667343137 3.020110608501883  5.865951522939557 3.885343721285208 3.183056322732894  5.771201209676156 3.945635122019731 3.030453300198979  5.845290971821086 3.945459205943873 3.198294062007385  5.750961604329127 4.005113546939129 3.040836725208018  5.824570969300063 4.005770065971142 3.213578319648778  5.730611817838883 4.064901308836649 3.051187391622388  5.803748198952219 4.066394827001088 3.228870462929969  5.710191168680228 4.125231177058276 3.061443867287865  5.782831920421403 4.127635757659182 3.244100145007581  6.193914369343162 3.978076996165948 3.810155032485379  6.122302666918506 4.039404525180828 3.671817341414502  6.2383027252098 4.074690833422824 3.736273537351519  6.154562770190195 3.989510659035552 3.634395805517965  6.203868887912596 4.122585468932238 3.777039234038875  6.163238569844911 4.026955015669655 3.852366580748802  6.089429922864239 4.089183496755651 3.709258983541385  6.040157884340549 3.936155447049525 1.847909297727126  6.112549069426708 3.983948736966684 1.953091209311759  6.146405700469193 3.964294970159395 1.793330944749525  6.126129393320211 4.025742156793748 1.776643810317882  6.087286698990286 4.043491985429466 1.942546615120851  6.017321610466976 3.997531255385693 1.83698942854018  6.10629167309835 4.087245117254464 1.760033388743074  6.062537706464353 4.103174897418474 1.932046852816303  5.99492886889067 4.059038562110362 1.82607794190043  6.086642792310076 4.148697772562776 1.743442896206497  6.038016107665665 4.162875528168014 1.921536066961818  5.972728563971204 4.120590653270713 1.815136494626872  6.067020582965464 4.210069933289661 1.726848241830317  6.013511050077674 4.222528469848848 1.911020279065448  5.950527930260407 4.182132721272498 1.804182341986012  6.047290040468973 4.271335649023044 1.710234757099518  5.988848805943825 4.282066803763691 1.900507104645354  5.928173005631683 4.243627742553975 1.793236940378828  6.02731156843045 4.332478156754011 1.693585538122784  5.963837950846921 4.341404400016172 1.890000941346344  5.905498391559152 4.305040313521369 1.782307834392505  6.280491086515354 4.117740947791112 2.663498268874296  6.296397624963699 4.105411086288909 2.831994576040755  6.365077596748239 4.174020413317361 2.740937593059936  6.327128890187447 4.230689257558859 2.746786595650759  6.256338764132637 4.158095285805604 2.842701128357591  6.24274054661562 4.171912704514685 2.668015685283197  6.289715395711887 4.287549697958701 2.752543517139334  6.216682890509758 4.21113877381593 2.853334023670448  6.205451846345365 4.22635626504315 2.672453405062706  6.058181900567369 4.423077250436206 2.89615500626206  6.056735518471721 4.443603546213046 2.6
[...]
<PointData  Scalars="f_14"> 
<DataArray  type="Float64"  Name="f_14"  format="ascii">-1.1805920608552853e-13  -1.1638303374217835e-13  -1.1766912443093179e-13  1.5488409335649003e-01  1.6573648293126378e-01  1.5331576384635293e-01  3.1131631206786164e-01  3.3032300487165173e-01  3.1533502700978155e-01  4.7312077426878413e-01  4.9517922052644553e-01  4.7849556385289604e-01  6.3927952535476318e-01  6.6133890929078121e-01  6.4491932262517304e-01  8.1669799162997747e-01  8.3021019623583903e-01  8.1226217278131829e-01  1.0000000000001164e+00  1.0000000000001177e+00  1.0000000000001159e+00  -1.2054962349175097e-13  -1.2107879544061706e-13  -1.1867198141713337e-13  1.7192089562328913e-01  1.6663850570971026e-01  1.6580146268816351e-01  3.3014445063259140e-01  3.3144912772169727e-01  3.4104667742997224e-01  4.9535518124439099e-01  4.9763244075629876e-01  5.0841879260374290e-01  6.6345712727967021e-01  6.6456266657599405e-01  6.7415082170958796e-01  8.3229542433273174e-01  8.3411660557325296e-01  8.3811760623043174e-01  1.0000000000001137e+00  1.0000000000001130e+00  1.0000000000001155e+00  -1.2755239331488095e-13  -1.2567957062612265e-13  -1.2484687711286731e-13  1.7423956045662656e-01  1.6330565352205886e-01  1.7926272226875564e-01  3.4520922372939805e-01  3.2885527751981014e-01  3.4991205900918371e-01  5.1302815075354868e-01  4.9503438832939195e-01  5.1791538817431493e-01  6.7800762857076680e-01  6.6164796009048321e-01  6.8428774973142836e-01  8.4009757514227601e-01  8.2904185716223400e-01  8.4785469288486881e-01  1.0000000000001092e+00  1.0000000000001084e+00  1.0000000000001066e+00  -1.3121425133807312e-13  -1.2946798316036726e-13  -1.3203190448433076e-13  1.4358035563496652e-01  1.4218885639685466e-01  1.4135322258365393e-01  2.9166252749080834e-01  2.9328869690221537e-01  2.9551131892302890e-01  4.5079227640878367e-01  4.5290889695672937e-01  4.5541684484655903e-01  6.2187444089974653e-01  6.1994826686780480e-01  6.2450020179986909e-01  8.0241934576368212e-01  8.0162703200758145e-01  8.0455125518965676e-01  1.0000000000001046e+00  1.0000000000001030e+00  1.0000000000001021e+00  -1.2170086089062103e-13  -1.2111960472700960e-13  -1.2335459464298418e-13  1.5154209728279749e-01  1.4795667757695719e-01  1.4363113363786076e-01  2.9685049607736497e-01  3.0363772084747287e-01  3.0590693784667528e-01  4.5660795098715234e-01  4.6488779279194542e-01  4.6652963981016238e-01  6.2346232331816709e-01  6.3235335032867612e-01  6.3493520407498683e-01  8.0023147724722898e-01  8.0806466215843009e-01  8.1364236520048894e-01  1.0000000000001130e+00  1.0000000000001124e+00  1.0000000000001108e+00  -1.3090449554501762e-13  -1.2844731855714675e-13  -1.3075188346824122e-13  1.5137789335687382e-01  1.4682980019045752e-01  1.5653444478720824e-01  3.0779049389235347e-01  3.0209422437189243e-01  3.1744221202919448e-01  4.7025990152156705e-01  4.6381741100427165e-01  -1.2754176305801035e-13  -1.2548544767482792e-13  -1.2697285410690594e-13  1.5958762926746892e-01  1.5776416747270627e-01  1.6867972134354872e-01  3.2198474106044889e-01  3.1931257106813393e-01  3.3748828317674889e-01  4.8669640049389939e-01  -1.2232462890993621e-13  -1.2399190311261849e-13  1.4482979147330272e-01  1.5418118653618934e-01  2.9841508929199373e-01  3.1059414189166135e-01  4.5847868612305298e-01  4.7197311857933777e-01  6.2595033319675286e-01  6.3983165351434546e-01  8.0347353238653896e-01  8.1634445774288467e-01  1.0000000000001101e+00  1.0000000000001117e+00  8.2631074166364571e-01  8.3439284946409398e-01  8.3636485010808959e-01  6.6463312627397575e-01  1.0000000000001212e+00  1.0000000000001197e+00  1.0000000000001188e+00  -1.2052924333640955e-13  -1.1885661039302136e-13  -1.1812857873903571e-13  1.9136074334675146e-01  1.8228382986679051e-01  1.8132686349359009e-01  3.6888984747559000e-01  3.5705396665702499e-01  3.5578611942607929e-01  5.3790744120639655e-01  5.2562243700846190e-01  5.2451787544866357e-01  6.9992998307074394e-01  6.8859636254836409e-01  6.8807435487286051e-01  8.5506511767166826e-01  8.4650126660001079e-01  8.4691103208068008e-01  1.0000000000001159e+00  1.0000000000001150e+00  1.0000000000001135e+00  -1.1472751797807796e-13  -1.1442778680010088e-13  -1.1270543205656190e-13  2.0995429615991851e-01  1.8782307672749440e-01  1.8946971650041544e-01  3.9474594098630161e-01  3.6616304532947874e-01  3.6827926699367097e-01  1.0000000000001197e+00  1.0000000000001195e+00  1.0000000000001215e+00  8.5429569873602118e-01  8.5318994017295036e-01  -1.2785245676138393e-13  -1.2561813323534571e-13  -1.2571633497285004e-13  1.4560815169370109e-01  1.4198467769899398e-01  1.3673696952217620e-01  2.9740484071132495e-01  2.9393241864997294e-01  2.8627968595329190e-01  4.5704098589860365e-01  4.5350813863878703e-01  4.4490132444449548e-01  6.2605133172203531e-01  6.2150740523938752e-01  6.1292918911713679e-01  8.0679605517950115e-01  8.0034686305094094e-01  7.9312133934431583e-01  1.0000000000001084e+00  1.0000000000001084e+00  1.0000000000001064e+00  -1.3334007712349578e-13  -1.3418085835879441e-13  -1.3161066240666355e-13  1.4301841413479846e-01  1.4568854464447981e-01  1.4460188209288491e-01  2.9583835342952125e-01  2.9889874836327979e-01  2.9910727991744795e-01  4.5632203394611365e-01  4.5952291401479084e-01  4.6041825447988355e-01  6.2499577230658887e-01  6.2830552689382868e-01  6.2871920742104404e-01  8.0380692471278015e-01  -1.1935782139386933e-13  1.6144118340774510e-01  3.2142289451374084e-01  4.8445501575146965e-01  6.5219168045026354e-01  8.2594290022197281e-01  1.0000000000001148e+00  6.7380199261382157e-01  6.6669933669011960e-01  5.0155035891811484e-01  8.3189603323057038e-01  1.0000000000001197e+00  -1.3127473702115937e-13  -1.2884951143954791e-13  1.5952928665851207e-01  1.7278679848164200e-01  3.2223910090219976e-01  -1.2126068687881142e-13  1.7551905424446504e-01  3.4720725126480934e-01  5.1511956556147276e-01  6.7968962618382578e-01  8.4111372601395096e-01  1.0000000000001128e+00  -1.3096584599580346e-13  -1.2940296675098570e-13  -1.2866132485248956e-13  1.5496722553001560e-01  1.4970533824549995e-01  1.5525176497992499e-01  3.1586973874895841e-01  3.0565281484689028e-01  3.1373007578346052e-01  4.8027560843579004e-01  4.6774572848507157e-01  4.7712110849671729e-01  6.4809738917326998e-01  6.3664125054692666e-01  6.4613609107174674e-01  8.2001628403533622e-01  8.1328527894672409e-01  8.2142593351403970e-01  1.0000000000001055e+00  1.0000000000001046e+00  1.0000000000001033e+00  -1.3295680150436168e-13  -1.3040498773552068e-13  1.6032501649442041e-01  1.5619177550050364e-01  3.2410286786741777e-01  3.1638708683386652e-01  4.8975365895917577e-01  4.8041748715745164e-01  6.5719796517404705e-01  6.4870242808967649e-01  8.2656413098222747e-01  8.2185359686479753e-01  1.0000000000001037e+00  1.0000000000001010e+00  -1.2244491797783482e-13  -1.2356147684861011e-13  1.6765481940477334e-01  1.6984332338524058e-01  3.3530664679002081e-01  3.3790888740239322e-01  5.0209319083316117e-01  5.0476293483480084e-01  6.6811369570270385e-01  6.7077576933093885e-01  8.3365416271562343e-01  8.3591931195590230e-01  1.0000000000001106e+00  1.0000000000001117e+00  -1.2354385719349612e-13  -1.2122255820023402e-13  1.4932420441374980e-01  1.4664410858979413e-01  3.0645834870377392e-01  3.0021268970979909e-01  4.6872206502023328e-01  4.6062062556874295e-01  6.3637991925684789e-01  6.2903534463964261e-01  8.1124355628418732e-01  8.0751537806117191e-01  1.0000000000001128e+00  1.0000000000001106e+00  -1.1995124601294868e-13  1.4419455530000655e-01  2.9896889097611418e-01  4.5921357142384389e-01  6.2552129233225073e-01  8.0101837464927872e-01  1.0000000000001141e+00  -1.2820941492788049e-13  -1.2554398924524665e-13  -1.2549085661547084e-13  1.8403073463631764e-01  1.8957181715977733e-01  1.8585244106581011e-01  3.6170193675287837e-01  3.6569370468363266e-01  3.6090958866467809e-01  5.3150577179474279e-01  5.3499078089461893e-01  5.2992664321936234e-01  6.9392691172898768e-01  6.9842915814639561e-01  6.9371103144312107e-01  8.4961927738302379e-01  8.5527837254770789e-01  8.5206199134806715e-01  1.0000000000001084e+00  1.0000000000001084e+00  1.0000000000001057e+00  -1.1701000275194076e-13  -1.1522943639040323e-13  -1.1463088581247723e-13  1.8014539751900538e-01  1.7443795994544262e-01  1.6755294253412234e-01  3.5389859914196470e-01  3.4488329417511876e-01  3.3388051379639955e-01  5.2263750270236997e-01  5.1236818398640815e-01  4.9981997295506825e-01  6.8648693122746918e-01  6.7747091535644810e-01  6.6588849910353387e-01  8.4570619047602191e-01  8.4048430234081650e-01  8.3239893993207958e-01  1.0000000000001197e+00  1.0000000000001188e+00  1.0000000000001170e+00  -1.2634149152401123e-13  -1.2453139216762759e-13  1.5330531513618018e-01  1.5327717040272570e-01  3.1083006208418779e-01  3.1054567240188913e-01  4.7285401703610530e-01  4.7291725339859159e-01  6.4044345410170078e-01  6.4131917584455944e-01  8.1532510499358168e-01  8.1692374526962841e-01  1.0000000000001097e+00  1.0000000000001077e+00  -1.2316997301246003e-13  -1.2290572252924855e-13  1.8730177952198562e-01  1.7992025204479759e-01  3.6462502739281943e-01  3.5393481022464612e-01  5.3423527626449119e-01  5.2271958134515817e-01  6.9688920406247623e-01  6.8652769613781406e-01  8.5273277601691866e-01  8.4557226888485548e-01  1.0000000000001110e+00  1.0000000000001108e+00  -1.3526144080877172e-13  -1.3264824537465728e-13  1.7116955355669825e-01  1.6046682608621263e-01  3.3777794323713511e-01  3.2319505585122643e-01  5.0421549008534616e-01  4.8817175551152614e-01  6.7121023864190865e-01  6.5572910157772268e-01  8.3823601092504174e-01  8.2609644386034720e-01  1.0000000000001015e+00  1.0000000000000988e+00  -1.1812925279197326e-13  -1.1837277477092632e-13  1.7893148855845459e-01  1.7161858176347877e-01  3.5077421478412923e-01  3.4232297513290322e-01  5.1876674261789479e-01  5.1011650730433922e-01  6.8353125206808507e-01  6.7501287317900771e-01  8.4494885125545627e-01  8.3740361604752356e-01  1.0000000000001157e+00  1.0000000000001161e+00  1.6583145766581994e-01  1.7367317788305334e-01  1.8032262437851523e-01  -1.3636176547916716e-13  -1.3514047463729346e-13  3.3314105592802307e-01  3.4325656194146847e-01  3.5380227962690458e-01  4.9978186041549366e-01  5.1067449063417758e-01  5.2218576447591447e-01  6.6584590793558229e-01  6.8609601414101862e-01  1.0000000000001208e+00  1.0000000000001179e+00  1.0000000000001183e+00  8.5048583997630900e-01  8.5446478058338426e-01  -1.3402514968176408e-13  1.4291753566378446e-01  2.9578439929472977e-01  4.5611024472912104e-01  -1.2326460796701537e-13  1.4890690168747209e-01  3.0516973298426564e-01  4.6717700378311589e-01  6.3566340821854528e-01  8.1198708712882928e-01  1.0000000000001108e+00  6.3233838756542626e-01  8.0926759074144872e-01  1.0000000000001057e+00  8.1321972164243861e-01  8.0791545481124682e-01  6.3467696268769969e-01  1.0000000000001172e+00  1.0000000000001168e+00  -1.3571346523502990e-13  1.5294683493340439e-01  3.0914059967204821e-01  -1.3666437697282904e-13  1.4645241237619600e-01  -1.1633389675872064e-13  1.7911277876882867e-01  3.5227181783625444e-01  5.3611835244797645e-01  5.2080245226838051e-01  5.3825012458709454e-01  6.9837207662909873e-01  6.8494122816011260e-01  7.0017151111460851e-01  8.4470835412680967e-01  1.0000000000001179e+00  -1.2273691238334146e-13  1.7782471588861870e-01  3.4989717685418892e-01  5.1799204287726264e-01  6.8248343052778482e-01  8.4359843446816063e-01  1.0000000000001112e+00  -1.1934090485551091e-13  1.6339992854241153e-01  3.2872197342237691e-01  4.9459077347094038e-01  6.6132491527089066e-01  8.2914448384399164e-01  1.0000000000001148e+00  5.3630243228882912e-01  5.2262556633361845e-01  5.4318305560411140e-01  3.5413426385294589e-01  3.6715091008267497e-01  7.0444360221951252e-01  6.9788610205103152e-01  6.8576979173884012e-01  8.5786037559366946e-01  8.5249125766521550e-01  8.4427568150644405e-01  1.0000000000001181e+00  1.0000000000001183e+00  1.0000000000001157e+00  -1.1719413170707463e-13  -1.1545054702900735e-13  1.7755283173560002e-01  1.7259411106697517e-01  3.5013536416234875e-01  3.4164920336637061e-01  5.1845595345245155e-01  5.0875009009132177e-01  6.8281604000404417e-01  6.7450053290241285e-01  8.4337703881848369e-01  8.3894474966934329e-01  1.0000000000001188e+00  1.0000000000001170e+00  -1.1392677509022353e-13  -1.1122721287470204e-13  -1.1144252516911807e-13  1.9329926659902430e-01  -1.2766803012049121e-13  1.4694573479766604e-01  3.0214995773738051e-01  4.6386379041951026e-01  6.3259404810406139e-01  8.0965739312130069e-01  1.0000000000001064e+00  1.0000000000001026e+00  -1.1826717682113591e-13  -1.1826443836361743e-13  -1.1568589297611492e-13  1.8280340736795672e-01  1.7980095617958666e-01  1.8936310005965351e-01  3.5674527875382239e-01  5.2511296976652921e-01  6.8873485537995827e-01  8.4776156556462967e-01  1.0000000000001159e+00  5.4395049623461500e-01  5.3789239484587337e-01  5.4357360143343980e-01  3.6808830107173773e-01  7.0453385509889599e-01  7.0523997430025442e-01  6.9995070919912816e-01  8.5663268616963129e-01  8.5825596358384693e-01  8.5443123107771379e-01  1.0000000000001135e+00  1.0000000000001157e+00  1.0000000000001135e+00  1.0000000000001208e+00  -1.3639622054276508e-13  1.4957641302783858e-01  8.0221315354638789e-01  1.0000000000001159e+00  1.0000000000001246e+00  1.0000000000001223e+00  1.0000000000001235e+00  8.7260124896514446e-01  -1.2329724229358850e-13  1.4145870907050892e-01  2.9450432422087758e-01  4.5479568413797816e-01  6.2263805804256656e-01  8.0043773349766800e-01  1.0000000000001108e+00  -1.2721766603101088e-13  -1.2525017441373513e-13  -1.2528765262394859e-13  1.4043404946316432e-01  1.4337469025324417e-01  1.3664253018579561e-01  2.9167998738694439e-01  2.9470689954059176e-01  2.8486409515288219e-01  4.5113596234568837e-01  4.5424827874775447e-01  4.4272346295371501e-01  6.1957020366457638e-01  6.2307426552761225e-01  6.1128682852006366e-01  7.9950435115948315e-01  8.0340462201854901e-01  7.9370818287896727e-01  1.0000000000001088e+00  1.0000000000001088e+00  1.0000000000001068e+00  -1.1930709844709701e-13  -1.1805070450848117e-13  1.7280110360938417e-01  1.6225450263588426e-01  3.4130693022073050e-01  3.2503303468672784e-01  5.0839069373435009e-01  4.8982504085786965e-01  6.7450988538821743e-01  6.5721314212462445e-01  8.3953015495319194e-01  8.2778378357864835e-01  1.0000000000001161e+00  1.0000000000001148e+00  8.0557649332613668e-01  1.0000000000001008e+00  2.1154187428393870e-01  -1.3221738626357796e-13  1.7119764185978018e-01  3.4002095422525763e-01  5.0709548837182117e-01  6.7265696609410786e-01  8.3712493563042023e-01  8.3189534782187513e-01  1.0000000000001019e+00  1.0000000000000988e+00  1.0000000000001208e+00  -1.2948683642632469e-13  -1.3128964578041290e-13  1.4089407189553182e-01  1.3953268025388452e-01  2.9242889790346160e-01  2.8969871612585185e-01  4.5221194988141877e-01  4.4868763344051815e-01  6.2099776003917784e-01  6.1745095296708330e-01  1.0000000000001046e+00  1.0000000000001035e+00  1.0000000000001030e+00  8.1707705634712258e-01  7.9837822039072504e-01  -1.1875757205166294e-13  1.5661012135635560e-01  3.1846798705894169e-01  4.8265353189602955e-01  6.4963607191074924e-01  8.2058845869986963e-01  1.0000000000001152e+00  -1.2250724154374560e-13  -1.2051155418488922e-13  -1.2049864892325376e-13  1.9393690222104415e-01  1.8965638091952794e-01  1.9205316329529962e-01  3.7309559634062039e-01  3.7336994281051844e-01  5.4346228951843034e-01  7.0519511857694261e-01  8.5878129358215793e-01  1.0000000000001115e+00  -1.3368135483078432e-13  1.8013103304528685e-01  3.5171888216551545e-01  5.1968464883091503e-01  6.8454333253332811e-01  8.4635730618466398e-01  1.0000000000001004e+00  -1.3489929899254386e-13  -1.3265742772796622e-13  -1.3314983042657825e-13  1.5152322798128243e-01  3.7427256421832555e-01  1.0000000000001208e+00  -1.2741783496451678e-13  1.4019661914856132e-01  2.8968183813757098e-01  4.4825035311275951e-01  6.1719119560753788e-01  7.9915741189002099e-01  1.0000000000001066e+00  -1.2053543807878207e-13  1.8344335753567786e-01  3.5952781236567660e-01  5.2875988221916559e-01  6.9155717421489593e-01  8.4846095643058816e-01  1.0000000000001135e+00  1.0000000000001226e+00  1.0000000000001203e+00  1.0000000000001228e+00  8.6096851644756955e-01  -1.2791536377417669e-13  -1.2577507278359730e-13  1.7527378266016633e-01  1.7603438603173149e-01  3.4773583942503572e-01  3.4806147522815550e-01  5.1618218856201237e-01  5.1631350095089135e-01  6.8078428473448915e-01  6.8118490000184717e-01  8.4176207191792851e-01  8.4292372614953781e-01  1.0000000000001084e+00  1.0000000000001059e+00  1.4870556827076881e-01  3.0353752414225055e-01  4.6508218386768913e-01  6.3417550811946410e-01  8.6604776793296057e-01  8.5888781687130189e-01  8.5526302049131764e-01  7.0431395469362623e-01  1.0000000000001217e+00  1.0000000000001226e+00  1.0000000000001210e+00  -1.1298278325426143e-13  -1.1145265694048176e-13  -1.1049112457419435e-13  1.9307780714946490e-01  1.0000000000001210e+00  8.5821288764885462e-01  -1.2693218350230617e-13  -1.2363999421539962e-13  1.9925727409510577e-01  1.9583413675407302e-01  3.8039475509020415e-01  3.7645842287613795e-01  5.5061976228484455e-01  5.4672898308579576e-01  7.1127691470677268e-01  7.0782814914447367e-01  8.6231007260829318e-01  8.5988750387066604e-01  1.0000000000001104e+00  1.0000000000001070e+00  -1.1075506235666451e-13  2.1498760735568168e-01  -1.2030387701898997e-13  1.7684857946556390e-01  3.4820232512844995e-01  5.1606070889045075e-01  6.8084391159027136e-01  8.4275884924334632e-01  1.0000000000001137e+00  -1.2695331208404838e-13  1.5911452345651811e-01  3.2014162537126833e-01  4.8455401758482664e-01  6.5302127419032008e-01  8.2575909451309126e-01  1.0000000000001070e+00  3.0875264228162119e-01  4.7152121087290350e-01  4.8741580925729039e-01  7.0058908329576441e-01  3.7469238802838117e-01  5.4558286045969084e-01  7.0655608364584988e-01  -1.1611230063127140e-13  -1.1604674240535373e-13  1.8763718821512174e-01  1.8617451401173324e-01  3.6204279433903258e-01  3.6433955893972236e-01  5.3117158904890482e-01  5.3349259919775183e-01  6.9420287022193705e-01  6.9603885274077182e-01  8.5112040608353245e-01  8.5204397184858371e-01  1.0000000000001181e+00  1.0000000000001181e+00  -1.3302253361687899e-13  -1.3014788032747551e-13  1.6732773578676013e-01  3.3509935381584555e-01  5.0198133666019951e-01  6.6778024099844635e-01  8.3292204078759469e-01  1.0000000000001039e+00  -1.2337622801004085e-13  -1.2193035509737761e-13  -1.2080500077544437e-13  1.5478152651358373e-01  1.5701030048205655e-01  1.5241355637145068e-01  3.1204333621162333e-01  3.1699231593721539e-01  3.1138145771548620e-01  4.7352085419455786e-01  4.7955964414151236e-01  4.7393526867523722e-01  6.4050559984411537e-01  6.4590276160447424e-01  6.4057957680268218e-01  8.1511522718913410e-01  8.1778096685548318e-01  8.1298599778043490e-01  1.0000000000001132e+00  1.0000000000001121e+00  1.0000000000001108e+00  -1.2929250685854783e-13  1.3857430987552702e-01  2.8707575715069972e-01  4.4516097848708069e-01  6.1404521906054588e-01  7.9683147324663683e-01  1.0000000000001048e+00  -1.2085191816862080e-13  1.6201525604511735e-01  3.2762446666103368e-01  4.9368332642210261e-01  6.5997614502623081e-01  8.2718462525107728e-01  1.0000000000001132e+00  1.0000000000001208e+00  -1.2356976660124621e-13  1.7642683662038774e-01  3.4642153555319233e-01  5.1401081021023243e-01  6.7956090135783354e-01  8.4301866772131140e-01  1.0000000000001104e+00  -1.1325466212943077e-13  -1.1470993137048381e-13  -1.1285175877829276e-13  1.8263120586031092e-01  1.8132710092016227e-01  1.9422703189218007e-01  6.8474213397479666e-01  6.9066184705479428e-01  5.4197009796304718e-01  5.1993881643941386e-01  8.4790469339889496e-01  8.4686865627772279e-01  1.0000000000001212e+00  1.0000000000001192e+00  -1.1712731750996720e-13  -1.1611790779085887e-13  1.6220707759286837e-01  1.4996389525922638e-01  3.0759798395082272e-01  3.2561717444576560e-01  4.68907714802