<?xml version="1.0"?>
<VTKFile type="UnstructuredGrid"  version="0.1"  >
<UnstructuredGrid>
<Piece  NumberOfPoints="2280" NumberOfCells="10422">
<Points>
<DataArray  type="Float64"  NumberOfComponents="3"  format="ascii">5.545901301239079 0.9300227150736777 1.525046305186628  5.59513436583499 0.852978163243497 1.700472729196797  5.692485084527492 0.9085852061034614 1.587015870768711  5.685857562706119 0.9644784403121364 1.61562602517811  5.589477909980356 0.9113549812895434 1.723645167683951  5.551151034743182 0.8750274773498782 1.494412865701651  5.600794952215168 0.7946030235738967 1.677322880369505  5.69912709241704 0.8526813568669636 1.558431503903338  5.79874720795094 1.012708850012136 1.449028115058556  5.859098304603876 0.9308458066415936 1.593736672956307  5.850631090535593 0.9858531971026894 1.623137913773353  5.807306168591518 0.9612343566170012 1.414339932020516  5.86744862309561 0.8757937975145894 1.564345404684406  5.883059090624669 1.137895224835634 1.934830855661549  6.023297255103823 1.1413376489409 2.003269925340385  5.900891216163044 1.111851372647142 2.060767029333515  5.908047404876442 1.050472819937264 2.049575734450051  6.031714174878361 1.080538234090863 1.989206873678406  5.890173922159942 1.077424738457245 1.918739500626944  5.91522918125168 0.98909101856272 2.038340472957659  6.040236101312726 1.019754493165084 1.975058494009832  5.897321585885609 1.016968066033513 1.902588645536061  5.9224281724298 0.9277241056601926 2.02708048699599  6.048813911264243 0.9589830780559762 1.960876955065633  5.904497356348268 0.9565264702950781 1.886411476207545  5.929631722490503 0.8663720747795876 2.015823840411918  6.057396328469959 0.8982193901975323 1.946696210066441  5.911674923675391 0.8960962723920831 1.870238374216189  5.936832161817298 0.8050308259824741 2.00459390460032  6.065940599758904 0.8374442511611342 1.932541282508768  5.918834637141731 0.8356676656771582 1.854092873540234  5.94403623416447 0.7436841604626825 1.993408347077047  6.074428483299853 0.7766385584809929 1.918443101667992  5.925987740935224 0.7752203321688156 1.838001644721619  6.459577792625137 1.352155949482453 2.900788914255584  6.361210316713238 1.384655763802969 2.984114067413468  6.36697995706405 1.312636968810692 2.860978311603914  6.37679725240938 1.260399001652022 2.889875911290594  6.369920431328125 1.333906897440869 3.014325003085697  6.46944780553941 1.300172910644662 2.93009987976981  6.386741444523509 1.208154381977455 2.918721938214331  6.378715232082034 1.283145568083951 3.044495315603618  6.479425929070207 1.248191724544279 2.959351843095224  6.396741268743714 1.155910002064756 2.94754124245251  6.387554114191564 1.232379141552277 3.074641504694096  6.489454088384795 1.196215481148303 2.988573776607004  6.406746144192767 1.103670520176358 2.976354196504694  6.396402853624259 1.18161199857406 3.104777585410097  6.49949151210294 1.1442476707045 3.017785268414666  6.416706557182025 1.051442889900132 3.005184326198589  6.405227677041173 1.130848152026196 3.134922412052431  6.509497742357547 1.092297866279601 3.047006523669568  6.426556945557763 0.9992371396151714 3.03406409162169  6.413989183034466 1.080096511673598 3.165111378252042  6.519411052905534 1.040381732206743 3.076269296723384  5.300223625372677 1.650658735119875 3.672006282837094  5.364755732466444 1.584659857804327 3.549595309492608  5.440192825504646 1.644022026444966 3.639495333220757  5.445451760921396 1.586674469295638 3.673544751231765  5.369710649250088 1.528487488675564 3.581663195552252  5.305418388069705 1.592930139815659 3.706917393400191  5.374604817103725 1.472332571264312 3.613728437340523  5.31056380028965 1.535229905110487 3.741827496888904  5.450652839373535 1.529349530505238 3.707598764190328  5.379472881453724 1.416194347546097 3.645777052811621  5.315686614101891 1.477554030924115 3.776719382342949  5.45582932618354 1.472039276066012 3.741638322700835  5.384343157666537 1.360065616245267 3.677792398540987  5.320812937435169 1.41989352712022 3.811572941562112  5.461009037994641 1.414737016924576 3.775642553567359  5.38924401022734 1.303938815258117 3.709752630509211  5.325966714753425 1.362240108111797 3.846364148286765  5.466219441218535 1.357433915626796 3.809588061840524  5.394210173245375 1.247806078971265 3.741632039063349  5.331172917161544 1.304590556312005 3.881063418296856  5.47148865471561 1.300121999459064 3.843445942636694  5.824902457826154 1.080152900234727 2.270116602782561  5.935493925129024 1.10113511888764 2.386574447069311  5.798084808677922 1.088336980341987 2.411883585660584  5.80461192900083 1.027100574696499 2.418108392665956  5.942185105816039 1.039625900895264 2.39197517797424  5.831639172282489 1.01799506971224 2.26985383389633  5.83835563515708 0.9558444471147667 2.269564438267259  5.948859496929239 0.9780955370608641 2.397344394066289  5.811124436627455 0.9658428243673466 2.424306964380847  5.845068522145448 0.8937131031120636 2.269261518336548  5.955533382714856 0.9165560782793514 2.40269543838987  5.817635271459257 0.90457862733879 2.430490781769391  5.824142764139371 0.8433175570428377 2.436674267051201  5.962212307824002 0.855018768461416 2.40804701126277  5.851783748433599 0.8316078114161106 2.268959830062721  5.830643743109341 0.7820630961901792 2.442867258638785  5.968907822858143 0.7934887654461745 2.413416608381823  5.858510983036839 0.769533088103412 2.268672929942057  5.837150079570955 0.7208239328033123 2.449078313865797  5.975642029731829 0.731972379702965 2.418805402249015  5.865267216253745 0.7074712886708474 2.268408895949522  5.919003195646338 1.112748370537206 2.515284455197738  6.06558889592373 1.12728545273027 2.479980311331555  6.072293978928005 1.066284093086069 2.489522071114206  5.925245580631906 1.05223663271548 2.526705907039303  5.931473154904922 0.99171976790899 2.538100479544052  6.079010469353864 1.005244146722975 2.49902827544402  5.937695815690844 0.931208324292057 2.54948025867229  6.085743409528281 0.9441820293021717 2.508518298592723  5.943919953186545 0.8707082986158436 2.560858423194858  6.092480685361202 0.8831102805967761 2.518010368767447  5.950148923407863 0.8102307384708788 2.57224299266083  6.099211944468125 0.8220267041993053 2.527517229946587  5.956393414582656 0.7497594251976251 2.583643390922971  6.105963057412709 0.7609293187201368 2.537051675339704  5.355087835250101 1.485707127186717 3.371309182754758  5.405190149822639 1.420765017535311 3.246170556434023  5.508055343992956 1.475432542368829 3.328056431514578  5.512746510016086 1.422429312912982 3.357652809612957  5.409433040592582 1.368508151225227 3.275300972755077  5.359710067103734 1.431852201806816 3.400773592089601  5.364263871206574 1.378003842111564 3.430233905497482  5.413595493457856 1.316257990627231 3.304427805973766  5.517368291925361 1.369429418293356 3.387254479255842  5.368786773716559 1.324167798135344 3.459678855678164  5.417720790643353 1.264014734309139 3.333541780897936  5.521958220687521 1.316431015083032 3.41684818357909  5.373308908836392 1.270338572511933 3.489097008603978  5.421842589968976 1.21177497669125 3.362633859089506  5.526546827925221 1.263429907509508 3.446420016289366  5.377860574220583 1.216510707990865 3.518472003932076  5.425996273461631 1.159532532119985 3.391691370087039  5.531166247863347 1.210417790657968 3.475953740017865  5.382481312056941 1.16267495335455 3.547782666559625  5.43022976412536 1.107276311108367 3.420697561160245  5.535858199546478 1.157381631006962 3.505425379696942  5.850934205781427 1.830563402008153 3.859895905156828  5.922438930936508 1.760150431412518 3.745641604850208  5.997656242676632 1.823932438374408 3.81991614114697  6.005414436611709 1.766878528104446 3.861406524194102  5.929239550472599 1.702700464418627 3.783705632057777  5.857753670253683 1.773321062114039 3.90355312422402  5.864534899645213 1.716104653363088 3.947225759893162  5.936002923682023 1.645264412840108 3.821781757549447  6.013147918614445 1.709839928361012 3.902907213378675  5.871298066378701 1.658901127913013 3.99088200467255  5.942748548093582 1.587833164196755 3.859845139154141  6.020865175797112 1.652804469127748 3.94439807551985  5.878064454146332 1.601697128397211 4.034498995292652  5.949496815846076 1.530397554681618 3.897874038445355  6.028584578108152 1.595761822616687 3.985857443502706  5.88485078876374 1.544481546744635 4.078055817762854  5.956264720926042 1.472949405977624 3.935845236467785  6.036321074466398 1.538701974678178 4.027264416277768  6.044071669248696 1.481615009436955 4.068598104826235  5.963062898158789 1.415474354128609 3.973734765353975  5.891666615830775 1.487240270126887 4.121530930786935  4.932984353255196 0.991383876826032 2.316058901283675  5.058146722835554 0.9978618934830064 2.248768543440937  5.056716652649123 1.008595071950822 2.413087748003575  5.061178700670107 0.9466201059440015 2.421135886788293  5.062090765338733 0.9346407686130932 2.247932228597182  4.937200947535636 0.9292158145650143 2.317724882648696  4.941294994203971 0.8670511484484895 2.319388910199712  5.065904858164353 0.8713838717788165 2.247096908093197  5.065530848038268 0.8846265739544152 2.42920981830412  5.069858031534742 0.822632752667396 2.437285711328324  5.069685109401187 0.8081230407645419 2.246261669629565  4.945354081252185 0.8048971097195611 2.321055129501493  5.074196202733721 0.7606432884811583 2.44536745756885  5.073482954113252 0.7448649599899901 2.245434066876752  4.949430338025695 0.74275924518109 2.322730987972412  5.078587923162906 0.6986589152337173 2.453462247396989  5.077354064864689 0.6816039456860024 2.244623269751175  4.953581051882413 0.680648583132361 2.324426225384735  5.083132483812847 0.636662328466717 2.461571222654923  5.081388799153361 0.6183053310267925 2.243841654190033  4.957918838063984 0.6185684920888397 2.32614814339776  5.842085584189857 1.040844083440466 1.652561648931696  5.762522859606936 0.974211378222761 1.782747915145824  5.907573048535892 0.9953433129717496 1.761451551475385  5.833528602659278 1.095842085152632 1.681995
[...]
<PointData  Scalars="f_14"> 
<DataArray  type="Float64"  Name="f_14"  format="ascii">8.5533741586346879e-01  8.5234031356878659e-01  8.6503280139642125e-01  7.1493645571009845e-01  6.9838847736064502e-01  1.0000000000000089e+00  1.0000000000000089e+00  1.0000000000000091e+00  8.5677314036659469e-01  8.6092805059733468e-01  7.1058987888083536e-01  1.0000000000000093e+00  1.0000000000000093e+00  -1.1296670877914914e-14  -1.1045113884867199e-14  -1.1263910032412727e-14  1.9082940312183402e-01  1.8780244403295307e-01  1.9429286122280034e-01  3.6983314562844383e-01  3.6770503303860486e-01  3.7516885000324041e-01  5.3961467058950174e-01  5.3789424199073221e-01  5.4529409442372367e-01  7.0110463581405646e-01  6.9893397394169077e-01  7.0596281066354838e-01  8.5486300814929128e-01  8.5209302396739117e-01  8.5785085387806204e-01  1.0000000000000095e+00  1.0000000000000098e+00  1.0000000000000095e+00  -1.0244730107549544e-14  -1.0403272242137336e-14  -1.0404591476100350e-14  1.7900010995086210e-01  1.6837493491792416e-01  1.7580773019522999e-01  3.5169587671905761e-01  3.3587652492258319e-01  3.4636178563094022e-01  5.1989175838515134e-01  5.0235412076506092e-01  5.1390756890322131e-01  6.8413389003550873e-01  6.6806878773892497e-01  6.7891895053333728e-01  8.4447946938546070e-01  8.3355001717971122e-01  8.4149284045695449e-01  1.0000000000000104e+00  1.0000000000000104e+00  1.0000000000000107e+00  -1.2064795790902555e-14  -1.1983226425437738e-14  -1.1846625071309457e-14  1.7550454278749036e-01  1.7225651238801543e-01  1.7664487229930856e-01  3.4186455824054607e-01  3.4922307265090208e-01  3.4758095396899918e-01  5.0941970475896903e-01  5.1790578689734157e-01  5.1609539181053454e-01  6.7500473724232146e-01  6.8266688894652605e-01  6.8106080329331586e-01  8.3862555830727137e-01  8.4345988900141899e-01  8.4243118733389211e-01  1.0000000000000089e+00  1.0000000000000087e+00  1.0000000000000089e+00  -1.1390205827839340e-14  -1.1191331511401430e-14  -1.1426791195843225e-14  1.8727507701273560e-01  1.8643851530117950e-01  1.9707907558932017e-01  3.7714086773919298e-01  3.6471687686877841e-01  3.6561775859450457e-01  5.4700526545745043e-01  5.3444746245654184e-01  5.3537542603303756e-01  6.9717202138000722e-01  6.9622632721569444e-01  7.0825528142126670e-01  8.5169917265146466e-01  8.5090752630930511e-01  8.6067076950457710e-01  1.0000000000000093e+00  1.0000000000000095e+00  1.0000000000000093e+00  -1.1212675570384491e-14  -1.0961708999005682e-14  1.8716227775681957e-01  1.9776025514468884e-01  3.7785555590134506e-01  3.6641498997088190e-01  5.4773196270908764e-01  5.3648890494431234e-01  7.0892934548914788e-01  6.9779909044067046e-01  8.6136081818514454e-01  8.5138936988428737e-01  1.0000000000000095e+00  1.0000000000000098e+00  -1.2029346697745077e-14  -1.1969599332912531e-14  -1.1787045339591128e-14  1.6541083868580597e-01  1.6467319540764985e-01  1.6598264704138799e-01  3.3199886652765204e-01  3.2965917732944894e-01  3.3118387248976855e-01  4.9814696158455429e-01  4.9531893372587710e-01  4.9715234847406647e-01  6.6459289895398266e-01  6.6194907249460100e-01  6.6350087284329717e-01  8.3161517767504878e-01  8.2997723892283892e-01  8.3062095902215982e-01  1.0000000000000089e+00  1.0000000000000089e+00  1.0000000000000091e+00  -1.1155293859385785e-14  -1.1056080188824729e-14  -1.0924544260465874e-14  1.7989410402697797e-01  1.8269006678118227e-01  1.9205938231851849e-01  3.7113371607263967e-01  3.5777819811442568e-01  3.5582640178465258e-01  5.4133425553235859e-01  5.2702733103838528e-01  5.2537609133771401e-01  7.0348020128361055e-01  6.9076173783641426e-01  6.8852878656345595e-01  8.5739729446295765e-01  8.4888586139231392e-01  8.4590179316259251e-01  1.0000000000000100e+00  1.0000000000000098e+00  1.0000000000000098e+00  -1.2917063888153087e-14  -1.2711030436010094e-14  -1.2693068592820309e-14  1.9357029607818446e-01  1.9668221519847703e-01  1.9035778479179674e-01  3.6886858761400138e-01  3.7836294061423170e-01  3.7438273502169644e-01  5.4497751402286276e-01  5.4908907521816330e-01  5.3869067793275338e-01  7.0629647930011241e-01  7.0995849245166420e-01  7.0074457831155590e-01  8.5856711481885584e-01  8.6090131413956317e-01  8.5524834984648002e-01  1.0000000000000082e+00  1.0000000000000082e+00  1.0000000000000080e+00  5.5046336778616267e-01  5.4299682126197391e-01  5.5940034223256963e-01  3.8008510486389319e-01  3.8913799127709531e-01  7.0377350570417341e-01  7.1899217310498675e-01  8.5597690746676236e-01  8.6777316293896123e-01  1.0000000000000093e+00  1.0000000000000095e+00  -1.1837446910151862e-14  1.6813017913081033e-01  3.3571213789523974e-01  5.0258438044070164e-01  6.6880591821169988e-01  8.3451685007414711e-01  1.0000000000000089e+00  2.0412573822520130e-01  1.9010290171767463e-01  1.9930158105174500e-01  3.7992332844693061e-01  3.8693449493697774e-01  3.6859418315627757e-01  5.4968090973256101e-01  5.3808556306770250e-01  5.5724827613294836e-01  7.1041137990465997e-01  6.9974479970018033e-01  7.1718806013624536e-01  8.6190236545965182e-01  8.5408886506031390e-01  8.6645889692846823e-01  1.0000000000000102e+00  1.0000000000000102e+00  1.0000000000000100e+00  -1.2680657737036964e-14  -1.2450245968605387e-14  -1.2520238537733386e-14  1.8585744068907131e-01  1.7439999105984991e-01  1.7569350356129235e-01  3.6206873382633337e-01  3.4568685102751606e-01  3.4787646415785328e-01  5.3164692999364260e-01  -1.2175882792123862e-14  -1.2239421701421445e-14  -1.2033166551639398e-14  1.7638894188033122e-01  1.7891525146412132e-01  1.6941759952127985e-01  3.4778471321519905e-01  3.5098348915159133e-01  3.3746637547609754e-01  5.1562423811433722e-01  5.1905066443700709e-01  5.0418361155008606e-01  6.8028255258715697e-01  6.8372580887991752e-01  6.6981342578316660e-01  8.4187166265065538e-01  8.4490027189584838e-01  8.3468463041294738e-01  1.0000000000000089e+00  1.0000000000000087e+00  1.0000000000000087e+00  -1.0798269075071403e-14  -1.0505268834483512e-14  -1.0786328220003388e-14  2.0305932559471510e-01  1.9512476772726581e-01  1.9195633384580041e-01  3.8595998006786847e-01  3.7557891787774050e-01  3.7296036529210719e-01  5.5639431609556744e-01  5.4543392692601211e-01  5.4338663202256821e-01  7.1642913388241480e-01  7.0628967389361641e-01  7.0420625254611835e-01  8.6587681337860833e-01  8.5852042380413396e-01  8.5630398608214831e-01  1.0000000000000100e+00  1.0000000000000104e+00  1.0000000000000100e+00  -1.2595662758575213e-14  1.6883604290107587e-01  -1.0840081820882485e-14  -1.0594498679896514e-14  -1.0443914959169935e-14  -1.0231260723625565e-14  -1.0351362448350316e-14  1.6749103860410439e-01  1.6456153688636210e-01  1.6523421978281050e-01  3.3428622880448339e-01  3.2993939568773895e-01  3.3054679375436324e-01  5.0072458246024754e-01  4.9578282411875746e-01  4.9628335139937552e-01  6.6698497561194436e-01  6.6228980503057477e-01  6.6276298642038667e-01  8.3330204701198529e-01  8.2990483503022272e-01  8.3040956393717358e-01  1.0000000000000104e+00  1.0000000000000107e+00  1.0000000000000104e+00  -9.8278274987851264e-15  -9.9559113658741425e-15  -9.9949192183286732e-15  1.6485737339811626e-01  1.6352557609807677e-01  1.6238364127547347e-01  3.3027511696393019e-01  3.2789628671787968e-01  3.2681243700274237e-01  4.9600535016495251e-01  4.9320455536773578e-01  4.9218596042897050e-01  6.6224222834333302e-01  6.5976215995242082e-01  6.5861205843679649e-01  8.2963711490495617e-01  8.2826741385599711e-01  8.2682909001229721e-01  1.0000000000000109e+00  1.0000000000000109e+00  1.0000000000000111e+00  -1.2287963945327450e-14  -1.2034311300124000e-14  -1.2211732971925478e-14  1.8194796131556937e-01  1.8299625352759580e-01  1.9381040889927725e-01  3.5855916668583382e-01  3.5993371115555839e-01  3.7322069338359626e-01  5.2797483591978778e-01  5.2936815629719558e-01  5.4304603208041713e-01  6.9034426585689135e-01  6.9165118076867538e-01  7.0454755292031690e-01  8.4677980345815640e-01  8.4781653135135138e-01  8.5760210322105601e-01  1.0000000000000087e+00  1.0000000000000089e+00  1.0000000000000084e+00  -1.0269082519850064e-14  -1.0363494665035600e-14  1.9899062937145709e-01  1.7325543311740496e-01  3.4773676193114528e-01  3.7926045077056170e-01  5.1645754381806364e-01  5.4880416952652589e-01  6.7903619427982576e-01  7.0956294870379588e-01  8.3727934794552994e-01  8.6170096733453339e-01  1.0000000000000107e+00  1.0000000000000104e+00  -1.0380133269053845e-14  1.6366370598771063e-01  3.2800166531074942e-01  4.9334749605377209e-01  6.6001606957887515e-01  8.2859293069339757e-01  1.0000000000000104e+00  -1.1759653455438504e-14  -1.1544655615386702e-14  -1.1496341679947207e-14  1.9020447685459968e-01  1.9235462722453792e-01  1.9469117721968907e-01  3.7382167391157961e-01  3.7290339494398433e-01  3.6874432747659974e-01  5.4348492346256316e-01  5.3843548708711042e-01  7.0502331130001483e-01  7.0011419964302857e-01  8.5430008213262021e-01  8.5843206794404958e-01  1.0000000000000093e+00  1.0000000000000091e+00  -1.0690086814524027e-14  -1.0538670973262277e-14  1.6689726697241494e-01  1.6496166836611775e-01  3.3022622560520232e-01  3.3366732253872411e-01  4.9592446660398337e-01  5.0008174244025039e-01  6.6233913335846784e-01  6.6624011096027946e-01  8.2996841654323661e-01  8.3250078815924455e-01  1.0000000000000102e+00  1.0000000000000102e+00  -1.1028054945711963e-14  -1.0793345461146194e-14  -1.0844082853800735e-14  1.8685726703760933e-01  2.0725905053402227e-01  1.9685998645449515e-01  3.6553751811017526e-01  3.9053889945815456e-01  3.7806118570816027e-01  5.3552965334457947e-01  5.6102454106140665e-01  5.4831736196510672e-01  6.9750501666876408e-01  7.2093078661818988e-01  7.0909249171558375e-01  8.5211792673997666e-01  8.6946883362981253e-01  8.6045386737611496e-01  1.0000000000000100e+00  1.0000000000000100e+00  1.0000000000000098e+00  -1.2211865678165511e-14  -1.2274548746696677e-14  1.7876249952738613e-01  1.7096231062845724e-01  3.5222509814820302e-01  3.4074145932678845e-01  5.2119825331924530e-01  5.0850644794510591e-01  5.1410060987938966e-01  6.8568609515035794e-01  6.7407031602593426e-01  -1.1689369649251715e-14  1.8210215173000835e-01  3.5871796538735201e-01  5.2801251438419528e-01  6.9030637503693204e-01  8.4663919628068895e-01  1.0000000000000091e+00  -1.2551266697932626e-14  -1.2376430832430658e-14  -1.2349379667281067e-14  1.6371000540225553e-01  1.7009201481170924e-01  1.6440824596310727e-01  3.2874926360761730e-01  3.3845576422144158e-01  3.2985727015799376e-01  4.9457976508509027e-01  5.0555187319646211e-01  4.9596067879452166e-01  6.6128014188606588e-01  6.7150382714736756e-01  6.6277379022166816e-01  8.2930648722662259e-01  8.3637755655243484e-01  8.3056777193978060e-01  1.0000000000000084e+00  1.0000000000000084e+00  1.0000000000000082e+00  -1.2107432713006205e-14  -1.1873605681261520e-14  -1.1906584098425865e-14  1.6342592874083844e-01  1.6804194608074993e-01  1.6424802762860061e-01  3.2834511168783259e-01  3.3500169948836472e-01  3.2942726903820496e-01  4.9395378939462942e-01  5.0128809006284358e-01  4.9505662388505406e-01  6.6038852423135108e-01  6.6726530788505722e-01  6.6134232089253930e-01  8.2830147831884793e-01  8.3333977459227093e-01  8.2896774194194134e-01  1.0000000000000089e+00  1.0000000000000089e+00  1.0000000000000087e+00  -1.2045890594546268e-14  1.7806033401904839e-01  3.5187118190563810e-01  5.2047411859320492e-01  6.8413148674459889e-01  8.4346286524284375e-01  1.0000000000000087e+00  -1.2094107055022380e-14  1.8362290172507506e-01  3.6027387861774035e-01  5.3015506289561709e-01  6.9353327546865928e-01  8.5047561020826923e-01  8.4559430708941707e-01  1.0000000000000087e+00  1.0000000000000087e+00  -9.5671782721018494e-15  -9.6281238676086826e-15  -9.7912761262500557e-15  1.6633414107346822e-01  1.6331437585490999e-01  1.6845137843839081e-01  3.3303442853791526e-01  3.2817330098780323e-01  3.3631955907420397e-01  4.9932072729276411e-01  -1.1753974893620552e-14  -1.1669108809750572e-14  1.6684571690563593e-01  1.7373232136583092e-01  3.3321869281342242e-01  3.4314148685531781e-01  4.9925337479244308e-01  5.1023335282407356e-01  6.6527671880514527e-01  6.7558030254554369e-01  8.3185272995736503e-01  8.3922830019039973e-01  1.0000000000000091e+00  1.0000000000000091e+00  -9.7212308988042614e-15  -9.8715585012521369e-15  -9.6974071823009768e-15  1.6846712324147292e-01  1.7240092010938901e-01  1.6788345136442628e-01  3.3626962715558517e-01  3.4206120817166669e-01  3.3491815256763724e-01  5.0310506734852756e-01  5.0953849955217212e-01  5.0143577928027205e-01  6.6905692837190522e-01  -1.0642269101425280e-14  -1.0467108306143811e-14  -1.0582642230338204e-14  1.6319509070592780e-01  1.6415516799101104e-01  1.6595660375291799e-01  3.2737544672652513e-01  3.2899601174427301e-01  3.3184493008234384e-01  4.9261481367854260e-01  4.9445148805088895e-01  4.9764893556316436e-01  6.5916726370223966e-01  6.6080278555297345e-01  6.6366139158240622e-01  8.2771958020781344e-01  8.2877137030425485e-01  8.3058919036995049e-01  1.0000000000000102e+00  1.0000000000000104e+00  1.0000000000000102e+00  -1.2888067829477482e-14  1.8652542592507942e-01  3.6501903716213341e-01  5.3494658148178986e-01  6.9687771196442339e-01  8.5152222739926098e-01  1.0000000000000080e+00  -1.0601670567417920e-14  1.7203298582247048e-01  3.4167479153874591e-01  5.0889742177381014e-01  6.7394545549627649e-01  8.3734282939545190e-01  1.0000000000000102e+00  -1.0238403052674962e-14  1.6372622774956161e-01  3.2813983441480482e-01  4.9357656028427771e-01  6.6034556994235527e-01  8.2898856923189113e-01  1.0000000000000107e+00  -1.2722395728881728e-14  -1.2517446432589105e-14  1.6301763530425162e-01  1.6105508432760049e-01  3.2444817925821590e-01  3.2724922653070176e-01  4.8956072789656041e-01  4.9289363132395220e-01  6.5649138657252637e-01  6.6013185508075023e-01  8.2593348267487687e-01  8.2919265347970939e-01  1.0000000000000080e+00  1.0000000000000082e+00  1.0000000000000102e+00  1.0000000000000104e+00  1.0000000000000102e+00  8.4657067842956157e-01  7.0269924128362260e-01  7.0995651739250354e-01  5.4847197773538769e-01  8.6288511440984661e-01  1.0000000000000087e+00  -1.1025566296738481e-14  -1.0837557394693149e-14  -1.0963640435957491e-14  1.7367531390144342e-01  1.8359998990890014e-01  1.9165886018792297e-01  3.4426546080711784e-01  3.5859001708292104e-01  3.6982262038508634e-01  5.1184194541884265e-01  5.2753401077144069e-01  5.3941836781541586e-01  6.7666477960527571e-01  6.9101594714735448e-01  7.0174853997229747e-01  8.3919638602703073e-01  8.4912028935122119e-01  8.5647650383879204e-01  1.0000000000000098e+00  1.0000000000000100e+00  1.0000000000000098e+00  -1.1097454052455125e-14  -1.0972157385329357e-14  -1.1172586870802039e-14  1.7872341331621727e-01  1.7534926858497737e-01  1.7143839799650171e-01  3.4711954022763142e-01  3.4098426603144705e-01  3.5153072572920252e-01  5.0852426516586136e-01  5.1544978974985523e-01  5.2018055174201805e-01  6.7407674164093112e-01  6.8048363826480740e-01  6.8478442382088400e-01  8.3775305386631849e-01  8.4214474974621967e-01  8.4521687006932056e-01  1.0000000000000098e+00  1.0000000000000098e+00  1.0000000000000095e+00  1.6100456566166582e-01  1.6876092875215767e-01  1.6117261538950939e-01  -1.2937271364578554e-14  -1.2754957270178404e-14  3.3610394207243616e-01  3.2540335485872696e-01  3.2489474190727557e-01  5.0256225686536804e-01  4.9095641124145106e-01  4.9006967455567507e-01  6.6844235337125535e-01  6.5743265432122500e-01  -1.2466885087129973e-14  -1.2419097089667551e-14  -1.2227457897054515e-14  1.9165307806642945e-01  2.0311308513463269e-01  2.0402983298966287e-01  3.8768425012088731e-01  3.8646043962712251e-01  3.7098344982886283e-01  5.5882001185524344e-01  5.5743543326964107e-01  5.4089814405646064e-01  7.1906859781058574e-01  7.1758344790461326e-01  7.0238521806849286e-01  8.6788846130193542e-01  8.6656607444102418e-01  8.5599115664842140e-01  1.0000000000000084e+00  1.0000000000000084e+00  1.0000000000000087e+00  8.3755856680210283e-01  1.0000000000000087e+00  3.6784661995685686e-01  5.3795344690259517e-01  6.9896961838651972e-01  8.5207934998234935e-01  1.0000000000000100e+00  -1.2692783959971530e-14  -1.2427986647509426e-14  -1.2518389167024509e-14  1.6598449485509670e-01  1.6292145482123510e-01  -1.0331679511966688e-14  1.8483124648867921e-01  3.6063966763593691e-01  5.2938444187810474e-01  6.9186856269939156e-01  8.4889009456534426e-01  1.0000000000000104e+00  8.4860495011468717e-01  8.4878976172860110e-01  8.6046717108928517e-01  7.0739572632535219e-01  1.0000000000000100e+00  1.0000000000000102e+00  1.0000000000000100e+00  -1.1849926924851862e-14  -1.1711013038428679e-14  -1.1616263635163793e-14  1.9312071739089798e-01  1.8212834934923361e-01  1.8375590801238054e-01  3.6130029913377282e-01  3.5825050512469392e-01  3.7225541146256325e-01  5.3132165890946559e-01  5.2777928987398692e-01  5.4241922616857186e-01  6.9405270330216329e-01  6.9090680942051896e-01  -1.0858169140753749e-14  -1.0755343076504723e-14  1.7993683543500774e-01  1.8405455983393376e-01  3.5519297375437303e-01  3.5832238912692826e-01  5.2439047137048012e-01  5.2714055634397194e-01  6.8756384835695517e-01  6.9098346364281482e-01  8.4531934403418629e-01  8.4966969490982081e-01  1.0000000000000100e+00  1.0000000000000100e+00  -1.0566691637103172e-14  2.0727453702678494e-01  3.8999757911212363e-01  5.6027221775163416e-01  7.1995702920901816e-01  8.6873837228256257e-01  1.0000000000000102e+00  -1.1630608492158847e-14  1.8441449214532832e-01  3.6189270533069329e-01  5.3137257467068955e-01  6.9337269928699097e-01  8.4881799889103693e-01  1.0000000000000091e+00  -1.1961814150523921e-14  1.7344462548323353e-01  3.4267392225401877e-01  5.0981057447295708e-01  6.7533315155214646e-01  8.3925334287519437e-01  1.0000000000000089e+00  -1.3115558909192918e-14  -1.2905662894166216e-14  -1.2900612559479886e-14  1.8248010146014446e-01  1.9947080940988882e-01  1.9511683027481672e-01  3.7417795005197269e-01  3.7907430260175146e-01  3.5938013790052248e-01  5.4380672454056145e-01  5.4896406334891490e-01  5.2894053282284303e-01  7.0561129146334178e-01  7.1054476708212133e-01  6.9159825215340420e-01  8.5919443649417415e-01  8.6341803112795623e-01  8.4798834515615007e-01  1.0000000000000078e+00  1.0000000000000080e+00  1.0000000000000080e+00  -1.1287506332150202e-14  1.8003407419755163e-01  3.5546341473801696e-01  5.2501941496582849e-01  6.8871597236432469e-01  8.4678114167484408e-01  1.0000000000000095e+00  -1.2188922033857507e-14  1.6308008242190389e-01  3.2769773947430292e-01  4.9333857539637543e-01  6.6011499591150169e-01  8.2849593395601218e-01  1.0000000000000087e+00  1.8985015678334405e-01  1.9355587581645878e-01  1.9108698250853809e-01  -1.1429925260761458e-14  -1.1335820883012073e-14  3.7250815201042248e-01  3.7052575477923511e-01  3.7214362939864798e-01  5.4264196909422291e-01  5.4119952858058673e-01  5.4289721696694804e-01  7.0470822964047053e-01  -1.0154608131302291e-14  1.6141685410840750e-01  3.2538627599513120e-01  4.9056518998629289e-01  6.5709051031648025e-01  8.2581986180099531e-01  1.0000000000000107e+00  -1.1543678811036228e-14  -1.1445960726036060e-14  1.6831693283625734e-01  1.7266845098793260e-01  3.4176342425545453e-01  3.3547983428404143e-01  5.0878822857237260e-01  5.0187039357867702e-01  6.7414439453641251e-01  6.6782392435158766e-01  8.3803930960962458e-01  8.3373262162352035e-01  1.0000000000000093e+00  1.0000000000000093e+00  -1.0777162820588284e-14  1.6776606264170232e-01  3.3473836127804141e-01  5.0117543792270891e-01  6.6727606797502403e-01  8.3332692747530568e-01  1.0000000000000100e+00  -1.2154185877743821e-14  1.6354620865968256e-01  3.2785954098108416e-01  4.9325057361292168e-01  6.5998496192211575e-01  8.2855105921219929e-01  1.0000000000000087e+00  -1.1258344499862396e-14  -1.0979638247970609e-14  -1.1081033220276747e-14  1.6420181349597920e-01  1.6676027588752937e-01  1.6669024099265303e-01  3.2912564631442009e-01  3.3293925604715119e-01  3.3276219397998524e-01  4.9462811213570301e-01  4.9891619975813817e-01  4.9867260925930301