<?xml version="1.0"?>
<VTKFile type="UnstructuredGrid"  version="0.1"  >
<UnstructuredGrid>
<Piece  NumberOfPoints="983" NumberOfCells="4247">
<Points>
<DataArray  type="Float64"  NumberOfComponents="3"  format="ascii">2.171478137168154 1.309859334646997 1.505424260637562  2.266327400593965 1.416276572378371 1.432023815598247  2.305406424771003 1.304691958039174 1.480703958381454  2.293833213677006 1.272195267170737 1.421047386937245  2.256386709372238 1.387350406335945 1.372224887076698  2.15696502944493 1.275155908974247 1.447731011433955  2.282175595730838 1.239553292974362 1.361440011198881  2.246366343749277 1.358284627696172 1.312459494445362  2.142304003500572 1.240301784247671 1.390157282546023  2.270484304551292 1.206880841079307 1.301829478338095  2.236302120930782 1.329181995054974 1.252694282351362  2.127603588815862 1.205416853463736 1.332618701677491  2.258808674984143 1.17425476931056 1.24217157728487  2.226233869481641 1.30012182086037 1.192893295684815  2.112936064751094 1.170584178000428 1.275050405541261  2.24719007089044 1.141740123203499 1.182422832927253  2.216202292439736 1.271176481351646 1.133019053538971  2.098370405737796 1.135881419076565 1.217393462955147  2.235637388122885 1.109410479614537 1.122548610476684  2.206243149640968 1.242426638974518 1.073013917584397  2.08396381816333 1.101375190776417 1.159577855227305  2.717672778169885 0.8468239850122303 1.812359868147136  2.813931084736506 0.8024155756251172 1.873159725957  2.7173950388668 0.7840785830204342 1.951957955041838  2.7099224132058 0.71251054370642 1.930090932536533  2.810194120925464 0.7345137931002147 1.841801268579219  2.709586898599095 0.7814827600566094 1.776657245622399  2.702217735795317 0.640986418232516 1.908201588400322  2.806267147253084 0.6666368052751563 1.810422517012704  2.701256366891849 0.7161722913268145 1.740961244265611  2.694438346563758 0.5694773521090389 1.88630427374108  2.802281770723967 0.5987721423441332 1.779023010799753  2.692856107060877 0.6508741592661382 1.70525078335433  2.686674703722257 0.4979696335958204 1.864415248274364  2.798309363792912 0.530907752540406 1.747614711451435  2.684470183386585 0.5855805044996142 1.669521378167941  2.679000083139988 0.42645135762756 1.842549622271566  2.794410830885222 0.4630392700789054 1.716206593090401  2.676163855159319 0.5202858265234001 1.633770873659907  2.671496940395584 0.3549009183220636 1.820724774325811  2.790630173248034 0.3951698812900066 1.684792090756558  2.668020093840463 0.4549770658280635 1.598013176772473  2.819532983981846 0.7510203846784462 2.299045264024552  2.954751162129228 0.7433431712537902 2.199231328866082  2.958693894990739 0.7542017644347682 2.318349479270927  2.956839107014181 0.6709755048855416 2.201788887835689  2.578068878657831 0.7653637302979251 2.272280012526093  2.545041159516503 0.7704319193362303 2.13549943142252  2.690543680123414 0.751379464624742 2.220485439503201  2.68438617355765 0.6777479170148142 2.221971434895048  2.535738627302239 0.6963808867523928 2.128578211821793  2.571103901049074 0.6919748825488947 2.27542084112469  2.563965092374952 0.6186101243197799 2.278494147645601  2.526254023622432 0.6223935120596634 2.121562383891432  2.678004256569701 0.6041347229932912 2.223382545576922  2.556751166676162 0.5452596105283742 2.281561672054019  2.516691806370852 0.5484384594010151 2.114535966450509  2.671547671771755 0.5305324346187632 2.224794477627696  2.54954229764046 0.4719142413908887 2.284659147025101  2.50714325615682 0.4744960803639795 2.107535084455835  2.665096884138012 0.4569316800611621 2.226237704909433  2.542411360041752 0.3985668802990283 2.287812065500259  2.497683421004962 0.4005488591515508 2.100588168935052  2.658725246226992 0.3833268475948926 2.227734537280566  2.535414214593139 0.3252155952497807 2.291048173673547  2.488365233379551 0.3265823968796098 2.093719433429616  2.65251916390095 0.3097071014381244 2.229306849606669  2.811161103711802 0.7439361843625241 2.181323387300869  2.807456911324833 0.6705341749737489 2.179729931707586  2.966702342841288 0.3086754200457223 2.214608651190888  2.788006191466009 0.3033090613364086 2.171747950329836  2.812033664285642 0.3195117926540835 2.3473582023388  2.964673434453742 0.3812003792366415 2.211945278352128  2.791758058124719 0.3767867333500109 2.17325205961593  2.623452240330737 1.587264587993803 1.322966067156039  2.625838839706284 1.73555469654092 1.273994355985354  2.732335376117434 1.66638585452141 1.290071810752866  2.618956634154294 1.566125973281125 1.262705730673973  2.883927354407661 0.6970621029427673 1.955560985933468  2.892750728636934 0.6705935738136721 2.079875044113167  3.01944047600109 0.6767946778473766 2.050573174450752  2.895092135912674 0.7439685747013807 2.087989262612247  2.886478942482979 0.7685717541604431 1.975184984974612  3.022394639373875 0.6042506165574097 2.041724866533059  2.881147040230959 0.6255276254712198 1.935903278631884  2.890215251330448 0.5972042355932237 2.071703684604334  3.025316527801286 0.5316856889282233 2.032872168140876  2.878292650023478 0.5539766594534183 1.916224903199504  2.887621898492739 0.5238091373013294 2.063528118950529  3.028222565697863 0.4591015796417962 2.024041408530013  2.875444001977536 0.4824069519816077 1.896551408978217  2.885032766181998 0.4504024959709856 2.055377232337063  3.031135554792422 0.386482316407059 2.015252865737576  2.872667483520483 0.4108032215830074 1.876904962114136  2.88250861520036 0.376976259944957 2.04727219296223  3.034101975318667 0.3137995965031407 2.006522033946526  2.870043853980815 0.3391581338405074 1.857295391728976  2.880144986395029 0.30350927209585 2.039226206477966  2.33590448837503 0.9604839351643033 1.740660739974369  2.461855547271008 0.9700788749620965 1.699680229372172  2.48627689698657 0.8857144008169325 1.80108134205767  2.473686796898274 0.8217625480624073 1.763039981005834  2.448830595051267 0.9156278248380529 1.650814446854448  2.320487812575565 0.9035807795257962 1.694834756056418  2.460926704538641 0.7578994884905014 1.725081194198362  2.435668810563547 0.8611600426293091 1.602078338569979  2.304957572118641 0.846714417061925 1.649144766918542  2.448114005186619 0.6940766343620598 1.687133754851158  2.422454628505331 0.8067037657975138 1.553348485542329  2.289391459059754 0.7898865222407156 1.603481442172134  2.435322699980639 0.6302766219881136 1.649174044589062  2.409267090580716 0.752274803790524 1.504576295275392  2.273861928027557 0.7331021066563024 1.557789386129023  2.422618641430378 0.566499266517809 1.611195381287661  2.396166148826799 0.6978845912330913 1.455741182053092  2.25842149723816 0.676374820155164 1.512042768696698  2.410087825372738 0.5027461420642763 1.573193490938084  2.383184040809888 0.6435520817059572 1.406838146642202  2.243079722934084 0.6197108894132221 1.466252852929412  2.603031066029796 0.8335596592085017 1.866884968072232  2.592802935308434 0.7656921517657442 1.83549290287804  2.582360876381911 0.6979112036779772 1.804133299146501  2.571846805834212 0.6301651817915128 1.772768265016158  2.561350387255858 0.562429289586419 1.741399323090591  2.550946027394599 0.49469353514639 1.710034215734221  2.5407077906571 0.4269548139187634 1.678673919441418  2.372789145647602 0.8842174386420276 1.854695562297914  2.359058982038848 0.818524483520743 1.820550416060094  2.345206293986332 0.7529426409157913 1.786479253650332  2.33129606553321 0.6874171935705911 1.752422024493848  2.317402326550074 0.6219171759534645 1.718361629656293  2.303584331512246 0.556430113580151 1.68429314781762  2.289901549095875 0.4909466253761087 1.650220757115809  2.82536131829176 0.870305237417161 1.761406863440421  2.921926376612179 0.9133926674251349 1.697434630422147  2.93065352086493 0.8247943280159318 1.831262618645128  2.823378433299246 0.8092093352091696 1.719743515518173  2.924395380601674 0.8577545260082281 1.650264186671413  2.931535103110062 0.7600864102815994 1.795747502534988  2.926844259587555 0.8020854213739655 1.603096998712253  2.821270247830196 0.748051200941535 1.678083408521539  2.932338253044263 0.6953363814609047 1.760191545680802  2.929302500967391 0.7464137566389961 1.555915160915235  2.819126542722151 0.6868835256823485 1.636396095486004  2.933118571124005 0.6305694262629702 1.724610439716522  2.931745535871728 0.6907582789798392 1.508695038197393  2.816983816434337 0.6257155953395056 1.594676741423444  2.933893761228839 0.5657917224946474 1.689002835954934  2.93468289411329 0.5010082319516116 1.65337179002663  2.93417527921818 0.6351264312685495 1.461416457350697  2.814875800768887 0.5645399760663825 1.552918517298347  2.935537603052146 0.4361965775345447 1.617708785844099  2.936636100427033 0.5794895666242965 1.414108550506317  2.812859595491464 0.5033425750079601 1.511120870480287  1.61909314852576 1.435515961839519 1.555706773152887  1.658817275468362 1.527962793865104 1.469736227497901  1.757723213686891 1.428720073759284 1.530187274580987  1.746550144566283 1.387792208415137 1.479541508619159  2.445318429010769 0.775671789038056 2.196975876424493  2.434397153358769 0.7017163537424713 2.192159290242244  2.423320484766762 0.6278324237561796 2.187264812599131  2.412181190212643 0.553996761378811 2.18235794753901  2.401063676333824 0.4801859054880783 2.177478465292787  2.390040300579181 0.4063884291486521 2.172656844048106  2.379171922004171 0.3325903888643869 2.167920068187712  2.786352158566833 0.7580676599008549 2.057447374258196  2.780784001132551 0.6848859406813552 2.045569893528262  2.774973986162446 0.6117347896269099 2.033630298148442  2.769084006563487 0.5385791044285686 2.021682001779622  2.763200436362477 0.4654110000162917 2.009750666890123  2.757394354609233 0.3922237226138631 1.997855210842159  2.751754503415721 0.3190143884057012 1.986004975620631  2.567212117588744 0.9878067534765613 1.648568712552605  2.691340669605192 1.011388819865458 1.610065520571657  2.720692147351581 0.9180196774643079 1.692988389324788  2.714944216775281 0.8602786324250871 1.646366093330948  2.685435179906243 0.9637
[...]
<PointData  Scalars="f_14"> 
<DataArray  type="Float64"  Name="f_14"  format="ascii">-1.9805924613333699e-13  -1.9654141544908134e-13  -1.9564131726411010e-13  1.9342678936582464e-01  1.8403075969496976e-01  1.9589206876609361e-01  3.7329635263912647e-01  3.6014439058107572e-01  3.7485559736149437e-01  5.4365908945843022e-01  5.2963651000635870e-01  5.4482061975415186e-01  7.0535584434551812e-01  6.9298716947968320e-01  7.0702944284983771e-01  8.5833508695341032e-01  8.5020857149234363e-01  8.6093691404931760e-01  1.0000000000000384e+00  1.0000000000000375e+00  1.0000000000000360e+00  -1.8772307306691737e-13  -1.8599873946912515e-13  -1.8758694098889420e-13  2.2327738545771308e-01  2.3513152073925447e-01  2.1837222793248293e-01  4.1612317378737446e-01  4.2892075680778108e-01  4.1122112050814541e-01  5.8769698381441904e-01  6.0003694327668611e-01  5.8321421030517762e-01  7.4173154267383423e-01  7.5260290172345412e-01  7.3740792523157028e-01  8.7976442018775414e-01  8.8808676270457909e-01  8.7605680382058670e-01  1.0000000000000464e+00  1.0000000000000480e+00  1.0000000000000462e+00  -1.8544002978732242e-13  -1.8320761454048758e-13  -1.8296292720963522e-13  2.1566948916835457e-01  -1.8962350894372937e-13  -1.9031432566916437e-13  -1.8777017196337253e-13  2.1100883560392147e-01  2.0984959154280355e-01  2.0129893921567821e-01  3.8720805033451444e-01  3.9835052533687659e-01  3.9918879103496924e-01  5.5870239523761545e-01  5.6997633085154964e-01  5.7065931373836842e-01  7.1707963493718019e-01  7.2692971243188254e-01  7.2771104716247192e-01  8.6377825046032353e-01  8.7036241612858800e-01  8.7158025290276553e-01  1.0000000000000444e+00  1.0000000000000437e+00  1.0000000000000462e+00  -1.8575090194333262e-13  2.1495073621549696e-01  1.0000000000000506e+00  1.0000000000000482e+00  1.0000000000000484e+00  8.7488543573469590e-01  8.7340877091937719e-01  -1.9039211050465575e-13  -1.9053543063661821e-13  -1.8850266210100751e-13  1.7720661814992461e-01  2.2120767145336184e-01  2.2757344970129093e-01  2.2943654297105637e-01  -1.8441528231324257e-13  -1.8468511929637855e-13  4.2488981214583077e-01  4.1571423639900884e-01  4.1998530359548519e-01  5.9663596682542308e-01  5.8778763377080856e-01  5.9129253841733809e-01  7.4899768318216986e-01  7.4108153449433656e-01  7.4496740626322799e-01  8.8391749104208284e-01  8.7791564878182538e-01  8.8267787368116346e-01  1.0000000000000515e+00  1.0000000000000491e+00  1.0000000000000493e+00  -1.9434925422545490e-13  -1.9225768729638887e-13  -1.9165038426084445e-13  2.2259850631878531e-01  2.1077147169098931e-01  2.2373923541665405e-01  4.1369209927169581e-01  4.0075130102126910e-01  4.1410404642693416e-01  5.8513985115154243e-01  5.7277287702462076e-01  5.8524724428525932e-01  7.4011180113190134e-01  7.2898984115049070e-01  7.4047775941293503e-01  8.7984743219716743e-01  8.7097757097407524e-01  8.8042033114235763e-01  1.0000000000000424e+00  1.0000000000000417e+00  1.0000000000000397e+00  -1.8960476435606954e-13  2.1798260248091020e-01  4.0923334807278117e-01  5.8100713492645972e-01  7.3609896121041851e-01  8.7636262061366277e-01  1.0000000000000444e+00  -1.9352244352807181e-13  2.0981231854950416e-01  4.0009525359623577e-01  5.7192330147526427e-01  7.2777089669989825e-01  8.6968346554474363e-01  1.0000000000000406e+00  -1.8588132018855651e-13  -1.8423103014790210e-13  -1.8400723786254397e-13  2.1869890996188571e-01  2.2917722908907653e-01  2.2553455116117879e-01  4.2270065321207095e-01  4.1247311395560277e-01  4.2058847583439352e-01  5.9430018570716714e-01  5.8474725758242785e-01  5.9270267639542118e-01  7.4790709783101905e-01  7.3872607281255998e-01  7.4563492170997248e-01  8.8158945752839624e-01  8.8463007710283581e-01  8.7681742310576238e-01  1.0000000000000500e+00  1.0000000000000497e+00  1.0000000000000480e+00  -2.0818769670435980e-13  -2.0760330413656336e-13  -2.0568350437189308e-13  1.7499396499740510e-01  -1.9194656441862629e-13  2.1626826647496711e-01  4.0346232077590133e-01  5.7445447734939625e-01  7.3171549859925855e-01  8.7560807854237421e-01  1.0000000000000420e+00  -1.8632019749880300e-13  2.1206245212242480e-01  4.0321365172353163e-01  5.7517771152473773e-01  7.3043763932385786e-01  8.7139940019811135e-01  1.0000000000000475e+00  -1.9052534125660655e-13  -1.8840045831149842e-13  -1.8775168603839897e-13  2.3737914487965059e-01  2.1536691605740552e-01  2.2255978338736207e-01  4.3122071147390373e-01  4.0688186459451431e-01  4.1355615325612100e-01  6.0220620660473123e-01  5.7910119264040805e-01  5.8510636567320740e-01  7.5474808832730522e-01  7.3462866435512320e-01  7.4026364503271569e-01  8.8951977243360625e-01  8.7511090038068717e-01  8.8001284636346655e-01  1.0000000000000462e+00  1.0000000000000455e+00  1.0000000000000433e+00  -1.9535441652431900e-13  -1.9393401314460842e-13  -1.9563326380719650e-13  1.9630574903173548e-01  2.0523631410803175e-01  2.0786457204341377e-01  3.8011831468165314e-01  3.9046937250454400e-01  3.9392432777531311e-01  5.5109979741583803e-01  5.6142768813782262e-01  5.6500275471689465e-01  7.1044796118767406e-01  7.1985796503589905e-01  7.2300954371927006e-01  8.5950372860864721e-01  8.6668591081383628e-01  8.6888958766760249e-01  1.0000000000000384e+00  1.0000000000000400e+00  1.0000000000000386e+00  -1.9229156410118162e-13  1.7050867582228396e-01  -1.8978577541601180e-13  2.1621936011391776e-01  4.0823994542171388e-01  5.8019705169099067e-01  7.3498843542977443e-01  8.7461780491621421e-01  1.0000000000000442e+00  -1.9879747428391491e-13  1.7922550089895242e-01  3.5356867583496776e-01  5.2245128661074069e-01  6.8608438579947950e-01  8.4462933066277468e-01  1.0000000000000353e+00  -1.9846380246265413e-13  -1.9660456061709863e-13  -1.9629679208245139e-13  1.7182625192024137e-01  1.6558776416637164e-01  1.7005642636961354e-01  3.4073779431397211e-01  3.3098490088000176e-01  3.3792969140208395e-01  5.0801351716132370e-01  -1.9868996834608869e-13  -1.9654063489498556e-13  1.7512796491480884e-01  1.8107441211804218e-01  3.4714490108282137e-01  3.5365097397305872e-01  5.1544314537867786e-01  5.2198454426391550e-01  6.8021955651901411e-01  6.8680174193415666e-01  8.4156567244547853e-01  8.4753650071101916e-01  1.0000000000000375e+00  1.0000000000000353e+00  5.0475534387749377e-01  6.7386173306214314e-01  6.7090101346350095e-01  -1.9597845607063333e-13  2.2374024290738281e-01  4.1402575982303941e-01  5.8518409375875136e-01  7.4038896136149035e-01  8.8051434815794816e-01  1.0000000000000380e+00  7.2093279524905240e-01  7.1082071752205245e-01  7.3551104862878935e-01  8.7723109530127408e-01  8.5980250232690847e-01  8.6706485759960539e-01  1.0000000000000497e+00  1.0000000000000488e+00  -1.9734654412795286e-13  2.0660229947062747e-01  3.9138520433083224e-01  5.6213588086872734e-01  7.2066739065968366e-01  8.6772803344226879e-01  1.0000000000000366e+00  4.0469907554311541e-01  5.7617012649407484e-01  7.3188664062848141e-01  -1.9160957038856258e-13  2.0877903203022996e-01  3.9750470057697629e-01  5.6918959624859922e-01  7.2603203099774583e-01  8.6965314370535940e-01  1.0000000000000424e+00  -1.8587217514440192e-13  2.1906676423058100e-01  4.1136371693356311e-01  5.8336208292285030e-01  7.3800514693828201e-01  8.7688561062618953e-01  1.0000000000000480e+00  -2.0012338228421800e-13  -1.9797641840778480e-13  -1.9789740300547463e-13  2.1010506353342870e-01  1.9594502072065631e-01  1.9112466957915777e-01  3.9687530050767211e-01  3.7852051087395761e-01  3.7223236777978708e-01  5.6811606323017461e-01  5.4941761497522823e-01  5.4305661908391378e-01  7.2598540932962852e-01  7.0956887706348626e-01  7.0421221711625825e-01  8.7108080463968274e-01  8.5978274795640031e-01  8.5634985225067528e-01  1.0000000000000362e+00  1.0000000000000360e+00  1.0000000000000340e+00  -1.9721666313984554e-13  2.0384255021136996e-01  3.9109590236533698e-01  5.6250037424325561e-01  7.1999639011761152e-01  8.6516490636879329e-01  1.0000000000000369e+00  -1.9590778795302523e-13  2.0311609279073953e-01  3.9029421662352043e-01  5.6202440858094338e-01  7.2003529825079549e-01  8.6550537479703205e-01  1.0000000000000382e+00  -1.9226474769981604e-13  1.7617100489987653e-01  3.4877942074698437e-01  4.0305029892208033e-01  4.0787760687018471e-01  4.0675651369938171e-01  5.7465974012000798e-01  5.7998972998960419e-01  5.7871938922234578e-01  1.0000000000000531e+00  1.0000000000000526e+00  8.7513452872755548e-01  -1.8647894768585846e-13  -1.8449155835806176e-13  -1.8514659512802042e-13  1.9649013791515432e-01  1.9302032622089074e-01  2.0424347688743746e-01  3.7356299216985328e-01  3.7989472310203193e-01  3.9066422494994302e-01  5.4415965394536714e-01  5.5127346425196488e-01  5.6236749306925271e-01  7.0557194554838010e-01  7.1145797553634582e-01  8.5795496518177672e-01  8.6113257886622963e-01  1.0000000000000495e+00  1.0000000000000475e+00  -2.0000237694408337e-13  2.0534462164358933e-01  3.9085790311009055e-01  5.6212645287366192e-01  7.2094039124161147e-01  8.6776673238890800e-01  1.0000000000000340e+00  -1.9345170778017682e-13  2.0049681962815827e-01  3.8725793640531070e-01  5.5882673891925017e-01  7.1665695167483112e-01  8.6250923754665842e-01  1.0000000000000406e+00  -2.0180346656320829e-13  -1.9967039913577753e-13  -1.9930386710807938e-13  2.0457004859972502e-01  2.1939265395704222e-01  2.0787220297559736e-01  3.8997186235190967e-01  4.0840652384976478e-01  3.9380349545081356e-01  5.6096625709191406e-01  5.7937316839987951e-01  5.6478595235537443e-01  7.1944609605898635e-01  7.3550421181876369e-01  7.2275238601530745e-01  8.6658687954959379e-01  8.7721664142527389e-01  8.6857619243204998e-01  1.0000000000000346e+00  1.0000000000000344e+00  1.0000000000000322e+00  1.0000000000000466e+00  -1.8831868085386126e-13  2.1547505438127498e-01  4.0533671819632139e-01  5.7695588251389762e-01  7.3294651827301127e-01  8.7467081766487320e-01  1.0000000000000457e+00  -2.0053467916938048e-13  1.8363665352731701e-01  3.5899292791485332e-01  5.2826413737038735e-01  6.9207950571721355e-01  8.5055474403719922e-01  1.0000000000000335e+00  -2.0111648235745716e-13  -1.9891026122070435e-13  -2.0081125758186453e-13  1.6236719385852533e-01  1.6252752068403750e-01  -2.0232117961213590e-13  -2.0269442464063884e-13  -2.0019282964206065e-13  1.9068943890923276e-01  1.7225896768470020e-01  1.8636228659593743e-01  3.6911627693349369e-01  3.4434428264331379e-01  3.6270783627915504e-01  5.3918352457627972e-01  5.1264275002733040e-01  5.3215215791896053e-01  7.0151144141586619e-01  6.7705368380000630e-01  6.9527790758671904e-01  8.5606688874462644e-01  8.3819661577739191e-01  8.5204285804461388e-01  1.0000000000000340e+00  1.0000000000000315e+00  1.0000000000000318e+00  2.4433681696401932e-01  4.4009366956580526e-01  6.1082579368413947e-01  7.6128224860516658e-01  8.9301808301723085e-01  1.0000000000000513e+00  -2.0133111402119539e-13  1.9282486652755321e-01  3.7598319084871651e-01  5.4701023022071560e-01  7.0654308162240520e-01  8.5606281275082940e-01  1.0000000000000329e+00  -1.9430513742760456e-13  -1.9435565435346480e-13  1.8246533185011665e-01  1.7431876481348571e-01  3.5697953953963607e-01  3.4485189581909165e-01  5.2596503017794005e-01  5.1260312343467229e-01  6.8982308220419208e-01  6.7778258198134134e-01  8.4843544084581679e-01  8.4042450281378056e-01  1.0000000000000397e+00  1.0000000000000397e+00  -1.9603598811012784e-13  1.9481163914946795e-01  3.7655483320650845e-01  5.4723362274546983e-01  7.0781886293602447e-01  8.5879904154728259e-01  1.0000000000000380e+00  -1.9324930575018461e-13  2.2095226842853755e-01  4.1049201601189156e-01  5.8155168087047637e-01  7.3718794859196124e-01  8.7843439961632142e-01  1.0000000000000409e+00  -1.8681804957064630e-13  -1.8423581618845655e-13  2.1726614315600232e-01  2.1741312445751976e-01  4.0730880474731412e-01  4.0719236965287342e-01  5.7901272756506617e-01  5.7902554138030349e-01  7.3495078208840692e-01  8.7605172243687379e-01  1.0000000000000471e+00  -1.9930376242010106e-13  1.9589696598537679e-01  3.7886807588433402e-01  5.4964510994052096e-01  7.0934272863490466e-01  8.5927159280179399e-01  1.0000000000000346e+00  -2.0648491077771278e-13  -2.0676692322419083e-13  -2.0429466669404844e-13  1.9353751245132780e-01  1.8181655932067123e-01  1.8799609588636154e-01  3.7402491379827035e-01  3.5642858735260108e-01  3.6692437135880462e-01  5.4439651473401829e-01  5.2555381654268252e-01  5.3718892838446464e-01  7.0555896985468247e-01  6.8963902706840530e-01  6.9959765861360834e-01  8.5790371491593775e-01  8.4862493400223926e-01  8.5432917777704265e-01  1.0000000000000300e+00  1.0000000000000275e+00  1.0000000000000278e+00  -1.9151657679857057e-13  1.9890704473207638e-01  3.8379934040345925e-01  5.5511836899557554e-01  -1.9782400225369957e-13  2.1207224401921201e-01  4.0195324593206044e-01  5.7355818744339848e-01  7.2964205658832171e-01  8.7155870226204446e-01  1.0000000000000362e+00  3.2815879893182620e-01  -2.0341941326920448e-13  -2.0305978397769130e-13  1.6576651776518922e-01  1.5757674960355234e-01  3.3165381681653244e-01  3.1965813119562791e-01  4.9758239874947785e-01  4.9416365910351440e-01  4.8416250380850390e-01  6.6400260248937848e-01  -2.0135163499576429e-13  1.9002339601307455e-01  3.7220485883250887e-01  5.4308334089669941e-01  7.0313412899133276e-01  8.5395345517734844e-01  1.0000000000000329e+00  -2.1059889362041971e-13  -2.1079546941369357e-13  -2.0812055712748661e-13  2.0145933686323270e-01  1.9778136031801810e-01  -1.9807683027262420e-13  -1.9594926334480401e-13  2.0490833306652495e-01  1.8929065930196762e-01  3.8905927358592313e-01  3.6939231885080220e-01  5.6005273078408613e-01  5.3975898469980921e-01  7.1938132317926540e-01  7.0109879795675623e-01  8.6741704514794349e-01  8.5411721186639733e-01  1.0000000000000382e+00  1.0000000000000360e+00  -2.0461362290603746e-13  -2.0213507366225081e-13  1.9711697431286451e-01  1.8191379444103925e-01  3.7974473884146343e-01  3.5807579487311669e-01  5.5061177149278395e-01  5.2754894401851249e-01  7.1084536010676702e-01  6.9060959157969748e-01  8.6102383140338623e-01  8.4769976688829696e-01  1.0000000000000320e+00  1.0000000000000295e+00  -2.0879473340098187e-13  -2.0899367514256587e-13  1.7093241884292576e-01  1.8386720844529131e-01  3.4167350721032824e-01  3.5968554361438887e-01  5.0934578934146357e-01  5.2892783293057566e-01  6.7398690342363077e-01  6.9223622520315620e-01  8.3631487943264216e-01  8.4972268488509772e-01  1.0000000000000253e+00  1.0000000000000253e+00  -2.0842894551819766e-13  2.0148458149825219e-01  3.8453684820806666e-01  3.7802927118317586e-01  3.8599584767947748e-01  5.5524976033162921e-01  5.4776556947406929e-01  5.5714255111847877e-01  7.1517050798603288e-01  -2.0475805449081051e-13  -2.0446660404589213e-13  1.7738844257544389e-01  1.7780306249525843e-01  3.5109955910445489e-01  3.4932661715745200e-01  5.1980023661120833e-01  5.1736129842931999e-01  6.8380657427444758e-01  6.8231262817008198e-01  8.4343340590757565e-01  8.4395063062674192e-01  1.0000000000000298e+00  1.0000000000000293e+00  -1.9411038726826471e-13  1.8504114224497689e-01  3.6279013779203212e-01  5.3276398673271197e-01  6.9524967917045044e-01  8.5065403689636210e-01  1.0000000000000400e+00  -1.8643355012125231e-13  -1.8649357450225456e-13  -1.8459381082549554e-13  1.8189298210005728e-01  1.7286065357174440e-01  1.8111473577533277e-01  3.5668524015085817e-01  -2.0875399603959795e-13  -2.0619263992844543e-13  1.9816889540473440e-01  1.9308133823332960e-01  3.8312337996230394e-01  3.7348268987442984e-01  5.5446498900411600e-01  5.4375464228571480e-01  7.1376102792202545e-01  7.0516460964360561e-01  8.6181689493890146e-01  8.5774776570233824e-01  8.6454682690636209e-01  1.0000000000000280e+00  1.0000000000000253e+00  1.0000000000000258e+00  -2.0349571346769756e-13  1.7853314150464722e-01  3.4939321341366575e-01  5.1703925104726156e-01  6.8222829227337634e-01  8.4473904842652003e-01  1.0000000000000306e+00  -2.0346451846186004e-13  2.0913141803019353e-01  3.9450629972638779e-01  5.6514326328281672e-01  7.2347079797866676e-01  8.7001450369133637e-01  1.0000000000000309e+00  -2.0539491667334329e-13  1.6131716191316711e-01  3.2725108310668072e-01  3.4426541634778501e-01  4.9331171686859876e-01  5.1151099461776373e-01  6.5937593048509247e-01  6.7731427366414154e-01  8.2654626095624373e-01  8.4133808299128088e-01  1.0000000000000289e+00  1.0000000000000284e+00  -2.1126984748941605e-13  -2.1111443084022917e-13  1.7266322148756871e-01  1.7780606759310238e-01  3.4101512249540800e-01  3.5017001750794557e-01  5.0745095389959849e-01  5.1794736900868465e-01  6.7261940476592297e-01  6.8176007787788040e-01  8.3719024897907501e-01  8.4214553654289181e-01  1.0000000000000229e+00  1.0000000000000231e+00  -1.9134382089526248e-13  2.1017322345557934e-01  4.0030124065606765e-01  5.7226207155393605e-01  7.2840631994872551e-01  8.7068792005661722e-01  1.0000000000000426e+00  -2.1102303605139488e-13  1.8629794022489538e-01  3.6304411266748055e-01  5.3203178405883922e-01  6.9431519698757427e-01  8.5040059846365534e-01  1.0000000000000233e+00  -1.9518645519806928e-13  -1.9544059427841247e-13  2.1528211738228625e-01  2.1223631182866584e-01  4.0594149081110320e-01  4.0075373392348296e-01  5.7748435786041608e-01  5.7209071226397212e-01  7.3301404155271321e-01  7.2864978497768351e-01  8.7418820792843999e-01  8.7175868455146011e-01  1.0000000000000386e+00  1.0000000000000389e+00  -2.0944453266182520e-13  -2.0714251489129968e-13  -2.0906435488040722e-13  1.7223060282230976e-01  1.6356153027708015e-01  1.7155804582135489e-01  3.4101407332735573e-01  -2.0234475645658537e-13  1.8984693053420573e-01  3.6881953247668314e-01  5.3899635008146618e-01  7.0102988302399938e-01  8.5525602991408822e-01  1.0000000000000318e+00  -2.0390076294224356e-13  2.0546370427472455e-01  3.9084691553060813e-01  5.6172082142985513e-01  7.2012988926840638e-01  8.6694087074422821e-01  1.0000000000000304e+00  5.0782981739302746e-01  6.7335306815928864e-01  8.3785698129045527e-01  1.0000000000000251e+00  -2.1130487711928490e-13  1.6668122874899383e-01  3.3266053568578641e-01  4.9813045473674078e-01  6.6383906474629117e-01  8.3079581956047188e-01  1.0000000000000229e+00  -2.0106518850386094e-13  -2.0087123574663160e-13  1.7771152991076844e-01  1.7606078161239974e-01  3.4842850476672010e-01  3.4798537636928084e-01  5.1614284358742957e-01  5.1612100280571382e-01  6.8141109406128630e-01  6.8061845533278009e-01  8.4391137567908270e-01  8.4176658067222399e-01  1.0000000000000331e+00  1.0000000000000331e+00  -1.9754438693693203e-13  2.2488377003111326e-01  4.1511417361944497e-01  5.8598701266723352e-01  7.4087684529931663e-01  8.8046565770061336e-01  1.0000000000000366e+00  6.6035678569556666e-01  8.2756059659427550e-01  1.0000000000000333e+00  -2.0313025157348403e-13  1.6588740952877051e-01  3.3353592200407567e-01  5.0011643681446039e-01  6.6568715332674000e-01  8.3107948394174469e-01  8.3138353013956501e-01  1.0000000000000311e+00  1.0000000000000311e+00  -2.0680899398748730e-13  1.7839122495933343e-01  3.4987261756013993e-01  3.3102909506170997e-01  5.1801708668182100e-01  4.9766985932455765e-01  6.8329901784469593e-01  6.6325467387624182e-01  8.4552758726809996e-01  8.2860039497075533e-01  1.0000000000000273e+00  1.0000000000000271e+00  -2.0349492219334103e-13  2.0222244456972446e-01  -2.0225194836680881e-13  -2.0011191909617523e-13  2.2067461144623821e-01  2.0057323371635860e-01  4.0914265347295797e-01  3.8627528544212208e-01  5.8022721923136034e-01  5.5755670734488139e-01  7.3668838940105841e-01  7.1627696715684708e-01  8.7862180477287422e-01  8.6352121857919750e-01  1.0000000000000340e+00  1.0000000000000318e+00  -2.0659056197808231e-13  2.1026307778312181e-01  3.9386822641297570e-01  5.6457548246028455e-01  7.2432293999935027e-01  8.7229945094399874e-01  1.0000000000000275e+00  -2.0575552976715493e-13  2.1390268448842864e-01  3.9993348965223519e-01  8.3648758637916898e-01  1.0000000000000355e+00  -2.0430061835781744e-13  2.0691987110826368e-01  3.9122228222761862e-01  5.6187752526048806e-01  7.2069889455466063e-01  8.677730