<?xml version="1.0"?>
<VTKFile type="UnstructuredGrid"  version="0.1"  >
<UnstructuredGrid>
<Piece  NumberOfPoints="2264" NumberOfCells="10340">
<Points>
<DataArray  type="Float64"  NumberOfComponents="3"  format="ascii">1.790473408364985 4.016172545180251 1.536912093950385  1.903074918425123 4.038412914746047 1.669123903517955  1.914756744511855 3.995249942819004 1.509930377067344  1.922176617250014 4.068373234816239 1.487803500470629  1.909270854960658 4.11117360639391 1.653196645272388  1.796190853977514 4.089281918804936 1.516904904640935  1.801736221250897 4.162307321318176 1.496944332572499  1.91530294736388 4.183807808932712 1.637335320689515  1.929392048626509 4.141417671941715 1.465740805291567  1.936510946699707 4.214364635069387 1.443702406798688  1.921254418600705 4.256354958243357 1.621484265433211  1.807186721166672 4.235179113021578 1.477014843818907  1.943606580482338 4.287209852579352 1.421656198827101  1.927184077043987 4.328768979774442 1.605626269771988  1.81262351285447 4.307935984162016 1.457079372407438  1.950755601877356 4.359959854462751 1.399574131932408  1.933143252651837 4.401083585330181 1.589724803392464  1.818119133858744 4.380542315396425 1.437118667643772  1.958041217486873 4.43262830422282 1.377436498637106  1.939227149282546 4.473255465815862 1.573779769944089  1.823765573667297 4.453031034162179 1.41710472893359  0.8536311479773994 4.018705003563555 1.362761556823412  0.7447835235525281 4.041751128318691 1.424466258428668  0.8510204681792201 4.062297008867845 1.532048229237119  0.8562419788907609 4.146682737038542 1.515671297548134  0.7499653137095879 4.128615549985912 1.399665634860535  0.8588214799333753 4.101905169911079 1.333115063767979  0.7548060758660065 4.214746802632009 1.375031690840075  0.8635671476518574 4.184474188955419 1.30368235277463  0.8610885757000931 4.230465959690938 1.499364944745691  0.8680390935010257 4.26656917571252 1.274472612276816  0.7594158457527801 4.300178562054109 1.350687648822031  0.8656985147753623 4.313690398907676 1.483241303534747  0.8724219089137748 4.348094104238588 1.245478268270765  0.7639735107921501 4.385011614759241 1.326581465306937  0.8702807363239454 4.396395895555409 1.467275001184089  0.8770061785959593 4.429010163268345 1.216602631369778  0.7687060483312923 4.469234945602353 1.302656126885144  0.8750281307305365 4.478527279091963 1.451415526762533  0.8822940019541081 4.509295153105906 1.187874888920234  0.7739945919125779 4.552700743117487 1.278890093073135  0.8802277295242851 4.559919997844944 1.43559929270107  2.84484057281759 3.883302610757409 1.417791590697213  2.962801942149008 3.909921285352783 1.500148120422462  2.953389082321891 3.85185893576661 1.359735449164441  2.959171783424984 3.926401429032143 1.321370357601274  2.968447746223973 3.987958802619286 1.473545423592708  2.84941513470772 3.959594218084547 1.385481614695927  2.854055145285535 4.03585764948037 1.353216851474268  2.97414925049575 4.065932658645056 1.446992721008866  2.965014391448857 4.000885257872757 1.283082843530934  2.858729192586292 4.11207999337672 1.320966008385811  2.979865646867853 4.143847175019324 1.420459349549184  2.97087965412462 4.075317846600126 1.24480226589905  2.863385810602272 4.188266319099243 1.28871139089611  2.985561335130149 4.221714070366069 1.39392998275468  2.976731368284527 4.149702130978914 1.206519961929826  2.867984940713338 4.264415520523269 1.256445627412893  2.991205945318364 4.299530499159883 1.367398011659721  2.982539413873081 4.224038353191673 1.168226396800125  2.872476795220495 4.340521981420987 1.22414197041561  2.99674461700831 4.37727787191493 1.340829888874677  2.988241322681104 4.298309033719353 1.129900897969816  2.40264073355139 3.743885524703932 1.116570322953303  2.544959584623498 3.769122125896915 1.177048676048938  2.484327970083939 3.676045719699043 1.046955148657574  2.491320910940571 3.737520477435502 0.9888937467491516  2.551775085186661 3.838026280892678 1.129936931332371  2.412391674313482 3.809435457259396 1.065269147890305  2.498295044692255 3.799033193657403 0.9308471138065076  2.558579945995741 3.906967302199334 1.082847184504754  2.422054166163535 3.875032397389458 1.013972759208797  2.505277533467139 3.860538708288446 0.8727734015940278  2.565398847296962 3.975905711310138 1.035736960697909  2.431696433255608 3.940630744606218 0.9626457293882598  2.512263375775133 3.92202799704781 0.8146613398749384  2.572214114550653 4.044831847845819 0.9885970163834837  2.441330957280653 4.006221430289039 0.9112840052700637  2.519242507755735 3.983506096061463 0.7564901758572752  2.579007236067457 4.113744420034482 0.941410941347038  2.450967673374659 4.071814121733884 0.8598793353805014  2.526151873578664 4.044997870648166 0.6982251313212082  2.585728908627869 4.182667663713374 0.8941512476412891  2.460656807737844 4.137443184269889 0.8083967380637024  2.415496698209911 3.978765562570008 1.614341330471688  2.398680058404701 4.003260424359119 1.757805539415065  2.525476660868341 3.987489221245567 1.716882274147504  2.532099561818627 4.063477344871993 1.705150954460259  2.406127577013462 4.077961162981383 1.74703079316369  2.422017179463774 4.054381667232915 1.596346527236592  2.538676906071279 4.139461626135249 1.693460057342382  2.41348707188387 4.152645806826512 1.736305738422641  2.428472378064098 4.129999211725467 1.578390950432533  2.545220038527195 4.215423158122945 1.681785852230832  2.420783334760751 4.22729710622944 1.72560012765237  2.434877897926245 4.205601633835453 1.560446309844156  2.551731052423547 4.2913571109378 1.670103693190745  2.428046503811087 4.301909833181452 1.714884052508647  2.441252470861249 4.281182636020658 1.542486848108856  2.558204519847453 4.367274079183931 1.658387168746991  2.435305256556608 4.376490024725643 1.704129541174972  2.44761431382495 4.356751826946055 1.524486944407695  2.564641734074663 4.443205098148505 1.646604836038597  2.442581026184136 4.451059385679192 1.693306405075739  2.453966414004886 4.432322165533386 1.506424254347919  2.6741700597724 3.802707727424844 1.240900927084882  2.661596166966952 3.70706529106924 1.100160066950673  2.66816754194622 3.772132982787244 1.045362645588486  2.678780838013196 3.87381006408279 1.196537456460296  2.674757333452036 3.837220520205572 0.9906020536582455  2.683438771664478 3.944929735045009 1.152215140487116  2.681376409065393 3.902292354169867 0.9358243221355843  2.688129478397584 4.016036459948101 1.107877554111699  2.687991516917423 3.96734833820146 0.8810134527533285  2.692814100624513 4.08712585797104 1.063513083153697  2.694565115958364 4.032391696809924 0.8261534507941974  2.697451281940061 4.158201610154117 1.019104660956673  2.701058425590654 4.097422707953821 0.7712287526996364  2.701952317977212 4.229263212982141 0.9746423933134667  1.612498452742445 3.176384797777566 0.3770553818289006  1.489594064273129 3.063375391496879 0.3632152078499788  1.615423179146113 2.966383147379424 0.3828855245723903  1.482194763637869 3.062895192933043 0.4441033002526656  1.60347310749342 3.170475849199104 0.4579259417311525  1.621587309890372 3.182254205140319 0.2962360086631899  1.497040938046472 3.063815742081765 0.2824061036779062  1.624561070962734 2.960456284164653 0.3038671278729428  1.630878192951785 3.188000576440264 0.2154749095892732  1.504714817247737 3.064087886890788 0.2017075004232285  1.633876006992873 2.954384239287356 0.224924378120287  2.573948854758965 3.603525721673367 0.9896083884241657  2.734125521392809 3.614527079647563 1.019116253810849  2.741292019952726 3.673877669412157 0.9575022781892061  2.58001795820155 3.659237835802264 0.92500656823599  2.586104785382333 3.714978738960895 0.8604261087361054  2.748488416056998 3.733234405993048 0.8959237419042076  2.592207350759732 3.770709227081752 0.7958298978447852  2.75570486521274 3.792578675254782 0.8343475345539069  2.598312631686386 3.826418908466527 0.7311958300664213  2.7629237377599 3.851897810914452 0.7727444114793609  2.604392736151734 3.882112791236356 0.6665103921690444  2.770114375004584 3.911187142146747 0.711101453398117  2.610388746040901 3.937799566032052 0.6017627969637567  2.777238856797811 3.970438179702756 0.6494178561871604  1.987566522635452 3.594228991788682 0.8936841033191905  2.079550990475215 3.65279713333547 0.9543375697357158  2.139634259952488 3.558908750427282 0.8919534704686998  2.151007654171191 3.604198540329747 0.8213448037642879  2.091230474337025 3.706909230004768 0.8909001472790349  1.997173703348715 3.642593144236913 0.8254260900077008  2.006616231639379 3.691004130747001 0.7571831345436324  2.102737712785111 3.76106119005507 0.8274696781785014  2.162235057559706 3.649542948116427 0.750743515487386  2.015995258372449 3.739402282732506 0.6889333361932896  2.114184321332381 3.815205286420081 0.7640199599715356  2.173421131185759 3.694876274156475 0.6801180194429366  2.025374403889601 3.787763740597907 0.620676420256987  2.12563176132885 3.869321317453146 0.70054767138606  2.184614106644177 3.740181461136635 0.6094604373707715  2.195847204018817 3.785454271467785 0.5387660715457421  2.137129082399169 3.923397981318159 0.6370438085042359  2.034814937765926 3.836077572984371 0.5524082602230885  2.207167580940153 3.830694943417757 0.4680240102592114  2.148750592687733 3.977429128870122 0.5735031282482571  2.044351541009723 3.884330531755303 0.4841166504504843  2.853165369381441 3.937830702911942 1.561331494545815  2.857466638957343 4.01620937781802 1.539231266046828  2.86184284532017 4.094538069734263 1.5171735104903  2.866229848615792 4.172830949023171 1.495131354696916  2.870593634842177 4.251086105992298 1.473090602853354  2.874899578541553 4.329305704004459 1.451041825013243  2.879080296033925 4.407479437435927 1.428946289737187  2.901445569454301 3.451498730769702 0.9268714878165617  2.957001636327565 3.331464299290024 0.8767269349677969  2.802931475036309 3.350017311218497 0.8661165391699234  2.811694316855128 3.378584919351408 0.7865610980989155  2.966693089353639 3.357122527119087 0.7969178277083777  2.9115179399
[...]
<PointData  Scalars="f_14"> 
<DataArray  type="Float64"  Name="f_14"  format="ascii">-1.8370286407713066e-14  -1.8169547556691289e-14  -1.8157203044101793e-14  1.8587809482049794e-01  1.8702809425232086e-01  1.9019895666737432e-01  3.6798433353330617e-01  3.6427659218163699e-01  3.6316094486126810e-01  5.3256701488763736e-01  5.3364975636859957e-01  5.3724309032488493e-01  6.9476440459325228e-01  6.9581604361449900e-01  6.9909326768284563e-01  8.5047482194389190e-01  8.5140022714355446e-01  8.5390571733109566e-01  1.0000000000000027e+00  1.0000000000000027e+00  1.0000000000000024e+00  -1.9881880825129450e-14  -2.0036981716315454e-14  -1.9880699746872345e-14  1.9429374840504166e-01  1.9960731739806065e-01  2.0579161925325343e-01  3.8375324828046659e-01  3.8920588663069527e-01  3.7447739467362845e-01  5.5949287181001228e-01  5.5444115413612793e-01  5.4444617754919311e-01  7.1842423750861939e-01  7.1356043596617746e-01  7.0545458397302852e-01  8.6644768156344476e-01  8.6197166424387028e-01  8.5776564400118571e-01  1.0000000000000009e+00  1.0000000000000007e+00  1.0000000000000009e+00  -1.6616300310637287e-14  -1.6410531582760090e-14  -1.6436197627356516e-14  2.0494206582889629e-01  2.0282942728921169e-01  1.9596886017124235e-01  3.7906880149938188e-01  3.8759157726770044e-01  3.8973155272072973e-01  5.5003873997505737e-01  5.5862613355922230e-01  5.6063357854637086e-01  7.0992773255231889e-01  7.1767991365286210e-01  7.1941330779633406e-01  8.5965477321769967e-01  8.6538850647359322e-01  8.6685228860030816e-01  1.0000000000000042e+00  1.0000000000000044e+00  1.0000000000000044e+00  -1.7364043119445985e-14  -1.7128897859589911e-14  -1.7238348088754657e-14  2.0130389379622440e-01  1.8939393687137832e-01  1.9395386214805974e-01  3.8465326991203941e-01  3.6983411714801712e-01  3.7531473115291941e-01  5.5512104727869438e-01  5.4010834155038634e-01  5.4554773025122671e-01  7.1440375889239849e-01  7.0084935457420783e-01  7.0576569541774226e-01  8.6343450902223151e-01  8.5315171448281535e-01  8.5707418173670136e-01  1.0000000000000036e+00  1.0000000000000038e+00  1.0000000000000036e+00  -1.7308457882610345e-14  -1.7320871461472267e-14  -1.7116031693818914e-14  1.8515394174102612e-01  1.7938290769122697e-01  1.9088730451419950e-01  3.6108988781717460e-01  3.5441257585568586e-01  3.6846815788162274e-01  5.3032973709039954e-01  5.2346772049706580e-01  5.3802085398910804e-01  6.9335722089802576e-01  6.8677365806542856e-01  7.0047523447292737e-01  8.5045043828499700e-01  8.4489089227653624e-01  8.5579511256662699e-01  1.0000000000000038e+00  1.0000000000000036e+00  1.0000000000000036e+00  -1.6913438102031724e-14  -1.6941524880764619e-14  2.0706715924040825e-01  1.9528829471032452e-01  3.9172907625222642e-01  3.7682585429177506e-01  5.6250330394233772e-01  5.4734044641321022e-01  7.2142707153777597e-01  7.0782513049522888e-01  8.6886713827523587e-01  8.5906639991185119e-01  1.0000000000000038e+00  1.0000000000000040e+00  7.1440746761706475e-01  7.1017502030169921e-01  7.1663842623896179e-01  5.5120315007798570e-01  5.5564738187724483e-01  8.6283975156967019e-01  8.5911687982807527e-01  8.6595394162107542e-01  1.0000000000000020e+00  1.0000000000000018e+00  1.0000000000000020e+00  -1.7095330026608284e-14  -1.6822881319949844e-14  2.0108099624395739e-01  2.0337139930233650e-01  3.8930540550662274e-01  3.8803716618679857e-01  5.6025468660890221e-01  5.5949240799043576e-01  7.1841257826055616e-01  7.1741086804816234e-01  8.6518766482630838e-01  8.6349213113799728e-01  1.0000000000000038e+00  1.0000000000000040e+00  -1.8074061562325814e-14  -1.7912744898527396e-14  -1.7816764938369884e-14  2.1155751503310882e-01  2.0706037483813561e-01  2.0968437951917657e-01  3.9772110546487732e-01  3.9430826494069582e-01  3.9866020557308079e-01  5.6875512311878684e-01  5.6533209471728529e-01  5.6936400948250554e-01  7.2541969428885822e-01  7.2252089414695497e-01  7.2624803647481717e-01  8.7043229661367416e-01  8.6738174648842403e-01  8.6904251230877416e-01  1.0000000000000031e+00  1.0000000000000029e+00  1.0000000000000027e+00  -1.6591562531432991e-14  2.0349475102950096e-01  3.8650697973879927e-01  5.5718762654853893e-01  7.1705361946508783e-01  8.6608830261336966e-01  1.0000000000000042e+00  -1.6536290167392242e-14  -1.6442934441036777e-14  -1.6707373693481486e-14  2.1383158971652491e-01  2.1156775882392781e-01  2.0115121631635266e-01  4.0088640622767663e-01  3.9651142988150839e-01  3.8814896929844073e-01  5.7170297028361727e-01  5.6680217973157532e-01  5.5944078709216338e-01  7.2878308710282291e-01  1.0000000000000044e+00  1.0000000000000042e+00  1.0000000000000042e+00  8.6306144618149616e-01  -1.7536824949903196e-14  -1.7541293022230183e-14  1.8422850902706109e-01  1.8767194385866973e-01  3.6075083470843761e-01  3.6503785361028218e-01  5.3003487076297906e-01  5.3446216287309478e-01  6.9268628869149518e-01  6.9669591118294527e-01  8.4918839131113544e-01  8.5212078488438736e-01  1.0000000000000033e+00  1.0000000000000033e+00  -1.7700001942899246e-14  -1.7589959885858553e-14  2.0553545248129290e-01  2.0677398204026184e-01  3.9108030985073577e-01  3.9267276339809121e-01  5.6170400022957911e-01  5.6333459467311109e-01  7.1961972438021538e-01  7.2118536049560822e-01  8.6647472852293195e-01  8.6727809532771549e-01  1.0000000000000033e+00  1.0000000000000031e+00  -1.8196828191668970e-14  -1.8004376340426215e-14  2.1562327980727147e-01  2.1523777392503077e-01  4.0266701315638515e-01  4.0344917892870247e-01  5.7320520288714272e-01  5.7397780935155807e-01  7.2982275038616651e-01  7.3020078453466275e-01  8.7377102958995057e-01  8.7320577382170450e-01  1.0000000000000029e+00  1.0000000000000027e+00  -1.7437891088073588e-14  -1.7276516862430704e-14  -1.7494263086168330e-14  1.9351282430769248e-01  1.9463272352040326e-01  1.8604927120370307e-01  3.7415551639012967e-01  3.7425687974936062e-01  3.6428882891744324e-01  5.4432239488235534e-01  5.4412138094985396e-01  5.3404628736551363e-01  7.0508118055117130e-01  7.0535400183472585e-01  6.9584948484891951e-01  8.5736590367121646e-01  8.5856528924180331e-01  8.5054435279734419e-01  1.0000000000000033e+00  1.0000000000000036e+00  1.0000000000000033e+00  -1.7966405461439916e-14  -1.7949778485926722e-14  -1.7753323967256827e-14  1.8737327358275069e-01  1.8730933781863285e-01  1.8288157867213672e-01  3.6425845535762563e-01  3.6422831273022249e-01  3.5962950436260094e-01  5.3355293600725417e-01  5.3354566198135922e-01  5.2905894321456370e-01  6.9594902414159265e-01  6.9597757631548907e-01  6.9147196129321631e-01  8.5180544712746109e-01  8.5188851677045085e-01  8.4769750022358903e-01  1.0000000000000031e+00  1.0000000000000029e+00  1.0000000000000029e+00  -1.6180692587271870e-14  -1.6209458855173308e-14  2.1472249446025243e-01  1.9690378647683665e-01  4.0106776635682218e-01  3.8164702753097285e-01  5.7185348375338674e-01  5.5301811616049878e-01  7.2958732099491408e-01  7.1216898116966998e-01  8.7432057600035695e-01  8.6030795735231380e-01  1.0000000000000047e+00  1.0000000000000047e+00  5.5642522401377092e-01  5.7125847348964909e-01  7.2893575781654529e-01  7.1526280158219924e-01  8.7342685868218839e-01  8.6287783534166229e-01  1.0000000000000049e+00  1.0000000000000049e+00  -1.5939409729988713e-14  -1.5997063623113618e-14  1.9990376247455130e-01  2.1366681328341020e-01  3.8504210354936419e-01  4.0032801344116614e-01  5.5617465689690615e-01  7.1492476177096509e-01  8.6264897389458606e-01  1.0000000000000049e+00  -1.6672361000962856e-14  -1.6714486927280018e-14  1.9693335578406235e-01  2.0119868458319989e-01  3.8096037745170824e-01  3.8461938473731205e-01  5.5204007900127805e-01  5.5539224082517469e-01  7.1153161164311418e-01  7.1497449601021568e-01  8.6060236019379710e-01  8.6393138013511139e-01  1.0000000000000040e+00  1.0000000000000042e+00  1.9926806648631923e-01  3.8360277346510474e-01  5.5451579439592291e-01  -1.7081573017096070e-14  1.8800012913726863e-01  3.6729680592214414e-01  5.3719916567050430e-01  6.9841070456432175e-01  8.5191634638848890e-01  1.0000000000000038e+00  -1.8964023909513473e-14  -1.8759569829709974e-14  -1.8949914051221723e-14  2.0743244493329402e-01  5.6260552647855078e-01  3.9217338038619137e-01  7.2068551429270145e-01  8.6775378004215276e-01  1.0000000000000018e+00  -1.8423183621886542e-14  -1.8274301858357515e-14  -1.8434366802674516e-14  2.0851123939668828e-01  2.0981624723839742e-01  1.9766465785153386e-01  3.8150379880147589e-01  3.9580203683338983e-01  3.9476614082623762e-01  5.5202102950452425e-01  5.6639816664405096e-01  5.6530186222804990e-01  7.2407059266164031e-01  7.1081014275096910e-01  7.2259828416029004e-01  8.5943368735473413e-01  8.6973152715662583e-01  8.6809596058353633e-01  1.0000000000000024e+00  1.0000000000000024e+00  1.0000000000000024e+00  -1.6789756809454432e-14  2.0627633271749254e-01  3.9478864399573704e-01  5.6627310295985334e-01  7.1713396187328937e-01  7.2325320308861307e-01  8.7289406155555938e-01  8.6754993558915316e-01  1.0000000000000040e+00  -1.8288098539451908e-14  2.1514918488924234e-01  4.0280444376539998e-01  5.7334498699578207e-01  7.2953836726371168e-01  8.7309218518254617e-01  1.0000000000000024e+00  -1.7733916480362818e-14  1.8854212946190257e-01  3.6550137337958333e-01  5.3479025190596485e-01  6.9725821251092113e-01  8.5311006294323033e-01  1.0000000000000031e+00  -1.6786246092807356e-14  1.9471732410582687e-01  3.7614692614811446e-01  5.4679844306095304e-01  7.0760086137351008e-01  8.5908538992223227e-01  1.0000000000000040e+00  -1.8925228232194785e-14  -1.8736595692215869e-14  2.0645316965477836e-01  2.0377516064741727e-01  2.0139799067502362e-01  3.8528899838526404e-01  3.9192831685407215e-01  3.9008158945912580e-01  5.6241216982761510e-01  5.6084015849248980e-01  7.2016083888080440e-01  7.1829804275949294e-01  8.6669734089665473e-01  8.6397225927524712e-01  1.0000000000000020e+00  1.0000000000000020e+00  -1.9024405189171533e-14  -1.8798206033224007e-14  -1.8834570017917471e-14  2.1335083670093721e-01  1.9771357557262523e-01  2.0486679960405130e-01  3.8927765263414443e-01  3.8283930841881308e-01  3.9964648417680126e-01  5.5343334836692915e-01  5.5930421306387545e-01  5.6980518889585841e-01  7.1139795329539213e-01  7.1722670993923576e-01  7.2658207148194953e-01  8.6466105788832992e-01  8.5869733525681635e-01  8.7136848335210693e-01  1.0000000000000018e+00  1.0000000000000020e+00  1.0000000000000020e+00  -1.7641933509864721e-14  1.9201972128880765e-01  3.7172175672445124e-01  5.4165823643984301e-01  7.0269820984201303e-01  8.5554961375925831e-01  1.0000000000000031e+00  1.0000000000000044e+00  1.0000000000000044e+00  -1.8339728407047834e-14  -1.8385223171993405e-14  1.8661419909345262e-01  1.9147770795673799e-01  3.6390555487523596e-01  3.6964800614236526e-01  5.3891788720780764e-01  5.3301952580000955e-01  7.0058951483562637e-01  6.9486902619547841e-01  8.5492256175571879e-01  8.5021812266164321e-01  1.0000000000000024e+00  1.0000000000000024e+00  -1.7422803330244233e-14  1.9972349119183461e-01  3.8387747632776659e-01  5.5445963238627549e-01  7.1321011030884662e-01  8.6128008777788434e-01  1.0000000000000033e+00  -1.7596996185242672e-14  1.8681504870063306e-01  3.6466410080645029e-01  5.3420063681552143e-01  6.9616045440772589e-01  8.5128964944476448e-01  1.0000000000000033e+00  -1.8612159683356406e-14  2.1188778023715885e-01  3.9728903105541902e-01  5.6751653542517932e-01  7.2508513351811488e-01  8.7083370793257175e-01  1.0000000000000022e+00  -1.7937756421574889e-14  -1.7797097246924945e-14  -1.7654605896996699e-14  1.9636423822685586e-01  1.9719929693145993e-01  1.9666543608105683e-01  3.7843514524597921e-01  3.8034137589418104e-01  -1.9678807591009710e-14  -1.9687036162058983e-14  -1.9507951751347155e-14  1.7792062964382771e-01  1.8429370485563260e-01  1.9102237407143396e-01  3.5267203244651674e-01  3.6015924156598483e-01  3.7012586686015192e-01  5.2134538396840180e-01  5.2919245772409607e-01  5.3980844011683216e-01  6.8427025778255146e-01  6.9200579816989594e-01  7.0126974167508072e-01  8.4243835694238667e-01  8.4922892234468406e-01  8.5500050837713759e-01  1.0000000000000013e+00  1.0000000000000011e+00  1.0000000000000011e+00  -1.7684549663117551e-14  1.9651757500300954e-01  3.7997178634373424e-01  5.5048457169111831e-01  7.0990947240812996e-01  8.5922243014997668e-01  1.0000000000000031e+00  -1.7537630613893656e-14  2.0409214924720973e-01  3.8696437172143999e-01  5.5727042038932562e-01  7.1655403352184455e-01  8.6595013205482463e-01  1.0000000000000033e+00  -1.8076980216177648e-14  1.9836970096033049e-01  3.8163878245162902e-01  -1.7941773164307332e-14  2.0343850980697689e-01  3.8799500397342912e-01  5.5860206717410743e-01  5.5213921795260112e-01  5.5084694486139518e-01  7.1706205344461060e-01  7.1132789941587959e-01  7.1018425492054216e-01  8.6480734283014982e-01  8.6047510719471976e-01  8.5961369453055714e-01  1.0000000000000029e+00  2.1296157052347423e-01  2.1066673339379999e-01  2.0002922216001132e-01  -1.9516859116733257e-14  -1.9342397504136354e-14  3.8576342250043433e-01  3.9967267840730814e-01  3.9680904752962864e-01  5.5664408697757506e-01  5.7002648301894809e-01  5.6696040312267848e-01  7.1472528582649608e-01  7.2679302685791602e-01  7.2389940025883104e-01  8.6178874825877061e-01  8.7117994070422389e-01  8.6900305468493610e-01  1.0000000000000016e+00  1.0000000000000016e+00  1.0000000000000013e+00  -1.7760237668547999e-14  -1.7584002137348974e-14  -1.7608782241730854e-14  2.0720126245443457e-01  2.0064291313447549e-01  2.0317542167328020e-01  3.9187670093868698e-01  3.8627614592348813e-01  3.8815405855356239e-01  5.6245128283104928e-01  5.5718457380301578e-01  5.5879582511369619e-01  7.2109045693805085e-01  7.1542100254968932e-01  7.1703283347271751e-01  8.6866277711991347e-01  8.6255726989990888e-01  8.6443436143919117e-01  1.0000000000000031e+00  1.0000000000000033e+00  1.0000000000000031e+00  -1.6987072304027986e-14  2.0693594089891598e-01  3.9514078336884095e-01  5.6660362037862477e-01  7.2372252978107654e-01  8.6788531358220011e-01  1.0000000000000038e+00  -1.6264924369195810e-14  -1.6093551081737989e-14  1.9720400823711834e-01  3.8198322640473142e-01  3.9105625653850484e-01  5.5316735352133251e-01  5.6179554552666799e-01  7.1209469021754424e-01  7.2030979561114472e-01  8.6022644052458230e-01  8.6734378739316675e-01  1.0000000000000047e+00  1.0000000000000047e+00  -1.6895311960919951e-14  2.0985710870496227e-01  3.9692532497821209e-01  5.6803562766555327e-01  7.2564265511097792e-01  8.7065398360952162e-01  1.0000000000000040e+00  -1.7800904193492988e-14  1.8848546403508770e-01  3.6749982966463762e-01  5.3745519718581636e-01  6.9904258557279009e-01  8.5298721417259682e-01  1.0000000000000031e+00  2.1822564414452558e-01  4.0458343658941442e-01  5.7468878528956446e-01  7.3140262120743882e-01  -1.8577073944172242e-14  1.9248055352696841e-01  3.6999735395702682e-01  5.3906802322251690e-01  7.0098664405741762e-01  8.5581226906832131e-01  1.0000000000000022e+00  -1.7827300989294878e-14  2.0604978682697517e-01  3.8889792480475099e-01  5.5921989123575622e-01  7.1883319686705405e-01  8.6792043932074059e-01  1.0000000000000031e+00  5.5406416682011350e-01  5.6474087930523309e-01  5.5504147510996227e-01  3.9402634775126083e-01  7.1350602095858695e-01  7.1284582199021185e-01  7.2305744321401788e-01  8.6093215997359962e-01  8.6115518327229590e-01  8.6957915396941776e-01  1.0000000000000044e+00  1.0000000000000047e+00  1.0000000000000044e+00  -1.8022851283749967e-14  -1.8083616762332778e-14  2.2106421388201811e-01  2.0020494187179438e-01  4.0886136369060089e-01  3.8526159207148253e-01  5.7933971429651088e-01  5.5629775544276727e-01  7.3572356399253214e-01  7.1509894943337293e-01  8.7831713723520166e-01  8.6262495518954951e-01  1.0000000000000027e+00  1.0000000000000029e+00  -1.7779348005696199e-14  1.8731174270076043e-01  3.6467416695212496e-01  5.3413709807041898e-01  6.9637504101884451e-01  8.5201824367949441e-01  1.0000000000000031e+00  -1.6494204299777785e-14  -1.6327434824985471e-14  1.9931419909258363e-01  2.0894872693291552e-01  3.8385092507126178e-01  5.5496116060771716e-01  7.1406974298051196e-01  8.6230288858293291e-01  1.0000000000000042e+00  -1.8979918112191786e-14  2.0082193903823073e-01  3.8457174319909271e-01  5.5463997281215638e-01  7.1295095029214817e-01  8.6126630347599975e-01  1.0000000000000018e+00  1.8324447844337619e-01  3.6011986476054997e-01  5.2949385618795974e-01  6.9192232018553690e-01  8.4811291742356942e-01  1.0000000000000029e+00  -1.8209739710098592e-14  2.0044389504559143e-01  3.8382858485362897e-01  5.5431696969210509e-01  7.1349680159293172e-01  8.6248693260453180e-01  1.0000000000000027e+00  -1.8551406192275032e-14  -1.8345045709313782e-14  2.0176142216611448e-01  2.0351773571028728e-01  3.8415516322459742e-01  3.8632145692644532e-01  5.5425402030130366e-01  5.5638382342412107e-01  7.1365556096613980e-01  7.1564843004229850e-01  8.6317756803118439e-01  8.6476138067512398e-01  1.0000000000000024e+00  1.0000000000000022e+00  -1.7856601986448940e-14  2.0834181662120205e-01  3.9412898070462227e-01  5.6486811573640894e-01  7.2286741656978593e-01  8.6921328411265131e-01  1.0000000000000029e+00  -1.8583029591643065e-14  -1.8407712058870407e-14  -1.8331034801675628e-14  2.0203318294135272e-01  2.0750445588038430e-01  2.0997493359293257e-01  3.8619971522288432e-01  3.9395589132845332e-01  3.9598038721310880e-01  5.5658061268423298e-01  5.6455058075607378e-01  5.6636436167722837e-01  7.1509291252491858e-01  7.2171260826967853e-01  7.2363963056892788e-01  8.6305565491916458e-01  8.6695734939016378e-01  8.6903539439843269e-01  1.0000000000000024e+00  1.0000000000000024e+00  1.0000000000000022e+00  -1.9882385842054471e-14  -1.9723101120961010e-14  -1.9742772703463550e-14  1.9492685953522798e-01  2.0300884863267679e-01  1.9545658164470994e-01  3.7893237787880774e-01  3.8664654200638077e-01  3.7948554872142087e-01  5.4918487897436608e-01  5.5668056804170196e-01  5.4995789087156177e-01  7.0744578117592027e-01  7.1496324639112019e-01  7.0851166115711917e-01  8.5597463300361964e-01  8.6323971877062267e-01  8.5718693114631328e-01  1.0000000000000011e+00  1.0000000000000011e+00  1.0000000000000009e+00  -1.8550035226436509e-14  2.0085524567602056e-01  3.8461535263168500e-01  5.5496638421710587e-01  7.1371796818484545e-01  8.6214190907442612e-01  1.0000000000000022e+00  1.0000000000000022e+00  -1.7862400499381879e-14  -1.7666441736522867e-14  2.1003119583795696e-01  2.0122466440345255e-01  3.8762958394776875e-01  3.9598751835660939e-01  5.5858618258457404e-01  5.6653443380612101e-01  7.1636769065785233e-01  7.2396445366491624e-01  8.6268944622070243e-01  8.6938776761283876e-01  1.0000000000000029e+00  1.0000000000000031e+00  -1.7132238994285245e-14  -1.7148253068669206e-14  1.9127986479046277e-01  1.8684205069285417e-01  3.6967648852656493e-01  3.6402714039617418e-01  5.3939321241498128e-01  5.3346423507321805e-01  7.0129701057635652e-01  6.9571224880910354e-01  8.5574189346142238e-01  8.5127641897794870e-01  1.0000000000000038e+00  1.0000000000000038e+00  -1.8156198783972427e-14  2.0222450717184740e-01  3.8737044860274294e-01  5.5807484670966667e-01  7.1621930942250123e-01  8.6334154244776595e-01  1.0000000000000027e+00  -1.6722455766925672e-14  2.0485403970987032e-01  3.9002481164464875e-01  5.6102314846161960e-01  7.1943494831835575e-01  8.6625039122198833e-01  1.0000000000000040e+00  -1.7234508002022553e-14  1.8932095949419034e-01  3.6793218572090014e-01  5.3765020614153158e-01  6.9928494491901316e-01  8.5363553392017588e-01  1.0000000000000036e+00  -1.8624298899644034e-14  2.0787542409459647e-01  3.9445939142530723e-01  5.6502905563763262e-01  7.2213669069389208e-01  8.6734071549824754e-01  1.0000000000000022e+00  -1.8025872633729210e-14  2.0201736470130507e-01  3.8808279003714191e-01  5.5897851633456686e-01  7.1681197277652520e-01  8.6337577117836151e-01  1.0000000000000029e+00  -1.9715313916942982e-14  1.9797989398930824e-01  3.7955069033720634e-01  5.4948062993610103e-01  7.0936377319102284e-01  8.6003075149751385e-01  