<?xml version="1.0"?>
<VTKFile type="UnstructuredGrid"  version="0.1"  >
<UnstructuredGrid>
<Piece  NumberOfPoints="731" NumberOfCells="6515">
<Points>
<DataArray  type="Float64"  NumberOfComponents="3"  format="ascii">11.2316603871206 2.61342959716206 3.792986449823797  11.34344321932059 2.516540269140279 3.719197409562518  11.2271424548698 2.477950412016679 3.68647644053894  11.34256211003533 2.559963610454043 3.662915467942084  11.23041676328445 2.651653979168271 3.732827329951541  11.22683132920075 2.433268100843837 3.739509264215929  11.23210012896514 2.574863378073209 3.853805701071212  11.34349062990687 2.472472411856851 3.776051356920952  11.22632456455674 2.38806773681234 3.793078386235965  11.2324778456343 2.535774501879789 3.915195505496533  11.34338486626016 2.427893090400786 3.833572194690457  11.22595042096629 2.342372571446584 3.847169088995505  11.23306406960327 2.496233284094554 3.977182685592514  11.34336844321755 2.382831595205946 3.891820545401331  11.22588065665453 2.296166667219494 3.901752853016943  11.23407283180669 2.456215594717369 4.039769359013426  11.34360242476936 2.337248358748571 3.950832103395797  11.22636577811407 2.24940938010779 3.956835608451353  11.23579182069453 2.415617451933174 4.102895289599583  11.34433312903732 2.290924857888474 4.010715215094062  11.45017313350942 2.916924176512455 3.83578465703532  11.35592941900119 3.012875163010499 3.868285342044679  11.32664056721734 2.875209698350337 3.836812574918075  11.33154950168484 2.854299117138548 3.909020417914622  11.35971225008262 3.000459966062045 3.944533165793009  11.45315473437145 2.897308470834177 3.910023945454036  11.36306823277795 2.988143880511002 4.02141497589185  11.45561067174809 2.877287746080698 3.985203530891194  11.33601889371579 2.833174190201677 3.982113193773494  11.3663791788716 2.975590429717057 4.098924824119757  11.45782756665671 2.857071986891709 4.061257779094712  11.3402682997464 2.811794640376938 4.055866118100417  11.46001907804282 2.83669533639754 4.138080236025102  11.36991102595112 2.962672641634218 4.177255120840473  11.3445918043419 2.790083880484417 4.130277602418792  11.46252851047075 2.8159742797214 4.215786302428707  11.37390045941859 2.949499343180149 4.256304052496713  11.34930354527794 2.767986808706764 4.205469180081297  11.46549816718832 2.795067643106027 4.294536613596675  11.37854670792716 2.935950973824475 4.336258616164265  11.35501712784644 2.745517699430303 4.28152410317271  11.22985479022653 3.026625669198073 3.876304859304197  11.23335453612093 3.018413052135011 3.95146254081644  11.23627828083607 3.010526565785237 4.027429970613115  11.23921129221637 3.002344781110382 4.104050438440328  11.24234667037797 2.99384081514369 4.18127299065784  11.24587211410469 2.984989219893052 4.258998770081665  11.25008938314555 2.975803801660739 4.33712249278377  11.1218940323388 3.044060303420383 3.880338226641348  11.19743606152493 2.924460951123327 3.863682866623614  11.19839064254816 2.908150089363812 3.936746556067799  11.11958296308339 3.036435215624464 3.954473491081779  11.19882496566886 2.891867390446864 4.01059760425292  11.11660193799984 3.029139747688169 4.029263928522287  11.19925044920103 2.87526957583677 4.085059397090249  11.11357531471332 3.021541592705498 4.104690842319654  11.19988870878425 2.858295727640284 4.16008789451013  11.11076467463587 3.013622769508598 4.180608982433681  11.201007441164 2.840968084861712 4.23563275831653  11.10833633596535 3.005385522218571 4.256904058196389  11.20285678337005 2.823324772528568 4.3115682968244  11.10640862693329 2.996835461749688 4.333431198721572  11.57694427130069 2.701959091411587 3.752444259497754  11.47891133233145 2.801560487550037 3.802305400844375  11.4681068195285 2.666909767148381 3.727083072094366  11.46729900872911 2.628688596814997 3.79086973838677  11.48068461839901 2.772353385882574 3.873380243952731  11.57537676465182 2.66571202929006 3.820491479202544  11.46609878518946 2.589401289770934 3.855203135081244  11.48191061046881 2.742370276458251 3.945036950091243  11.57371471728053 2.628569706782815 3.889309454882811  11.46510942643102 2.549622921309886 3.920395344389827  11.48317650644342 2.712203333444647 4.017435215938757  11.57238650508054 2.591025730560782 3.959005713009034  11.46435398105588 2.509649526574528 3.986459618830391  11.48449533496621 2.682096363835602 4.090695092559328  11.57143320208519 2.553492742389152 4.029612451278301  11.46380237222378 2.469511492739694 4.053396345840538  11.48589744362979 2.65177477402838 4.16485433866134  11.5704755094579 2.516051296199172 4.101034832687248  11.46342109662802 2.429156188136206 4.121480014072626  11.48785497134932 2.62092575890281 4.240049610454774  11.56950800317497 2.479180568419862 4.173686503933427  11.09532023212082 2.915439758791479 3.856958806819461  11.09112934661492 2.896934617578685 3.927673317017779  11.08615049321809 2.878476756298743 3.999220314523061  11.08113753373887 2.859777246868817 4.071288214398636  11.0763021363637 2.840720248585022 4.143810679754251  11.07182909956799 2.821319100158869 4.216742777197508  11.06783571356518 2.801610614099016 4.290052308863984  11.11138103402832 2.564032907316586 3.756854141223573  11.11052572833579 2.52376115782404 3.813473377042377  11.10948837291228 2.48303511169377 3.870539337136218  11.10861516077439 2.441856626335174 3.92804459477413  11.1081262961732 2.400200922708723 3.985974142754576  11.10831548248506 2.357954111550768 4.04435073136652  11.34711222588896 3.125502288126574 3.875353960343597  11.22673002907236 3.177930931417255 3.887121552248308  11.22971001043798 3.179119851232588 3.963879870338087  11.35204391653452 3.124127405397821 3.952728785618473  11.23222857827469 3.180646150449876 4.041434083969869  11.35667077794471 3.122992841876151 4.031007269388716  11.23488067840873 3.181947927377417 4.119538649159544  11.36139073162702 3.121656749519426 4.109976076527269  11.2377756742007 3.182972219798195 4.198169367651423  11.36633527582819 3.120105591611802 4.189550292673322  11.24107425390007 3.183676113235569 4.277322800640301  11.37166941232595 3.118322870106639 4.269763176705788  11.2449656447581 3.183972191623649 4.356978592369575  11.37766425104687 3.116215873987768 4.350706065646009  11.47206802735888 3.281571553081779 3.858209434965001  11.34074641460891 3.387181987332938 3.84588647698514  11.35500450917771 3.238260676811364 3.872873545626046  11.36156460657662 3.245856584399645 3.95084202431302  11.34706285000672 3.407076371554694 3.922010706913197  11.47947433031264 3.292928636974558 3.937640768831663  11.48685856854962 3.30430084716357 4.017578788165071  11.35299796752508 3.427378229879045 3.998703022342482  11.36792484280101 3.253659195871822 4.029509765246524  11.49424574789093 3.31575000169321 4.098033864884108  11.35879376370454 3.447772712114262 4.075858170172287  11.37436242580762 3.261375564357332 4.108759290271545  11.50167921392777 3.327215520648995 4.178986788607098  11.36462954089132 3.468097324999603 4.15350362148506  11.38094561419627 3.268938980285742 4.188527550170105  11.50921111185247 3.33860826150489 4.260591420184443  11.37072949462245 3.48819328855428 4.231714862573078  11.38782925334891 3.276286809060495 4.26887902831423  11.37735441341649 3.507996117335765 4.310502272003195  11.51730762033774 3.349846875835158 4.343316699955087  11.39533624570067 3.283346168554954 4.349872971761497  11.10128810863083 3.167616347254959 3.890210656066237  10.99768839394744 3.236201096457173 3.882692402997097  11.01264015688984 3.103512938842689 3.880227554981657  11.00681124425663 3.099437675137855 3.953230799629381  10.99156075224353 3.240678136461127 3.956419494312618  11.09833586354203 3.167599747574433 3.965380242030613  11.00014887612324 3.09564388716859 4.026854877791121  10.98470045859888 3.245594588665201 4.030631441065367  11.09469812453957 3.167873355485007 4.041253344569966  10.99340484624467 3.091670569349452 4.100963747960155  10.97784672239451 3.250376814430231 4.105295344384887  11.09111940942176 3.167922446066708 4.117654828260862  10.98683049450282 3.087443271307842 4.175488334763539  10.97117607261415 3.254936975470192 4.180366036948178  11.0877916528414 3.167681597412376 4.194517333025276  10.98052669585031 3.0829493174169 4.250367529772609  10.96475212831028 3.25925504230042 4.25579375185621  11.08479451560887 3.167119401114933 4.271783123578453  10.97454505473578 3.078172456116209 4.325538612496379  10.95857347735059 3.263313567831136 4.33153176767031  11.08221838920974 3.166201316830718 4.34936226946498  11.22027256534307 3.40222901225823 3.85454117254729  11.10646757849812 3.449300911462444 3.847526579787437  11.12816760235449 3.300719467809368 3.88211795634372  11.12831729586418 3.312382080016084 3.957410545420423  11.10667032579176 3.474435834057848 3.919497229380423  11.22508676287257 3.423093684747557 3.929043891133441  11.12788672981287 3.324540546424619 4.033326386387512  11.10620822668665 3.500203122043558 3.991812209566691  11.22932654476267 3.444509010139467 4.004039534416878  11.12751858140675 3.336559236704844 4.109780686064419  11.10567604691895 3.526019293577355 4.064523855388624  11.23347257611505 3.466007375020362 4.079503782722763  11.12736677405303 3.348343991980814 4.186686156153021  11.10533847834396 3.551670037266237 4.137667848234967  11.23778983842065 3.487322875493047 4.15544533091413  11.12753611581866 3.359859673118375 4.263941351153577  11.10528348545215 3.577127065984915 4.211210022139908  11.24243611324325 3.508424579682648 4.231867231824618  11.12813036138452 3.371073283511951 4.341412006902889  11.10561566951118 3.60238570524308 4.285094363195813  11.24761151437109 3.529301308677793 4.308722205060391  11.33833691247257 3.606449898726171 3.765428245767453  11.22737042915379 3.651319631365714 3.745762915125434  11.24501673406783 3.514393842378047 3.815030730490832  11.2494863354982 3.544466093569929 3.886844892315334  11.22967829200146 3.68924190319141 3.812944655494883  11.34341226225927 3.642117170971847 3.8360626872306  11.25
[...]
<CellData  Scalars="f">
<DataArray  type="Float64"  Name="f"  format="ascii">18446744073709551615 18446744073709551615 18446744073709551615 18446744073709551615 18446744073709551615 18446744073709551615 18446744073709551615 18446744073709551615 18446744073709551615 18446744073709551615 18446744073709551615 18446744073709551615 18446744073709551615 18446744073709551615 18446744073709551615 18446744073709551615 18446744073709551615 18446744073709551615 18446744073709551615 18446744073709551615 18446744073709551615 18446744073709551615 18446744073709551615 18446744073709551615 18446744073709551615 18446744073709551615 18446744073709551615 18446744073709551615 18446744073709551615 18446744073709551615 18446744073709551615 18446744073709551615 18446744073709551615 18446744073709551615 18446744073709551615 18446744073709551615 18446744073709551615 18446744073709551615 18446744073709551615 18446744073709551615 18446744073709551615 18446744073709551615 18446744073709551615 18446744073709551615 18446744073709551615 18446744073709551615 18446744073709551615 18446744073709551615 18446744073709551615 18446744073709551615 18446744073709551615 18446744073709551615 18446744073709551615 18446744073709551615 18446744073709551615 18446744073709551615 18446744073709551615 18446744073709551615 18446744073709551615 18446744073709551615 18446744073709551615 18446744073709551615 18446744073709551615 1 18446744073709551615 18446744073709551615 1 18446744073709551615 18446744073709551615 18446744073709551615 1 18446744073709551615 18446744073709551615 18446744073709551615 18446744073709551615 18446744073709551615 18446744073709551615 1 18446744073709551615 1 18446744073709551615 18446744073709551615 18446744073709551615 1 18446744073709551615 18446744073709551615 18446744073709551615 1 18446744073709551615 18446744073709551615 18446744073709551615 18446744073709551615 18446744073709551615 18446744073709551615 18446744073709551615 18446744073709551615 18446744073709551615 18446744073709551615 18446744073709551615 18446744073709551615 18446744073709551615 18446744073709551615 18446744073709551615 18446744073709551615 18446744073709551615 18446744073709551615 18446744073709551615 18446744073709551615 18446744073709551615 18446744073709551615 18446744073709551615 18446744073709551615 18446744073709551615 18446744073709551615 18446744073709551615 18446744073709551615 18446744073709551615 18446744073709551615 18446744073709551615 18446744073709551615 18446744073709551615 18446744073709551615 18446744073709551615 18446744073709551615 18446744073709551615 18446744073709551615 18446744073709551615 18446744073709551615 18446744073709551615 18446744073709551615 18446744073709551615 18446744073709551615 18446744073709551615 18446744073709551615 18446744073709551615 18446744073709551615 18446744073709551615 18446744073709551615 18446744073709551615 18446744073709551615 18446744073709551615 18446744073709551615 18446744073709551615 18446744073709551615 18446744073709551615 18446744073709551615 18446744073709551615 18446744073709551615 18446744073709551615 18446744073709551615 18446744073709551615 18446744073709551615 18446744073709551615 18446744073709551615 18446744073709551615 18446744073709551615 18446744073709551615 18446744073709551615 18446744073709551615 18446744073709551615 18446744073709551615 18446744073709551615 18446744073709551615 18446744073709551615 18446744073709551615 18446744073709551615 18446744073709551615 18446744073709551615 18446744073709551615 18446744073709551615 18446744073709551615 18446744073709551615 18446744073709551615 18446744073709551615 18446744073709551615 18446744073709551615 18446744073709551615 18446744073709551615 18446744073709551615 18446744073709551615 18446744073709551615 18446744073709551615 18446744073709551615 18446744073709551615 18446744073709551615 18446744073709551615 18446744073709551615 18446744073709551615 18446744073709551615 18446744073709551615 18446744073709551615 18446744073709551615 18446744073709551615 18446744073709551615 18446744073709551615 18446744073709551615 18446744073709551615 18446744073709551615 18446744073709551615 18446744073709551615 18446744073709551615 18446744073709551615 18446744073709551615 18446744073709551615 18446744073709551615 18446744073709551615 18446744073709551615 18446744073709551615 18446744073709551615 18446744073709551615 18446744073709551615 18446744073709551615 18446744073709551615 18446744073709551615 18446744073709551615 18446744073709551615 18446744073709551615 18446744073709551615 18446744073709551615 18446744073709551615 18446744073709551615 18446744073709551615 18446744073709551615 18446744073709551615 18446744073709551615 18446744073709551615 18446744073709551615 18446744073709551615 18446744073709551615 18446744073709551615 18446744073709551615 18446744073709551615 18446744073709551615 18446744073709551615 18446744073709551615 18446744073709551615 18446744073709551615 18446744073709551615 18446744073709551615 18446744073709551615 18446744073709551615 18446744073709551615 18446744073709551615 18446744073709551615 18446744073709551615 18446744073709551615 18446744073709551615 18446744073709551615 18446744073709551615 18446744073709551615 18446744073709551615 18446744073709551615 18446744073709551615 18446744073709551615 18446744073709551615 18446744073709551615 18446744073709551615 18446744073709551615 18446744073709551615 18446744073709551615 18446744073709551615 18446744073709551615 18446744073709551615 18446744073709551615 18446744073709551615 18446744073709551615 18446744073709551615 18446744073709551615 18446744073709551615 18446744073709551615 18446744073709551615 18446744073709551615 18446744073709551615 18446744073709551615 18446744073709551615 18446744073709551615 18446744073709551615 18446744073709551615 18446744073709551615 18446744073709551615 18446744073709551615 18446744073709551615 18446744073709551615 18446744073709551615 18446744073709551615 18446744073709551615 18446744073709551615 18446744073709551615 18446744073709551615 18446744073709551615 18446744073709551615 18446744073709551615 18446744073709551615 18446744073709551615 18446744073709551615 18446744073709551615 18446744073709551615 18446744073709551615 18446744073709551615 18446744073709551615 18446744073709551615 18446744073709551615 18446744073709551615 18446744073709551615 18446744073709551615 18446744073709551615 18446744073709551615 18446744073709551615 18446744073709551615 18446744073709551615 18446744073709551615 18446744073709551615 18446744073709551615 18446744073709551615 18446744073709551615 18446744073709551615 18446744073709551615 18446744073709551615 5 18446744073709551615 5 5 18446744073709551615 18446744073709551615 5 5 18446744073709551615 18446744073709551615 5 5 5 5 5 5 5 1 18446744073709551615 18446744073709551615 1 18446744073709551615 18446744073709551615 1 18446744073709551615 18446744073709551615 18446744073709551615 18446744073709551615 18446744073709551615 18446744073709551615 18446744073709551615 18446744073709551615 18446744073709551615 18446744073709551615 1 18446744073709551615 18446744073709551615 18446744073709551615 1 18446744073709551615 18446744073709551615 18446744073709551615 18446744073709551615 1 18446744073709551615 18446744073709551615 18446744073709551615 18446744073709551615 18446744073709551615 18446744073709551615 18446744073709551615 1 18446744073709551615 18446744073709551615 18446744073709551615 1 18446744073709551615 18446744073709551615 18446744073709551615 18446744073709551615 18446744073709551615 18446744073709551615 18446744073709551615 18446744073709551615 18446744073709551615 1 18446744073709551615 18446744073709551615 18446744073709551615 1 18446744073709551615 18446744073709551615 18446744073709551615 1 18446744073709551615 18446744073709551615 18446744073709551615 1 18446744073709551615 18446744073709551615 18446744073709551615 18446744073709551615 18446744073709551615 18446744073709551615 18446744073709551615 18446744073709551615 18446744073709551615 18446744073709551615 18446744073709551615 18446744073709551615 18446744073709551615 18446744073709551615 18446744073709551615 18446744073709551615 18446744073709551615 18446744073709551615 18446744073709551615 18446744073709551615 18446744073709551615 18446744073709551615 18446744073709551615 18446744073709551615 18446744073709551615 18446744073709551615 18446744073709551615 18446744073709551615 18446744073709551615 18446744073709551615 18446744073709551615 18446744073709551615 18446744073709551615 18446744073709551615 18446744073709551615 18446744073709551615 18446744073709551615 18446744073709551615 18446744073709551615 18446744073709551615 18446744073709551615 18446744073709551615 18446744073709551615 18446744073709551615 18446744073709551615 18446744073709551615 18446744073709551615 18446744073709551615 18446744073709551615 18446744073709551615 18446744073709551615 18446744073709551615 18446744073709551615 18446744073709551615 18446744073709551615 18446744073709551615 18446744073709551615 18446744073709551615 18446744073709551615 18446744073709551615 18446744073709551615 18446744073709551615 18446744073709551615 18446744073709551615 18446744073709551615 18446744073709551615 18446744073709551615 18446744073709551615 18446744073709551615 18446744073709551615 18446744073709551615 18446744073709551615 18446744073709551615 18446744073709551615 18446744073709551615 18446744073709551615 18446744073709551615 18446744073709551615 18446744073709551615 18446744073709551615 18446744073709551615 18446744073709551615 18446744073709551615 18446744073709551615 18446744073709551615 18446744073709551615 18446744073709551615 18446744073709551615 18446744073709551615 18446744073709551615 18446744073709551615 18446744073709551615 18446744073709551615 18446744073709551615 18446744073709551615 18446744073709551615 18446744073709551615 18446744073709551615 18446744073709551615 18446744073709551615 18446744073709551615 18446744073709551615 18446744073709551615 18446744073709551615 18446744073709551615 18446744073709551615 18446744073709551615 18446744073709551615 18446744073709551615 18446744073709551615 18446744073709551615 18446744073709551615 18446744073709551615 18446744073709551615 18446744073709551615 18446744073709551615 18446744073709551615 18446744073709551615 18446744073709551615 18446744073709551615 18446744073709551615 18446744073709551615 18446744073709551615 18446744073709551615 18446744073709551615 18446744073709551615 18446744073709551615 18446744073709551615 18446744073709551615 18446744073709551615 18446744073709551615 18446744073709551615 18446744073709551615 18446744073709551615 18446744073709551615 18446744073709551615 18446744073709551615 18446744073709551615 18446744073709551615 18446744073709551615 18446744073709551615 18446744073709551615 18446744073709551615 18446744073709551615 18446744073709551615 18446744073709551615 18446744073709551615 18446744073709551615 18446744073709551615 18446744073709551615 18446744073709551615 18446744073709551615 18446744073709551615 18446744073709551615 18446744073709551615 18446744073709551615 18446744073709551615 18446744073709551615 18446744073709551615 18446744073709551615 18446744073709551615 18446744073709551615 18446744073709551615 18446744073709551615 18446744073709551615 18446744073709551615 18446744073709551615 18446744073709551615 18446744073709551615 18446744073709551615 18446744073709551615 18446744073709551615 18446744073709551615 18446744073709551615 18446744073709551615 18446744073709551615 18446744073709551615 18446744073709551615 18446744073709551615 18446744073709551615 18446744073709551615 18446744073709551615 18446744073709551615 18446744073709551615 18446744073709551615 18446744073709551615 18446744073709551615 18446744073709551615 18446744073709551615 18446744073709551615 18446744073709551615 18446744073709551615 18446744073709551615 18446744073709551615 18446744073709551615 18446744073709551615 18446744073709551615 18446744073709551615 18446744073709551615 18446744073709551615 18446744073709551615 18446744073709551615 18446744073709551615 18446744073709551615 18446744073709551615 18446744073709551615 18446744073709551615 18446744073709551615 18446744073709551615 18446744073709551615 18446744073709551615 18446744073709551615 18446744073709551615 18446744073709551615 18446744073709551615 18446744073709551615 18446744073709551615 18446744073709551615 18446744073709551615 18446744073709551615 18446744073709551615 18446744073709551615 18446744073709551615 18446744073709551615 18446744073709551615 18446744073709551615 18446744073709551615 18446744073709551615 18446744073709551615 18446744073709551615 18446744073709551615 18446744073709551615 18446744073709551615 18446744073709551615 18446744073709551615 18446744073709551615 18446744073709551615 18446744073709551615 18446744073709551615 18446744073709551615 18446744073709551615 18446744073709551615 18446744073709551615 18446744073709551615 18446744073709551615 18446744073709551615 18446744073709551615 18446744073709551615 18446744073709551615 18446744073709551615 18446744073709551615 18446744073709551615 18446744073709551615 18446744073709551615 18446744073709551615 18446744073709551615 18446744073709551615 18446744073709551615 18446744073709551615 18446744073709551615 18446744073709551615 18446744073709551615 18446744073709551615 18446744073709551615 18446744073709551615 18446744073709551615 18446744073709551615 18446744073709551615 18446744073709551615 18446744073709551615 18446744073709551615 18446744073709551615 18446744073709551615 18446744073709551615 18446744073709551615 18446744073709551615 18446744073709551615 18446744073709551615 18446744073709551615 18446744073709551615 18446744073709551615 18446744073709551615 18446744073709551615 18446744073709551615 18446744073709551615 18446744073709551615 18446744073709551615 18446744073709551615 18446744073709551615 18446744073709551615 18446744073709551615 18446744073709551615 18446744073709551615 18446744073709551615 18446744073709551615 18446744073709551615 18446744073709551615 18446744073709551615 18446744073709551615 18446744073709551615 18446744073709551615 18446744073709551615 18446744073709551615 18446744073709551615 18446744073709551615 18446744073709551615 18446744073709551615 18446744073709551615 18446744073709551615 18446744073709551615 18446744073709551615 18446744073709551615 18446744073709551615 18446744073709551615 18446744073709551615 18446744073709551615 18446744073709551615 18446744073709551615 18446744073709551615 18446744073709551615 5 5 5 5 5 5 18446744073709551615 5 18446744073709551615 18446744073709551615 5 5 5 5 5 18446744073709551615 18446744073709551615 18446744073709551615 18446744073709551615 1 18446744073709551615 18446744073709551615 1 18446744073709551615 18446744073709551615 18446744073709551615 18446744073709551615 1 18446744073709551615 18446744073709551615 18446744073709551615 18446744073709551615 18446744073709551615 18446744073709551615 18446744073709551615 18446744073709551615 18446744073709551615 18446744073709551615 18446744073709551615 18446744073709551615 18446744073709551615 18446744073709551615 18446744073709551615 18446744073709551615 18446744073709551615 18446744073709551615 18446744073709551615 18446744073709551615 18446744073709551615 18446744073709551615 18446744073709551615 18446744073709551615 18446744073709551615 18446744073709551615 18446744073709551615 18446744073709551615 18446744073709551615 18446744073709551615 18446744073709551615 18446744073709551615 18446744073709551615 18446744073709551615 18446744073709551615 18446744073709551615 18446744073709551615 18446744073709551615 18446744073709551615 18446744073709551615 18446744073709551615 18446744073709551615 18446744073709551615 18446744073709551615 18446744073709551615 18446744073709551615 18446744073709551615 18446744073709551615 18446744073709551615 18446744073709551615 18446744073709551615 18446744073709551615 18446744073709551615 18446744073709551615 18446744073709551615 18446744073709551615 18446744073709551615 18446744073709551615 18446744073709551615 18446744073709551615 18446744073709551615 18446744073709551615 18446744073709551615 18446744073709551615 18446744073709551615 18446744073709551615 18446744073709551615 18446744073709551615 18446744073709551615 18446744073709551615 18446744073709551615 18446744073709551615 18446744073709551615 18446744073709551615 18446744073709551615 18446744073709551615 18446744073709551615 18446744073709551615 18446744073709551615 18446744073709551615 18446744073709551615 18446744073709551615 18446744073709551615 18446744073709551615 5 18446744073709551615 5 18446744073709551615 18446744073709551615 18446744073709551615 18446744073709551615 5 18446744073709551615 1 18446744073709551615 18446744073709551615 18446744073709551615 18446744073709551615 18446744073709551615 18446744073709551615 18446744073709551615 18446744073709551615 18446744073709551615 1 18446744073709551615 18446744073709551615 18446744073709551615 1 18446744073709551615 18446744073709551615 1 18446744073709551615 18446744073709551615 18446744073709551615 1 18446744073709551615 18446744073709551615 18446744073709551615 18446744073709551615 18446744073709551615 18446744073709551615 18446744073709551615 1 18446744073709551615 18446744073709551615 18446744073709551615 18446744073709551615 18446744073709551615 18446744073709551615 18446744073709551615 18446744073709551615 18446744073709551615 18446744073709551615 18446744073709551615 18446744073709551615 18446744073709551615 18446744073709551615 18446744073709551615 18446744073709551615 18446744073709551615 18446744073709551615 18446744073709551615 18446744073709551615 18446744073709551615 18446744073709551615 18446744073709551615 18446744073709551615 18446744073709551615 18446744073709551615 18446744073709551615 18446744073709551615 18446744073709551615 18446744073709551615 18446744073709551615 18446744073709551615 18446744073709551615 18446744073709551615 18446744073709551615 18446744073709551615 18446744073709551615 18446744073709551615 18446744073709551615 18446744073709551615 18446744073709551615 18446744073709551615 18446744073709551615 18446744073709551615 18446744073709551615 18446744073709551615 18446744073709551615 18446744073709551615 18446744073709551615 18446744073709551615 18446744073709551615 18446744073709551615 18446744073709551615 18446744073709551615 18446744073709551615 18446744073709551615 18446744073709551615 18446744073709551615 18446744073709551615 18446744073709551615 18446744073709551615 18446744073709551615 18446744073709551615 18446744073709551615 18446744073709551615 18446744073709551615 18446744073709551615 18446744073709551615 18446744073709551615 18446744073709551615 18446744073709551615 18446744073709551615 18446744073709551615 18446744073709551615 18446744073709551615 18446744073709551615 18446744073709551615 18446744073709551615 18446744073709551615 18446744073709551615 18446744073709551615 18446744073709551615 18446744073709551615 18446744073709551615 18446744073709551615 18446744073709551615 18446744073709551615 18446744073709551615 18446744073709551615 18446744073709551615 18446744073709551615 18446744073709551615 18446744073709551615 18446744073709551615 18446744073709551615 18446744073709551615 18446744073709551615 18446744073709551615 18446744073709551615 18446744073709551615 18446744073709551615 18446744073709551615 18446744073709551615 18446744073709551615 18446744073709551615 18446744073709551615 18446744073709551615 18446744073709551615 18446744073709551615 18446744073709551615 18446744073709551615 18446744073709551615 18446744073709551615 18446744073709551615 18446744073709551615 18446744073709551615 18446744073709551615 18446744073709551615 18446744073709551615 18446744073709551615 18446744073709551615 18446744073709551615 18446744073709551615 18446744073709551615 18446744073709551615 18446744073709551615 18446744073709551615 18446744073709551615 18446744073709551615 18446744073709551615 18446744073709551615 1844674407