<?xml version="1.0"?>
<VTKFile type="UnstructuredGrid"  version="0.1"  >
<UnstructuredGrid>
<Piece  NumberOfPoints="744" NumberOfCells="6572">
<Points>
<DataArray  type="Float64"  NumberOfComponents="3"  format="ascii">10.84916142554143 4.422053292325817 1.402302267709014  10.75447552904147 4.396100788972966 1.373131182817375  10.79872559919848 4.441298505133911 1.491013114851897  10.7894549427823 4.513589294552555 1.469669276688572  10.7439161592801 4.465369403680489 1.342800515687846  10.83979349678078 4.494622045867589 1.375745657231893  10.83084428228455 4.566662670599815 1.349390544683882  10.7338542523298 4.534195308973715 1.31269414520654  10.78056066689236 4.585255019718652 1.448550231672677  10.82216070114378 4.63810770041579 1.323177686052635  10.72409688457415 4.60252986420167 1.282725547618957  10.77190692074237 4.656373846416198 1.427571961179853  10.81361830126413 4.708959023449986 1.296987612430951  10.71450895152331 4.670348072871075 1.252800600829284  10.76341063273724 4.726935440462664 1.406613093010523  10.80500849755812 4.779186350863694 1.270800392621534  10.70482010787026 4.737612858432707 1.222906604294286  10.75482200784246 4.796916987582335 1.38561025956432  10.79587943177943 4.848743945994398 1.24467920315663  10.694688007029 4.804301513215048 1.193152904106514  10.74578703424209 4.866215293373743 1.364580607743804  10.69079942131187 4.433773957274989 1.507042218396244  10.68139360864624 4.504132720688013 1.486242335385288  10.67231745376 4.574006876367472 1.46566435854913  10.66355062373286 4.643379184194904 1.445187757534025  10.6549676191103 4.71226990051396 1.424709991271189  10.6462760249336 4.780651986576729 1.404197254999224  10.63711525780883 4.848499963037534 1.383680845771175  10.62214627444999 4.455404472774101 1.631321088246295  10.61013734784674 4.470896558416358 1.761780843948682  10.70212773303592 4.47748911556711 1.710192781898632  10.69236862794999 4.547910585559328 1.699672708444127  10.59832488420312 4.539337146076259 1.754188255119081  10.61088288801217 4.524831603896759 1.617943214533159  10.68292649879121 4.617743282699881 1.689366217592252  10.58690743527792 4.607322644413246 1.746766347868286  10.6000153372627 4.593801637076085 1.604752178713387  10.67376976314571 4.687029620041078 1.679200438036222  10.57582033983722 4.674815444515141 1.739487663981489  10.58945171249323 4.662307229226211 1.591661904622325  10.66475465141673 4.755812029828625 1.669071322300533  10.56488730308672 4.741847346397121 1.73219695610588  10.57907927908873 4.730354795633717 1.578556107899102  10.65566996178218 4.824077014255533 1.65885547868511  10.55386343436328 4.808396647508595 1.724802836915744  10.56856937321119 4.797900267651783 1.565393502953429  10.64615025634687 4.89179185265024 1.6484544873782  10.5424234414015 4.874423663117083 1.717220785337598  10.55758554944624 4.864905106916687 1.552100743223195  10.52669422077291 4.446434269485303 1.692522653969826  10.51256269295991 4.513948471982584 1.682483035281518  10.49896306733065 4.580992594627584 1.672617985615199  10.4857139682903 4.647637472302585 1.662866019255115  10.47264426888201 4.713874388350561 1.653064778127639  10.45944169457116 4.779669142672213 1.643180770572696  10.44580896114433 4.844982366291751 1.633125212600145  10.70759522370055 4.637566651586465 1.806825463538515  10.58195303902606 4.612626074362502 1.889205036263122  10.71812386979908 4.568192568040734 1.813284952491811  10.69734530716322 4.706405753665198 1.800493607596629  10.57014036179806 4.678713797247045 1.886823308867122  10.74611002261396 4.46683340734004 1.607229107090062  10.73720835553949 4.538512733819468 1.591898708667391  10.72862373206653 4.609574084562843 1.576806536794469  10.72029190403512 4.680074773873705 1.561838080020389  10.71211820835702 4.750049436265606 1.546894313788264  10.703846787652 4.81947386999303 1.531883436546245  10.69509809986476 4.888309157940288 1.516751371551618  11.69600000000119 4.597439530814992 1.868881846149055  11.58258072007557 4.596125381737626 1.859749911937594  11.58216772302816 4.615013754406168 1.982153459017302  11.57870605180548 4.709576609137192 1.97553205151409  11.57877324260882 4.69079552247645 1.844696845808042  11.69600000000119 4.696532949769446 1.856188343013194  11.57404624156585 4.803238093536299 1.969495826740733  11.57450657912337 4.783916393143651 1.830180574899197  11.6960000000012 4.794151346796595 1.845139887212528  11.56939515177281 4.896042861654204 1.963571682776119  11.57029021558975 4.875883982924166 1.816125217194954  11.6960000000012 4.890645970388045 1.834844212949503  11.56497853771992 4.988292961551792 1.957551194735423  11.56641658139269 4.966921203229993 1.802004667929597  11.6960000000012 4.986545884303795 1.824807639916325  11.56087782411351 5.080108832838818 1.951269835994714  11.56256012218359 5.057123703268548 1.787503145202598  11.69600000000121 5.082001174862651 1.814229066439372  11.55558963715439 5.171058975696398 1.944530102535699  11.55794289764726 5.146143120786749 1.771282875965363  11.69600000000121 5.175847051036969 1.800054634870278  11.69600000000094 4.408908561173373 1.215379297192487  11.58971093572655 4.401805647804887 1.197391073175299  11.58977987656437 4.451166183962809 1.316888082153086  11.58753416219911 4.546844056414063 1.281061308145038  11.58766511077299 4.490453131472342 1.143820792884614  11.6960000000009 4.50504802581517 1.16751293919106  11.58497648380322 4.640827014440742 1.246158574503687  11.58478672231564 4.57794084464301 1.091449965398422  11.69600000000086 4.599803870375183 1.121033604249587  11.58249896380759 4.733258891835586 1.211901782799667  11.58202612755154 4.664217067833344 1.039786673137101  11.69600000000082 4.693176795476649 1.075295170326401  11.58012412256367 4.824441999194589 1.178115871513389  11.57947424406237 4.749571135378853 0.988595904246194  11.69600000000078 4.785609244108263 1.029925414339495  11.5778996363058 4.914598764242598 1.144869104683522  11.57711831364444 4.834021389810818 0.9376622860843606  11.69600000000075 4.877527486222624 0.9850183719084213  11.57569146236905 5.004207592639464 1.112980638112353  11.57396960770359 4.917008956455906 0.8871256196507554  11.69600000000071 4.967190352894599 0.9416612119947472  10.4952756878144 4.42441283366955 1.60767193692772  10.4698908875369 4.39194066183008 1.502579167504001  10.35729438812349 4.388191605414133 1.594108795199726  10.34031745392207 4.453574229269932 1.579037792424063  10.45402708663044 4.457837167889293 1.480812321482144  10.48046809687719 4.491644704205032 1.593470819986899  10.32388642030917 4.51873270093575 1.564129166440115  10.43870777352018 4.523520771000834 1.459230547424556  10.46621213502945 4.5585341230283 1.579463834593956  10.30780121782763 4.583635251822318 1.54929781689714  10.42374260611239 4.588882862979643 1.437756376960828  10.45232600878233 4.625057016106412 1.565562502072764  10.29188722835473 4.648249059865938 1.534459936485328  10.40894748311987 4.653905611508903 1.416272247553459  10.43862812876086 4.691200482195974 1.551618483654007  10.27587415343321 4.712533572938159 1.519533736485163  10.39398881515694 4.718569692625598 1.394771664534494  10.42478310192208 4.756931997558784 1.537614950051444  10.25942854014759 4.776469274240721 1.504552943259043  10.37859039776304 4.782880217646608 1.373255592946311  10.41050904781774 4.822239318880589 1.523497322552059  11.47933207461464 4.572015242312842 1.749050255644072  11.47166159592053 4.591041613924581 1.872303621078983  11.46401815905018 4.681665653525025 1.859124023077011  11.47387201679478 4.662629876110679 1.730260457445361  11.45609404794149 4.770806013762706 1.846224055925524  11.46840964697838 4.751868534080566 1.711822302030423  11.44829169640522 4.858725465091051 1.833367098364614  11.46302490804408 4.839783227599499 1.693604052675031  11.44095456964038 4.945643283596144 1.820112670530889  11.45767655180638 4.926542199363892 1.675457592463844  11.43354489882472 5.031637683188961 1.806583811922434  11.4524999759746 5.012281617187803 1.657029094534896  11.4256229888184 5.116789637064401 1.792364498544275  11.44769218591023 5.097160319955142 1.63814630296771  11.13869903860188 4.269335092323219 1.079362838124228  11.05364143595518 4.173479822643415 1.01310531172084  11.03103094556073 4.271606071229331 1.100543165326408  11.02030874948773 4.333614339300447 1.044581849631644  11.12676704865311 4.332081049398539 1.019810756376904  10.42426020743856 4.421765253996123 1.694040596557828  10.40825652770488 4.487606981755131 1.683985000907891  10.39279150640451 4.553134120194088 1.674080950539579  10.377689964475 4.618320341065755 1.66425034219847  10.36280064938287 4.683167866337291 1.654387206079367  10.34780799829607 4.747643307175402 1.64441935273027  10.33238812125383 4.811715121847084 1.634341425007084  10.36748758607207 4.348542123528687 1.461025526516445  10.35158802928338 4.413067643451036 1.436926945244889  10.3361695415195 4.477439615167786 1.413029733631421  10.3210733549432 4.541588153031304 1.389236719543185  10.30613649877435 4.605481701128459 1.365482493188991  10.29112668893641 4.669077806988993 1.341678985497734  10.27572182708199 4.732382082329709 1.317856082693289  11.37904136788859 4.10683860381133 0.9334117247911181  11.27721906570756 4.184638783808762 0.9820824976447833  11.37448948720835 4.201102238399272 0.9912210449141341  11.36980825938681 4.255828657689738 0.9137946598665501  11.27101772882739 4.237592122607333 0.9078420797191689  11.37528628875238 4.1526720132861 0.8511586933871362  11.36532071405451 4.309891740972471 0.8376209110282749  10.44367569264865 4.648073485058633 1.774948080494948  10.43014778025453 4.713141555203586 1.76961210452397  10.5753539146958 4.417732910994682 1.515823024210381  10.54180123322496 4.384738452128688 1.4371523859699  10.52686733229266 4.450582218995367 1.410115879501887  10.56271704073745 4.486237735085842 1.495909892553489  10.51249130140987 4.516084160644242 1.383312312547119  10.55061819444576 4.554170516425235 1.47627485
[...]
<CellData  Scalars="f">
<DataArray  type="Float64"  Name="f"  format="ascii">1 18446744073709551615 18446744073709551615 1 18446744073709551615 18446744073709551615 1 18446744073709551615 18446744073709551615 18446744073709551615 18446744073709551615 18446744073709551615 18446744073709551615 18446744073709551615 18446744073709551615 18446744073709551615 1 18446744073709551615 18446744073709551615 1 18446744073709551615 18446744073709551615 18446744073709551615 18446744073709551615 18446744073709551615 18446744073709551615 1 18446744073709551615 18446744073709551615 18446744073709551615 18446744073709551615 18446744073709551615 18446744073709551615 18446744073709551615 18446744073709551615 18446744073709551615 1 18446744073709551615 18446744073709551615 18446744073709551615 1 18446744073709551615 18446744073709551615 1 18446744073709551615 18446744073709551615 18446744073709551615 1 18446744073709551615 18446744073709551615 18446744073709551615 18446744073709551615 18446744073709551615 18446744073709551615 18446744073709551615 18446744073709551615 18446744073709551615 1 18446744073709551615 18446744073709551615 18446744073709551615 1 18446744073709551615 18446744073709551615 18446744073709551615 1 18446744073709551615 18446744073709551615 18446744073709551615 18446744073709551615 18446744073709551615 18446744073709551615 18446744073709551615 18446744073709551615 18446744073709551615 18446744073709551615 18446744073709551615 18446744073709551615 18446744073709551615 18446744073709551615 18446744073709551615 18446744073709551615 18446744073709551615 18446744073709551615 18446744073709551615 18446744073709551615 18446744073709551615 18446744073709551615 18446744073709551615 18446744073709551615 18446744073709551615 18446744073709551615 18446744073709551615 18446744073709551615 18446744073709551615 18446744073709551615 18446744073709551615 18446744073709551615 18446744073709551615 18446744073709551615 18446744073709551615 18446744073709551615 18446744073709551615 18446744073709551615 18446744073709551615 18446744073709551615 18446744073709551615 18446744073709551615 18446744073709551615 18446744073709551615 18446744073709551615 18446744073709551615 18446744073709551615 18446744073709551615 18446744073709551615 18446744073709551615 18446744073709551615 18446744073709551615 18446744073709551615 18446744073709551615 18446744073709551615 18446744073709551615 18446744073709551615 18446744073709551615 18446744073709551615 18446744073709551615 18446744073709551615 18446744073709551615 18446744073709551615 18446744073709551615 18446744073709551615 18446744073709551615 18446744073709551615 18446744073709551615 18446744073709551615 18446744073709551615 18446744073709551615 18446744073709551615 18446744073709551615 18446744073709551615 18446744073709551615 18446744073709551615 18446744073709551615 18446744073709551615 18446744073709551615 18446744073709551615 18446744073709551615 18446744073709551615 18446744073709551615 18446744073709551615 18446744073709551615 18446744073709551615 18446744073709551615 18446744073709551615 18446744073709551615 18446744073709551615 18446744073709551615 18446744073709551615 18446744073709551615 18446744073709551615 18446744073709551615 18446744073709551615 18446744073709551615 18446744073709551615 18446744073709551615 18446744073709551615 18446744073709551615 18446744073709551615 18446744073709551615 18446744073709551615 18446744073709551615 18446744073709551615 18446744073709551615 18446744073709551615 18446744073709551615 18446744073709551615 18446744073709551615 18446744073709551615 18446744073709551615 18446744073709551615 18446744073709551615 18446744073709551615 18446744073709551615 18446744073709551615 18446744073709551615 18446744073709551615 18446744073709551615 18446744073709551615 18446744073709551615 18446744073709551615 18446744073709551615 18446744073709551615 18446744073709551615 18446744073709551615 18446744073709551615 18446744073709551615 18446744073709551615 18446744073709551615 18446744073709551615 18446744073709551615 18446744073709551615 18446744073709551615 18446744073709551615 18446744073709551615 18446744073709551615 18446744073709551615 18446744073709551615 18446744073709551615 18446744073709551615 18446744073709551615 18446744073709551615 18446744073709551615 18446744073709551615 18446744073709551615 18446744073709551615 18446744073709551615 18446744073709551615 18446744073709551615 18446744073709551615 18446744073709551615 18446744073709551615 18446744073709551615 18446744073709551615 18446744073709551615 18446744073709551615 18446744073709551615 18446744073709551615 18446744073709551615 18446744073709551615 18446744073709551615 18446744073709551615 18446744073709551615 18446744073709551615 18446744073709551615 18446744073709551615 18446744073709551615 18446744073709551615 18446744073709551615 18446744073709551615 18446744073709551615 18446744073709551615 18446744073709551615 18446744073709551615 18446744073709551615 18446744073709551615 18446744073709551615 18446744073709551615 18446744073709551615 18446744073709551615 18446744073709551615 18446744073709551615 18446744073709551615 18446744073709551615 18446744073709551615 18446744073709551615 18446744073709551615 18446744073709551615 18446744073709551615 18446744073709551615 18446744073709551615 18446744073709551615 18446744073709551615 18446744073709551615 18446744073709551615 18446744073709551615 18446744073709551615 18446744073709551615 18446744073709551615 18446744073709551615 18446744073709551615 18446744073709551615 18446744073709551615 18446744073709551615 18446744073709551615 18446744073709551615 18446744073709551615 18446744073709551615 18446744073709551615 18446744073709551615 18446744073709551615 18446744073709551615 18446744073709551615 18446744073709551615 18446744073709551615 18446744073709551615 18446744073709551615 18446744073709551615 18446744073709551615 18446744073709551615 18446744073709551615 18446744073709551615 18446744073709551615 18446744073709551615 18446744073709551615 18446744073709551615 18446744073709551615 18446744073709551615 18446744073709551615 18446744073709551615 18446744073709551615 18446744073709551615 18446744073709551615 18446744073709551615 18446744073709551615 18446744073709551615 18446744073709551615 18446744073709551615 18446744073709551615 18446744073709551615 18446744073709551615 18446744073709551615 18446744073709551615 18446744073709551615 18446744073709551615 18446744073709551615 18446744073709551615 18446744073709551615 18446744073709551615 18446744073709551615 18446744073709551615 18446744073709551615 18446744073709551615 18446744073709551615 18446744073709551615 18446744073709551615 18446744073709551615 18446744073709551615 18446744073709551615 18446744073709551615 18446744073709551615 18446744073709551615 18446744073709551615 18446744073709551615 18446744073709551615 18446744073709551615 18446744073709551615 18446744073709551615 18446744073709551615 18446744073709551615 18446744073709551615 18446744073709551615 18446744073709551615 18446744073709551615 18446744073709551615 18446744073709551615 18446744073709551615 18446744073709551615 18446744073709551615 18446744073709551615 18446744073709551615 18446744073709551615 18446744073709551615 18446744073709551615 18446744073709551615 18446744073709551615 18446744073709551615 18446744073709551615 18446744073709551615 18446744073709551615 18446744073709551615 18446744073709551615 18446744073709551615 18446744073709551615 18446744073709551615 18446744073709551615 18446744073709551615 18446744073709551615 18446744073709551615 18446744073709551615 18446744073709551615 18446744073709551615 18446744073709551615 18446744073709551615 18446744073709551615 18446744073709551615 18446744073709551615 18446744073709551615 18446744073709551615 18446744073709551615 18446744073709551615 18446744073709551615 18446744073709551615 18446744073709551615 18446744073709551615 18446744073709551615 18446744073709551615 18446744073709551615 18446744073709551615 18446744073709551615 18446744073709551615 18446744073709551615 18446744073709551615 18446744073709551615 18446744073709551615 18446744073709551615 18446744073709551615 18446744073709551615 18446744073709551615 18446744073709551615 18446744073709551615 18446744073709551615 18446744073709551615 18446744073709551615 18446744073709551615 18446744073709551615 18446744073709551615 18446744073709551615 18446744073709551615 18446744073709551615 18446744073709551615 18446744073709551615 18446744073709551615 18446744073709551615 18446744073709551615 5 5 5 5 5 5 5 5 5 5 5 5 5 18446744073709551615 18446744073709551615 18446744073709551615 18446744073709551615 18446744073709551615 1 18446744073709551615 1 18446744073709551615 18446744073709551615 18446744073709551615 18446744073709551615 18446744073709551615 1 18446744073709551615 18446744073709551615 18446744073709551615 18446744073709551615 18446744073709551615 18446744073709551615 18446744073709551615 18446744073709551615 18446744073709551615 18446744073709551615 18446744073709551615 18446744073709551615 18446744073709551615 18446744073709551615 18446744073709551615 18446744073709551615 18446744073709551615 18446744073709551615 18446744073709551615 18446744073709551615 18446744073709551615 18446744073709551615 18446744073709551615 18446744073709551615 18446744073709551615 18446744073709551615 18446744073709551615 18446744073709551615 18446744073709551615 18446744073709551615 18446744073709551615 18446744073709551615 18446744073709551615 18446744073709551615 18446744073709551615 18446744073709551615 18446744073709551615 18446744073709551615 18446744073709551615 18446744073709551615 18446744073709551615 18446744073709551615 18446744073709551615 18446744073709551615 18446744073709551615 18446744073709551615 18446744073709551615 18446744073709551615 18446744073709551615 18446744073709551615 18446744073709551615 18446744073709551615 18446744073709551615 18446744073709551615 18446744073709551615 18446744073709551615 18446744073709551615 18446744073709551615 18446744073709551615 18446744073709551615 18446744073709551615 18446744073709551615 18446744073709551615 18446744073709551615 18446744073709551615 18446744073709551615 18446744073709551615 18446744073709551615 18446744073709551615 18446744073709551615 18446744073709551615 18446744073709551615 18446744073709551615 18446744073709551615 18446744073709551615 18446744073709551615 18446744073709551615 18446744073709551615 18446744073709551615 18446744073709551615 18446744073709551615 18446744073709551615 18446744073709551615 18446744073709551615 18446744073709551615 5 18446744073709551615 5 18446744073709551615 18446744073709551615 5 1 18446744073709551615 18446744073709551615 1 18446744073709551615 18446744073709551615 1 18446744073709551615 18446744073709551615 18446744073709551615 18446744073709551615 18446744073709551615 18446744073709551615 18446744073709551615 18446744073709551615 18446744073709551615 18446744073709551615 18446744073709551615 1 18446744073709551615 18446744073709551615 18446744073709551615 18446744073709551615 1 18446744073709551615 18446744073709551615 18446744073709551615 18446744073709551615 18446744073709551615 1 18446744073709551615 18446744073709551615 18446744073709551615 18446744073709551615 18446744073709551615 18446744073709551615 18446744073709551615 18446744073709551615 18446744073709551615 18446744073709551615 18446744073709551615 18446744073709551615 1 18446744073709551615 18446744073709551615 1 18446744073709551615 18446744073709551615 18446744073709551615 18446744073709551615 18446744073709551615 18446744073709551615 18446744073709551615 18446744073709551615 18446744073709551615 18446744073709551615 18446744073709551615 18446744073709551615 18446744073709551615 18446744073709551615 18446744073709551615 18446744073709551615 18446744073709551615 18446744073709551615 18446744073709551615 18446744073709551615 18446744073709551615 18446744073709551615 18446744073709551615 18446744073709551615 18446744073709551615 18446744073709551615 18446744073709551615 18446744073709551615 18446744073709551615 18446744073709551615 18446744073709551615 18446744073709551615 18446744073709551615 18446744073709551615 18446744073709551615 18446744073709551615 18446744073709551615 18446744073709551615 18446744073709551615 18446744073709551615 18446744073709551615 18446744073709551615 18446744073709551615 18446744073709551615 18446744073709551615 18446744073709551615 18446744073709551615 18446744073709551615 18446744073709551615 18446744073709551615 18446744073709551615 18446744073709551615 18446744073709551615 18446744073709551615 18446744073709551615 18446744073709551615 18446744073709551615 18446744073709551615 18446744073709551615 18446744073709551615 18446744073709551615 18446744073709551615 18446744073709551615 18446744073709551615 18446744073709551615 18446744073709551615 18446744073709551615 18446744073709551615 18446744073709551615 18446744073709551615 18446744073709551615 18446744073709551615 18446744073709551615 18446744073709551615 18446744073709551615 18446744073709551615 18446744073709551615 18446744073709551615 18446744073709551615 18446744073709551615 18446744073709551615 18446744073709551615 18446744073709551615 18446744073709551615 18446744073709551615 18446744073709551615 18446744073709551615 18446744073709551615 18446744073709551615 18446744073709551615 18446744073709551615 18446744073709551615 18446744073709551615 18446744073709551615 18446744073709551615 18446744073709551615 18446744073709551615 18446744073709551615 18446744073709551615 18446744073709551615 18446744073709551615 18446744073709551615 18446744073709551615 18446744073709551615 18446744073709551615 18446744073709551615 18446744073709551615 18446744073709551615 18446744073709551615 18446744073709551615 18446744073709551615 18446744073709551615 18446744073709551615 18446744073709551615 18446744073709551615 18446744073709551615 18446744073709551615 18446744073709551615 18446744073709551615 18446744073709551615 18446744073709551615 18446744073709551615 18446744073709551615 18446744073709551615 18446744073709551615 18446744073709551615 18446744073709551615 18446744073709551615 18446744073709551615 18446744073709551615 18446744073709551615 18446744073709551615 18446744073709551615 18446744073709551615 18446744073709551615 18446744073709551615 18446744073709551615 18446744073709551615 18446744073709551615 18446744073709551615 18446744073709551615 18446744073709551615 18446744073709551615 18446744073709551615 18446744073709551615 18446744073709551615 18446744073709551615 18446744073709551615 18446744073709551615 18446744073709551615 18446744073709551615 18446744073709551615 18446744073709551615 18446744073709551615 18446744073709551615 18446744073709551615 18446744073709551615 18446744073709551615 18446744073709551615 18446744073709551615 18446744073709551615 18446744073709551615 18446744073709551615 18446744073709551615 18446744073709551615 18446744073709551615 18446744073709551615 18446744073709551615 18446744073709551615 18446744073709551615 18446744073709551615 18446744073709551615 18446744073709551615 18446744073709551615 18446744073709551615 18446744073709551615 18446744073709551615 18446744073709551615 18446744073709551615 18446744073709551615 18446744073709551615 18446744073709551615 18446744073709551615 18446744073709551615 18446744073709551615 18446744073709551615 18446744073709551615 18446744073709551615 18446744073709551615 18446744073709551615 18446744073709551615 18446744073709551615 18446744073709551615 18446744073709551615 18446744073709551615 18446744073709551615 18446744073709551615 18446744073709551615 18446744073709551615 18446744073709551615 18446744073709551615 18446744073709551615 18446744073709551615 18446744073709551615 18446744073709551615 18446744073709551615 18446744073709551615 18446744073709551615 18446744073709551615 18446744073709551615 18446744073709551615 18446744073709551615 18446744073709551615 18446744073709551615 18446744073709551615 18446744073709551615 18446744073709551615 18446744073709551615 18446744073709551615 18446744073709551615 18446744073709551615 18446744073709551615 18446744073709551615 18446744073709551615 18446744073709551615 18446744073709551615 18446744073709551615 18446744073709551615 18446744073709551615 18446744073709551615 18446744073709551615 18446744073709551615 18446744073709551615 18446744073709551615 18446744073709551615 18446744073709551615 18446744073709551615 18446744073709551615 18446744073709551615 18446744073709551615 18446744073709551615 18446744073709551615 18446744073709551615 18446744073709551615 18446744073709551615 18446744073709551615 18446744073709551615 18446744073709551615 18446744073709551615 18446744073709551615 18446744073709551615 18446744073709551615 18446744073709551615 18446744073709551615 18446744073709551615 18446744073709551615 18446744073709551615 18446744073709551615 18446744073709551615 18446744073709551615 18446744073709551615 18446744073709551615 18446744073709551615 18446744073709551615 18446744073709551615 18446744073709551615 18446744073709551615 18446744073709551615 5 18446744073709551615 5 5 5 18446744073709551615 18446744073709551615 5 5 5 18446744073709551615 5 18446744073709551615 5 18446744073709551615 18446744073709551615 18446744073709551615 18446744073709551615 1 18446744073709551615 18446744073709551615 18446744073709551615 18446744073709551615 18446744073709551615 18446744073709551615 18446744073709551615 18446744073709551615 18446744073709551615 18446744073709551615 18446744073709551615 18446744073709551615 18446744073709551615 18446744073709551615 18446744073709551615 18446744073709551615 18446744073709551615 18446744073709551615 18446744073709551615 18446744073709551615 18446744073709551615 18446744073709551615 18446744073709551615 18446744073709551615 18446744073709551615 18446744073709551615 18446744073709551615 18446744073709551615 18446744073709551615 18446744073709551615 18446744073709551615 18446744073709551615 18446744073709551615 18446744073709551615 18446744073709551615 18446744073709551615 18446744073709551615 18446744073709551615 18446744073709551615 18446744073709551615 18446744073709551615 18446744073709551615 18446744073709551615 18446744073709551615 18446744073709551615 18446744073709551615 18446744073709551615 18446744073709551615 18446744073709551615 18446744073709551615 18446744073709551615 18446744073709551615 18446744073709551615 18446744073709551615 18446744073709551615 18446744073709551615 5 5 18446744073709551615 18446744073709551615 18446744073709551615 18446744073709551615 18446744073709551615 18446744073709551615 18446744073709551615 18446744073709551615 18446744073709551615 18446744073709551615 18446744073709551615 18446744073709551615 18446744073709551615 18446744073709551615 18446744073709551615 18446744073709551615 18446744073709551615 18446744073709551615 18446744073709551615 18446744073709551615 18446744073709551615 18446744073709551615 18446744073709551615 18446744073709551615 18446744073709551615 18446744073709551615 18446744073709551615 18446744073709551615 18446744073709551615 18446744073709551615 18446744073709551615 1 18446744073709551615 18446744073709551615 18446744073709551615 18446744073709551615 18446744073709551615 18446744073709551615 18446744073709551615 18446744073709551615 18446744073709551615 18446744073709551615 18446744073709551615 18446744073709551615 18446744073709551615 18446744073709551615 18446744073709551615 18446744073709551615 18446744073709551615 18446744073709551615 18446744073709551615 18446744073709551615 18446744073709551615 18446744073709551615 18446744073709551615 18446744073709551615 18446744073709551615 18446744073709551615 18446744073709551615 18446744073709551615 18446744073709551615 18446744073709551615 18446744073709551615 18446744073709551615 18446744073709551615 18446744073709551615 18446744073709551615 18446744073709551615 18446744073709551615 18446744073709551615 5 1 18446744073709551615 18446744073709551615 1 18446744073709551615 18446744