<?xml version="1.0"?>
<VTKFile type="UnstructuredGrid"  version="0.1"  >
<UnstructuredGrid>
<Piece  NumberOfPoints="1006" NumberOfCells="9060">
<Points>
<DataArray  type="Float64"  NumberOfComponents="3"  format="ascii">9.110747725794669 2.138052330453744 1.473437160513647  9.005307589058482 2.110191301780934 1.473325871788899  9.066032942585505 2.215280195139028 1.430135301919425  9.07162355752358 2.192164402533042 1.38243733966309  9.012473665710187 2.087283616673989 1.42497174124746  9.11644742530828 2.1148059591856 1.425478514831641  9.077199916701501 2.169076243492801 1.334974158191225  9.019624951031915 2.064451882544189 1.376831785549784  9.122096300865362 2.091633986253709 1.377753791827352  9.082745952382398 2.146009614980637 1.28777010782208  9.026757616248629 2.041685358099113 1.328922888563356  9.127715905444967 2.068524249409973 1.330259815986157  9.088293008666165 2.123021737721033 1.240792134201174  9.033884271247686 2.018998222289875 1.281220330369993  9.133333840756993 2.045492600180047 1.28297621689253  9.093813878394423 2.100139873071904 1.194053707698265  9.040961320080672 1.996371261468282 1.23373799315006  9.138928503004342 2.022534365019493 1.235919316023394  9.099270310590313 2.077398514760172 1.147579820769074  9.04793963166362 1.973786254287034 1.18654735220855  9.144471360636294 1.999647677167624 1.189154069453633  8.951680934866255 2.225167131138125 1.411817685802035  8.958796762410024 2.202752101470122 1.363829378552199  8.965914722870311 2.180375463220109 1.316115795241056  8.973027615265368 2.158009839928115 1.26864066833887  8.980131324385855 2.135708007028473 1.221389223114659  8.987186342858104 2.113509466538448 1.174359375523593  8.994118903120452 2.091469128468093 1.127633197203505  9.359045264998674 2.420638358099793 1.070265525796408  9.469950848785535 2.45037133707343 1.050784694148836  9.421209352083586 2.517749519969346 0.992439510780298  9.469197479048869 2.482460412246461 1.095311801559923  9.42189790415885 2.484170737618682 0.9468039327809619  9.359848480483215 2.389425682718346 1.025686199396019  9.470703707350436 2.41847593805862 1.006304121815004  9.422580538183462 2.450956880694304 0.9010186978195266  9.360674223852151 2.358621322603519 0.9810214633753767  9.471445695185253 2.386975321054052 0.9617199036218199  9.313268128523308 2.475964335322759 0.9501370727925305  9.314044500998317 2.442834221587371 0.9041294992976986  10.06717446290109 1.890545214332218 1.690282351435954  9.948202398422481 1.867620679798455 1.722799036336107  10.00538722889914 1.962673727023911 1.620615214239507  10.003024262009 1.925391307740197 1.579552173851677  9.948195248306707 1.824195143121901 1.687177402020206  10.06489261091686 1.847241551212323 1.654027646589613  10.00033758199189 1.88830916902647 1.53851918921759  9.947851929118075 1.780974365428067 1.651511932073753  10.06222368818169 1.804140797772243 1.617735647461695  9.997516710546558 1.851332633477752 1.497564712884845  9.947363149640799 1.737875142223331 1.615881167657034  10.05940971946597 1.761146615215076 1.581481591941018  9.99471810813073 1.814411428756155 1.456714925705684  9.946894540959606 1.694849632079778 1.580338139709241  10.05663687738222 1.718213910080646 1.545313480039884  9.992092003445851 1.777522481565892 1.415990571470915  9.946610505520674 1.651885189027064 1.544926177698084  10.05409146759299 1.675339497082793 1.509278610540845  9.989830473002495 1.74068380349911 1.375403754227483  9.946725962783708 1.608975491254483 1.509694234644065  10.052007687967 1.632504461555235 1.473390500740591  9.044075811797457 2.318102740634598 1.379620272643235  9.048728389421047 2.293688929741289 1.332583986876654  9.053384585493911 2.269240467940013 1.285799889844887  9.058026835841668 2.244787848586812 1.239276177951238  9.062662904416495 2.22039211099725 1.192972687941205  9.067284356587948 2.196117007730667 1.14686718986229  9.071895925727874 2.172109846789079 1.100960481896526  8.925473806357003 2.338014652530459 1.354542809644796  8.932414569627536 2.31413709004106 1.307165702440043  8.939390020398614 2.290223779844884 1.260069393055505  8.946390098485097 2.266299888712706 1.213218262937022  8.953379779143809 2.242422771804358 1.166596939412921  8.960327980334503 2.218680489670096 1.120178705346944  8.967144982138981 2.195237834488886 1.073983249267594  9.892723816666035 1.932898649444227 1.647884763887866  9.892076491814048 1.894345276974572 1.607944754076704  9.891161161835305 1.856025031746173 1.568056014446823  9.890124117819418 1.817828765901739 1.528258778931135  9.889117212410227 1.779712035829134 1.488591087862257  9.888300993501666 1.741665695312084 1.449098296500596  9.887817813090246 1.703688401694044 1.409781500373775  9.878066603501678 2.197771740281269 1.463218644764811  9.884423786644048 2.108594713571193 1.516689289086488  9.737473532880706 2.13848794366444 1.502918538732078  9.736504905532547 2.110377317317166 1.458014993811821  9.882059724981969 2.079299408165919 1.471862260147382  9.876032896413777 2.170999245681662 1.417711784540597  9.879489994578348 2.050125170616985 1.427181083324602  9.873825664083007 2.144281663536704 1.372369881353866  9.735360437995505 2.082379067119963 1.413313310173704  9.876804390402475 2.021033521459203 1.382660286687001  9.8715146221727 2.117614837878249 1.327204453532145  9.73411871513043 2.054446014774577 1.368787533500134  9.874123154453081 1.991996541159228 1.338298974033195  9.869198169246944 2.090999417927288 1.282202618524915  9.732868715307587 2.026572947666704 1.324442086237198  9.871580082804188 1.963013112558842 1.29410849215635  9.866990960530012 2.064452511735322 1.237373628336871  9.731713539443232 1.998775346297764 1.280296234905313  9.865020377979491 2.037991882249877 1.192718893306451  9.869347127979736 1.934124301810111 1.250137741140201  9.730792170005106 1.971072439811866 1.236358263739212  9.762453029215402 2.226578974391355 1.450733762831421  9.761210112682994 2.200394951097175 1.405293622012032  9.759841947803523 2.17425964256051 1.360066806899582  9.758389974834795 2.148166092414498 1.315032734992324  9.756922973293298 2.122123658923897 1.270172795185494  9.755523493683567 2.096162950954779 1.225481384132115  9.754299288813627 2.070330418198943 1.180973344108462  10.18237754519869 2.486595088995855 1.250032907889051  10.09704287629291 2.577631902774217 1.201919946209197  10.21233653359902 2.564093264898493 1.191682207899323  10.20446246047044 2.532908800568284 1.146454719274399  10.09055032886323 2.545988948061397 1.1571832898349  10.17440956819757 2.456388869548368 1.205439352709684  10.19641599546087 2.501652255554515 1.101413721568459  10.08391790958759 2.514226700391798 1.112659922076189  10.16622322703168 2.426149966228646 1.16101996046315  10.18828991259779 2.470390651143241 1.056496236505544  10.07721415074226 2.482438316692912 1.068294477716165  10.1579258479796 2.395924536748774 1.116728787396322  10.18017374666992 2.439173438792123 1.011650606843086  10.0705141411949 2.450689153279837 1.024019083278784  10.14962881556384 2.365747163137943 1.072525734227933  10.17215936396657 2.408059138279055 0.9668353151995593  10.06389882845824 2.419060879770752 0.9797708122144704  10.14145611589388 2.335665869727707 1.028379065100537  10.16434643289714 2.377122562963149 0.9219976433021864  10.05744638753962 2.387684454212802 0.9354714105261187  10.13358671827994 2.305733097972678 0.9842477582576911  10.51521725924049 2.060824668317986 1.461020011329014  10.41050090364608 2.046486714906758 1.491726301689819  10.43877450571167 2.139800838697322 1.422566991255561  10.42883807013681 2.109260252238256 1.376129210938462  10.40118841178389 2.010552939280521 1.448096271073413  10.50594015652713 2.026161615668435 1.415589802247046  10.41839996114527 2.078908860916804 1.329687192933364  10.39131211221289 1.97480777911104 1.404426356874539  10.49614045356391 1.991681238587793 1.370043909569807  10.40778619967313 2.048625803558926 1.283257810519272  10.38129129070314 1.939115481816316 1.36077844738835  10.48622209868468 1.957223730179825 1.324476179546008  10.39724724453217 2.0183301467532 1.236862723091535  10.37140277609946 1.903401110342682 1.317181669471123  10.47644902337018 1.922712934650823 1.278932758662538  10.38700466196753 1.987961941107818 1.190509095148424  10.36188666006624 1.867623160791205 1.273644346639319  10.46701214706529 1.888100610523676 1.23342283363076  10.3773012682863 1.957462006725918 1.144166042168173  10.35299300049955 1.831754968883876 1.230124881273579  10.45803423882715 1.853349116664994 1.187908863721123  9.653063707303533 2.253021019610726 1.436296656050593  9.652730120541188 2.226383395414349 1.39124228667329  9.652298294561129 2.199773714351004 1.346382052779746  9.651796800736836 2.173200311032898 1.301742299284107  9.651278149068684 2.146678760213709 1.257289705452899  9.650800012739237 2.120251339023624 1.213012866701984  9.650443819648613 2.093998935355305 1.168904349576523  10.08080241859362 2.475229525087121 1.27576911749144  10.07444354259733 2.445357411507348 1.231509051563055  10.06789665449566 2.415436325718041 1.187449042841728  10.0612384132586 2.385516158910125 1.143546646301547  10.05456883986339 2.355638512823905 1.099750607841372  10.04800263717456 2.325863130141573 1.056017909749752  10.0416957600438 2.296294454761618 1.012309076270363  10.30976919235812 2.108007972049885 1.467098138788229  10.30128758544517 2.076532065126067 1.421670008909758  10.29234280761345 2.045247624300977 1.376293213326025  10.28323023790625 2.01403941259752 1.330960872535188  10.27418761595333 1.982842102155678 1.285694409783679  10.26544132063292 1.951611272084165 1.240504928853752  10.25724411379493 1.920299751277261 1.195386001297892  9.608640864320487 2.165638979853152 1.489584380999816  9.609089510492369 2.138326798367036 1.444469257625093  9.609415882013202 2.111124758145892 1.399614124290363  9.609676134438788 2.084000962063303 1.35496841033132  9.609921581165512 2.056937040030925 1.310508917216899  9.610215852674949 2.02993666
[...]
<CellData  Scalars="f">
<DataArray  type="Float64"  Name="f"  format="ascii">1 18446744073709551615 18446744073709551615 1 18446744073709551615 18446744073709551615 1 18446744073709551615 18446744073709551615 18446744073709551615 18446744073709551615 18446744073709551615 18446744073709551615 18446744073709551615 18446744073709551615 18446744073709551615 18446744073709551615 1 18446744073709551615 18446744073709551615 1 18446744073709551615 18446744073709551615 18446744073709551615 18446744073709551615 18446744073709551615 1 18446744073709551615 18446744073709551615 18446744073709551615 18446744073709551615 18446744073709551615 18446744073709551615 18446744073709551615 18446744073709551615 18446744073709551615 1 18446744073709551615 18446744073709551615 18446744073709551615 1 18446744073709551615 18446744073709551615 1 18446744073709551615 18446744073709551615 18446744073709551615 1 18446744073709551615 18446744073709551615 18446744073709551615 18446744073709551615 18446744073709551615 18446744073709551615 18446744073709551615 18446744073709551615 18446744073709551615 1 18446744073709551615 18446744073709551615 18446744073709551615 1 18446744073709551615 18446744073709551615 18446744073709551615 1 18446744073709551615 18446744073709551615 18446744073709551615 18446744073709551615 18446744073709551615 18446744073709551615 18446744073709551615 18446744073709551615 18446744073709551615 18446744073709551615 18446744073709551615 18446744073709551615 18446744073709551615 18446744073709551615 18446744073709551615 18446744073709551615 18446744073709551615 18446744073709551615 18446744073709551615 18446744073709551615 18446744073709551615 18446744073709551615 18446744073709551615 18446744073709551615 18446744073709551615 18446744073709551615 18446744073709551615 18446744073709551615 18446744073709551615 18446744073709551615 18446744073709551615 18446744073709551615 18446744073709551615 18446744073709551615 18446744073709551615 18446744073709551615 18446744073709551615 18446744073709551615 18446744073709551615 18446744073709551615 18446744073709551615 18446744073709551615 18446744073709551615 18446744073709551615 18446744073709551615 18446744073709551615 18446744073709551615 18446744073709551615 18446744073709551615 18446744073709551615 18446744073709551615 18446744073709551615 18446744073709551615 18446744073709551615 18446744073709551615 18446744073709551615 18446744073709551615 18446744073709551615 18446744073709551615 18446744073709551615 18446744073709551615 18446744073709551615 18446744073709551615 18446744073709551615 18446744073709551615 18446744073709551615 18446744073709551615 18446744073709551615 18446744073709551615 18446744073709551615 18446744073709551615 18446744073709551615 18446744073709551615 18446744073709551615 18446744073709551615 18446744073709551615 18446744073709551615 18446744073709551615 18446744073709551615 18446744073709551615 18446744073709551615 18446744073709551615 18446744073709551615 18446744073709551615 18446744073709551615 18446744073709551615 18446744073709551615 18446744073709551615 18446744073709551615 18446744073709551615 18446744073709551615 18446744073709551615 18446744073709551615 18446744073709551615 18446744073709551615 18446744073709551615 18446744073709551615 18446744073709551615 18446744073709551615 18446744073709551615 18446744073709551615 18446744073709551615 18446744073709551615 18446744073709551615 18446744073709551615 18446744073709551615 18446744073709551615 18446744073709551615 18446744073709551615 18446744073709551615 18446744073709551615 18446744073709551615 18446744073709551615 18446744073709551615 18446744073709551615 18446744073709551615 18446744073709551615 18446744073709551615 18446744073709551615 18446744073709551615 18446744073709551615 18446744073709551615 18446744073709551615 18446744073709551615 18446744073709551615 18446744073709551615 18446744073709551615 18446744073709551615 18446744073709551615 18446744073709551615 18446744073709551615 18446744073709551615 18446744073709551615 18446744073709551615 18446744073709551615 18446744073709551615 18446744073709551615 18446744073709551615 18446744073709551615 18446744073709551615 18446744073709551615 18446744073709551615 18446744073709551615 18446744073709551615 18446744073709551615 18446744073709551615 18446744073709551615 18446744073709551615 18446744073709551615 18446744073709551615 18446744073709551615 18446744073709551615 18446744073709551615 18446744073709551615 18446744073709551615 18446744073709551615 18446744073709551615 18446744073709551615 18446744073709551615 18446744073709551615 18446744073709551615 18446744073709551615 18446744073709551615 18446744073709551615 18446744073709551615 18446744073709551615 18446744073709551615 18446744073709551615 18446744073709551615 18446744073709551615 18446744073709551615 18446744073709551615 18446744073709551615 18446744073709551615 18446744073709551615 18446744073709551615 18446744073709551615 18446744073709551615 18446744073709551615 18446744073709551615 18446744073709551615 18446744073709551615 18446744073709551615 18446744073709551615 18446744073709551615 18446744073709551615 18446744073709551615 18446744073709551615 18446744073709551615 18446744073709551615 18446744073709551615 18446744073709551615 18446744073709551615 18446744073709551615 18446744073709551615 18446744073709551615 18446744073709551615 18446744073709551615 18446744073709551615 18446744073709551615 18446744073709551615 18446744073709551615 18446744073709551615 18446744073709551615 18446744073709551615 18446744073709551615 18446744073709551615 18446744073709551615 18446744073709551615 18446744073709551615 18446744073709551615 18446744073709551615 18446744073709551615 18446744073709551615 18446744073709551615 18446744073709551615 18446744073709551615 18446744073709551615 18446744073709551615 18446744073709551615 18446744073709551615 18446744073709551615 18446744073709551615 18446744073709551615 18446744073709551615 18446744073709551615 18446744073709551615 18446744073709551615 18446744073709551615 18446744073709551615 18446744073709551615 18446744073709551615 18446744073709551615 18446744073709551615 18446744073709551615 18446744073709551615 18446744073709551615 18446744073709551615 18446744073709551615 18446744073709551615 18446744073709551615 18446744073709551615 18446744073709551615 18446744073709551615 18446744073709551615 18446744073709551615 18446744073709551615 18446744073709551615 18446744073709551615 18446744073709551615 18446744073709551615 18446744073709551615 18446744073709551615 18446744073709551615 18446744073709551615 18446744073709551615 18446744073709551615 18446744073709551615 18446744073709551615 18446744073709551615 18446744073709551615 18446744073709551615 18446744073709551615 18446744073709551615 18446744073709551615 18446744073709551615 18446744073709551615 18446744073709551615 18446744073709551615 18446744073709551615 18446744073709551615 18446744073709551615 18446744073709551615 18446744073709551615 18446744073709551615 18446744073709551615 18446744073709551615 18446744073709551615 18446744073709551615 18446744073709551615 18446744073709551615 18446744073709551615 18446744073709551615 18446744073709551615 18446744073709551615 18446744073709551615 18446744073709551615 18446744073709551615 18446744073709551615 18446744073709551615 18446744073709551615 18446744073709551615 18446744073709551615 18446744073709551615 18446744073709551615 18446744073709551615 18446744073709551615 18446744073709551615 18446744073709551615 18446744073709551615 18446744073709551615 18446744073709551615 18446744073709551615 18446744073709551615 18446744073709551615 18446744073709551615 18446744073709551615 18446744073709551615 18446744073709551615 18446744073709551615 18446744073709551615 18446744073709551615 18446744073709551615 18446744073709551615 18446744073709551615 18446744073709551615 18446744073709551615 18446744073709551615 18446744073709551615 18446744073709551615 18446744073709551615 18446744073709551615 18446744073709551615 18446744073709551615 18446744073709551615 18446744073709551615 18446744073709551615 18446744073709551615 18446744073709551615 18446744073709551615 18446744073709551615 18446744073709551615 18446744073709551615 18446744073709551615 18446744073709551615 18446744073709551615 18446744073709551615 18446744073709551615 18446744073709551615 18446744073709551615 18446744073709551615 18446744073709551615 18446744073709551615 5 18446744073709551615 5 5 18446744073709551615 18446744073709551615 5 5 5 5 18446744073709551615 18446744073709551615 5 5 5 5 5 5 18446744073709551615 18446744073709551615 18446744073709551615 18446744073709551615 18446744073709551615 1 18446744073709551615 18446744073709551615 18446744073709551615 1 18446744073709551615 18446744073709551615 18446744073709551615 1 18446744073709551615 18446744073709551615 18446744073709551615 18446744073709551615 18446744073709551615 18446744073709551615 18446744073709551615 18446744073709551615 18446744073709551615 18446744073709551615 18446744073709551615 18446744073709551615 18446744073709551615 18446744073709551615 18446744073709551615 18446744073709551615 18446744073709551615 18446744073709551615 18446744073709551615 18446744073709551615 18446744073709551615 18446744073709551615 18446744073709551615 18446744073709551615 18446744073709551615 18446744073709551615 18446744073709551615 18446744073709551615 18446744073709551615 18446744073709551615 18446744073709551615 18446744073709551615 18446744073709551615 18446744073709551615 18446744073709551615 18446744073709551615 18446744073709551615 18446744073709551615 18446744073709551615 18446744073709551615 18446744073709551615 18446744073709551615 18446744073709551615 18446744073709551615 18446744073709551615 18446744073709551615 18446744073709551615 18446744073709551615 18446744073709551615 18446744073709551615 18446744073709551615 18446744073709551615 18446744073709551615 18446744073709551615 18446744073709551615 18446744073709551615 18446744073709551615 18446744073709551615 18446744073709551615 18446744073709551615 18446744073709551615 18446744073709551615 18446744073709551615 18446744073709551615 18446744073709551615 18446744073709551615 18446744073709551615 18446744073709551615 18446744073709551615 18446744073709551615 18446744073709551615 18446744073709551615 18446744073709551615 18446744073709551615 18446744073709551615 18446744073709551615 18446744073709551615 18446744073709551615 18446744073709551615 18446744073709551615 18446744073709551615 18446744073709551615 18446744073709551615 18446744073709551615 18446744073709551615 18446744073709551615 18446744073709551615 18446744073709551615 5 5 5 18446744073709551615 18446744073709551615 18446744073709551615 18446744073709551615 18446744073709551615 18446744073709551615 18446744073709551615 18446744073709551615 18446744073709551615 18446744073709551615 18446744073709551615 18446744073709551615 18446744073709551615 18446744073709551615 18446744073709551615 18446744073709551615 18446744073709551615 18446744073709551615 18446744073709551615 18446744073709551615 18446744073709551615 18446744073709551615 18446744073709551615 18446744073709551615 18446744073709551615 18446744073709551615 18446744073709551615 18446744073709551615 18446744073709551615 18446744073709551615 18446744073709551615 18446744073709551615 18446744073709551615 18446744073709551615 18446744073709551615 18446744073709551615 18446744073709551615 18446744073709551615 18446744073709551615 18446744073709551615 18446744073709551615 18446744073709551615 18446744073709551615 18446744073709551615 18446744073709551615 18446744073709551615 18446744073709551615 18446744073709551615 18446744073709551615 18446744073709551615 18446744073709551615 18446744073709551615 18446744073709551615 18446744073709551615 18446744073709551615 18446744073709551615 18446744073709551615 18446744073709551615 18446744073709551615 18446744073709551615 18446744073709551615 18446744073709551615 18446744073709551615 18446744073709551615 18446744073709551615 18446744073709551615 18446744073709551615 18446744073709551615 18446744073709551615 18446744073709551615 18446744073709551615 18446744073709551615 18446744073709551615 18446744073709551615 18446744073709551615 18446744073709551615 18446744073709551615 18446744073709551615 18446744073709551615 18446744073709551615 18446744073709551615 18446744073709551615 18446744073709551615 18446744073709551615 18446744073709551615 18446744073709551615 18446744073709551615 18446744073709551615 18446744073709551615 18446744073709551615 18446744073709551615 18446744073709551615 18446744073709551615 18446744073709551615 18446744073709551615 18446744073709551615 18446744073709551615 18446744073709551615 18446744073709551615 18446744073709551615 18446744073709551615 18446744073709551615 18446744073709551615 18446744073709551615 18446744073709551615 18446744073709551615 18446744073709551615 18446744073709551615 18446744073709551615 18446744073709551615 18446744073709551615 18446744073709551615 18446744073709551615 18446744073709551615 18446744073709551615 18446744073709551615 18446744073709551615 18446744073709551615 18446744073709551615 18446744073709551615 18446744073709551615 18446744073709551615 18446744073709551615 18446744073709551615 18446744073709551615 18446744073709551615 18446744073709551615 18446744073709551615 18446744073709551615 18446744073709551615 5 5 5 5 5 5 5 5 5 5 18446744073709551615 18446744073709551615 1 18446744073709551615 18446744073709551615 1 18446744073709551615 18446744073709551615 1 18446744073709551615 18446744073709551615 18446744073709551615 18446744073709551615 18446744073709551615 18446744073709551615 18446744073709551615 18446744073709551615 18446744073709551615 18446744073709551615 18446744073709551615 1 18446744073709551615 18446744073709551615 18446744073709551615 1 18446744073709551615 18446744073709551615 18446744073709551615 1 18446744073709551615 18446744073709551615 18446744073709551615 18446744073709551615 1 18446744073709551615 18446744073709551615 18446744073709551615 18446744073709551615 18446744073709551615 18446744073709551615 18446744073709551615 1 18446744073709551615 18446744073709551615 18446744073709551615 1 18446744073709551615 18446744073709551615 18446744073709551615 18446744073709551615 18446744073709551615 18446744073709551615 18446744073709551615 18446744073709551615 1 18446744073709551615 18446744073709551615 18446744073709551615 1 18446744073709551615 1 18446744073709551615 18446744073709551615 18446744073709551615 1 18446744073709551615 18446744073709551615 18446744073709551615 18446744073709551615 18446744073709551615 18446744073709551615 18446744073709551615 18446744073709551615 18446744073709551615 18446744073709551615 18446744073709551615 18446744073709551615 18446744073709551615 18446744073709551615 18446744073709551615 18446744073709551615 18446744073709551615 18446744073709551615 18446744073709551615 18446744073709551615 18446744073709551615 18446744073709551615 18446744073709551615 18446744073709551615 18446744073709551615 18446744073709551615 18446744073709551615 18446744073709551615 18446744073709551615 18446744073709551615 18446744073709551615 18446744073709551615 18446744073709551615 18446744073709551615 18446744073709551615 18446744073709551615 18446744073709551615 18446744073709551615 18446744073709551615 18446744073709551615 18446744073709551615 18446744073709551615 18446744073709551615 18446744073709551615 18446744073709551615 18446744073709551615 18446744073709551615 18446744073709551615 18446744073709551615 18446744073709551615 18446744073709551615 18446744073709551615 18446744073709551615 18446744073709551615 18446744073709551615 18446744073709551615 18446744073709551615 18446744073709551615 18446744073709551615 18446744073709551615 18446744073709551615 18446744073709551615 18446744073709551615 18446744073709551615 18446744073709551615 18446744073709551615 18446744073709551615 18446744073709551615 18446744073709551615 18446744073709551615 18446744073709551615 18446744073709551615 18446744073709551615 18446744073709551615 18446744073709551615 18446744073709551615 18446744073709551615 18446744073709551615 18446744073709551615 18446744073709551615 18446744073709551615 18446744073709551615 18446744073709551615 18446744073709551615 18446744073709551615 18446744073709551615 18446744073709551615 18446744073709551615 18446744073709551615 18446744073709551615 18446744073709551615 18446744073709551615 18446744073709551615 18446744073709551615 18446744073709551615 18446744073709551615 18446744073709551615 18446744073709551615 18446744073709551615 18446744073709551615 18446744073709551615 18446744073709551615 18446744073709551615 18446744073709551615 18446744073709551615 18446744073709551615 18446744073709551615 18446744073709551615 18446744073709551615 18446744073709551615 18446744073709551615 18446744073709551615 18446744073709551615 18446744073709551615 18446744073709551615 18446744073709551615 18446744073709551615 18446744073709551615 18446744073709551615 18446744073709551615 18446744073709551615 18446744073709551615 18446744073709551615 18446744073709551615 18446744073709551615 18446744073709551615 18446744073709551615 18446744073709551615 18446744073709551615 18446744073709551615 18446744073709551615 18446744073709551615 18446744073709551615 18446744073709551615 18446744073709551615 18446744073709551615 18446744073709551615 18446744073709551615 18446744073709551615 18446744073709551615 18446744073709551615 18446744073709551615 18446744073709551615 18446744073709551615 18446744073709551615 18446744073709551615 18446744073709551615 18446744073709551615 18446744073709551615 18446744073709551615 18446744073709551615 18446744073709551615 18446744073709551615 18446744073709551615 18446744073709551615 18446744073709551615 18446744073709551615 18446744073709551615 18446744073709551615 18446744073709551615 18446744073709551615 18446744073709551615 18446744073709551615 18446744073709551615 18446744073709551615 18446744073709551615 18446744073709551615 18446744073709551615 18446744073709551615 18446744073709551615 18446744073709551615 18446744073709551615 18446744073709551615 18446744073709551615 18446744073709551615 18446744073709551615 18446744073709551615 18446744073709551615 18446744073709551615 18446744073709551615 18446744073709551615 18446744073709551615 18446744073709551615 18446744073709551615 18446744073709551615 18446744073709551615 18446744073709551615 18446744073709551615 18446744073709551615 18446744073709551615 18446744073709551615 18446744073709551615 18446744073709551615 18446744073709551615 18446744073709551615 18446744073709551615 18446744073709551615 18446744073709551615 18446744073709551615 18446744073709551615 18446744073709551615 18446744073709551615 18446744073709551615 18446744073709551615 18446744073709551615 18446744073709551615 18446744073709551615 18446744073709551615 18446744073709551615 18446744073709551615 18446744073709551615 18446744073709551615 18446744073709551615 18446744073709551615 18446744073709551615 18446744073709551615 18446744073709551615 18446744073709551615 18446744073709551615 18446744073709551615 18446744073709551615 18446744073709551615 18446744073709551615 18446744073709551615 18446744073709551615 18446744073709551615 18446744073709551615 18446744073709551615 18446744073709551615 18446744073709551615 18446744073709551615 18446744073709551615 18446744073709551615 18446744073709551615 18446744073709551615 18446744073709551615 18446744073709551615 18446744073709551615 18446744073709551615 18446744073709551615 18446744073709551615 18446744073709551615 18446744073709551615 18446744073709551615 18446744073709551615 18446744073709551615 18446744073709551615 18446744073709551615 18446744073709551615 18446744073709551615 18446744073709551615 18446744073709551615 18446744073709551615 18446744073709551615 18446744073709551615 18446744073709551615 18446744073709551615 18446744073709551615 18446744073709551615 18446744073709551615 18446744073709551615 1844674407