<?xml version="1.0"?>
<VTKFile type="UnstructuredGrid"  version="0.1"  >
<UnstructuredGrid>
<Piece  NumberOfPoints="672" NumberOfCells="5876">
<Points>
<DataArray  type="Float64"  NumberOfComponents="3"  format="ascii">5.83349320170168 2.396159728010131 4.232392342208047  5.991660867185877 2.365521959297128 4.230851136380902  5.954891390459629 2.511707350870121 4.259667658048257  5.95020889244117 2.501020180564715 4.342121305910991  5.98777254567937 2.342692910521508 4.309751047119654  5.831423365676634 2.377399662591351 4.312785350847534  5.945453596487776 2.490351016458935 4.424467096895794  5.98379693808737 2.31988494324799 4.388564596982912  5.829284845680042 2.358661909129329 4.393067542272558  5.940654760372648 2.479658978804046 4.506715615773973  5.979771038716313 2.297078588953686 4.467313158877489  5.827104997729361 2.339917856308037 4.473258726213913  5.935856781069462 2.468938066314953 4.588895952171259  5.97572777316647 2.274266234873029 4.546012510023073  5.824901982272516 2.321168300894866 4.553383073712863  5.822727596870475 2.302390599700626 4.633447796062099  5.971735443623333 2.251424767141494 4.624662560838557  5.9310951690378 2.45818960494154 4.671001083677912  5.820677696819946 2.283563739265053 4.713433169059269  5.967885816561587 2.228539138217999 4.703251852502311  5.926455940329285 2.447378319462262 4.753046056452628  5.46416211743795 2.745381363019189 4.248333246495232  5.445185818525446 2.583683449095705 4.262065620326183  5.577223024224714 2.615426168780923 4.261161341783235  5.577223809725 2.618916380294633 4.346028667088579  5.444124763210901 2.584099983043564 4.346994615351176  5.462190897623173 2.760343159600615 4.332259774689946  5.460129636970285 2.775265876016151 4.416009361948674  5.44299127908713 2.584521435166526 4.431728621824349  5.577131977078432 2.622407515446983 4.430702311519294  5.458015081390811 2.790116899844765 4.499594853850535  5.4418149906305 2.584902252258735 4.516302721522528  5.576997338517426 2.625859480615969 4.515223540682702  5.455892326288686 2.804895899880462 4.583061817719599  5.440645391814512 2.58523960664923 4.600761864375573  5.576860311569167 2.629265198859982 4.599637843110506  5.576750469346861 2.632640727124401 4.683985206098123  5.439505318622793 2.585547272194503 4.685148156962217  5.453814326464903 2.819622866524005 4.666420285521215  5.576727473489903 2.635957368153128 4.768284752294345  5.438472957667394 2.585788881219743 4.769475529212078  5.451847215506798 2.834269349409657 4.749712374908502  5.722378872659964 3.107795652805364 4.106444899948475  5.79863982263941 2.995814232970353 4.174099350559306  5.864477846385126 3.091669308878448 4.124389254420058  5.857452559412446 3.134562565499746 4.193546930469217  5.794089874372198 3.031431271766081 4.248907441377297  5.718316926310928 3.152131876651065 4.175430051637233  5.850369896715634 3.177297737156629 4.262683067138116  5.789463603701276 3.066916736777118 4.323616321506011  5.714154534770128 3.196324600191301 4.244369525528274  5.784810001277607 3.102312817635271 4.398252117884756  5.709950005455414 3.24042748793696 4.313258840229275  5.825187553386252 2.552362819084582 4.257907061583317  5.823184948766894 2.544374081424752 4.341121959322006  5.821111664225429 2.536414067278554 4.424206755623763  5.818995236746785 2.52842540989354 4.507175252837729  5.816872427849069 2.520398412394227 4.590058127324859  5.814780301186731 2.512333412495304 4.672874071676715  5.812796979067272 2.50421174970361 4.755630374514303  6.086413867481157 2.475006359132313 4.262562629751941  6.071159121211311 2.630892428887544 4.275890171627796  6.06394523144863 2.629643535578632 4.3593267192186  6.079115303729758 2.461112815617712 4.344238955325006  6.071723968094903 2.447236284111971 4.425801725923394  6.056657892166863 2.628391093224914 4.442645127572537  6.064301538298793 2.433349350443791 4.507290017156398  6.049344018286934 2.627106383674715 4.525874489581054  6.056880161494929 2.41944483432572 4.588719629066274  6.04204332928298 2.62578276477809 4.60903396427379  6.034792259111541 2.624413199967669 4.692142971786143  6.049500061736882 2.405511368483915 4.670106936546579  6.042255515237629 2.391507839689495 4.75145997050797  6.027636551227362 2.622986894991021 4.775202665286877  5.705732092058337 2.462307038271123 4.243201985603465  5.705386299590306 2.321131017899588 4.213306549081275  5.708189498396572 2.296874512775601 4.291911977465233  5.708307229524259 2.44807266182679 4.325301315671288  5.710944497936513 2.272655016976296 4.37040992756159  5.71081479725851 2.433873736239555 4.407275673776807  5.713656751682763 2.248447660598237 4.448821736730988  5.713277122672276 2.419667419145756 4.489131599016922  5.716340655605125 2.224244297233244 4.527172584539614  5.7157261333175 2.405439284170674 4.570903395548983  5.719051434179879 2.200013980593963 4.605456473903875  5.718190956976041 2.39118223573068 4.652611454232076  5.721831480228297 2.175724265517427 4.683648880016026  5.720741988334074 2.376865178013689 4.734251643698546  5.675467272242591 2.983793930309471 4.176915741761174  5.670943919108505 3.018842251201408 4.252802499587317  5.666339446905046 3.053768161956801 4.328573674229444  5.661692514095485 3.088606277044362 4.404246646735502  5.657046770689191 3.123376695721359 4.479838027673468  5.780164210863624 3.137642461150788 4.472824045192824  5.705752756214348 3.284468823216232 4.382092547677  5.652448233273357 3.158091490155725 4.555363228163405  5.775551338314112 3.172922798109854 4.547342862225836  5.701609121216259 3.328467649620052 4.450874355320111  5.647970156521394 3.192722923139615 4.630868233559098  5.77105017200531 3.208150564234728 4.621837549266336  5.69760283085914 3.372421925122579 4.519615174664668  5.495686930085207 2.871385154949619 4.211972519723443  5.580040989062365 2.743582529108558 4.249783182123375  5.617350500060201 2.856261426577158 4.216418348948371  5.6145151193838 2.881576734719399 4.296902584363981  5.579644673491091 2.760994636563121 4.333112436484229  5.495486912162651 2.898557152217565 4.29240072305431  5.611589832138272 2.906807182052044 4.377214391083874  5.579143611190605 2.778360140421153 4.416230712894413  5.495155852833186 2.925646343963763 4.372655225671235  5.608610841501392 2.931959931090322 4.457380466276842  5.578587399575322 2.795671111484474 4.499201273932254  5.494765784091516 2.95265228620652 4.452747401867083  5.605620641512166 2.957044979429776 4.537439299901688  5.578011487355667 2.812923409914005 4.582058669381987  5.49436523913506 2.979581546266281 4.532721714326335  5.602666500242322 2.982071911398755 4.617416176845808  5.577477135713767 2.830130616649081 4.664833624601791  5.494002721972451 3.006438976879232 4.612604200491633  5.599814535834389 3.007018492564014 4.697348421921166  5.577052128980649 2.847265478531582 4.747559745718799  5.493768271567489 3.033208284761563 4.692432401068149  5.482880867856126 2.273836424482473 4.206990233923855  5.598433777003343 2.229871557621468 4.185817263257669  5.578246913460776 2.367012180160269 4.234527432049203  5.582147018765236 2.346549311423868 4.315357707352885  5.603125901536502 2.199494639375623 4.261587906859779  5.487487694987641 2.247972228898318 4.285087171377212  5.58599125918619 2.326137589684011 4.39606149826726  5.607771764552164 2.169169613231294 4.337264913652504  5.492045955349369 2.222151910074969 4.363077138424818  5.58979513043366 2.305735901851872 4.476651934016501  5.61237050460841 2.138881791552909 4.412878098887958  5.496570190061258 2.196362820934749 4.440974058193062  5.593582419754182 2.285332856079997 4.55716541497272  5.61695347415758 2.108599652425139 4.488430892807717  5.501074367768951 2.17058480581292 4.518806262644962  5.597391573246561 2.264901227717663 4.637607797484183  5.621561644149765 2.078292200563724 4.563911015207281  5.505602866761306 2.144780416736047 4.596572687952271  5.601259349696541 2.244412677842901 4.717988324985687  5.626221729844074 2.047939711714579 4.639307534213097  5.510195191538734 2.118922249795615 4.674272361065541  5.88140234392457 2.27386061865477 4.19964144145013  5.989711104322975 2.216456810477187 4.173874890693371  5.988025280369053 2.182480949903856 4.246929067630258  5.879743905758459 2.24580577612371 4.276150178019397  5.986212786033881 2.148554254547704 4.319962145385393  5.877996275183475 2.217792058826062 4.352575929788087  5.984340507182563 2.114643050378484 4.392963048028273  5.876189765042967 2.189794378386114 4.428948321207734  5.982469992602424 2.080722076663155 4.465921315137445  5.874369372970791 2.161793075755206 4.505270028646868  5.980660490526089 2.046773102365318 4.538828548273815  5.87259891897795 2.133766438043305 4.581523850333417  5.97898365025157 2.012776311815612 4.611683868387111  5.870945008785099 2.105690852733044 4.657694730498308  5.342906681400597 2.705957692282227 4.248417950274213  5.338360169112073 2.719305194956465 4.332271733977592  5.333737532449724 2.732624074687347 4.415905742797895  5.329075122175617 2.745889991257903 4.499345067793869  5.324413845924468 2.759092679865439 4.582654237875648  5.319793908559769 2.772254228043129 4.665872961948113  5.315273310971669 2.785347122691252 4.74905030299348  6.095185754469647 2.884008425154176 4.245745390361957  6.180412642800878 2.825743753119091 4.274367737311208  6.215970686206376 2.927729045523373 4.24580926322671  6.206267719159817 2.954768263536396 4.323940955588104  6.170690048315978 2.842004771995648 4.356184598674989  6.086127137985667 2.908337822787849 4.325049944975469  6.19657069919783 2.981725770666041 4.401978504630002  6.160944882425664 2.858212617734392 4.437892827664228  6.077049320727226 2.932579601427777 4.404256679533395  6.186898185163645 3.008626185155968 4.47993442715979  6.151206055366087 2.874373300312039 4.519518412807366  6.067978604476185 2.956766073074856 4.483381991947321  6.177257464700886 3.035476241597427 4.557838973600652  6.14149707800838 2.890484758500449 4.601085894842488  6.058933356752437 2.980905039486149 4.562447977074225 
[...]
<CellData  Scalars="f">
<DataArray  type="Float64"  Name="f"  format="ascii">1 18446744073709551615 18446744073709551615 1 18446744073709551615 18446744073709551615 1 18446744073709551615 18446744073709551615 18446744073709551615 18446744073709551615 18446744073709551615 18446744073709551615 18446744073709551615 18446744073709551615 18446744073709551615 1 18446744073709551615 18446744073709551615 1 18446744073709551615 18446744073709551615 18446744073709551615 1 18446744073709551615 18446744073709551615 18446744073709551615 18446744073709551615 1 18446744073709551615 18446744073709551615 18446744073709551615 18446744073709551615 1 18446744073709551615 18446744073709551615 18446744073709551615 18446744073709551615 18446744073709551615 18446744073709551615 18446744073709551615 18446744073709551615 18446744073709551615 18446744073709551615 18446744073709551615 18446744073709551615 1 18446744073709551615 18446744073709551615 1 18446744073709551615 18446744073709551615 18446744073709551615 1 18446744073709551615 18446744073709551615 18446744073709551615 18446744073709551615 1 18446744073709551615 18446744073709551615 18446744073709551615 18446744073709551615 18446744073709551615 18446744073709551615 18446744073709551615 18446744073709551615 1 18446744073709551615 18446744073709551615 1 18446744073709551615 18446744073709551615 18446744073709551615 1 18446744073709551615 18446744073709551615 18446744073709551615 18446744073709551615 18446744073709551615 18446744073709551615 18446744073709551615 18446744073709551615 18446744073709551615 18446744073709551615 18446744073709551615 18446744073709551615 18446744073709551615 18446744073709551615 18446744073709551615 18446744073709551615 18446744073709551615 18446744073709551615 18446744073709551615 18446744073709551615 18446744073709551615 18446744073709551615 18446744073709551615 18446744073709551615 18446744073709551615 18446744073709551615 18446744073709551615 18446744073709551615 18446744073709551615 18446744073709551615 18446744073709551615 18446744073709551615 18446744073709551615 18446744073709551615 18446744073709551615 18446744073709551615 18446744073709551615 18446744073709551615 18446744073709551615 18446744073709551615 18446744073709551615 18446744073709551615 18446744073709551615 18446744073709551615 18446744073709551615 18446744073709551615 18446744073709551615 18446744073709551615 18446744073709551615 18446744073709551615 18446744073709551615 18446744073709551615 18446744073709551615 18446744073709551615 18446744073709551615 18446744073709551615 18446744073709551615 18446744073709551615 18446744073709551615 18446744073709551615 18446744073709551615 18446744073709551615 18446744073709551615 18446744073709551615 18446744073709551615 18446744073709551615 18446744073709551615 18446744073709551615 18446744073709551615 18446744073709551615 18446744073709551615 18446744073709551615 18446744073709551615 18446744073709551615 18446744073709551615 18446744073709551615 18446744073709551615 18446744073709551615 18446744073709551615 18446744073709551615 18446744073709551615 18446744073709551615 18446744073709551615 18446744073709551615 18446744073709551615 18446744073709551615 18446744073709551615 18446744073709551615 18446744073709551615 18446744073709551615 18446744073709551615 18446744073709551615 18446744073709551615 18446744073709551615 18446744073709551615 18446744073709551615 18446744073709551615 18446744073709551615 18446744073709551615 18446744073709551615 18446744073709551615 18446744073709551615 18446744073709551615 18446744073709551615 18446744073709551615 18446744073709551615 18446744073709551615 18446744073709551615 18446744073709551615 18446744073709551615 18446744073709551615 18446744073709551615 18446744073709551615 18446744073709551615 18446744073709551615 18446744073709551615 18446744073709551615 18446744073709551615 18446744073709551615 18446744073709551615 18446744073709551615 18446744073709551615 18446744073709551615 18446744073709551615 18446744073709551615 18446744073709551615 18446744073709551615 18446744073709551615 18446744073709551615 18446744073709551615 18446744073709551615 18446744073709551615 18446744073709551615 18446744073709551615 18446744073709551615 18446744073709551615 18446744073709551615 18446744073709551615 18446744073709551615 18446744073709551615 18446744073709551615 18446744073709551615 18446744073709551615 18446744073709551615 18446744073709551615 18446744073709551615 18446744073709551615 18446744073709551615 18446744073709551615 18446744073709551615 18446744073709551615 18446744073709551615 18446744073709551615 18446744073709551615 18446744073709551615 18446744073709551615 18446744073709551615 18446744073709551615 18446744073709551615 18446744073709551615 18446744073709551615 18446744073709551615 18446744073709551615 18446744073709551615 18446744073709551615 18446744073709551615 18446744073709551615 18446744073709551615 18446744073709551615 18446744073709551615 18446744073709551615 18446744073709551615 18446744073709551615 18446744073709551615 18446744073709551615 18446744073709551615 18446744073709551615 18446744073709551615 18446744073709551615 18446744073709551615 18446744073709551615 18446744073709551615 18446744073709551615 18446744073709551615 18446744073709551615 18446744073709551615 18446744073709551615 18446744073709551615 18446744073709551615 18446744073709551615 18446744073709551615 18446744073709551615 18446744073709551615 18446744073709551615 18446744073709551615 18446744073709551615 18446744073709551615 18446744073709551615 18446744073709551615 18446744073709551615 18446744073709551615 18446744073709551615 18446744073709551615 18446744073709551615 18446744073709551615 18446744073709551615 18446744073709551615 18446744073709551615 18446744073709551615 18446744073709551615 18446744073709551615 18446744073709551615 18446744073709551615 18446744073709551615 18446744073709551615 18446744073709551615 18446744073709551615 18446744073709551615 18446744073709551615 18446744073709551615 18446744073709551615 18446744073709551615 18446744073709551615 18446744073709551615 18446744073709551615 18446744073709551615 18446744073709551615 18446744073709551615 18446744073709551615 18446744073709551615 18446744073709551615 18446744073709551615 18446744073709551615 18446744073709551615 18446744073709551615 18446744073709551615 18446744073709551615 18446744073709551615 18446744073709551615 18446744073709551615 18446744073709551615 18446744073709551615 18446744073709551615 18446744073709551615 18446744073709551615 18446744073709551615 18446744073709551615 18446744073709551615 18446744073709551615 18446744073709551615 18446744073709551615 18446744073709551615 18446744073709551615 18446744073709551615 18446744073709551615 18446744073709551615 18446744073709551615 18446744073709551615 18446744073709551615 18446744073709551615 18446744073709551615 18446744073709551615 18446744073709551615 18446744073709551615 18446744073709551615 18446744073709551615 18446744073709551615 18446744073709551615 18446744073709551615 18446744073709551615 18446744073709551615 18446744073709551615 18446744073709551615 18446744073709551615 18446744073709551615 18446744073709551615 18446744073709551615 18446744073709551615 18446744073709551615 18446744073709551615 18446744073709551615 18446744073709551615 18446744073709551615 18446744073709551615 18446744073709551615 18446744073709551615 18446744073709551615 18446744073709551615 18446744073709551615 18446744073709551615 18446744073709551615 18446744073709551615 18446744073709551615 18446744073709551615 18446744073709551615 18446744073709551615 18446744073709551615 18446744073709551615 18446744073709551615 18446744073709551615 18446744073709551615 18446744073709551615 18446744073709551615 18446744073709551615 18446744073709551615 18446744073709551615 18446744073709551615 18446744073709551615 18446744073709551615 18446744073709551615 18446744073709551615 18446744073709551615 18446744073709551615 18446744073709551615 18446744073709551615 18446744073709551615 18446744073709551615 18446744073709551615 18446744073709551615 18446744073709551615 18446744073709551615 18446744073709551615 18446744073709551615 18446744073709551615 18446744073709551615 18446744073709551615 18446744073709551615 18446744073709551615 18446744073709551615 18446744073709551615 18446744073709551615 18446744073709551615 18446744073709551615 18446744073709551615 18446744073709551615 18446744073709551615 18446744073709551615 18446744073709551615 18446744073709551615 18446744073709551615 18446744073709551615 18446744073709551615 18446744073709551615 18446744073709551615 18446744073709551615 18446744073709551615 18446744073709551615 18446744073709551615 18446744073709551615 18446744073709551615 18446744073709551615 18446744073709551615 18446744073709551615 18446744073709551615 18446744073709551615 18446744073709551615 18446744073709551615 18446744073709551615 18446744073709551615 18446744073709551615 18446744073709551615 18446744073709551615 18446744073709551615 18446744073709551615 18446744073709551615 18446744073709551615 18446744073709551615 18446744073709551615 18446744073709551615 18446744073709551615 18446744073709551615 18446744073709551615 18446744073709551615 18446744073709551615 18446744073709551615 18446744073709551615 18446744073709551615 18446744073709551615 18446744073709551615 18446744073709551615 18446744073709551615 18446744073709551615 18446744073709551615 18446744073709551615 18446744073709551615 18446744073709551615 18446744073709551615 18446744073709551615 18446744073709551615 18446744073709551615 18446744073709551615 18446744073709551615 18446744073709551615 18446744073709551615 18446744073709551615 18446744073709551615 18446744073709551615 5 5 5 5 5 5 5 5 18446744073709551615 18446744073709551615 5 5 5 5 5 5 5 1 18446744073709551615 18446744073709551615 1 18446744073709551615 18446744073709551615 1 18446744073709551615 18446744073709551615 18446744073709551615 18446744073709551615 18446744073709551615 18446744073709551615 18446744073709551615 18446744073709551615 18446744073709551615 18446744073709551615 1 18446744073709551615 18446744073709551615 1 18446744073709551615 18446744073709551615 18446744073709551615 18446744073709551615 18446744073709551615 1 18446744073709551615 18446744073709551615 18446744073709551615 18446744073709551615 1 18446744073709551615 18446744073709551615 18446744073709551615 18446744073709551615 18446744073709551615 18446744073709551615 18446744073709551615 18446744073709551615 18446744073709551615 18446744073709551615 18446744073709551615 1 18446744073709551615 18446744073709551615 1 18446744073709551615 18446744073709551615 18446744073709551615 18446744073709551615 18446744073709551615 18446744073709551615 18446744073709551615 18446744073709551615 18446744073709551615 18446744073709551615 18446744073709551615 18446744073709551615 1 18446744073709551615 18446744073709551615 1 18446744073709551615 18446744073709551615 1 18446744073709551615 18446744073709551615 18446744073709551615 18446744073709551615 18446744073709551615 18446744073709551615 18446744073709551615 18446744073709551615 18446744073709551615 18446744073709551615 18446744073709551615 18446744073709551615 18446744073709551615 18446744073709551615 18446744073709551615 18446744073709551615 18446744073709551615 18446744073709551615 18446744073709551615 18446744073709551615 18446744073709551615 18446744073709551615 18446744073709551615 18446744073709551615 18446744073709551615 18446744073709551615 18446744073709551615 18446744073709551615 18446744073709551615 18446744073709551615 18446744073709551615 18446744073709551615 18446744073709551615 18446744073709551615 18446744073709551615 18446744073709551615 18446744073709551615 18446744073709551615 18446744073709551615 18446744073709551615 18446744073709551615 18446744073709551615 18446744073709551615 18446744073709551615 18446744073709551615 18446744073709551615 18446744073709551615 18446744073709551615 18446744073709551615 18446744073709551615 18446744073709551615 18446744073709551615 18446744073709551615 18446744073709551615 18446744073709551615 18446744073709551615 18446744073709551615 18446744073709551615 18446744073709551615 18446744073709551615 18446744073709551615 18446744073709551615 18446744073709551615 18446744073709551615 18446744073709551615 18446744073709551615 18446744073709551615 18446744073709551615 18446744073709551615 18446744073709551615 18446744073709551615 18446744073709551615 18446744073709551615 18446744073709551615 18446744073709551615 18446744073709551615 18446744073709551615 18446744073709551615 18446744073709551615 18446744073709551615 18446744073709551615 18446744073709551615 18446744073709551615 18446744073709551615 18446744073709551615 18446744073709551615 18446744073709551615 18446744073709551615 18446744073709551615 18446744073709551615 18446744073709551615 18446744073709551615 18446744073709551615 18446744073709551615 18446744073709551615 18446744073709551615 18446744073709551615 18446744073709551615 18446744073709551615 18446744073709551615 18446744073709551615 18446744073709551615 18446744073709551615 18446744073709551615 18446744073709551615 18446744073709551615 18446744073709551615 18446744073709551615 18446744073709551615 18446744073709551615 18446744073709551615 18446744073709551615 18446744073709551615 18446744073709551615 18446744073709551615 18446744073709551615 18446744073709551615 18446744073709551615 18446744073709551615 18446744073709551615 18446744073709551615 18446744073709551615 18446744073709551615 18446744073709551615 18446744073709551615 18446744073709551615 18446744073709551615 18446744073709551615 18446744073709551615 18446744073709551615 18446744073709551615 18446744073709551615 18446744073709551615 18446744073709551615 18446744073709551615 18446744073709551615 18446744073709551615 18446744073709551615 18446744073709551615 18446744073709551615 18446744073709551615 18446744073709551615 18446744073709551615 18446744073709551615 18446744073709551615 18446744073709551615 18446744073709551615 18446744073709551615 18446744073709551615 18446744073709551615 18446744073709551615 18446744073709551615 18446744073709551615 18446744073709551615 18446744073709551615 18446744073709551615 18446744073709551615 18446744073709551615 18446744073709551615 18446744073709551615 18446744073709551615 18446744073709551615 18446744073709551615 18446744073709551615 18446744073709551615 18446744073709551615 18446744073709551615 18446744073709551615 18446744073709551615 18446744073709551615 18446744073709551615 18446744073709551615 18446744073709551615 18446744073709551615 18446744073709551615 18446744073709551615 18446744073709551615 18446744073709551615 18446744073709551615 18446744073709551615 18446744073709551615 18446744073709551615 18446744073709551615 18446744073709551615 18446744073709551615 18446744073709551615 18446744073709551615 18446744073709551615 18446744073709551615 18446744073709551615 18446744073709551615 18446744073709551615 18446744073709551615 18446744073709551615 18446744073709551615 18446744073709551615 18446744073709551615 18446744073709551615 18446744073709551615 18446744073709551615 18446744073709551615 18446744073709551615 18446744073709551615 18446744073709551615 18446744073709551615 18446744073709551615 18446744073709551615 18446744073709551615 18446744073709551615 18446744073709551615 18446744073709551615 18446744073709551615 18446744073709551615 18446744073709551615 18446744073709551615 18446744073709551615 18446744073709551615 18446744073709551615 18446744073709551615 18446744073709551615 18446744073709551615 18446744073709551615 18446744073709551615 18446744073709551615 18446744073709551615 18446744073709551615 18446744073709551615 18446744073709551615 18446744073709551615 18446744073709551615 18446744073709551615 18446744073709551615 18446744073709551615 18446744073709551615 18446744073709551615 18446744073709551615 18446744073709551615 18446744073709551615 18446744073709551615 18446744073709551615 18446744073709551615 18446744073709551615 18446744073709551615 18446744073709551615 18446744073709551615 18446744073709551615 18446744073709551615 18446744073709551615 18446744073709551615 18446744073709551615 18446744073709551615 18446744073709551615 18446744073709551615 18446744073709551615 18446744073709551615 18446744073709551615 18446744073709551615 18446744073709551615 18446744073709551615 18446744073709551615 18446744073709551615 18446744073709551615 18446744073709551615 18446744073709551615 18446744073709551615 18446744073709551615 18446744073709551615 18446744073709551615 18446744073709551615 18446744073709551615 18446744073709551615 18446744073709551615 18446744073709551615 18446744073709551615 18446744073709551615 18446744073709551615 18446744073709551615 18446744073709551615 18446744073709551615 18446744073709551615 18446744073709551615 18446744073709551615 18446744073709551615 18446744073709551615 18446744073709551615 18446744073709551615 18446744073709551615 18446744073709551615 18446744073709551615 18446744073709551615 18446744073709551615 18446744073709551615 18446744073709551615 18446744073709551615 18446744073709551615 18446744073709551615 18446744073709551615 18446744073709551615 18446744073709551615 18446744073709551615 18446744073709551615 18446744073709551615 18446744073709551615 18446744073709551615 18446744073709551615 18446744073709551615 18446744073709551615 18446744073709551615 18446744073709551615 18446744073709551615 18446744073709551615 18446744073709551615 18446744073709551615 18446744073709551615 18446744073709551615 18446744073709551615 18446744073709551615 18446744073709551615 18446744073709551615 18446744073709551615 18446744073709551615 18446744073709551615 18446744073709551615 18446744073709551615 18446744073709551615 18446744073709551615 18446744073709551615 18446744073709551615 18446744073709551615 18446744073709551615 18446744073709551615 18446744073709551615 18446744073709551615 18446744073709551615 18446744073709551615 18446744073709551615 18446744073709551615 18446744073709551615 18446744073709551615 18446744073709551615 18446744073709551615 18446744073709551615 18446744073709551615 18446744073709551615 18446744073709551615 18446744073709551615 18446744073709551615 18446744073709551615 18446744073709551615 18446744073709551615 18446744073709551615 18446744073709551615 18446744073709551615 18446744073709551615 18446744073709551615 5 18446744073709551615 5 5 18446744073709551615 5 18446744073709551615 18446744073709551615 18446744073709551615 18446744073709551615 18446744073709551615 18446744073709551615 5 5 18446744073709551615 5 18446744073709551615 5 18446744073709551615 18446744073709551615 18446744073709551615 18446744073709551615 18446744073709551615 5 5 18446744073709551615 5 18446744073709551615 5 18446744073709551615 5 18446744073709551615 5 18446744073709551615 1 18446744073709551615 18446744073709551615 1 18446744073709551615 18446744073709551615 18446744073709551615 18446744073709551615 18446744073709551615 18446744073709551615 18446744073709551615 18446744073709551615 18446744073709551615 18446744073709551615 1 18446744073709551615 18446744073709551615 18446744073709551615 1 18446744073709551615 18446744073709551615 18446744073709551615 18446744073709551615 1 18446744073709551615 18446744073709551615 18446744073709551615 18446744073709551615 18446744073709551615 18446744073709551615 18446744073709551615 18446744073709551615 1 18446744073709551615 18446744073709551615 18446744073709551615 1 18446744073709551615 18446744073709551615 18446744073709551615 1 18446744073709551615 18446744073709551615 18446744073709551615 18446744073709551615 18446744073709551615 18446744073709551615 18446744073709551615 18446744073709551615 18446744073709551615 18446744073709551615 18446744073709551615 18446744073709551615 18446744073709551615 18446744073709551615 18446744073709551615 18446744073709551615 18446744073709551615 18446744073709551615 18446744073709551615 18446744073709551615 18446744073709551615 1844674407370