<?xml version="1.0"?>
<VTKFile type="UnstructuredGrid"  version="0.1"  >
<UnstructuredGrid>
<Piece  NumberOfPoints="1033" NumberOfCells="9509">
<Points>
<DataArray  type="Float64"  NumberOfComponents="3"  format="ascii">11.46892205299309 4.301208142175684 3.08090688625695  11.37000375638554 4.349523708371754 2.983870844722425  11.36544525144734 4.276637964502956 3.107919623244493  11.35916717826773 4.345166885842662 3.147169417192552  11.36388640887053 4.420220700677074 3.019984424943979  11.46368309913316 4.373013678076815 3.121031471721833  11.35294932879273 4.413469712417222 3.185795245846503  11.35782236698266 4.490544359314971 3.05549532962943  11.45852764669901 4.444339118412499 3.160758522521514  11.34695138583056 4.481364189373251 3.224072172692272  11.35192759058436 4.560367163777624 3.090622813720131  11.45353739719314 4.515106408974897 3.20021568868128  11.34117736896864 4.548844577288458 3.262130697974525  11.3462512420716 4.629696071912051 3.125479072141496  11.44877266035393 4.585365490979004 3.239381133456053  11.33559679110555 4.615938557273944 3.300059196556118  11.34083338149776 4.698539108146708 3.160176042499225  11.44410902371752 4.655153510092348 3.278344168140169  11.33017397634872 4.682652950401079 3.338028920928359  11.33565238584362 4.766849055472982 3.1949258118366  11.43969428562951 4.724624515235171 3.317067988587807  11.24835274496754 4.284323615349476 3.075525542826874  11.23931763410547 4.350151996269473 3.112105454596856  11.23033097601114 4.415811504195858 3.14792540582076  11.22153749144908 4.481193771934572 3.183374318882702  11.21296747614926 4.546216097133716 3.218621554453655  11.204646607344 4.610831315547778 3.25377488178647  11.19643309609351 4.674854146219026 3.289053519689376  11.57968909449776 4.172444903414744 3.286354144223992  11.47327957716026 4.244717834837856 3.179852870983885  11.46584009184255 4.163270913514527 3.291987766139888  11.46317770359644 4.229539496590458 3.340264354185062  11.46934693599292 4.314103965455496 3.224379609932178  11.57908063311549 4.240619149141441 3.337602613167407  11.46054360440962 4.295488106048953 3.388316862944234  11.46555447264765 4.383019063671678 3.268562266154215  11.5785674460741 4.308120060166974 3.389109041573052  11.45791801962162 4.36118489969384 3.436130901575895  11.46194847995987 4.451489953576115 3.312542699906551  11.57798354237897 4.375198144175794 3.44068194378512  11.45533848784068 4.426758430327775 3.483776139729026  11.45843164688996 4.519499320124066 3.356350664435209  11.57732431644398 4.441961382013037 3.492246276241959  11.45272455923953 4.4922964873907 3.531298957290003  11.45502647685232 4.58718796939961 3.399837396372932  11.57660232512435 4.508691637170283 3.543483054410919  11.45017844204175 4.557983434261133 3.578467432114208  11.4517183022992 4.654786114661494 3.442900688990457  11.57586582324338 4.576052041155287 3.593683876800158  11.57844677526365 3.738464690540761 3.680530632893011  11.46756865742937 3.839192408386794 3.616266686658406  11.46918238537791 3.73144422164939 3.690194489027493  11.46790129647586 3.886626270016854 3.682755175203503  11.57963344632785 3.779629462590098 3.753442688168564  11.47180675023099 3.772836754733573 3.76066206336606  11.46815883098545 3.934208405131616 3.749341017761532  11.58015882074234 3.820648497250886 3.827223227291856  11.47404260221692 3.814443242983587 3.831407470748881  11.46830133397914 3.982068404243278 3.816029476549775  11.3707703739265 4.225218161081278 3.19769369704985  11.36542526449432 4.2919953512064 3.240409874250699  11.36014028522537 4.358600187732889 3.282518547554118  11.35507837542638 4.424881731493211 3.324321016947902  11.35014768472766 4.490872197406844 3.365923677020922  11.34536930485709 4.556630990534407 3.407403313984672  11.34063002258987 4.622143592453204 3.448840209319417  11.34371061177841 3.833511991213953 3.624466178810795  11.34473509392808 3.881579040355123 3.687341419570479  11.34547945836829 3.930155655795188 3.750051684343204  11.25512887427081 4.343106572730402 2.968896499964971  11.24594536812884 4.411174683712209 3.001966253957212  11.23686027349959 4.478936089936285 3.034354282454161  11.227956767562 4.546306515221777 3.066301389173856  11.21929919456702 4.613255453618698 3.097973009636064  11.21090791027077 4.679728584826071 3.129543555856404  11.20272702117186 4.745612351625113 3.161320224263769  11.69600000000087 4.018735309475316 3.464609420607696  11.58196708963266 4.102034283587769 3.37928578594647  11.58051946314716 4.017309224635291 3.465943890672246  11.5806375834429 4.076151144696746 3.527136597119302  11.58178568710586 4.16647950057361 3.435025634113892  11.69600000000093 4.079893050619881 3.527921406033551  11.58055641204112 4.134254399268258 3.589210212983818  11.58117639303048 4.230421745189482 3.491246727949935  11.69600000000076 4.139887982183489 3.592620020421385  11.58037113442438 4.192256100092409 3.651462347335186  11.58063276455888 4.294295045869469 3.547464320721534  11.6960000000008 4.199752515038924 3.657591164052785  11.58007826116832 4.250388893647565 3.713586194412517  11.58009671924524 4.358265621886211 3.603747075856518  11.69600000000085 4.260036603646779 3.722398394340008  11.57967744824094 4.308758979158347 3.775320832462877  11.57949881822993 4.422621104451885 3.659814599497672  11.69600000000089 4.321142710593269 3.786549646680891  11.57862983818231 4.366890074648653 3.836547823028868  11.57803280919568 4.488074230085314 3.714733303570161  11.69600000000121 4.381963756637338 3.850263328868871  11.14486661161274 4.328910184804967 2.962724839006761  11.12916727322986 4.268203181018648 3.068848539405006  11.11719779347042 4.330814119027186 3.103461462344454  11.13388324762519 4.393499704926859 2.995146651330593  11.10532442116261 4.393274116672766 3.137311453914725  11.12298830373007 4.457764408923333 3.026827297067253  11.09364301932487 4.455522748772697 3.170782934022009  11.11223874718365 4.521725714227555 3.05811555137517  11.08217407345345 4.517486690919547 3.204049098764043  11.10167941080807 4.585319441172738 3.089178506320033  11.07089265224134 4.57909861406251 3.237272480519174  11.09134854257351 4.648482376472756 3.120178904267783  11.05966140965934 4.640206487313538 3.270765192062108  11.08119373996739 4.711057252203371 3.151412720359668  11.6960000000009 4.410101460490633 2.872922651689246  11.58410466219383 4.453897222140741 2.765877069424879  11.58112192766233 4.406319184431201 2.878742172810419  11.57963972447213 4.485579305390669 2.913866204180078  11.58273717956892 4.535535596516289 2.797014446561447  11.6960000000009 4.493314026152431 2.908760101754984  11.57803561141597 4.564001298594833 2.948909444247846  11.58118278371759 4.616373644762806 2.827814578464232  11.6960000000009 4.575285696422172 2.944873035051698  11.57658601136019 4.641545633915706 2.98372990964197  11.57989418899154 4.696349388028111 2.858126261640756  11.6960000000009 4.656282058051765 2.980740608365044  11.57534923016679 4.718306256655557 3.018333502116989  11.57900235847329 4.775532078270702 2.888063414824368  11.69600000000117 4.736650665091468 3.016136661644445  11.57429338575892 4.794373676236018 3.05280004565037  11.57824100500957 4.85399343035171 2.917943773496897  11.69600000000117 4.816337691506861 3.051462530088933  11.57353303649209 4.870036258040972 3.087054861308359  11.57756384996271 4.932081444097992 2.947728215142465  11.69600000000118 4.895844964373726 3.086546701140703  11.46521325673613 4.485571338891823 2.663534369583286  11.47408361652925 4.448009147625044 2.771454719028307  11.47083279683955 4.52609968625952 2.801671842785472  11.46112118185454 4.565200353632386 2.689866115324738  11.4674913217122 4.6034851197915 2.831366544639169  11.45695805337444 4.644140224029875 2.71571803776297  11.464342595249 4.680126020083367 2.86062265910061  11.45283325206112 4.722243660180356 2.741080116467642  11.46159805886698 4.756036945479408 2.889459178409942  11.44886041898262 4.799543535122387 2.766118534797471  11.45914956795885 4.831184486772321 2.918166071956755  11.44524995544036 4.876126944013462 2.791121462868928  11.4570797549641 4.905741644180542 2.946877511548016  11.44212380196595 4.952009452099114 2.816388700402586  11.69600000000121 4.496567046653045 2.652510623418117  11.58333519910426 4.528328181270675 2.543021824061928  11.58505583382387 4.492498109256601 2.656120078472791  11.58299073092089 4.576046526095133 2.684530789917899  11.5806933408564 4.613787888143493 2.568591036036697  11.6960000000012 4.583623473308594 2.681847260676769  11.58097074782976 4.658556498379911 2.712269504613968  11.57812394195407 4.698066523808762 2.593380144302043  11.69600000000119 4.669436930935492 2.710683390488879  11.57902769703716 4.740006449185582 2.73948427016258  11.57571374984758 4.781174611291013 2.617670929991024  11.69600000000118 4.754058626240611 2.739078663843819  11.57714206820084 4.820516281347333 2.766319970013731  11.57362685749079 4.863224547559952 2.641717889216144  11.69600000000117 4.837448364152338 2.76719719566369  11.57558667681393 4.900213620913343 2.793136740990446  11.57182130873867 4.944296068349042 2.665886300535342  11.69600000000115 4.919688795683758 2.795216102545288  11.57486695849832 4.979411884816358 2.820222673109126  11.57036695979233 5.024775665471997 2.690507997312218  11.69600000000114 5.001639436899016 2.823158225199795  11.58444337248377 4.240799244102333 3.18736462675164  11.58421324029966 4.311599631536141 3.235849600660918  11.58395735772116 4.38146003357384 3.284641436134823  11.58380551744355 4.4506756629657 3.333455604256558  11.58372921315986 4.519381046978777 3.382114341609127  11.58375197556483 4.587794504007434 3.430332807354123  11.58372198302297 4.656435370202066 3.477597598084584  10.3404692191186 4.008393813366372 3.364617409851433  10.45329561632337 4.028326241482811 3.372612729338906  10.44294662763792 3.967587654677268 3.467084785659241  10.46588437028027 3.97833449585129 3.340553396755782  10.35077702211417 3.958105093484964 3.333568754
[...]
<CellData  Scalars="f">
<DataArray  type="Float64"  Name="f"  format="ascii">1 18446744073709551615 18446744073709551615 1 18446744073709551615 18446744073709551615 1 18446744073709551615 18446744073709551615 18446744073709551615 18446744073709551615 18446744073709551615 18446744073709551615 18446744073709551615 18446744073709551615 18446744073709551615 18446744073709551615 1 18446744073709551615 18446744073709551615 18446744073709551615 1 18446744073709551615 18446744073709551615 18446744073709551615 18446744073709551615 1 18446744073709551615 18446744073709551615 18446744073709551615 18446744073709551615 18446744073709551615 18446744073709551615 18446744073709551615 18446744073709551615 18446744073709551615 1 18446744073709551615 18446744073709551615 18446744073709551615 1 18446744073709551615 18446744073709551615 18446744073709551615 1 18446744073709551615 1 18446744073709551615 18446744073709551615 18446744073709551615 18446744073709551615 18446744073709551615 18446744073709551615 18446744073709551615 18446744073709551615 18446744073709551615 18446744073709551615 1 18446744073709551615 18446744073709551615 18446744073709551615 1 18446744073709551615 18446744073709551615 18446744073709551615 1 18446744073709551615 18446744073709551615 18446744073709551615 18446744073709551615 18446744073709551615 18446744073709551615 18446744073709551615 18446744073709551615 18446744073709551615 18446744073709551615 18446744073709551615 18446744073709551615 18446744073709551615 18446744073709551615 18446744073709551615 18446744073709551615 18446744073709551615 18446744073709551615 18446744073709551615 18446744073709551615 18446744073709551615 18446744073709551615 18446744073709551615 18446744073709551615 18446744073709551615 18446744073709551615 18446744073709551615 18446744073709551615 18446744073709551615 18446744073709551615 18446744073709551615 18446744073709551615 18446744073709551615 18446744073709551615 18446744073709551615 18446744073709551615 18446744073709551615 18446744073709551615 18446744073709551615 18446744073709551615 18446744073709551615 18446744073709551615 18446744073709551615 18446744073709551615 18446744073709551615 18446744073709551615 18446744073709551615 18446744073709551615 18446744073709551615 18446744073709551615 18446744073709551615 18446744073709551615 18446744073709551615 18446744073709551615 18446744073709551615 18446744073709551615 18446744073709551615 18446744073709551615 18446744073709551615 18446744073709551615 18446744073709551615 18446744073709551615 18446744073709551615 18446744073709551615 18446744073709551615 18446744073709551615 18446744073709551615 18446744073709551615 18446744073709551615 18446744073709551615 18446744073709551615 18446744073709551615 18446744073709551615 18446744073709551615 18446744073709551615 18446744073709551615 18446744073709551615 18446744073709551615 18446744073709551615 18446744073709551615 18446744073709551615 18446744073709551615 18446744073709551615 18446744073709551615 18446744073709551615 18446744073709551615 18446744073709551615 18446744073709551615 18446744073709551615 18446744073709551615 18446744073709551615 18446744073709551615 18446744073709551615 18446744073709551615 18446744073709551615 18446744073709551615 18446744073709551615 18446744073709551615 18446744073709551615 18446744073709551615 18446744073709551615 18446744073709551615 18446744073709551615 18446744073709551615 18446744073709551615 18446744073709551615 18446744073709551615 18446744073709551615 18446744073709551615 18446744073709551615 18446744073709551615 18446744073709551615 18446744073709551615 18446744073709551615 18446744073709551615 18446744073709551615 18446744073709551615 18446744073709551615 18446744073709551615 18446744073709551615 18446744073709551615 18446744073709551615 18446744073709551615 18446744073709551615 18446744073709551615 18446744073709551615 18446744073709551615 18446744073709551615 18446744073709551615 18446744073709551615 18446744073709551615 18446744073709551615 18446744073709551615 18446744073709551615 18446744073709551615 18446744073709551615 18446744073709551615 18446744073709551615 18446744073709551615 18446744073709551615 18446744073709551615 18446744073709551615 18446744073709551615 18446744073709551615 18446744073709551615 18446744073709551615 18446744073709551615 18446744073709551615 18446744073709551615 18446744073709551615 18446744073709551615 18446744073709551615 18446744073709551615 18446744073709551615 18446744073709551615 18446744073709551615 18446744073709551615 18446744073709551615 18446744073709551615 18446744073709551615 18446744073709551615 18446744073709551615 18446744073709551615 18446744073709551615 18446744073709551615 18446744073709551615 18446744073709551615 18446744073709551615 18446744073709551615 18446744073709551615 18446744073709551615 18446744073709551615 18446744073709551615 18446744073709551615 18446744073709551615 18446744073709551615 18446744073709551615 18446744073709551615 18446744073709551615 18446744073709551615 18446744073709551615 18446744073709551615 18446744073709551615 18446744073709551615 18446744073709551615 18446744073709551615 18446744073709551615 18446744073709551615 18446744073709551615 18446744073709551615 18446744073709551615 18446744073709551615 18446744073709551615 18446744073709551615 18446744073709551615 18446744073709551615 18446744073709551615 18446744073709551615 18446744073709551615 18446744073709551615 18446744073709551615 18446744073709551615 18446744073709551615 18446744073709551615 18446744073709551615 18446744073709551615 18446744073709551615 18446744073709551615 18446744073709551615 18446744073709551615 18446744073709551615 18446744073709551615 18446744073709551615 18446744073709551615 18446744073709551615 18446744073709551615 18446744073709551615 18446744073709551615 18446744073709551615 18446744073709551615 18446744073709551615 18446744073709551615 18446744073709551615 18446744073709551615 18446744073709551615 18446744073709551615 18446744073709551615 18446744073709551615 18446744073709551615 18446744073709551615 18446744073709551615 18446744073709551615 18446744073709551615 18446744073709551615 18446744073709551615 18446744073709551615 18446744073709551615 18446744073709551615 18446744073709551615 18446744073709551615 18446744073709551615 18446744073709551615 18446744073709551615 18446744073709551615 18446744073709551615 18446744073709551615 18446744073709551615 18446744073709551615 18446744073709551615 18446744073709551615 18446744073709551615 18446744073709551615 18446744073709551615 18446744073709551615 18446744073709551615 18446744073709551615 18446744073709551615 18446744073709551615 18446744073709551615 18446744073709551615 18446744073709551615 18446744073709551615 18446744073709551615 18446744073709551615 18446744073709551615 18446744073709551615 18446744073709551615 18446744073709551615 18446744073709551615 18446744073709551615 18446744073709551615 18446744073709551615 18446744073709551615 18446744073709551615 18446744073709551615 18446744073709551615 18446744073709551615 18446744073709551615 18446744073709551615 18446744073709551615 18446744073709551615 18446744073709551615 18446744073709551615 18446744073709551615 18446744073709551615 18446744073709551615 18446744073709551615 18446744073709551615 18446744073709551615 18446744073709551615 18446744073709551615 18446744073709551615 18446744073709551615 18446744073709551615 18446744073709551615 18446744073709551615 18446744073709551615 18446744073709551615 18446744073709551615 18446744073709551615 18446744073709551615 18446744073709551615 18446744073709551615 18446744073709551615 18446744073709551615 18446744073709551615 18446744073709551615 18446744073709551615 18446744073709551615 18446744073709551615 18446744073709551615 18446744073709551615 18446744073709551615 18446744073709551615 18446744073709551615 18446744073709551615 18446744073709551615 18446744073709551615 18446744073709551615 18446744073709551615 18446744073709551615 18446744073709551615 18446744073709551615 18446744073709551615 18446744073709551615 18446744073709551615 18446744073709551615 18446744073709551615 18446744073709551615 18446744073709551615 18446744073709551615 18446744073709551615 18446744073709551615 18446744073709551615 18446744073709551615 18446744073709551615 18446744073709551615 18446744073709551615 5 18446744073709551615 5 18446744073709551615 5 18446744073709551615 18446744073709551615 5 18446744073709551615 18446744073709551615 5 5 5 18446744073709551615 18446744073709551615 5 5 5 5 18446744073709551615 18446744073709551615 5 5 18446744073709551615 18446744073709551615 18446744073709551615 18446744073709551615 18446744073709551615 18446744073709551615 1 18446744073709551615 18446744073709551615 1 18446744073709551615 18446744073709551615 18446744073709551615 1 18446744073709551615 18446744073709551615 18446744073709551615 18446744073709551615 1 18446744073709551615 18446744073709551615 18446744073709551615 18446744073709551615 18446744073709551615 18446744073709551615 18446744073709551615 18446744073709551615 18446744073709551615 18446744073709551615 18446744073709551615 18446744073709551615 18446744073709551615 18446744073709551615 18446744073709551615 18446744073709551615 18446744073709551615 18446744073709551615 18446744073709551615 18446744073709551615 18446744073709551615 18446744073709551615 18446744073709551615 18446744073709551615 18446744073709551615 18446744073709551615 18446744073709551615 18446744073709551615 18446744073709551615 18446744073709551615 18446744073709551615 18446744073709551615 18446744073709551615 18446744073709551615 18446744073709551615 18446744073709551615 18446744073709551615 18446744073709551615 18446744073709551615 18446744073709551615 18446744073709551615 18446744073709551615 18446744073709551615 18446744073709551615 18446744073709551615 18446744073709551615 18446744073709551615 18446744073709551615 18446744073709551615 18446744073709551615 18446744073709551615 18446744073709551615 18446744073709551615 18446744073709551615 18446744073709551615 18446744073709551615 18446744073709551615 18446744073709551615 18446744073709551615 18446744073709551615 18446744073709551615 18446744073709551615 18446744073709551615 18446744073709551615 18446744073709551615 18446744073709551615 18446744073709551615 18446744073709551615 18446744073709551615 18446744073709551615 18446744073709551615 18446744073709551615 18446744073709551615 18446744073709551615 18446744073709551615 18446744073709551615 18446744073709551615 18446744073709551615 18446744073709551615 18446744073709551615 18446744073709551615 18446744073709551615 18446744073709551615 18446744073709551615 18446744073709551615 18446744073709551615 18446744073709551615 18446744073709551615 18446744073709551615 18446744073709551615 18446744073709551615 18446744073709551615 18446744073709551615 18446744073709551615 18446744073709551615 18446744073709551615 18446744073709551615 18446744073709551615 18446744073709551615 18446744073709551615 18446744073709551615 18446744073709551615 18446744073709551615 18446744073709551615 18446744073709551615 18446744073709551615 18446744073709551615 18446744073709551615 18446744073709551615 18446744073709551615 18446744073709551615 18446744073709551615 18446744073709551615 5 5 5 5 1 18446744073709551615 18446744073709551615 1 18446744073709551615 18446744073709551615 1 18446744073709551615 18446744073709551615 18446744073709551615 18446744073709551615 18446744073709551615 18446744073709551615 18446744073709551615 18446744073709551615 18446744073709551615 18446744073709551615 18446744073709551615 1 18446744073709551615 18446744073709551615 1 18446744073709551615 1 18446744073709551615 1 18446744073709551615 18446744073709551615 18446744073709551615 18446744073709551615 18446744073709551615 18446744073709551615 18446744073709551615 18446744073709551615 1 18446744073709551615 18446744073709551615 18446744073709551615 18446744073709551615 18446744073709551615 18446744073709551615 18446744073709551615 18446744073709551615 18446744073709551615 1 18446744073709551615 18446744073709551615 18446744073709551615 1 18446744073709551615 18446744073709551615 1 18446744073709551615 18446744073709551615 18446744073709551615 1 18446744073709551615 18446744073709551615 18446744073709551615 18446744073709551615 18446744073709551615 18446744073709551615 18446744073709551615 18446744073709551615 18446744073709551615 18446744073709551615 18446744073709551615 18446744073709551615 18446744073709551615 18446744073709551615 18446744073709551615 18446744073709551615 18446744073709551615 18446744073709551615 18446744073709551615 18446744073709551615 18446744073709551615 18446744073709551615 18446744073709551615 18446744073709551615 18446744073709551615 18446744073709551615 18446744073709551615 18446744073709551615 18446744073709551615 18446744073709551615 18446744073709551615 18446744073709551615 18446744073709551615 18446744073709551615 18446744073709551615 18446744073709551615 18446744073709551615 18446744073709551615 18446744073709551615 18446744073709551615 18446744073709551615 18446744073709551615 18446744073709551615 18446744073709551615 18446744073709551615 18446744073709551615 18446744073709551615 18446744073709551615 18446744073709551615 18446744073709551615 18446744073709551615 18446744073709551615 18446744073709551615 18446744073709551615 18446744073709551615 18446744073709551615 18446744073709551615 18446744073709551615 18446744073709551615 18446744073709551615 18446744073709551615 18446744073709551615 18446744073709551615 18446744073709551615 18446744073709551615 18446744073709551615 18446744073709551615 18446744073709551615 18446744073709551615 18446744073709551615 18446744073709551615 18446744073709551615 18446744073709551615 18446744073709551615 18446744073709551615 18446744073709551615 18446744073709551615 18446744073709551615 18446744073709551615 18446744073709551615 18446744073709551615 18446744073709551615 18446744073709551615 18446744073709551615 18446744073709551615 18446744073709551615 18446744073709551615 18446744073709551615 18446744073709551615 18446744073709551615 18446744073709551615 18446744073709551615 18446744073709551615 18446744073709551615 18446744073709551615 18446744073709551615 18446744073709551615 18446744073709551615 18446744073709551615 18446744073709551615 18446744073709551615 18446744073709551615 18446744073709551615 18446744073709551615 18446744073709551615 18446744073709551615 18446744073709551615 18446744073709551615 18446744073709551615 18446744073709551615 18446744073709551615 18446744073709551615 18446744073709551615 18446744073709551615 18446744073709551615 18446744073709551615 18446744073709551615 18446744073709551615 18446744073709551615 18446744073709551615 18446744073709551615 18446744073709551615 18446744073709551615 18446744073709551615 18446744073709551615 18446744073709551615 18446744073709551615 18446744073709551615 18446744073709551615 18446744073709551615 18446744073709551615 18446744073709551615 18446744073709551615 18446744073709551615 18446744073709551615 18446744073709551615 18446744073709551615 18446744073709551615 18446744073709551615 18446744073709551615 18446744073709551615 18446744073709551615 18446744073709551615 18446744073709551615 18446744073709551615 18446744073709551615 18446744073709551615 18446744073709551615 18446744073709551615 18446744073709551615 18446744073709551615 18446744073709551615 18446744073709551615 18446744073709551615 18446744073709551615 18446744073709551615 18446744073709551615 18446744073709551615 18446744073709551615 18446744073709551615 18446744073709551615 18446744073709551615 18446744073709551615 18446744073709551615 18446744073709551615 18446744073709551615 18446744073709551615 18446744073709551615 18446744073709551615 18446744073709551615 18446744073709551615 18446744073709551615 18446744073709551615 18446744073709551615 18446744073709551615 18446744073709551615 18446744073709551615 18446744073709551615 18446744073709551615 18446744073709551615 18446744073709551615 18446744073709551615 18446744073709551615 18446744073709551615 18446744073709551615 18446744073709551615 18446744073709551615 18446744073709551615 18446744073709551615 18446744073709551615 18446744073709551615 18446744073709551615 18446744073709551615 18446744073709551615 18446744073709551615 18446744073709551615 18446744073709551615 18446744073709551615 18446744073709551615 18446744073709551615 18446744073709551615 18446744073709551615 18446744073709551615 18446744073709551615 18446744073709551615 18446744073709551615 18446744073709551615 18446744073709551615 18446744073709551615 18446744073709551615 18446744073709551615 18446744073709551615 18446744073709551615 18446744073709551615 18446744073709551615 18446744073709551615 18446744073709551615 18446744073709551615 18446744073709551615 18446744073709551615 18446744073709551615 18446744073709551615 18446744073709551615 18446744073709551615 18446744073709551615 18446744073709551615 18446744073709551615 18446744073709551615 18446744073709551615 18446744073709551615 18446744073709551615 18446744073709551615 18446744073709551615 18446744073709551615 18446744073709551615 18446744073709551615 18446744073709551615 18446744073709551615 18446744073709551615 18446744073709551615 18446744073709551615 18446744073709551615 18446744073709551615 18446744073709551615 18446744073709551615 18446744073709551615 18446744073709551615 18446744073709551615 18446744073709551615 18446744073709551615 18446744073709551615 18446744073709551615 18446744073709551615 18446744073709551615 18446744073709551615 18446744073709551615 18446744073709551615 18446744073709551615 18446744073709551615 18446744073709551615 18446744073709551615 18446744073709551615 18446744073709551615 18446744073709551615 18446744073709551615 18446744073709551615 18446744073709551615 18446744073709551615 18446744073709551615 18446744073709551615 18446744073709551615 18446744073709551615 18446744073709551615 18446744073709551615 18446744073709551615 18446744073709551615 18446744073709551615 18446744073709551615 18446744073709551615 18446744073709551615 18446744073709551615 18446744073709551615 18446744073709551615 18446744073709551615 18446744073709551615 18446744073709551615 18446744073709551615 18446744073709551615 18446744073709551615 18446744073709551615 18446744073709551615 18446744073709551615 18446744073709551615 18446744073709551615 18446744073709551615 18446744073709551615 18446744073709551615 18446744073709551615 18446744073709551615 18446744073709551615 18446744073709551615 18446744073709551615 18446744073709551615 18446744073709551615 18446744073709551615 18446744073709551615 18446744073709551615 18446744073709551615 18446744073709551615 18446744073709551615 18446744073709551615 18446744073709551615 18446744073709551615 18446744073709551615 18446744073709551615 18446744073709551615 18446744073709551615 18446744073709551615 18446744073709551615 18446744073709551615 18446744073709551615 18446744073709551615 18446744073709551615 18446744073709551615 18446744073709551615 18446744073709551615 18446744073709551615 18446744073709551615 18446744073709551615 18446744073709551615 18446744073709551615 18446744073709551615 18446744073709551615 18446744073709551615 5 5 5 5 5 5 5 5 5 18446744073709551615 5 18446744073709551615 5 18446744073709551615 18446744073709551615 18446744073709551615 5 18446744073709551615 1 18446744073709551615 1 18446744073709551615 18446744073709551615 18446744073709551615 18446744073709551615 18446744073709551615 18446744073709551615 18446744073709551615 18446744073709551615 1 18446744073709551615 18446744073709551615 1 18446744073709551615 18446744073709551615 18446744073709551615 18446744073709551615 1 18446744073709551615 18446744073709551615 1 18446744073709551615 18446744073709551615 18446744073709551615 1 18446744073709551615 18446744073709551615 18446744073709551615 18446744073709551615 18446744073709551615 18446744073709551615 18446744073709551615 18446744073709551615 18446744073709551615 18446744073