<?xml version="1.0"?>
<VTKFile type="UnstructuredGrid"  version="0.1"  >
<UnstructuredGrid>
<Piece  NumberOfPoints="121" NumberOfCells="200">
<Points>
<DataArray  type="Float64"  NumberOfComponents="3"  format="ascii">0 0 0  1 0 0  2 0 0  3 0 0  4 0 0  5 0 0  6 0 0  7 0 0  8 0 0  9 0 0  10 0 0  0 1 0  1 1 0  2 1 0  3 1 0  4 1 0  5 1 0  6 1 0  7 1 0  8 1 0  9 1 0  10 1 0  0 2 0  1 2 0  2 2 0  3 2 0  4 2 0  5 2 0  6 2 0  7 2 0  8 2 0  9 2 0  10 2 0  0 3 0  1 3 0  2 3 0  3 3 0  4 3 0  5 3 0  6 3 0  7 3 0  8 3 0  9 3 0  10 3 0  0 4 0  1 4 0  2 4 0  3 4 0  4 4 0  5 4 0  6 4 0  7 4 0  8 4 0  9 4 0  10 4 0  0 5 0  1 5 0  2 5 0  3 5 0  4 5 0  5 5 0  6 5 0  7 5 0  8 5 0  9 5 0  10 5 0  0 6 0  1 6 0  2 6 0  3 6 0  4 6 0  5 6 0  6 6 0  7 6 0  8 6 0  9 6 0  10 6 0  0 7 0  1 7 0  2 7 0  3 7 0  4 7 0  5 7 0  6 7 0  7 7 0  8 7 0  9 7 0  10 7 0  0 8 0  1 8 0  2 8 0  3 8 0  4 8 0  5 8 0  6 8 0  7 8 0  8 8 0  9 8 0  10 8 0  0 9 0  1 9 0  2 9 0  3 9 0  4 9 0  5 9 0  6 9 0  7 9 0  8 9 0  9 9 0  10 9 0  0 10 0  1 10 0  2 10 0  3 10 0  4 10 0  5 10 0  6 10 0  7 10 0  8 10 0  9 10 0  10 10 0  </DataArray>
</Points>
<Cells>
<DataArray  type="UInt32"  Name="connectivity"  format="ascii">0 1 12  0 11 12  1 2 13  1 12 13  2 3 14  2 13 14  3 4 15  3 14 15  4 5 16  4 15 16  5 6 17  5 16 17  6 7 18  6 17 18  7 8 19  7 18 19  8 9 20  8 19 20  9 10 21  9 20 21  11 12 23  11 22 23  12 13 24  12 23 24  13 14 25  13 24 25  14 15 26  14 25 26  15 16 27  15 26 27  16 17 28  16 27 28  17 18 29  17 28 29  18 19 30  18 29 30  19 20 31  19 30 31  20 21 32  20 31 32  22 23 34  22 33 34  23 24 35  23 34 35  24 25 36  24 35 36  25 26 37  25 36 37  26 27 38  26 37 38  27 28 39  27 38 39  28 29 40  28 39 40  29 30 41  29 40 41  30 31 42  30 41 42  31 32 43  31 42 43  33 34 45  33 44 45  34 35 46  34 45 46  35 36 47  35 46 47  36 37 48  36 47 48  37 38 49  37 48 49  38 39 50  38 49 50  39 40 51  39 50 51  40 41 52  40 51 52  41 42 53  41 52 53  42 43 54  42 53 54  44 45 56  44 55 56  45 46 57  45 56 57  46 47 58  46 57 58  47 48 59  47 58 59  48 49 60  48 59 60  49 50 61  49 60 61  50 51 62  50 61 62  51 52 63  51 62 63  52 53 64  52 63 64  53 54 65  53 64 65  55 56 67  55 66 67  56 57 68  56 67 68  57 58 69  57 68 69  58 59 70  58 69 70  59 60 71  59 70 71  60 61 72  60 71 72  61 62 73  61 72 73  62 63 74  62 73 74  63 64 75  63 74 75  64 65 76  64 75 76  66 67 78  66 77 78  67 68 79  67 78 79  68 69 80  68 79 80  69 70 81  69 80 81  70 71 82  70 81 82  71 72 83  71 82 83  72 73 84  72 83 84  73 74 85  73 84 85  74 75 86  74 85 86  75 76 87  75 86 87  77 78 89  77 88 89  78 79 90  78 89 90  79 80 91  79 90 91  80 81 92  80 91 92  81 82 93  81 92 93  82 83 94  82 93 94  83 84 95  83 94 95  84 85 96  84 95 96  85 86 97  85 96 97  86 87 98  86 97 98  88 89 100  88 99 100  89 90 101  89 100 101  90 91 102  90 101 102  91 92 103  91 102 103  92 93 104  92 103 104  93 94 105  93 104 105  94 95 106  94 105 106  95 96 107  95 106 107  96 97 108  96 107 108  97 98 109  97 108 109  99 100 111  99 110 111  100 101 112  100 111 112  101 102 113  101 112 113  102 103 114  102 113 114  103 104 115  103 114 115  104 105 116  104 115 116  105 106 117  105 116 117  106 107 118  106 117 118  107 108 119  107 118 119  108 109 120  108 119 120  </DataArray>
<DataArray  type="UInt32"  Name="offsets"  format="ascii">3 6 9 12 15 18 21 24 27 30 33 36 39 42 45 48 51 54 57 60 63 66 69 72 75 78 81 84 87 90 93 96 99 102 105 108 111 114 117 120 123 126 129 132 135 138 141 144 147 150 153 156 159 162 165 168 171 174 177 180 183 186 189 192 195 198 201 204 207 210 213 216 219 222 225 228 231 234 237 240 243 246 249 252 255 258 261 264 267 270 273 276 279 282 285 288 291 294 297 300 303 306 309 312 315 318 321 324 327 330 333 336 339 342 345 348 351 354 357 360 363 366 369 372 375 378 381 384 387 390 393 396 399 402 405 408 411 414 417 420 423 426 429 432 435 438 441 444 447 450 453 456 459 462 465 468 471 474 477 480 483 486 489 492 495 498 501 504 507 510 513 516 519 522 525 528 531 534 537 540 543 546 549 552 555 558 561 564 567 570 573 576 579 582 585 588 591 594 597 600 </DataArray>
<DataArray  type="UInt8"  Name="types"  format="ascii">5 5 5 5 5 5 5 5 5 5 5 5 5 5 5 5 5 5 5 5 5 5 5 5 5 5 5 5 5 5 5 5 5 5 5 5 5 5 5 5 5 5 5 5 5 5 5 5 5 5 5 5 5 5 5 5 5 5 5 5 5 5 5 5 5 5 5 5 5 5 5 5 5 5 5 5 5 5 5 5 5 5 5 5 5 5 5 5 5 5 5 5 5 5 5 5 5 5 5 5 5 5 5 5 5 5 5 5 5 5 5 5 5 5 5 5 5 5 5 5 5 5 5 5 5 5 5 5 5 5 5 5 5 5 5 5 5 5 5 5 5 5 5 5 5 5 5 5 5 5 5 5 5 5 5 5 5 5 5 5 5 5 5 5 5 5 5 5 5 5 5 5 5 5 5 5 5 5 5 5 5 5 5 5 5 5 5 5 5 5 5 5 5 5 5 5 5 5 5 5 </DataArray>
</Cells>
<PointData  Vectors="f_11"> 
<DataArray  type="Float64"  Name="f_11"  NumberOfComponents="3" format="ascii">0.0000000000000000e+00 0.0000000000000000e+00 0.0000000000000000e+00  0.0000000000000000e+00 0.0000000000000000e+00 0.0000000000000000e+00  0.0000000000000000e+00 0.0000000000000000e+00 0.0000000000000000e+00  0.0000000000000000e+00 0.0000000000000000e+00 0.0000000000000000e+00  0.0000000000000000e+00 0.0000000000000000e+00 0.0000000000000000e+00  0.0000000000000000e+00 0.0000000000000000e+00 0.0000000000000000e+00  0.0000000000000000e+00 0.0000000000000000e+00 0.0000000000000000e+00  0.0000000000000000e+00 0.0000000000000000e+00 0.0000000000000000e+00  0.0000000000000000e+00 0.0000000000000000e+00 0.0000000000000000e+00  0.0000000000000000e+00 0.0000000000000000e+00 0.0000000000000000e+00  0.0000000000000000e+00 0.0000000000000000e+00 0.0000000000000000e+00  -6.8387837387875591e-03 -3.0340382288255269e-01 0.0000000000000000e+00  -4.2215040635242458e-03 -2.9989755260440387e-01 0.0000000000000000e+00  -2.6942807699285908e-03 -2.9925621523312768e-01 0.0000000000000000e+00  -1.6769137558440745e-03 -2.9908226638291924e-01 0.0000000000000000e+00  -8.1830223018390159e-04 -2.9902214981282060e-01 0.0000000000000000e+00  -1.8432754644137574e-05 -2.9900610470808026e-01 0.0000000000000000e+00  7.7923596464371341e-04 -2.9902035638795588e-01 0.0000000000000000e+00  1.6297238628448585e-03 -2.9907723611634973e-01 0.0000000000000000e+00  2.6219450455884246e-03 -2.9924186986676415e-01 0.0000000000000000e+00  4.0090525453167934e-03 -2.9983847685818393e-01 0.0000000000000000e+00  6.7385735360280833e-03 -3.0328262501297071e-01 0.0000000000000000e+00  -1.0727632025033131e-02 -6.0329951288845418e-01 0.0000000000000000e+00  -7.8002970526785381e-03 -6.0024314501127962e-01 0.0000000000000000e+00  -5.2817025092289941e-03 -5.9908711893823297e-01 0.0000000000000000e+00  -3.2949685994657345e-03 -5.9865409885630694e-01 0.0000000000000000e+00  -1.6035065053199970e-03 -5.9848376438966644e-01 0.0000000000000000e+00  -3.4147799216747887e-05 -5.9843590072914810e-01 0.0000000000000000e+00  1.5324192036991918e-03 -5.9847778678879648e-01 0.0000000000000000e+00  3.2135429918431191e-03 -5.9863957201846563e-01 0.0000000000000000e+00  5.1763277543332709e-03 -5.9906158875365823e-01 0.0000000000000000e+00  7.6774461590724220e-03 -6.0021761577168053e-01 0.0000000000000000e+00  1.0637082385531490e-02 -6.0326186668529036e-01 0.0000000000000000e+00  -1.2929755992554900e-02 -9.0254931366777436e-01 0.0000000000000000e+00  -1.0066075280392502e-02 -9.0046497467412112e-01 0.0000000000000000e+00  -7.1805116807136726e-03 -8.9921365915344131e-01 0.0000000000000000e+00  -4.5893052347615489e-03 -8.9859641456900385e-01 0.0000000000000000e+00  -2.2538805409904679e-03 -8.9831674764108860e-01 0.0000000000000000e+00  -4.6273703055791125e-05 -8.9823400671523979e-01 0.0000000000000000e+00  2.1592772058024673e-03 -8.9830942772240308e-01 0.0000000000000000e+00  4.4884031950015524e-03 -8.9858101837502447e-01 0.0000000000000000e+00  7.0713262901555517e-03 -8.9919019062371897e-01 0.0000000000000000e+00  9.9650806852145217e-03 -9.0043092637810074e-01 0.0000000000000000e+00  1.2828391169363218e-02 -9.0251142156357422e-01 0.0000000000000000e+00  -1.4133920616332465e-02 -1.2017865836256638e+00 0.0000000000000000e+00  -1.1327715447698306e-02 -1.2004734646337154e+00 0.0000000000000000e+00  -8.3546007997739365e-03 -1.1994051097306793e+00 0.0000000000000000e+00  -5.4650474980613836e-03 -1.1987464718970089e+00 0.0000000000000000e+00  -2.7165629678009523e-03 -1.1984068275286259e+00 0.0000000000000000e+00  -5.5462872407689782e-05 -1.1983010498193103e+00 0.0000000000000000e+00  2.6047087002081131e-03 -1.1984000227821405e+00 0.0000000000000000e+00  5.3511605177001143e-03 -1.1987326358871981e+00 0.0000000000000000e+00  8.2411070484913231e-03 -1.1993831957566208e+00 0.0000000000000000e+00  1.1222794465079554e-02 -1.2004406681906823e+00 0.0000000000000000e+00  1.4020123674693460e-02 -1.2017453387552268e+00 0.0000000000000000e+00  -1.4753730899479522e-02 -1.5011592894820578e+00 0.0000000000000000e+00  -1.1964215811059421e-02 -1.5003810794528289e+00 0.0000000000000000e+00  -8.9888539316755559e-03 -1.4995708002370896e+00 0.0000000000000000e+00  -5.9761529589885329e-03 -1.4989786074824185e+00 0.0000000000000000e+00  -3.0010436373738782e-03 -1.4986391986870569e+00 0.0000000000000000e+00  -6.2548821211973611e-05 -1.4985285388830858e+00 0.0000000000000000e+00  2.8758285595311640e-03 -1.4986333568147818e+00 0.0000000000000000e+00  5.8512518419851223e-03 -1.4989664817331287e+00 0.0000000000000000e+00  8.8666842441491815e-03 -1.4995509590730391e+00 0.0000000000000000e+00  1.1847232491149030e-02 -1.5003520835514241e+00 0.0000000000000000e+00  1.4628774799697259e-02 -1.5011196496542867e+00 0.0000000000000000e+00  -1.5031958435313157e-02 -1.8006946859126063e+00 0.0000000000000000e+00  -1.2236265981596189e-02 -1.8002661050306432e+00 0.0000000000000000e+00  -9.2788323969556219e-03 -1.7996972783366003e+00 0.0000000000000000e+00  -6.2297360508964247e-03 -1.7992230281079513e+00 0.0000000000000000e+00  -3.1507211123313855e-03 -1.7989280880618661e+00 0.0000000000000000e+00  -6.8156067970740150e-05 -1.7988282439619792e+00 0.0000000000000000e+00  3.0146573959073182e-03 -1.7989232351003095e+00 0.0000000000000000e+00  6.0947731551289500e-03 -1.7992127818505550e+00 0.0000000000000000e+00  9.1465165279054211e-03 -1.7996805042793302e+00 0.0000000000000000e+00  1.2106896196335341e-02 -1.8002416568909390e+00 0.0000000000000000e+00  1.4897386683862191e-02 -1.8006600804751005e+00 0.0000000000000000e+00  -1.5123173830059943e-02 -2.1003801008436276e+00 0.0000000000000000e+00  -1.2313428198585960e-02 -2.1001654662718123e+00 0.0000000000000000e+00  -9.3751644685395666e-03 -2.0997937027247620e+00 0.0000000000000000e+00  -6.3278330454895554e-03 -2.0994497810150414e+00 0.0000000000000000e+00  -3.2145268529451838e-03 -2.0992224900923735e+00 0.0000000000000000e+00  -7.2570916484333159e-05 -2.0991432995783486e+00 0.0000000000000000e+00  3.0697199916158509e-03 -2.0992186861000195e+00 0.0000000000000000e+00  6.1841618045209547e-03 -2.0994417206034899e+00 0.0000000000000000e+00  9.2335228229994994e-03 -2.0997805944962722e+00 0.0000000000000000e+00  1.2173668579527445e-02 -2.1001462328358507e+00 0.0000000000000000e+00  1.4980851893784350e-02 -2.1003526953905722e+00 0.0000000000000000e+00  -1.5127804034170855e-02 -2.4001850924356178e+00 0.0000000000000000e+00  -1.2304262537676683e-02 -2.4000906274830056e+00 0.0000000000000000e+00  -9.3810303011884252e-03 -2.3998711355878308e+00 0.0000000000000000e+00  -6.3478908711650534e-03 -2.3996513194430102e+00 0.0000000000000000e+00  -3.2327758302321515e-03 -2.3994997290780433e+00 0.0000000000000000e+00  -7.5834942732802893e-05 -2.3994458336038185e+00 0.0000000000000000e+00  3.0814112113551292e-03 -2.3994970927453423e+00 0.0000000000000000e+00  6.1974718293090585e-03 -2.3996457285615453e+00 0.0000000000000000e+00  9.2321300208027153e-03 -2.3998620529112791e+00 0.0000000000000000e+00  1.2156864265327329e-02 -2.4000772168341897e+00 0.0000000000000000e+00  1.4979998552969857e-02 -2.4001663819335741e+00 0.0000000000000000e+00  -1.5107835657797745e-02 -2.7000714168674698e+00 0.0000000000000000e+00  -1.2274980452596125e-02 -2.7000388876938382e+00 0.0000000000000000e+00  -9.3612579892798798e-03 -2.6999379907559606e+00 0.0000000000000000e+00  -6.3411195892771654e-03 -2.6998316336621229e+00 0.0000000000000000e+00  -3.2333044567306899e-03 -2.6997563949406964e+00 0.0000000000000000e+00  -7.7908169986927190e-05 -2.6997293254013837e+00 0.0000000000000000e+00  3.0777393298353256e-03 -2.6997550400699879e+00 0.0000000000000000e+00  6.1863256327124765e-03 -2.6998287148201272e+00 0.0000000000000000e+00  9.2077473799700958e-03 -2.6999331579017047e+00 0.0000000000000000e+00  1.2123124055114594e-02 -2.7000316377779083e+00 0.0000000000000000e+00  1.4957411257548838e-02 -2.7000623949115146e+00 0.0000000000000000e+00  -1.5098812095138242e-02 -3.0000000000000000e+00 0.0000000000000000e+00  -1.2262556798965079e-02 -3.0000000000000000e+00 0.0000000000000000e+00  -9.3511107277468499e-03 -3.0000000000000000e+00 0.0000000000000000e+00  -6.3353533521726436e-03 -3.0000000000000000e+00 0.0000000000000000e+00  -3.2309794370709273e-03 -3.0000000000000000e+00 0.0000000000000000e+00  -7.7698277225191751e-05 -3.0000000000000000e+00 0.0000000000000000e+00  3.0756246436622753e-03 -3.0000000000000000e+00 0.0000000000000000e+00  6.1800492956577248e-03 -3.0000000000000000e+00 0.0000000000000000e+00  9.1956936083698992e-03 -3.0000000000000000e+00 0.0000000000000000e+00  1.2106793200199280e-02 -3.0000000000000000e+00 0.0000000000000000e+00  1.4943532767327227e-02 -3.0000000000000000e+00 0.0000000000000000e+00  </DataArray> 
</PointData> 
</Piece>
</UnstructuredGrid>
</VTKFile>