<?xml version="1.0"?>
<VTKFile type="UnstructuredGrid"  version="0.1"  >
<UnstructuredGrid>
<Piece  NumberOfPoints="1331" NumberOfCells="6000">
<Points>
<DataArray  type="Float64"  NumberOfComponents="3"  format="ascii">0 0 0  1 0 0  2 0 0  3 0 0  4 0 0  5 0 0  6 0 0  7 0 0  8 0 0  9 0 0  10 0 0  0 0.5 0  1 0.5 0  2 0.5 0  3 0.5 0  4 0.5 0  5 0.5 0  6 0.5 0  7 0.5 0  8 0.5 0  9 0.5 0  10 0.5 0  0 1 0  1 1 0  2 1 0  3 1 0  4 1 0  5 1 0  6 1 0  7 1 0  8 1 0  9 1 0  10 1 0  0 1.5 0  1 1.5 0  2 1.5 0  3 1.5 0  4 1.5 0  5 1.5 0  6 1.5 0  7 1.5 0  8 1.5 0  9 1.5 0  10 1.5 0  0 2 0  1 2 0  2 2 0  3 2 0  4 2 0  5 2 0  6 2 0  7 2 0  8 2 0  9 2 0  10 2 0  0 2.5 0  1 2.5 0  2 2.5 0  3 2.5 0  4 2.5 0  5 2.5 0  6 2.5 0  7 2.5 0  8 2.5 0  9 2.5 0  10 2.5 0  0 3 0  1 3 0  2 3 0  3 3 0  4 3 0  5 3 0  6 3 0  7 3 0  8 3 0  9 3 0  10 3 0  0 3.5 0  1 3.5 0  2 3.5 0  3 3.5 0  4 3.5 0  5 3.5 0  6 3.5 0  7 3.5 0  8 3.5 0  9 3.5 0  10 3.5 0  0 4 0  1 4 0  2 4 0  3 4 0  4 4 0  5 4 0  6 4 0  7 4 0  8 4 0  9 4 0  10 4 0  0 4.5 0  1 4.5 0  2 4.5 0  3 4.5 0  4 4.5 0  5 4.5 0  6 4.5 0  7 4.5 0  8 4.5 0  9 4.5 0  10 4.5 0  0 5 0  1 5 0  2 5 0  3 5 0  4 5 0  5 5 0  6 5 0  7 5 0  8 5 0  9 5 0  10 5 0  0 0 0.1  1 0 0.1  2 0 0.1  3 0 0.1  4 0 0.1  5 0 0.1  6 0 0.1  7 0 0.1  8 0 0.1  9 0 0.1  10 0 0.1  0 0.5 0.1  1 0.5 0.1  2 0.5 0.1  3 0.5 0.1  4 0.5 0.1  5 0.5 0.1  6 0.5 0.1  7 0.5 0.1  8 0.5 0.1  9 0.5 0.1  10 0.5 0.1  0 1 0.1  1 1 0.1  2 1 0.1  3 1 0.1  4 1 0.1  5 1 0.1  6 1 0.1  7 1 0.1  8 1 0.1  9 1 0.1  10 1 0.1  0 1.5 0.1  1 1.5 0.1  2 1.5 0.1  3 1.5 0.1  4 1.5 0.1  5 1.5 0.1  6 1.5 0.1  7 1.5 0.1  8 1.5 0.1  9 1.5 0.1  10 1.5 0.1  0 2 0.1  1 2 0.1  2 2 0.1  3 2 0.1  4 2 0.1  5 2 0.1  6 2 0.1  7 2 0.1  8 2 0.1  9 2 0.1  10 2 0.1  0 2.5 0.1  1 2.5 0.1  2 2.5 0.1  3 2.5 0.1  4 2.5 0.1  5 2.5 0.1  6 2.5 0.1  7 2.5 0.1  8 2.5 0.1  9 2.5 0.1  10 2.5 0.1  0 3 0.1  1 3 0.1  2 3 0.1  3 3 0.1  4 3 0.1  5 3 0.1  6 3 0.1  7 3 0.1  8 3 0.1  9 3 0.1  10 3 0.1  0 3.5 0.1  1 3.5 0.1  2 3.5 0.1  3 3.5 0.1  4 3.5 0.1  5 3.5 0.1  6 3.5 0.1  7 3.5 0.1  8 3.5 0.1  9 3.5 0.1  10 3.5 0.1  0 4 0.1  1 4 0.1  2 4 0.1  3 4 0.1  4 4 0.1  5 4 0.1  6 4 0.1  7 4 0.1  8 4 0.1  9 4 0.1  10 4 0.1  0 4.5 0.1  1 4.5 0.1  2 4.5 0.1  3 4.5 0.1  4 4.5 0.1  5 4.5 0.1  6 4.5 0.1  7 4.5 0.1  8 4.5 0.1  9 4.5 0.1  10 4.5 0.1  0 5 0.1  1 5 0.1  2 5 0.1  3 5 0.1  4 5 0.1  5 5 0.1  6 5 0.1  7 5 0.1  8 5 0.1  9 5 0.1  10 5 0.1  0 0 0.2  1 0 0.2  2 0 0.2  3 0 0.2  4 0 0.2  5 0 0.2  6 0 0.2  7 0 0.2  8 0 0.2  9 0 0.2  10 0 0.2  0 0.5 0.2  1 0.5 0.2  2 0.5 0.2  3 0.5 0.2  4 0.5 0.2  5 0.5 0.2  6 0.5 0.2  7 0.5 0.2  8 0.5 0.2  9 0.5 0.2  10 0.5 0.2  0 1 0.2  1 1 0.2  2 1 0.2  3 1 0.2  4 1 0.2  5 1 0.2  6 1 0.2  7 1 0.2  8 1 0.2  9 1 0.2  10 1 0.2  0 1.5 0.2  1 1.5 0.2  2 1.5 0.2  3 1.5 0.2  4 1.5 0.2  5 1.5 0.2  6 1.5 0.2  7 1.5 0.2  8 1.5 0.2  9 1.5 0.2  10 1.5 0.2  0 2 0.2  1 2 0.2  2 2 0.2  3 2 0.2  4 2 0.2  5 2 0.2  6 2 0.2  7 2 0.2  8 2 0.2  9 2 0.2  10 2 0.2  0 2.5 0.2  1 2.5 0.2  2 2.5 0.2  3 2.5 0.2  4 2.5 0.2  5 2.5 0.2  6 2.5 0.2  7 2.5 0.2  8 2.5 0.2  9 2.5 0.2  10 2.5 0.2  0 3 0.2  1 3 0.2  2 3 0.2  3 3 0.2  4 3 0.2  5 3 0.2  6 3 0.2  7 3 0.2  8 3 0.2  9 3 0.2  10 3 0.2  0 3.5 0.2  1 3.5 0.2  2 3.5 0.2  3 3.5 0.2  4 3.5 0.2  5 3.5 0.2  6 3.5 0.2  7 3.5 0.2  8 3.5 0.2  9 3.5 0.2  10 3.5 0.2  0 4 0.2  1 4 0.2  2 4 0.2  3 4 0.2  4 4 0.2  5 4 0.2  6 4 0.2  7 4 0.2  8 4 0.2  9 4 0.2  10 4 0.2  0 4.5 0.2  1 4.5 0.2  2 4.5 0.2  3 4.5 0.2  4 4.5 0.2  5 4.5 0.2  6 4.5 0.2  7 4.5 0.2  8 4.5 0.2  9 4.5 0.2  10 4.5 0.2  0 5 0.2  1 5 0.2  2 5 0.2  3 5 0.2  4 5 0.2  5 5 0.2  6 5 0.2  7 5 0.2  8 5 0.2  9 5 0.2  10 5 0.2  0 0 0.3  1 0 0.3  2 0 0.3  3 0 0.3  4 0 0.3  5 0 0.3  6 0 0.3  7 0 0.3  8 0 0.3  9 0 0.3  10 0 0.3  0 0.5 0.3  1 0.5 0.3  2 0.5 0.3  3 0.5 0.3  4 0.5 0.3  5 0.5 0.3  6 0.5 0.3  7 0.5 0.3  8 0.5 0.3  9 0.5 0.3  10 0.5 0.3  0 1 0.3  1 1 0.3  2 1 0.3  3 1 0.3  4 1 0.3  5 1 0.3  6 1 0.3  7 1 0.3  8 1 0.3  9 1 0.3  10 1 0.3  0 1.5 0.3  1 1.5 0.3  2 1.5 0.3  3 1.5 0.3  4 1.5 0.3  5 1.5 0.3  6 1.5 0.3  7 1.5 0.3  8 1.5 0.3  9 1.5 0.3  10 1.5 0.3  0 2 0.3  1 2 0.3  2 2 0.3  3 2 0.3  4 2 0.3  5 2 0.3  6 2 0.3  7 2 0.3  8 2 0.3  9 2 0.3  10 2 0.3  0 2.5 0.3  1 2.5 0.3  2 2.5 0.3  3 2.5 0.3  4 2.5 0.3  5 2.5 0.3  6 2.5 0.3  7 2.5 0.3  8 2.5 0.3  9 2.5 0.3  10 2.5 0.3  0 3 0.3  1 3 0.3  2 3 0.3  3 3 0.3  4 3 0.3  5 3 0.3  6 3 0.3  7 3 0.3  8 3 0.3  9 3 0.3  10 3 0.3  0 3.5 0.3  1 3.5 0.3  2 3.5 0.3  3 3.5 0.3  4 3.5 0.3  5 3.5 0.3  6 3.5 0.3  7 3.5 0.3  8 3.5 0.3  9 3.5 0.3  10 3.5 0.3  0 4 0.3  1 4 0.3  2 4 0.3  3 4 0.3  4 4 0.3  5 4 0.3  6 4 0.3  7 4 0.3  8 4 0.3  9 4 0.3  10 4 0.3  0 4.5 0.3  1 4.5 0.3  2 4.5 0.3  3 4.5 0.3  4 4.5 0.3  5 4.5 0.3  6 4.5 0.3  7 4.5 0.3  8 4.5 0.3  9 4.5 0.3  10 4.5 0.3  0 5 0.3  1 5 0.3  2 5 0.3  3 5 0.3  4 5 0.3  5 5 0.3  6 5 0.3  7 5 0.3  8 5 0.3  9 5 0.3  10 5 0.3  0 0 0.4  1 0 0.4  2 0 0.4  3 0 0.4  4 0 0.4  5 0 0.4  6 0 0.4  7 0 0.4  8 0 0.4  9 0 0.4  10 0 0.4  0 0.5 0.4  1 0.5 0.4  2 0.5 0.4  3 0.5 0.4  4 0.5 0.4  5 0.5 0.4  6 0.5 0.4  7 0.5 0.4  8 0.5 0.4  9 0.5 0.4  10 0.5 0.4  0 1 0.4  1 1 0.4  2 1 0.4  3 1 0.4  4 1 0.4  5 1 0.4  6 1 0.4  7 1 0.4  8 1 0.4  9 1 0.4  10 1 0.4  0 1.5 0.4  1 1.5 0.4  2 1.5 0.4  3 1.5 0.4  4 1.5 0.4  5 1.5 0.4  6 1.5 0.4  7 1.5 0.4  8 1.5 0.4  9 1.5 0.4  10 1.5 0.4  0 2 0.4  1 2 0.4  2 2 0.4  3 2 0.4  4 2 0.4  5 2 0.4  6 2 0.4  7 2 0.4  8 2 0.4  9 2 0.4  10 2 0.4  0 2.5 0.4  1 2.5 0.4  2 2.5 0.4  3 2.5 0.4  4 2.5 0.4  5 2.5 0.4  6 2.5 0.4  7 2.5 0.4  8 2.5 0.4  9 2.5 0.4  10 2.5 0.4  0 3 0.4  1 3 0.4  2 3 0.4  3 3 0.4  4 3 0.4  5 3 0.4  6 3 0.4  7 3 0.4  8 3 0.4  9 3 0.4  10 3 0.4  0 3.5 0.4  1 3.5 0.4  2 3.5 0.4  3 3.5 0.4  4 3.5 0.4  5 3.5 0.4  6 3.5 0.4  7 3.5 0.4  8 3.5 0.4  9 3.5 0.4  10 3.5 0.4  0 4 0.4  1 4 0.4  2 4 0.4  3 4 0.4  4 4 0.4  5 4 0.4  6 4 0.4  7 4 0.4  8 4 0.4  9 4 0.4  10 4 0.4  0 4.5 0.4  1 4.5 0.4  2 4.5 0.4  3 4.5 0.4  4 4.5 0.4  5 4.5 0.4  6 4.5 0.4  7 4.5 0.4  8 4.5 0.4  9 4.5 0.4  10 4.5 0.4  0 5 0.4  1 5 0.4  2 5 0.4  3 5 0.4  4 5 0.4  5 5 0.4  6 5 0.4  7 5 0.4  8 5 0.4  9 5 0.4  10 5 0.4  0 0 0.5  1 0 0.5  2 0 0.5  3 0 0.5  4 0 0.5  5 0 0.5  6 0 0.5  7 0 0.5  8 0 0.5  9 0 0.5  10 0 0.5  0 0.5 0.5  1 0.5 0.5  2 0.5 0.5  3 0.5 0.5  4 0.5 0.5  5 0.5 0.5  6 0.5 0.5  7 0.5 0.5  8 0.5 0.5  9 0.5 0.5  10 0.5 0.5  0 1 0.5  1 1 0.5  2 1 0.5  3 1 0.5  4 1 0.5  5 1 0.5  6 1 0.5  7 1 0.5  8 1 0.5  9 1 0.5  10 1 0.5  0 1.5 0.5  1 1.5 0.5  2 1.5 0.5  3 1.5 0.5  4 1.5 0.5  5 1.5 0.5  6 1.5 0.5  7 1.5 0.5  8 1.5 0.5  9 1.5 0.5  10 1.5 0.5  0 2 0.5  1 2 0.5  2 2 0.5  3 2 0.5  4 2 0.5  5 2 0.5  6 2 0.5  7 2 0.5  8 2 0.5  9 2 0.5  10 2 0.5  0 2.5 0.5  1 2.5 0.5  2 2.5 0.5  3 2.5 0.5  4 2.5 0.5  5 2.5 0.5  6 2.5 0.5  7 2.5 0.5  8 2.5 0.5  9 2.5 0.5  10 2.5 0.5  0 3 0.5  1 3 0.5  2 3 0.5  3 3 0.5  4 3 0.5  5 3 0.5  6 3 0.5  7 3 0.5  8 3 0.5  9 3 0.5  10 3 0.5  0 3.5 0.5  1 3.5 0.5  2 3.5 0.5  3 3.5 0.5  4 3.5 0.5  5 3.5 0.5  6 3.5 0.5  7 3.5 0.5  8 3.5 0.5  9 3.5 0.5  10 3.5 0.5  0 4 0.5  1 4 0.5  2 4 0.5  3 4 0.5  4 4 0.5  5 4 0.5  6 4 0.5  7 4 0.5  8 4 0.5  9 4 0.5  10 4 0.5  0 4.5 0.5  1 4.5 0.5  2 4.5 0.5  3 4.5 0.5  4 4.5 0.5  5 4.5 0.5  6 4.5 0.5  7 4.5 0.5  8 4.5 0.5  9 4.5 0.5  10 4.5 0.5  0 5 0.5  1 5 0.5  2 5 0.5  3 5 0.5  4 5 0.5  5 5 0.5  6 5 0.5  7 5 0.5  8 5 0.5  9 5 0.5  10 5 0.5  0 0 0.6  1 0 0.6  2 0 0.6  3 0 0.6  4 0 0.6  5 0 0.6  6 0 0.6  7 0 0.6  8 0 0.6  9 0 0.6  10 0 0.6  0 0.5 0.6  1 0.5 0.6  2 0.5 0.6  3 0.5 0.6  4 0.5 0.6  5 0.5 0.6  6 0.5 0.6  7 0.5 0.6  8 0.5 0.6  9 0.5 0.6  10 0.5 0.6  0 1 0.6  1 1 0.6  2 1 0.6  3 1 0.6  4 1 0.6  5 1 0.6  6 1 0.6  7 1 0.6  8 1 0.6  9 1 0.6  10 1 0.6  0 1.5 0.6  1 1.5 0.6  2 1.5 0.6  3 1.5 0.6  4 1.5 0.6  5 1.5 0.6  6 1.5 0.6  7 1.5 0.6  8 1.5 0.6  9 1.5 0.6  10 1.5 0.6  0 2 0.6  1 2 0.6  2 2 0.6  3 2 0.6  4 2 0.6  5 2 0.6  6 2 0.6  7 2 0.6  8 2 0.6  9 2 0.6  10 2 0.6  0 2.5 0.6  1 2.5 0.6  2 2.5 0.6  3 2.5 0.6  4 2.5 0.6  5 2.5 0.6  6 2.5 0.6  7 2.5 0.6  8 2.5 0.6  9 2.5 0.6  10 2.5 0.6  0 3 0.6  1 3 0.6  2 3 0.6  3 3 0.6  4 3 0.6  5 3 0.6  6 3 0.6  7 3 0.6  8 3 0.6  9 3 0.6  10 3 0.6  0 3.5 0.6  1 3.5 0.6  2 3.5 0.6  3 3.5 0.6  4 3.5 0.6  5 3.5 0.6  6 3.5 0.6  7 3.5 0.6  8 3.5 0.6  9 3.5 0.6  10 3.5 0.6  0 4 0.6  1 4 0.6  2 4 0.6  3 4 0.6  4 4 0.6  5 4 0.6  6 4 0.6  7 4 0.6  8 4 0.6  9 4 0.6  10 4 0.6  0 4.5 0.6  1 4.5 0.6  2 4.5 0.6  3 4.5 0.6  4 4.5 0.6  5 4.5 0.6  6 4.5 0.6  7 4.5 0.6  8 4.5 0.6  9 4.5 0.6  10 4.5 0.6  0 5 0.6  1 5 0.6  2 5 0.6  3 5 0.6  4 5 0.6  5 5 0.6  6 5 0.6  7 5 0.6  8 5 0.6  9 5 0.6  10 5 0.6  0 0 0.7  1 0 0.7  2 0 0.7  3 0 0.7  4 0 0.7  5 0 0.7  6 0 0.7  7 0 0.7  8 0 0.7  9 0 0.7  10 0 0.7  0 0.5 0.7  1 0.5 0.7  2 0.5 0.7  3 0.5 0.7  4 0.5 0.7  5 0.5 0.7  6 0.5 0.7  7 0.5 0.7  8 0.5 0.7  9 0.5 0.7  10 0.5 0.7  0 1 0.7  1 1 0.7  2 1 0.7  3 1 0.7  4 1 0.7  5 1 0.7  6 1 0.7  7 1 0.7  8 1 0.7  9 1 0.7  10 1 0.7  0 1.5 0.7  1 1.5 0.7  2 1.5 0.7  3 1.5 0.7  4 1.5 0.7  5 1.5 0.7  6 1.5 0.7  7 1.5 0.7  8 1.5 0.7  9 1.5 0.7  10 1.5 0.7  0 2 0.7  1 2 0.7  2 2 0.7  3 2 0.7  4 2 0.7  5 2 0.7  6 2 0.7  7 2 0.7  8 2 0.7  9 2 0.7  10 2 0.7  0 2.5 0.7  1 2.5 0.7  2 2.5 0.7  3 2.5 0.7  4 2.5 0.7  5 2.5 0.7  6 2.5 0.7  7 2.5 0.7  8 2.5 0.7  9 2.5 0.7  10 2.5 0.7  0 3 0.7  1 3 0.7  2 3 0.7  3 3 0.7  4 3 0.7  5 3 0.7  6 3 0.7  7 3 0.7  8 3 0.7  9 3 0.7  10 3 0.7  0 3.5 0.7  1 3.5 0.7  2 3.5 0.7  3 3.5 0.7  4 3.5 0.7  5 3.5 0.7  6 3.5 0.7  7 3.5 0.7  8 3.5 0.7  9 3.5 0.7  10 3.5 0.7  0 4 0.7  1 4 0.7  2 4 0.7  3 4 0.7  4 4 0.7  5 4 0.7  6 4 0.7  7 4 0.7  8 4 0.7  9 4 0.7  10 4 0.7  0 4.5 0.7  1 4.5 0.7  2 4.5 0.7  3 4.5 0.7  4 4.5 0.7  5 4.5 0.7  6 4.5 0.7  7 4.5 0.7  8 4.5 0.7  9 4.5 0.7  10 4.5 0.7  0 5 0.7  1 5 0.7  2 5 0.7  3 5 0.7  4 5 0.7  5 5 0.7  6 5 0.7  7 5 0.7  8 5 0.7  9 5 0.7  10 5 0.7  0 0 0.8  1 0 0.8  2 0 0.8  3 0 0.8  4 0 0.8  5 0 0.8  6 0 0.8  7 0 0.8  8 0 0.8  9 0 0.8  10 0 0.8  0 0.5 0.8  1 0.5 0.8  2 0.5 0.8  3 0.5 0.8  4 0.5 0.8  5 0.5 0.8  6 0.5 0.8  7 0.5 0.8  8 0.5 0.8  9 0.5 0.8  10 0.5 0.8  0 1 0.8  1 1 0.8  2 1 0.8  3 1 0.8  4 1 0.8  5 1 0.8  6 1 0.8  7 1 0.8  8 1 0.8  9 1 0.8  10 1 0.8  0 1.5 0.8  1 1.5 0.8
[...]
<PointData  Vectors="f_15"> 
<DataArray  type="Float64"  Name="f_15"  NumberOfComponents="3" format="ascii">0.0000000000000000e+00 0.0000000000000000e+00 0.0000000000000000e+00  0.0000000000000000e+00 0.0000000000000000e+00 0.0000000000000000e+00  0.0000000000000000e+00 0.0000000000000000e+00 0.0000000000000000e+00  0.0000000000000000e+00 0.0000000000000000e+00 0.0000000000000000e+00  0.0000000000000000e+00 0.0000000000000000e+00 0.0000000000000000e+00  0.0000000000000000e+00 0.0000000000000000e+00 0.0000000000000000e+00  0.0000000000000000e+00 0.0000000000000000e+00 0.0000000000000000e+00  0.0000000000000000e+00 0.0000000000000000e+00 0.0000000000000000e+00  0.0000000000000000e+00 0.0000000000000000e+00 0.0000000000000000e+00  0.0000000000000000e+00 0.0000000000000000e+00 0.0000000000000000e+00  0.0000000000000000e+00 0.0000000000000000e+00 0.0000000000000000e+00  0.0000000000000000e+00 0.0000000000000000e+00 0.0000000000000000e+00  0.0000000000000000e+00 0.0000000000000000e+00 0.0000000000000000e+00  0.0000000000000000e+00 0.0000000000000000e+00 0.0000000000000000e+00  0.0000000000000000e+00 0.0000000000000000e+00 0.0000000000000000e+00  0.0000000000000000e+00 0.0000000000000000e+00 0.0000000000000000e+00  0.0000000000000000e+00 0.0000000000000000e+00 0.0000000000000000e+00  0.0000000000000000e+00 0.0000000000000000e+00 0.0000000000000000e+00  0.0000000000000000e+00 0.0000000000000000e+00 0.0000000000000000e+00  0.0000000000000000e+00 0.0000000000000000e+00 0.0000000000000000e+00  0.0000000000000000e+00 0.0000000000000000e+00 0.0000000000000000e+00  0.0000000000000000e+00 0.0000000000000000e+00 0.0000000000000000e+00  0.0000000000000000e+00 0.0000000000000000e+00 0.0000000000000000e+00  0.0000000000000000e+00 0.0000000000000000e+00 0.0000000000000000e+00  0.0000000000000000e+00 0.0000000000000000e+00 0.0000000000000000e+00  0.0000000000000000e+00 0.0000000000000000e+00 0.0000000000000000e+00  0.0000000000000000e+00 0.0000000000000000e+00 0.0000000000000000e+00  0.0000000000000000e+00 0.0000000000000000e+00 0.0000000000000000e+00  0.0000000000000000e+00 0.0000000000000000e+00 0.0000000000000000e+00  0.0000000000000000e+00 0.0000000000000000e+00 0.0000000000000000e+00  0.0000000000000000e+00 0.0000000000000000e+00 0.0000000000000000e+00  0.0000000000000000e+00 0.0000000000000000e+00 0.0000000000000000e+00  0.0000000000000000e+00 0.0000000000000000e+00 0.0000000000000000e+00  0.0000000000000000e+00 0.0000000000000000e+00 0.0000000000000000e+00  0.0000000000000000e+00 0.0000000000000000e+00 0.0000000000000000e+00  0.0000000000000000e+00 0.0000000000000000e+00 0.0000000000000000e+00  0.0000000000000000e+00 0.0000000000000000e+00 0.0000000000000000e+00  0.0000000000000000e+00 0.0000000000000000e+00 0.0000000000000000e+00  0.0000000000000000e+00 0.0000000000000000e+00 0.0000000000000000e+00  0.0000000000000000e+00 0.0000000000000000e+00 0.0000000000000000e+00  0.0000000000000000e+00 0.0000000000000000e+00 0.0000000000000000e+00  0.0000000000000000e+00 0.0000000000000000e+00 0.0000000000000000e+00  0.0000000000000000e+00 0.0000000000000000e+00 0.0000000000000000e+00  0.0000000000000000e+00 0.0000000000000000e+00 0.0000000000000000e+00  0.0000000000000000e+00 0.0000000000000000e+00 0.0000000000000000e+00  0.0000000000000000e+00 0.0000000000000000e+00 0.0000000000000000e+00  0.0000000000000000e+00 0.0000000000000000e+00 0.0000000000000000e+00  0.0000000000000000e+00 0.0000000000000000e+00 0.0000000000000000e+00  0.0000000000000000e+00 0.0000000000000000e+00 0.0000000000000000e+00  0.0000000000000000e+00 0.0000000000000000e+00 0.0000000000000000e+00  0.0000000000000000e+00 0.0000000000000000e+00 0.0000000000000000e+00  0.0000000000000000e+00 0.0000000000000000e+00 0.0000000000000000e+00  0.0000000000000000e+00 0.0000000000000000e+00 0.0000000000000000e+00  0.0000000000000000e+00 0.0000000000000000e+00 0.0000000000000000e+00  0.0000000000000000e+00 0.0000000000000000e+00 0.0000000000000000e+00  0.0000000000000000e+00 0.0000000000000000e+00 0.0000000000000000e+00  0.0000000000000000e+00 0.0000000000000000e+00 0.0000000000000000e+00  0.0000000000000000e+00 0.0000000000000000e+00 0.0000000000000000e+00  0.0000000000000000e+00 0.0000000000000000e+00 0.0000000000000000e+00  0.0000000000000000e+00 0.0000000000000000e+00 0.0000000000000000e+00  0.0000000000000000e+00 0.0000000000000000e+00 0.0000000000000000e+00  0.0000000000000000e+00 0.0000000000000000e+00 0.0000000000000000e+00  0.0000000000000000e+00 0.0000000000000000e+00 0.0000000000000000e+00  0.0000000000000000e+00 0.0000000000000000e+00 0.0000000000000000e+00  0.0000000000000000e+00 0.0000000000000000e+00 0.0000000000000000e+00  0.0000000000000000e+00 0.0000000000000000e+00 0.0000000000000000e+00  0.0000000000000000e+00 0.0000000000000000e+00 0.0000000000000000e+00  0.0000000000000000e+00 0.0000000000000000e+00 0.0000000000000000e+00  0.0000000000000000e+00 0.0000000000000000e+00 0.0000000000000000e+00  0.0000000000000000e+00 0.0000000000000000e+00 0.0000000000000000e+00  0.0000000000000000e+00 0.0000000000000000e+00 0.0000000000000000e+00  0.0000000000000000e+00 0.0000000000000000e+00 0.0000000000000000e+00  0.0000000000000000e+00 0.0000000000000000e+00 0.0000000000000000e+00  0.0000000000000000e+00 0.0000000000000000e+00 0.0000000000000000e+00  0.0000000000000000e+00 0.0000000000000000e+00 0.0000000000000000e+00  0.0000000000000000e+00 0.0000000000000000e+00 0.0000000000000000e+00  0.0000000000000000e+00 0.0000000000000000e+00 0.0000000000000000e+00  0.0000000000000000e+00 0.0000000000000000e+00 0.0000000000000000e+00  0.0000000000000000e+00 0.0000000000000000e+00 0.0000000000000000e+00  0.0000000000000000e+00 0.0000000000000000e+00 0.0000000000000000e+00  0.0000000000000000e+00 0.0000000000000000e+00 0.0000000000000000e+00  0.0000000000000000e+00 0.0000000000000000e+00 0.0000000000000000e+00  0.0000000000000000e+00 0.0000000000000000e+00 0.0000000000000000e+00  0.0000000000000000e+00 0.0000000000000000e+00 0.0000000000000000e+00  0.0000000000000000e+00 0.0000000000000000e+00 0.0000000000000000e+00  0.0000000000000000e+00 0.0000000000000000e+00 0.0000000000000000e+00  0.0000000000000000e+00 0.0000000000000000e+00 0.0000000000000000e+00  0.0000000000000000e+00 0.0000000000000000e+00 0.0000000000000000e+00  0.0000000000000000e+00 0.0000000000000000e+00 0.0000000000000000e+00  0.0000000000000000e+00 0.0000000000000000e+00 0.0000000000000000e+00  0.0000000000000000e+00 0.0000000000000000e+00 0.0000000000000000e+00  0.0000000000000000e+00 0.0000000000000000e+00 0.0000000000000000e+00  0.0000000000000000e+00 0.0000000000000000e+00 0.0000000000000000e+00  0.0000000000000000e+00 0.0000000000000000e+00 0.0000000000000000e+00  0.0000000000000000e+00 0.0000000000000000e+00 0.0000000000000000e+00  0.0000000000000000e+00 0.0000000000000000e+00 0.0000000000000000e+00  0.0000000000000000e+00 0.0000000000000000e+00 0.0000000000000000e+00  0.0000000000000000e+00 0.0000000000000000e+00 0.0000000000000000e+00  0.0000000000000000e+00 0.0000000000000000e+00 0.0000000000000000e+00  0.0000000000000000e+00 0.0000000000000000e+00 0.0000000000000000e+00  0.0000000000000000e+00 0.0000000000000000e+00 0.0000000000000000e+00  0.0000000000000000e+00 0.0000000000000000e+00 0.0000000000000000e+00  0.0000000000000000e+00 0.0000000000000000e+00 0.0000000000000000e+00  0.0000000000000000e+00 0.0000000000000000e+00 0.0000000000000000e+00  0.0000000000000000e+00 0.0000000000000000e+00 0.0000000000000000e+00  0.0000000000000000e+00 0.0000000000000000e+00 0.0000000000000000e+00  0.0000000000000000e+00 0.0000000000000000e+00 0.0000000000000000e+00  0.0000000000000000e+00 0.0000000000000000e+00 0.0000000000000000e+00  0.0000000000000000e+00 0.0000000000000000e+00 0.0000000000000000e+00  0.0000000000000000e+00 0.0000000000000000e+00 0.0000000000000000e+00  0.0000000000000000e+00 0.0000000000000000e+00 0.0000000000000000e+00  0.0000000000000000e+00 0.0000000000000000e+00 0.0000000000000000e+00  0.0000000000000000e+00 0.0000000000000000e+00 0.0000000000000000e+00  0.0000000000000000e+00 0.0000000000000000e+00 0.0000000000000000e+00  0.0000000000000000e+00 0.0000000000000000e+00 0.0000000000000000e+00  0.0000000000000000e+00 0.0000000000000000e+00 0.0000000000000000e+00  0.0000000000000000e+00 0.0000000000000000e+00 0.0000000000000000e+00  0.0000000000000000e+00 0.0000000000000000e+00 0.0000000000000000e+00  0.0000000000000000e+00 0.0000000000000000e+00 0.0000000000000000e+00  0.0000000000000000e+00 0.0000000000000000e+00 0.0000000000000000e+00  0.0000000000000000e+00 0.0000000000000000e+00 0.0000000000000000e+00  3.0037182536952591e-03 3.3823367870492449e-03 1.0810875659165949e-03  1.1454753956313126e-03 5.5163037423049625e-03 1.2368961987825541e-03  4.5150839504926092e-04 6.8657606960853242e-03 1.4456145225086898e-03  1.3480960859963684e-04 7.3701060523991245e-03 1.5261028029282847e-03  7.2115976837301567e-06 7.5560211660504976e-03 1.5555909014536478e-03  -5.7728216591651088e-05 7.6029591623051999e-03 1.5629335761168336e-03  -1.2020869868034298e-04 7.5537018942390529e-03 1.5547028344787904e-03  -2.4125850643332786e-04 7.3638246102755052e-03 1.5229262849813154e-03  -5.2591437715378568e-04 6.8707219874909508e-03 1.4487041866746578e-03  -1.1601657426834773e-03 5.4864140700887909e-03 1.1562669775857961e-03  -3.4386740419842460e-03 3.9457372005731227e-03 1.5064750480093779e-03  4.0125405112034418e-03 1.6311937985324443e-03 6.7144919176568923e-04  1.1782747516753372e-03 2.7020103515997249e-03 4.5877100418197846e-04  4.6875590007879953e-04 3.6528289748914981e-03 4.8735667180441645e-04  1.8749353971171494e-04 4.0185950598080932e-03 4.9208644210923397e-04  7.5288298038893086e-05 4.1572710812735761e-03 4.9444199923962689e-04  1.5986877732005678e-05 4.1939335710500661e-03 4.9475897385172852e-04  -4.2764101458259789e-05 4.1621490568241500e-03 4.9313704924275055e-04  -1.5960153769208795e-04 4.0338125302547805e-03 4.8870258771467818e-04  -4.3414059134152150e-04 3.6761478678629697e-03 4.8036972356188794e-04  -1.1383488101850293e-03 2.7274432336868641e-03 4.1595532027030222e-04  -3.8374851985870859e-03 1.7282763309467767e-03 5.3679459572157661e-04  5.1030534744630198e-03 1.0813324455554809e-03 7.3570703633379984e-04  1.6638445874508653e-03 1.6799510853048700e-03 5.5600444133771976e-04  6.5275519885950599e-04 2.4232832790073841e-03 6.3028600160746902e-04  2.4377448687020720e-04 2.7240395830912634e-03 6.5020930686234641e-04  8.2440813661105347e-05 2.8380438960915865e-03 6.5874156182010011e-04  -2.8961489451324655e-06 2.8676266758660648e-03 6.6078200818839468e-04  -8.6984492013222108e-05 2.8395990881452766e-03 6.5790677254679280e-04  -2.5214146971174286e-04 2.7275805180223081e-03 6.4778103692162878e-04  -6.4668628778513854e-04 2.4215245672828305e-03 6.2632241512889644e-04  -1.6388724148523736e-03 1.6951546536253552e-03 5.0977348599148071e-04  -4.9852738617799106e-03 1.1209022852097946e-03 6.0237639907124519e-04  5.8446748768023211e-03 6.3979138467753864e-04 7.8464531459094297e-04  2.0735800581111463e-03 9.3478513995017139e-04 5.9909499378302809e-04  8.3836294629722964e-04 1.4052848784970853e-03 6.9525609207522266e-04  3.1858081394241900e-04 1.6094133152854155e-03 7.2205769880339873e-04  1.1038955599992178e-04 1.6879986997307694e-03 7.3331281393716145e-04  -5.9608343014021691e-08 1.7078728502124185e-03 7.3584442056376799e-04  -1.0898054428982136e-04 1.6868592274934555e-03 7.3191747564434358e-04  -3.2171963485537691e-04 1.6055208276610517e-03 7.1829609695067535e-04  -8.2574881588175556e-04 1.3922986101020626e-03 6.8827504210887305e-04  -2.0355722879018311e-03 9.3450599888407970e-04 5.4564038141158061e-04  -5.7267335240271458e-03 6.4496164922109777e-04 6.3656101719783550e-04  6.2487817641600522e-03 2.9078584993352238e-04 8.1212938597306577e-04  2.3092859313504905e-03 4.2008732774870240e-04 6.1846653935754845e-04  9.5520335569112852e-04 6.4730890494887590e-04 7.2605331833353623e-04  3.6639852211832415e-04 7.5155373073037342e-04 7.5579206473672914e-04  1.2733881752014525e-04 7.9152525122639609e-04 7.6829370190622723e-04  1.1080664460595284e-07 8.0125957472909149e-04 7.7099280409004007e-04  -1.2541219839246379e-04 7.8948948918822724e-04 7.6638331317602703e-04  -3.6936250880944491e-04 7.4585202738855223e-04 7.5062436405301471e-04  -9.4102636262274582e-04 6.3717045158833807e-04 7.1554110074523115e-04  -2.2693591080856557e-03 4.1995818925843039e-04 5.5937202746735601e-04  -6.1171944479597919e-03 3.1004994098536912e-04 6.4887279533275050e-04  6.3782796057676944e-03 -7.6434570006531264e-06 8.2104149920281244e-04  2.3847013141962341e-03 -5.6200152762952443e-08 6.2417003154788915e-04  9.9498561934113338e-04 2.1011749137859105e-06 7.3586437062097838e-04  3.8263787214905313e-04 1.5074500420069482e-06 7.6646181147568414e-04  1.3311412804059217e-04 -1.8720176129208488e-07 7.7939749166194773e-04  1.9708828547791278e-08 -1.3369217965439677e-06 7.8213840049984123e-04  -1.3131813431543627e-04 -2.7497380535466323e-06 7.7728485663848155e-04  -3.8593112672126884e-04 -5.1764237637916370e-06 7.6076711493364190e-04  -9.8018380298297366e-04 -6.8403980437466184e-06 7.2385934783389795e-04  -2.3466196872261114e-03 -5.5804582231405968e-07 5.6364312419068439e-04  -6.2401754198019178e-03 1.7485327539608354e-05 6.5329187589521700e-04  6.2567144494201123e-03 -3.0345705421864534e-04 8.1315320253447655e-04  2.3087322728895928e-03 -4.2160974810903336e-04 6.1726030816584940e-04  9.5619439421699179e-04 -6.4318019754622052e-04 7.2455160067410218e-04  3.6606346404701693e-04 -7.5010258123702606e-04 7.5294264498296552e-04  1.2738804652460826e-04 -7.9341471268759155e-04 7.6505625043756583e-04  4.8069755911410334e-08 -8.0525691865796325e-04 7.6755124406635512e-04  -1.2557156987419646e-04 -7.9606471348087613e-04 7.6285063168949642e-04  -3.6937318467293400e-04 -7.5707570329029781e-04 7.4698425980506116e-04  -9.4142488801194247e-04 -6.5399248360345638e-04 7.1139576109660097e-04  -2.2746237651657601e-03 -4.2105677380007859e-04 5.5688053049307096e-04  -6.1156489295314505e-03 -2.7900151152562315e-04 6.4607183560247579e-04  5.8585679117671265e-03 -6.4324589441417182e-04 7.8359836852936505e-04  2.0751219933966970e-03 -9.3721510268384399e-04 5.9420243215317485e-04  8.4064912717059269e-04 -1.3996772517743405e-03 6.8765818402874435e-04  3.1891626280235516e-04 -1.6103653311407280e-03 7.1092638124471491e-04  1.1137073052574878e-04 -1.6919886289077459e-03 7.2110817684474190e-04  6.3410206325828339e-07 -1.7134129041138943e-03 7.2316445241013170e-04  -1.0852755758738410e-04 -1.6942343572503378e-03 7.1915904310144085e-04  -3.2105936730265796e-04 -1.6169278297812535e-03 7.0559906484212245e-04  -8.2601843362362993e-04 -1.4148571032405106e-03 6.7517359521013036e-04  -2.0454377479707424e-03 -9.3656134377656812e-04 5.3746719456830821e-04  -5.7215404782736618e-03 -6.2703080281213631e-04 6.2629255354787201e-04  5.1190581537959830e-03 -1.0870413420784701e-03 7.5743843785971922e-04  1.6743583313670886e-03 -1.6757735460498722e-03 5.6734879011648110e-04  6.5659665212394823e-04 -2.4063225224542255e-03 6.4223562152888295e-04  2.4592294029554963e-04 -2.7102742479556256e-03 6.5863382957610556e-04  8.5340794298123401e-05 -2.8236853746995095e-03 6.6627520238829105e-04  -5.2507213500605236e-07 -2.8526791222377259e-03 6.6760868924246289e-04  -8.4875448573118405e-05 -2.8245025164833426e-03 6.6408058453965230e-04  -2.4905468634697932e-04 -2.7134905826884611e-03 6.5234262522579527e-04  -6.4503017118203285e-04 -2.4179512893557041e-03 6.2657244485317095e-04  -1.6457668616329001e-03 -1.6822298394646633e-03 5.0771678084394274e-04  -4.9981598536192355e-03 -1.0721954134041531e-03 5.9144346190008901e-04  3.9758364164839471e-03 -1.6027921977639194e-03 5.3000036998171983e-04  1.1903449804626601e-03 -2.7071623632060524e-03 3.7549386799365836e-04  4.5984949671322754e-04 -3.6687472250714354e-03 3.8701353058385747e-04  1.7023818723683613e-04 -4.0315516631424545e-03 3.8429639216857258e-04  5.6600125669483893e-05 -4.1647884646886877e-03 3.8499600692508656e-04  -4.0175041481002585e-06 -4.1984726763843808e-03 3.8503767795950160e-04  -6.3105068215647364e-05 -4.1633483468141042e-03 3.8496392016475504e-04  -1.7771141480460063e-04 -4.0281615228143870e-03 3.8457927173473711e-04  -4.5374792810782665e-04 -3.6736487193716606e-03 3.8703688206735308e-04  -1.1578581994904186e-03 -2.7598563317248618e-03 3.3807383352118712e-04  -3.9421313962990289e-03 -1.6543728629595657e-03 5.1322282330008731e-04  3.8008532172081693e-03 -3.7499324835563617e-03 1.3142700227352921e-03  1.2372562747959201e-03 -5.3464825503105450e-03 9.0951325547494429e-04  5.6689238617296366e-04 -6.7609627795582458e-03 1.0587949673757373e-03  2.7871997198840944e-04 -7.2571126070202652e-03 1.1141089581852715e-03  1.6350328099332709e-04 -7.4455464723665304e-03 1.1352299189142999e-03  1.0118737801457757e-04 -7.4946042654073005e-03 1.1408503720638321e-03  3.7548162087873106e-05 -7.4479155638639584e-03 1.1358769704153380e-03  -8.9535584532589719e-05 -7.2633798835101127e-03 1.1159981006974011e-03  -3.9984557370755636e-04 -6.7593001704488523e-03 1.0617717204609775e-03  -1.1016189575964765e-03 -5.4468151043021119e-03 9.1379302283495114e-04  -2.9950928954495804e-03 -3.3871750770324374e-03 8.4078965281118769e-04  4.9268948155486306e-03 5.1426845836990212e-03 2.2890747170126479e-03  2.1701460893773215e-03 8.5145777784840504e-03 2.4925179341856417e-03  9.0933276401441077e-04 1.0681978214564451e-02 2.8265699846857640e-03  3.4421184110087886e-04 1.1504264784702706e-02 2.9497157112240721e-03  1.1626526588945145e-04 1.1807536551686400e-02 2.9950066142203076e-03  -7.5882736585776739e-07 1.1884656372176606e-02 3.0063427431590447e-03  -1.1568997003877059e-04 1.1805394393342576e-02 2.9927452366388650e-03  -3.3825866565597232e-04 1.1502656539004183e-02 2.9452831854258552e-03  -8.7114986846383675e-04 1.0692780951939420e-02 2.8246536668813443e-03  -2.0936652966659927e-03 8.5079959024280151e-03 2.3880580803644605e-03  -5.1524408478676852e-03 5.3983949595053154e-03 2.9696987212715562e-03  6.4323582543614954e-03 3.0449531866641190e-03 1.6416288146056796e-03  2.1109294141588874e-03 4.9214929732217666e-03 1.1074573912302982e-03  8.3955912670258248e-04 6.6064296142010429e-03 1.1484271003158538e-03  3.3640160197963488e-04 7.2572585866583468e-03 1.1250925632120526e-03  1.3407266651996468e-04 7.5053427141863376e-03 1.1202192289493122e-03  2.7444361500321353e-05 7.5700494694841761e-03 1.1179395960202074e-03  -7.8950299937444965e-05 7.5108828588957835e-03 1.1155290889408914e-03  -2.8985231580068693e-04 7.2754488302664358e-03 1.1148118917682357e-03  -7.8457711860018800e-04 6.6200288392997166e-03 1.1103719545780602e-03  -2.1085152973087024e-03 4.9088697094741250e-03 1.0524052399213358e-03  -6.2608493791918842e-03 3.0792935738176018e-03 1.2854787903342972e-03  8.2507055780858384e-03 1.9977926543088423e-03 1.7677481097379485e-03  2.9651182692238777e-03 3.0116209540403988e-03 1.3654230948865077e-03  1.1611666906752810e-03 4.3163409903972851e-03 1.5361849603841302e-03  4.3851659706814087e-04 4.8473620348012487e-03 1.5580887458577929e-03  1.4879480015113179e-04 5.0484297635922807e-03 1.5724712279789721e-03  -3.8770983072090854e-06 5.1000493796394602e-03 1.5757042873091416e-03  -1.5488850468675506e-04 5.0493199731313507e-03 1.5712701421707483e-03  -4.5072011700494430e-04 4.8486839481435345e-03 1.5583984647752937e-03  -1.1543493486549520e-03 4.3010288257993865e-03 1.5243780934350549e-03  -2.9973732318966132e-03 3.0152958291350790e-03 1.3532330195718807e-03  -8.1329864427409203e-03 1.9844949725283238e-03 1.6258227809436616e-03  9.4956516902061326e-03 1.1883246123223471e-03 1.8481916865242909e-03  3.6841792503249037e-03 1.6798662368625091e-03 1.4065640059821036e-03  1.4895945856886997e-03 2.5127848566718382e-03 1.6059036100783777e-03  5.7088498278503100e-04 2.8767686725973290e-03 1.6292340351747223e-03  1.9815931979532461e-04 3.0169845848519112e-03 1.6454777964833491e-03  1.1486883499948693e-06 3.0523676274191282e-03 1.6484287748878203e-03  -1.9386635091202958e-04 3.0147498232708813e-03 1.6422987108521390e-03  -5.741312345