# vtk DataFile Version 4.2
vtk output
ASCII
DATASET UNSTRUCTURED_GRID
POINTS 264 float
14.7635 12.7406 36.8086 14.8366 12.7833 36.8214 14.844 12.7871 36.8223 
14.8872 12.8073 36.8295 14.8907 12.8091 36.8302 15.0881 12.9211 36.8603 
15.0884 12.9213 36.8603 15.0918 12.9233 36.8609 15.1605 12.964 36.8671 
15.2493 13.0166 36.8786 15.2712 13.0289 36.8821 15.2715 13.0291 36.8821 
15.3433 13.0741 36.8943 15.4494 13.1382 36.9047 15.6337 13.2599 36.9396 
15.64 13.2646 36.9411 15.6561 13.2777 36.945 15.6615 13.2818 36.946 
15.8305 13.4014 36.9736 15.9725 13.5199 37.0067 16.0571 13.5935 37.0163 
16.0672 13.6031 37.0181 16.0673 13.6032 37.0181 16.1866 13.727 37.0381 
16.2094 13.7505 37.0406 16.2098 13.7509 37.0407 16.2884 13.8381 37.0531 
16.3643 13.9087 37.0579 16.3901 13.9309 37.0611 16.4837 14.0004 37.0611 
16.5269 14.0302 37.0635 16.5484 14.0441 37.0628 16.5945 14.0751 37.0618 
16.6539 14.1139 37.063 16.6817 14.1323 37.0609 16.8042 14.2113 37.0591 
16.8545 14.2441 37.0607 16.8738 14.2565 37.0601 17.0624 14.3518 37.0522 
17.0835 14.3632 37.0494 17.2818 14.4509 37.0388 17.3046 14.4609 37.0395 
17.3404 14.4791 37.0396 17.4444 14.5331 37.0352 17.5389 14.5742 37.0355 
17.6373 14.6083 37.0246 17.6982 14.6157 37.0154 17.7686 14.6245 37.0072 
17.7689 14.6245 37.0072 17.8399 14.6361 36.9926 17.8464 14.637 36.9912 
17.8622 14.6381 36.9872 17.962 14.6494 36.9711 17.9629 14.6494 36.971 
18.0409 14.6529 36.9563 18.0657 14.6554 36.9496 18.0764 14.6568 36.9473 
18.174 14.6735 36.9355 18.2922 14.6856 36.9177 18.3375 14.6932 36.9074 
18.3379 14.6933 36.9073 18.358 14.697 36.9037 18.3587 14.6971 36.9036 
18.4145 14.709 36.8993 18.4984 14.7211 36.8902 18.5158 14.7238 36.8892 
18.5234 14.7247 36.8887 18.603 14.7396 36.8753 18.6707 14.7545 36.8702 
18.7019 14.7588 36.8668 18.8056 14.7745 36.8615 18.8064 14.7747 36.8615 
18.8237 14.7783 36.8605 18.9349 14.807 36.8533 18.9381 14.8078 36.8531 
19.015 14.8205 36.8453 19.034 14.8238 36.8443 19.0588 14.8292 36.8422 
19.0748 14.8333 36.8402 19.0749 14.8333 36.8402 19.2104 14.8699 36.8357 
19.237 14.8752 36.8341 19.3497 14.8976 36.819 19.3899 14.9057 36.8158 
19.4119 14.9111 36.8156 19.5334 14.9467 36.8089 19.7378 14.9918 36.7802 
19.9406 15.0413 36.7609 20.0837 15.0853 36.7395 20.2796 15.1349 36.7096 
20.2812 15.1352 36.7092 20.2813 15.1352 36.7092 20.4996 15.1996 36.6703 
20.5493 15.2092 36.6629 20.776 15.2597 36.6179 20.7851 15.2604 36.6166 
20.9026 15.2793 36.595 21.042 15.2927 36.5633 21.118 15.2932 36.5501 
21.3651 15.3144 36.4888 21.3762 15.3147 36.4869 21.3767 15.3147 36.4868 
21.5787 15.3379 36.4452 21.6508 15.3423 36.4222 21.6526 15.3424 36.4216 
21.8587 15.3738 36.3709 21.8727 15.3755 36.367 21.9461 15.3874 36.3483 
21.9894 15.3955 36.3394 22.0156 15.4007 36.3337 22.026 15.4024 36.3307 
22.1936 15.4298 36.2868 22.3419 15.4501 36.2524 22.558 15.4567 36.2183 
22.6022 15.4562 36.2137 22.6377 15.4584 36.2103 22.7149 15.4609 36.1999 
22.9262 15.4579 36.1802 22.9945 15.4556 36.1709 23.0596 15.454 36.1643 
23.1954 15.4529 36.1536 23.3662 15.4472 36.1366 23.4321 15.4464 36.1349 
23.499 15.4419 36.1335 23.6297 15.4461 36.1408 23.6852 15.4457 36.1441 
23.8191 15.4483 36.1387 23.823 15.4483 36.1388 23.823 15.4483 36.1388 
23.9604 15.4574 36.1284 24.033 15.458 36.1194 24.2375 15.4701 36.0941 
24.302 15.4715 36.0851 24.4952 15.49 36.0418 24.5452 15.4943 36.0309 
24.646 15.5086 36.0117 24.6505 15.5094 36.0111 24.7521 15.5132 35.9999 
24.846 15.5164 35.9845 24.9012 15.5154 35.9737 24.9254 15.5164 35.9693 
24.9894 15.518 35.9618 25.1326 15.509 35.9373 25.3551 15.4847 35.8866 
25.3863 15.4878 35.8811 25.419 15.4878 35.8745 25.5332 15.4875 35.8374 
25.6182 15.4834 35.8191 25.6301 15.4833 35.8159 25.7614 15.4799 35.7712 
25.776 15.4804 35.7669 25.8271 15.4796 35.7505 25.8275 15.4796 35.7503 
25.9205 15.4701 35.7181 25.9209 15.4701 35.718 26.0135 15.4703 35.687 
26.1021 15.4626 35.6519 26.1191 15.4618 35.6446 26.1718 15.4584 35.6273 
26.277 15.4594 35.587 26.2783 15.4595 35.5866 26.3273 15.4608 35.5724 
26.3285 15.4608 35.572 26.3769 15.4578 35.5569 26.3771 15.4578 35.5569 
26.3822 15.4574 35.5552 26.4129 15.4557 35.5442 26.4132 15.4556 35.5441 
26.4911 15.4563 35.5092 26.6095 15.4607 35.4739 26.7018 15.4696 35.4402 
26.7358 15.4721 35.4258 26.8071 15.4726 35.394 26.8074 15.4726 35.3939 
27.0916 15.5085 35.281 27.3169 15.5708 35.1975 27.3358 15.5765 35.1929 
27.5974 15.6571 35.104 27.6165 15.665 35.0977 27.6169 15.6651 35.0975 
27.8144 15.7318 35.0478 27.833 15.7373 35.0403 27.8805 15.7506 35.021 
28.0989 15.7827 34.9594 28.1366 15.7856 34.9444 28.1839 15.7894 34.9247 
28.4191 15.8285 34.8581 28.4395 15.8335 34.854 28.5114 15.8498 34.8335 
28.5154 15.8507 34.8324 28.5987 15.8681 34.816 28.6562 15.8846 34.8028 
28.7805 15.9173 34.7725 29.0716 16.029 34.7072 29.0842 16.0333 34.7031 
29.0846 16.0335 34.7029 29.4031 16.1692 34.6208 29.4327 16.1816 34.6098 
29.4568 16.187 34.5975 29.4947 16.1943 34.5811 29.6473 16.2262 34.5227 
29.6743 16.2259 34.5062 29.742 16.2291 34.479 29.9415 16.2197 34.4057 
30.1807 16.2259 34.3363 30.2098 16.2238 34.3281 30.2628 16.2214 34.3082 
30.3801 16.2241 34.2661 30.5132 16.2365 34.2238 30.576 16.2347 34.2016 
30.6806 16.2492 34.1822 30.7102 16.254 34.1792 30.857 16.2706 34.1688 
30.9122 16.2806 34.1608 30.9717 16.2865 34.1479 31.11 16.3013 34.1348 
31.1884 16.3147 34.1211 31.3849 16.33 34.0708 31.453 16.3434 34.0558 
31.6158 16.3561 34.0116 31.7128 16.3742 33.9867 31.8016 16.3866 33.9601 
31.8926 16.3985 33.9275 32.0591 16.416 33.8605 32.1131 16.4259 33.8384 
32.254 16.4421 33.7847 32.3099 16.4507 33.7621 32.3519 16.4569 33.7407 
32.5669 16.4842 33.6598 32.6205 16.4884 33.6378 32.6242 16.4887 33.6359 
32.6243 16.4887 33.6359 32.8134 16.5178 33.5451 32.9862 16.5378 33.4636 
33.1118 16.5638 33.4061 33.175 16.5738 33.3728 33.3176 16.6081 33.2957 
33.4315 16.637 33.23 33.5186 16.6586 33.1809 33.5704 16.6708 33.1523 
33.6645 16.6919 33.111 33.7035 16.6985 33.0951 33.8008 16.709 33.0566 
33.9588 16.7351 33.0144 33.9614 16.7356 33.0137 34.0526 16.7481 32.9852 
34.2506 16.7734 32.9326 34.2866 16.7785 32.9208 34.4453 16.7937 32.8776 
34.4891 16.8009 32.8655 34.5697 16.8077 32.844 34.6458 16.811 32.8224 
34.769 16.8194 32.7851 34.7703 16.8195 32.7847 34.8741 16.8253 32.7489 
34.9564 16.8237 32.7163 34.9814 16.8235 32.7085 35.0552 16.8282 32.6844 
35.1157 16.827 32.6604 35.1973 16.8316 32.62 35.3176 16.8458 32.5683 
35.321 16.8459 32.5667 35.4179 16.8579 32.5142 35.5731 16.8767 32.443 

METADATA
INFORMATION 1
NAME L2_NORM_RANGE LOCATION vtkDataArray
DATA 2 41.6552 51.0178 

CELLS 1052 3156
2 0 1 
2 1 2 
2 2 3 
2 3 4 
2 4 5 
2 5 6 
2 6 7 
2 7 8 
2 8 9 
2 9 10 
2 10 11 
2 11 12 
2 12 13 
2 13 14 
2 14 15 
2 15 16 
2 16 17 
2 17 18 
2 18 19 
2 19 20 
2 20 21 
2 21 22 
2 22 23 
2 23 24 
2 24 25 
2 25 26 
2 26 27 
2 27 28 
2 28 29 
2 29 30 
2 30 31 
2 31 32 
2 32 33 
2 33 34 
2 34 35 
2 35 36 
2 36 37 
2 37 38 
2 38 39 
2 39 40 
2 40 41 
2 41 42 
2 42 43 
2 43 44 
2 44 45 
2 45 46 
2 46 47 
2 47 48 
2 48 49 
2 49 50 
2 50 51 
2 51 52 
2 52 53 
2 53 54 
2 54 55 
2 55 56 
2 56 57 
2 57 58 
2 58 59 
2 59 60 
2 60 61 
2 61 62 
2 62 63 
2 63 64 
2 64 65 
2 65 66 
2 66 67 
2 67 68 
2 68 69 
2 69 70 
2 70 71 
2 71 72 
2 72 73 
2 73 74 
2 74 75 
2 75 76 
2 76 77 
2 77 78 
2 78 79 
2 79 80 
2 80 81 
2 81 82 
2 82 83 
2 83 84 
2 84 85 
2 85 86 
2 86 87 
2 87 88 
2 88 89 
2 89 90 
2 90 91 
2 91 92 
2 92 93 
2 93 94 
2 94 95 
2 95 96 
2 96 97 
2 97 98 
2 98 99 
2 99 100 
2 100 101 
2 101 102 
2 102 103 
2 103 104 
2 104 105 
2 105 106 
2 106 107 
2 107 108 
2 108 109 
2 109 110 
2 110 111 
2 111 112 
2 112 113 
2 113 114 
2 114 115 
2 115 116 
2 116 117 
2 117 118 
2 118 119 
2 119 120 
2 120 121 
2 121 122 
2 122 123 
2 123 124 
2 124 125 
2 125 126 
2 126 127 
2 127 128 
2 128 129 
2 129 130 
2 130 131 
2 131 132 
2 132 133 
2 133 134 
2 134 135 
2 135 136 
2 136 137 
2 137 138 
2 138 139 
2 139 140 
2 140 141 
2 141 142 
2 142 143 
2 143 144 
2 144 145 
2 145 146 
2 146 147 
2 147 148 
2 148 149 
2 149 150 
2 150 151 
2 151 152 
2 152 153 
2 153 154 
2 154 155 
2 155 156 
2 156 157 
2 157 158 
2 158 159 
2 159 160 
2 160 161 
2 161 162 
2 162 163 
2 163 164 
2 164 165 
2 165 166 
2 166 167 
2 167 168 
2 168 169 
2 169 170 
2 170 171 
2 171 172 
2 172 173 
2 173 174 
2 174 175 
2 175 176 
2 176 177 
2 177 178 
2 178 179 
2 179 180 
2 180 181 
2 181 182 
2 182 183 
2 183 184 
2 184 185 
2 185 186 
2 186 187 
2 187 188 
2 188 189 
2 189 190 
2 190 191 
2 191 192 
2 192 193 
2 193 194 
2 194 195 
2 195 196 
2 196 197 
2 197 198 
2 198 199 
2 199 200 
2 200 201 
2 201 202 
2 202 203 
2 203 204 
2 204 205 
2 205 206 
2 206 207 
2 207 208 
2 208 209 
2 209 210 
2 210 211 
2 211 212 
2 212 213 
2 213 214 
2 214 215 
2 215 216 
2 216 217 
2 217 218 
2 218 219 
2 219 220 
2 220 221 
2 221 222 
2 222 223 
2 223 224 
2 224 225 
2 225 226 
2 226 227 
2 227 228 
2 228 229 
2 229 230 
2 230 231 
2 231 232 
2 232 233 
2 233 234 
2 234 235 
2 235 236 
2 236 237 
2 237 238 
2 238 239 
2 239 240 
2 240 241 
2 241 242 
2 242 243 
2 243 244 
2 244 245 
2 245 246 
2 246 247 
2 247 248 
2 248 249 
2 249 250 
2 250 251 
2 251 252 
2 252 253 
2 253 254 
2 254 255 
2 255 256 
2 256 257 
2 257 258 
2 258 259 
2 259 260 
2 260 261 
2 261 262 
2 263 262 
2 0 1 
2 1 2 
2 2 3 
2 3 4 
2 4 5 
2 5 6 
2 6 7 
2 7 8 
2 8 9 
2 9 10 
2 10 11 
2 11 12 
2 12 13 
2 13 14 
2 14 15 
2 15 16 
2 16 17 
2 17 18 
2 18 19 
2 19 20 
2 20 21 
2 21 22 
2 22 23 
2 23 24 
2 24 25 
2 25 26 
2 26 27 
2 27 28 
2 28 29 
2 29 30 
2 30 31 
2 31 32 
2 32 33 
2 33 34 
2 34 35 
2 35 36 
2 36 37 
2 37 38 
2 38 39 
2 39 40 
2 40 41 
2 41 42 
2 42 43 
2 43 44 
2 44 45 
2 45 46 
2 46 47 
2 47 48 
2 48 49 
2 49 50 
2 50 51 
2 51 52 
2 52 53 
2 53 54 
2 54 55 
2 55 56 
2 56 57 
2 57 58 
2 58 59 
2 59 60 
2 60 61 
2 61 62 
2 62 63 
2 63 64 
2 64 65 
2 65 66 
2 66 67 
2 67 68 
2 68 69 
2 69 70 
2 70 71 
2 71 72 
2 72 73 
2 73 74 
2 74 75 
2 75 76 
2 76 77 
2 77 78 
2 78 79 
2 79 80 
2 80 81 
2 81 82 
2 82 83 
2 83 84 
2 84 85 
2 85 86 
2 86 87 
2 87 88 
2 88 89 
2 89 90 
2 90 91 
2 91 92 
2 92 93 
2 93 94 
2 94 95 
2 95 96 
2 96 97 
2 97 98 
2 98 99 
2 99 100 
2 100 101 
2 101 102 
2 102 103 
2 103 104 
2 104 105 
2 105 106 
2 106 107 
2 107 108 
2 108 109 
2 109 110 
2 110 111 
2 111 112 
2 112 113 
2 113 114 
2 114 115 
2 115 116 
2 116 117 
2 117 118 
2 118 119 
2 119 120 
2 120 121 
2 121 122 
2 122 123 
2 123 124 
2 124 125 
2 125 126 
2 126 127 
2 127 128 
2 128 129 
2 129 130 
2 130 131 
2 131 132 
2 132 133 
2 133 134 
2 134 135 
2 135 136 
2 136 137 
2 137 138 
2 138 139 
2 139 140 
2 140 141 
2 141 142 
2 142 143 
2 143 144 
2 144 145 
2 145 146 
2 146 147 
2 147 148 
2 148 149 
2 149 150 
2 150 151 
2 151 152 
2 152 153 
2 153 154 
2 154 155 
2 155 156 
2 156 157 
2 157 158 
2 158 159 
2 159 160 
2 160 161 
2 161 162 
2 162 163 
2 163 164 
2 164 165 
2 165 166 
2 166 167 
2 167 168 
2 168 169 
2 169 170 
2 170 171 
2 171 172 
2 172 173 
2 173 174 
2 174 175 
2 175 176 
2 176 177 
2 177 178 
2 178 179 
2 179 180 
2 180 181 
2 181 182 
2 182 183 
2 183 184 
2 184 185 
2 185 186 
2 186 187 
2 187 188 
2 188 189 
2 189 190 
2 190 191 
2 191 192 
2 192 193 
2 193 194 
2 194 195 
2 195 196 
2 196 197 
2 197 198 
2 198 199 
2 199 200 
2 200 201 
2 201 202 
2 202 203 
2 203 204 
2 204 205 
2 205 206 
2 206 207 
2 207 208 
2 208 209 
2 209 210 
2 210 211 
2 211 212 
2 212 213 
2 213 214 
2 214 215 
2 215 216 
2 216 217 
2 217 218 
2 218 219 
2 219 220 
2 220 221 
2 221 222 
2 222 223 
2 223 224 
2 224 225 
2 225 226 
2 226 227 
2 227 228 
2 228 229 
2 229 230 
2 230 231 
2 231 232 
2 232 233 
2 233 234 
2 234 235 
2 235 236 
2 236 237 
2 237 238 
2 238 239 
2 239 240 
2 240 241 
2 241 242 
2 242 243 
2 243 244 
2 244 245 
2 245 246 
2 246 247 
2 247 248 
2 248 249 
2 249 250 
2 250 251 
2 251 252 
2 252 253 
2 253 254 
2 254 255 
2 255 256 
2 256 257 
2 257 258 
2 258 259 
2 259 260 
2 260 261 
2 261 262 
2 263 262 
2 0 1 
2 1 2 
2 2 3 
2 3 4 
2 4 5 
2 5 6 
2 6 7 
2 7 8 
2 8 9 
2 9 10 
2 10 11 
2 11 12 
2 12 13 
2 13 14 
2 14 15 
2 15 16 
2 16 17 
2 17 18 
2 18 19 
2 19 20 
2 20 21 
2 21 22 
2 22 23 
2 23 24 
2 24 25 
2 25 26 
2 26 27 
2 27 28 
2 28 29 
2 29 30 
2 30 31 
2 31 32 
2 32 33 
2 33 34 
2 34 35 
2 35 36 
2 36 37 
2 37 38 
2 38 39 
2 39 40 
2 40 41 
2 41 42 
2 42 43 
2 43 44 
2 44 45 
2 45 46 
2 46 47 
2 47 48 
2 48 49 
2 49 50 
2 50 51 
2 51 52 
2 52 53 
2 53 54 
2 54 55 
2 55 56 
2 56 57 
2 57 58 
2 58 59 
2 59 60 
2 60 61 
2 61 62 
2 62 63 
2 63 64 
2 64 65 
2 65 66 
2 66 67 
2 67 68 
2 68 69 
2 69 70 
2 70 71 
2 71 72 
2 72 73 
2 73 74 
2 74 75 
2 75 76 
2 76 77 
2 77 78 
2 78 79 
2 79 80 
2 80 81 
2 81 82 
2 82 83 
2 83 84 
2 84 85 
2 85 86 
2 86 87 
2 87 88 
2 88 89 
2 89 90 
2 90 91 
2 91 92 
2 92 93 
2 93 94 
2 94 95 
2 95 96 
2 96 97 
2 97 98 
2 98 99 
2 99 100 
2 100 101 
2 101 102 
2 102 103 
2 103 104 
2 104 105 
2 105 106 
2 106 107 
2 107 108 
2 108 109 
2 109 110 
2 110 111 
2 111 112 
2 112 113 
2 113 114 
2 114 115 
2 115 116 
2 116 117 
2 117 118 
2 118 119 
2 119 120 
2 120 121 
2 121 122 
2 122 123 
2 123 124 
2 124 125 
2 125 126 
2 126 127 
2 127 128 
2 128 129 
2 129 130 
2 130 131 
2 131 132 
2 132 133 
2 133 134 
2 134 135 
2 135 136 
2 136 137 
2 137 138 
2 138 139 
2 139 140 
2 140 141 
2 141 142 
2 142 143 
2 143 144 
2 144 145 
2 145 146 
2 146 147 
2 147 148 
2 148 149 
2 149 150 
2 150 151 
2 151 152 
2 152 153 
2 153 154 
2 154 155 
2 155 156 
2 156 157 
2 157 158 
2 158 159 
2 159 160 
2 160 161 
2 161 162 
2 162 163 
2 163 164 
2 164 165 
2 165 166 
2 166 167 
2 167 168 
2 168 169 
2 169 170 
2 170 171 
2 171 172 
2 172 173 
2 173 174 
2 174 175 
2 175 176 
2 176 177 
2 177 178 
2 178 179 
2 179 180 
2 180 181 
2 181 182 
2 182 183 
2 183 184 
2 184 185 
2 185 186 
2 186 187 
2 187 188 
2 188 189 
2 189 190 
2 190 191 
2 191 192 
2 192 193 
2 193 194 
2 194 195 
2 195 196 
2 196 197 
2 197 198 
2 198 199 
2 199 200 
2 200 201 
2 201 202 
2 202 203 
2 203 204 
2 204 205 
2 205 206 
2 206 207 
2 207 208 
2 208 209 
2 209 210 
2 210 211 
2 211 212 
2 212 213 
2 213 214 
2 214 215 
2 215 216 
2 216 217 
2 217 218 
2 218 219 
2 219 220 
2 220 221 
2 221 222 
2 222 223 
2 223 224 
2 224 225 
2 225 226 
2 226 227 
2 227 228 
2 228 229 
2 229 230 
2 230 231 
2 231 232 
2 232 233 
2 233 234 
2 234 235 
2 235 236 
2 236 237 
2 237 238 
2 238 239 
2 239 240 
2 240 241 
2 241 242 
2 242 243 
2 243 244 
2 244 245 
2 245 246 
2 246 247 
2 247 248 
2 248 249 
2 249 250 
2 250 251 
2 251 252 
2 252 253 
2 253 254 
2 254 255 
2 255 256 
2 256 257 
2 257 258 
2 258 259 
2 259 260 
2 260 261 
2 261 262 
2 263 262 
2 0 1 
2 1 2 
2 2 3 
2 3 4 
2 4 5 
2 5 6 
2 6 7 
2 7 8 
2 8 9 
2 9 10 
2 10 11 
2 11 12 
2 12 13 
2 13 14 
2 14 15 
2 15 16 
2 16 17 
2 17 18 
2 18 19 
2 19 20 
2 20 21 
2 21 22 
2 22 23 
2 23 24 
2 24 25 
2 25 26 
2 26 27 
2 27 28 
2 28 29 
2 29 30 
2 30 31 
2 31 32 
2 32 33 
2 33 34 
2 34 35 
2 35 36 
2 36 37 
2 37 38 
2 38 39 
2 39 40 
2 40 41 
2 41 42 
2 42 43 
2 43 44 
2 44 45 
2 45 46 
2 46 47 
2 47 48 
2 48 49 
2 49 50 
2 50 51 
2 51 52 
2 52 53 
2 53 54 
2 54 55 
2 55 56 
2 56 57 
2 57 58 
2 58 59 
2 59 60 
2 60 61 
2 61 62 
2 62 63 
2 63 64 
2 64 65 
2 65 66 
2 66 67 
2 67 68 
2 68 69 
2 69 70 
2 70 71 
2 71 72 
2 72 73 
2 73 74 
2 74 75 
2 75 76 
2 76 77 
2 77 78 
2 78 79 
2 79 80 
2 80 81 
2 81 82 
2 82 83 
2 83 84 
2 84 85 
2 85 86 
2 86 87 
2 87 88 
2 88 89 
2 89 90 
2 90 91 
2 91 92 
2 92 93 
2 93 94 
2 94 95 
2 95 96 
2 96 97 
2 97 98 
2 98 99 
2 99 100 
2 100 101 
2 101 102 
2 102 103 
2 103 104 
2 104 105 
2 105 106 
2 106 107 
2 107 108 
2 108 109 
2 109 110 
2 110 111 
2 111 112 
2 112 113 
2 113 114 
2 114 115 
2 115 116 
2 116 117 
2 117 118 
2 118 119 
2 119 120 
2 120 121 
2 121 122 
2 122 123 
2 123 124 
2 124 125 
2 125 126 
2 126 127 
2 127 128 
2 128 129 
2 129 130 
2 130 131 
2 131 132 
2 132 133 
2 133 134 
2 134 135 
2 135 136 
2 136 137 
2 137 138 
2 138 139 
2 139 140 
2 140 141 
2 141 142 
2 142 143 
2 143 144 
2 144 145 
2 145 146 
2 146 147 
2 147 148 
2 148 149 
2 149 150 
2 150 151 
2 151 152 
2 152 153 
2 153 154 
2 154 155 
2 155 156 
2 156 157 
2 157 158 
2 158 159 
2 159 160 
2 160 161 
2 161 162 
2 162 163 
2 163 164 
2 164 165 
2 165 166 
2 166 167 
2 167 168 
2 168 169 
2 169 170 
2 170 171 
2 171 172 
2 172 173 
2 173 174 
2 174 175 
2 175 176 
2 176 177 
2 177 178 
2 178 179 
2 179 180 
2 180 181 
2 181 182 
2 182 183 
2 183 184 
2 184 185 
2 185 186 
2 186 187 
2 187 188 
2 188 189 
2 189 190 
2 190 191 
2 191 192 
2 192 193 
2 193 194 
2 194 195 
2 195 196 
2 196 197 
2 197 198 
2 198 199 
2 199 200 
2 200 201 
2 201 202 
2 202 203 
2 203 204 
2 204 205 
2 205 206 
2 206 207 
2 207 208 
2 208 209 
2 209 210 
2 210 211 
2 211 212 
2 212 213 
2 213 214 
2 214 215 
2 215 216 
2 216 217 
2 217 218 
2 218 219 
2 219 220 
2 220 221 
2 221 222 
2 222 223 
2 223 224 
2 224 225 
2 225 226 
2 226 227 
2 227 228 
2 228 229 
2 229 230 
2 230 231 
2 231 232 
2 232 233 
2 233 234 
2 234 235 
2 235 236 
2 236 237 
2 237 238 
2 238 239 
2 239 240 
2 240 241 
2 241 242 
2 242 243 
2 243 244 
2 244 245 
2 245 246 
2 246 247 
2 247 248 
2 248 249 
2 249 250 
2 250 251 
2 251 252 
2 252 253 
2 253 254 
2 254 255 
2 255 256 
2 256 257 
2 257 258 
2 258 259 
2 259 260 
2 260 261 
2 261 262 
2 263 262 

CELL_TYPES 1052
3
3
3
3
3
3
3
3
3
3
3
3
3
3
3
3
3
3
3
3
3
3
3
3
3
3
3
3
3
3
3
3
3
3
3
3
3
3
3
3
3
3
3
3
3
3
3
3
3
3
3
3
3
3
3
3
3
3
3
3
3
3
3
3
3
3
3
3
3
3
3
3
3
3
3
3
3
3
3
3
3
3
3
3
3
3
3
3
3
3
3
3
3
3
3
3
3
3
3
3
3
3
3
3
3
3
3
3
3
3
3
3
3
3
3
3
3
3
3
3
3
3
3
3
3
3
3
3
3
3
3
3
3
3
3
3
3
3
3
3
3
3
3
3
3
3
3
3
3
3
3
3
3
3
3
3
3
3
3
3
3
3
3
3
3
3
3
3
3
3
3
3
3
3
3
3
3
3
3
3
3
3
3
3
3
3
3
3
3
3
3
3
3
3
3
3
3
3
3
3
3
3
3
3
3
3
3
3
3
3
3
3
3
3
3
3
3
3
3
3
3
3
3
3
3
3
3
3
3
3
3
3
3
3
3
3
3
3
3
3
3
3
3
3
3
3
3
3
3
3
3
3
3
3
3
3
3
3
3
3
3
3
3
3
3
3
3
3
3
3
3
3
3
3
3
3
3
3
3
3
3
3
3
3
3
3
3
3
3
3
3
3
3
3
3
3
3
3
3
3
3
3
3
3
3
3
3
3
3
3
3
3
3
3
3
3
3
3
3
3
3
3
3
3
3
3
3
3
3
3
3
3
3
3
3
3
3
3
3
3
3
3
3
3
3
3
3
3
3
3
3
3
3
3
3
3
3
3
3
3
3
3
3
3
3
3
3
3
3
3
3
3
3
3
3
3
3
3
3
3
3
3
3
3
3
3
3
3
3
3
3
3
3
3
3
3
3
3
3
3
3
3
3
3
3
3
3
3
3
3
3
3
3
3
3
3
3
3
3
3
3
3
3
3
3
3
3
3
3
3
3
3
3
3
3
3
3
3
3
3
3
3
3
3
3
3
3
3
3
3
3
3
3
3
3
3
3
3
3
3
3
3
3
3
3
3
3
3
3
3
3
3
3
3
3
3
3
3
3
3
3
3
3
3
3
3
3
3
3
3
3
3
3
3
3
3
3
3
3
3
3
3
3
3
3
3
3
3
3
3
3
3
3
3
3
3
3
3
3
3
3
3
3
3
3
3
3
3
3
3
3
3
3
3
3
3
3
3
3
3
3
3
3
3
3
3
3
3
3
3
3
3
3
3
3
3
3
3
3
3
3
3
3
3
3
3
3
3
3
3
3
3
3
3
3
3
3
3
3
3
3
3
3
3
3
3
3
3
3
3
3
3
3
3
3
3
3
3
3
3
3
3
3
3
3
3
3
3
3
3
3
3
3
3
3
3
3
3
3
3
3
3
3
3
3
3
3
3
3
3
3
3
3
3
3
3
3
3
3
3
3
3
3
3
3
3
3
3
3
3
3
3
3
3
3
3
3
3
3
3
3
3
3
3
3
3
3
3
3
3
3
3
3
3
3
3
3
3
3
3
3
3
3
3
3
3
3
3
3
3
3
3
3
3
3
3
3
3
3
3
3
3
3
3
3
3
3
3
3
3
3
3
3
3
3
3
3
3
3
3
3
3
3
3
3
3
3
3
3
3
3
3
3
3
3
3
3
3
3
3
3
3
3
3
3
3
3
3
3
3
3
3
3
3
3
3
3
3
3
3
3
3
3
3
3
3
3
3
3
3
3
3
3
3
3
3
3
3
3
3
3
3
3
3
3
3
3
3
3
3
3
3
3
3
3
3
3
3
3
3
3
3
3
3
3
3
3
3
3
3
3
3
3
3
3
3
3
3
3
3
3
3
3
3
3
3
3
3
3
3
3
3
3
3
3
3
3
3
3
3
3
3
3
3
3
3
3
3
3
3
3
3
3
3
3
3
3
3
3
3
3
3
3
3
3
3
3
3
3
3
3
3
3
3
3
3
3
3
3
3
3
3
3
3
3
3
3
3
3
3
3
3
3
3
3
3
3
3
3
3
3
3
3
3
3
3
3
3
3
3
3
3
3
3
3
3
3
3
3
3
3
3
3
3
3
3
3
3
3
3
3
3
3
3
3
3
3
3
3
3
3
3
3
3
3
3
3
3
3
3
3
3
3
3
3
3
3
3
3
3
3
3
3
3
3
3
3
3
3
3
3
3
3
3
3
3
3
3
3
3
3
3
3
3
3
3
3
3
3
3
3
3
3
3
3
3
3
3
3
3
3
3
3
3
3
3
3
3
3
3
3
3
3
3
3
3
3
3
3
3
3
3
3
3
3
3
3
3
3
3
3
3
3
3
3
3
3
3
3
3
3
3
3
3
3
3
3
3
3
3
3
3

POINT_DATA 264
FIELD FieldData 3
EdgeArray 2 264 int
80663 80664 80661 80664 80659 80661 80659 80660 80657 
80657 95683 95683 95683 95681 95682 95682 95682 47859 
101758 101758 101758 101757 101757 101757 63337 83925 72639 
72639 19729 12724 12724 83861 83861 15024 15024 19185 
23874 23874 3131 3131 93810 93810 93810 27966 27966 
27966 85889 85889 85889 85890 85890 85890 82375 82375 
95394 82372 82377 60892 19301 19301 95397 82382 67792 
95397 29209 67792 19413 60890 3012 3012 32487 74366 
54350 54350 88182 88182 40040 40040 26218 26218 98195 
69942 98195 68843 68843 96662 62831 33969 5383 37380 
10999 10999 55972 55972 55972 9907 9907 9907 75771 
75771 75771 75768 89190 89190 89190 69931 69931 69931 
69933 69931 60076 69933 40090 40090 98145 98145 55703 
55703 55703 98296 98296 98296 98296 98297 98297 98297 
98298 98298 57757 57757 57757 98295 98293 98293 55699 
55699 26396 55699 26891 26891 26891 85929 85929 85929 
71087 71087 71087 8478 8478 8478 8478 5636 5636 
89031 92923 92923 92923 92922 92922 92922 92922 100369 
100370 100370 100370 92920 76134 76134 92917 76134 71439 
71439 56951 56951 55869 55869 6366 6366 99169 99169 
99169 99168 99168 99168 96657 96657 103606 103606 70735 
70735 97043 97043 3377 3377 101178 101178 25143 25143 
86459 86459 86459 86461 86461 86461 31135 31135 31135 
24600 24600 24600 59707 90296 90295 90295 67726 67726 
67726 90292 90294 90100 90099 90099 51320 51320 23273 
23273 84095 84095 79543 79543 84097 84097 102573 102573 
61843 61843 81240 81240 98551 98551 60619 60619 38482 
38482 80410 80410 80415 80415 97306 97306 86940 86940 
86942 86942 86942 35850 35850 35850 39354 68271 77993 
57666 103453 103453 20159 20159 42531 42531 75086 75086 
74616 6386 6386 43260 99925 43260 76468 99915 103708 
103708 103708 103707 103709 103709 72426 72426 82469 82469 
82462 82463 82461 82461 79003 51526 51526 71939 13757 
13757 78695 79004 60995 60995 60995 71940 71940 71940 
71940 14087 14087 14087 36297 36297 36297 13749 39805 
39805 66337 66337 66337 76649 76649 76649 76649 70927 
70927 70927 70927 70926 70926 70926 66340 66340 66340 
28312 28312 28312 70444 28312 70444 70443 70443 70447 
70445 70445 70445 51517 51517 51517 45713 45713 32245 
32245 74594 74594 38084 38084 38084 34779 34779 34779 
66212 66212 66212 22176 72646 72646 87318 87321 87320 
87320 59126 59126 82978 82978 86147 86147 86147 86146 
86146 86146 86139 86143 86149 86149 80649 80649 100191 
100191 100191 73671 73671 73671 29484 29484 63084 63084 
70403 70265 60142 70265 24555 24555 64981 20174 20174 
64984 29827 29827 11215 8714 8714 5330 5330 6088 
15329 6088 8711 3399 3983 3983 3983 40459 58841 
58841 70147 58841 70148 70147 64155 64155 70139 64155 
70137 70137 10942 10942 60738 60738 69696 69696 20465 
69697 8189 20465 66813 66813 1107 23901 60735 60735 
76076 50053 55283 78411 38078 38078 64649 64649 44584 
44584 44584 61117 61117 61117 74557 74557 51337 51337 
50049 50049 65414 65414 6171 6171 37855 37855 14654 
14654 59018 59018 67876 88313 67876 88305 94517 94517 
94513 94512 94514 94514 43022 43022 70699 5312 43059 
43059 4125 4125 29478 29478 29478 96324 98078 98078 
98077 98080 98077 66763 1810 1810 21218 1810 21218 
64826 64827 64827 64827 73593 73590 73590 68185 68185 
69273 68185 54314 54314 32896 68041 
METADATA
INFORMATION 1
NAME L2_NORM_RANGE LOCATION vtkDataArray
DATA 2 2559.73 146667 

EdgePCoordArray 1 264 double
0.01005168722 0.024 0.744 0.992 0 0 0.084 0 0.588 
0 0.988 0 0.784 0 0.976 0.22 0.42 0.36 
0 0 0 0.996 0 0 0.984 0 0 
0.648 0.792 0 0.008 0.676 0.848 0.624 0 0.076 
0 0 0 0 0.272 0.488 0.404 0.352 0.828 
0 0 0.996 0 0 0.676 0 0.992 0 
0.016 0.14 0 0 0 0.992 0 0.964 0 
0 0 0.984 0 0 0.02 0 0.992 0 
0 0.972 0 0.948 0.988 0 0.992 0 0.92 
0 0.816 0 0.6 0 0 0 0 0 
0.948 0 0 0 0 0 0 0 0 
0 0.96 0 0 0.976 0 0.968 0 0 
0.64 0.08 0 0 0 0 0 0 0 
0 0 0 0 0 0 0 0 0 
0 0.996 0 0.708 0.224 0 0 0 0 
0.984 0.036 0.528 0.136 0 0.728 0 0 0 
0.2 0 0.78 0.936 0 0.94 0 0.992 0 
0.996 0 0 0.944 0 0 0.988 0 0.976 
0 0.996 0 0 0.992 0 0.068 0.78 0.968 
0 0.996 0 0 0 0 0 0.98 0 
0 0.304 0 0.908 0 0 0 0 0.948 
0 0.228 0 0 0 0.964 0 0 0 
0.264 0.688 0 0.3 0.376 0 0.704 0.492 0.296 
0.488 0.26 0 0.9 0 0.1 0.14 0 0.164 
0 0 0 0 0.324 0.556 0 0.832 0 
0.724 0.044 0 0 0 0.996 0 0 0 
0 0 0 0 0 0 0.54 0.624 0 
0.772 0 0 0.096 0 0 0 0.656 0 
0.004 0.044 0 0.104 0.372 0 0.752 0 0 
0.912 0 0.70076945417 
METADATA
INFORMATION 0

MaximumInscribedSphereRadius 1 264 double
1.5507193443 1.544655545 1.5440664213 1.5400035966 1.5396063216 1.5270371564 1.5270350627 1.5270041063 1.5239308474 
1.5210482313 1.5209546847 1.5209535485 1.5199958373 1.5191794994 1.5256228222 1.5259141297 1.5261595379 1.5259547494 
1.530682579 1.542332817 1.5512356517 1.5520878393 1.5520912617 1.5675439754 1.5714428508 1.5715062472 1.5859926536 
1.5947647503 1.5969059863 1.5975669426 1.5975917772 1.5967841654 1.595527051 1.5947127928 1.5928801699 1.5873413406 
1.5873630925 1.5864839139 1.5695418602 1.5675371126 1.5441663429 1.5419900672 1.5385157099 1.5289834206 1.520622281 
1.5071582156 1.494834304 1.4821653263 1.4821144469 1.4661735509 1.464799656 1.4612250656 1.4402014631 1.4400319179 
1.4259365597 1.4205305362 1.4181387962 1.3982444167 1.3791454938 1.371349456 1.3712865847 1.3680907019 1.3679713536 
1.3593425432 1.347415316 1.3452981764 1.3442748566 1.3300449563 1.3200613869 1.3152613077 1.3025043285 1.3024014497 
1.3000950211 1.2859526733 1.2855452806 1.2779980913 1.2763117048 1.2738311175 1.272132366 1.2721186664 1.2615867016 
1.2594277442 1.2528966967 1.2505758748 1.2495207478 1.2454035512 1.2471448741 1.2533953788 1.262936836 1.2794862893 
1.279608338 1.2796150326 1.2940500638 1.2971763476 1.307293144 1.3072661717 1.3053772183 1.3058485874 1.304879342 
1.3087848669 1.3091159022 1.3091296954 1.3174906405 1.3198642911 1.3199226595 1.3282640951 1.3291507246 1.3321775926 
1.3348246736 1.3363155744 1.3365406757 1.3448792675 1.3512689386 1.3521505459 1.3538958253 1.3538447073 1.3533318849 
1.3618958774 1.3657611839 1.3687643418 1.3800999642 1.3976979332 1.4050268697 1.4093038626 1.4113403857 1.412386598 
1.4145222935 1.414548434 1.4145485389 1.4157714492 1.4171813321 1.4290216155 1.4304640985 1.4416690383 1.4460345237 
1.443191029 1.4430850263 1.4373600074 1.4335843333 1.431505711 1.4312822049 1.4282803658 1.4174130478 1.4150987587 
1.4164963585 1.4163340386 1.410352638 1.4079627396 1.4074694699 1.4018398524 1.4010081383 1.3971820414 1.3971511858 
1.3904900548 1.3904633033 1.381663635 1.3722707336 1.3706916267 1.3635334154 1.3498067945 1.3496400744 1.3445974622 
1.3444734635 1.3386404166 1.3386169907 1.3380240012 1.3342343155 1.3342037535 1.3245561406 1.314613338 1.3083728747 
1.3063863035 1.3024832503 1.3024675753 1.296914889 1.3113249383 1.3124844667 1.3228263144 1.3242669204 1.3242963205 
1.3404250315 1.3413766856 1.3432970643 1.3400663588 1.3387178488 1.338063791 1.3424665049 1.3430429949 1.342251493 
1.3422080773 1.3427646142 1.3416893754 1.3412931084 1.3588965182 1.3599385588 1.3599774732 1.4034175167 1.409130516 
1.4091975977 1.4087209709 1.4153248353 1.4114630336 1.4001808771 1.3713296576 1.3385483065 1.3351572625 1.3290402069 
1.3167852791 1.3041667486 1.2995193223 1.2821295365 1.2774500683 1.2596947173 1.2533671671 1.2446510357 1.2301199852 
1.2227737765 1.2094912678 1.2043933565 1.1943374326 1.1907409378 1.1886354913 1.1876581157 1.1832029829 1.1827929492 
1.1796895506 1.1788871717 1.1784427592 1.1834580321 1.1872548851 1.187416594 1.1874172434 1.201410051 1.2235113184 
1.2471515783 1.2552295362 1.2783126699 1.2963433024 1.3107139769 1.3173668505 1.3224001547 1.3243541433 1.3293255856 
1.3272052291 1.3273240054 1.3286427587 1.3283342074 1.329191056 1.3302536614 1.3290754087 1.3266828356 1.3245501942 
1.3202425981 1.3201683947 1.3123524139 1.3070502058 1.3053576096 1.2994045243 1.2928843747 1.2839986035 1.2741447332 
1.273860046 1.2643546707 1.2601702236 
METADATA
INFORMATION 0

