<?xml version="1.0"?>
<VTKFile type="UnstructuredGrid"  version="0.1"  >
<UnstructuredGrid>
<Piece  NumberOfPoints="121" NumberOfCells="200">
<Points>
<DataArray  type="Float64"  NumberOfComponents="3"  format="ascii">0 0 0  1 0 0  2 0 0  3 0 0  4 0 0  5 0 0  6 0 0  7 0 0  8 0 0  9 0 0  10 0 0  0 1 0  1 1 0  2 1 0  3 1 0  4 1 0  5 1 0  6 1 0  7 1 0  8 1 0  9 1 0  10 1 0  0 2 0  1 2 0  2 2 0  3 2 0  4 2 0  5 2 0  6 2 0  7 2 0  8 2 0  9 2 0  10 2 0  0 3 0  1 3 0  2 3 0  3 3 0  4 3 0  5 3 0  6 3 0  7 3 0  8 3 0  9 3 0  10 3 0  0 4 0  1 4 0  2 4 0  3 4 0  4 4 0  5 4 0  6 4 0  7 4 0  8 4 0  9 4 0  10 4 0  0 5 0  1 5 0  2 5 0  3 5 0  4 5 0  5 5 0  6 5 0  7 5 0  8 5 0  9 5 0  10 5 0  0 6 0  1 6 0  2 6 0  3 6 0  4 6 0  5 6 0  6 6 0  7 6 0  8 6 0  9 6 0  10 6 0  0 7 0  1 7 0  2 7 0  3 7 0  4 7 0  5 7 0  6 7 0  7 7 0  8 7 0  9 7 0  10 7 0  0 8 0  1 8 0  2 8 0  3 8 0  4 8 0  5 8 0  6 8 0  7 8 0  8 8 0  9 8 0  10 8 0  0 9 0  1 9 0  2 9 0  3 9 0  4 9 0  5 9 0  6 9 0  7 9 0  8 9 0  9 9 0  10 9 0  0 10 0  1 10 0  2 10 0  3 10 0  4 10 0  5 10 0  6 10 0  7 10 0  8 10 0  9 10 0  10 10 0  </DataArray>
</Points>
<Cells>
<DataArray  type="UInt32"  Name="connectivity"  format="ascii">0 1 12  0 11 12  1 2 13  1 12 13  2 3 14  2 13 14  3 4 15  3 14 15  4 5 16  4 15 16  5 6 17  5 16 17  6 7 18  6 17 18  7 8 19  7 18 19  8 9 20  8 19 20  9 10 21  9 20 21  11 12 23  11 22 23  12 13 24  12 23 24  13 14 25  13 24 25  14 15 26  14 25 26  15 16 27  15 26 27  16 17 28  16 27 28  17 18 29  17 28 29  18 19 30  18 29 30  19 20 31  19 30 31  20 21 32  20 31 32  22 23 34  22 33 34  23 24 35  23 34 35  24 25 36  24 35 36  25 26 37  25 36 37  26 27 38  26 37 38  27 28 39  27 38 39  28 29 40  28 39 40  29 30 41  29 40 41  30 31 42  30 41 42  31 32 43  31 42 43  33 34 45  33 44 45  34 35 46  34 45 46  35 36 47  35 46 47  36 37 48  36 47 48  37 38 49  37 48 49  38 39 50  38 49 50  39 40 51  39 50 51  40 41 52  40 51 52  41 42 53  41 52 53  42 43 54  42 53 54  44 45 56  44 55 56  45 46 57  45 56 57  46 47 58  46 57 58  47 48 59  47 58 59  48 49 60  48 59 60  49 50 61  49 60 61  50 51 62  50 61 62  51 52 63  51 62 63  52 53 64  52 63 64  53 54 65  53 64 65  55 56 67  55 66 67  56 57 68  56 67 68  57 58 69  57 68 69  58 59 70  58 69 70  59 60 71  59 70 71  60 61 72  60 71 72  61 62 73  61 72 73  62 63 74  62 73 74  63 64 75  63 74 75  64 65 76  64 75 76  66 67 78  66 77 78  67 68 79  67 78 79  68 69 80  68 79 80  69 70 81  69 80 81  70 71 82  70 81 82  71 72 83  71 82 83  72 73 84  72 83 84  73 74 85  73 84 85  74 75 86  74 85 86  75 76 87  75 86 87  77 78 89  77 88 89  78 79 90  78 89 90  79 80 91  79 90 91  80 81 92  80 91 92  81 82 93  81 92 93  82 83 94  82 93 94  83 84 95  83 94 95  84 85 96  84 95 96  85 86 97  85 96 97  86 87 98  86 97 98  88 89 100  88 99 100  89 90 101  89 100 101  90 91 102  90 101 102  91 92 103  91 102 103  92 93 104  92 103 104  93 94 105  93 104 105  94 95 106  94 105 106  95 96 107  95 106 107  96 97 108  96 107 108  97 98 109  97 108 109  99 100 111  99 110 111  100 101 112  100 111 112  101 102 113  101 112 113  102 103 114  102 113 114  103 104 115  103 114 115  104 105 116  104 115 116  105 106 117  105 116 117  106 107 118  106 117 118  107 108 119  107 118 119  108 109 120  108 119 120  </DataArray>
<DataArray  type="UInt32"  Name="offsets"  format="ascii">3 6 9 12 15 18 21 24 27 30 33 36 39 42 45 48 51 54 57 60 63 66 69 72 75 78 81 84 87 90 93 96 99 102 105 108 111 114 117 120 123 126 129 132 135 138 141 144 147 150 153 156 159 162 165 168 171 174 177 180 183 186 189 192 195 198 201 204 207 210 213 216 219 222 225 228 231 234 237 240 243 246 249 252 255 258 261 264 267 270 273 276 279 282 285 288 291 294 297 300 303 306 309 312 315 318 321 324 327 330 333 336 339 342 345 348 351 354 357 360 363 366 369 372 375 378 381 384 387 390 393 396 399 402 405 408 411 414 417 420 423 426 429 432 435 438 441 444 447 450 453 456 459 462 465 468 471 474 477 480 483 486 489 492 495 498 501 504 507 510 513 516 519 522 525 528 531 534 537 540 543 546 549 552 555 558 561 564 567 570 573 576 579 582 585 588 591 594 597 600 </DataArray>
<DataArray  type="UInt8"  Name="types"  format="ascii">5 5 5 5 5 5 5 5 5 5 5 5 5 5 5 5 5 5 5 5 5 5 5 5 5 5 5 5 5 5 5 5 5 5 5 5 5 5 5 5 5 5 5 5 5 5 5 5 5 5 5 5 5 5 5 5 5 5 5 5 5 5 5 5 5 5 5 5 5 5 5 5 5 5 5 5 5 5 5 5 5 5 5 5 5 5 5 5 5 5 5 5 5 5 5 5 5 5 5 5 5 5 5 5 5 5 5 5 5 5 5 5 5 5 5 5 5 5 5 5 5 5 5 5 5 5 5 5 5 5 5 5 5 5 5 5 5 5 5 5 5 5 5 5 5 5 5 5 5 5 5 5 5 5 5 5 5 5 5 5 5 5 5 5 5 5 5 5 5 5 5 5 5 5 5 5 5 5 5 5 5 5 5 5 5 5 5 5 5 5 5 5 5 5 5 5 5 5 5 5 </DataArray>
</Cells>
<PointData  Vectors="f_7-0"> 
<DataArray  type="Float64"  Name="f_7-0"  NumberOfComponents="3" format="ascii">0.0000000000000000e+00 0.0000000000000000e+00 0.0000000000000000e+00  0.0000000000000000e+00 0.0000000000000000e+00 0.0000000000000000e+00  0.0000000000000000e+00 0.0000000000000000e+00 0.0000000000000000e+00  0.0000000000000000e+00 0.0000000000000000e+00 0.0000000000000000e+00  0.0000000000000000e+00 0.0000000000000000e+00 0.0000000000000000e+00  0.0000000000000000e+00 0.0000000000000000e+00 0.0000000000000000e+00  0.0000000000000000e+00 0.0000000000000000e+00 0.0000000000000000e+00  0.0000000000000000e+00 0.0000000000000000e+00 0.0000000000000000e+00  0.0000000000000000e+00 0.0000000000000000e+00 0.0000000000000000e+00  0.0000000000000000e+00 0.0000000000000000e+00 0.0000000000000000e+00  0.0000000000000000e+00 0.0000000000000000e+00 0.0000000000000000e+00  -3.4577773083078556e-01 -5.2821449966090783e-01 0.0000000000000000e+00  -2.1864056285212072e-01 -2.9285032687811346e-01 0.0000000000000000e+00  -1.4255343814644406e-01 -2.6648115904017294e-01 0.0000000000000000e+00  -8.6891357860908541e-02 -2.5548244853940666e-01 0.0000000000000000e+00  -4.2835830340628225e-02 -2.5211121519607504e-01 0.0000000000000000e+00  -1.2194516770228569e-03 -2.5116151556996841e-01 0.0000000000000000e+00  4.0390483913997348e-02 -2.5193458795368734e-01 0.0000000000000000e+00  8.5295080954953181e-02 -2.5483179572578069e-01 0.0000000000000000e+00  1.3781107766157905e-01 -2.6259068679761560e-01 0.0000000000000000e+00  2.1867522363425287e-01 -2.9213900700416678e-01 0.0000000000000000e+00  3.0113375489422001e-01 -6.1509110048177518e-01 0.0000000000000000e+00  -5.3359130204058358e-01 -8.1259476333022307e-01 0.0000000000000000e+00  -4.0967981792322544e-01 -6.3985166884936540e-01 0.0000000000000000e+00  -2.7514438629946952e-01 -5.6361667393487647e-01 0.0000000000000000e+00  -1.7154273022084859e-01 -5.3754282325738645e-01 0.0000000000000000e+00  -8.4016436602741176e-02 -5.2784420624203054e-01 0.0000000000000000e+00  -2.8666434348097987e-03 -5.2504125139112146e-01 0.0000000000000000e+00  7.8263325651581658e-02 -5.2749996156974222e-01 0.0000000000000000e+00  1.6623349649393809e-01 -5.3697782793457982e-01 0.0000000000000000e+00  2.7087292764543036e-01 -5.6178997204643877e-01 0.0000000000000000e+00  4.1022136080581439e-01 -6.3764189372673474e-01 0.0000000000000000e+00  5.2454139454452731e-01 -7.6396804483150349e-01 0.0000000000000000e+00  -6.4806987309988973e-01 -1.0546685747999702e+00 0.0000000000000000e+00  -5.1492957803335093e-01 -9.5059814053194558e-01 0.0000000000000000e+00  -3.7015765311293608e-01 -8.7567094824456138e-01 0.0000000000000000e+00  -2.3789519671965362e-01 -8.3899454384209471e-01 0.0000000000000000e+00  -1.1794263034958961e-01 -8.2224219026630985e-01 0.0000000000000000e+00  -4.9289917640642066e-03 -8.1741662999134490e-01 0.0000000000000000e+00  1.0815821979723961e-01 -8.2196618101410412e-01 0.0000000000000000e+00  2.2811211376975574e-01 -8.3776164653730678e-01 0.0000000000000000e+00  3.6219131950532391e-01 -8.7143865733665160e-01 0.0000000000000000e+00  5.0506851920214801e-01 -9.3920739229659533e-01 0.0000000000000000e+00  6.3729958487627436e-01 -1.0293462672427784e+00 0.0000000000000000e+00  -6.9658744109029391e-01 -1.3299153771942853e+00 0.0000000000000000e+00  -5.7194991178193322e-01 -1.2485124911651213e+00 0.0000000000000000e+00  -4.2632856414107351e-01 -1.1875019256001309e+00 0.0000000000000000e+00  -2.8131181060749044e-01 -1.1484305160552513e+00 0.0000000000000000e+00  -1.4204193915702226e-01 -1.1284570063070027e+00 0.0000000000000000e+00  -7.2050887567476594e-03 -1.1223738715642748e+00 0.0000000000000000e+00  1.2756554391613653e-01 -1.1281145622889541e+00 0.0000000000000000e+00  2.6694686203263318e-01 -1.1470344533312500e+00 0.0000000000000000e+00  4.1359101835624240e-01 -1.1860821010079254e+00 0.0000000000000000e+00  5.6404660322861699e-01 -1.2451338989770726e+00 0.0000000000000000e+00  7.0344605579621688e-01 -1.3703925746254260e+00 0.0000000000000000e+00  -7.3200397020018637e-01 -1.5707524077942514e+00 0.0000000000000000e+00  -5.9972383044309430e-01 -1.5400387840826069e+00 0.0000000000000000e+00  -4.5528066273539308e-01 -1.4943025076160599e+00 0.0000000000000000e+00  -3.0576460625667518e-01 -1.4602114766012952e+00 0.0000000000000000e+00  -1.5685719927458180e-01 -1.4405477892161551e+00 0.0000000000000000e+00  -9.4106502974296759e-03 -1.4341071508774685e+00 0.0000000000000000e+00  1.3792600453416878e-01 -1.4399380967816939e+00 0.0000000000000000e+00  2.8636024524077702e-01 -1.4590214821351557e+00 0.0000000000000000e+00  4.3150927033294523e-01 -1.4914456096008579e+00 0.0000000000000000e+00  5.7227046967991979e-01 -1.5373798659178108e+00 0.0000000000000000e+00  6.5474619025928438e-01 -1.4473854098583179e+00 0.0000000000000000e+00  -7.3928500297947131e-01 -1.8530939598571925e+00 0.0000000000000000e+00  -6.0791657006795530e-01 -1.8306542017948586e+00 0.0000000000000000e+00  -4.6656266305243155e-01 -1.7986060765554881e+00 0.0000000000000000e+00  -3.1717286394804750e-01 -1.7713069902646634e+00 0.0000000000000000e+00  -1.6463789160281628e-01 -1.7542977561310953e+00 0.0000000000000000e+00  -1.1279189533380293e-02 -1.7484563864188811e+00 0.0000000000000000e+00  1.4193796756146498e-01 -1.7537031846323876e+00 0.0000000000000000e+00  2.9384410790655074e-01 -1.7694378936824349e+00 0.0000000000000000e+00  4.4338827845004436e-01 -1.7927108138369716e+00 0.0000000000000000e+00  5.8054407613646564e-01 -1.8123666460530994e+00 0.0000000000000000e+00  7.3352955598314684e-01 -1.9396603300935626e+00 0.0000000000000000e+00  -7.3986888772627535e-01 -2.1363434797415288e+00 0.0000000000000000e+00  -6.1031483348509219e-01 -2.1199099039470908e+00 0.0000000000000000e+00  -4.6911169721881213e-01 -2.1000868927426244e+00 0.0000000000000000e+00  -3.2096049734287524e-01 -2.0806357235929367e+00 0.0000000000000000e+00  -1.6792728700630588e-01 -2.0675799080458583e+00 0.0000000000000000e+00  -1.2780107590756592e-02 -2.0629370682640951e+00 0.0000000000000000e+00  1.4216769225925197e-01 -2.0670082180530369e+00 0.0000000000000000e+00  2.9540376554589914e-01 -2.0792384091609564e+00 0.0000000000000000e+00  4.4557144639535984e-01 -2.0992671868398052e+00 0.0000000000000000e+00  6.0015532432472019e-01 -2.1233673294636479e+00 0.0000000000000000e+00  7.2916213937722141e-01 -2.1287741114143746e+00 0.0000000000000000e+00  -7.4241294976432159e-01 -2.4052115234769675e+00 0.0000000000000000e+00  -6.0657340341241628e-01 -2.4134181739740583e+00 0.0000000000000000e+00  -4.6760177988077217e-01 -2.4008652257212963e+00 0.0000000000000000e+00  -3.2095388534306368e-01 -2.3882931816729442e+00 0.0000000000000000e+00  -1.6883959195990431e-01 -2.3795217651558676e+00 0.0000000000000000e+00  -1.3877698696516184e-02 -2.3763311140113323e+00 0.0000000000000000e+00  1.4095850621811967e-01 -2.3790460380168184e+00 0.0000000000000000e+00  2.9276943558121837e-01 -2.3873674861757568e+00 0.0000000000000000e+00  4.3570017519319004e-01 -2.3991121546575185e+00 0.0000000000000000e+00  5.6863585326836585e-01 -2.4127436013052166e+00 0.0000000000000000e+00  6.6439906848120966e-01 -2.3001465820326907e+00 0.0000000000000000e+00  -7.3475023987561550e-01 -2.7151796667094854e+00 0.0000000000000000e+00  -6.0270132163677281e-01 -2.7059027691233712e+00 0.0000000000000000e+00  -4.6503818365421257e-01 -2.7006169300815048e+00 0.0000000000000000e+00  -3.1995341987724391e-01 -2.6944813818442510e+00 0.0000000000000000e+00  -1.6882377399693169e-01 -2.6901508351886947e+00 0.0000000000000000e+00  -1.4479466078447720e-02 -2.6885245333779104e+00 0.0000000000000000e+00  1.3980736306687422e-01 -2.6898500267128451e+00 0.0000000000000000e+00  2.9075762743284428e-01 -2.6935230799696090e+00 0.0000000000000000e+00  4.3557090945991261e-01 -2.6980106425167669e+00 0.0000000000000000e+00  5.6857107852114563e-01 -2.6959713336868454e+00 0.0000000000000000e+00  7.2432867952894042e-01 -2.8129646419692813e+00 0.0000000000000000e+00  -7.3675288535776517e-01 -3.0000000000000000e+00 0.0000000000000000e+00  -6.0314829594712871e-01 -3.0000000000000000e+00 0.0000000000000000e+00  -4.6435556493762481e-01 -3.0000000000000000e+00 0.0000000000000000e+00  -3.1947401296943906e-01 -3.0000000000000000e+00 0.0000000000000000e+00  -1.6871677076199418e-01 -3.0000000000000000e+00 0.0000000000000000e+00  -1.4661790059392447e-02 -3.0000000000000000e+00 0.0000000000000000e+00  1.3938920934490528e-01 -3.0000000000000000e+00 0.0000000000000000e+00  2.9081021004681329e-01 -3.0000000000000000e+00 0.0000000000000000e+00  4.3797834307053574e-01 -3.0000000000000000e+00 0.0000000000000000e+00  5.9310716377931094e-01 -3.0000000000000000e+00 0.0000000000000000e+00  7.0200401335584484e-01 -3.0000000000000000e+00 0.0000000000000000e+00  </DataArray> 
</PointData> 
</Piece>
</UnstructuredGrid>
</VTKFile>