<?xml version="1.0"?>
<VTKFile type="UnstructuredGrid"  version="0.1"  >
<UnstructuredGrid>
<Piece  NumberOfPoints="961" NumberOfCells="1800">
<Points>
<DataArray  type="Float64"  NumberOfComponents="3"  format="ascii">0 0 0  0.3333333333333333 0 0  0.6666666666666666 0 0  1 0 0  1.333333333333333 0 0  1.666666666666667 0 0  2 0 0  2.333333333333333 0 0  2.666666666666667 0 0  3 0 0  3.333333333333333 0 0  3.666666666666667 0 0  4 0 0  4.333333333333333 0 0  4.666666666666667 0 0  5 0 0  5.333333333333333 0 0  5.666666666666667 0 0  6 0 0  6.333333333333333 0 0  6.666666666666667 0 0  7 0 0  7.333333333333333 0 0  7.666666666666667 0 0  8 0 0  8.333333333333334 0 0  8.666666666666666 0 0  9 0 0  9.333333333333334 0 0  9.666666666666666 0 0  10 0 0  0 0.3333333333333333 0  0.3333333333333333 0.3333333333333333 0  0.6666666666666666 0.3333333333333333 0  1 0.3333333333333333 0  1.333333333333333 0.3333333333333333 0  1.666666666666667 0.3333333333333333 0  2 0.3333333333333333 0  2.333333333333333 0.3333333333333333 0  2.666666666666667 0.3333333333333333 0  3 0.3333333333333333 0  3.333333333333333 0.3333333333333333 0  3.666666666666667 0.3333333333333333 0  4 0.3333333333333333 0  4.333333333333333 0.3333333333333333 0  4.666666666666667 0.3333333333333333 0  5 0.3333333333333333 0  5.333333333333333 0.3333333333333333 0  5.666666666666667 0.3333333333333333 0  6 0.3333333333333333 0  6.333333333333333 0.3333333333333333 0  6.666666666666667 0.3333333333333333 0  7 0.3333333333333333 0  7.333333333333333 0.3333333333333333 0  7.666666666666667 0.3333333333333333 0  8 0.3333333333333333 0  8.333333333333334 0.3333333333333333 0  8.666666666666666 0.3333333333333333 0  9 0.3333333333333333 0  9.333333333333334 0.3333333333333333 0  9.666666666666666 0.3333333333333333 0  10 0.3333333333333333 0  0 0.6666666666666666 0  0.3333333333333333 0.6666666666666666 0  0.6666666666666666 0.6666666666666666 0  1 0.6666666666666666 0  1.333333333333333 0.6666666666666666 0  1.666666666666667 0.6666666666666666 0  2 0.6666666666666666 0  2.333333333333333 0.6666666666666666 0  2.666666666666667 0.6666666666666666 0  3 0.6666666666666666 0  3.333333333333333 0.6666666666666666 0  3.666666666666667 0.6666666666666666 0  4 0.6666666666666666 0  4.333333333333333 0.6666666666666666 0  4.666666666666667 0.6666666666666666 0  5 0.6666666666666666 0  5.333333333333333 0.6666666666666666 0  5.666666666666667 0.6666666666666666 0  6 0.6666666666666666 0  6.333333333333333 0.6666666666666666 0  6.666666666666667 0.6666666666666666 0  7 0.6666666666666666 0  7.333333333333333 0.6666666666666666 0  7.666666666666667 0.6666666666666666 0  8 0.6666666666666666 0  8.333333333333334 0.6666666666666666 0  8.666666666666666 0.6666666666666666 0  9 0.6666666666666666 0  9.333333333333334 0.6666666666666666 0  9.666666666666666 0.6666666666666666 0  10 0.6666666666666666 0  0 1 0  0.3333333333333333 1 0  0.6666666666666666 1 0  1 1 0  1.333333333333333 1 0  1.666666666666667 1 0  2 1 0  2.333333333333333 1 0  2.666666666666667 1 0  3 1 0  3.333333333333333 1 0  3.666666666666667 1 0  4 1 0  4.333333333333333 1 0  4.666666666666667 1 0  5 1 0  5.333333333333333 1 0  5.666666666666667 1 0  6 1 0  6.333333333333333 1 0  6.666666666666667 1 0  7 1 0  7.333333333333333 1 0  7.666666666666667 1 0  8 1 0  8.333333333333334 1 0  8.666666666666666 1 0  9 1 0  9.333333333333334 1 0  9.666666666666666 1 0  10 1 0  0 1.333333333333333 0  0.3333333333333333 1.333333333333333 0  0.6666666666666666 1.333333333333333 0  1 1.333333333333333 0  1.333333333333333 1.333333333333333 0  1.666666666666667 1.333333333333333 0  2 1.333333333333333 0  2.333333333333333 1.333333333333333 0  2.666666666666667 1.333333333333333 0  3 1.333333333333333 0  3.333333333333333 1.333333333333333 0  3.666666666666667 1.333333333333333 0  4 1.333333333333333 0  4.333333333333333 1.333333333333333 0  4.666666666666667 1.333333333333333 0  5 1.333333333333333 0  5.333333333333333 1.333333333333333 0  5.666666666666667 1.333333333333333 0  6 1.333333333333333 0  6.333333333333333 1.333333333333333 0  6.666666666666667 1.333333333333333 0  7 1.333333333333333 0  7.333333333333333 1.333333333333333 0  7.666666666666667 1.333333333333333 0  8 1.333333333333333 0  8.333333333333334 1.333333333333333 0  8.666666666666666 1.333333333333333 0  9 1.333333333333333 0  9.333333333333334 1.333333333333333 0  9.666666666666666 1.333333333333333 0  10 1.333333333333333 0  0 1.666666666666667 0  0.3333333333333333 1.666666666666667 0  0.6666666666666666 1.666666666666667 0  1 1.666666666666667 0  1.333333333333333 1.666666666666667 0  1.666666666666667 1.666666666666667 0  2 1.666666666666667 0  2.333333333333333 1.666666666666667 0  2.666666666666667 1.666666666666667 0  3 1.666666666666667 0  3.333333333333333 1.666666666666667 0  3.666666666666667 1.666666666666667 0  4 1.666666666666667 0  4.333333333333333 1.666666666666667 0  4.666666666666667 1.666666666666667 0  5 1.666666666666667 0  5.333333333333333 1.666666666666667 0  5.666666666666667 1.666666666666667 0  6 1.666666666666667 0  6.333333333333333 1.666666666666667 0  6.666666666666667 1.666666666666667 0  7 1.666666666666667 0  7.333333333333333 1.666666666666667 0  7.666666666666667 1.666666666666667 0  8 1.666666666666667 0  8.333333333333334 1.666666666666667 0  8.666666666666666 1.666666666666667 0  9 1.666666666666667 0  9.333333333333334 1.666666666666667 0  9.666666666666666 1.666666666666667 0  10 1.666666666666667 0  0 2 0  0.3333333333333333 2 0  0.6666666666666666 2 0  1 2 0  1.333333333333333 2 0  1.666666666666667 2 0  2 2 0  2.333333333333333 2 0  2.666666666666667 2 0  3 2 0  3.333333333333333 2 0  3.666666666666667 2 0  4 2 0  4.333333333333333 2 0  4.666666666666667 2 0  5 2 0  5.333333333333333 2 0  5.666666666666667 2 0  6 2 0  6.333333333333333 2 0  6.666666666666667 2 0  7 2 0  7.333333333333333 2 0  7.666666666666667 2 0  8 2 0  8.333333333333334 2 0  8.666666666666666 2 0  9 2 0  9.333333333333334 2 0  9.666666666666666 2 0  10 2 0  0 2.333333333333333 0  0.3333333333333333 2.333333333333333 0  0.6666666666666666 2.333333333333333 0  1 2.333333333333333 0  1.333333333333333 2.333333333333333 0  1.666666666666667 2.333333333333333 0  2 2.333333333333333 0  2.333333333333333 2.333333333333333 0  2.666666666666667 2.333333333333333 0  3 2.333333333333333 0  3.333333333333333 2.333333333333333 0  3.666666666666667 2.333333333333333 0  4 2.333333333333333 0  4.333333333333333 2.333333333333333 0  4.666666666666667 2.333333333333333 0  5 2.333333333333333 0  5.333333333333333 2.333333333333333 0  5.666666666666667 2.333333333333333 0  6 2.333333333333333 0  6.333333333333333 2.333333333333333 0  6.666666666666667 2.333333333333333 0  7 2.333333333333333 0  7.333333333333333 2.333333333333333 0  7.666666666666667 2.333333333333333 0  8 2.333333333333333 0  8.333333333333334 2.333333333333333 0  8.666666666666666 2.333333333333333 0  9 2.333333333333333 0  9.333333333333334 2.333333333333333 0  9.666666666666666 2.333333333333333 0  10 2.333333333333333 0  0 2.666666666666667 0  0.3333333333333333 2.666666666666667 0  0.6666666666666666 2.666666666666667 0  1 2.666666666666667 0  1.333333333333333 2.666666666666667 0  1.666666666666667 2.666666666666667 0  2 2.666666666666667 0  2.333333333333333 2.666666666666667 0  2.666666666666667 2.666666666666667 0  3 2.666666666666667 0  3.333333333333333 2.666666666666667 0  3.666666666666667 2.666666666666667 0  4 2.666666666666667 0  4.333333333333333 2.666666666666667 0  4.666666666666667 2.666666666666667 0  5 2.666666666666667 0  5.333333333333333 2.666666666666667 0  5.666666666666667 2.666666666666667 0  6 2.666666666666667 0  6.333333333333333 2.666666666666667 0  6.666666666666667 2.666666666666667 0  7 2.666666666666667 0  7.333333333333333 2.666666666666667 0  7.666666666666667 2.666666666666667 0  8 2.666666666666667 0  8.333333333333334 2.666666666666667 0  8.666666666666666 2.666666666666667 0  9 2.666666666666667 0  9.333333333333334 2.666666666666667 0  9.666666666666666 2.666666666666667 0  10 2.666666666666667 0  0 3 0  0.3333333333333333 3 0  0.6666666666666666 3 0  1 3 0  1.333333333333333 3 0  1.666666666666667 3 0  2 3 0  2.333333333333333 3 0  2.666666666666667 3 0  3 3 0  3.333333333333333 3 0  3.666666666666667 3 0  4 3 0  4.333333333333333 3 0  4.666666666666667 3 0  5 3 0  5.333333333333333 3 0  5.666666666666667 3 0  6 3 0  6.333333333333333 3 0  6.666666666666667 3 0  7 3 0  7.333333333333333 3 0  7.666666666666667 3 0  8 3 0  8.333333333333334 3 0  8.666666666666666 3 0  9 3 0  9.333333333333334 3 0  9.666666666666666 3 0  10 3 0  0 3.333333333333333 0  0.3333333333333333 3.333333333333333 0  0.6666666666666666 3.333333333333333 0  1 3.333333333333333 0  1.333333333333333 3.333333333333333 0  1.666666666666667 3.333333333333333 0  2 3.333333333333333 0  2.333333333333333 3.333333333333333 0  2.666666666666667 3.333333333333333 0  3 3.333333333333333 0  3.333333333333333 3.333333333333333 0  3.666666666666667 3.333333333333333 0  4 3.333333333333333 0  4.333333333333333 3.333333333333333 0  4.666666666666667 3.333333333333333 0  5 3.333333333333333 0  5.333333333333333 3.333333333333333 0  5.666666666666667 3.333333333333333 0  6 3.333333333333333 0  6.333333333333333 3.333333333333333 0  6.666666666666667 3.333333333333333 0  7 3.333333333333333 0  7.333333333333333 3.333333333333333 0  7.666666666666667 3.333333333333333 0  8 3.333333333333333 0  8.333333333333334 3.333333333333333 0  8.666666666666666 3.333333333333333 0  9 3.333333333333333 0  9.333333333333334 3.333333333333333 0  9.666666666666666 3.333333333333333 0  10 3.333333333333333 0  0 3.666666666666667 0  0.3333333333333333 3.666666666666667 0  0.6666666666666666 3.666666666666667 0  1 3.666666666666667 0  1.333333333333333 3.666666666666667 0  1.666666666666667 3.666666666666667 0  2 3.666666666666667 0  2.333333333333333 3.666666666666667 0  2.666666666666667 3.666666666666667 0  3 
[...]
<PointData  Vectors="f_7-0"> 
<DataArray  type="Float64"  Name="f_7-0"  NumberOfComponents="3" format="ascii">0.0000000000000000e+00 0.0000000000000000e+00 0.0000000000000000e+00  0.0000000000000000e+00 0.0000000000000000e+00 0.0000000000000000e+00  0.0000000000000000e+00 0.0000000000000000e+00 0.0000000000000000e+00  0.0000000000000000e+00 0.0000000000000000e+00 0.0000000000000000e+00  0.0000000000000000e+00 0.0000000000000000e+00 0.0000000000000000e+00  0.0000000000000000e+00 0.0000000000000000e+00 0.0000000000000000e+00  0.0000000000000000e+00 0.0000000000000000e+00 0.0000000000000000e+00  0.0000000000000000e+00 0.0000000000000000e+00 0.0000000000000000e+00  0.0000000000000000e+00 0.0000000000000000e+00 0.0000000000000000e+00  0.0000000000000000e+00 0.0000000000000000e+00 0.0000000000000000e+00  0.0000000000000000e+00 0.0000000000000000e+00 0.0000000000000000e+00  0.0000000000000000e+00 0.0000000000000000e+00 0.0000000000000000e+00  0.0000000000000000e+00 0.0000000000000000e+00 0.0000000000000000e+00  0.0000000000000000e+00 0.0000000000000000e+00 0.0000000000000000e+00  0.0000000000000000e+00 0.0000000000000000e+00 0.0000000000000000e+00  0.0000000000000000e+00 0.0000000000000000e+00 0.0000000000000000e+00  0.0000000000000000e+00 0.0000000000000000e+00 0.0000000000000000e+00  0.0000000000000000e+00 0.0000000000000000e+00 0.0000000000000000e+00  0.0000000000000000e+00 0.0000000000000000e+00 0.0000000000000000e+00  0.0000000000000000e+00 0.0000000000000000e+00 0.0000000000000000e+00  0.0000000000000000e+00 0.0000000000000000e+00 0.0000000000000000e+00  0.0000000000000000e+00 0.0000000000000000e+00 0.0000000000000000e+00  0.0000000000000000e+00 0.0000000000000000e+00 0.0000000000000000e+00  0.0000000000000000e+00 0.0000000000000000e+00 0.0000000000000000e+00  0.0000000000000000e+00 0.0000000000000000e+00 0.0000000000000000e+00  0.0000000000000000e+00 0.0000000000000000e+00 0.0000000000000000e+00  0.0000000000000000e+00 0.0000000000000000e+00 0.0000000000000000e+00  0.0000000000000000e+00 0.0000000000000000e+00 0.0000000000000000e+00  0.0000000000000000e+00 0.0000000000000000e+00 0.0000000000000000e+00  0.0000000000000000e+00 0.0000000000000000e+00 0.0000000000000000e+00  0.0000000000000000e+00 0.0000000000000000e+00 0.0000000000000000e+00  -1.1081716260304125e-01 -2.6055020996462208e-01 0.0000000000000000e+00  -1.0006628962048399e-01 -1.2301395922432555e-01 0.0000000000000000e+00  -8.0050009222508905e-02 -9.9498367355940753e-02 0.0000000000000000e+00  -6.9080042666775199e-02 -9.1933304852761327e-02 0.0000000000000000e+00  -6.0439264185584665e-02 -8.8075423388677299e-02 0.0000000000000000e+00  -5.2955796882388641e-02 -8.5755408421973559e-02 0.0000000000000000e+00  -4.6237309854287652e-02 -8.4255288051287985e-02 0.0000000000000000e+00  -4.0077229959824406e-02 -8.3242608449527869e-02 0.0000000000000000e+00  -3.4341935118312412e-02 -8.2538819256703061e-02 0.0000000000000000e+00  -2.8935918395666661e-02 -8.2040355820000299e-02 0.0000000000000000e+00  -2.3786507592702368e-02 -8.1684060082779619e-02 0.0000000000000000e+00  -1.8835652688821772e-02 -8.1430071077780553e-02 0.0000000000000000e+00  -1.4034994551928115e-02 -8.1252735402405629e-02 0.0000000000000000e+00  -9.3426784221048061e-03 -8.1135544792060116e-02 0.0000000000000000e+00  -4.7211586768839617e-03 -8.1068243055145303e-02 0.0000000000000000e+00  -1.3558173737161319e-04 -8.1045187210304362e-02 0.0000000000000000e+00  4.4474983972414917e-03 -8.1064502267992833e-02 0.0000000000000000e+00  9.0612305983502374e-03 -8.1127811236927500e-02 0.0000000000000000e+00  1.3739517338116366e-02 -8.1240473423580650e-02 0.0000000000000000e+00  1.8518100389960844e-02 -8.1412389239041566e-02 0.0000000000000000e+00  2.3435771631919913e-02 -8.1659577211169856e-02 0.0000000000000000e+00  2.8535801636740805e-02 -8.2006960218347566e-02 0.0000000000000000e+00  3.3867675651179971e-02 -8.2493226273478923e-02 0.0000000000000000e+00  3.9489194371414793e-02 -8.3179504486091072e-02 0.0000000000000000e+00  4.5468933268557304e-02 -8.4165540048894663e-02 0.0000000000000000e+00  5.1889313982977192e-02 -8.5621860700229480e-02 0.0000000000000000e+00  5.8853678443720955e-02 -8.7860921388240462e-02 0.0000000000000000e+00  6.6521390397472915e-02 -9.1531883490263699e-02 0.0000000000000000e+00  7.5433588264592705e-02 -9.8422535251707383e-02 0.0000000000000000e+00  9.0900603290387391e-02 -1.1764357625642642e-01 0.0000000000000000e+00  1.0686544386499165e-01 -2.5292802504370177e-01 0.0000000000000000e+00  -2.5235850886499356e-01 -4.2038018420174633e-01 0.0000000000000000e+00  -2.2383956145638043e-01 -2.7020935774848343e-01 0.0000000000000000e+00  -1.7905665767578866e-01 -2.1500803273111918e-01 0.0000000000000000e+00  -1.4867908236647440e-01 -1.9313605797424330e-01 0.0000000000000000e+00  -1.2686623136080891e-01 -1.8254767015141346e-01 0.0000000000000000e+00  -1.0950535809905823e-01 -1.7654114593238265e-01 0.0000000000000000e+00  -9.4721148650900686e-02 -1.7277712283524829e-01 0.0000000000000000e+00  -8.1598106042569410e-02 -1.7027011079733095e-01 0.0000000000000000e+00  -6.9627766966382953e-02 -1.6853428521113167e-01 0.0000000000000000e+00  -5.8494561683288829e-02 -1.6730298256574677e-01 0.0000000000000000e+00  -4.7984264912049650e-02 -1.6641903402046573e-01 0.0000000000000000e+00  -3.7940334567807835e-02 -1.6578536287991391e-01 0.0000000000000000e+00  -2.8240984242883595e-02 -1.6534035496867239e-01 0.0000000000000000e+00  -1.8786078599827304e-02 -1.6504470552043013e-01 0.0000000000000000e+00  -9.4890158360487285e-03 -1.6487410944312067e-01 0.0000000000000000e+00  -2.7124954745891397e-04 -1.6481519302574879e-01 0.0000000000000000e+00  8.9418012308160270e-03 -1.6486343125825384e-01 0.0000000000000000e+00  1.8224206071627381e-02 -1.6502246821798594e-01 0.0000000000000000e+00  2.7652887279428134e-02 -1.6530465885265977e-01 0.0000000000000000e+00  3.7311416035966084e-02 -1.6573297201829723e-01 0.0000000000000000e+00  4.7294912381429847e-02 -1.6634477524571159e-01 0.0000000000000000e+00  5.7717135960916703e-02 -1.6719864021371122e-01 0.0000000000000000e+00  6.8721814741936268e-02 -1.6838652282870439e-01 0.0000000000000000e+00  8.0502535138030185e-02 -1.7005638418580796e-01 0.0000000000000000e+00  9.3341330627484231e-02 -1.7245717707910965e-01 0.0000000000000000e+00  1.0769224721427616e-01 -1.7603822991206958e-01 0.0000000000000000e+00  1.2438428126422134e-01 -1.8170532257986749e-01 0.0000000000000000e+00  1.4516446554179868e-01 -1.9163093971149248e-01 0.0000000000000000e+00  1.7408022259785066e-01 -2.1243286212487586e-01 0.0000000000000000e+00  2.1698834934736233e-01 -2.6871817669012860e-01 0.0000000000000000e+00  2.4418517614771931e-01 -4.2036970899024256e-01 0.0000000000000000e+00  -3.5426429067983500e-01 -5.2853195998504154e-01 0.0000000000000000e+00  -3.2005572525682308e-01 -4.1010177825969224e-01 0.0000000000000000e+00  -2.7108260628392294e-01 -3.3839285478110864e-01 0.0000000000000000e+00  -2.2804638022452384e-01 -3.0250509985785551e-01 0.0000000000000000e+00  -1.9425225766385851e-01 -2.8355416440864978e-01 0.0000000000000000e+00  -1.6692349143684301e-01 -2.7258643527025450e-01 0.0000000000000000e+00  -1.4379425588956710e-01 -2.6571975400070913e-01 0.0000000000000000e+00  -1.2346884317458622e-01 -2.6116383795866704e-01 0.0000000000000000e+00  -1.0509502407968127e-01 -2.5801637215628281e-01 0.0000000000000000e+00  -8.8126680497464166e-02 -2.5578404897159246e-01 0.0000000000000000e+00  -7.2192243253326058e-02 -2.5417923798597131e-01 0.0000000000000000e+00  -5.7023310610522723e-02 -2.5302620244912610e-01 0.0000000000000000e+00  -4.2414579107430864e-02 -2.5221440409082835e-01 0.0000000000000000e+00  -2.8200172362294707e-02 -2.5167380525782984e-01 0.0000000000000000e+00  -1.4238773556701221e-02 -2.5136129325462042e-01 0.0000000000000000e+00  -4.0355704025884397e-04 -2.5125319576810951e-01 0.0000000000000000e+00  1.3425331521016723e-02 -2.5134147423940212e-01 0.0000000000000000e+00  2.7367154526510784e-02 -2.5163248469775618e-01 0.0000000000000000e+00  4.1546882043383790e-02 -2.5214796441060011e-01 0.0000000000000000e+00  5.6102460770802748e-02 -2.5292851979254766e-01 0.0000000000000000e+00  7.1194427666797053e-02 -2.5404063565091561e-01 0.0000000000000000e+00  8.7020076421186573e-02 -2.5558947119617204e-01 0.0000000000000000e+00  1.0383617598782281e-01 -2.5774222083731674e-01 0.0000000000000000e+00  1.2199801978867628e-01 -2.6077251567173676e-01 0.0000000000000000e+00  1.4203051225793500e-01 -2.6515057615402082e-01 0.0000000000000000e+00  1.6476246944703338e-01 -2.7174273164447571e-01 0.0000000000000000e+00  1.9157482958974681e-01 -2.8229785327729651e-01 0.0000000000000000e+00  2.2475079211352009e-01 -3.0072882853694166e-01 0.0000000000000000e+00  2.6711533015109651e-01 -3.3637661828804150e-01 0.0000000000000000e+00  3.1616299794284336e-01 -4.0860110295428836e-01 0.0000000000000000e+00  3.4922520786875433e-01 -5.3028574791074090e-01 0.0000000000000000e+00  -4.2887960883210041e-01 -6.2425897723254897e-01 0.0000000000000000e+00  -3.9373051346172450e-01 -5.3013447879471265e-01 0.0000000000000000e+00  -3.4641880669375058e-01 -4.5927620122108942e-01 0.0000000000000000e+00  -2.9895873043257959e-01 -4.1537099680909717e-01 0.0000000000000000e+00  -2.5744042661339628e-01 -3.8917058605276728e-01 0.0000000000000000e+00  -2.2205403000059185e-01 -3.7305220826075247e-01 0.0000000000000000e+00  -1.9145121128883658e-01 -3.6266567866728255e-01 0.0000000000000000e+00  -1.6435588110690627e-01 -3.5567786366224080e-01 0.0000000000000000e+00  -1.3982218103009747e-01 -3.5081392631263281e-01 0.0000000000000000e+00  -1.1717828333488767e-01 -3.4734750129438824e-01 0.0000000000000000e+00  -9.5940551908524768e-02 -3.4484638711310484e-01 0.0000000000000000e+00  -7.5748937573670044e-02 -3.4304397692403332e-01 0.0000000000000000e+00  -5.6323930576926591e-02 -3.4177186243386543e-01 0.0000000000000000e+00  -3.7438339333404035e-02 -3.4092316206687034e-01 0.0000000000000000e+00  -1.8898317387197928e-02 -3.4043205492256773e-01 0.0000000000000000e+00  -5.2990610002049982e-04 -3.4026241135330582e-01 0.0000000000000000e+00  1.7831339591049600e-02 -3.4040199643835073e-01 0.0000000000000000e+00  3.6349329143758102e-02 -3.4086059894309773e-01 0.0000000000000000e+00  5.5196375223514345e-02 -3.4167158530023700e-01 0.0000000000000000e+00  7.4563458009565750e-02 -3.4289731940075746e-01 0.0000000000000000e+00  9.4673534794157022e-02 -3.4464002888299466e-01 0.0000000000000000e+00  1.1580042470274247e-01 -3.4706157252593478e-01 0.0000000000000000e+00  1.3829725354553632e-01 -3.5041919986258047e-01 0.0000000000000000e+00  1.6264062503306878e-01 -3.5513208492001852e-01 0.0000000000000000e+00  1.8949843503562050e-01 -3.6191044758409424e-01 0.0000000000000000e+00  2.1982284761490653e-01 -3.7201684214309816e-01 0.0000000000000000e+00  2.5491904411388694e-01 -3.8780393732073160e-01 0.0000000000000000e+00  2.9620729448378846e-01 -4.1374500331008596e-01 0.0000000000000000e+00  3.4367256296164289e-01 -4.5772815726808680e-01 0.0000000000000000e+00  3.9148572454853470e-01 -5.2924808059957040e-01 0.0000000000000000e+00  4.2595188023218034e-01 -6.2515099820374342e-01 0.0000000000000000e+00  -4.8842026972982072e-01 -7.1527831738849468e-01 0.0000000000000000e+00  -4.5265668850213464e-01 -6.3789331430630380e-01 0.0000000000000000e+00  -4.0718883467990569e-01 -5.7357704131076037e-01 0.0000000000000000e+00  -3.5896407648331391e-01 -5.2755216566938568e-01 0.0000000000000000e+00  -3.1345693108165984e-01 -4.9681756521020948e-01 0.0000000000000000e+00  -2.7250841356059130e-01 -4.7647100877656368e-01 0.0000000000000000e+00  -2.3594496093739492e-01 -4.6275730876398280e-01 0.0000000000000000e+00  -2.0300399373259953e-01 -4.5327586597562536e-01 0.0000000000000000e+00  -1.7290373894523708e-01 -4.4656295341226870e-01 0.0000000000000000e+00  -1.4499152934883799e-01 -4.4172534790611068e-01 0.0000000000000000e+00  -1.1875077578025361e-01 -4.3820822333232973e-01 0.0000000000000000e+00  -9.3773562271096872e-02 -4.3565993275919246e-01 0.0000000000000000e+00  -6.9731223836840300e-02 -4.3385449908155116e-01 0.0000000000000000e+00  -4.6350311517398220e-02 -4.3264693707637975e-01 0.0000000000000000e+00  -2.3394153386994122e-02 -4.3194737204938238e-01 0.0000000000000000e+00  -6.4857404225977864e-04 -4.3170632261594216e-01 0.0000000000000000e+00  2.2089780969596309e-02 -4.3190710540382588e-01 0.0000000000000000e+00  4.5023887021860894e-02 -4.3256339988774900e-01 0.0000000000000000e+00  6.8366792900538875e-02 -4.3372137937198790e-01 0.0000000000000000e+00  9.2353349275932486e-02 -4.3546697793026518e-01 0.0000000000000000e+00  1.1725465836168507e-01 -4.3794024947621674e-01 0.0000000000000000e+00  1.4339695984670864e-01 -4.4136091918318210e-01 0.0000000000000000e+00  1.7118669899644343e-01 -4.4607300458759391e-01 0.0000000000000000e+00  2.0114208254061738e-01 -4.5262328700092408e-01 0.0000000000000000e+00  2.3392438438289481e-01 -4.6190044832117128e-01 0.0000000000000000e+00  2.7033704142730924e-01 -4.7537816873416788e-01 0.0000000000000000e+00  3.1118487052659288e-01 -4.9550437200049968e-01 0.0000000000000000e+00  3.5671095233098865e-01 -5.2614281379709971e-01 0.0000000000000000e+00  4.0516968692008487e-01 -5.7233553411766380e-01 0.0000000000000000e+00  4.5095649820703404e-01 -6.3726936145233914e-01 0.0000000000000000e+00  4.8627263653124936e-01 -7.1541433824963740e-01 0.0000000000000000e+00  -5.3749795741203799e-01 -8.0321432074061816e-01 0.0000000000000000e+00  -5.0096945971953022e-01 -7.3860714977963260e-01 0.0000000000000000e+00  -4.5666039458397117e-01 -6.8175782143492936e-01 0.0000000000000000e+00  -4.0878207857862975e-01 -6.3712305645534972e-01 0.0000000000000000e+00  -3.6149359982249663e-01 -6.0451763030280004e-01 0.0000000000000000e+00  -3.1706642329309015e-01 -5.8137713853658501e-01 0.0000000000000000e+00  -2.7612459791441324e-01 -5.6498935691427821e-01 0.0000000000000000e+00  -2.3846315269051221e-01 -5.5326705976698631e-01 0.0000000000000000e+00  -2.0359462096052455e-01 -5.4477211700360273e-01 0.0000000000000000e+00  -1.7099596451456536e-01 -5.3855098653779399e-01 0.0000000000000000e+00  -1.4019393037878344e-01 -5.3397669745412857e-01 0.0000000000000000e+00  -1.1078240960544389e-01 -5.3063598191436345e-01 0.0000000000000000e+00  -8.2415767154452771e-02 -5.2825597807690594e-01 0.0000000000000000e+00  -5.4795691210969444e-02 -5.2665835879643363e-01 0.0000000000000000e+00  -2.7657672466608465e-02 -5.2573124709337249e-01 0.0000000000000000e+00  -7.5873902708413477e-04 -5.2541265542898030e-01 0.0000000000000000e+00  2.6133564084624892e-02 -5.2568176083669838e-01 0.0000000000000000e+00  5.3251514444585590e-02 -5.2655611530844448e-01 0.0000000000000000e+00  8.0837601858050251e-02 -5.2809421179053706e-01 0.0000000000000000e+00  1.0915572280470956e-01 -5.3040400666875898e-01 0.0000000000000000e+00  1.3850381935334061e-01 -5.3365935591956859e-01 0.0000000000000000e+00  1.6922811415671557e-01 -5.3812820440988296e-01 0.0000000000000000e+00  2.0173752333670983e-01 -5.4421915244317609e-01 0.0000000000000000e+00  2.3651235508978366e-01 -5.5255680140709240e-01 0.0000000000000000e+00  2.7408975613672826e-01 -5.6409935479540096e-01 0.0000000000000000e+00  3.1498121571744625e-01 -5.8030539912691637e-01 0.0000000000000000e+00  3.5942623404862106e-01 -6.0330907206482987e-01 0.0000000000000000e+00  4.0683869407048046e-01 -6.3589539209298740e-01 0.0000000000000000e+00  4.5494780839463378e-01 -6.8070822034668177e-01 0.0000000000000000e+00  4.9940012666191075e-01 -7.3798576654342918e-01 0.0000000000000000e+00  5.3563744781294653e-01 -8.0289269233774874e-01 0.0000000000000000e+00  -5.7815108388855874e-01 -8.8915398919356337e-01 0.0000000000000000e+00  -5.4087130883614398e-01 -8.3501398210900213e-01 0.0000000000000000e+00  -4.9721021307507735e-01 -7.8531509781315112e-01 0.0000000000000000e+00  -4.4988109495275902e-01 -7.4373184191157637e-01 0.0000000000000000e+00  -4.0191695787885090e-01 -7.1119433269057952e-01 0.0000000000000000e+00  -3.5544373058548018e-01 -6.8666907599071603e-01 0.0000000000000000e+00  -3.1145629162511074e-01 -6.6845486364524209e-01 0.0000000000000000e+00  -2.7016604686332069e-01 -6.5495216437683967e-01 0.0000000000000000e+00  -2.3138431900515705e-01 -6.4490670884472512e-01 0.0000000000000000e+00  -1.9476610728444743e-01 -6.3740803789443279e-01 0.0000000000000000e+00  -1.5993189285110598e-01 -6.3181732696141213e-01 0.0000000000000000e+00  -1.2651815550368423e-01 -6.2769324870486010e-01 0.0000000000000000e+00  -9.4192827668922258e-02 -6.2473437579440327e-01 0.0000000000000000e+00  -6.2655318923052844e-02 -6.2273892266825204e-01 0.0000000000000000e+00  -3.1630453281120553e-02 -6.2157822865639567e-01 0.0000000000000000e+00  -8.6035893626679552e-04 -6.2118035108627634e-01 0.0000000000000000e+00  2.9904152710184689e-02 -6.2152117525616046e-01 0.0000000000000000e+00  6.0912288199860075e-02 -6.2262156794752699e-01 0.0000000000000000e+00  9.2422042771388963e-02 -6.2455011625738144e-01 0.0000000000000000e+00  1.2470904740942233e-01 -6.2743196681472002e-01 0.0000000000000000e+00  1.5807511205132405e-01 -6.3146533185216436e-01 0.0000000000000000e+00  1.9285500173709846e-01 -6.3694843179815241e-01 0.0000000000000000e+00  2.2941746454720477e-01 -6.4432082413694947e-01 0.0000000000000000e+00  2.6815110469029074e-01 -6.5422320045652760e-01 0.0000000000000000e+00  3.0941504312597690e-01 -6.6757529949176564e-01 0.0000000000000000e+00  3.5341695510446447e-01 -6.8565291834358510e-01 0.0000000000000000e+00  3.9996534783492282e-01 -7.1009178545957408e-01 0.0000000000000000e+00  4.4807311915044301e-01 -7.4263781163542919e-01 0.0000000000000000e+00  4.9557366655573287e-01 -7.8436232738006806e-01 0.0000000000000000e+00  5.3929449178323663e-01 -8.3430700205544528e-01 0.0000000000000000e+00  5.7638327011163948e-01 -8.8853248812513774e-01 0.0000000000000000e+00  -6.1173604625852895e-01 -9.7400551258546175e-01 0.0000000000000000e+00  -5.7378101458724640e-01 -9.2869257707139674e-01 0.0000000000000000e+00  -5.3047002674178123e-01 -8.8555953444685387e-01 0.0000000000000000e+00  -4.8364574098845287e-01 -8.4769599153518205e-01 0.0000000000000000e+00  -4.3552205023708168e-01 -8.1644425654372899e-01 0.0000000000000000e+00  -3.8790280062455523e-01 -7.9166927625193884e-01 0.0000000000000000e+00  -3.4187367824007298e-01 -7.7246162318993816e-01 0.0000000000000000e+00  -2.9789112781846477e-01 -7.5772232156681574e-01 0.0000000000000000e+00  -2.5600324743445962e-01 -7.4645880127653563e-01 0.0000000000000000e+00  -2.1604041331751686e-01 -7.3787733236678588e-01 0.0000000000000000e+00  -1.7773699830533704e-01 -7.3138042042714946e-01 0.0000000000000000e+00  -1.4079713179284550e-01 -7.2653324577253375e-01 0.0000000000000000e+00  -1.0492549724383696e-01 -7.2302717524689386e-01 0.0000000000000000e+00  -6.9838876231697614e-02 -7.2064974654700109e-01 0.0000000000000000e+00  -3.5267879729079445e-02 -7.1926285801854972e-01 0.0000000000000000e+00  -9.5396848189405604e-04 -7.1878840878513628e-01 0.0000000000000000e+00  3.3355646196854841e-02 -7.1920023236126840e-01 0.0000000000000000e+00  6.7913925251057425e-02 -7.2052150000218762e-01 0.0000000000000000e+00  1.0297999401568371e-01 -7.2282732588248655e-01 0.0000000000000000e+00  1.3882445657099449e-01 -7.2625291488124155e-01 0.0000000000000000e+00  1.7573275235521899e-01 -7.3100817504985416e-01 0.0000000000000000e+00  2.1400396690272319e-01 -7.3740009812734697e-01 0.0000000000000000e+00  2.5393993375516455e-01 -7.4586386018659201e-01 0.0000000000000000e+00  2.9581495943714747e-01 -7.5700107970249630e-01 0.0000000000000000e+00  3.3980990638088476e-01 -7.7161569113445150e-01 0.0000000000000000e+00  3.8588856734796434e-01 -7.9071834166858945e-01 0.0000000000000000e+00  4.3360163626616888e-01 -8.1543277363660061e-01 0.0000000000000000e+00  4.8185411434165043e-01 -8.4669314786559691e-01 0.0000000000000000e+00  5.2879731811851272e-01 -8.8464291454236565e-01 0.0000000000000000e+00  5.7213545454476389e-01 -9.2788718835348083e-01 0.0000000000000000e+00  6.0996109501800710e-01 -9.7317091815443357e-01 0.000000