<?xml version="1.0"?>
<VTKFile type="UnstructuredGrid"  version="0.1"  >
<UnstructuredGrid>
<Piece  NumberOfPoints="961" NumberOfCells="1800">
<Points>
<DataArray  type="Float64"  NumberOfComponents="3"  format="ascii">0 0 0  0.3333333333333333 0 0  0.6666666666666666 0 0  1 0 0  1.333333333333333 0 0  1.666666666666667 0 0  2 0 0  2.333333333333333 0 0  2.666666666666667 0 0  3 0 0  3.333333333333333 0 0  3.666666666666667 0 0  4 0 0  4.333333333333333 0 0  4.666666666666667 0 0  5 0 0  5.333333333333333 0 0  5.666666666666667 0 0  6 0 0  6.333333333333333 0 0  6.666666666666667 0 0  7 0 0  7.333333333333333 0 0  7.666666666666667 0 0  8 0 0  8.333333333333334 0 0  8.666666666666666 0 0  9 0 0  9.333333333333334 0 0  9.666666666666666 0 0  10 0 0  0 0.3333333333333333 0  0.3333333333333333 0.3333333333333333 0  0.6666666666666666 0.3333333333333333 0  1 0.3333333333333333 0  1.333333333333333 0.3333333333333333 0  1.666666666666667 0.3333333333333333 0  2 0.3333333333333333 0  2.333333333333333 0.3333333333333333 0  2.666666666666667 0.3333333333333333 0  3 0.3333333333333333 0  3.333333333333333 0.3333333333333333 0  3.666666666666667 0.3333333333333333 0  4 0.3333333333333333 0  4.333333333333333 0.3333333333333333 0  4.666666666666667 0.3333333333333333 0  5 0.3333333333333333 0  5.333333333333333 0.3333333333333333 0  5.666666666666667 0.3333333333333333 0  6 0.3333333333333333 0  6.333333333333333 0.3333333333333333 0  6.666666666666667 0.3333333333333333 0  7 0.3333333333333333 0  7.333333333333333 0.3333333333333333 0  7.666666666666667 0.3333333333333333 0  8 0.3333333333333333 0  8.333333333333334 0.3333333333333333 0  8.666666666666666 0.3333333333333333 0  9 0.3333333333333333 0  9.333333333333334 0.3333333333333333 0  9.666666666666666 0.3333333333333333 0  10 0.3333333333333333 0  0 0.6666666666666666 0  0.3333333333333333 0.6666666666666666 0  0.6666666666666666 0.6666666666666666 0  1 0.6666666666666666 0  1.333333333333333 0.6666666666666666 0  1.666666666666667 0.6666666666666666 0  2 0.6666666666666666 0  2.333333333333333 0.6666666666666666 0  2.666666666666667 0.6666666666666666 0  3 0.6666666666666666 0  3.333333333333333 0.6666666666666666 0  3.666666666666667 0.6666666666666666 0  4 0.6666666666666666 0  4.333333333333333 0.6666666666666666 0  4.666666666666667 0.6666666666666666 0  5 0.6666666666666666 0  5.333333333333333 0.6666666666666666 0  5.666666666666667 0.6666666666666666 0  6 0.6666666666666666 0  6.333333333333333 0.6666666666666666 0  6.666666666666667 0.6666666666666666 0  7 0.6666666666666666 0  7.333333333333333 0.6666666666666666 0  7.666666666666667 0.6666666666666666 0  8 0.6666666666666666 0  8.333333333333334 0.6666666666666666 0  8.666666666666666 0.6666666666666666 0  9 0.6666666666666666 0  9.333333333333334 0.6666666666666666 0  9.666666666666666 0.6666666666666666 0  10 0.6666666666666666 0  0 1 0  0.3333333333333333 1 0  0.6666666666666666 1 0  1 1 0  1.333333333333333 1 0  1.666666666666667 1 0  2 1 0  2.333333333333333 1 0  2.666666666666667 1 0  3 1 0  3.333333333333333 1 0  3.666666666666667 1 0  4 1 0  4.333333333333333 1 0  4.666666666666667 1 0  5 1 0  5.333333333333333 1 0  5.666666666666667 1 0  6 1 0  6.333333333333333 1 0  6.666666666666667 1 0  7 1 0  7.333333333333333 1 0  7.666666666666667 1 0  8 1 0  8.333333333333334 1 0  8.666666666666666 1 0  9 1 0  9.333333333333334 1 0  9.666666666666666 1 0  10 1 0  0 1.333333333333333 0  0.3333333333333333 1.333333333333333 0  0.6666666666666666 1.333333333333333 0  1 1.333333333333333 0  1.333333333333333 1.333333333333333 0  1.666666666666667 1.333333333333333 0  2 1.333333333333333 0  2.333333333333333 1.333333333333333 0  2.666666666666667 1.333333333333333 0  3 1.333333333333333 0  3.333333333333333 1.333333333333333 0  3.666666666666667 1.333333333333333 0  4 1.333333333333333 0  4.333333333333333 1.333333333333333 0  4.666666666666667 1.333333333333333 0  5 1.333333333333333 0  5.333333333333333 1.333333333333333 0  5.666666666666667 1.333333333333333 0  6 1.333333333333333 0  6.333333333333333 1.333333333333333 0  6.666666666666667 1.333333333333333 0  7 1.333333333333333 0  7.333333333333333 1.333333333333333 0  7.666666666666667 1.333333333333333 0  8 1.333333333333333 0  8.333333333333334 1.333333333333333 0  8.666666666666666 1.333333333333333 0  9 1.333333333333333 0  9.333333333333334 1.333333333333333 0  9.666666666666666 1.333333333333333 0  10 1.333333333333333 0  0 1.666666666666667 0  0.3333333333333333 1.666666666666667 0  0.6666666666666666 1.666666666666667 0  1 1.666666666666667 0  1.333333333333333 1.666666666666667 0  1.666666666666667 1.666666666666667 0  2 1.666666666666667 0  2.333333333333333 1.666666666666667 0  2.666666666666667 1.666666666666667 0  3 1.666666666666667 0  3.333333333333333 1.666666666666667 0  3.666666666666667 1.666666666666667 0  4 1.666666666666667 0  4.333333333333333 1.666666666666667 0  4.666666666666667 1.666666666666667 0  5 1.666666666666667 0  5.333333333333333 1.666666666666667 0  5.666666666666667 1.666666666666667 0  6 1.666666666666667 0  6.333333333333333 1.666666666666667 0  6.666666666666667 1.666666666666667 0  7 1.666666666666667 0  7.333333333333333 1.666666666666667 0  7.666666666666667 1.666666666666667 0  8 1.666666666666667 0  8.333333333333334 1.666666666666667 0  8.666666666666666 1.666666666666667 0  9 1.666666666666667 0  9.333333333333334 1.666666666666667 0  9.666666666666666 1.666666666666667 0  10 1.666666666666667 0  0 2 0  0.3333333333333333 2 0  0.6666666666666666 2 0  1 2 0  1.333333333333333 2 0  1.666666666666667 2 0  2 2 0  2.333333333333333 2 0  2.666666666666667 2 0  3 2 0  3.333333333333333 2 0  3.666666666666667 2 0  4 2 0  4.333333333333333 2 0  4.666666666666667 2 0  5 2 0  5.333333333333333 2 0  5.666666666666667 2 0  6 2 0  6.333333333333333 2 0  6.666666666666667 2 0  7 2 0  7.333333333333333 2 0  7.666666666666667 2 0  8 2 0  8.333333333333334 2 0  8.666666666666666 2 0  9 2 0  9.333333333333334 2 0  9.666666666666666 2 0  10 2 0  0 2.333333333333333 0  0.3333333333333333 2.333333333333333 0  0.6666666666666666 2.333333333333333 0  1 2.333333333333333 0  1.333333333333333 2.333333333333333 0  1.666666666666667 2.333333333333333 0  2 2.333333333333333 0  2.333333333333333 2.333333333333333 0  2.666666666666667 2.333333333333333 0  3 2.333333333333333 0  3.333333333333333 2.333333333333333 0  3.666666666666667 2.333333333333333 0  4 2.333333333333333 0  4.333333333333333 2.333333333333333 0  4.666666666666667 2.333333333333333 0  5 2.333333333333333 0  5.333333333333333 2.333333333333333 0  5.666666666666667 2.333333333333333 0  6 2.333333333333333 0  6.333333333333333 2.333333333333333 0  6.666666666666667 2.333333333333333 0  7 2.333333333333333 0  7.333333333333333 2.333333333333333 0  7.666666666666667 2.333333333333333 0  8 2.333333333333333 0  8.333333333333334 2.333333333333333 0  8.666666666666666 2.333333333333333 0  9 2.333333333333333 0  9.333333333333334 2.333333333333333 0  9.666666666666666 2.333333333333333 0  10 2.333333333333333 0  0 2.666666666666667 0  0.3333333333333333 2.666666666666667 0  0.6666666666666666 2.666666666666667 0  1 2.666666666666667 0  1.333333333333333 2.666666666666667 0  1.666666666666667 2.666666666666667 0  2 2.666666666666667 0  2.333333333333333 2.666666666666667 0  2.666666666666667 2.666666666666667 0  3 2.666666666666667 0  3.333333333333333 2.666666666666667 0  3.666666666666667 2.666666666666667 0  4 2.666666666666667 0  4.333333333333333 2.666666666666667 0  4.666666666666667 2.666666666666667 0  5 2.666666666666667 0  5.333333333333333 2.666666666666667 0  5.666666666666667 2.666666666666667 0  6 2.666666666666667 0  6.333333333333333 2.666666666666667 0  6.666666666666667 2.666666666666667 0  7 2.666666666666667 0  7.333333333333333 2.666666666666667 0  7.666666666666667 2.666666666666667 0  8 2.666666666666667 0  8.333333333333334 2.666666666666667 0  8.666666666666666 2.666666666666667 0  9 2.666666666666667 0  9.333333333333334 2.666666666666667 0  9.666666666666666 2.666666666666667 0  10 2.666666666666667 0  0 3 0  0.3333333333333333 3 0  0.6666666666666666 3 0  1 3 0  1.333333333333333 3 0  1.666666666666667 3 0  2 3 0  2.333333333333333 3 0  2.666666666666667 3 0  3 3 0  3.333333333333333 3 0  3.666666666666667 3 0  4 3 0  4.333333333333333 3 0  4.666666666666667 3 0  5 3 0  5.333333333333333 3 0  5.666666666666667 3 0  6 3 0  6.333333333333333 3 0  6.666666666666667 3 0  7 3 0  7.333333333333333 3 0  7.666666666666667 3 0  8 3 0  8.333333333333334 3 0  8.666666666666666 3 0  9 3 0  9.333333333333334 3 0  9.666666666666666 3 0  10 3 0  0 3.333333333333333 0  0.3333333333333333 3.333333333333333 0  0.6666666666666666 3.333333333333333 0  1 3.333333333333333 0  1.333333333333333 3.333333333333333 0  1.666666666666667 3.333333333333333 0  2 3.333333333333333 0  2.333333333333333 3.333333333333333 0  2.666666666666667 3.333333333333333 0  3 3.333333333333333 0  3.333333333333333 3.333333333333333 0  3.666666666666667 3.333333333333333 0  4 3.333333333333333 0  4.333333333333333 3.333333333333333 0  4.666666666666667 3.333333333333333 0  5 3.333333333333333 0  5.333333333333333 3.333333333333333 0  5.666666666666667 3.333333333333333 0  6 3.333333333333333 0  6.333333333333333 3.333333333333333 0  6.666666666666667 3.333333333333333 0  7 3.333333333333333 0  7.333333333333333 3.333333333333333 0  7.666666666666667 3.333333333333333 0  8 3.333333333333333 0  8.333333333333334 3.333333333333333 0  8.666666666666666 3.333333333333333 0  9 3.333333333333333 0  9.333333333333334 3.333333333333333 0  9.666666666666666 3.333333333333333 0  10 3.333333333333333 0  0 3.666666666666667 0  0.3333333333333333 3.666666666666667 0  0.6666666666666666 3.666666666666667 0  1 3.666666666666667 0  1.333333333333333 3.666666666666667 0  1.666666666666667 3.666666666666667 0  2 3.666666666666667 0  2.333333333333333 3.666666666666667 0  2.666666666666667 3.666666666666667 0  3 
[...]
<PointData  Scalars="f_7-1"> 
<DataArray  type="Float64"  Name="f_7-1"  format="ascii">-1.8667671329762410e+01  -7.9743280864342623e+00  -5.7803464011309451e+00  -5.1044012743130116e+00  -4.8270588869367863e+00  -4.6908100860479882e+00  -4.6160979439443732e+00  -4.5725183627204204e+00  -4.5462757474938824e+00  -4.5302723927319732e+00  -4.5205344318200806e+00  -4.5147121894584430e+00  -4.5113721983168542e+00  -4.5096341512023548e+00  -4.5089754949985519e+00  -4.5091259796180880e+00  -4.5100163167529361e+00  -4.5117652919448226e+00  -4.5147017300383991e+00  -4.5194281094599775e+00  -4.5269465912906126e+00  -4.5388941704946957e+00  -4.5579919432407037e+00  -4.5889643785981624e+00  -4.6406309025584829e+00  -4.7313546182729818e+00  -4.9053516842640663e+00  -5.2903020468919655e+00  -6.3830749640003939e+00  -9.3745764658861894e+00  -2.5511450788876832e+01  -4.6265862636854660e+00  -5.1530161943774608e+00  -4.9244813511009378e+00  -4.7175991554234686e+00  -4.5872458798602818e+00  -4.5093784169698363e+00  -4.4639938178305263e+00  -4.4379490219980466e+00  -4.4233820836223652e+00  -4.4156456017103283e+00  -4.4119439561342064e+00  -4.4105605665664989e+00  -4.4104287932953952e+00  -4.4108905878783871e+00  -4.4115596087580249e+00  -4.4122458381378395e+00  -4.4129201906946891e+00  -4.4137099196079559e+00  -4.4149243666006095e+00  -4.4171196018878955e+00  -4.4212241183630008e+00  -4.4287740276927536e+00  -4.4423636302674989e+00  -4.4665501974196617e+00  -4.5097562873895249e+00  -4.5882920393383104e+00  -4.7336501549436178e+00  -4.9921850140333275e+00  -5.2716285148532878e+00  -4.6938019440065180e+00  -5.0064924025932562e+00  -2.6657303834341750e+00  -3.9984941437063131e+00  -4.2257812196726201e+00  -4.2725325546948394e+00  -4.2847747981206092e+00  -4.2850296255000524e+00  -4.2840274038916659e+00  -4.2849279022372144e+00  -4.2878049942335794e+00  -4.2919314196690870e+00  -4.2965531203139236e+00  -4.3010791773018502e+00  -4.3050933159156619e+00  -4.3083237710458464e+00  -4.3106123408580261e+00  -4.3118933096275978e+00  -4.3121845594348116e+00  -4.3115919186366520e+00  -4.3103291140990097e+00  -4.3087584948476261e+00  -4.3074619286616151e+00  -4.3073562907307181e+00  -4.3098672026321259e+00  -4.3171316002851921e+00  -4.3319409655497427e+00  -4.3559036345026838e+00  -4.3791221166037344e+00  -4.3381862974971410e+00  -4.0288621612258897e+00  -3.4518548367303303e+00  -2.1511948047660727e+00  -2.5295569520438508e+00  -3.2786641290793010e+00  -3.7078316620434308e+00  -3.8925520953028467e+00  -3.9922491816864700e+00  -4.0537740914211904e+00  -4.0943967974458539e+00  -4.1233383259178771e+00  -4.1453756613866464e+00  -4.1628587630802665e+00  -4.1769329755011375e+00  -4.1881696289629327e+00  -4.1968679586169158e+00  -4.2031966371955205e+00  -4.2072605811701314e+00  -4.2091335089558806e+00  -4.2088749933686866e+00  -4.2065404587221966e+00  -4.2021871015601242e+00  -4.1958741190002549e+00  -4.1876477376438483e+00  -4.1774815840207511e+00  -4.1650868616541779e+00  -4.1493460285406369e+00  -4.1266763902142278e+00  -4.0865431338331417e+00  -4.0009248243412561e+00  -3.8112798428796126e+00  -3.4711702339924617e+00  -3.1206635267883271e+00  -2.2709170413265425e+00  -2.5525553731219799e+00  -2.9818283344026786e+00  -3.3582661988389151e+00  -3.5902382648150706e+00  -3.7377674695491927e+00  -3.8387477707384727e+00  -3.9105229719065653e+00  -3.9630280665709456e+00  -4.0024875938213889e+00  -4.0327475336609924e+00  -4.0561518446258571e+00  -4.0741346110106296e+00  -4.0875848112374866e+00  -4.0970589379371258e+00  -4.1029016522270787e+00  -4.1053124531181604e+00  -4.1043795086851320e+00  -4.1000905726902772e+00  -4.0923225017839275e+00  -4.0808018550112886e+00  -4.0650145228404915e+00  -4.0440133370821787e+00  -4.0160117438137650e+00  -3.9775319966411020e+00  -3.9217029038668132e+00  -3.8353879715623038e+00  -3.6969120907371642e+00  -3.4850605845661358e+00  -3.2186000132690618e+00  -2.9606285472538438e+00  -2.4777654796530486e+00  -2.5408021681263717e+00  -2.8407013050720198e+00  -3.1367871795027384e+00  -3.3642493815422387e+00  -3.5292544018190011e+00  -3.6510126040684834e+00  -3.7423870581353302e+00  -3.8117221155892183e+00  -3.8648331815531889e+00  -3.9057845216724751e+00  -3.9373583383864261e+00  -3.9614295426251664e+00  -3.9792488096949659e+00  -3.9916378309546965e+00  -3.9991150488498417e+00  -4.0019709463305988e+00  -4.0003064047830863e+00  -3.9940407664295692e+00  -3.9828889899230138e+00  -3.9662984758909388e+00  -3.9433233132385239e+00  -3.9123938822176010e+00  -3.8709134966513661e+00  -3.8146042273346157e+00  -3.7366456534932544e+00  -3.6272829593152700e+00  -3.4764427610247983e+00  -3.2839107667933201e+00  -3.0713511361795898e+00  -2.8502808276419058e+00  -2.5252360988127522e+00  -2.5239130880158704e+00  -2.7615834304682041e+00  -2.9989492336579624e+00  -3.2025817055118888e+00  -3.3656065276048155e+00  -3.4940205051477471e+00  -3.5950059758433044e+00  -3.6743667235508992e+00  -3.7366702031954930e+00  -3.7854554292456069e+00  -3.8233810475356891e+00  -3.8523843129232063e+00  -3.8738386101119029e+00  -3.8886857297058603e+00  -3.8975334488231361e+00  -3.9007189973437488e+00  -3.8983417180772229e+00  -3.8902666456401787e+00  -3.8760969490854791e+00  -3.8551080190815159e+00  -3.8261301047537115e+00  -3.7873628841514329e+00  -3.7361162524584874e+00  -3.6685343014139704e+00  -3.5795639791286327e+00  -3.4638988279683902e+00  -3.3191229095859041e+00  -3.1507357961187719e+00  -2.9706785367668407e+00  -2.7744358533865028e+00  -2.5211464362624181e+00  -2.5190295747064693e+00  -2.7160810868967991e+00  -2.9122991294630260e+00  -3.0895504313474178e+00  -3.2410308359271638e+00  -3.3668320480435328e+00  -3.4698524679902896e+00  -3.5534292041806141e+00  -3.6206731608812905e+00  -3.6742831338000075e+00  -3.7164768901352936e+00  -3.7489926173267656e+00  -3.7731348882801101e+00  -3.7898359857591464e+00  -3.7997122267624595e+00  -3.8031049688267160e+00  -3.8001019482781211e+00  -3.7905367310827027e+00  -3.7739639559284308e+00  -3.7496074342512147e+00  -3.7162795570798242e+00  -3.6722793077113605e+00  -3.6153048542574786e+00  -3.5424883973015810e+00  -3.4507981673991277e+00  -3.3381900539155338e+00  -3.2056040441660536e+00  -3.0581737445603432e+00  -2.9010003309091554e+00  -2.7278508973178228e+00  -2.5188937345359679e+00  -2.5271678371255795e+00  -2.6930963740208864e+00  -2.8584567173102511e+00  -3.0117682396070160e+00  -3.1482615414127810e+00  -3.2662321635925675e+00  -3.3661553367973474e+00  -3.4495129919979566e+00  -3.5181221042232917e+00  -3.5738085587819541e+00  -3.6182307031281349e+00  -3.6527896903955699e+00  -3.6785988807843499e+00  -3.6964873872082800e+00  -3.7070172210406471e+00  -3.7105003149584146e+00  -3.7070075011402892e+00  -3.6963652871536152e+00  -3.6781387452888956e+00  -3.6516016527212876e+00  -3.6157008498258811e+00  -3.5690350970626730e+00  -3.5098960820324332e+00  -3.4364647847134289e+00  -3.3472997921030272e+00  -3.2421908722071828e+00  -3.1230282699203702e+00  -2.9933971531357888e+00  -2.8552134215341685e+00  -2.7037311391051349e+00  -2.5281211698400483e+00  -2.5455207624747960e+00  -2.6862445196343470e+00  -2.8269883071779063e+00  -2.9594797404829953e+00  -3.0805249646334874e+00  -3.1882168672713411e+00  -3.2819342456326130e+00  -3.3619913063068281e+00  -3.4292280930971417e+00  -3.4847179325446431e+00  -3.5295718998421086e+00  -3.5648137832327955e+00  -3.5913088214426456e+00  -3.6097298357540377e+00  -3.6205451216276852e+00  -3.6240158010879693e+00  -3.6201945142966521e+00  -3.6089211573373490e+00  -3.5898149531226737e+00  -3.5622665231913393e+00  -3.5254405693627877e+00  -3.4783113949670104e+00  -3.4197704986581146e+00  -3.3488608697378086e+00  -3.2651767257097362e+00  -3.1693499951747617e+00  -3.0632503262447828e+00  -2.9492034103793832e+00  -2.8278910308815122e+00  -2.6960526648703276e+00  -2.5472868304033445e+00  -2.5713834978327506e+00  -2.6911343026547203e+00  -2.8114614482894345e+00  -2.9258992706845084e+00  -3.0322493300915809e+00  -3.1288573171754561e+00  -3.2147261166313599e+00  -3.2895355207712318e+00  -3.3534718312234433e+00  -3.4070325544199558e+00  -3.4508625881573649e+00  -3.4856313306344919e+00  -3.5119487233893278e+00  -3.5303131704852273e+00  -3.5410820359174702e+00  -3.5444560069680744e+00  -3.5404709307508178e+00  -3.5289937710851973e+00  -3.5097228204644018e+00  -3.4821966147312784e+00  -3.4458217712553227e+00  -3.3999372625031157e+00  -3.3439388767961948e+00  -3.2774833396662961e+00  -3.2007551103908352e+00  -3.1146815370591669e+00  -3.0208363118292350e+00  -2.9207424297105411e+00  -2.8146596858605850e+00  -2.7003357775422381e+00  -2.5738091512815453e+00  -2.6026540760841042e+00  -2.7045991067522119e+00  -2.8075760324215131e+00  -2.9062637441021169e+00  -2.9990783339253388e+00  -3.0846800188849199e+00  -3.1620241058158958e+00  -3.2304973646879143e+00  -3.2898921210951082e+00  -3.3403039810859076e+00  -3.3820168112526776e+00  -3.4154013918336910e+00  -3.4408365439997568e+00  -3.4586532097327556e+00  -3.4690978650677695e+00  -3.4723104531963478e+00  -3.4683128155607825e+00  -3.4570055687252323e+00  -3.4381740774288123e+00  -3.4115074755976336e+00  -3.3766383807863694e+00  -3.3332139619618930e+00  -3.2810080156823909e+00  -3.2200713557890284e+00  -3.1508834262888272e+00  -3.0744083289509962e+00  -2.9919083851363255e+00  -2.9044311061709682e+00  -2.8121149462579109e+00  -2.7133454016637910e+00  -2.6056237115749421e+00  -2.6377007569957116e+00  -2.7242932030862321e+00  -2.8122824710518231e+00  -2.8971340362889157e+00  -2.9776506738110555e+00  -3.0527612691507890e+00  -3.1215000405616045e+00  -3.1831535357641640e+00  -3.2373022095198412e+00  -3.2837834945527522e+00  -3.3226224156245765e+00  -3.3539576734662710e+00  -3.3779767042647713e+00  -3.3948648176237386e+00  -3.4047688835409406e+00  -3.4077739724155802e+00  -3.4038911145367088e+00  -3.3930553157634025e+00  -3.3751346596649698e+00  -3.3499533304496736e+00  -3.3173330785469424e+00  -3.2771576611333986e+00  -3.2294604013766710e+00  -3.1745220981330928e+00  -3.1129421413186456e+00  -3.0456165698745283e+00  -2.9735526589965762e+00  -2.8975187095600212e+00  -2.8176347085226712e+00  -2.7326931488017903e+00  -2.6411317529696392e+00  -2.6752224923468186e+00  -2.7484287147769852e+00  -2.8233232590891313e+00  -2.8959492402475928e+00  -2.9653597727734984e+00  -3.0306906799565683e+00  -3.0910906027632628e+00  -3.1458443328589740e+00  -3.1944368280407067e+00  -3.2365542792446296e+00  -3.2720492710529001e+00  -3.3008923471148743e+00  -3.3231235480044004e+00  -3.3388109139838478e+00  -3.3480187885520425e+00  -3.3507865130977588e+00  -3.3471173052440486e+00  -3.3369773205205857e+00  -3.3203056700173601e+00  -3.2970370153167159e+00  -3.2671385786065374e+00  -3.2306618293832976e+00  -3.1878040370840721e+00  -3.1389647139251071e+00  -3.0847676356494640e+00  -3.0260087416395791e+00  -2.9635023193939163e+00  -2.8978488832611493e+00  -2.8291810964898558e+00  -2.7565596144023345e+00  -2.6790545850021572e+00  -2.7141593443749148e+00  -2.7756054800938075e+00  -2.8389705661765179e+00  -2.9007480178695007e+00  -2.9601585057415480e+00  -3.0164918962474792e+00  -3.0690101308012192e+00  -3.1170411846593029e+00  -3.1600437321845005e+00  -3.1976266700759375e+00  -3.2295370959567764e+00  -3.2556321086645807e+00  -3.2758457068042102e+00  -3.2901577636278660e+00  -3.2985688655554783e+00  -3.3010828016199318e+00  -3.2976974901713438e+00  -3.2884048469739691e+00  -3.2732001880180204e+00  -3.2521017817637174e+00  -3.2251805242344713e+00  -3.1925976157515246e+00  -3.1546437528944402e+00  -3.1117665868564841e+00  -3.0645661776930280e+00  -3.0137371738922254e+00  -2.9599509804963327e+00  -2.9037029863453587e+00  -2.8451445813168381e+00  -2.7835198421778569e+00  -2.7183451556440170e+00  -2.7536347425381167e+00  -2.8047017399473928e+00  -2.8578660318151963e+00  -2.9099912634354497e+00  -2.9604147636324387e+00  -3.0085404191440936e+00  -3.0537299857145839e+00  -3.0953714375891366e+00  -3.1329356253078511e+00  -3.1660024381634821e+00  -3.1942622092270030e+00  -3.2175019824735407e+00  -3.2355850034102147e+00  -3.2484293897821153e+00  -3.2559897712516630e+00  -3.2582441173360124e+00  -3.2551869974507430e+00  -3.2468299856102210e+00  -3.2332095919076860e+00  -3.2144026434753674e+00  -3.1905480354418345e+00  -3.1618717888116885e+00  -3.1287091533608553e+00  -3.0915135859420055e+00  -3.0508398613967875e+00  -3.0072912882078540e+00  -2.9614329807295254e+00  -2.9136907758514856e+00  -2.8642325685311891e+00  -2.8124326794094086e+00  -2.7581339186768234e+00  -2.7929162139850114e+00  -2.8348026910193953e+00  -2.8789186805646141e+00  -2.9224463037146649e+00  -2.9648079408653221e+00  -3.0054927109610681e+00  -3.0439463867559344e+00  -3.0796199671296431e+00  -3.1120160997470467e+00  -3.1407155792817329e+00  -3.1653856591280367e+00  -3.1857758066790427e+00  -3.2017066355014028e+00  -3.2130566114187231e+00  -3.2197498045186825e+00  -3.2217468389627717e+00  -3.2190403616527647e+00  -3.2116557475172067e+00  -3.1996572336377525e+00  -3.1831590139657360e+00  -3.1623397903577573e+00  -3.1374576832637633e+00  -3.1088603292118950e+00  -3.0769830747690654e+00  -3.0423279213058065e+00  -3.0054194132720982e+00  -2.9667421084642167e+00  -2.9266728364305132e+00  -2.8853915219347748e+00  -2.8423683671672331e+00  -2.7976921372723051e+00  -2.8313877153359046e+00  -2.8651525188122173e+00  -2.9012376690711301e+00  -2.9371093710295026e+00  -2.9722552525608714e+00  -3.0062294223533743e+00  -3.0385472803732538e+00  -3.0687196890027213e+00  -3.0962896969225171e+00  -3.1208564536226886e+00  -3.1420863188368529e+00  -3.1597143140430690e+00  -3.1735396267460469e+00  -3.1834184567183934e+00  -3.1892567591610290e+00  -3.1910047002894166e+00  -3.1886539957892741e+00  -3.1822387390441609e+00  -3.1718397652905401e+00  -3.1575919250270688e+00  -3.1396927461719049e+00  -3.1184098252113217e+00  -3.0940830917697015e+00  -3.0671173889385144e+00  -3.0379615453256679e+00  -3.0070732486885472e+00  -2.9748744198167612e+00  -2.9417049994243349e+00  -2.9077523262470839e+00  -2.8725596812985970e+00  -2.8364056756833786e+00  -2.8685296335513479e+00  -2.8951212742617387e+00  -2.9240866606301021e+00  -2.9531524791966266e+00  -2.9818590718469791e+00  -3.0098114187090008e+00  -3.0365825914810056e+00  -3.0617377980855842e+00  -3.0848629048728382e+00  -3.1055847276268476e+00  -3.1235825556125523e+00  -3.1385926390956080e+00  -3.1504079392002735e+00  -3.1588753463415307e+00  -3.1638922014492179e+00  -3.1654034973104861e+00  -3.1634006724816310e+00  -3.1579224441617137e+00  -3.1490576269184984e+00  -3.1369493051563264e+00  -3.1217990443013823e+00  -3.1038690912238791e+00  -3.0834799271547362e+00  -3.0610004863796272e+00  -3.0368293509884485e+00  -3.0113675884628051e+00  -2.9849870392547846e+00  -2.9579980994337061e+00  -2.9305914662804993e+00  -2.9023680437679484e+00  -2.8737558072047662e+00  -2.9039039148839980e+00  -2.9241813370927194e+00  -2.9468520030333094e+00  -2.9698861992422363e+00  -2.9928689330667875e+00  -3.0154461841614344e+00  -3.0372391361466637e+00  -3.0578612824176585e+00  -3.0769403952306726e+00  -3.0941351064672284e+00  -3.1091455891449877e+00  -3.1217193315165046e+00  -3.1316533858548632e+00  -3.1387944812127850e+00  -3.1430382095622043e+00  -3.1443282269640687e+00  -3.1426560985890659e+00  -3.1380620673206914e+00  -3.1306366334932063e+00  -3.1205223930693062e+00  -3.1079151137547218e+00  -3.0930626103431882e+00  -3.0762597733656420e+00  -3.0578383475370479e+00  -3.0381509735830177e+00  -3.0175505921753119e+00  -2.9963679300034056e+00  -2.9748884727069953e+00  -2.9533029789471184e+00  -2.9312593617612790e+00  -2.9093047992786927e+00  -2.9371426039442441e+00  -2.9518901708995391e+00  -2.9690199133599808e+00  -2.9867329876869082e+00  -3.0046537658417796e+00  -3.0224622298343262e+00  -3.0398201126500823e+00  -3.0563833684686519e+00  -3.0718190695620904e+00  -3.0858186181574525e+00  -3.0981070156721304e+00  -3.1084488422543650e+00  -3.1166517702542080e+00  -3.1225684256717163e+00  -3.1260973134792702e+00  -3.1271833698468856e+00  -3.1258185085807031e+00  -3.1220422929452427e+00  -3.1159425909065921e+00  -3.1076557760871517e+00  -3.0973657559352810e+00  -3.0853009158750928e+00  -3.0717280747108351e+00  -3.0569428750985601e+00  -3.0412567418772576e+00  -3.0249814946971134e+00  -3.0084133518405185e+00  -2.9918160110675012e+00  -2.9753777797526220e+00  -2.9587862796739826e+00  -2.9426847128207752e+00  -2.9679386298827821e+00  -2.9778772542310121e+00  -2.9901596464483600e+00  -3.0032076318835013e+00  -3.0166812977993813e+00  -3.0302895298164878e+00  -3.0437285789582726e+00  -3.0566915358347657e+00  -3.0688813747068413e+00  -3.0800212875991551e+00  -3.0898623674927332e+00  -3.0981891742897703e+00  -3.1048236893284789e+00  -3.1096280907318508e+00  -3.1125067021189596e+00  -3.1134073767562538e+00  -3.1123224675676822e+00  -3.1092893941875555e+00  -3.1043906556282272e+00  -3.0977529703456042e+00  -3.0895450921113010e+00  -3.0799738062800808e+00  -3.0692777216411429e+00  -3.0577187826804790e+00  -3.0455719078432337e+00  -3.0331136435881181e+00  -3.0206107815908125e+00  -3.0083075561327672e+00  -2.9963880684251585e+00  -2.9845747038526884e+00  -2.9735883337670126e+00  -2.9960380699899636e+00  -3.0018338125743247e+00  -3.0099107003224193e+00  -3.0189025675889787e+00  -3.0285025186345900e+00  -3.0384444513083850e+00  -3.0484542117575892e+00  -3.0582572309185450e+00  -3.0675886720027687e+00  -3.0762013905454664e+00  -3.0838720721214292e+00  -3.0904060720524464e+00  -3.0956412969995268e+00  -3.0994513219359363e+00  -3.1017478434323453e+00  -3.1024825084097691e+00  -3.1016481025214455e+00  -3.0992790196811821e+00  -3.0954508640041221e+00  -3.0902789731100793e+00  -3.0839156263158096e+00  -3.0765457484450636e+00  -3.0683810682820201e+00  -3.0596529370892678e+00  -3.0506042916917750e+00  -3.0414814025835550e+00  -3.0325257600898650e+00  -3.0239640929969274e+00  -3.0159752602933643e+00  -3.0083132066061453e+00  -3.0017615123789541e+00  -3.0212334094751072e+00  -3.0235044536304758e+00  -3.0279727839141852e+00  -3.0334765867599507e+00  -3.0397397601971905e+00  -3.0465180345982681e+00  -3.0535626956359714e+00  -3.0606271812522166e+00  -3.0674750535661364e+00  -3.0738860420227709e+00  -3.0796607841382571e+00  -3.0846248230728723e+00  -3.0886321263215097e+00  -3.0915681799391637e+00  -3.0933525956240073e+00  -3.0939411149722020e+00  -3.0933268760155594e+00  -3.0915408011811776e+00  -3.0886509670348681e+00  -3.0847608325527776e+00  -3.0800062512862141e+00  -3.0745512904774301e+00  -3.0685830295511769e+00  -3.0623056823743671e+00  -3.0559345063140793e+00  -3.0496898976391749e+00  -3.0437915966114137e+00  -3.0384506767420976e+00  -3.0338403947204244e+00  -3.0297444066387031e+00  -3.0269964557255240e+00  -3.0433575148695331e+00  -3.0426800884955063e+00  -3.0440976960293336e+00  -3.0466459633085243e+00  -3.0500774122216385e+00  -3.0541667908339813e+00  -3.0586872004504873e+00  -3.0634161308985819e+00  -3.0681417825116721e+00  -3.0726675917487487e+00  -3.0768157746137379e+00  -3.0804304894966759e+00  -3.0833808596623475e+00  -3.0855638375577703e+00  -3.0869067496157605e+00  -3.0873693052141320e+00  -3.0869448551189520e+00  -3.0856607183025702e+00  -3.0835774491531702e+00  -3.0807869891182236e+00  -3.0774097429392544e+00  -3.0735907412353116e+00  -3.0694951839504183e+00  -3.0653037618398851e+00  -3.0612081525859609e+00  -3.0574068837483179e+00  -3.0541011825515367e+00  -3.0514883598035012e+00  -3.0497363184337640e+00  -3.0486577444137914e+00  -3.0491257250970283e+00  -3.0622780054657253e+00  -3.0591915561868190e+00  -3.0580825548611990e+00  -3.0581774009949396e+00  -3.0592546204608775e+00  -3.0611054178988875e+00  -3.0635215194941283e+00  -3.0663008108134346e+00  -3.0692524275038271e+00  -3.0722001287208509e+00  -3.0749848656196774e+00  -3.0774671905521198e+00  -3.0795297556905643e+00  -3.0810798546062608e+00  -3.0820517918318893e+00  -3.0824088032325485e+00  -3.0821442626328248e+00  -3.0812819698309517e+00  -3.0798754038626770e+00  -3.0780059344080626e+00  -3.0757801084493313e+00  -3.0733262585