<?xml version="1.0"?>
<VTKFile type="UnstructuredGrid"  version="0.1"  >
<UnstructuredGrid>
<Piece  NumberOfPoints="121" NumberOfCells="200">
<Points>
<DataArray  type="Float64"  NumberOfComponents="3"  format="ascii">0 0 0  1 0 0  2 0 0  3 0 0  4 0 0  5 0 0  6 0 0  7 0 0  8 0 0  9 0 0  10 0 0  0 1 0  1 1 0  2 1 0  3 1 0  4 1 0  5 1 0  6 1 0  7 1 0  8 1 0  9 1 0  10 1 0  0 2 0  1 2 0  2 2 0  3 2 0  4 2 0  5 2 0  6 2 0  7 2 0  8 2 0  9 2 0  10 2 0  0 3 0  1 3 0  2 3 0  3 3 0  4 3 0  5 3 0  6 3 0  7 3 0  8 3 0  9 3 0  10 3 0  0 4 0  1 4 0  2 4 0  3 4 0  4 4 0  5 4 0  6 4 0  7 4 0  8 4 0  9 4 0  10 4 0  0 5 0  1 5 0  2 5 0  3 5 0  4 5 0  5 5 0  6 5 0  7 5 0  8 5 0  9 5 0  10 5 0  0 6 0  1 6 0  2 6 0  3 6 0  4 6 0  5 6 0  6 6 0  7 6 0  8 6 0  9 6 0  10 6 0  0 7 0  1 7 0  2 7 0  3 7 0  4 7 0  5 7 0  6 7 0  7 7 0  8 7 0  9 7 0  10 7 0  0 8 0  1 8 0  2 8 0  3 8 0  4 8 0  5 8 0  6 8 0  7 8 0  8 8 0  9 8 0  10 8 0  0 9 0  1 9 0  2 9 0  3 9 0  4 9 0  5 9 0  6 9 0  7 9 0  8 9 0  9 9 0  10 9 0  0 10 0  1 10 0  2 10 0  3 10 0  4 10 0  5 10 0  6 10 0  7 10 0  8 10 0  9 10 0  10 10 0  </DataArray>
</Points>
<Cells>
<DataArray  type="UInt32"  Name="connectivity"  format="ascii">0 1 12  0 11 12  1 2 13  1 12 13  2 3 14  2 13 14  3 4 15  3 14 15  4 5 16  4 15 16  5 6 17  5 16 17  6 7 18  6 17 18  7 8 19  7 18 19  8 9 20  8 19 20  9 10 21  9 20 21  11 12 23  11 22 23  12 13 24  12 23 24  13 14 25  13 24 25  14 15 26  14 25 26  15 16 27  15 26 27  16 17 28  16 27 28  17 18 29  17 28 29  18 19 30  18 29 30  19 20 31  19 30 31  20 21 32  20 31 32  22 23 34  22 33 34  23 24 35  23 34 35  24 25 36  24 35 36  25 26 37  25 36 37  26 27 38  26 37 38  27 28 39  27 38 39  28 29 40  28 39 40  29 30 41  29 40 41  30 31 42  30 41 42  31 32 43  31 42 43  33 34 45  33 44 45  34 35 46  34 45 46  35 36 47  35 46 47  36 37 48  36 47 48  37 38 49  37 48 49  38 39 50  38 49 50  39 40 51  39 50 51  40 41 52  40 51 52  41 42 53  41 52 53  42 43 54  42 53 54  44 45 56  44 55 56  45 46 57  45 56 57  46 47 58  46 57 58  47 48 59  47 58 59  48 49 60  48 59 60  49 50 61  49 60 61  50 51 62  50 61 62  51 52 63  51 62 63  52 53 64  52 63 64  53 54 65  53 64 65  55 56 67  55 66 67  56 57 68  56 67 68  57 58 69  57 68 69  58 59 70  58 69 70  59 60 71  59 70 71  60 61 72  60 71 72  61 62 73  61 72 73  62 63 74  62 73 74  63 64 75  63 74 75  64 65 76  64 75 76  66 67 78  66 77 78  67 68 79  67 78 79  68 69 80  68 79 80  69 70 81  69 80 81  70 71 82  70 81 82  71 72 83  71 82 83  72 73 84  72 83 84  73 74 85  73 84 85  74 75 86  74 85 86  75 76 87  75 86 87  77 78 89  77 88 89  78 79 90  78 89 90  79 80 91  79 90 91  80 81 92  80 91 92  81 82 93  81 92 93  82 83 94  82 93 94  83 84 95  83 94 95  84 85 96  84 95 96  85 86 97  85 96 97  86 87 98  86 97 98  88 89 100  88 99 100  89 90 101  89 100 101  90 91 102  90 101 102  91 92 103  91 102 103  92 93 104  92 103 104  93 94 105  93 104 105  94 95 106  94 105 106  95 96 107  95 106 107  96 97 108  96 107 108  97 98 109  97 108 109  99 100 111  99 110 111  100 101 112  100 111 112  101 102 113  101 112 113  102 103 114  102 113 114  103 104 115  103 114 115  104 105 116  104 115 116  105 106 117  105 116 117  106 107 118  106 117 118  107 108 119  107 118 119  108 109 120  108 119 120  </DataArray>
<DataArray  type="UInt32"  Name="offsets"  format="ascii">3 6 9 12 15 18 21 24 27 30 33 36 39 42 45 48 51 54 57 60 63 66 69 72 75 78 81 84 87 90 93 96 99 102 105 108 111 114 117 120 123 126 129 132 135 138 141 144 147 150 153 156 159 162 165 168 171 174 177 180 183 186 189 192 195 198 201 204 207 210 213 216 219 222 225 228 231 234 237 240 243 246 249 252 255 258 261 264 267 270 273 276 279 282 285 288 291 294 297 300 303 306 309 312 315 318 321 324 327 330 333 336 339 342 345 348 351 354 357 360 363 366 369 372 375 378 381 384 387 390 393 396 399 402 405 408 411 414 417 420 423 426 429 432 435 438 441 444 447 450 453 456 459 462 465 468 471 474 477 480 483 486 489 492 495 498 501 504 507 510 513 516 519 522 525 528 531 534 537 540 543 546 549 552 555 558 561 564 567 570 573 576 579 582 585 588 591 594 597 600 </DataArray>
<DataArray  type="UInt8"  Name="types"  format="ascii">5 5 5 5 5 5 5 5 5 5 5 5 5 5 5 5 5 5 5 5 5 5 5 5 5 5 5 5 5 5 5 5 5 5 5 5 5 5 5 5 5 5 5 5 5 5 5 5 5 5 5 5 5 5 5 5 5 5 5 5 5 5 5 5 5 5 5 5 5 5 5 5 5 5 5 5 5 5 5 5 5 5 5 5 5 5 5 5 5 5 5 5 5 5 5 5 5 5 5 5 5 5 5 5 5 5 5 5 5 5 5 5 5 5 5 5 5 5 5 5 5 5 5 5 5 5 5 5 5 5 5 5 5 5 5 5 5 5 5 5 5 5 5 5 5 5 5 5 5 5 5 5 5 5 5 5 5 5 5 5 5 5 5 5 5 5 5 5 5 5 5 5 5 5 5 5 5 5 5 5 5 5 5 5 5 5 5 5 5 5 5 5 5 5 5 5 5 5 5 5 </DataArray>
</Cells>
<PointData  Vectors="f_7-0"> 
<DataArray  type="Float64"  Name="f_7-0"  NumberOfComponents="3" format="ascii">0.0000000000000000e+00 0.0000000000000000e+00 0.0000000000000000e+00  0.0000000000000000e+00 0.0000000000000000e+00 0.0000000000000000e+00  0.0000000000000000e+00 0.0000000000000000e+00 0.0000000000000000e+00  0.0000000000000000e+00 0.0000000000000000e+00 0.0000000000000000e+00  0.0000000000000000e+00 0.0000000000000000e+00 0.0000000000000000e+00  0.0000000000000000e+00 0.0000000000000000e+00 0.0000000000000000e+00  0.0000000000000000e+00 0.0000000000000000e+00 0.0000000000000000e+00  0.0000000000000000e+00 0.0000000000000000e+00 0.0000000000000000e+00  0.0000000000000000e+00 0.0000000000000000e+00 0.0000000000000000e+00  0.0000000000000000e+00 0.0000000000000000e+00 0.0000000000000000e+00  0.0000000000000000e+00 0.0000000000000000e+00 0.0000000000000000e+00  1.7430060803481726e-01 -1.7798606631524141e-01 0.0000000000000000e+00  1.0258442949324652e-01 -2.7653243311004599e-01 0.0000000000000000e+00  6.9999426109157492e-02 -2.9993265440820160e-01 0.0000000000000000e+00  4.3676430065660729e-02 -3.0859784275444568e-01 0.0000000000000000e+00  2.1228441653137826e-02 -3.1198521252318845e-01 0.0000000000000000e+00  2.0701581753400035e-05 -3.1289584846940927e-01 0.0000000000000000e+00  -2.1206843957964235e-02 -3.1198456276806291e-01 0.0000000000000000e+00  -4.3731510024570742e-02 -3.0862342302830764e-01 0.0000000000000000e+00  -6.9493498960410627e-02 -3.0002448714112950e-01 0.0000000000000000e+00  -1.0556975190583191e-01 -2.7594177945310533e-01 0.0000000000000000e+00  -1.7336034569818751e-01 -1.7639637428918159e-01 0.0000000000000000e+00  2.9814093750587389e-01 -4.5925848768030569e-01 0.0000000000000000e+00  2.0835531831461290e-01 -5.5779067721217002e-01 0.0000000000000000e+00  1.3985910402375187e-01 -5.9576827777539465e-01 0.0000000000000000e+00  8.7281150304652083e-02 -6.1146866591266469e-01 0.0000000000000000e+00  4.2217755256812595e-02 -6.1800375616140668e-01 0.0000000000000000e+00  3.9230521100209297e-05 -6.1983795725241675e-01 0.0000000000000000e+00  -4.2103121268633699e-02 -6.1799824533074232e-01 0.0000000000000000e+00  -8.7239533092239696e-02 -6.1140698054727882e-01 0.0000000000000000e+00  -1.3985654804027953e-01 -5.9564761019219203e-01 0.0000000000000000e+00  -2.0803002592024089e-01 -5.5774603571501924e-01 0.0000000000000000e+00  -3.0070250596250975e-01 -4.6069514376627102e-01 0.0000000000000000e+00  3.8547025748783686e-01 -7.9096976799653740e-01 0.0000000000000000e+00  2.8398165957288507e-01 -8.5151848798023977e-01 0.0000000000000000e+00  1.9797867450421494e-01 -8.9072340994953780e-01 0.0000000000000000e+00  1.2524989905145631e-01 -9.1013164899721555e-01 0.0000000000000000e+00  6.0775180779634265e-02 -9.1910418286138862e-01 0.0000000000000000e+00  5.9881786008144447e-05 -9.2171571427957888e-01 0.0000000000000000e+00  -6.0632116226328907e-02 -9.1911370245119828e-01 0.0000000000000000e+00  -1.2506697463134150e-01 -9.1015858769259761e-01 0.0000000000000000e+00  -1.9764047008458524e-01 -8.9076981599111038e-01 0.0000000000000000e+00  -2.8320690136615650e-01 -8.5162413316718433e-01 0.0000000000000000e+00  -3.7871172890705107e-01 -7.8975213446945935e-01 0.0000000000000000e+00  4.3388805514010370e-01 -1.0965355700804726e+00 0.0000000000000000e+00  3.3428892495999724e-01 -1.1539012883452489e+00 0.0000000000000000e+00  2.3969711951668191e-01 -1.1873222144777813e+00 0.0000000000000000e+00  1.5427610787532639e-01 -1.2070109903066339e+00 0.0000000000000000e+00  7.5448914119317381e-02 -1.2169715668664753e+00 0.0000000000000000e+00  7.5038392166579533e-05 -1.2199940906288804e+00 0.0000000000000000e+00  -7.5299596344849187e-02 -1.2169761731369839e+00 0.0000000000000000e+00  -1.5410753595707435e-01 -1.2070497553574167e+00 0.0000000000000000e+00  -2.3988312245080229e-01 -1.1874781017997957e+00 0.0000000000000000e+00  -3.3426956202541186e-01 -1.1542784893418403e+00 0.0000000000000000e+00  -4.4010556366223952e-01 -1.0957745813467590e+00 0.0000000000000000e+00  4.6936700097953860e-01 -1.4345737504905791e+00 0.0000000000000000e+00  3.6591994003138756e-01 -1.4612116281507612e+00 0.0000000000000000e+00  2.6714505066449251e-01 -1.4865039090972365e+00 0.0000000000000000e+00  1.7423133558615816e-01 -1.5037176758352271e+00 0.0000000000000000e+00  8.5889624141801180e-02 -1.5132848025649994e+00 0.0000000000000000e+00  8.1340847689871900e-05 -1.5163160782838618e+00 0.0000000000000000e+00  -8.5739097686071339e-02 -1.5132963863077478e+00 0.0000000000000000e+00  -1.7406774235102085e-01 -1.5037185774168702e+00 0.0000000000000000e+00  -2.6689712908873731e-01 -1.4862953161844856e+00 0.0000000000000000e+00  -3.6554931894068216e-01 -1.4603048116239339e+00 0.0000000000000000e+00  -4.6646646939280606e-01 -1.4366458328376783e+00 0.0000000000000000e+00  4.8111845596613745e-01 -1.7576118178865963e+00 0.0000000000000000e+00  3.8098205919648170e-01 -1.7689006364293771e+00 0.0000000000000000e+00  2.8291484936284983e-01 -1.7873132103574279e+00 0.0000000000000000e+00  1.8655270896560541e-01 -1.8011718487984587e+00 0.0000000000000000e+00  9.2606857832449624e-02 -1.8093748634669515e+00 0.0000000000000000e+00  7.8400833419194492e-05 -1.8120598788019056e+00 0.0000000000000000e+00  -9.2454828775101666e-02 -1.8093774438879839e+00 0.0000000000000000e+00  -1.8638438345671685e-01 -1.8011823594520158e+00 0.0000000000000000e+00  -2.8262608489600255e-01 -1.7875068919219987e+00 0.0000000000000000e+00  -3.8055426960269645e-01 -1.7697985115658321e+00 0.0000000000000000e+00  -4.7813897765108621e-01 -1.7559389166105093e+00 0.0000000000000000e+00  4.8518515374517257e-01 -2.0591088522929382e+00 0.0000000000000000e+00  3.8963383146261932e-01 -2.0784188967465029e+00 0.0000000000000000e+00  2.9114566419010302e-01 -2.0898199332198524e+00 0.0000000000000000e+00  1.9350672574684158e-01 -2.0997195230098646e+00 0.0000000000000000e+00  9.6507914952422197e-02 -2.1059876656731924e+00 0.0000000000000000e+00  7.2669779179465610e-05 -2.1081055316773689e+00 0.0000000000000000e+00  -9.6354332105419938e-02 -2.1059899797133239e+00 0.0000000000000000e+00  -1.9335300138353495e-01 -2.0997087813288808e+00 0.0000000000000000e+00  -2.9126603965693010e-01 -2.0896996895721927e+00 0.0000000000000000e+00  -3.8972745147239152e-01 -2.0779500251574938e+00 0.0000000000000000e+00  -4.9148656224391291e-01 -2.0597036824277364e+00 0.0000000000000000e+00  4.9318073782384231e-01 -2.3927740174192427e+00 0.0000000000000000e+00  3.9287166641486426e-01 -2.3859792914910400e+00 0.0000000000000000e+00  2.9527752078777053e-01 -2.3929018154240391e+00 0.0000000000000000e+00  1.9696240221452935e-01 -2.3991996336206101e+00 0.0000000000000000e+00  9.8531717538114322e-02 -2.4033941241560428e+00 0.0000000000000000e+00  6.9459732303015889e-05 -2.4048325268516293e+00 0.0000000000000000e+00  -9.8391013616417888e-02 -2.4033937774672505e+00 0.0000000000000000e+00  -1.9680377853607278e-01 -2.3992009019292158e+00 0.0000000000000000e+00  -2.9479557780074883e-01 -2.3928674055024084e+00 0.0000000000000000e+00  -3.9243567998697260e-01 -2.3858121184708279e+00 0.0000000000000000e+00  -4.8605885812894117e-01 -2.3937961704231761e+00 0.0000000000000000e+00  4.8643913542715017e-01 -2.6858763601781335e+00 0.0000000000000000e+00  3.9286746566009367e-01 -2.6931327072889402e+00 0.0000000000000000e+00  2.9641056189177478e-01 -2.6962821789977238e+00 0.0000000000000000e+00  1.9838782814662692e-01 -2.6994169940811030e+00 0.0000000000000000e+00  9.9435551766813290e-02 -2.7014954049064208e+00 0.0000000000000000e+00  6.2557200910601108e-05 -2.7022202809482958e+00 0.0000000000000000e+00  -9.9304149059145808e-02 -2.7014989202776882e+00 0.0000000000000000e+00  -1.9827517949559403e-01 -2.6994293238044418e+00 0.0000000000000000e+00  -2.9637789516711732e-01 -2.6963744425127607e+00 0.0000000000000000e+00  -3.9267732571707431e-01 -2.6935243591121649e+00 0.0000000000000000e+00  -4.9018946583202444e-01 -2.6846441168922888e+00 0.0000000000000000e+00  4.9034561851412922e-01 -3.0000000000000000e+00 0.0000000000000000e+00  3.9387879246935403e-01 -3.0000000000000000e+00 0.0000000000000000e+00  2.9681482082768662e-01 -3.0000000000000000e+00 0.0000000000000000e+00  1.9878326291922413e-01 -3.0000000000000000e+00 0.0000000000000000e+00  9.9682264457680608e-02 -3.0000000000000000e+00 0.0000000000000000e+00  6.6332505854891478e-05 -3.0000000000000000e+00 0.0000000000000000e+00  -9.9550330379553340e-02 -3.0000000000000000e+00 0.0000000000000000e+00  -1.9869046236177393e-01 -3.0000000000000000e+00 0.0000000000000000e+00  -2.9674848070550092e-01 -3.0000000000000000e+00 0.0000000000000000e+00  -3.9435450127314875e-01 -3.0000000000000000e+00 0.0000000000000000e+00  -4.8912713088488413e-01 -3.0000000000000000e+00 0.0000000000000000e+00  </DataArray> 
</PointData> 
</Piece>
</UnstructuredGrid>
</VTKFile>