<?xml version="1.0"?>
<VTKFile type="UnstructuredGrid"  version="0.1"  >
<UnstructuredGrid>
<Piece  NumberOfPoints="1331" NumberOfCells="6000">
<Points>
<DataArray  type="Float64"  NumberOfComponents="3"  format="ascii">0 0 0  1 0 0  2 0 0  3 0 0  4 0 0  5 0 0  6 0 0  7 0 0  8 0 0  9 0 0  10 0 0  0 0.3 0  1 0.3 0  2 0.3 0  3 0.3 0  4 0.3 0  5 0.3 0  6 0.3 0  7 0.3 0  8 0.3 0  9 0.3 0  10 0.3 0  0 0.6 0  1 0.6 0  2 0.6 0  3 0.6 0  4 0.6 0  5 0.6 0  6 0.6 0  7 0.6 0  8 0.6 0  9 0.6 0  10 0.6 0  0 0.9 0  1 0.9 0  2 0.9 0  3 0.9 0  4 0.9 0  5 0.9 0  6 0.9 0  7 0.9 0  8 0.9 0  9 0.9 0  10 0.9 0  0 1.2 0  1 1.2 0  2 1.2 0  3 1.2 0  4 1.2 0  5 1.2 0  6 1.2 0  7 1.2 0  8 1.2 0  9 1.2 0  10 1.2 0  0 1.5 0  1 1.5 0  2 1.5 0  3 1.5 0  4 1.5 0  5 1.5 0  6 1.5 0  7 1.5 0  8 1.5 0  9 1.5 0  10 1.5 0  0 1.8 0  1 1.8 0  2 1.8 0  3 1.8 0  4 1.8 0  5 1.8 0  6 1.8 0  7 1.8 0  8 1.8 0  9 1.8 0  10 1.8 0  0 2.1 0  1 2.1 0  2 2.1 0  3 2.1 0  4 2.1 0  5 2.1 0  6 2.1 0  7 2.1 0  8 2.1 0  9 2.1 0  10 2.1 0  0 2.4 0  1 2.4 0  2 2.4 0  3 2.4 0  4 2.4 0  5 2.4 0  6 2.4 0  7 2.4 0  8 2.4 0  9 2.4 0  10 2.4 0  0 2.7 0  1 2.7 0  2 2.7 0  3 2.7 0  4 2.7 0  5 2.7 0  6 2.7 0  7 2.7 0  8 2.7 0  9 2.7 0  10 2.7 0  0 3 0  1 3 0  2 3 0  3 3 0  4 3 0  5 3 0  6 3 0  7 3 0  8 3 0  9 3 0  10 3 0  0 0 0.05  1 0 0.05  2 0 0.05  3 0 0.05  4 0 0.05  5 0 0.05  6 0 0.05  7 0 0.05  8 0 0.05  9 0 0.05  10 0 0.05  0 0.3 0.05  1 0.3 0.05  2 0.3 0.05  3 0.3 0.05  4 0.3 0.05  5 0.3 0.05  6 0.3 0.05  7 0.3 0.05  8 0.3 0.05  9 0.3 0.05  10 0.3 0.05  0 0.6 0.05  1 0.6 0.05  2 0.6 0.05  3 0.6 0.05  4 0.6 0.05  5 0.6 0.05  6 0.6 0.05  7 0.6 0.05  8 0.6 0.05  9 0.6 0.05  10 0.6 0.05  0 0.9 0.05  1 0.9 0.05  2 0.9 0.05  3 0.9 0.05  4 0.9 0.05  5 0.9 0.05  6 0.9 0.05  7 0.9 0.05  8 0.9 0.05  9 0.9 0.05  10 0.9 0.05  0 1.2 0.05  1 1.2 0.05  2 1.2 0.05  3 1.2 0.05  4 1.2 0.05  5 1.2 0.05  6 1.2 0.05  7 1.2 0.05  8 1.2 0.05  9 1.2 0.05  10 1.2 0.05  0 1.5 0.05  1 1.5 0.05  2 1.5 0.05  3 1.5 0.05  4 1.5 0.05  5 1.5 0.05  6 1.5 0.05  7 1.5 0.05  8 1.5 0.05  9 1.5 0.05  10 1.5 0.05  0 1.8 0.05  1 1.8 0.05  2 1.8 0.05  3 1.8 0.05  4 1.8 0.05  5 1.8 0.05  6 1.8 0.05  7 1.8 0.05  8 1.8 0.05  9 1.8 0.05  10 1.8 0.05  0 2.1 0.05  1 2.1 0.05  2 2.1 0.05  3 2.1 0.05  4 2.1 0.05  5 2.1 0.05  6 2.1 0.05  7 2.1 0.05  8 2.1 0.05  9 2.1 0.05  10 2.1 0.05  0 2.4 0.05  1 2.4 0.05  2 2.4 0.05  3 2.4 0.05  4 2.4 0.05  5 2.4 0.05  6 2.4 0.05  7 2.4 0.05  8 2.4 0.05  9 2.4 0.05  10 2.4 0.05  0 2.7 0.05  1 2.7 0.05  2 2.7 0.05  3 2.7 0.05  4 2.7 0.05  5 2.7 0.05  6 2.7 0.05  7 2.7 0.05  8 2.7 0.05  9 2.7 0.05  10 2.7 0.05  0 3 0.05  1 3 0.05  2 3 0.05  3 3 0.05  4 3 0.05  5 3 0.05  6 3 0.05  7 3 0.05  8 3 0.05  9 3 0.05  10 3 0.05  0 0 0.1  1 0 0.1  2 0 0.1  3 0 0.1  4 0 0.1  5 0 0.1  6 0 0.1  7 0 0.1  8 0 0.1  9 0 0.1  10 0 0.1  0 0.3 0.1  1 0.3 0.1  2 0.3 0.1  3 0.3 0.1  4 0.3 0.1  5 0.3 0.1  6 0.3 0.1  7 0.3 0.1  8 0.3 0.1  9 0.3 0.1  10 0.3 0.1  0 0.6 0.1  1 0.6 0.1  2 0.6 0.1  3 0.6 0.1  4 0.6 0.1  5 0.6 0.1  6 0.6 0.1  7 0.6 0.1  8 0.6 0.1  9 0.6 0.1  10 0.6 0.1  0 0.9 0.1  1 0.9 0.1  2 0.9 0.1  3 0.9 0.1  4 0.9 0.1  5 0.9 0.1  6 0.9 0.1  7 0.9 0.1  8 0.9 0.1  9 0.9 0.1  10 0.9 0.1  0 1.2 0.1  1 1.2 0.1  2 1.2 0.1  3 1.2 0.1  4 1.2 0.1  5 1.2 0.1  6 1.2 0.1  7 1.2 0.1  8 1.2 0.1  9 1.2 0.1  10 1.2 0.1  0 1.5 0.1  1 1.5 0.1  2 1.5 0.1  3 1.5 0.1  4 1.5 0.1  5 1.5 0.1  6 1.5 0.1  7 1.5 0.1  8 1.5 0.1  9 1.5 0.1  10 1.5 0.1  0 1.8 0.1  1 1.8 0.1  2 1.8 0.1  3 1.8 0.1  4 1.8 0.1  5 1.8 0.1  6 1.8 0.1  7 1.8 0.1  8 1.8 0.1  9 1.8 0.1  10 1.8 0.1  0 2.1 0.1  1 2.1 0.1  2 2.1 0.1  3 2.1 0.1  4 2.1 0.1  5 2.1 0.1  6 2.1 0.1  7 2.1 0.1  8 2.1 0.1  9 2.1 0.1  10 2.1 0.1  0 2.4 0.1  1 2.4 0.1  2 2.4 0.1  3 2.4 0.1  4 2.4 0.1  5 2.4 0.1  6 2.4 0.1  7 2.4 0.1  8 2.4 0.1  9 2.4 0.1  10 2.4 0.1  0 2.7 0.1  1 2.7 0.1  2 2.7 0.1  3 2.7 0.1  4 2.7 0.1  5 2.7 0.1  6 2.7 0.1  7 2.7 0.1  8 2.7 0.1  9 2.7 0.1  10 2.7 0.1  0 3 0.1  1 3 0.1  2 3 0.1  3 3 0.1  4 3 0.1  5 3 0.1  6 3 0.1  7 3 0.1  8 3 0.1  9 3 0.1  10 3 0.1  0 0 0.15  1 0 0.15  2 0 0.15  3 0 0.15  4 0 0.15  5 0 0.15  6 0 0.15  7 0 0.15  8 0 0.15  9 0 0.15  10 0 0.15  0 0.3 0.15  1 0.3 0.15  2 0.3 0.15  3 0.3 0.15  4 0.3 0.15  5 0.3 0.15  6 0.3 0.15  7 0.3 0.15  8 0.3 0.15  9 0.3 0.15  10 0.3 0.15  0 0.6 0.15  1 0.6 0.15  2 0.6 0.15  3 0.6 0.15  4 0.6 0.15  5 0.6 0.15  6 0.6 0.15  7 0.6 0.15  8 0.6 0.15  9 0.6 0.15  10 0.6 0.15  0 0.9 0.15  1 0.9 0.15  2 0.9 0.15  3 0.9 0.15  4 0.9 0.15  5 0.9 0.15  6 0.9 0.15  7 0.9 0.15  8 0.9 0.15  9 0.9 0.15  10 0.9 0.15  0 1.2 0.15  1 1.2 0.15  2 1.2 0.15  3 1.2 0.15  4 1.2 0.15  5 1.2 0.15  6 1.2 0.15  7 1.2 0.15  8 1.2 0.15  9 1.2 0.15  10 1.2 0.15  0 1.5 0.15  1 1.5 0.15  2 1.5 0.15  3 1.5 0.15  4 1.5 0.15  5 1.5 0.15  6 1.5 0.15  7 1.5 0.15  8 1.5 0.15  9 1.5 0.15  10 1.5 0.15  0 1.8 0.15  1 1.8 0.15  2 1.8 0.15  3 1.8 0.15  4 1.8 0.15  5 1.8 0.15  6 1.8 0.15  7 1.8 0.15  8 1.8 0.15  9 1.8 0.15  10 1.8 0.15  0 2.1 0.15  1 2.1 0.15  2 2.1 0.15  3 2.1 0.15  4 2.1 0.15  5 2.1 0.15  6 2.1 0.15  7 2.1 0.15  8 2.1 0.15  9 2.1 0.15  10 2.1 0.15  0 2.4 0.15  1 2.4 0.15  2 2.4 0.15  3 2.4 0.15  4 2.4 0.15  5 2.4 0.15  6 2.4 0.15  7 2.4 0.15  8 2.4 0.15  9 2.4 0.15  10 2.4 0.15  0 2.7 0.15  1 2.7 0.15  2 2.7 0.15  3 2.7 0.15  4 2.7 0.15  5 2.7 0.15  6 2.7 0.15  7 2.7 0.15  8 2.7 0.15  9 2.7 0.15  10 2.7 0.15  0 3 0.15  1 3 0.15  2 3 0.15  3 3 0.15  4 3 0.15  5 3 0.15  6 3 0.15  7 3 0.15  8 3 0.15  9 3 0.15  10 3 0.15  0 0 0.2  1 0 0.2  2 0 0.2  3 0 0.2  4 0 0.2  5 0 0.2  6 0 0.2  7 0 0.2  8 0 0.2  9 0 0.2  10 0 0.2  0 0.3 0.2  1 0.3 0.2  2 0.3 0.2  3 0.3 0.2  4 0.3 0.2  5 0.3 0.2  6 0.3 0.2  7 0.3 0.2  8 0.3 0.2  9 0.3 0.2  10 0.3 0.2  0 0.6 0.2  1 0.6 0.2  2 0.6 0.2  3 0.6 0.2  4 0.6 0.2  5 0.6 0.2  6 0.6 0.2  7 0.6 0.2  8 0.6 0.2  9 0.6 0.2  10 0.6 0.2  0 0.9 0.2  1 0.9 0.2  2 0.9 0.2  3 0.9 0.2  4 0.9 0.2  5 0.9 0.2  6 0.9 0.2  7 0.9 0.2  8 0.9 0.2  9 0.9 0.2  10 0.9 0.2  0 1.2 0.2  1 1.2 0.2  2 1.2 0.2  3 1.2 0.2  4 1.2 0.2  5 1.2 0.2  6 1.2 0.2  7 1.2 0.2  8 1.2 0.2  9 1.2 0.2  10 1.2 0.2  0 1.5 0.2  1 1.5 0.2  2 1.5 0.2  3 1.5 0.2  4 1.5 0.2  5 1.5 0.2  6 1.5 0.2  7 1.5 0.2  8 1.5 0.2  9 1.5 0.2  10 1.5 0.2  0 1.8 0.2  1 1.8 0.2  2 1.8 0.2  3 1.8 0.2  4 1.8 0.2  5 1.8 0.2  6 1.8 0.2  7 1.8 0.2  8 1.8 0.2  9 1.8 0.2  10 1.8 0.2  0 2.1 0.2  1 2.1 0.2  2 2.1 0.2  3 2.1 0.2  4 2.1 0.2  5 2.1 0.2  6 2.1 0.2  7 2.1 0.2  8 2.1 0.2  9 2.1 0.2  10 2.1 0.2  0 2.4 0.2  1 2.4 0.2  2 2.4 0.2  3 2.4 0.2  4 2.4 0.2  5 2.4 0.2  6 2.4 0.2  7 2.4 0.2  8 2.4 0.2  9 2.4 0.2  10 2.4 0.2  0 2.7 0.2  1 2.7 0.2  2 2.7 0.2  3 2.7 0.2  4 2.7 0.2  5 2.7 0.2  6 2.7 0.2  7 2.7 0.2  8 2.7 0.2  9 2.7 0.2  10 2.7 0.2  0 3 0.2  1 3 0.2  2 3 0.2  3 3 0.2  4 3 0.2  5 3 0.2  6 3 0.2  7 3 0.2  8 3 0.2  9 3 0.2  10 3 0.2  0 0 0.25  1 0 0.25  2 0 0.25  3 0 0.25  4 0 0.25  5 0 0.25  6 0 0.25  7 0 0.25  8 0 0.25  9 0 0.25  10 0 0.25  0 0.3 0.25  1 0.3 0.25  2 0.3 0.25  3 0.3 0.25  4 0.3 0.25  5 0.3 0.25  6 0.3 0.25  7 0.3 0.25  8 0.3 0.25  9 0.3 0.25  10 0.3 0.25  0 0.6 0.25  1 0.6 0.25  2 0.6 0.25  3 0.6 0.25  4 0.6 0.25  5 0.6 0.25  6 0.6 0.25  7 0.6 0.25  8 0.6 0.25  9 0.6 0.25  10 0.6 0.25  0 0.9 0.25  1 0.9 0.25  2 0.9 0.25  3 0.9 0.25  4 0.9 0.25  5 0.9 0.25  6 0.9 0.25  7 0.9 0.25  8 0.9 0.25  9 0.9 0.25  10 0.9 0.25  0 1.2 0.25  1 1.2 0.25  2 1.2 0.25  3 1.2 0.25  4 1.2 0.25  5 1.2 0.25  6 1.2 0.25  7 1.2 0.25  8 1.2 0.25  9 1.2 0.25  10 1.2 0.25  0 1.5 0.25  1 1.5 0.25  2 1.5 0.25  3 1.5 0.25  4 1.5 0.25  5 1.5 0.25  6 1.5 0.25  7 1.5 0.25  8 1.5 0.25  9 1.5 0.25  10 1.5 0.25  0 1.8 0.25  1 1.8 0.25  2 1.8 0.25  3 1.8 0.25  4 1.8 0.25  5 1.8 0.25  6 1.8 0.25  7 1.8 0.25  8 1.8 0.25  9 1.8 0.25  10 1.8 0.25  0 2.1 0.25  1 2.1 0.25  2 2.1 0.25  3 2.1 0.25  4 2.1 0.25  5 2.1 0.25  6 2.1 0.25  7 2.1 0.25  8 2.1 0.25  9 2.1 0.25  10 2.1 0.25  0 2.4 0.25  1 2.4 0.25  2 2.4 0.25  3 2.4 0.25  4 2.4 0.25  5 2.4 0.25  6 2.4 0.25  7 2.4 0.25  8 2.4 0.25  9 2.4 0.25  10 2.4 0.25  0 2.7 0.25  1 2.7 0.25  2 2.7 0.25  3 2.7 0.25  4 2.7 0.25  5 2.7 0.25  6 2.7 0.25  7 2.7 0.25  8 2.7 0.25  9 2.7 0.25  10 2.7 0.25  0 3 0.25  1 3 0.25  2 3 0.25  3 3 0.25  4 3 0.25  5 3 0.25  6 3 0.25  7 3 0.25  8 3 0.25  9 3 0.25  10 3 0.25  0 0 0.3  1 0 0.3  2 0 0.3  3 0 0.3  4 0 0.3  5 0 0.3  6 0 0.3  7 0 0.3  8 0 0.3  9 0 0.3  10 0 0.3  0 0.3 0.3  1 0.3 0.3  2 0.3 0.3  3 0.3 0.3  4 0.3 0.3  5 0.3 0.3  6 0.3 0.3  7 0.3 0.3  8 0.3 0.3  9 0.3 0.3  10 0.3 0.3  0 0.6 0.3  1 0.6 0.3  2 0.6 0.3  3 0.6 0.3  4 0.6 0.3  5 0.6 0.3  6 0.6 0.3  7 0.6 0.3  8 0.6 0.3  9 0.6 0.3  10 0.6 0.3  0 0.9 0.3  1 0.9 0.3  2 0.9 0.3  3 0.9 0.3  4 0.9 0.3  5 0.9 0.3  6 0.9 0.3  7 0.9 0.3  8 0.9 0.3  9 0.9 0.3  10 0.9 0.3  0 1.2 0.3  1 1.2 0.3  2 1.2 0.3  3 1.2 0.3  4 1.2 0.3  5 1.2 0.3  6 1.2 0.3  7 1.2 0.3  8 1.2 0.3  9 1.2 0.3  10 1.2 0.3  0 1.5 0.3  1 1.5 0.3  2 1.5 0.3  3 1.5 0.3  4 1.5 0.3  5 1.5 0.3  6 1.5 0.3  7 1.5 0.3  8 1.5 0.3  9 1.5 0.3  10 1.5 0.3  0 1.8 0.3  1 1.8 0.3  2 1.8 0.3  3 1.8 0.3  4 1.8 0.3  5 1.8 0.3  6 1.8 0.3  7 1.8 0.3  8 1.8 0.3  9 1.8 0.3  10 1.8 0.3  0 2.1 0.3  1 2.1 0.3  2 2.1 0.3  3 2.1 0.3  4 2.1 0.3  5 2.1 0.3  6 2.1 0.3  7 2.1 0.3  8 2.1 0.3  9 2.1 0.3  10 2.1 0.3  0 2.4 0.3  1 2.4 0.3  2 2.4 0.3  3 2.4 0.3  4 2.4 0.3  5 2.4 0.3  6 2.4 0.3  7 2.4 0.3  8 2.4 0.3  9 2.4 0.3  10 2.4 0.3  0 2.7 0.3  1 2.7 0.3  2 2.7 0.3  3 2.7 0.3  4 2.7 0.3  5 2.7 0.3  6 2.7 0.3  7 2.7 0.3  8 2.7 0.3  9 2.7 0.3  10 2.7 0.3  0 3 0.3  1 3 0.3  2 3 0.3  3 3 0.3  4 3 0.3  5 3 0.3  6 3 0.3  7 3 0.3  8 3 0.3  9 3 0.3  10 3 0.3  0 0 0.35  1 0 0.35  2 0 0.35  3 0 0.35  4 0 0.35  5 0 0.35  6 0 0.35  7 0 0.35  8 0 0.35  9 0 0.35  10 0 0.35  0 0.3 0.35  1 0.3 0.35  2 0.3 0.35  3 0.3 0.35  4 0.3 0.35  5 0.3 0.35  6 0.3 0.35  7 0.3 0.35  8 0.3 0.35  9 0.3 0.35  10 0.3 0.35  0 0.6 0.35  1 0.6 0.35  2 0.6 0.35  3 0.6 0.35  4 0.6 0.35  5 0.6 0.35  6 0.6 0.35  7 0.6 0.35  8 0.6 0.35  9 0.6 0.35  10 0.6 0.35  0 0.9 0.35  1 0.9 0.35  2 0.9 0.35  3 0.9 0.35  4 0.9 0.35  5 0.9 0.35  6 0.9 0.35  7 0.9 0.35  8 0.9 0.35  9 0.9 0.35  10 0.9 0.35  0 1.2 0.35  1 1.2 0.35  2 1.2 0.35  3 1.2 0.35  4 1.2 0.35  5 1
[...]
<PointData  Vectors="f_15"> 
<DataArray  type="Float64"  Name="f_15"  NumberOfComponents="3" format="ascii">0.0000000000000000e+00 0.0000000000000000e+00 0.0000000000000000e+00  4.2620821943685390e-02 3.1995967400661740e-02 6.3351697556740718e-03  9.1217962307894668e-02 3.4638800143691396e-02 5.7418573050444805e-03  1.4151649977115191e-01 3.4686479279211639e-02 5.8289845266971240e-03  1.9258970785026078e-01 3.4444718368426566e-02 5.8621358320489845e-03  2.4383816108256726e-01 3.4334109657568807e-02 5.8620494724472465e-03  2.9508280588611385e-01 3.4291279695177236e-02 5.8615401194679131e-03  3.4631653233274912e-01 3.4267836298863548e-02 5.8615118433634344e-03  3.9754571784756360e-01 3.4252742666294522e-02 5.8615557730535440e-03  4.4877317756271812e-01 3.4243975971404161e-02 5.8615688208707778e-03  5.0000000000000000e-01 3.4241094408383167e-02 5.8615660778184968e-03  0.0000000000000000e+00 0.0000000000000000e+00 0.0000000000000000e+00  4.0370772146065291e-02 2.5589788447489610e-02 7.0654144629484364e-03  9.0925694174566599e-02 2.7931130392611688e-02 5.7263567468106014e-03  1.4150376264551992e-01 2.7905936740541794e-02 5.8430129508642813e-03  1.9262479199122270e-01 2.7624566841961930e-02 5.8461760200005678e-03  2.4385624884467752e-01 2.7514256317003098e-02 5.8474414645036978e-03  2.9509186389147213e-01 2.7472889257848784e-02 5.8473575821533065e-03  3.4632208001414244e-01 2.7450108361787871e-02 5.8472785536951011e-03  3.9754914821891202e-01 2.7435289147792519e-02 5.8472685949344134e-03  4.4877484387971162e-01 2.7426636758918908e-02 5.8472567076706143e-03  5.0000000000000000e-01 2.7423788423033790e-02 5.8472496971364411e-03  0.0000000000000000e+00 0.0000000000000000e+00 0.0000000000000000e+00  3.8124881072527213e-02 1.8465635985183738e-02 7.7113305396748410e-03  9.0358741755205349e-02 2.1234732373643705e-02 5.7572570461808577e-03  1.4139739489676886e-01 2.1084314385319096e-02 5.8539440061998477e-03  1.9264110530114320e-01 2.0797774845581124e-02 5.8300266666130142e-03  2.4387366091311366e-01 2.0695230496308621e-02 5.8332112142026118e-03  2.9510204054217737e-01 2.0655079786487420e-02 5.8331601775685644e-03  3.4632820869906200e-01 2.0632742227813135e-02 5.8330413266031878e-03  3.9755283380776207e-01 2.0618085376018135e-02 5.8329766778387306e-03  4.4877661433478350e-01 2.0609512605881786e-02 5.8329412749943375e-03  5.0000000000000000e-01 2.0606690923507566e-02 5.8329301175672468e-03  0.0000000000000000e+00 0.0000000000000000e+00 0.0000000000000000e+00  3.7140230308977513e-02 1.2053280808891276e-02 7.9740063113829494e-03  8.9789634111236208e-02 1.4463742725292944e-02 5.7577820761757076e-03  1.4127191570357850e-01 1.4196047070175938e-02 5.8582091532134650e-03  1.9264708698040747e-01 1.3963496966114618e-02 5.8154894541029411e-03  2.4388920498191027e-01 1.3876040125406221e-02 5.8191323179209104e-03  2.9511256916728285e-01 1.3837919400098689e-02 5.8188867133439591e-03  3.4633467595224393e-01 1.3815810070876238e-02 5.8187717002633381e-03  3.9755670946489552e-01 1.3801161413959817e-02 5.8186677151514212e-03  4.4877846711239283e-01 1.3792623945894270e-02 5.8186183146761369e-03  5.0000000000000000e-01 1.3789819979536350e-02 5.8186048664851048e-03  0.0000000000000000e+00 0.0000000000000000e+00 0.0000000000000000e+00  3.6664127963426454e-02 6.1779445680455918e-03 8.0996490559765138e-03  8.9333260693970379e-02 7.5329985108957458e-03 5.7882206928788916e-03  1.4118460349871292e-01 7.2652733566823660e-03 5.8552325458606476e-03  1.9265242521975662e-01 7.1220882480356367e-03 5.8008940702226819e-03  2.4390323484400606e-01 7.0562178809339968e-03 5.8049798866675667e-03  2.9512283801777284e-01 7.0214370287668849e-03 5.8045508552100715e-03  3.4634124078230577e-01 6.9993110534522646e-03 5.8044558261617458e-03  3.9756069975977010e-01 6.9845332718718933e-03 5.8043356923517470e-03  4.4878037757447370e-01 6.9759866799502740e-03 5.8042850688589179e-03  5.0000000000000000e-01 6.9731901477786814e-03 5.8042723618294580e-03  0.0000000000000000e+00 0.0000000000000000e+00 0.0000000000000000e+00  3.6512930330382269e-02 5.8955734854112369e-04 8.1482371250836752e-03  8.9149368152458192e-02 5.1585072547789411e-04 5.7963065410861761e-03  1.4117347844515296e-01 3.1723929919339253e-04 5.8379144185694825e-03  1.9266508747385724e-01 2.7581543861221534e-04 5.7863682707014622e-03  2.4391630169236092e-01 2.3644671371833407e-04 5.7907021235183180e-03  2.9513244782031833e-01 2.0553861544884923e-04 5.7901280799035389e-03  3.4634771648500445e-01 1.8319840598862410e-04 5.7900842395745772e-03  3.9756473116460739e-01 1.6820356072440732e-04 5.7899772482572550e-03  4.4878231890554693e-01 1.5960981872701783e-04 5.7899401353840880e-03  5.0000000000000000e-01 1.5681096892826275e-04 5.7899322017417000e-03  0.0000000000000000e+00 0.0000000000000000e+00 0.0000000000000000e+00  3.6653230256019867e-02 -4.9341636931685296e-03 8.1371164797023471e-03  8.9274059908447348e-02 -6.5405046157323626e-03 5.7654810427742714e-03  1.4124637004427493e-01 -6.6276402865081546e-03 5.8138942948798792e-03  1.9268781904132318e-01 -6.5684529582971992e-03 5.7720050591463772e-03  2.4392846698431178e-01 -6.5824264233523598e-03 5.7761140130739809e-03  2.9514121369931345e-01 -6.6099485446710904e-03 5.7756165483293011e-03  3.4635398532720785e-01 -6.6325854911831843e-03 5.7756546600106406e-03  3.9756874208929177e-01 -6.6478375945828276e-03 5.7755916252147949e-03  4.4878426478402794e-01 -6.6565038734446667e-03 5.7755839352620041e-03  5.0000000000000000e-01 -6.6593130535411707e-03 5.7755851044723515e-03  0.0000000000000000e+00 0.0000000000000000e+00 0.0000000000000000e+00  3.7114955530237581e-02 -1.0604789752116976e-02 8.0691737783369077e-03  8.9704673442527860e-02 -1.3605241596018659e-02 5.6885758501998580e-03  1.4139044553866625e-01 -1.3538901638987749e-02 5.7876095744774786e-03  1.9271663271026118e-01 -1.3404034413759171e-02 5.7570139681484443e-03  2.4393933836690768e-01 -1.3400074266296537e-02 5.7612490415119141e-03  2.9514910781742698e-01 -1.3425155850490216e-02 5.7610354483513624e-03  3.4636000027367575e-01 -1.3448105221441803e-02 5.7611672407675511e-03  3.9757268749513514e-01 -1.3463607119078928e-02 5.7611821546414690e-03  4.4878619003835724e-01 -1.3472356687378033e-02 5.7612188065595442e-03  5.0000000000000000e-01 -1.3475182913724034e-02 5.7612329948987483e-03  0.0000000000000000e+00 0.0000000000000000e+00 0.0000000000000000e+00  3.8002242002576757e-02 -1.6648242281627333e-02 7.9314519421990106e-03  9.0406526360631456e-02 -2.0626284696492025e-02 5.5621823641821538e-03  1.4155788898625193e-01 -2.0387405510750273e-02 5.7652312764222731e-03  1.9274274483561496e-01 -2.0229518582805136e-02 5.7410423398120431e-03  2.4394829936989842e-01 -2.0216424064933191e-02 5.7463418718979135e-03  2.9515622588022494e-01 -2.0240204000291809e-02 5.7463889577273330e-03  3.4636578822621444e-01 -2.0263423830845628e-02 5.7466297908300443e-03  3.9757653563346812e-01 -2.0279119718597870e-02 5.7467562702268491e-03  4.4878807019486883e-01 -2.0287955615879039e-02 5.7468485936792062e-03  5.0000000000000000e-01 -2.0290805420632534e-02 5.7468789109846605e-03  0.0000000000000000e+00 0.0000000000000000e+00 0.0000000000000000e+00  3.9615542305240857e-02 -2.3288659658380291e-02 7.6749640028884016e-03  9.1257543103501870e-02 -2.7495134897459941e-02 5.3954840675390289e-03  1.4166818619998225e-01 -2.7167409050675415e-02 5.7543720339778316e-03  1.9275917372732576e-01 -2.7048668868556686e-02 5.7232430161518709e-03  2.4395443313829526e-01 -2.7031533910026991e-02 5.7318144537464449e-03  2.9516291900384306e-01 -2.7055283853078045e-02 5.7316447127602321e-03  3.4637142542063470e-01 -2.7078563768521271e-02 5.7320652324140417e-03  3.9758025881529846e-01 -2.7094384460833072e-02 5.7323234779221317e-03  4.4878988007021320e-01 -2.7103312738319035e-02 5.7324784791792831e-03  5.0000000000000000e-01 -2.7106193423395122e-02 5.7325267423433222e-03  0.0000000000000000e+00 0.0000000000000000e+00 0.0000000000000000e+00  4.3015901839459761e-02 -3.0500163265805874e-02 7.1747139439752123e-03  9.1733230899498364e-02 -3.4105224730573667e-02 5.1764860633526956e-03  1.4169038470215259e-01 -3.3915616989161991e-02 5.7604668210650472e-03  1.9275622492996655e-01 -3.3866119408973674e-02 5.7031787441379385e-03  2.4395821429002409e-01 -3.3846073522570297e-02 5.7183729203411039e-03  2.9516976411248075e-01 -3.3870493772423155e-02 5.7168037641544761e-03  3.4637695604940139e-01 -3.3893485487790087e-02 5.7175147826315281e-03  3.9758381446264918e-01 -3.3909410152884074e-02 5.7178916133768919e-03  4.4879158945381203e-01 -3.3918446481151193e-02 5.7181129237972366e-03  5.0000000000000000e-01 -3.3921366774813631e-02 5.7181801054701420e-03  0.0000000000000000e+00 0.0000000000000000e+00 0.0000000000000000e+00  4.2634085752540699e-02 3.1802280208227805e-02 5.2532618271271172e-03  9.1223577524121621e-02 3.4636423951405863e-02 4.6396214344852542e-03  1.4151349151312609e-01 3.4685177124777367e-02 4.6997792428511180e-03  1.9258943996972810e-01 3.4447411660717672e-02 4.7255921432218734e-03  2.4383816096740363e-01 3.4336541433909934e-02 4.7252679379228600e-03  2.9508281081563886e-01 3.4293639213544246e-02 4.7250853096420953e-03  3.4631653014899350e-01 3.4270203983720361e-02 4.7251982152474135e-03  3.9754571654555471e-01 3.4255120331821945e-02 4.7252952748407726e-03  4.4877317731898508e-01 3.4246358115742927e-02 4.7253291583621631e-03  5.0000000000000000e-01 3.4243477288467668e-02 4.7253324836057983e-03  0.0000000000000000e+00 0.0000000000000000e+00 0.0000000000000000e+00  4.0506475883627553e-02 2.5531061060958794e-02 5.8644305706228531e-03  9.0935779638940353e-02 2.7935041188304425e-02 4.6164870653146381e-03  1.4150017079501853e-01 2.7903607231675967e-02 4.7109112036393978e-03  1.9262457050135562e-01 2.7627133364008894e-02 4.7104142814275371e-03  2.4385615246775430e-01 2.7516651607614941e-02 4.7109890128319417e-03  2.9509186933115300e-01 2.7475245697062691e-02 4.7110106780845372e-03  3.4632208331768272e-01 2.7452477682760126e-02 4.7110188717491459e-03  3.9754914948051462e-01 2.7437667657298260e-02 4.7110494879169960e-03  4.4877484457532391e-01 2.7429019275606779e-02 4.7110552522014650e-03  5.0000000000000000e-01 2.7426171663120735e-02 4.7110534118569355e-03  0.0000000000000000e+00 0.0000000000000000e+00 0.0000000000000000e+00  3.8217783018446680e-02 1.8427640177411050e-02 6.3821320796302169e-03  9.0364650990799433e-02 2.1229191466040503e-02 4.6377972353222833e-03  1.4139596380435054e-01 2.1082530563844133e-02 4.7201427702720832e-03  1.9264121506040932e-01 2.0800267140714340e-02 4.6947316807136102e-03  2.4387351807686791e-01 2.0697563969891444e-02 4.6970263047906354e-03  2.9510204895765607e-01 2.0657445323692219e-02 4.6969197133547363e-03  3.4632821338500436e-01 2.0635115789870321e-02 4.6968371905344707e-03  3.9755283667043534e-01 2.0620465943279886e-02 4.6968007161041058e-03  4.4877661557433868e-01 2.0611896100438724e-02 4.6967790951633641e-03  5.0000000000000000e-01 2.0609074935337174e-02 4.6967720081014129e-03  0.0000000000000000e+00 0.0000000000000000e+00 0.0000000000000000e+00  3.7221539393168315e-02 1.2037346311940637e-02 6.5915256010293782e-03  8.9808031964949742e-02 1.4460074055071208e-02 4.6327624601359297e-03  1.4127212984931398e-01 1.4196318591220662e-02 4.7218586589743861e-03  1.9264740711010192e-01 1.3965854755959914e-02 4.6804205584032119e-03  2.4388906274185146e-01 1.3878359573988487e-02 4.6831692346162666e-03  2.9511258172864840e-01 1.3840295789161400e-02 4.6827438913274785e-03  3.4633468016152846e-01 1.3818189502840458e-02 4.6826245941315164e-03  3.9755671330822845e-01 1.3803545209347918e-02 4.6825362218285132e-03  4.4877846859716936e-01 1.3795008906519217e-02 4.6824962206959949e-03  5.0000000000000000e-01 1.3792205023483561e-02 4.6824855960618771e-03  0.0000000000000000e+00 0.0000000000000000e+00 0.0000000000000000e+00  3.6743812747675415e-02 6.1747012326982490e-03 6.6918239737612751e-03  8.9356507377128566e-02 7.5321543343851854e-03 4.6554921188210960e-03  1.4118444635398031e-01 7.2671736144718441e-03 4.7173358989707386e-03  1.9265304802532679e-01 7.1243577896840530e-03 4.6660680049033050e-03  2.4390311455274624e-01 7.0585566251810707e-03 4.6691585652291444e-03  2.9512285342794975e-01 7.0238243776093098e-03 4.6684928740576446e-03  3.4634124417460660e-01 7.0016984565408509e-03 4.6683652078972210e-03  3.9756070372946889e-01 6.9869211251075815e-03 4.6682493072106581e-03  4.4878037894601214e-01 6.9783734242601057e-03 4.6682036702062587e-03  5.0000000000000000e-01 6.9755763784932253e-03 4.6681924591494258e-03  0.0000000000000000e+00 0.0000000000000000e+00 0.0000000000000000e+00  3.6592894933404785e-02 5.9575904598851710e-04 6.7305851166594250e-03  8.9174172814852570e-02 5.2043736417036282e-04 4.6603374885570304e-03  1.4117332929771312e-01 3.2070857210611580e-04 4.7001636756606215e-03  1.9266596466780495e-01 2.7811623804477922e-04 4.6517064363363041e-03  2.4391618356594993e-01 2.3882408881887356e-04 4.6549600527804654e-03  2.9513246694464357e-01 2.0793856535980057e-04 4.6541416487232970e-03  3.4634771805210685e-01 1.8559496025201692e-04 4.6540470661276074e-03  3.9756473420242910e-01 1.7059574184051664e-04 4.6539360841513005e-03  4.4878231979291033e-01 1.6199841657138291e-04 4.6538997626961835e-03  5.0000000000000000e-01 1.5919837664759258e-04 4.6538919421923739e-03  0.0000000000000000e+00 0.0000000000000000e+00 0.0000000000000000e+00  3.6733849068563119e-02 -4.9195439602641123e-03 6.7218623044111182e-03  8.9298748815998918e-02 -6.5295018272173572e-03 4.6331999846886277e-03  1.4124587622523249e-01 -6.6232616256301840e-03 4.6775143936053842e-03  1.9268870060599258e-01 -6.5660613307647513e-03 4.6374409027490106e-03  2.4392834970134239e-01 -6.5800061457388613e-03 4.6404106766249073e-03  2.9514123408319803e-01 -6.6075352012144569e-03 4.6396845753665173e-03  3.4635398316603749e-01 -6.6301797825691440e-03 4.6396671771565048e-03  3.9756874326890529e-01 -6.6454413995154799e-03 4.6395955420934836e-03  4.4878426482141104e-01 -6.6541136449767150e-03 4.6395846444872322e-03  5.0000000000000000e-01 -6.6569246781476880e-03 4.6395845233507893e-03  0.0000000000000000e+00 0.0000000000000000e+00 0.0000000000000000e+00  3.7196548515131829e-02 -1.0581263619518812e-02 6.6688390993430860e-03  8.9727800292075249e-02 -1.3587405597162469e-02 4.5678835940774695e-03  1.4138900612156990e-01 -1.3534325165952323e-02 4.6532142836001296e-03  1.9271742663487484e-01 -1.3401489289123379e-02 4.6224849964614364e-03  2.4393921977453162e-01 -1.3397622448892676e-02 4.6255454531474805e-03  2.9514912124073683e-01 -1.3422729998465973e-02 4.6251394126693391e-03  3.4635999309128762e-01 -1.3445691497003389e-02 4.6252265352382544e-03  3.9757268599553586e-01 -1.3461207803183467e-02 4.6252308557304771e-03  4.4878618889530769e-01 -1.3469965329414520e-02 4.6252604108096033e-03  5.0000000000000000e-01 -1.3472793971565714e-02 4.6252718944024716e-03  0.0000000000000000e+00 0.0000000000000000e+00 0.0000000000000000e+00  3.8086410526705833e-02 -1.6612857593514215e-02 6.5630609760880280e-03  9.0426183199668400e-02 -2.0602006856885093e-02 4.4610731837488394e-03  1.4155497194043082e-01 -2.0383613769144739e-02 4.6324363092257546e-03  1.9274344806763111e-01 -2.0226754630436636e-02 4.6064716278573963e-03  2.4394814977000925e-01 -2.0213982272571901e-02 4.6105859112160683e-03  2.9515622708506450e-01 -2.0237765639079544e-02 4.6105131234249596e-03  3.4636577541924196e-01 -2.0261004570712608e-02 4.6107346939429396e-03  3.9757653070284943e-01 -2.0276718616133404e-02 4.6108494125477253e-03  4.4878806765461982e-01 -2.0285563847855768e-02 4.6109307090144340e-03  5.0000000000000000e-01 -2.0288416461970060e-02 4.6109568612752953e-03  0.0000000000000000e+00 0.0000000000000000e+00 0.0000000000000000e+00  3.9713099399064762e-02 -2.3233823957248819e-02 6.3592383183829256e-03  9.1268553000181080e-02 -2.7464365112562686e-02 4.3237075907673417e-03  1.4166402260115982e-01 -2.7165566988710300e-02 4.6206879366731766e-03  1.9275976298252129e-01 -2.7045628432673247e-02 4.5887128515056308e-03  2.4395422196677211e-01 -2.7029173254358746e-02 4.5959001735908552e-03  2.9516291188083310e-01 -2.7052831551780444e-02 4.5957844167599246e-03  3.4637140594164301e-01 -2.7076142774169063e-02 4.5962161117189581e-03  3.9758025011619808e-01 -2.7091982959286911e-02 4.5964608888067107e-03  4.4878987605539833e-01 -2.7100921334676675e-02 4.5966005570371345e-03  5.0000000000000000e-01 -2.7103805053591303e-02 4.5966430807761124e-03  0.0000000000000000e+00 0.0000000000000000e+00 0.0000000000000000e+00  4.3228658463169159e-02 -3.0426356283113021e-02 5.9628184688393952e-03  9.1717877610557358e-02 -3.4035594485376519e-02 4.1511321343042926e-03  1.4168736114718219e-01 -3.3919830209376160e-02 4.6209305341027782e-03  1.9275609998554838e-01 -3.3862788312387773e-02 4.5690717902632265e-03  2.4395791222342803e-01 -3.3843986071591538e-02 4.5820914369071094e-03  2.9516975484559993e-01 -3.3868052442972328e-02 4.5809601106860413e-03  3.4637693014740656e-01 -3.3891067069689314e-02 4.5817120517565478e-03  3.9758380324057196e-01 -3.3907008672004579e-02 4.5820737022988483e-03  4.4879158396555907e-01 -3.3916055722810097e-02 4.5822745451232858e-03  5.0000000000000000e-01 -3.3918979468207676e-02 4.5823341255748088e-03  0.0000000000000000e+00 0.0000000000000000e+00 0.0000000000000000e+00  4.2627618283389290e-02 3.1690575232047637e-02 4.1518933937243069e-03  9.1234515887320691e-02 3.4639765285061588e-02 3.5379864451915151e-03  1.4151104732640643e-01 3.4684145777592823e-02 3.5705102672902805e-03  1.9258935241572947e-01 3.4450015751352051e-02 3.5890330052778551e-03  2.4383816538127326e-01 3.4338898478330777e-02 3.5884864343403602e-03  2.9508281486599464e-01 3.4295976187560293e-02 3.5886313413937736e-03  3.4631652762971360e-01 3.4272562137793422e-02 3.5888846169937244e-03  3.9754571494598945e-01 3.4257491196440837e-02 3.5890346991114966e-03  4.4877317693064617e-01 3.4248733958281832e-02 3.5890894588498585e-03  5.0000000000000000e-01 3.4245853958600359e-02 3.5890989061370046e-03  0.0000000000000000e+00 0.0000000000000000e+00 0.0000000000000000e+00  4.0539142486923675e-02 2.5466469946039218e-02 4.6111500950488521e-03  9.0948769065026525e-02 2.7940301006900540e-02 3.5128136855658203e-03  1.4149773904970486e-01 2.7901682154685147e-02 3.5785641590132841e-03  1.9262457158887836e-01 2.7629599759177496e-02 3.5746930616450045e-03  2.4385610266320540e-01 2.7518981031747915e-02 3.5745474605846563e-03  2.9509187246564678e-01 2.7477585656317621e-02 3.5746645592473663e-03  3.4632208262023206e-01 2.7454837984990342e-02 3.5747586582315486e-03  3.9754914891803494e-01 2.7440039283891628e-02 3.5748301172615518e-03  4.4877484458494066e-01 2.7431395426993181e-02 3.5748536945436290e-03  5.0000000000000000e-01 2.7428548670823245e-02 3.5748570673458679e-03  0.0000000000000000e+00 0.0000000000000000e+00 0.0000000000000000e+00  3.8231378412030656e-02 1.8387284248671303e-02 5.0104340896773240e-03  9.0377090821812556e-02 2.1224584822635499e-02 3.5237003962100715e-03  1.4139469457954720e-01 2.1081751034391399e-02 3.5854137180495174e-03  1.9264157427183976e-01 2.0802726635510312e-02 3.5596251962898709e-03  2.4387343689436772e-01 2.0699857906936802e-02 3.5608353892158315e-03  2.9510205856476651e-01 2.0659794625841749e-02 3.5606795983178633e-03  3.4632821496711669e-01 2.0637479810356688e-02 3.5606321908166006e-03  3.9755283774229433e-01 2.0622839246833741e-02 3.5606242964362675e-03  4.4877661611032615e-01 2.0614273046871055e-02 3.5606167481090725e-03  5.0000000000000000e-01 2.0611452567431177e-02 3.5606137819609801e-03  0.0000000000000000e+00 0.0000000000000000e+00 0.0000000000000000e+00  3.7226994914413808e-02 1.2017083208850306e-02 5.1683874805075400e-03  8.9830382366413400e-02 1.4457900770443760e-02 3.5147354229315558e-03  1.4127194842805929e-01 1.4197201054258793e-02 3.5844834344962440e-03  1.9264796708183773e-01 1.3968131497127338e-02 3.5455504601878979e-03  2.4388897256731915e-01 1.3880663296600308e-02 3.5471843494573117e-03  2.9511259814191909e-01 1.3842658082746088e-02 3.5466038758893911e-03  3.4633468297843001e-01 1.3820559521422235e-02 3.5464