<?xml version="1.0"?>
<VTKFile type="UnstructuredGrid"  version="0.1"  >
<UnstructuredGrid>
<Piece  NumberOfPoints="396" NumberOfCells="1500">
<Points>
<DataArray  type="Float64"  NumberOfComponents="3"  format="ascii">5 0 0.25  6 0 0.25  6 0.3 0.25  6 0.3 0.3  6 0 0.3  5 0 0.3  5 0.3 0.25  5 0.3 0.3  7 0 0.25  7 0.3 0.25  7 0.3 0.3  7 0 0.3  8 0 0.25  8 0.3 0.25  8 0.3 0.3  8 0 0.3  9 0 0.25  9 0.3 0.25  9 0.3 0.3  9 0 0.3  10 0 0.25  10 0.3 0.25  10 0.3 0.3  10 0 0.3  6 0.6 0.25  6 0.6 0.3  5 0.6 0.25  5 0.6 0.3  7 0.6 0.25  7 0.6 0.3  8 0.6 0.25  8 0.6 0.3  9 0.6 0.25  9 0.6 0.3  10 0.6 0.25  10 0.6 0.3  6 0.9 0.25  6 0.9 0.3  5 0.9 0.25  5 0.9 0.3  7 0.9 0.25  7 0.9 0.3  8 0.9 0.25  8 0.9 0.3  9 0.9 0.25  9 0.9 0.3  10 0.9 0.25  10 0.9 0.3  6 1.2 0.25  6 1.2 0.3  5 1.2 0.25  5 1.2 0.3  7 1.2 0.25  7 1.2 0.3  8 1.2 0.25  8 1.2 0.3  9 1.2 0.25  9 1.2 0.3  10 1.2 0.25  10 1.2 0.3  6 1.5 0.25  6 1.5 0.3  5 1.5 0.25  5 1.5 0.3  7 1.5 0.25  7 1.5 0.3  8 1.5 0.25  8 1.5 0.3  9 1.5 0.25  9 1.5 0.3  10 1.5 0.25  10 1.5 0.3  6 1.8 0.25  6 1.8 0.3  5 1.8 0.25  5 1.8 0.3  7 1.8 0.25  7 1.8 0.3  8 1.8 0.25  8 1.8 0.3  9 1.8 0.25  9 1.8 0.3  10 1.8 0.25  10 1.8 0.3  6 2.1 0.25  6 2.1 0.3  5 2.1 0.25  5 2.1 0.3  7 2.1 0.25  7 2.1 0.3  8 2.1 0.25  8 2.1 0.3  9 2.1 0.25  9 2.1 0.3  10 2.1 0.25  10 2.1 0.3  6 2.4 0.25  6 2.4 0.3  5 2.4 0.25  5 2.4 0.3  7 2.4 0.25  7 2.4 0.3  8 2.4 0.25  8 2.4 0.3  9 2.4 0.25  9 2.4 0.3  10 2.4 0.25  10 2.4 0.3  6 2.7 0.25  6 2.7 0.3  5 2.7 0.25  5 2.7 0.3  7 2.7 0.25  7 2.7 0.3  8 2.7 0.25  8 2.7 0.3  9 2.7 0.25  9 2.7 0.3  10 2.7 0.25  10 2.7 0.3  6 3 0.25  6 3 0.3  5 3 0.25  5 3 0.3  7 3 0.25  7 3 0.3  8 3 0.25  8 3 0.3  9 3 0.25  9 3 0.3  10 3 0.25  10 3 0.3  6 0.3 0.35  6 0 0.35  5 0 0.35  5 0.3 0.35  7 0.3 0.35  7 0 0.35  8 0.3 0.35  8 0 0.35  9 0.3 0.35  9 0 0.35  10 0.3 0.35  10 0 0.35  6 0.6 0.35  5 0.6 0.35  7 0.6 0.35  8 0.6 0.35  9 0.6 0.35  10 0.6 0.35  6 0.9 0.35  5 0.9 0.35  7 0.9 0.35  8 0.9 0.35  9 0.9 0.35  10 0.9 0.35  6 1.2 0.35  5 1.2 0.35  7 1.2 0.35  8 1.2 0.35  9 1.2 0.35  10 1.2 0.35  6 1.5 0.35  5 1.5 0.35  7 1.5 0.35  8 1.5 0.35  9 1.5 0.35  10 1.5 0.35  6 1.8 0.35  5 1.8 0.35  7 1.8 0.35  8 1.8 0.35  9 1.8 0.35  10 1.8 0.35  6 2.1 0.35  5 2.1 0.35  7 2.1 0.35  8 2.1 0.35  9 2.1 0.35  10 2.1 0.35  6 2.4 0.35  5 2.4 0.35  7 2.4 0.35  8 2.4 0.35  9 2.4 0.35  10 2.4 0.35  6 2.7 0.35  5 2.7 0.35  7 2.7 0.35  8 2.7 0.35  9 2.7 0.35  10 2.7 0.35  6 3 0.35  5 3 0.35  7 3 0.35  8 3 0.35  9 3 0.35  10 3 0.35  6 0.3 0.4  6 0 0.4  5 0 0.4  5 0.3 0.4  7 0.3 0.4  7 0 0.4  8 0.3 0.4  8 0 0.4  9 0.3 0.4  9 0 0.4  10 0.3 0.4  10 0 0.4  6 0.6 0.4  5 0.6 0.4  7 0.6 0.4  8 0.6 0.4  9 0.6 0.4  10 0.6 0.4  6 0.9 0.4  5 0.9 0.4  7 0.9 0.4  8 0.9 0.4  9 0.9 0.4  10 0.9 0.4  6 1.2 0.4  5 1.2 0.4  7 1.2 0.4  8 1.2 0.4  9 1.2 0.4  10 1.2 0.4  6 1.5 0.4  5 1.5 0.4  7 1.5 0.4  8 1.5 0.4  9 1.5 0.4  10 1.5 0.4  6 1.8 0.4  5 1.8 0.4  7 1.8 0.4  8 1.8 0.4  9 1.8 0.4  10 1.8 0.4  6 2.1 0.4  5 2.1 0.4  7 2.1 0.4  8 2.1 0.4  9 2.1 0.4  10 2.1 0.4  6 2.4 0.4  5 2.4 0.4  7 2.4 0.4  8 2.4 0.4  9 2.4 0.4  10 2.4 0.4  6 2.7 0.4  5 2.7 0.4  7 2.7 0.4  8 2.7 0.4  9 2.7 0.4  10 2.7 0.4  6 3 0.4  5 3 0.4  7 3 0.4  8 3 0.4  9 3 0.4  10 3 0.4  6 0.3 0.45  6 0 0.45  5 0 0.45  5 0.3 0.45  7 0.3 0.45  7 0 0.45  8 0.3 0.45  8 0 0.45  9 0.3 0.45  9 0 0.45  10 0.3 0.45  10 0 0.45  6 0.6 0.45  5 0.6 0.45  7 0.6 0.45  8 0.6 0.45  9 0.6 0.45  10 0.6 0.45  6 0.9 0.45  5 0.9 0.45  7 0.9 0.45  8 0.9 0.45  9 0.9 0.45  10 0.9 0.45  6 1.2 0.45  5 1.2 0.45  7 1.2 0.45  8 1.2 0.45  9 1.2 0.45  10 1.2 0.45  6 1.5 0.45  5 1.5 0.45  7 1.5 0.45  8 1.5 0.45  9 1.5 0.45  10 1.5 0.45  6 1.8 0.45  5 1.8 0.45  7 1.8 0.45  8 1.8 0.45  9 1.8 0.45  10 1.8 0.45  6 2.1 0.45  5 2.1 0.45  7 2.1 0.45  8 2.1 0.45  9 2.1 0.45  10 2.1 0.45  6 2.4 0.45  5 2.4 0.45  7 2.4 0.45  8 2.4 0.45  9 2.4 0.45  10 2.4 0.45  6 2.7 0.45  5 2.7 0.45  7 2.7 0.45  8 2.7 0.45  9 2.7 0.45  10 2.7 0.45  6 3 0.45  5 3 0.45  7 3 0.45  8 3 0.45  9 3 0.45  10 3 0.45  6 0.3 0.5  6 0 0.5  5 0 0.5  5 0.3 0.5  7 0.3 0.5  7 0 0.5  8 0.3 0.5  8 0 0.5  9 0.3 0.5  9 0 0.5  10 0.3 0.5  10 0 0.5  6 0.6 0.5  5 0.6 0.5  7 0.6 0.5  8 0.6 0.5  9 0.6 0.5  10 0.6 0.5  6 0.9 0.5  5 0.9 0.5  7 0.9 0.5  8 0.9 0.5  9 0.9 0.5  10 0.9 0.5  6 1.2 0.5  5 1.2 0.5  7 1.2 0.5  8 1.2 0.5  9 1.2 0.5  10 1.2 0.5  6 1.5 0.5  5 1.5 0.5  7 1.5 0.5  8 1.5 0.5  9 1.5 0.5  10 1.5 0.5  6 1.8 0.5  5 1.8 0.5  7 1.8 0.5  8 1.8 0.5  9 1.8 0.5  10 1.8 0.5  6 2.1 0.5  5 2.1 0.5  7 2.1 0.5  8 2.1 0.5  9 2.1 0.5  10 2.1 0.5  6 2.4 0.5  5 2.4 0.5  7 2.4 0.5  8 2.4 0.5  9 2.4 0.5  10 2.4 0.5  6 2.7 0.5  5 2.7 0.5  7 2.7 0.5  8 2.7 0.5  9 2.7 0.5  10 2.7 0.5  6 3 0.5  5 3 0.5  7 3 0.5  8 3 0.5  9 3 0.5  10 3 0.5  </DataArray>
</Points>
<Cells>
<DataArray  type="UInt32"  Name="connectivity"  format="ascii">0 1 2 3  0 1 4 3  0 5 4 3  0 6 2 3  0 5 7 3  0 6 7 3  1 8 9 10  1 8 11 10  1 4 11 10  1 2 9 10  1 4 3 10  1 2 3 10  8 12 13 14  8 12 15 14  8 11 15 14  8 9 13 14  8 11 10 14  8 9 10 14  12 16 17 18  12 16 19 18  12 15 19 18  12 13 17 18  12 15 14 18  12 13 14 18  16 20 21 22  16 20 23 22  16 19 23 22  16 17 21 22  16 19 18 22  16 17 18 22  6 2 24 25  6 2 3 25  6 7 3 25  6 26 24 25  6 7 27 25  6 26 27 25  2 9 28 29  2 9 10 29  2 3 10 29  2 24 28 29  2 3 25 29  2 24 25 29  9 13 30 31  9 13 14 31  9 10 14 31  9 28 30 31  9 10 29 31  9 28 29 31  13 17 32 33  13 17 18 33  13 14 18 33  13 30 32 33  13 14 31 33  13 30 31 33  17 21 34 35  17 21 22 35  17 18 22 35  17 32 34 35  17 18 33 35  17 32 33 35  26 24 36 37  26 24 25 37  26 27 25 37  26 38 36 37  26 27 39 37  26 38 39 37  24 28 40 41  24 28 29 41  24 25 29 41  24 36 40 41  24 25 37 41  24 36 37 41  28 30 42 43  28 30 31 43  28 29 31 43  28 40 42 43  28 29 41 43  28 40 41 43  30 32 44 45  30 32 33 45  30 31 33 45  30 42 44 45  30 31 43 45  30 42 43 45  32 34 46 47  32 34 35 47  32 33 35 47  32 44 46 47  32 33 45 47  32 44 45 47  38 36 48 49  38 36 37 49  38 39 37 49  38 50 48 49  38 39 51 49  38 50 51 49  36 40 52 53  36 40 41 53  36 37 41 53  36 48 52 53  36 37 49 53  36 48 49 53  40 42 54 55  40 42 43 55  40 41 43 55  40 52 54 55  40 41 53 55  40 52 53 55  42 44 56 57  42 44 45 57  42 43 45 57  42 54 56 57  42 43 55 57  42 54 55 57  44 46 58 59  44 46 47 59  44 45 47 59  44 56 58 59  44 45 57 59  44 56 57 59  50 48 60 61  50 48 49 61  50 51 49 61  50 62 60 61  50 51 63 61  50 62 63 61  48 52 64 65  48 52 53 65  48 49 53 65  48 60 64 65  48 49 61 65  48 60 61 65  52 54 66 67  52 54 55 67  52 53 55 67  52 64 66 67  52 53 65 67  52 64 65 67  54 56 68 69  54 56 57 69  54 55 57 69  54 66 68 69  54 55 67 69  54 66 67 69  56 58 70 71  56 58 59 71  56 57 59 71  56 68 70 71  56 57 69 71  56 68 69 71  62 60 72 73  62 60 61 73  62 63 61 73  62 74 72 73  62 63 75 73  62 74 75 73  60 64 76 77  60 64 65 77  60 61 65 77  60 72 76 77  60 61 73 77  60 72 73 77  64 66 78 79  64 66 67 79  64 65 67 79  64 76 78 79  64 65 77 79  64 76 77 79  66 68 80 81  66 68 69 81  66 67 69 81  66 78 80 81  66 67 79 81  66 78 79 81  68 70 82 83  68 70 71 83  68 69 71 83  68 80 82 83  68 69 81 83  68 80 81 83  74 72 84 85  74 72 73 85  74 75 73 85  74 86 84 85  74 75 87 85  74 86 87 85  72 76 88 89  72 76 77 89  72 73 77 89  72 84 88 89  72 73 85 89  72 84 85 89  76 78 90 91  76 78 79 91  76 77 79 91  76 88 90 91  76 77 89 91  76 88 89 91  78 80 92 93  78 80 81 93  78 79 81 93  78 90 92 93  78 79 91 93  78 90 91 93  80 82 94 95  80 82 83 95  80 81 83 95  80 92 94 95  80 81 93 95  80 92 93 95  86 84 96 97  86 84 85 97  86 87 85 97  86 98 96 97  86 87 99 97  86 98 99 97  84 88 100 101  84 88 89 101  84 85 89 101  84 96 100 101  84 85 97 101  84 96 97 101  88 90 102 103  88 90 91 103  88 89 91 103  88 100 102 103  88 89 101 103  88 100 101 103  90 92 104 105  90 92 93 105  90 91 93 105  90 102 104 105  90 91 103 105  90 102 103 105  92 94 106 107  92 94 95 107  92 93 95 107  92 104 106 107  92 93 105 107  92 104 105 107  98 96 108 109  98 96 97 109  98 99 97 109  98 110 108 109  98 99 111 109  98 110 111 109  96 100 112 113  96 100 101 113  96 97 101 113  96 108 112 113  96 97 109 113  96 108 109 113  100 102 114 115  100 102 103 115  100 101 103 115  100 112 114 115  100 101 113 115  100 112 113 115  102 104 116 117  102 104 105 117  102 103 105 117  102 114 116 117  102 103 115 117  102 114 115 117  104 106 118 119  104 106 107 119  104 105 107 119  104 116 118 119  104 105 117 119  104 116 117 119  110 108 120 121  110 108 109 121  110 111 109 121  110 122 120 121  110 111 123 121  110 122 123 121  108 112 124 125  108 112 113 125  108 109 113 125  108 120 124 125  108 109 121 125  108 120 121 125  112 114 126 127  112 114 115 127  112 113 115 127  112 124 126 127  112 113 125 127  112 124 125 127  114 116 128 129  114 116 117 129  114 115 117 129  114 126 128 129  114 115 127 129  114 126 127 129  116 118 130 131  116 118 119 131  116 117 119 131  116 128 130 131  116 117 129 131  116 128 129 131  5 4 3 132  5 4 133 132  5 134 133 132  5 7 3 132  5 134 135 132  5 7 135 132  4 11 10 136  4 11 137 136  4 133 137 136  4 3 10 136  4 133 132 136  4 3 132 136  11 15 14 138  11 15 139 138  11 137 139 138  11 10 14 138  11 137 136 138  11 10 136 138  15 19 18 140  15 19 141 140  15 139 141 140  15 14 18 140  15 139 138 140  15 14 138 140  19 23 22 142  19 23 143 142  19 141 143 142  19 18 22 142  19 141 140 142  19 18 140 142  7 3 25 144  7 3 132 144  7 135 132 144  7 27 25 144  7 135 145 144  7 27 145 144  3 10 29 146  3 10 136 146  3 132 136 146  3 25 29 146  3 132 144 146  3 25 144 146  10 14 31 147  10 14 138 147  10 136 138 147  10 29 31 147  10 136 146 147  10 29 146 147  14 18 33 148  14 18 140 148  14 138 140 148  14 31 33 148  14 138 147 148  14 31 147 148  18 22 35 149  18 22 142 149  18 140 142 149  18 33 35 149  18 140 148 149  18 33 148 149  27 25 37 150  27 25 144 150  27 145 144 150  27 39 37 150  27 145 151 150  27 39 151 150  25 29 41 152  25 29 146 152  25 144 146 152  25 37 41 152  25 144 150 152  25 37 150 152  29 31 43 153  29 31 147 153  29 146 147 153  29 41 43 153  29 146 152 153  29
[...]
<PointData  Vectors="f_16"> 
<DataArray  type="Float64"  Name="f_16"  NumberOfComponents="3" format="ascii">2.4383822631583818e-01 3.4345583850234070e-02 1.7816016250092121e-04  2.9508280124889663e-01 3.4302883921849207e-02 1.7926934484998550e-04  2.9509185054267639e-01 2.7484508188674209e-02 1.6562328923159416e-04  2.9509183141345013e-01 2.7486780841220238e-02 -9.7072523258451293e-04  2.9508278387397024e-01 3.4305153844806348e-02 -9.5718539778574417e-04  2.4383825824514296e-01 3.4347709558764157e-02 -9.5860849103532417e-04  2.4385609212207349e-01 2.7525669152193521e-02 1.6521711032246300e-04  2.4385611125068937e-01 2.7527807348052696e-02 -9.7123117710449733e-04  3.4631650705130979e-01 3.4279587307855824e-02 1.7994266120997156e-04  3.4632206109554109e-01 2.7461865650268823e-02 1.6597528413910762e-04  3.4632204780591064e-01 2.7464190255213537e-02 -9.7028655655224017e-04  3.4631649388273417e-01 3.4281912595206132e-02 -9.5637175139184091e-04  3.9754570425728308e-01 3.4264564147131200e-02 1.8025214206306148e-04  3.9754913846744655e-01 2.7447112602983031e-02 1.6617079672738431e-04  3.9754913224547661e-01 2.7449456370604475e-02 -9.7004938829460291e-04  3.9754569800632872e-01 3.4266908423428798e-02 -9.5600898123782466e-04  4.4877317339880435e-01 3.4255823933931451e-02 1.8037000965320606e-04  4.4877484120609290e-01 2.7438485416031513e-02 1.6624850493577144e-04  4.4877483900282178e-01 2.7440835880047521e-02 -9.6995339977430910e-04  4.4877317118137322e-01 3.4258174694037941e-02 -9.5586992654752450e-04  5.0000000000000000e-01 3.4252947229700098e-02 1.8039792960495226e-04  5.0000000000000000e-01 2.7435642230317425e-02 1.6626777561509485e-04  5.0000000000000000e-01 2.7437994200131165e-02 -9.6992875363507362e-04  5.0000000000000000e-01 3.4255299370709508e-02 -9.5583580930098553e-04  2.9510207322709264e-01 2.0666743733559107e-02 1.5195701616324591e-04  2.9510207393170684e-01 2.0669025550854973e-02 -9.8428472589293667e-04  2.4387339763089250e-01 2.0706566640976594e-02 1.5222169695655656e-04  2.4387343243041729e-01 2.0708744385875406e-02 -9.8400261578496543e-04  3.4632820579034157e-01 2.0644516677630800e-02 1.5201263462525128e-04  3.4632819898380263e-01 2.0646843665879031e-02 -9.8419539192702143e-04  3.9755283324937141e-01 2.0629916222152211e-02 1.5209308401752060e-04  3.9755282958839577e-01 2.0632260743428103e-02 -9.8408462862191199e-04  4.4877661463857899e-01 2.0621364530352820e-02 1.5212886326751294e-04  4.4877661325536194e-01 2.0623715191483063e-02 -9.8403403180838617e-04  5.0000000000000000e-01 2.0618547244433818e-02 1.5213858464951328e-04  5.0000000000000000e-01 2.0620899345420510e-02 -9.8401998156915217e-04  2.9511265214987181e-01 1.3849654579452569e-02 1.3819397034131557e-04  2.9511267186933654e-01 1.3851953601739237e-02 -9.9794115871681532e-04  2.4388891580905245e-01 1.3887464008548617e-02 1.3906320900543604e-04  2.4388896360720558e-01 1.3889696103153069e-02 -9.9702807615724984e-04  3.4633468548111929e-01 1.3827614867713963e-02 1.3802447934125803e-04  3.4633468499540893e-01 1.3829948249232060e-02 -9.9812841981448529e-04  3.9755671721894392e-01 1.3813006361066483e-02 1.3800591045986515e-04  3.9755671616410493e-01 1.3815353086433018e-02 -9.9812767295435838e-04  4.4877846980421388e-01 1.3804481780910009e-02 1.3800600531066112e-04  4.4877846923136849e-01 1.3806833216045989e-02 -9.9811697058211886e-04  5.0000000000000000e-01 1.3801680382166909e-02 1.3800733314778556e-04  5.0000000000000000e-01 1.3804032961984137e-02 -9.9811249713144257e-04  2.9512295554023898e-01 7.0332530671741974e-03 1.2429833161457370e-04  2.9512298828284111e-01 7.0355761966053179e-03 -1.0117431258515283e-03  2.4390297825090976e-01 7.0678731413212270e-03 1.2554524976833806e-04  2.4390303605579261e-01 7.0701676080826489e-03 -1.0104404841177715e-03  3.4634125653980674e-01 7.0111591195907734e-03 1.2398626756722668e-04  3.4634126031722484e-01 7.0135019848669164e-03 -1.0121127497220695e-03  3.9756071204614590e-01 6.9963968872316165e-03 1.2389942940614664e-04  3.9756071285129030e-01 6.9987469470678045e-03 -1.0121890851825955e-03  4.4878038118388264e-01 6.9878522232533560e-03 1.2387596066999463e-04  4.4878038118248986e-01 6.9902049035068040e-03 -1.0122064561915950e-03  5.0000000000000000e-01 6.9850556246697070e-03 1.2387155497070758e-04  5.0000000000000000e-01 6.9874089734470578e-03 -1.0122089745783359e-03  2.9513258201911224e-01 2.1745363254726380e-04 1.1024155991788669e-04  2.9513262000428714e-01 2.1980599302031168e-04 -1.0257259360488171e-03  2.4391602074314503e-01 2.4835992114311819e-04 1.1163099194106770e-04  2.4391607677638699e-01 2.5071689860464838e-04 -1.0242834154422945e-03  3.4634772973709882e-01 1.9509682632029422e-04 1.0987931297633007e-04  3.4634773501221888e-01 1.9745085970860907e-04 -1.0261676601140302e-03  3.9756474276177950e-01 1.8008762345943116e-04 1.0976745984787936e-04  3.9756474433890326e-01 1.8244160559203638e-04 -1.0262756359784295e-03  4.4878232165449500e-01 1.7148377352015298e-04 1.0973604090045718e-04  4.4878232188879763e-01 1.7383796211567040e-04 -1.0263054167421852e-03  5.0000000000000000e-01 1.6868176153998996e-04 1.0972961205738488e-04  5.0000000000000000e-01 1.7103603748190292e-04 -1.0263112788998397e-03  2.9514134043628826e-01 -6.5979293511226047e-03 9.6004612607613195e-05  2.9514137577397936e-01 -6.5955467731195093e-03 -1.0399082434289892e-03  2.4392815159444273e-01 -6.5702272891573626e-03 9.7263030453371697e-05  2.4392819948350314e-01 -6.5677989958977815e-03 -1.0386045253132235e-03  3.4635398485016033e-01 -6.6206375870878735e-03 9.5697755039843895e-05  3.4635398848781329e-01 -6.6182726835224146e-03 -1.0402995156117204e-03  3.9756874772177686e-01 -6.6359340100405175e-03 9.5608002355349622e-05  3.9756874887756649e-01 -6.6335761205921460e-03 -1.0403896914478183e-03  4.4878426482296296e-01 -6.6446221736516809e-03 9.5585343271456332e-05  4.4878426492708889e-01 -6.6422664807039159e-03 -1.0404149919866776e-03  5.0000000000000000e-01 -6.6474376012993913e-03 9.5581025145673458e-05  5.0000000000000000e-01 -6.6450824070367455e-03 -1.0404201301638157e-03  2.9514919054520095e-01 -1.3413045827530348e-02 8.1598774861343397e-05  2.9514921431547703e-01 -1.3410637860105839e-02 -1.0542795628845816e-03  2.4393897594356195e-01 -1.3387640736892139e-02 8.2454837054487146e-05  2.4393900891263501e-01 -1.3385143669344039e-02 -1.0533913919720096e-03  3.4635997679928193e-01 -1.3436114682933337e-02 8.1446679270042916e-05  3.4635997592947343e-01 -1.3433740509032763e-02 -1.0545026458876475e-03  3.9757268232328585e-01 -1.3451687904842715e-02 8.1423452772501047e-05  3.9757268196715356e-01 -1.3449326776125425e-02 -1.0545290361433925e-03  4.4878618566547468e-01 -1.3460469240927083e-02 8.1424960883373504e-05  4.4878618530350323e-01 -1.3458112314065069e-02 -1.0545343391836102e-03  5.0000000000000000e-01 -1.3463304316317015e-02 8.1426534086021302e-05  5.0000000000000000e-01 -1.3460948370997398e-02 -1.0545350372896272e-03  2.9515624141981667e-01 -2.0228019532184567e-02 6.7047531668627279e-05  2.9515624676835611e-01 -2.0225593369108518e-02 -1.0688117960462496e-03  2.4394779811984274e-01 -2.0203913888449811e-02 6.7333559404956155e-05  2.4394779850911522e-01 -2.0201359171423881e-02 -1.0685494287106536e-03  3.4636573576956442e-01 -2.0251404157327037e-02 6.7142202040525615e-05  3.4636572836589485e-01 -2.0249023636606404e-02 -1.0687594955117203e-03  3.9757651568881824e-01 -2.0267191130975169e-02 6.7220644792460117e-05  3.9757651301541408e-01 -2.0264828017924133e-02 -1.0686869783508349e-03  4.4878806023271678e-01 -2.0276065406315893e-02 6.7257703784427813e-05  4.4878805917667675e-01 -2.0273707698322908e-02 -1.0686608839885797e-03  5.0000000000000000e-01 -2.0278925857460321e-02 6.7267960766292592e-05  5.0000000000000000e-01 -2.0276569453665742e-02 -1.0686544367762313e-03  2.9516288625714543e-01 -2.7043047052110587e-02 5.2391281761021985e-05  2.9516287431361432e-01 -2.7040613609627829e-02 -1.0834459419572877e-03  2.4395369112530507e-01 -2.7019169090407798e-02 5.2048451247355556e-05  2.4395363420011920e-01 -2.7016548112139174e-02 -1.0839919733581049e-03  3.4637134069115211e-01 -2.7066533588953876e-02 5.2811636302486388e-05  3.4637132619973149e-01 -2.7064150548691081e-02 -1.0830426539847221e-03  3.9758022321712355e-01 -2.7082453158754398e-02 5.3009538074703141e-05  3.9758021824821999e-01 -2.7080089544290888e-02 -1.0828534962750221e-03  4.4878986430575862e-01 -2.7091422962241780e-02 5.3087578531073581e-05  4.4878986256399905e-01 -2.7089065021627036e-02 -1.0827909277032932e-03  5.0000000000000000e-01 -2.7094315309382052e-02 5.3107942211275870e-05  5.0000000000000000e-01 -2.7091958793902977e-02 -1.0827759670011981e-03  2.9516971252726110e-01 -3.3858259901428579e-02 3.7730853882717625e-05  2.9516969432955742e-01 -3.3855840695328883e-02 -1.0980572053247697e-03  2.4395750588765588e-01 -3.3834121643440906e-02 3.6498984911720074e-05  2.4395749353349833e-01 -3.3831400569091570e-02 -1.1000201261493214e-03  3.4637686679114715e-01 -3.3881455365464982e-02 3.8486714051089216e-05  3.4637685389486200e-01 -3.3879071097412609e-02 -1.0973240188162777e-03  3.9758377382621413e-01 -3.3897481272027088e-02 3.8802453921551685e-05  3.9758376885634594e-01 -3.3895118515129087e-02 -1.0970148599934333e-03  4.4879157095711109e-01 -3.3906559246186345e-02 3.8919439320495677e-05  4.4879156927752711e-01 -3.3904201426232655e-02 -1.0969195542428218e-03  5.0000000000000000e-01 -3.3909491957718724e-02 3.8949617790213784e-05  5.0000000000000000e-01 -3.3907135607140648e-02 -1.0968965920250839e-03  2.9509180610692060e-01 2.7489034757374100e-02 -2.1070748742970024e-03  2.9508275738921563e-01 3.4307407327669230e-02 -2.0936403677813751e-03  2.4383828854696613e-01 3.4349790340139297e-02 -2.0953740381711716e-03  2.4385613174077819e-01 2.7529904880221563e-02 -2.1076778801307609e-03  3.4632203132334455e-01 2.7466505860710977e-02 -2.1065487447136989e-03  3.4631647653789555e-01 3.4284229574301717e-02 -2.0926863423868423e-03  3.9754912465988107e-01 2.7451793089488984e-02 -2.1062697968148645e-03  3.9754569008055118e-01 3.4269245993540531e-02 -2.0922702198767598e-03  4.4877483626298270e-01 2.7443179895391738e-02 -2.1061553978948991e-03  4.4877316834455960e-01 3.4260519170672847e-02 -2.0921099188019997e-03  5.0000000000000000e-01 2.7440339877197604e-02 -2.1061253420471926e-03  5.0000000000000000e-01 3.4257645361586805e-02 -2.0920695716066654e-03  2.9510207335621919e-01 2.0671289157480364e-02 -2.1205275942872376e-03  2.4387348360959160e-01 2.0710891638938689e-02 -2.1202350120268659e-03  3.4632819040975621e-01 2.0649161319759555e-02 -2.1204041060622490e-03  3.9755282495861655e-01 2.0634597954993068e-02 -2.1202626715875984e-03  4.4877661145932690e-01 2.0626059248232333e-02 -2.1201970527394199e-03  5.0000000000000000e-01 2.0623245032017679e-02 -2.1201786292080007e-03  2.9511269332907147e-01 1.3854235238804779e-02 -2.1340769482068862e-03  2.4388903960649705e-01 1.3891909835722104e-02 -2.1331350919676826e-03  3.4633468394696915e-01 1.3832272355118299e-02 -2.1342824315510379e-03  3.9755671449400992e-01 1.3817692319367005e-02 -2.1342616538716193e-03  4.4877846836607815e-01 1.3809177915033508e-02 -2.1342401072077101e-03  5.0000000000000000e-01 1.3806379018559561e-02 -2.1342324316833724e-03  2.9512302422875220e-01 7.0378850439038404e-03 -2.1477847386941972e-03  2.4390312842484699e-01 7.0724446931604464e-03 -2.1464467268246076e-03  3.4634126459138986e-01 7.0158359852356246e-03 -2.1482132896228755e-03  3.9756071336103455e-01 7.0010894147232387e-03 -2.1482780243582147e-03  4.4878038101656048e-01 6.9925507693775679e-03 -2.1482890614732048e-03  5.0000000000000000e-01 6.9897557287324158e-03 -2.1482896239621067e-03  2.9513266205034150e-01 2.2214811591289501e-04 -2.1616936438235827e-03  2.4391616910482258e-01 2.5306188545539364e-04 -2.1602203543214255e-03  3.4634774148974767e-01 1.9979634787006592e-04 -2.1622163480055920e-03  3.9756474588186180e-01 1.8478801154029199e-04 -2.1623191334614301e-03  4.4878232208960461e-01 1.7618530455263849e-04 -2.1623470752336325e-03  5.0000000000000000e-01 1.7338368877344167e-04 -2.1623522919911962e-03  2.9514141538193733e-01 -6.5931714413830110e-03 -2.1758211468501437e-03  2.4392828274227918e-01 -6.5653750785712051e-03 -2.1744950150594457e-03  3.4635399357943147e-01 -6.6159159068054623e-03 -2.1762984274969780e-03  3.9756875021255889e-01 -6.6312257281343281e-03 -2.1763877482442193e-03  4.4878426512770264e-01 -6.6399176300154759e-03 -2.1764155185902750e-03  5.0000000000000000e-01 -6.6427338267128471e-03 -2.1764213977572113e-03  2.9514924158681877e-01 -1.3408234721071098e-02 -2.1901577066842652e-03  2.4393907578116888e-01 -1.3382642363882325e-02 -2.1892574213184268e-03  3.4635997635624738e-01 -1.3431374050654107e-02 -2.1904534359940145e-03  3.9757268197037210e-01 -1.3446973076847194e-02 -2.1904818170996347e-03  4.4878618516653646e-01 -1.3455762188633588e-02 -2.1904938019467577e-03  5.0000000000000000e-01 -1.3458598987681572e-02 -2.1904967032443058e-03  2.9515625337536855e-01 -2.0223170572679652e-02 -2.2046703989708513e-03  2.4394782941980317e-01 -2.0198788385908849e-02 -2.2044513308883810e-03  3.4636572182121361e-01 -2.0246650629503898e-02 -2.2046624033396447e-03  3.9757651086492063e-01 -2.0262472313233477e-02 -2.2045947897138245e-03  4.4878805847638803e-01 -2.0271356712554912e-02 -2.2045795987239007e-03  5.0000000000000000e-01 -2.0274219521658077e-02 -2.2045769056954594e-03  2.9516285956222182e-01 -2.7038184319382708e-02 -2.2192825497110852e-03  2.4395359930972957e-01 -2.7013881988018643e-02 -2.2200508977708281e-03  3.4637131188525344e-01 -2.7061774977704647e-02 -2.2188976662890405e-03  3.9758021395220755e-01 -2.7077733438871078e-02 -2.2187166471011174e-03  4.4878986130675591e-01 -2.7086713713484520e-02 -2.2186695094916966e-03  5.0000000000000000e-01 -2.7089608634701244e-02 -2.2186599270555591e-03  2.9516967182251730e-01 -3.3853433025528464e-02 -2.2338350651826917e-03  2.4395748139063175e-01 -3.3828578354886507e-02 -2.2365934073893244e-03  3.4637683998696317e-01 -3.3876694612385197e-02 -2.2331365259907815e-03  3.9758376456561989e-01 -3.3892763317066234e-02 -2.2328320338240748e-03  4.4879156809836501e-01 -3.3901850137954305e-02 -2.2327586338039204e-03  5.0000000000000000e-01 -3.3904785487488057e-02 -2.2327428238468846e-03  2.9509177457242641e-01 2.7491269628597610e-02 -3.2434258888331693e-03  2.9508271921046048e-01 3.4309644802196136e-02 -3.2300953390515291e-03  2.4383830814144994e-01 3.4351825681980912e-02 -3.2321370108158425e-03  2.4385614749337239e-01 2.7531963639798731e-02 -3.2441193744060181e-03  3.4632201149644654e-01 2.7468812486848689e-02 -3.2428112981732929e-03  3.4631645418560564e-01 3.4286538318589237e-02 -3.2290011017511605e-03  3.9754911570317686e-01 2.7454122748504131e-02 -3.2424904285444710e-03  3.9754568024139686e-01 3.4271576906458517e-02 -3.2285315614516055e-03  4.4877483298455767e-01 2.7445517453628630e-02 -3.2423574907070596e-03  4.4877316482740426e-01 3.4262857383674100e-02 -3.2283499652453989e-03  5.0000000000000000e-01 2.7442679257281621e-02 -3.2423219943337545e-03  5.0000000000000000e-01 3.4259985207727182e-02 -3.2283033466885447e-03  2.9510207205702760e-01 2.0673533880719193e-02 -3.2567723555904514e-03  2.4387354371934120e-01 2.0713008293614263e-02 -3.2564720391155492e-03  3.4632818001838511e-01 2.0651469659067223e-02 -3.2566134379950710e-03  3.9755281942430382e-01 2.0636927821553359e-02 -3.2564410483707823e-03  4.4877660926801582e-01 2.0628396688962086e-02 -3.2563601947666128e-03  5.0000000000000000e-01 2.0625584295970553e-02 -3.2563373557605991e-03  2.9511271723859522e-01 1.3856499030469198e-02 -3.2702145454079432e-03  2.4388913436077758e-01 1.3894104163796973e-02 -3.2692504199743071e-03  3.4633468230274084e-01 1.3834587166317205e-02 -3.2704375068923347e-03  3.9755671230949730e-01 1.3820024031384812e-02 -3.2703960375573236e-03  4.4877846723258108e-01 1.3811515872471380e-02 -3.2703633999902493e-03  5.0000000000000000e-01 1.3808718546341950e-02 -3.2703524698716822e-03  2.9512306413714390e-01 7.0401791565841143e-03 -3.2838287624491341e-03  2.4390324509805816e-01 7.0747035048203000e-03 -3.2824634239256101e-03  3.4634126933385562e-01 7.0181611395229047e-03 -3.2843151831402962e-03  3.9756071370183382e-01 7.0034242843212309e-03 -3.2843673992303370e-03  4.4878038071340204e-01 6.9948898242101583e-03 -3.2843718514854662e-03  5.0000000000000000e-01 6.9920958911356473e-03 -3.2843703923513766e-03  2.9513270902963257e-01 2.2447991747922760e-04 -3.2976638106278441e-03  2.4391628732032111e-01 2.5539419620971085e-04 -3.2961723233916633e-03  3.4634774914743799e-01 2.0213334373605349e-04 -3.2982664713755833e-03  3.9756474752568649e-01 1.8712685662950395e-04 -3.2983630677975990e-03  4.4878232228375314e-01 1.7852581428663925e-04 -3.2983889270977247e-03  5.0000000000000000e-01 1.7572472273163565e-04 -3.2983934266080936e-03  2.9514146029840099e-01 -6.5908032576694484e-03 -3.3117360234367252e-03  2.4392839129111274e-01 -6.5629551125824465e-03 -3.3104005395542292e-03  3.4635400008287681e-01 -6.6135671712403404e-03 -3.3122987445517961e-03  3.9756875185601842e-01 -6.6288827919922426e-03 -3.3123862052942075e-03  4.4878426544829975e-01 -6.6375756009335422e-03 -3.3124162254674376e-03  5.0000000000000000e-01 -6.6403918466688694e-03 -3.3124227783285038e-03  2.9514927359902365e-01 -1.3405835952057786e-02 -3.3260375044739270e-03  2.4393916707763325e-01 -1.3380136528016137e-02 -3.3251347669933989e-03  3.4635997799747087e-01 -1.3429015195759338e-02 -3.3264054854440879e-03  3.9757268244222471e-01 -1.3444626756769914e-02 -3.3264349127755809e-03  4.4878618527222236e-01 -1.3453418839481614e-02 -3.3264534174064528e-03  5.0000000000000000e-01 -1.3456256148252783e-02 -3.3264584650649293e-03  2.9515626265642253e-01 -2.0220750241013399e-02 -3.3405302783807217e-03  2.4394788168283041e-01 -2.0196202395048404e-02 -3.3403619117424966e-03  3.4636571595325238e-01 -2.0244285123802951e-02 -3.3405662638375097e-03  3.9757650931384020e-01 -2.0260123953964596e-02 -3.3405028081862570e-03  4.4878805814186890e-01 -2.0269012423563919e-02 -3.3404984330405196e-03  5.0000000000000000e-01 -2.0271876042120041e-02 -3.3404994467119346e-03  2.9516284330980408e-01 -2.7035759937685502e-02 -3.3551210803656403e-03  2.4395357574992452e-01 -2.7011168241790867e-02 -3.3561195234341015e-03  3.4637129729430172e-01 -2.7059406738205789e-02 -3.3547530057493331e-03  3.9758021034066787e-01 -2.7075384799373835e-02 -3.3545799397760516e-03  4.4878986052957631e-01 -2.7084369006555666e-02 -3.3545481479759550e-03  5.0000000000000000e-01 -2.7087264819156513e-02 -3.3545439372286664e-03  2.9516964314162208e-01 -3.3851038572881673e-02 -3.3696022618916340e-03  2.4395744986786258e-01 -3.3825629997470234e-02 -3.3732231997701807e-03  3.4637682372824657e-01 -3.3874325726799923e-02 -3.3689505958849394e-03  3.9758376083686114e-01 -3.3890415775658524e-02 -3.3686491530474779e-03  4.4879156739960424e-01 -3.3899505395619062e-02 -3.3685977859937086e-03  5.0000000000000000e-01 -3.3902441602269927e-02 -3.3685890767220007e-03  2.9509173681767753e-01 2.7493485714791870e-02 -4.3797783879539823e-03  2.9508266564907210e-01 3.4311867374531825e-02 -4.3665501402759162e-03  2.4383830415039967e-01 3.4353812380308935e-02 -4.3688975397750702e-03  2.4385615336899386e-01 2.7533984174667479e-02 -4.3805542663117895e-03  3.4632198816361504e-01 2.7471110189071432e-02 -4.3790742273824646e-03  3.4631642573598587e-01 3.4288839062552159e-02 -4.3653160178754409e-03  3.9754910536755911e-01 2.7456445337271460e-02 -4.3787112667904001e-03  3.9754566819589943e-01 3.4273901254608788e-02 -4.3647930000452872e-03  4.4877482916910616e-01 2.7447848542995961e-02 -4.3785596735735110e-03  4.4877316056615862e-01 3.4265189369044720e-02 -4.3645900661034740e-03  5.0000000000000000e-01 2.7445012338622551e-02 -4.3785187118380387e-03  5.0000000000000000e-01 3.4262318912376653e-02 -4.3645371319967451e-03  2.9510207037480135e-01 2.0675758917285882e-02 -4.3930196998613396e-03  2.4387360225999041e-01 2.0715092479106544e-02 -4.3927113801718416e-03  3.4632816772070879e-01 2.0653768691402560e-02 -4.3928233442241671e-03  3.9755281305558948e-01 2.0639