<?xml version="1.0"?>
<VTKFile type="UnstructuredGrid"  version="0.1"  >
<UnstructuredGrid>
<Piece  NumberOfPoints="396" NumberOfCells="1500">
<Points>
<DataArray  type="Float64"  NumberOfComponents="3"  format="ascii">5 0 0.25  6 0 0.25  6 0.3 0.25  6 0.3 0.3  6 0 0.3  5 0 0.3  5 0.3 0.25  5 0.3 0.3  7 0 0.25  7 0.3 0.25  7 0.3 0.3  7 0 0.3  8 0 0.25  8 0.3 0.25  8 0.3 0.3  8 0 0.3  9 0 0.25  9 0.3 0.25  9 0.3 0.3  9 0 0.3  10 0 0.25  10 0.3 0.25  10 0.3 0.3  10 0 0.3  6 0.6 0.25  6 0.6 0.3  5 0.6 0.25  5 0.6 0.3  7 0.6 0.25  7 0.6 0.3  8 0.6 0.25  8 0.6 0.3  9 0.6 0.25  9 0.6 0.3  10 0.6 0.25  10 0.6 0.3  6 0.9 0.25  6 0.9 0.3  5 0.9 0.25  5 0.9 0.3  7 0.9 0.25  7 0.9 0.3  8 0.9 0.25  8 0.9 0.3  9 0.9 0.25  9 0.9 0.3  10 0.9 0.25  10 0.9 0.3  6 1.2 0.25  6 1.2 0.3  5 1.2 0.25  5 1.2 0.3  7 1.2 0.25  7 1.2 0.3  8 1.2 0.25  8 1.2 0.3  9 1.2 0.25  9 1.2 0.3  10 1.2 0.25  10 1.2 0.3  6 1.5 0.25  6 1.5 0.3  5 1.5 0.25  5 1.5 0.3  7 1.5 0.25  7 1.5 0.3  8 1.5 0.25  8 1.5 0.3  9 1.5 0.25  9 1.5 0.3  10 1.5 0.25  10 1.5 0.3  6 1.8 0.25  6 1.8 0.3  5 1.8 0.25  5 1.8 0.3  7 1.8 0.25  7 1.8 0.3  8 1.8 0.25  8 1.8 0.3  9 1.8 0.25  9 1.8 0.3  10 1.8 0.25  10 1.8 0.3  6 2.1 0.25  6 2.1 0.3  5 2.1 0.25  5 2.1 0.3  7 2.1 0.25  7 2.1 0.3  8 2.1 0.25  8 2.1 0.3  9 2.1 0.25  9 2.1 0.3  10 2.1 0.25  10 2.1 0.3  6 2.4 0.25  6 2.4 0.3  5 2.4 0.25  5 2.4 0.3  7 2.4 0.25  7 2.4 0.3  8 2.4 0.25  8 2.4 0.3  9 2.4 0.25  9 2.4 0.3  10 2.4 0.25  10 2.4 0.3  6 2.7 0.25  6 2.7 0.3  5 2.7 0.25  5 2.7 0.3  7 2.7 0.25  7 2.7 0.3  8 2.7 0.25  8 2.7 0.3  9 2.7 0.25  9 2.7 0.3  10 2.7 0.25  10 2.7 0.3  6 3 0.25  6 3 0.3  5 3 0.25  5 3 0.3  7 3 0.25  7 3 0.3  8 3 0.25  8 3 0.3  9 3 0.25  9 3 0.3  10 3 0.25  10 3 0.3  6 0.3 0.35  6 0 0.35  5 0 0.35  5 0.3 0.35  7 0.3 0.35  7 0 0.35  8 0.3 0.35  8 0 0.35  9 0.3 0.35  9 0 0.35  10 0.3 0.35  10 0 0.35  6 0.6 0.35  5 0.6 0.35  7 0.6 0.35  8 0.6 0.35  9 0.6 0.35  10 0.6 0.35  6 0.9 0.35  5 0.9 0.35  7 0.9 0.35  8 0.9 0.35  9 0.9 0.35  10 0.9 0.35  6 1.2 0.35  5 1.2 0.35  7 1.2 0.35  8 1.2 0.35  9 1.2 0.35  10 1.2 0.35  6 1.5 0.35  5 1.5 0.35  7 1.5 0.35  8 1.5 0.35  9 1.5 0.35  10 1.5 0.35  6 1.8 0.35  5 1.8 0.35  7 1.8 0.35  8 1.8 0.35  9 1.8 0.35  10 1.8 0.35  6 2.1 0.35  5 2.1 0.35  7 2.1 0.35  8 2.1 0.35  9 2.1 0.35  10 2.1 0.35  6 2.4 0.35  5 2.4 0.35  7 2.4 0.35  8 2.4 0.35  9 2.4 0.35  10 2.4 0.35  6 2.7 0.35  5 2.7 0.35  7 2.7 0.35  8 2.7 0.35  9 2.7 0.35  10 2.7 0.35  6 3 0.35  5 3 0.35  7 3 0.35  8 3 0.35  9 3 0.35  10 3 0.35  6 0.3 0.4  6 0 0.4  5 0 0.4  5 0.3 0.4  7 0.3 0.4  7 0 0.4  8 0.3 0.4  8 0 0.4  9 0.3 0.4  9 0 0.4  10 0.3 0.4  10 0 0.4  6 0.6 0.4  5 0.6 0.4  7 0.6 0.4  8 0.6 0.4  9 0.6 0.4  10 0.6 0.4  6 0.9 0.4  5 0.9 0.4  7 0.9 0.4  8 0.9 0.4  9 0.9 0.4  10 0.9 0.4  6 1.2 0.4  5 1.2 0.4  7 1.2 0.4  8 1.2 0.4  9 1.2 0.4  10 1.2 0.4  6 1.5 0.4  5 1.5 0.4  7 1.5 0.4  8 1.5 0.4  9 1.5 0.4  10 1.5 0.4  6 1.8 0.4  5 1.8 0.4  7 1.8 0.4  8 1.8 0.4  9 1.8 0.4  10 1.8 0.4  6 2.1 0.4  5 2.1 0.4  7 2.1 0.4  8 2.1 0.4  9 2.1 0.4  10 2.1 0.4  6 2.4 0.4  5 2.4 0.4  7 2.4 0.4  8 2.4 0.4  9 2.4 0.4  10 2.4 0.4  6 2.7 0.4  5 2.7 0.4  7 2.7 0.4  8 2.7 0.4  9 2.7 0.4  10 2.7 0.4  6 3 0.4  5 3 0.4  7 3 0.4  8 3 0.4  9 3 0.4  10 3 0.4  6 0.3 0.45  6 0 0.45  5 0 0.45  5 0.3 0.45  7 0.3 0.45  7 0 0.45  8 0.3 0.45  8 0 0.45  9 0.3 0.45  9 0 0.45  10 0.3 0.45  10 0 0.45  6 0.6 0.45  5 0.6 0.45  7 0.6 0.45  8 0.6 0.45  9 0.6 0.45  10 0.6 0.45  6 0.9 0.45  5 0.9 0.45  7 0.9 0.45  8 0.9 0.45  9 0.9 0.45  10 0.9 0.45  6 1.2 0.45  5 1.2 0.45  7 1.2 0.45  8 1.2 0.45  9 1.2 0.45  10 1.2 0.45  6 1.5 0.45  5 1.5 0.45  7 1.5 0.45  8 1.5 0.45  9 1.5 0.45  10 1.5 0.45  6 1.8 0.45  5 1.8 0.45  7 1.8 0.45  8 1.8 0.45  9 1.8 0.45  10 1.8 0.45  6 2.1 0.45  5 2.1 0.45  7 2.1 0.45  8 2.1 0.45  9 2.1 0.45  10 2.1 0.45  6 2.4 0.45  5 2.4 0.45  7 2.4 0.45  8 2.4 0.45  9 2.4 0.45  10 2.4 0.45  6 2.7 0.45  5 2.7 0.45  7 2.7 0.45  8 2.7 0.45  9 2.7 0.45  10 2.7 0.45  6 3 0.45  5 3 0.45  7 3 0.45  8 3 0.45  9 3 0.45  10 3 0.45  6 0.3 0.5  6 0 0.5  5 0 0.5  5 0.3 0.5  7 0.3 0.5  7 0 0.5  8 0.3 0.5  8 0 0.5  9 0.3 0.5  9 0 0.5  10 0.3 0.5  10 0 0.5  6 0.6 0.5  5 0.6 0.5  7 0.6 0.5  8 0.6 0.5  9 0.6 0.5  10 0.6 0.5  6 0.9 0.5  5 0.9 0.5  7 0.9 0.5  8 0.9 0.5  9 0.9 0.5  10 0.9 0.5  6 1.2 0.5  5 1.2 0.5  7 1.2 0.5  8 1.2 0.5  9 1.2 0.5  10 1.2 0.5  6 1.5 0.5  5 1.5 0.5  7 1.5 0.5  8 1.5 0.5  9 1.5 0.5  10 1.5 0.5  6 1.8 0.5  5 1.8 0.5  7 1.8 0.5  8 1.8 0.5  9 1.8 0.5  10 1.8 0.5  6 2.1 0.5  5 2.1 0.5  7 2.1 0.5  8 2.1 0.5  9 2.1 0.5  10 2.1 0.5  6 2.4 0.5  5 2.4 0.5  7 2.4 0.5  8 2.4 0.5  9 2.4 0.5  10 2.4 0.5  6 2.7 0.5  5 2.7 0.5  7 2.7 0.5  8 2.7 0.5  9 2.7 0.5  10 2.7 0.5  6 3 0.5  5 3 0.5  7 3 0.5  8 3 0.5  9 3 0.5  10 3 0.5  </DataArray>
</Points>
<Cells>
<DataArray  type="UInt32"  Name="connectivity"  format="ascii">0 1 2 3  0 1 4 3  0 5 4 3  0 6 2 3  0 5 7 3  0 6 7 3  1 8 9 10  1 8 11 10  1 4 11 10  1 2 9 10  1 4 3 10  1 2 3 10  8 12 13 14  8 12 15 14  8 11 15 14  8 9 13 14  8 11 10 14  8 9 10 14  12 16 17 18  12 16 19 18  12 15 19 18  12 13 17 18  12 15 14 18  12 13 14 18  16 20 21 22  16 20 23 22  16 19 23 22  16 17 21 22  16 19 18 22  16 17 18 22  6 2 24 25  6 2 3 25  6 7 3 25  6 26 24 25  6 7 27 25  6 26 27 25  2 9 28 29  2 9 10 29  2 3 10 29  2 24 28 29  2 3 25 29  2 24 25 29  9 13 30 31  9 13 14 31  9 10 14 31  9 28 30 31  9 10 29 31  9 28 29 31  13 17 32 33  13 17 18 33  13 14 18 33  13 30 32 33  13 14 31 33  13 30 31 33  17 21 34 35  17 21 22 35  17 18 22 35  17 32 34 35  17 18 33 35  17 32 33 35  26 24 36 37  26 24 25 37  26 27 25 37  26 38 36 37  26 27 39 37  26 38 39 37  24 28 40 41  24 28 29 41  24 25 29 41  24 36 40 41  24 25 37 41  24 36 37 41  28 30 42 43  28 30 31 43  28 29 31 43  28 40 42 43  28 29 41 43  28 40 41 43  30 32 44 45  30 32 33 45  30 31 33 45  30 42 44 45  30 31 43 45  30 42 43 45  32 34 46 47  32 34 35 47  32 33 35 47  32 44 46 47  32 33 45 47  32 44 45 47  38 36 48 49  38 36 37 49  38 39 37 49  38 50 48 49  38 39 51 49  38 50 51 49  36 40 52 53  36 40 41 53  36 37 41 53  36 48 52 53  36 37 49 53  36 48 49 53  40 42 54 55  40 42 43 55  40 41 43 55  40 52 54 55  40 41 53 55  40 52 53 55  42 44 56 57  42 44 45 57  42 43 45 57  42 54 56 57  42 43 55 57  42 54 55 57  44 46 58 59  44 46 47 59  44 45 47 59  44 56 58 59  44 45 57 59  44 56 57 59  50 48 60 61  50 48 49 61  50 51 49 61  50 62 60 61  50 51 63 61  50 62 63 61  48 52 64 65  48 52 53 65  48 49 53 65  48 60 64 65  48 49 61 65  48 60 61 65  52 54 66 67  52 54 55 67  52 53 55 67  52 64 66 67  52 53 65 67  52 64 65 67  54 56 68 69  54 56 57 69  54 55 57 69  54 66 68 69  54 55 67 69  54 66 67 69  56 58 70 71  56 58 59 71  56 57 59 71  56 68 70 71  56 57 69 71  56 68 69 71  62 60 72 73  62 60 61 73  62 63 61 73  62 74 72 73  62 63 75 73  62 74 75 73  60 64 76 77  60 64 65 77  60 61 65 77  60 72 76 77  60 61 73 77  60 72 73 77  64 66 78 79  64 66 67 79  64 65 67 79  64 76 78 79  64 65 77 79  64 76 77 79  66 68 80 81  66 68 69 81  66 67 69 81  66 78 80 81  66 67 79 81  66 78 79 81  68 70 82 83  68 70 71 83  68 69 71 83  68 80 82 83  68 69 81 83  68 80 81 83  74 72 84 85  74 72 73 85  74 75 73 85  74 86 84 85  74 75 87 85  74 86 87 85  72 76 88 89  72 76 77 89  72 73 77 89  72 84 88 89  72 73 85 89  72 84 85 89  76 78 90 91  76 78 79 91  76 77 79 91  76 88 90 91  76 77 89 91  76 88 89 91  78 80 92 93  78 80 81 93  78 79 81 93  78 90 92 93  78 79 91 93  78 90 91 93  80 82 94 95  80 82 83 95  80 81 83 95  80 92 94 95  80 81 93 95  80 92 93 95  86 84 96 97  86 84 85 97  86 87 85 97  86 98 96 97  86 87 99 97  86 98 99 97  84 88 100 101  84 88 89 101  84 85 89 101  84 96 100 101  84 85 97 101  84 96 97 101  88 90 102 103  88 90 91 103  88 89 91 103  88 100 102 103  88 89 101 103  88 100 101 103  90 92 104 105  90 92 93 105  90 91 93 105  90 102 104 105  90 91 103 105  90 102 103 105  92 94 106 107  92 94 95 107  92 93 95 107  92 104 106 107  92 93 105 107  92 104 105 107  98 96 108 109  98 96 97 109  98 99 97 109  98 110 108 109  98 99 111 109  98 110 111 109  96 100 112 113  96 100 101 113  96 97 101 113  96 108 112 113  96 97 109 113  96 108 109 113  100 102 114 115  100 102 103 115  100 101 103 115  100 112 114 115  100 101 113 115  100 112 113 115  102 104 116 117  102 104 105 117  102 103 105 117  102 114 116 117  102 103 115 117  102 114 115 117  104 106 118 119  104 106 107 119  104 105 107 119  104 116 118 119  104 105 117 119  104 116 117 119  110 108 120 121  110 108 109 121  110 111 109 121  110 122 120 121  110 111 123 121  110 122 123 121  108 112 124 125  108 112 113 125  108 109 113 125  108 120 124 125  108 109 121 125  108 120 121 125  112 114 126 127  112 114 115 127  112 113 115 127  112 124 126 127  112 113 125 127  112 124 125 127  114 116 128 129  114 116 117 129  114 115 117 129  114 126 128 129  114 115 127 129  114 126 127 129  116 118 130 131  116 118 119 131  116 117 119 131  116 128 130 131  116 117 129 131  116 128 129 131  5 4 3 132  5 4 133 132  5 134 133 132  5 7 3 132  5 134 135 132  5 7 135 132  4 11 10 136  4 11 137 136  4 133 137 136  4 3 10 136  4 133 132 136  4 3 132 136  11 15 14 138  11 15 139 138  11 137 139 138  11 10 14 138  11 137 136 138  11 10 136 138  15 19 18 140  15 19 141 140  15 139 141 140  15 14 18 140  15 139 138 140  15 14 138 140  19 23 22 142  19 23 143 142  19 141 143 142  19 18 22 142  19 141 140 142  19 18 140 142  7 3 25 144  7 3 132 144  7 135 132 144  7 27 25 144  7 135 145 144  7 27 145 144  3 10 29 146  3 10 136 146  3 132 136 146  3 25 29 146  3 132 144 146  3 25 144 146  10 14 31 147  10 14 138 147  10 136 138 147  10 29 31 147  10 136 146 147  10 29 146 147  14 18 33 148  14 18 140 148  14 138 140 148  14 31 33 148  14 138 147 148  14 31 147 148  18 22 35 149  18 22 142 149  18 140 142 149  18 33 35 149  18 140 148 149  18 33 148 149  27 25 37 150  27 25 144 150  27 145 144 150  27 39 37 150  27 145 151 150  27 39 151 150  25 29 41 152  25 29 146 152  25 144 146 152  25 37 41 152  25 144 150 152  25 37 150 152  29 31 43 153  29 31 147 153  29 146 147 153  29 41 43 153  29 146 152 153  29
[...]
<PointData  Vectors="f_16"> 
<DataArray  type="Float64"  Name="f_16"  NumberOfComponents="3" format="ascii">2.4383822631583821e-01 3.4345583850233938e-02 1.7816016250263910e-04  2.9508280124889658e-01 3.4302883921849089e-02 1.7926934485492879e-04  2.9509185054267639e-01 2.7484508188674060e-02 1.6562328923652421e-04  2.9509183141345002e-01 2.7486780841220089e-02 -9.7072523257957558e-04  2.9508278387397002e-01 3.4305153844806237e-02 -9.5718539778080443e-04  2.4383825824514294e-01 3.4347709558763914e-02 -9.5860849103358262e-04  2.4385609212207346e-01 2.7525669152193396e-02 1.6521711032484464e-04  2.4385611125068923e-01 2.7527807348052467e-02 -9.7123117710212726e-04  3.4631650705130979e-01 3.4279587307855630e-02 1.7994266121668529e-04  3.4632206109554103e-01 2.7461865650268629e-02 1.6597528414524906e-04  3.4632204780591053e-01 2.7464190255213426e-02 -9.7028655654611594e-04  3.4631649388273400e-01 3.4281912595206042e-02 -9.5637175138512287e-04  3.9754570425728308e-01 3.4264564147131020e-02 1.8025214206893560e-04  3.9754913846744644e-01 2.7447112602982868e-02 1.6617079673246217e-04  3.9754913224547672e-01 2.7449456370604430e-02 -9.7004938828952050e-04  3.9754569800632872e-01 3.4266908423428735e-02 -9.5600898123196227e-04  4.4877317339880440e-01 3.4255823933931256e-02 1.8037000965668320e-04  4.4877484120609279e-01 2.7438485416031309e-02 1.6624850493911528e-04  4.4877483900282183e-01 2.7440835880047372e-02 -9.6995339977096857e-04  4.4877317118137350e-01 3.4258174694037788e-02 -9.5586992654404063e-04  5.0000000000000000e-01 3.4252947229699897e-02 1.8039792960722185e-04  5.0000000000000000e-01 2.7435642230317275e-02 1.6626777561738623e-04  5.0000000000000000e-01 2.7437994200131016e-02 -9.6992875363279365e-04  5.0000000000000000e-01 3.4255299370709313e-02 -9.5583580929876281e-04  2.9510207322709264e-01 2.0666743733558916e-02 1.5195701616789863e-04  2.9510207393170662e-01 2.0669025550854793e-02 -9.8428472588828002e-04  2.4387339763089247e-01 2.0706566640976452e-02 1.5222169695949052e-04  2.4387343243041709e-01 2.0708744385875187e-02 -9.8400261578202876e-04  3.4632820579034140e-01 2.0644516677630620e-02 1.5201263463092188e-04  3.4632819898380252e-01 2.0646843665878920e-02 -9.8419539192135604e-04  3.9755283324937152e-01 2.0629916222152066e-02 1.5209308402189804e-04  3.9755282958839583e-01 2.0632260743428034e-02 -9.8408462861753593e-04  4.4877661463857899e-01 2.0621364530352640e-02 1.5212886327051163e-04  4.4877661325536200e-01 2.0623715191482921e-02 -9.8403403180539681e-04  5.0000000000000000e-01 2.0618547244433644e-02 1.5213858465167591e-04  5.0000000000000000e-01 2.0620899345420371e-02 -9.8401998156697401e-04  2.9511265214987176e-01 1.3849654579452385e-02 1.3819397034577861e-04  2.9511267186933643e-01 1.3851953601739056e-02 -9.9794115871236423e-04  2.4388891580905239e-01 1.3887464008548454e-02 1.3906320900903142e-04  2.4388896360720544e-01 1.3889696103152858e-02 -9.9702807615365506e-04  3.4633468548111929e-01 1.3827614867713776e-02 1.3802447934633532e-04  3.4633468499540898e-01 1.3829948249231944e-02 -9.9812841980940971e-04  3.9755671721894392e-01 1.3813006361066308e-02 1.3800591046385577e-04  3.9755671616410510e-01 1.3815353086432931e-02 -9.9812767295035529e-04  4.4877846980421382e-01 1.3804481780909835e-02 1.3800600531347246e-04  4.4877846923136855e-01 1.3806833216045866e-02 -9.9811697057931837e-04  5.0000000000000000e-01 1.3801680382166739e-02 1.3800733314995513e-04  5.0000000000000000e-01 1.3804032961983981e-02 -9.9811249712928977e-04  2.9512295554023887e-01 7.0332530671740013e-03 1.2429833161890254e-04  2.9512298828284100e-01 7.0355761966051367e-03 -1.0117431258472038e-03  2.4390297825090973e-01 7.0678731413210847e-03 1.2554524977202890e-04  2.4390303605579261e-01 7.0701676080824703e-03 -1.0104404841140768e-03  3.4634125653980669e-01 7.0111591195905765e-03 1.2398626757188967e-04  3.4634126031722473e-01 7.0135019848667759e-03 -1.0121127497174183e-03  3.9756071204614585e-01 6.9963968872314474e-03 1.2389942940966214e-04  3.9756071285129035e-01 6.9987469470677030e-03 -1.0121890851790870e-03  4.4878038118388269e-01 6.9878522232531713e-03 1.2387596067266979e-04  4.4878038118248986e-01 6.9902049035066704e-03 -1.0122064561889190e-03  5.0000000000000000e-01 6.9850556246695266e-03 1.2387155497300148e-04  5.0000000000000000e-01 6.9874089734468809e-03 -1.0122089745760541e-03  2.9513258201911224e-01 2.1745363254705149e-04 1.1024155992232964e-04  2.9513262000428703e-01 2.1980599302010823e-04 -1.0257259360443821e-03  2.4391602074314500e-01 2.4835992114298711e-04 1.1163099194485595e-04  2.4391607677638691e-01 2.5071689860449133e-04 -1.0242834154385130e-03  3.4634772973709876e-01 1.9509682632013405e-04 1.0987931298064536e-04  3.4634773501221894e-01 1.9745085970850697e-04 -1.0261676601097198e-03  3.9756474276177950e-01 1.8008762345928797e-04 1.0976745985099021e-04  3.9756474433890332e-01 1.8244160559194062e-04 -1.0262756359753209e-03  4.4878232165449494e-01 1.7148377351996639e-04 1.0973604090284390e-04  4.4878232188879769e-01 1.7383796211552943e-04 -1.0263054167397973e-03  5.0000000000000000e-01 1.6868176153981315e-04 1.0972961205955555e-04  5.0000000000000000e-01 1.7103603748172861e-04 -1.0263112788976856e-03  2.9514134043628820e-01 -6.5979293511228033e-03 9.6004612612112186e-05  2.9514137577397925e-01 -6.5955467731197061e-03 -1.0399082434244934e-03  2.4392815159444275e-01 -6.5702272891574919e-03 9.7263030457196288e-05  2.4392819948350314e-01 -6.5677989958979159e-03 -1.0386045253093933e-03  3.4635398485016033e-01 -6.6206375870880192e-03 9.5697755043729296e-05  3.4635398848781329e-01 -6.6182726835225291e-03 -1.0402995156078363e-03  3.9756874772177686e-01 -6.6359340100406857e-03 9.5608002358102330e-05  3.9756874887756666e-01 -6.6335761205922605e-03 -1.0403896914450692e-03  4.4878426482296291e-01 -6.6446221736518431e-03 9.5585343273359188e-05  4.4878426492708889e-01 -6.6422664807040364e-03 -1.0404149919847744e-03  5.0000000000000000e-01 -6.6474376012996194e-03 9.5581025147575041e-05  5.0000000000000000e-01 -6.6450824070369372e-03 -1.0404201301619158e-03  2.9514919054520100e-01 -1.3413045827530565e-02 8.1598774865719739e-05  2.9514921431547703e-01 -1.3410637860106033e-02 -1.0542795628802125e-03  2.4393897594356193e-01 -1.3387640736892270e-02 8.2454837058479951e-05  2.4393900891263495e-01 -1.3385143669344160e-02 -1.0533913919680206e-03  3.4635997679928188e-01 -1.3436114682933520e-02 8.1446679273719337e-05  3.4635997592947354e-01 -1.3433740509032897e-02 -1.0545026458839664e-03  3.9757268232328580e-01 -1.3451687904842878e-02 8.1423452775049247e-05  3.9757268196715351e-01 -1.3449326776125545e-02 -1.0545290361408490e-03  4.4878618566547462e-01 -1.3460469240927263e-02 8.1424960885276266e-05  4.4878618530350306e-01 -1.3458112314065213e-02 -1.0545343391816962e-03  5.0000000000000000e-01 -1.3463304316317183e-02 8.1426534087838926e-05  5.0000000000000000e-01 -1.3460948370997485e-02 -1.0545350372878314e-03  2.9515624141981661e-01 -2.0228019532184761e-02 6.7047531672908767e-05  2.9515624676835606e-01 -2.0225593369108712e-02 -1.0688117960419678e-03  2.4394779811984268e-01 -2.0203913888449974e-02 6.7333559409015462e-05  2.4394779850911522e-01 -2.0201359171424033e-02 -1.0685494287065952e-03  3.4636573576956442e-01 -2.0251404157327221e-02 6.7142202044171123e-05  3.4636572836589491e-01 -2.0249023636606554e-02 -1.0687594955080704e-03  3.9757651568881819e-01 -2.0267191130975325e-02 6.7220644794840998e-05  3.9757651301541419e-01 -2.0264828017924251e-02 -1.0686869783484607e-03  4.4878806023271700e-01 -2.0276065406316070e-02 6.7257703786181646e-05  4.4878805917667680e-01 -2.0273707698323040e-02 -1.0686608839868205e-03  5.0000000000000000e-01 -2.0278925857460467e-02 6.7267960767663471e-05  5.0000000000000000e-01 -2.0276569453665814e-02 -1.0686544367748828e-03  2.9516288625714532e-01 -2.7043047052110795e-02 5.2391281765244729e-05  2.9516287431361438e-01 -2.7040613609628037e-02 -1.0834459419530697e-03  2.4395369112530510e-01 -2.7019169090407955e-02 5.2048451251185778e-05  2.4395363420011923e-01 -2.7016548112139323e-02 -1.0839919733542798e-03  3.4637134069115200e-01 -2.7066533588954056e-02 5.2811636305857281e-05  3.4637132619973149e-01 -2.7064150548691233e-02 -1.0830426539813528e-03  3.9758022321712350e-01 -2.7082453158754540e-02 5.3009538076960992e-05  3.9758021824821999e-01 -2.7080089544290968e-02 -1.0828534962727557e-03  4.4878986430575862e-01 -2.7091422962241984e-02 5.3087578532232241e-05  4.4878986256399911e-01 -2.7089065021627189e-02 -1.0827909277021349e-03  5.0000000000000000e-01 -2.7094315309382187e-02 5.3107942211913930e-05  5.0000000000000000e-01 -2.7091958793903064e-02 -1.0827759670005580e-03  2.9516971252726104e-01 -3.3858259901428774e-02 3.7730853886976703e-05  2.9516969432955731e-01 -3.3855840695329091e-02 -1.0980572053204988e-03  2.4395750588765591e-01 -3.3834121643441066e-02 3.6498984915443076e-05  2.4395749353349827e-01 -3.3831400569091695e-02 -1.1000201261456052e-03  3.4637686679114704e-01 -3.3881455365465121e-02 3.8486714054455528e-05  3.4637685389486184e-01 -3.3879071097412762e-02 -1.0973240188129226e-03  3.9758377382621390e-01 -3.3897481272027241e-02 3.8802453923258023e-05  3.9758376885634578e-01 -3.3895118515129184e-02 -1.0970148599917066e-03  4.4879157095711103e-01 -3.3906559246186484e-02 3.8919439321423856e-05  4.4879156927752706e-01 -3.3904201426232752e-02 -1.0969195542419076e-03  5.0000000000000000e-01 -3.3909491957718856e-02 3.8949617790440688e-05  5.0000000000000000e-01 -3.3907135607140711e-02 -1.0968965920248653e-03  2.9509180610692032e-01 2.7489034757373961e-02 -2.1070748742920684e-03  2.9508275738921536e-01 3.4307407327669112e-02 -2.0936403677764481e-03  2.4383828854696593e-01 3.4349790340138929e-02 -2.0953740381694187e-03  2.4385613174077803e-01 2.7529904880221237e-02 -2.1076778801283991e-03  3.4632203132334433e-01 2.7466505860710946e-02 -2.1065487447075879e-03  3.4631647653789532e-01 3.4284229574301710e-02 -2.0926863423801224e-03  3.9754912465988124e-01 2.7451793089489064e-02 -2.1062697968097818e-03  3.9754569008055129e-01 3.4269245993540601e-02 -2.0922702198709121e-03  4.4877483626298287e-01 2.7443179895391641e-02 -2.1061553978915580e-03  4.4877316834455977e-01 3.4260519170672722e-02 -2.0921099187985060e-03  5.0000000000000000e-01 2.7440339877197479e-02 -2.1061253420449062e-03  5.0000000000000000e-01 3.4257645361586597e-02 -2.0920695716044797e-03  2.9510207335621891e-01 2.0671289157480198e-02 -2.1205275942825733e-03  2.4387348360959141e-01 2.0710891638938404e-02 -2.1202350120239299e-03  3.4632819040975615e-01 2.0649161319759531e-02 -2.1204041060565934e-03  3.9755282495861671e-01 2.0634597954993096e-02 -2.1202626715832100e-03  4.4877661145932712e-01 2.0626059248232249e-02 -2.1201970527364271e-03  5.0000000000000000e-01 2.0623245032017550e-02 -2.1201786292058054e-03  2.9511269332907131e-01 1.3854235238804621e-02 -2.1340769482024492e-03  2.4388903960649699e-01 1.3891909835721836e-02 -2.1331350919640995e-03  3.4633468394696926e-01 1.3832272355118257e-02 -2.1342824315459569e-03  3.9755671449401003e-01 1.3817692319366982e-02 -2.1342616538676130e-03  4.4877846836607826e-01 1.3809177915033416e-02 -2.1342401072049245e-03  5.0000000000000000e-01 1.3806379018559406e-02 -2.1342324316812162e-03  2.9512302422875208e-01 7.0378850439036557e-03 -2.1477847386898673e-03  2.4390312842484688e-01 7.0724446931602417e-03 -2.1464467268209066e-03  3.4634126459138986e-01 7.0158359852355587e-03 -2.1482132896182352e-03  3.9756071336103466e-01 7.0010894147232109e-03 -2.1482780243547114e-03  4.4878038101656048e-01 6.9925507693774508e-03 -2.1482890614705399e-03  5.0000000000000000e-01 6.9897557287322441e-03 -2.1482896239598207e-03  2.9513266205034139e-01 2.2214811591268432e-04 -2.1616936438191413e-03  2.4391616910482253e-01 2.5306188545522158e-04 -2.1602203543176469e-03  3.4634774148974773e-01 1.9979634787002372e-04 -2.1622163480012877e-03  3.9756474588186191e-01 1.8478801154026345e-04 -2.1623191334583171e-03  4.4878232208960478e-01 1.7618530455255652e-04 -2.1623470752312451e-03  5.0000000000000000e-01 1.7338368877328902e-04 -2.1623522919890343e-03  2.9514141538193728e-01 -6.5931714413831922e-03 -2.1758211468456616e-03  2.4392828274227921e-01 -6.5653750785713500e-03 -2.1744950150556163e-03  3.4635399357943153e-01 -6.6159159068055300e-03 -2.1762984274930879e-03  3.9756875021255900e-01 -6.6312257281344036e-03 -2.1763877482414650e-03  4.4878426512770264e-01 -6.6399176300155774e-03 -2.1764155185883816e-03  5.0000000000000000e-01 -6.6427338267129920e-03 -2.1764213977553261e-03  2.9514924158681888e-01 -1.3408234721071270e-02 -2.1901577066799007e-03  2.4393907578116886e-01 -1.3382642363882454e-02 -2.1892574213144365e-03  3.4635997635624749e-01 -1.3431374050654189e-02 -2.1904534359903248e-03  3.9757268197037215e-01 -1.3446973076847266e-02 -2.1904818170970855e-03  4.4878618516653651e-01 -1.3455762188633700e-02 -2.1904938019448304e-03  5.0000000000000000e-01 -1.3458598987681609e-02 -2.1904967032425268e-03  2.9515625337536855e-01 -2.0223170572679840e-02 -2.2046703989665765e-03  2.4394782941980311e-01 -2.0198788385908991e-02 -2.2044513308843261e-03  3.4636572182121367e-01 -2.0246650629504016e-02 -2.2046624033359944e-03  3.9757651086492063e-01 -2.0262472313233564e-02 -2.2045947897114562e-03  4.4878805847638803e-01 -2.0271356712555005e-02 -2.2045795987221430e-03  5.0000000000000000e-01 -2.0274219521658102e-02 -2.2045769056941158e-03  2.9516285956222182e-01 -2.7038184319382919e-02 -2.2192825497068724e-03  2.4395359930972951e-01 -2.7013881988018778e-02 -2.2200508977669991e-03  3.4637131188525361e-01 -2.7061774977704775e-02 -2.2188976662856851e-03  3.9758021395220766e-01 -2.7077733438871102e-02 -2.2187166470988484e-03  4.4878986130675602e-01 -2.7086713713484624e-02 -2.2186695094905625e-03  5.0000000000000000e-01 -2.7089608634701261e-02 -2.2186599270549129e-03  2.9516967182251724e-01 -3.3853433025528672e-02 -2.2338350651784421e-03  2.4395748139063173e-01 -3.3828578354886618e-02 -2.2365934073856003e-03  3.4637683998696334e-01 -3.3876694612385350e-02 -2.2331365259874291e-03  3.9758376456561989e-01 -3.3892763317066282e-02 -2.2328320338223248e-03  4.4879156809836501e-01 -3.3901850137954402e-02 -2.2327586338030119e-03  5.0000000000000000e-01 -3.3904785487488050e-02 -2.2327428238466426e-03  2.9509177457242602e-01 2.7491269628597475e-02 -3.2434258888282457e-03  2.9508271921046014e-01 3.4309644802196004e-02 -3.2300953390466060e-03  2.4383830814144966e-01 3.4351825681980433e-02 -3.2321370108140935e-03  2.4385614749337206e-01 2.7531963639798315e-02 -3.2441193744036567e-03  3.4632201149644637e-01 2.7468812486848751e-02 -3.2428112981671953e-03  3.4631645418560536e-01 3.4286538318589348e-02 -3.2290011017444436e-03  3.9754911570317708e-01 2.7454122748504329e-02 -3.2424904285393900e-03  3.9754568024139697e-01 3.4271576906458719e-02 -3.2285315614457555e-03  4.4877483298455784e-01 2.7445517453628575e-02 -3.2423574907037276e-03  4.4877316482740442e-01 3.4262857383674003e-02 -3.2283499652419096e-03  5.0000000000000000e-01 2.7442679257281506e-02 -3.2423219943314621e-03  5.0000000000000000e-01 3.4259985207726946e-02 -3.2283033466863819e-03  2.9510207205702726e-01 2.0673533880719047e-02 -3.2567723555857980e-03  2.4387354371934100e-01 2.0713008293613906e-02 -3.2564720391126032e-03  3.4632818001838506e-01 2.0651469659067282e-02 -3.2566134379894149e-03  3.9755281942430393e-01 2.0636927821553481e-02 -3.2564410483663926e-03  4.4877660926801605e-01 2.0628396688962044e-02 -3.2563601947636139e-03  5.0000000000000000e-01 2.0625584295970435e-02 -3.2563373557583991e-03  2.9511271723859500e-01 1.3856499030469049e-02 -3.2702145454035088e-03  2.4388913436077742e-01 1.3894104163796651e-02 -3.2692504199707271e-03  3.4633468230274084e-01 1.3834587166317247e-02 -3.2704375068872520e-03  3.9755671230949752e-01 1.3820024031384864e-02 -3.2703960375533086e-03  4.4877846723258119e-01 1.3811515872471317e-02 -3.2703633999874755e-03  5.0000000000000000e-01 1.3808718546341815e-02 -3.2703524698695272e-03  2.9512306413714373e-01 7.0401791565839417e-03 -3.2838287624447952e-03  2.4390324509805800e-01 7.0747035048200528e-03 -3.2824634239219178e-03  3.4634126933385567e-01 7.0181611395229108e-03 -3.2843151831356736e-03  3.9756071370183393e-01 7.0034242843212751e-03 -3.2843673992268268e-03  4.4878038071340209e-01 6.9948898242100923e-03 -3.2843718514828134e-03  5.0000000000000000e-01 6.9920958911354825e-03 -3.2843703923490695e-03  2.9513270902963246e-01 2.2447991747903082e-04 -3.2976638106234015e-03  2.4391628732032111e-01 2.5539419620952317e-04 -3.2961723233878850e-03  3.4634774914743804e-01 2.0213334373605620e-04 -3.2982664713712855e-03  3.9756474752568666e-01 1.8712685662952645e-04 -3.2983630677944787e-03  4.4878232228375331e-01 1.7852581428658834e-04 -3.2983889270953386e-03  5.0000000000000000e-01 1.7572472273150150e-04 -3.2983934266059174e-03  2.9514146029840094e-01 -6.5908032576696245e-03 -3.3117360234322514e-03  2.4392839129111268e-01 -6.5629551125826174e-03 -3.3104005395503977e-03  3.4635400008287681e-01 -6.6135671712403647e-03 -3.3122987445479016e-03  3.9756875185601859e-01 -6.6288827919922678e-03 -3.3123862052914514e-03  4.4878426544829980e-01 -6.6375756009335986e-03 -3.3124162254655511e-03  5.0000000000000000e-01 -6.6403918466689561e-03 -3.3124227783266221e-03  2.9514927359902365e-01 -1.3405835952057948e-02 -3.3260375044695690e-03  2.4393916707763316e-01 -1.3380136528016283e-02 -3.3251347669894138e-03  3.4635997799747092e-01 -1.3429015195759397e-02 -3.3264054854404020e-03  3.9757268244222482e-01 -1.3444626756769957e-02 -3.3264349127730317e-03  4.4878618527222242e-01 -1.3453418839481680e-02 -3.3264534174045107e-03  5.0000000000000000e-01 -1.3456256148252769e-02 -3.3264584650631768e-03  2.9515626265642247e-01 -2.0220750241013580e-02 -3.3405302783764599e-03  2.4394788168283041e-01 -2.0196202395048522e-02 -3.3403619117384447e-03  3.4636571595325250e-01 -2.0244285123803031e-02 -3.3405662638338616e-03  3.9757650931384025e-01 -2.0260123953964624e-02 -3.3405028081839013e-03  4.4878805814186884e-01 -2.0269012423563958e-02 -3.3404984330387653e-03  5.0000000000000000e-01 -2.0271876042120007e-02 -3.3404994467106123e-03  2.9516284330980413e-01 -2.7035759937685692e-02 -3.3551210803614306e-03  2.4395357574992441e-01 -2.7011168241790964e-02 -3.3561195234302686e-03  3.4637129729430188e-01 -2.7059406738205897e-02 -3.3547530057459860e-03  3.9758021034066804e-01 -2.7075384799373815e-02 -3.3545799397737899e-03  4.4878986052957642e-01 -2.7084369006555704e-02 -3.3545481479748357e-03  5.0000000000000000e-01 -2.7087264819156458e-02 -3.3545439372280189e-03  2.9516964314162203e-01 -3.3851038572881888e-02 -3.3696022618873783e-03  2.4395744986786264e-01 -3.3825629997470311e-02 -3.3732231997664541e-03  3.4637682372824669e-01 -3.3874325726800020e-02 -3.3689505958816035e-03  3.9758376083686120e-01 -3.3890415775658482e-02 -3.3686491530457137e-03  4.4879156739960424e-01 -3.3899505395619083e-02 -3.3685977859928061e-03  5.0000000000000000e-01 -3.3902441602269837e-02 -3.3685890767217426e-03  2.9509173681767709e-01 2.7493485714791734e-02 -4.3797783879490739e-03  2.9508266564907160e-01 3.4311867374531693e-02 -4.3665501402709930e-03  2.4383830415039928e-01 3.4353812380308373e-02 -4.3688975397733311e-03  2.4385615336899355e-01 2.7533984174666976e-02 -4.3805542663094251e-03  3.4632198816361487e-01 2.7471110189071578e-02 -4.3790742273763757e-03  3.4631642573598559e-01 3.4288839062552361e-02 -4.3653160178687500e-03  3.9754910536755950e-01 2.7456445337271776e-02 -4.3787112667853191e-03  3.9754566819589965e-01 3.4273901254609135e-02 -4.3647930000394351e-03  4.4877482916910660e-01 2.7447848542995954e-02 -4.3785596735701785e-03  4.4877316056615862e-01 3.4265189369044671e-02 -4.3645900660999994e-03  5.0000000000000000e-01 2.7445012338622416e-02 -4.3785187118357428e-03  5.0000000000000000e-01 3.4262318912376417e-02 -4.3645371319945871e-03  2.9510207037480102e-01 2.0675758917285764e-02 -4.3930196998567045e-03  2.4387360225999030e-01 2.0715092479106093e-02 -4.3927113801688874e-03  3.4632816772070874e-01 2.0653768691402709e-02 -4.3928233442185223e-03  3.9755281305558965e-01 2.0639