<?xml version="1.0"?>
<VTKFile type="UnstructuredGrid"  version="0.1"  >
<UnstructuredGrid>
<Piece  NumberOfPoints="1331" NumberOfCells="6000">
<Points>
<DataArray  type="Float64"  NumberOfComponents="3"  format="ascii">0 0 0  3 0 0  6 0 0  9 0 0  12 0 0  15 0 0  18 0 0  21 0 0  24 0 0  27 0 0  30 0 0  0 0.5 0  3 0.5 0  6 0.5 0  9 0.5 0  12 0.5 0  15 0.5 0  18 0.5 0  21 0.5 0  24 0.5 0  27 0.5 0  30 0.5 0  0 1 0  3 1 0  6 1 0  9 1 0  12 1 0  15 1 0  18 1 0  21 1 0  24 1 0  27 1 0  30 1 0  0 1.5 0  3 1.5 0  6 1.5 0  9 1.5 0  12 1.5 0  15 1.5 0  18 1.5 0  21 1.5 0  24 1.5 0  27 1.5 0  30 1.5 0  0 2 0  3 2 0  6 2 0  9 2 0  12 2 0  15 2 0  18 2 0  21 2 0  24 2 0  27 2 0  30 2 0  0 2.5 0  3 2.5 0  6 2.5 0  9 2.5 0  12 2.5 0  15 2.5 0  18 2.5 0  21 2.5 0  24 2.5 0  27 2.5 0  30 2.5 0  0 3 0  3 3 0  6 3 0  9 3 0  12 3 0  15 3 0  18 3 0  21 3 0  24 3 0  27 3 0  30 3 0  0 3.5 0  3 3.5 0  6 3.5 0  9 3.5 0  12 3.5 0  15 3.5 0  18 3.5 0  21 3.5 0  24 3.5 0  27 3.5 0  30 3.5 0  0 4 0  3 4 0  6 4 0  9 4 0  12 4 0  15 4 0  18 4 0  21 4 0  24 4 0  27 4 0  30 4 0  0 4.5 0  3 4.5 0  6 4.5 0  9 4.5 0  12 4.5 0  15 4.5 0  18 4.5 0  21 4.5 0  24 4.5 0  27 4.5 0  30 4.5 0  0 5 0  3 5 0  6 5 0  9 5 0  12 5 0  15 5 0  18 5 0  21 5 0  24 5 0  27 5 0  30 5 0  0 0 0.132  3 0 0.132  6 0 0.132  9 0 0.132  12 0 0.132  15 0 0.132  18 0 0.132  21 0 0.132  24 0 0.132  27 0 0.132  30 0 0.132  0 0.5 0.132  3 0.5 0.132  6 0.5 0.132  9 0.5 0.132  12 0.5 0.132  15 0.5 0.132  18 0.5 0.132  21 0.5 0.132  24 0.5 0.132  27 0.5 0.132  30 0.5 0.132  0 1 0.132  3 1 0.132  6 1 0.132  9 1 0.132  12 1 0.132  15 1 0.132  18 1 0.132  21 1 0.132  24 1 0.132  27 1 0.132  30 1 0.132  0 1.5 0.132  3 1.5 0.132  6 1.5 0.132  9 1.5 0.132  12 1.5 0.132  15 1.5 0.132  18 1.5 0.132  21 1.5 0.132  24 1.5 0.132  27 1.5 0.132  30 1.5 0.132  0 2 0.132  3 2 0.132  6 2 0.132  9 2 0.132  12 2 0.132  15 2 0.132  18 2 0.132  21 2 0.132  24 2 0.132  27 2 0.132  30 2 0.132  0 2.5 0.132  3 2.5 0.132  6 2.5 0.132  9 2.5 0.132  12 2.5 0.132  15 2.5 0.132  18 2.5 0.132  21 2.5 0.132  24 2.5 0.132  27 2.5 0.132  30 2.5 0.132  0 3 0.132  3 3 0.132  6 3 0.132  9 3 0.132  12 3 0.132  15 3 0.132  18 3 0.132  21 3 0.132  24 3 0.132  27 3 0.132  30 3 0.132  0 3.5 0.132  3 3.5 0.132  6 3.5 0.132  9 3.5 0.132  12 3.5 0.132  15 3.5 0.132  18 3.5 0.132  21 3.5 0.132  24 3.5 0.132  27 3.5 0.132  30 3.5 0.132  0 4 0.132  3 4 0.132  6 4 0.132  9 4 0.132  12 4 0.132  15 4 0.132  18 4 0.132  21 4 0.132  24 4 0.132  27 4 0.132  30 4 0.132  0 4.5 0.132  3 4.5 0.132  6 4.5 0.132  9 4.5 0.132  12 4.5 0.132  15 4.5 0.132  18 4.5 0.132  21 4.5 0.132  24 4.5 0.132  27 4.5 0.132  30 4.5 0.132  0 5 0.132  3 5 0.132  6 5 0.132  9 5 0.132  12 5 0.132  15 5 0.132  18 5 0.132  21 5 0.132  24 5 0.132  27 5 0.132  30 5 0.132  0 0 0.264  3 0 0.264  6 0 0.264  9 0 0.264  12 0 0.264  15 0 0.264  18 0 0.264  21 0 0.264  24 0 0.264  27 0 0.264  30 0 0.264  0 0.5 0.264  3 0.5 0.264  6 0.5 0.264  9 0.5 0.264  12 0.5 0.264  15 0.5 0.264  18 0.5 0.264  21 0.5 0.264  24 0.5 0.264  27 0.5 0.264  30 0.5 0.264  0 1 0.264  3 1 0.264  6 1 0.264  9 1 0.264  12 1 0.264  15 1 0.264  18 1 0.264  21 1 0.264  24 1 0.264  27 1 0.264  30 1 0.264  0 1.5 0.264  3 1.5 0.264  6 1.5 0.264  9 1.5 0.264  12 1.5 0.264  15 1.5 0.264  18 1.5 0.264  21 1.5 0.264  24 1.5 0.264  27 1.5 0.264  30 1.5 0.264  0 2 0.264  3 2 0.264  6 2 0.264  9 2 0.264  12 2 0.264  15 2 0.264  18 2 0.264  21 2 0.264  24 2 0.264  27 2 0.264  30 2 0.264  0 2.5 0.264  3 2.5 0.264  6 2.5 0.264  9 2.5 0.264  12 2.5 0.264  15 2.5 0.264  18 2.5 0.264  21 2.5 0.264  24 2.5 0.264  27 2.5 0.264  30 2.5 0.264  0 3 0.264  3 3 0.264  6 3 0.264  9 3 0.264  12 3 0.264  15 3 0.264  18 3 0.264  21 3 0.264  24 3 0.264  27 3 0.264  30 3 0.264  0 3.5 0.264  3 3.5 0.264  6 3.5 0.264  9 3.5 0.264  12 3.5 0.264  15 3.5 0.264  18 3.5 0.264  21 3.5 0.264  24 3.5 0.264  27 3.5 0.264  30 3.5 0.264  0 4 0.264  3 4 0.264  6 4 0.264  9 4 0.264  12 4 0.264  15 4 0.264  18 4 0.264  21 4 0.264  24 4 0.264  27 4 0.264  30 4 0.264  0 4.5 0.264  3 4.5 0.264  6 4.5 0.264  9 4.5 0.264  12 4.5 0.264  15 4.5 0.264  18 4.5 0.264  21 4.5 0.264  24 4.5 0.264  27 4.5 0.264  30 4.5 0.264  0 5 0.264  3 5 0.264  6 5 0.264  9 5 0.264  12 5 0.264  15 5 0.264  18 5 0.264  21 5 0.264  24 5 0.264  27 5 0.264  30 5 0.264  0 0 0.396  3 0 0.396  6 0 0.396  9 0 0.396  12 0 0.396  15 0 0.396  18 0 0.396  21 0 0.396  24 0 0.396  27 0 0.396  30 0 0.396  0 0.5 0.396  3 0.5 0.396  6 0.5 0.396  9 0.5 0.396  12 0.5 0.396  15 0.5 0.396  18 0.5 0.396  21 0.5 0.396  24 0.5 0.396  27 0.5 0.396  30 0.5 0.396  0 1 0.396  3 1 0.396  6 1 0.396  9 1 0.396  12 1 0.396  15 1 0.396  18 1 0.396  21 1 0.396  24 1 0.396  27 1 0.396  30 1 0.396  0 1.5 0.396  3 1.5 0.396  6 1.5 0.396  9 1.5 0.396  12 1.5 0.396  15 1.5 0.396  18 1.5 0.396  21 1.5 0.396  24 1.5 0.396  27 1.5 0.396  30 1.5 0.396  0 2 0.396  3 2 0.396  6 2 0.396  9 2 0.396  12 2 0.396  15 2 0.396  18 2 0.396  21 2 0.396  24 2 0.396  27 2 0.396  30 2 0.396  0 2.5 0.396  3 2.5 0.396  6 2.5 0.396  9 2.5 0.396  12 2.5 0.396  15 2.5 0.396  18 2.5 0.396  21 2.5 0.396  24 2.5 0.396  27 2.5 0.396  30 2.5 0.396  0 3 0.396  3 3 0.396  6 3 0.396  9 3 0.396  12 3 0.396  15 3 0.396  18 3 0.396  21 3 0.396  24 3 0.396  27 3 0.396  30 3 0.396  0 3.5 0.396  3 3.5 0.396  6 3.5 0.396  9 3.5 0.396  12 3.5 0.396  15 3.5 0.396  18 3.5 0.396  21 3.5 0.396  24 3.5 0.396  27 3.5 0.396  30 3.5 0.396  0 4 0.396  3 4 0.396  6 4 0.396  9 4 0.396  12 4 0.396  15 4 0.396  18 4 0.396  21 4 0.396  24 4 0.396  27 4 0.396  30 4 0.396  0 4.5 0.396  3 4.5 0.396  6 4.5 0.396  9 4.5 0.396  12 4.5 0.396  15 4.5 0.396  18 4.5 0.396  21 4.5 0.396  24 4.5 0.396  27 4.5 0.396  30 4.5 0.396  0 5 0.396  3 5 0.396  6 5 0.396  9 5 0.396  12 5 0.396  15 5 0.396  18 5 0.396  21 5 0.396  24 5 0.396  27 5 0.396  30 5 0.396  0 0 0.528  3 0 0.528  6 0 0.528  9 0 0.528  12 0 0.528  15 0 0.528  18 0 0.528  21 0 0.528  24 0 0.528  27 0 0.528  30 0 0.528  0 0.5 0.528  3 0.5 0.528  6 0.5 0.528  9 0.5 0.528  12 0.5 0.528  15 0.5 0.528  18 0.5 0.528  21 0.5 0.528  24 0.5 0.528  27 0.5 0.528  30 0.5 0.528  0 1 0.528  3 1 0.528  6 1 0.528  9 1 0.528  12 1 0.528  15 1 0.528  18 1 0.528  21 1 0.528  24 1 0.528  27 1 0.528  30 1 0.528  0 1.5 0.528  3 1.5 0.528  6 1.5 0.528  9 1.5 0.528  12 1.5 0.528  15 1.5 0.528  18 1.5 0.528  21 1.5 0.528  24 1.5 0.528  27 1.5 0.528  30 1.5 0.528  0 2 0.528  3 2 0.528  6 2 0.528  9 2 0.528  12 2 0.528  15 2 0.528  18 2 0.528  21 2 0.528  24 2 0.528  27 2 0.528  30 2 0.528  0 2.5 0.528  3 2.5 0.528  6 2.5 0.528  9 2.5 0.528  12 2.5 0.528  15 2.5 0.528  18 2.5 0.528  21 2.5 0.528  24 2.5 0.528  27 2.5 0.528  30 2.5 0.528  0 3 0.528  3 3 0.528  6 3 0.528  9 3 0.528  12 3 0.528  15 3 0.528  18 3 0.528  21 3 0.528  24 3 0.528  27 3 0.528  30 3 0.528  0 3.5 0.528  3 3.5 0.528  6 3.5 0.528  9 3.5 0.528  12 3.5 0.528  15 3.5 0.528  18 3.5 0.528  21 3.5 0.528  24 3.5 0.528  27 3.5 0.528  30 3.5 0.528  0 4 0.528  3 4 0.528  6 4 0.528  9 4 0.528  12 4 0.528  15 4 0.528  18 4 0.528  21 4 0.528  24 4 0.528  27 4 0.528  30 4 0.528  0 4.5 0.528  3 4.5 0.528  6 4.5 0.528  9 4.5 0.528  12 4.5 0.528  15 4.5 0.528  18 4.5 0.528  21 4.5 0.528  24 4.5 0.528  27 4.5 0.528  30 4.5 0.528  0 5 0.528  3 5 0.528  6 5 0.528  9 5 0.528  12 5 0.528  15 5 0.528  18 5 0.528  21 5 0.528  24 5 0.528  27 5 0.528  30 5 0.528  0 0 0.66  3 0 0.66  6 0 0.66  9 0 0.66  12 0 0.66  15 0 0.66  18 0 0.66  21 0 0.66  24 0 0.66  27 0 0.66  30 0 0.66  0 0.5 0.66  3 0.5 0.66  6 0.5 0.66  9 0.5 0.66  12 0.5 0.66  15 0.5 0.66  18 0.5 0.66  21 0.5 0.66  24 0.5 0.66  27 0.5 0.66  30 0.5 0.66  0 1 0.66  3 1 0.66  6 1 0.66  9 1 0.66  12 1 0.66  15 1 0.66  18 1 0.66  21 1 0.66  24 1 0.66  27 1 0.66  30 1 0.66  0 1.5 0.66  3 1.5 0.66  6 1.5 0.66  9 1.5 0.66  12 1.5 0.66  15 1.5 0.66  18 1.5 0.66  21 1.5 0.66  24 1.5 0.66  27 1.5 0.66  30 1.5 0.66  0 2 0.66  3 2 0.66  6 2 0.66  9 2 0.66  12 2 0.66  15 2 0.66  18 2 0.66  21 2 0.66  24 2 0.66  27 2 0.66  30 2 0.66  0 2.5 0.66  3 2.5 0.66  6 2.5 0.66  9 2.5 0.66  12 2.5 0.66  15 2.5 0.66  18 2.5 0.66  21 2.5 0.66  24 2.5 0.66  27 2.5 0.66  30 2.5 0.66  0 3 0.66  3 3 0.66  6 3 0.66  9 3 0.66  12 3 0.66  15 3 0.66  18 3 0.66  21 3 0.66  24 3 0.66  27 3 0.66  30 3 0.66  0 3.5 0.66  3 3.5 0.66  6 3.5 0.66  9 3.5 0.66  12 3.5 0.66  15 3.5 0.66  18 3.5 0.66  21 3.5 0.66  24 3.5 0.66  27 3.5 0.66  30 3.5 0.66  0 4 0.66  3 4 0.66  6 4 0.66  9 4 0.66  12 4 0.66  15 4 0.66  18 4 0.66  21 4 0.66  24 4 0.66  27 4 0.66  30 4 0.66  0 4.5 0.66  3 4.5 0.66  6 4.5 0.66  9 4.5 0.66  12 4.5 0.66  15 4.5 0.66  18 4.5 0.66  21 4.5 0.66  24 4.5 0.66  27 4.5 0.66  30 4.5 0.66  0 5 0.66  3 5 0.66  6 5 0.66  9 5 0.66  12 5 0.66  15 5 0.66  18 5 0.66  21 5 0.66  24 5 0.66  27 5 0.66  30 5 0.66  0 0 0.792  3 0 0.792  6 0 0.792  9 0 0.792  12 0 0.792  15 0 0.792  18 0 0.792  21 0 0.792  24 0 0.792  27 0 0.792  30 0 0.792  0 0.5 0.792  3 0.5 0.792  6 0.5 0.792  9 0.5 0.792  12 0.5 0.792  15 0.5 0.792  18 0.5 0.792  21 0.5 0.792  24 0.5 0.792  27 0.5 0.792  30 0.5 0.792  0 1 0.792  3 1 0.792  6 1 0.792  9 1 0.792  12 1 0.792  15 1 0.792  18 1 0.792  21 1 0.792  24 1 0.792  27 1 0.792  30 1 0.792  0 1.5 0.792  3 1.5 0.792  6 1.5 0.792  9 1.5 0.792  12 1.5 0.792  15 1.5 0.792  18 1.5 0.792  21 1.5 0.792  24 1.5 0.792  27 1.5 0.792  30 1.5 0.792  0 2 0.792  3 2 0.792  6 2 0.792  9 2 0.792  12 2 0.792  15 2 0.792  18 2 0.792  21 2 0.792  24 2 0.792  27 2 0.792  30 2 0.792  0 2.5 0.792  3 2.5 0.792  6 2.5 0.792  9 2.5 0.792  12 2.5 0.792  15 2.5 0.792  18 2.5 0.792  21 2.5 0.792  24 2.5 0.792  27 2.5 0.792  30 2.5 0.792  0 3 0.792  3 3 0.792  6 3 0.792  9 3 0.792  12 3 0.792  15 3 0.792  18 3 0.792  21 3 0.792  24 3 0.792  27 3 0.792  30 3 0.792  0 3.5 0.792  3 3.5 0.792  6 3.5 0.792  9 3.5 0.792  12 3.5 0.792  15 3.5 0.792  18 3.5 0.792  21 3.5 0.792  24 3.5 0.792  27 3.5 0.792  30 3.5 0.792  0 4 0.792  3 4 0.792  6 4 0.792  9 4 0.792  12 4 0.792  15 4 0.792  18 4 0.792  21 4 0.792  24 4 0.792  27 4 0.792  30 4 0.792  0 4.5 0.792  3 4.5 0.792  6 4.5 0.792
[...]
<PointData  Vectors="f_13"> 
<DataArray  type="Float64"  Name="f_13"  NumberOfComponents="3" format="ascii">0.0000000000000000e+00 0.0000000000000000e+00 0.0000000000000000e+00  7.8525979756289610e-02 4.5654563526605643e-02 1.3334463794921409e-02  1.8430783341560744e-01 4.1317817430903576e-02 1.0445128509744436e-02  2.8976866249479682e-01 4.0979509540806425e-02 1.0484018179027482e-02  3.9494670524440345e-01 4.0829966798621220e-02 1.0690853661913548e-02  5.0002486960341930e-01 4.0821585188958467e-02 1.0940673769947571e-02  6.0494440475795319e-01 4.0868676270195282e-02 1.1115108496696108e-02  7.1003328761826467e-01 4.0553950102352472e-02 1.1587899978834870e-02  8.1371508077366328e-01 4.0571430623858512e-02 1.0675851244304967e-02  9.1936631638456401e-01 4.2749812131027701e-02 1.0912611771986755e-02  1.0000000000000000e+00 0.0000000000000000e+00 0.0000000000000000e+00  0.0000000000000000e+00 0.0000000000000000e+00 0.0000000000000000e+00  7.7664421467873862e-02 3.7233903191969203e-02 1.3665595307724298e-02  1.8463097686100102e-01 3.3069516508707764e-02 1.0301875350103525e-02  2.8977580868126446e-01 3.2796242458377700e-02 1.0501493206967511e-02  3.9496064686055599e-01 3.2645622046224440e-02 1.0660143142971116e-02  5.0002439721130154e-01 3.2653252857646885e-02 1.0908762906501376e-02  6.0494972271042158e-01 3.2690393856398235e-02 1.1102740782275895e-02  7.1008550859295805e-01 3.2397047203896127e-02 1.1500494485629719e-02  8.1348059634788383e-01 3.2629194471996352e-02 1.0600956973262006e-02  9.2226749311821787e-01 3.3466287735987948e-02 1.1619186059033768e-02  1.0000000000000000e+00 0.0000000000000000e+00 0.0000000000000000e+00  0.0000000000000000e+00 0.0000000000000000e+00 0.0000000000000000e+00  7.5787687765733414e-02 2.8049192637329197e-02 1.4486376308085485e-02  1.8489711858365965e-01 2.4949279729300347e-02 1.0181782513850886e-02  2.8979404305359491e-01 2.4598899214023435e-02 1.0503756465135303e-02  3.9498112605330798e-01 2.4464597521877171e-02 1.0629137200500080e-02  5.0002498285539021e-01 2.4484198004659240e-02 1.0880198512437600e-02  6.0497625131614985e-01 2.4508535708837556e-02 1.1079655214856401e-02  7.1005575808408294e-01 2.4268531630004343e-02 1.1443585058736048e-02  8.1372593279625682e-01 2.4547487373430148e-02 1.0523891828532805e-02  9.2363803002439515e-01 2.4292116390790396e-02 1.2107547410109056e-02  1.0000000000000000e+00 0.0000000000000000e+00 0.0000000000000000e+00  0.0000000000000000e+00 0.0000000000000000e+00 0.0000000000000000e+00  7.4898532873068149e-02 1.9036779271033345e-02 1.4884347829309100e-02  1.8506847991025632e-01 1.6852517799526560e-02 9.9962640806694116e-03  2.8983325956951972e-01 1.6384505643235146e-02 1.0506383522090891e-02  3.9500334654756925e-01 1.6290863894792885e-02 1.0598990141458335e-02  5.0003111296086222e-01 1.6313052911773870e-02 1.0852111497133686e-02  6.0499881825696211e-01 1.6325799094249905e-02 1.1054175143760036e-02  7.1005065030742376e-01 1.6161433158469674e-02 1.1395365607475815e-02  8.1402808248957803e-01 1.6296537636381295e-02 1.0484304904488735e-02  9.2443437472951839e-01 1.5415184369911622e-02 1.2398778824583796e-02  1.0000000000000000e+00 0.0000000000000000e+00 0.0000000000000000e+00  0.0000000000000000e+00 0.0000000000000000e+00 0.0000000000000000e+00  7.4520187711750521e-02 1.0298573129059388e-02 1.5093885524884510e-02  1.8509410973216511e-01 8.6417905253435203e-03 9.8857589866795138e-03  2.8989747437785884e-01 8.1798077905328274e-03 1.0506077342307019e-02  3.9502328243803975e-01 8.1217321975523629e-03 1.0566813697947569e-02  5.0004186193057509e-01 8.1391307302417781e-03 1.0824392345944539e-02  6.0501650834981935e-01 8.1461525911107127e-03 1.1027691237195035e-02  7.1008350485836891e-01 8.0549503536333864e-03 1.1356264023494777e-02  8.1426333996685119e-01 7.9415586224133496e-03 1.0464993058712253e-02  9.2488665244714885e-01 6.7730121754777774e-03 1.2532963504895238e-02  1.0000000000000000e+00 0.0000000000000000e+00 0.0000000000000000e+00  0.0000000000000000e+00 0.0000000000000000e+00 0.0000000000000000e+00  7.4443681089482350e-02 1.7432342981285656e-03 1.5193410713925699e-02  1.8513049258482403e-01 3.2201906847553708e-04 9.8068940497529223e-03  2.8997835651162018e-01 5.9345029903075794e-06 1.0487787069715605e-02  3.9503951981406316e-01 -4.8681679629557612e-05 1.0534299487291355e-02  5.0005502220056330e-01 -3.6843158747199399e-05 1.0796624389173131e-02  6.0503280423059314e-01 -2.8040409353131351e-05 1.1001927433799364e-02  7.1014640039525467e-01 -6.8459131015527315e-05 1.1325285044418605e-02  8.1439541484213185e-01 -4.3681974563435186e-04 1.0454413791327258e-02  9.2507237781730067e-01 -1.7700552274403688e-03 1.2542030297328637e-02  1.0000000000000000e+00 0.0000000000000000e+00 0.0000000000000000e+00  0.0000000000000000e+00 0.0000000000000000e+00 0.0000000000000000e+00  7.4611996702583519e-02 -6.7617075571553909e-03 1.5207474252296843e-02  1.8525427270580094e-01 -8.0494431713030151e-03 9.7349842475894007e-03  2.9004679056048699e-01 -8.1393098918748560e-03 1.0460999225608433e-02  3.9505434647898774e-01 -8.2241021379747536e-03 1.0502294207325635e-02  5.0006828367167000e-01 -8.2131331661310768e-03 1.0768435950098503e-02  6.0505327005631560e-01 -8.1957006975978911e-03 1.0979122416077501e-02  7.1021991911530180e-01 -8.2233204602124455e-03 1.1296878802570520e-02  8.1443995007732239e-01 -8.7592508404303205e-03 1.0456329118184090e-02  9.2500280322004180e-01 -1.0363123734634605e-02 1.2431994425343830e-02  1.0000000000000000e+00 0.0000000000000000e+00 0.0000000000000000e+00  0.0000000000000000e+00 0.0000000000000000e+00 0.0000000000000000e+00  7.5033893394901699e-02 -1.5354585352720431e-02 1.5138433458823966e-02  1.8548072044336653e-01 -1.6401379133968417e-02 9.6613452696855933e-03  2.9008522902678069e-01 -1.6268727257000619e-02 1.0432122353146455e-02  3.9507230745804955e-01 -1.6403997838442867e-02 1.0468661451404177e-02  5.0007939416224556e-01 -1.6387523250232221e-02 1.0740248207381937e-02  6.0507712457493146e-01 -1.6360748546823348e-02 1.0958042694470524e-02  7.1026977641518940e-01 -1.6419378882797795e-02 1.1260950545801427e-02  8.1448142671785806e-01 -1.6951898798555243e-02 1.0496651247860818e-02  9.2461726751090156e-01 -1.9154107136465572e-02 1.2180284150626148e-02  1.0000000000000000e+00 0.0000000000000000e+00 0.0000000000000000e+00  0.0000000000000000e+00 0.0000000000000000e+00 0.0000000000000000e+00  7.5779491016470343e-02 -2.4163362076844996e-02 1.4970402943851777e-02  1.8577588011533794e-01 -2.4659405652670940e-02 9.5891465315393470e-03  2.9008593556825979e-01 -2.4400344872143303e-02 1.0402460957536547e-02  3.9509623661044913e-01 -2.4585002190233719e-02 1.0432423101160680e-02  5.0008601041793699e-01 -2.4558914050630799e-02 1.0712341408093250e-02  6.0510155528200771e-01 -2.4532588074189659e-02 1.0936885606925312e-02  7.1031101293528165e-01 -2.4630426828495533e-02 1.1232314300066938e-02  8.1470984740519592e-01 -2.4972500320271169e-02 1.0634454969814678e-02  9.2368153708880463e-01 -2.8271406635815285e-02 1.1703691811922106e-02  1.0000000000000000e+00 0.0000000000000000e+00 0.0000000000000000e+00  0.0000000000000000e+00 0.0000000000000000e+00 0.0000000000000000e+00  7.7067561313593505e-02 -3.3253563597203155e-02 1.4675189874504691e-02  1.8602502789961931e-01 -3.2764249529592337e-02 9.5261677013030368e-03  2.9005956698176433e-01 -3.2555029348963420e-02 1.0369790509311048e-02  3.9512483778432805e-01 -3.2761540083029908e-02 1.0394436528090984e-02  5.0008675007905823e-01 -3.2729361390933846e-02 1.0684446066345350e-02  6.0512461595668798e-01 -3.2713385747530840e-02 1.0918235699813931e-02  7.1033934064189708e-01 -3.2816107247882600e-02 1.1208833048577392e-02  8.1491421169294131e-01 -3.3030882591966564e-02 1.0743020632971088e-02  9.2154640915728336e-01 -3.7689542114998732e-02 1.0733479665863610e-02  1.0000000000000000e+00 0.0000000000000000e+00 0.0000000000000000e+00  0.0000000000000000e+00 0.0000000000000000e+00 0.0000000000000000e+00  7.9566409010001629e-02 -4.2518964843930307e-02 1.4205223837022180e-02  1.8591813379828157e-01 -4.0742809889537178e-02 9.4398121897777826e-03  2.9007765176678002e-01 -4.0740855567356113e-02 1.0340614051913126e-02  3.9513900808769875e-01 -4.0929590830138085e-02 1.0355379628416640e-02  5.0008376106521990e-01 -4.0901283506027626e-02 1.0656970421193995e-02  6.0514014024299456e-01 -4.0895414370508927e-02 1.0900283547802484e-02  7.1034391688935483e-01 -4.0996997464718542e-02 1.1172156857852384e-02  8.1519001196322027e-01 -4.1222008765252727e-02 1.0946569965133488e-02  9.2114146573386113e-01 -4.5982034594316129e-02 1.0102245279834825e-02  1.0000000000000000e+00 0.0000000000000000e+00 0.0000000000000000e+00  0.0000000000000000e+00 0.0000000000000000e+00 0.0000000000000000e+00  7.8555109546221608e-02 4.5378454200767047e-02 1.1093619930115348e-02  1.8435336575788197e-01 4.1350703071452936e-02 8.2813914737657150e-03  2.8975580677871610e-01 4.0976715937445243e-02 8.3206582819003779e-03  3.9493803743080702e-01 4.0837544078248127e-02 8.5314447342266266e-03  5.0001461189260155e-01 4.0831498399355327e-02 8.7798070017577508e-03  6.0493354970027002e-01 4.0865841028998331e-02 8.9721196903462235e-03  7.1003090061326024e-01 4.0603849329789679e-02 9.3850631945103687e-03  8.1371168543708594e-01 4.0500392128815829e-02 8.6897695747179850e-03  9.1969957852463924e-01 4.2805880858549777e-02 8.3987653720674817e-03  1.0000000000000000e+00 0.0000000000000000e+00 0.0000000000000000e+00  0.0000000000000000e+00 0.0000000000000000e+00 0.0000000000000000e+00  7.7855628989201758e-02 3.7142776622926567e-02 1.1351022676632468e-02  1.8467758675533827e-01 3.3104487143029576e-02 8.1545332173554742e-03  2.8975976686296573e-01 3.2793011037046432e-02 8.3353137945563656e-03  3.9495285826093152e-01 3.2653806834966090e-02 8.5015553810417789e-03  5.0001360894632185e-01 3.2661145013440543e-02 8.7489748181501324e-03  6.0494077539088142e-01 3.2695224208275982e-02 8.9554235142012412e-03  7.1007837519529671e-01 3.2418805341025661e-02 9.3060430301234627e-03  8.1349521909990830e-01 3.2632057242016850e-02 8.6139743342517477e-03  9.2247442581763239e-01 3.3396256473148325e-02 8.9787859370980168e-03  1.0000000000000000e+00 0.0000000000000000e+00 0.0000000000000000e+00  0.0000000000000000e+00 0.0000000000000000e+00 0.0000000000000000e+00  7.5911529659297081e-02 2.7969352407138510e-02 1.1998782622004198e-02  1.8492537036574641e-01 2.4982095706762717e-02 8.0575185842083150e-03  2.8978025901248117e-01 2.4597065004706629e-02 8.3382174092647837e-03  3.9497362708759720e-01 2.4472831465976824e-02 8.4709359366722022e-03  5.0001410328798457e-01 2.4491552344436701e-02 8.7208403138326149e-03  6.0496758507467185e-01 2.4515405872904700e-02 8.9300423154153943e-03  7.1005018282732946e-01 2.4282964863193420e-02 9.2537290994106278e-03  8.1373058324093650e-01 2.4555063687430087e-02 8.5319735197244284e-03  9.2385082669085372e-01 2.4237422842862087e-02 9.4055723713162877e-03  1.0000000000000000e+00 0.0000000000000000e+00 0.0000000000000000e+00  0.0000000000000000e+00 0.0000000000000000e+00 0.0000000000000000e+00  7.5000341542687796e-02 1.8992048058402267e-02 1.2312011299101205e-02  1.8511315665669814e-01 1.6883645259678618e-02 7.8961680563303053e-03  2.8981997828585510e-01 1.6384508113789095e-02 8.3391765305371058e-03  3.9499585501548384e-01 1.6299157622872342e-02 8.4412249716997682e-03  5.0002020472818254e-01 1.6320368157653063e-02 8.6929911043037208e-03  6.0499042946558890e-01 1.6333080027830352e-02 8.9030869380691893e-03  7.1004536586861700e-01 1.6172659864983480e-02 9.2082954300335799e-03  8.1402862134517551e-01 1.6300723908097989e-02 8.4871488956734711e-03  9.2464440141951809e-01 1.5394555449041008e-02 9.6551079851857693e-03  1.0000000000000000e+00 0.0000000000000000e+00 0.0000000000000000e+00  0.0000000000000000e+00 0.0000000000000000e+00 0.0000000000000000e+00  7.4615506755432340e-02 1.0282557781983890e-02 1.2474786611807870e-02  1.8514884526385192e-01 8.6654584996703719e-03 7.7981893501212398e-03  2.8988075385355155e-01 8.1824243116263018e-03 8.3373935073685814e-03  3.9501625392341860e-01 8.1301441463505209e-03 8.4097381200710607e-03  5.0003092573456742e-01 8.1464488457065470e-03 8.6653262651894790e-03  6.0500816295614934e-01 8.1534132475232553e-03 8.8757719633048883e-03  7.1007831765278295e-01 8.0635423169976572e-03 9.1704682173673717e-03  8.1426208261886313e-01 7.9442578278069390e-03 8.4621813555082106e-03  9.2509377210114285e-01 6.7820878948803669e-03 9.7691679379383108e-03  1.0000000000000000e+00 0.0000000000000000e+00 0.0000000000000000e+00  0.0000000000000000e+00 0.0000000000000000e+00 0.0000000000000000e+00  7.4538026891384182e-02 1.7485704027745492e-03 1.2553314337554919e-02  1.8518994874883987e-01 3.4195375862723236e-04 7.7269235680920735e-03  2.8995926749506051e-01 1.1424937906293211e-05 8.3185710530406208e-03  3.9503324656268884e-01 -4.0261788134499388e-05 8.3778886614031944e-03  5.0004398606989864e-01 -2.9462517448017845e-05 8.6376489551752787e-03  6.0502425799765303e-01 -2.1083808309016445e-05 8.8493178522130404e-03  7.1014127749929523e-01 -6.1830321797943906e-05 9.1400157187785103e-03  8.1439416584415114e-01 -4.3507596847135963e-04 8.4450534829101122e-03  9.2527714056097377e-01 -1.7349514939231827e-03 9.7787455730445755e-03  1.0000000000000000e+00 0.0000000000000000e+00 0.0000000000000000e+00  0.0000000000000000e+00 0.0000000000000000e+00 0.0000000000000000e+00  7.4707417711247059e-02 -6.7376573874189851e-03 1.2566949655135214e-02  1.8531547347382848e-01 -8.0306364437052555e-03 7.6609111146452875e-03  2.9002630118792982e-01 -8.1321408693574432e-03 8.2914771611728114e-03  3.9504848379050789e-01 -8.2155190817830570e-03 8.3464573385206194e-03  5.0005705341217943e-01 -8.2056144286683282e-03 8.6096268584624144e-03  6.0504422945569147e-01 -8.1892877802354266e-03 8.8250972226713662e-03  7.1021486364570707e-01 -8.2175752898547665e-03 9.1130749079759727e-03  8.1444068928792601e-01 -8.7612628053563534e-03 8.4377931150846439e-03  9.2520554380833664e-01 -1.0300868705894016e-02 9.6906240484838022e-03  1.0000000000000000e+00 0.0000000000000000e+00 0.0000000000000000e+00  0.0000000000000000e+00 0.0000000000000000e+00 0.0000000000000000e+00  7.5132391694654951e-02 -1.5311689627565751e-02 1.2517852249043813e-02  1.8554131360555295e-01 -1.6383217890244387e-02 7.5926626852715479e-03  2.9006389236871033e-01 -1.6260559384226523e-02 8.2618028193208147e-03  3.9506653681566994e-01 -1.6394956077332778e-02 8.3134566407664541e-03  5.0006790917134869e-01 -1.6379929421296686e-02 8.5814897410787586e-03  6.0506795291741899e-01 -1.6355287982381176e-02 8.8025260901744441e-03  7.1026545146996101e-01 -1.6413086841603381e-02 9.0833793472089707e-03  8.1448590985639391e-01 -1.6963370408550255e-02 8.4605200686591400e-03  9.2481816143625017e-01 -1.9057118282478022e-02 9.4875453615407314e-03  1.0000000000000000e+00 0.0000000000000000e+00 0.0000000000000000e+00  0.0000000000000000e+00 0.0000000000000000e+00 0.0000000000000000e+00  7.5886731914064531e-02 -2.4099372688757385e-02 1.2392471200625541e-02  1.8583259056917775e-01 -2.4642292462618010e-02 7.5254587682585094e-03  2.9006443593316422e-01 -2.4391289620856915e-02 8.2303007143007152e-03  3.9509025199978526e-01 -2.4575439489604577e-02 8.2780992876588019e-03  5.0007427795903514e-01 -2.4551497655294297e-02 8.5536038927346916e-03  6.0509254765229581e-01 -2.4527576037594995e-02 8.7806607456664132e-03  7.1030337899220508e-01 -2.4621894717984066e-02 9.0584692145780181e-03  8.1471251770430353e-01 -2.5001582589777631e-02 8.5555985639613856e-03  9.2388356827554929e-01 -2.8123446095736047e-02 9.1041969314787398e-03  1.0000000000000000e+00 0.0000000000000000e+00 0.0000000000000000e+00  0.0000000000000000e+00 0.0000000000000000e+00 0.0000000000000000e+00  7.7203773008315893e-02 -3.3165038699678961e-02 1.2157067608470695e-02  1.8606999536341987e-01 -3.2744371674441539e-02 7.4691785678340132e-03  2.9003979126375273e-01 -3.2546086111924097e-02 8.1940124110140566e-03  3.9511807502106694e-01 -3.2751554892142001e-02 8.2414418314059098e-03  5.0007490064850901e-01 -3.2722092398024406e-02 8.5258424448311654e-03  6.0511561102151201e-01 -3.2708158036637652e-02 8.7604833829726045e-03  7.1032772873567496e-01 -3.2808711856988318e-02 9.0375595600031468e-03  8.1494024274775023e-01 -3.3077304693871747e-02 8.6445974889578833e-03  9.2181228475319443e-01 -3.7475721023631718e-02 8.3098077848865644e-03  1.0000000000000000e+00 0.0000000000000000e+00 0.0000000000000000e+00  0.0000000000000000e+00 0.0000000000000000e+00 0.0000000000000000e+00  7.9878189237022237e-02 -4.2350718911213815e-02 1.1799544309375517e-02  1.8592648250031227e-01 -4.0687518825137721e-02 7.3949146854107766e-03  2.9006194874475399e-01 -4.0737707189896839e-02 8.1565789085727165e-03  3.9513097595637847e-01 -4.0919147164712739e-02 8.2048844703183996e-03  5.0007202301609566e-01 -4.0894089162466063e-02 8.4981285636562664e-03  6.0513071566596288e-01 -4.0890392195682808e-02 8.7410929039402063e-03  7.1033126008790426e-01 -4.0988516584280300e-02 9.0073016017315662e-03  8.1522690067739312e-01 -4.1273823944878774e-02 8.8098900698319500e-03  9.2127573104345295e-01 -4.5833539417816815e-02 7.7886568088849214e-03  1.0000000000000000e+00 0.0000000000000000e+00 0.0000000000000000e+00  0.0000000000000000e+00 0.0000000000000000e+00 0.0000000000000000e+00  7.8536819401889835e-02 4.5303740202444438e-02 8.8026480589825616e-03  1.8440829367640876e-01 4.1388814819513259e-02 6.1224472996383094e-03  2.8974290387392582e-01 4.0972575340938067e-02 6.1568995527551736e-03  3.9492980738315325e-01 4.0845102580449780e-02 6.3721083375348521e-03  5.0000421111137383e-01 4.0840362389032700e-02 6.6193428563291416e-03  6.0492382131014866e-01 4.0867215168409930e-02 6.8277071841632208e-03  7.1002605190021928e-01 4.0637262836703873e-02 7.1856215671419555e-03  8.1372690202452214e-01 4.0483172574973844e-02 6.6975251352060514e-03  9.1991453853964233e-01 4.2778397720661027e-02 5.8691430051178032e-03  1.0000000000000000e+00 0.0000000000000000e+00 0.0000000000000000e+00  0.0000000000000000e+00 0.0000000000000000e+00 0.0000000000000000e+00  7.7861082317343067e-02 3.7073700984583464e-02 8.9427507958778733e-03  1.8473195079873564e-01 3.3142388872760359e-02 6.0272865617377273e-03  2.8974579964509684e-01 3.2788966618957825e-02 6.1679442728827900e-03  3.9494498895596902e-01 3.2661740334958084e-02 6.3431362225308601e-03  5.0000290655141721e-01 3.2669011530340797e-02 6.5893033018842272e-03  6.0493196760397061e-01 3.2700306728830147e-02 6.8076427364002186e-03  7.1007066651066453e-01 3.2439986109003387e-02 7.1122291003607348e-03  8.1352162047869014e-01 3.2634961284807404e-02 6.6276598738646067e-03  9.2262625773150464e-01 3.3337583810325047e-02 6.3150631645356500e-03  1.0000000000000000e+00 0.0000000000000000e+00 0.0000000000000000e+00  0.0000000000000000e+00 0.0000000000000000e+00 0.0000000000000000e+00  7.5887767444680343e-02 2.7906198475769032e-02 9.4376950144289002e-03  1.8497235654463731e-01 2.5004373262292580e-02 5.9474294738904865e-03  2.8976676708966559e-01 2.4597064050828024e-02 6.1706120046985330e-03  3.9496621850623359e-01 2.4480879346080630e-02 6.3131908498858871e-03  5.0000333626315130e-01 2.4498954743221869e-02 6.5613856383123902e-03  6.0495882682140178e-01 2.4522211300335824e-02 6.7805084140233592e-03  7.1004446239179742e-01 2.4297348015619127e-02 7.0629616767121598e-03  8.1374751491418518e-01 2.4565133435748572e-02 6.5450858461111542e-03  9.2400553222379300e-01 2.4179254547373918e-02 6.6706463294930072e-03  1.0000000000000000e+00 0.0000000000000000e+00 0.0000000000000000e+00  0.0000000000000000e+00 0.0000000000000000e+00 0.0000000000000000e+00  7.4968713690596253e-02 1.8949255066983615e-02 9.6653188018076229e-03  1.8517341772961271e-01 1.6908233122675337e-02 5.8146213509532437e-03  2.8980574550704791e-01 1.6386153130502557e-02 6.1689419578764048e-03  3.9498868860511088e-01 1.6307194590440784e-02 6.2840173997284398e-03  5.0000939293869640e-01 1.6327704531356197e-02 6.5337505182441972e-03  6.0498182214831797e-01 1.6340309405357904e-02 6.7521770782959407e-03  7.1004058087556599e-01 1.6183829027625989e-02 7.02