<?xml version="1.0"?>
<VTKFile type="UnstructuredGrid"  version="0.1"  >
<UnstructuredGrid>
<Piece  NumberOfPoints="396" NumberOfCells="1500">
<Points>
<DataArray  type="Float64"  NumberOfComponents="3"  format="ascii">5 0 0  6 0 0  6 0.3 0  6 0.3 0.05  6 0 0.05  5 0 0.05  5 0.3 0  5 0.3 0.05  7 0 0  7 0.3 0  7 0.3 0.05  7 0 0.05  8 0 0  8 0.3 0  8 0.3 0.05  8 0 0.05  9 0 0  9 0.3 0  9 0.3 0.05  9 0 0.05  10 0 0  10 0.3 0  10 0.3 0.05  10 0 0.05  6 0.6 0  6 0.6 0.05  5 0.6 0  5 0.6 0.05  7 0.6 0  7 0.6 0.05  8 0.6 0  8 0.6 0.05  9 0.6 0  9 0.6 0.05  10 0.6 0  10 0.6 0.05  6 0.9 0  6 0.9 0.05  5 0.9 0  5 0.9 0.05  7 0.9 0  7 0.9 0.05  8 0.9 0  8 0.9 0.05  9 0.9 0  9 0.9 0.05  10 0.9 0  10 0.9 0.05  6 1.2 0  6 1.2 0.05  5 1.2 0  5 1.2 0.05  7 1.2 0  7 1.2 0.05  8 1.2 0  8 1.2 0.05  9 1.2 0  9 1.2 0.05  10 1.2 0  10 1.2 0.05  6 1.5 0  6 1.5 0.05  5 1.5 0  5 1.5 0.05  7 1.5 0  7 1.5 0.05  8 1.5 0  8 1.5 0.05  9 1.5 0  9 1.5 0.05  10 1.5 0  10 1.5 0.05  6 1.8 0  6 1.8 0.05  5 1.8 0  5 1.8 0.05  7 1.8 0  7 1.8 0.05  8 1.8 0  8 1.8 0.05  9 1.8 0  9 1.8 0.05  10 1.8 0  10 1.8 0.05  6 2.1 0  6 2.1 0.05  5 2.1 0  5 2.1 0.05  7 2.1 0  7 2.1 0.05  8 2.1 0  8 2.1 0.05  9 2.1 0  9 2.1 0.05  10 2.1 0  10 2.1 0.05  6 2.4 0  6 2.4 0.05  5 2.4 0  5 2.4 0.05  7 2.4 0  7 2.4 0.05  8 2.4 0  8 2.4 0.05  9 2.4 0  9 2.4 0.05  10 2.4 0  10 2.4 0.05  6 2.7 0  6 2.7 0.05  5 2.7 0  5 2.7 0.05  7 2.7 0  7 2.7 0.05  8 2.7 0  8 2.7 0.05  9 2.7 0  9 2.7 0.05  10 2.7 0  10 2.7 0.05  6 3 0  6 3 0.05  5 3 0  5 3 0.05  7 3 0  7 3 0.05  8 3 0  8 3 0.05  9 3 0  9 3 0.05  10 3 0  10 3 0.05  6 0.3 0.1  6 0 0.1  5 0 0.1  5 0.3 0.1  7 0.3 0.1  7 0 0.1  8 0.3 0.1  8 0 0.1  9 0.3 0.1  9 0 0.1  10 0.3 0.1  10 0 0.1  6 0.6 0.1  5 0.6 0.1  7 0.6 0.1  8 0.6 0.1  9 0.6 0.1  10 0.6 0.1  6 0.9 0.1  5 0.9 0.1  7 0.9 0.1  8 0.9 0.1  9 0.9 0.1  10 0.9 0.1  6 1.2 0.1  5 1.2 0.1  7 1.2 0.1  8 1.2 0.1  9 1.2 0.1  10 1.2 0.1  6 1.5 0.1  5 1.5 0.1  7 1.5 0.1  8 1.5 0.1  9 1.5 0.1  10 1.5 0.1  6 1.8 0.1  5 1.8 0.1  7 1.8 0.1  8 1.8 0.1  9 1.8 0.1  10 1.8 0.1  6 2.1 0.1  5 2.1 0.1  7 2.1 0.1  8 2.1 0.1  9 2.1 0.1  10 2.1 0.1  6 2.4 0.1  5 2.4 0.1  7 2.4 0.1  8 2.4 0.1  9 2.4 0.1  10 2.4 0.1  6 2.7 0.1  5 2.7 0.1  7 2.7 0.1  8 2.7 0.1  9 2.7 0.1  10 2.7 0.1  6 3 0.1  5 3 0.1  7 3 0.1  8 3 0.1  9 3 0.1  10 3 0.1  6 0.3 0.15  6 0 0.15  5 0 0.15  5 0.3 0.15  7 0.3 0.15  7 0 0.15  8 0.3 0.15  8 0 0.15  9 0.3 0.15  9 0 0.15  10 0.3 0.15  10 0 0.15  6 0.6 0.15  5 0.6 0.15  7 0.6 0.15  8 0.6 0.15  9 0.6 0.15  10 0.6 0.15  6 0.9 0.15  5 0.9 0.15  7 0.9 0.15  8 0.9 0.15  9 0.9 0.15  10 0.9 0.15  6 1.2 0.15  5 1.2 0.15  7 1.2 0.15  8 1.2 0.15  9 1.2 0.15  10 1.2 0.15  6 1.5 0.15  5 1.5 0.15  7 1.5 0.15  8 1.5 0.15  9 1.5 0.15  10 1.5 0.15  6 1.8 0.15  5 1.8 0.15  7 1.8 0.15  8 1.8 0.15  9 1.8 0.15  10 1.8 0.15  6 2.1 0.15  5 2.1 0.15  7 2.1 0.15  8 2.1 0.15  9 2.1 0.15  10 2.1 0.15  6 2.4 0.15  5 2.4 0.15  7 2.4 0.15  8 2.4 0.15  9 2.4 0.15  10 2.4 0.15  6 2.7 0.15  5 2.7 0.15  7 2.7 0.15  8 2.7 0.15  9 2.7 0.15  10 2.7 0.15  6 3 0.15  5 3 0.15  7 3 0.15  8 3 0.15  9 3 0.15  10 3 0.15  6 0.3 0.2  6 0 0.2  5 0 0.2  5 0.3 0.2  7 0.3 0.2  7 0 0.2  8 0.3 0.2  8 0 0.2  9 0.3 0.2  9 0 0.2  10 0.3 0.2  10 0 0.2  6 0.6 0.2  5 0.6 0.2  7 0.6 0.2  8 0.6 0.2  9 0.6 0.2  10 0.6 0.2  6 0.9 0.2  5 0.9 0.2  7 0.9 0.2  8 0.9 0.2  9 0.9 0.2  10 0.9 0.2  6 1.2 0.2  5 1.2 0.2  7 1.2 0.2  8 1.2 0.2  9 1.2 0.2  10 1.2 0.2  6 1.5 0.2  5 1.5 0.2  7 1.5 0.2  8 1.5 0.2  9 1.5 0.2  10 1.5 0.2  6 1.8 0.2  5 1.8 0.2  7 1.8 0.2  8 1.8 0.2  9 1.8 0.2  10 1.8 0.2  6 2.1 0.2  5 2.1 0.2  7 2.1 0.2  8 2.1 0.2  9 2.1 0.2  10 2.1 0.2  6 2.4 0.2  5 2.4 0.2  7 2.4 0.2  8 2.4 0.2  9 2.4 0.2  10 2.4 0.2  6 2.7 0.2  5 2.7 0.2  7 2.7 0.2  8 2.7 0.2  9 2.7 0.2  10 2.7 0.2  6 3 0.2  5 3 0.2  7 3 0.2  8 3 0.2  9 3 0.2  10 3 0.2  6 0.3 0.25  6 0 0.25  5 0 0.25  5 0.3 0.25  7 0.3 0.25  7 0 0.25  8 0.3 0.25  8 0 0.25  9 0.3 0.25  9 0 0.25  10 0.3 0.25  10 0 0.25  6 0.6 0.25  5 0.6 0.25  7 0.6 0.25  8 0.6 0.25  9 0.6 0.25  10 0.6 0.25  6 0.9 0.25  5 0.9 0.25  7 0.9 0.25  8 0.9 0.25  9 0.9 0.25  10 0.9 0.25  6 1.2 0.25  5 1.2 0.25  7 1.2 0.25  8 1.2 0.25  9 1.2 0.25  10 1.2 0.25  6 1.5 0.25  5 1.5 0.25  7 1.5 0.25  8 1.5 0.25  9 1.5 0.25  10 1.5 0.25  6 1.8 0.25  5 1.8 0.25  7 1.8 0.25  8 1.8 0.25  9 1.8 0.25  10 1.8 0.25  6 2.1 0.25  5 2.1 0.25  7 2.1 0.25  8 2.1 0.25  9 2.1 0.25  10 2.1 0.25  6 2.4 0.25  5 2.4 0.25  7 2.4 0.25  8 2.4 0.25  9 2.4 0.25  10 2.4 0.25  6 2.7 0.25  5 2.7 0.25  7 2.7 0.25  8 2.7 0.25  9 2.7 0.25  10 2.7 0.25  6 3 0.25  5 3 0.25  7 3 0.25  8 3 0.25  9 3 0.25  10 3 0.25  </DataArray>
</Points>
<Cells>
<DataArray  type="UInt32"  Name="connectivity"  format="ascii">0 1 2 3  0 1 4 3  0 5 4 3  0 6 2 3  0 5 7 3  0 6 7 3  1 8 9 10  1 8 11 10  1 4 11 10  1 2 9 10  1 4 3 10  1 2 3 10  8 12 13 14  8 12 15 14  8 11 15 14  8 9 13 14  8 11 10 14  8 9 10 14  12 16 17 18  12 16 19 18  12 15 19 18  12 13 17 18  12 15 14 18  12 13 14 18  16 20 21 22  16 20 23 22  16 19 23 22  16 17 21 22  16 19 18 22  16 17 18 22  6 2 24 25  6 2 3 25  6 7 3 25  6 26 24 25  6 7 27 25  6 26 27 25  2 9 28 29  2 9 10 29  2 3 10 29  2 24 28 29  2 3 25 29  2 24 25 29  9 13 30 31  9 13 14 31  9 10 14 31  9 28 30 31  9 10 29 31  9 28 29 31  13 17 32 33  13 17 18 33  13 14 18 33  13 30 32 33  13 14 31 33  13 30 31 33  17 21 34 35  17 21 22 35  17 18 22 35  17 32 34 35  17 18 33 35  17 32 33 35  26 24 36 37  26 24 25 37  26 27 25 37  26 38 36 37  26 27 39 37  26 38 39 37  24 28 40 41  24 28 29 41  24 25 29 41  24 36 40 41  24 25 37 41  24 36 37 41  28 30 42 43  28 30 31 43  28 29 31 43  28 40 42 43  28 29 41 43  28 40 41 43  30 32 44 45  30 32 33 45  30 31 33 45  30 42 44 45  30 31 43 45  30 42 43 45  32 34 46 47  32 34 35 47  32 33 35 47  32 44 46 47  32 33 45 47  32 44 45 47  38 36 48 49  38 36 37 49  38 39 37 49  38 50 48 49  38 39 51 49  38 50 51 49  36 40 52 53  36 40 41 53  36 37 41 53  36 48 52 53  36 37 49 53  36 48 49 53  40 42 54 55  40 42 43 55  40 41 43 55  40 52 54 55  40 41 53 55  40 52 53 55  42 44 56 57  42 44 45 57  42 43 45 57  42 54 56 57  42 43 55 57  42 54 55 57  44 46 58 59  44 46 47 59  44 45 47 59  44 56 58 59  44 45 57 59  44 56 57 59  50 48 60 61  50 48 49 61  50 51 49 61  50 62 60 61  50 51 63 61  50 62 63 61  48 52 64 65  48 52 53 65  48 49 53 65  48 60 64 65  48 49 61 65  48 60 61 65  52 54 66 67  52 54 55 67  52 53 55 67  52 64 66 67  52 53 65 67  52 64 65 67  54 56 68 69  54 56 57 69  54 55 57 69  54 66 68 69  54 55 67 69  54 66 67 69  56 58 70 71  56 58 59 71  56 57 59 71  56 68 70 71  56 57 69 71  56 68 69 71  62 60 72 73  62 60 61 73  62 63 61 73  62 74 72 73  62 63 75 73  62 74 75 73  60 64 76 77  60 64 65 77  60 61 65 77  60 72 76 77  60 61 73 77  60 72 73 77  64 66 78 79  64 66 67 79  64 65 67 79  64 76 78 79  64 65 77 79  64 76 77 79  66 68 80 81  66 68 69 81  66 67 69 81  66 78 80 81  66 67 79 81  66 78 79 81  68 70 82 83  68 70 71 83  68 69 71 83  68 80 82 83  68 69 81 83  68 80 81 83  74 72 84 85  74 72 73 85  74 75 73 85  74 86 84 85  74 75 87 85  74 86 87 85  72 76 88 89  72 76 77 89  72 73 77 89  72 84 88 89  72 73 85 89  72 84 85 89  76 78 90 91  76 78 79 91  76 77 79 91  76 88 90 91  76 77 89 91  76 88 89 91  78 80 92 93  78 80 81 93  78 79 81 93  78 90 92 93  78 79 91 93  78 90 91 93  80 82 94 95  80 82 83 95  80 81 83 95  80 92 94 95  80 81 93 95  80 92 93 95  86 84 96 97  86 84 85 97  86 87 85 97  86 98 96 97  86 87 99 97  86 98 99 97  84 88 100 101  84 88 89 101  84 85 89 101  84 96 100 101  84 85 97 101  84 96 97 101  88 90 102 103  88 90 91 103  88 89 91 103  88 100 102 103  88 89 101 103  88 100 101 103  90 92 104 105  90 92 93 105  90 91 93 105  90 102 104 105  90 91 103 105  90 102 103 105  92 94 106 107  92 94 95 107  92 93 95 107  92 104 106 107  92 93 105 107  92 104 105 107  98 96 108 109  98 96 97 109  98 99 97 109  98 110 108 109  98 99 111 109  98 110 111 109  96 100 112 113  96 100 101 113  96 97 101 113  96 108 112 113  96 97 109 113  96 108 109 113  100 102 114 115  100 102 103 115  100 101 103 115  100 112 114 115  100 101 113 115  100 112 113 115  102 104 116 117  102 104 105 117  102 103 105 117  102 114 116 117  102 103 115 117  102 114 115 117  104 106 118 119  104 106 107 119  104 105 107 119  104 116 118 119  104 105 117 119  104 116 117 119  110 108 120 121  110 108 109 121  110 111 109 121  110 122 120 121  110 111 123 121  110 122 123 121  108 112 124 125  108 112 113 125  108 109 113 125  108 120 124 125  108 109 121 125  108 120 121 125  112 114 126 127  112 114 115 127  112 113 115 127  112 124 126 127  112 113 125 127  112 124 125 127  114 116 128 129  114 116 117 129  114 115 117 129  114 126 128 129  114 115 127 129  114 126 127 129  116 118 130 131  116 118 119 131  116 117 119 131  116 128 130 131  116 117 129 131  116 128 129 131  5 4 3 132  5 4 133 132  5 134 133 132  5 7 3 132  5 134 135 132  5 7 135 132  4 11 10 136  4 11 137 136  4 133 137 136  4 3 10 136  4 133 132 136  4 3 132 136  11 15 14 138  11 15 139 138  11 137 139 138  11 10 14 138  11 137 136 138  11 10 136 138  15 19 18 140  15 19 141 140  15 139 141 140  15 14 18 140  15 139 138 140  15 14 138 140  19 23 22 142  19 23 143 142  19 141 143 142  19 18 22 142  19 141 140 142  19 18 140 142  7 3 25 144  7 3 132 144  7 135 132 144  7 27 25 144  7 135 145 144  7 27 145 144  3 10 29 146  3 10 136 146  3 132 136 146  3 25 29 146  3 132 144 146  3 25 144 146  10 14 31 147  10 14 138 147  10 136 138 147  10 29 31 147  10 136 146 147  10 29 146 147  14 18 33 148  14 18 140 148  14 138 140 148  14 31 33 148  14 138 147 148  14 31 147 148  18 22 35 149  18 22 142 149  18 140 142 149  18 33 35 149  18 140 148 149  18 33 148 149  27 25 37 150  27 25 144 150  27 145 144 150  27 39 37 150  27 145 151 150  27 39 151 150  25 29 41 152  25 29 146 152  25 144 146 152  25 37 41 152  25 144 150 152  25 37 150 152  29 31 43 153  29 31 147 153  29 146 147 153  29 41 43 153  29 146 152 153  29 41 152 153  31 33 45 154  31 33 148 154  31 147 148 154  31 43 45 154  31 147 153 154  31 43 153 154  33 35 47 155  33 35 149 155  
[...]
<PointData  Vectors="f_16"> 
<DataArray  type="Float64"  Name="f_16"  NumberOfComponents="3" format="ascii">2.4383816108256731e-01 3.4334109657568980e-02 5.8620494724443955e-03  2.9508280588611419e-01 3.4291279695176993e-02 5.8615401194661116e-03  2.9509186389147257e-01 2.7472889257848587e-02 5.8473575821512223e-03  2.9509186933115333e-01 2.7475245697062518e-02 4.7110106780824529e-03  2.9508281081563920e-01 3.4293639213544058e-02 4.7250853096402886e-03  2.4383816096740374e-01 3.4336541433910038e-02 4.7252679379200264e-03  2.4385624884467766e-01 2.7514256317003206e-02 5.8474414645011035e-03  2.4385615246775436e-01 2.7516651607615020e-02 4.7109890128293492e-03  3.4631653233274939e-01 3.4267836298863236e-02 5.8615118433623789e-03  3.4632208001414255e-01 2.7450108361787660e-02 5.8472785536939085e-03  3.4632208331768294e-01 2.7452477682759914e-02 4.7110188717479559e-03  3.4631653014899366e-01 3.4270203983720098e-02 4.7251982152463701e-03  3.9754571784756348e-01 3.4252742666294328e-02 5.8615557730522837e-03  3.9754914821891213e-01 2.7435289147792329e-02 5.8472685949331254e-03  3.9754914948051462e-01 2.7437667657298073e-02 4.7110494879157175e-03  3.9754571654555476e-01 3.4255120331821765e-02 4.7252952748395201e-03  4.4877317756271828e-01 3.4243975971403690e-02 5.8615688208699069e-03  4.4877484387971139e-01 2.7426636758918439e-02 5.8472567076694052e-03  4.4877484457532391e-01 2.7429019275606384e-02 4.7110552522002525e-03  4.4877317731898503e-01 3.4246358115742524e-02 4.7253291583612880e-03  5.0000000000000000e-01 3.4241094408382668e-02 5.8615660778175696e-03  5.0000000000000000e-01 2.7423788423033377e-02 5.8472496971350395e-03  5.0000000000000000e-01 2.7426171663120360e-02 4.7110534118555416e-03  5.0000000000000000e-01 3.4243477288467272e-02 4.7253324836048763e-03  2.9510204054217759e-01 2.0655079786487292e-02 5.8331601775662607e-03  2.9510204895765629e-01 2.0657445323692115e-02 4.6969197133524257e-03  2.4387366091311360e-01 2.0695230496308701e-02 5.8332112142001008e-03  2.4387351807686788e-01 2.0697563969891503e-02 4.6970263047881296e-03  3.4632820869906239e-01 2.0632742227812972e-02 5.8330413266020134e-03  3.4632821338500464e-01 2.0635115789870144e-02 4.6968371905333102e-03  3.9755283380776207e-01 2.0618085376017892e-02 5.8329766778372743e-03  3.9755283667043534e-01 2.0620465943279671e-02 4.6968007161026651e-03  4.4877661433478344e-01 2.0609512605881328e-02 5.8329412749926566e-03  4.4877661557433879e-01 2.0611896100438353e-02 4.6967790951616900e-03  5.0000000000000000e-01 2.0606690923507077e-02 5.8329301175655381e-03  5.0000000000000000e-01 2.0609074935336810e-02 4.6967720080997128e-03  2.9511256916728301e-01 1.3837919400098613e-02 5.8188867133416936e-03  2.9511258172864857e-01 1.3840295789161324e-02 4.6827438913252155e-03  2.4388920498191022e-01 1.3876040125406290e-02 5.8191323179185590e-03  2.4388906274185151e-01 1.3878359573988535e-02 4.6831692346139143e-03  3.4633467595224415e-01 1.3815810070875964e-02 5.8187717002620796e-03  3.4633468016152869e-01 1.3818189502840214e-02 4.6826245941302899e-03  3.9755670946489535e-01 1.3801161413959498e-02 5.8186677151498460e-03  3.9755671330822839e-01 1.3803545209347642e-02 4.6825362218269476e-03  4.4877846711239283e-01 1.3792623945893773e-02 5.8186183146739442e-03  4.4877846859716941e-01 1.3795008906518826e-02 4.6824962206938004e-03  5.0000000000000000e-01 1.3789819979535880e-02 5.8186048664826606e-03  5.0000000000000000e-01 1.3792205023483172e-02 4.6824855960594051e-03  2.9512283801777295e-01 7.0214370287668181e-03 5.8045508552079482e-03  2.9512285342794997e-01 7.0238243776092300e-03 4.6684928740555222e-03  2.4390323484400600e-01 7.0562178809340497e-03 5.8049798866653670e-03  2.4390311455274624e-01 7.0585566251810958e-03 4.6691585652269491e-03  3.4634124078230610e-01 6.9993110534519662e-03 5.8044558261601802e-03  3.4634124417460688e-01 7.0016984565406020e-03 4.6683652078956710e-03  3.9756069975977004e-01 6.9845332718715143e-03 5.8043356923496497e-03  3.9756070372946900e-01 6.9869211251072701e-03 4.6682493072085522e-03  4.4878037757447381e-01 6.9759866799498933e-03 5.8042850688562854e-03  4.4878037894601214e-01 6.9783734242597883e-03 4.6682036702036219e-03  5.0000000000000000e-01 6.9731901477782720e-03 5.8042723618267891e-03  5.0000000000000000e-01 6.9755763784928732e-03 4.6681924591467448e-03  2.9513244782031850e-01 2.0553861544877838e-04 5.7901280799014191e-03  2.9513246694464379e-01 2.0793856535973615e-04 4.6541416487211867e-03  2.4391630169236084e-01 2.3644671371828813e-04 5.7907021235161938e-03  2.4391618356594985e-01 2.3882408881882374e-04 4.6549600527783491e-03  3.4634771648500456e-01 1.8319840598831315e-04 5.7900842395727558e-03  3.4634771805210707e-01 1.8559496025176219e-04 4.6540470661258033e-03  3.9756473116460739e-01 1.6820356072408654e-04 5.7899772482549001e-03  3.9756473420242916e-01 1.7059574184022887e-04 4.6539360841489552e-03  4.4878231890554704e-01 1.5960981872670946e-04 5.7899401353812456e-03  4.4878231979291033e-01 1.6199841657109479e-04 4.6538997626933559e-03  5.0000000000000000e-01 1.5681096892777684e-04 5.7899322017385966e-03  5.0000000000000000e-01 1.5919837664718503e-04 4.6538919421892826e-03  2.9514121369931368e-01 -6.6099485446711572e-03 5.7756165483272212e-03  2.9514123408319815e-01 -6.6075352012145280e-03 4.6396845753644425e-03  2.4392846698431170e-01 -6.5824264233524188e-03 5.7761140130717170e-03  2.4392834970134225e-01 -6.5800061457389073e-03 4.6404106766226331e-03  3.4635398532720796e-01 -6.6325854911834809e-03 5.7756546600086370e-03  3.4635398316603766e-01 -6.6301797825693990e-03 4.6396671771545134e-03  3.9756874208929172e-01 -6.6478375945831286e-03 5.7755916252122215e-03  3.9756874326890523e-01 -6.6454413995157332e-03 4.6395955420908920e-03  4.4878426478402794e-01 -6.6565038734449590e-03 5.7755839352590333e-03  4.4878426482141104e-01 -6.6541136449769873e-03 4.6395846444842754e-03  5.0000000000000000e-01 -6.6593130535417674e-03 5.7755851044686661e-03  5.0000000000000000e-01 -6.6569246781481633e-03 4.6395845233470926e-03  2.9514910781742709e-01 -1.3425155850490304e-02 5.7610354483492625e-03  2.9514912124073683e-01 -1.3422729998466054e-02 4.6251394126672540e-03  2.4393933836690757e-01 -1.3400074266296564e-02 5.7612490415096139e-03  2.4393921977453162e-01 -1.3397622448892699e-02 4.6255454531451612e-03  3.4636000027367575e-01 -1.3448105221442070e-02 5.7611672407652048e-03  3.4635999309128768e-01 -1.3445691497003620e-02 4.6252265352359099e-03  3.9757268749513514e-01 -1.3463607119079122e-02 5.7611821546386917e-03  3.9757268599553586e-01 -1.3461207803183647e-02 4.6252308557277058e-03  4.4878619003835690e-01 -1.3472356687378432e-02 5.7612188065564772e-03  4.4878618889530747e-01 -1.3469965329414857e-02 4.6252604108065580e-03  5.0000000000000000e-01 -1.3475182913724565e-02 5.7612329948944349e-03  5.0000000000000000e-01 -1.3472793971566163e-02 4.6252718943981287e-03  2.9515622588022511e-01 -2.0240204000291948e-02 5.7463889577251412e-03  2.9515622708506456e-01 -2.0237765639079655e-02 4.6105131234227808e-03  2.4394829936989837e-01 -2.0216424064933156e-02 5.7463418718954901e-03  2.4394814977000925e-01 -2.0213982272571863e-02 4.6105859112136310e-03  3.4636578822621450e-01 -2.0263423830845867e-02 5.7466297908274839e-03  3.4636577541924213e-01 -2.0261004570712803e-02 4.6107346939403705e-03  3.9757653563346812e-01 -2.0279119718597992e-02 5.7467562702239790e-03  3.9757653070284960e-01 -2.0276718616133518e-02 4.6108494125448526e-03  4.4878807019486855e-01 -2.0287955615879479e-02 5.7468485936754826e-03  4.4878806765461959e-01 -2.0285563847856136e-02 4.6109307090107287e-03  5.0000000000000000e-01 -2.0290805420632909e-02 5.7468789109801841e-03  5.0000000000000000e-01 -2.0288416461970365e-02 4.6109568612708006e-03  2.9516291900384317e-01 -2.7055283853078163e-02 5.7316447127577427e-03  2.9516291188083321e-01 -2.7052831551780530e-02 4.5957844167574405e-03  2.4395443313829521e-01 -2.7031533910026894e-02 5.7318144537441117e-03  2.4395422196677211e-01 -2.7029173254358677e-02 4.5959001735885211e-03  3.4637142542063465e-01 -2.7078563768521437e-02 5.7320652324113338e-03  3.4637140594164312e-01 -2.7076142774169216e-02 4.5962161117162450e-03  3.9758025881529840e-01 -2.7094384460833103e-02 5.7323234779194871e-03  3.9758025011619808e-01 -2.7091982959286956e-02 4.5964608888040739e-03  4.4878988007021292e-01 -2.7103312738319455e-02 5.7324784791750634e-03  4.4878987605539816e-01 -2.7100921334676994e-02 4.5966005570329269e-03  5.0000000000000000e-01 -2.7106193423395562e-02 5.7325267423384077e-03  5.0000000000000000e-01 -2.7103805053591678e-02 4.5966430807711720e-03  2.9516976411248097e-01 -3.3870493772423217e-02 5.7168037641520016e-03  2.9516975484560015e-01 -3.3868052442972404e-02 4.5809601106835598e-03  2.4395821429002396e-01 -3.3846073522570227e-02 5.7183729203389051e-03  2.4395791222342797e-01 -3.3843986071591489e-02 4.5820914369049271e-03  3.4637695604940155e-01 -3.3893485487790191e-02 5.7175147826287733e-03  3.4637693014740661e-01 -3.3891067069689390e-02 4.5817120517537974e-03  3.9758381446264923e-01 -3.3909410152883977e-02 5.7178916133745596e-03  3.9758380324057202e-01 -3.3907008672004524e-02 4.5820737022965238e-03  4.4879158945381165e-01 -3.3918446481151575e-02 5.7181129237927255e-03  4.4879158396555896e-01 -3.3916055722810416e-02 4.5822745451187773e-03  5.0000000000000000e-01 -3.3921366774814096e-02 5.7181801054648059e-03  5.0000000000000000e-01 -3.3918979468208078e-02 4.5823341255694502e-03  2.9509187246564694e-01 2.7477585656317471e-02 3.5746645592452881e-03  2.9508281486599502e-01 3.4295976187560140e-02 3.5886313413919656e-03  2.4383816538127331e-01 3.4338898478330812e-02 3.5884864343375374e-03  2.4385610266320545e-01 2.7518981031747949e-02 3.5745474605820625e-03  3.4632208262023223e-01 2.7454837984990141e-02 3.5747586582303612e-03  3.4631652762971371e-01 3.4272562137793179e-02 3.5888846169926845e-03  3.9754914891803500e-01 2.7440039283891455e-02 3.5748301172602724e-03  3.9754571494598956e-01 3.4257491196440677e-02 3.5890346991102459e-03  4.4877484458494077e-01 2.7431395426992872e-02 3.5748536945424216e-03  4.4877317693064617e-01 3.4248733958281506e-02 3.5890894588489807e-03  5.0000000000000000e-01 2.7428548670822957e-02 3.5748570673444805e-03  5.0000000000000000e-01 3.4245853958600046e-02 3.5890989061360934e-03  2.9510205856476679e-01 2.0659794625841645e-02 3.5606795983155496e-03  2.4387343689436775e-01 2.0699857906936840e-02 3.5608353892133313e-03  3.4632821496711680e-01 2.0637479810356511e-02 3.5606321908154587e-03  3.9755283774229422e-01 2.0622839246833530e-02 3.5606242964348403e-03  4.4877661611032604e-01 2.0614273046870753e-02 3.5606167481074084e-03  5.0000000000000000e-01 2.0611452567430886e-02 3.5606137819592871e-03  2.9511259814191926e-01 1.3842658082746012e-02 3.5466038758871356e-03  2.4388897256731917e-01 1.3880663296600333e-02 3.5471843494549586e-03  3.4633468297843023e-01 1.3820559521422013e-02 3.5464762884850399e-03  3.9755671576421642e-01 1.3805921565037125e-02 3.5464042641319407e-03  4.4877846950779637e-01 1.3797387164645691e-02 3.5463739275381667e-03  5.0000000000000000e-01 1.3794583591819497e-02 3.5463661919139557e-03  2.9512287396868453e-01 7.0262013512851921e-03 3.5324385629567703e-03  2.4390302986880880e-01 7.0608996018722281e-03 3.5333085570840544e-03  3.4634124727103494e-01 7.0040770486257606e-03 3.5322730645292056e-03  3.9756070680017619e-01 6.9893013588414763e-03 3.5321624777173836e-03  4.4878037991923203e-01 6.9807533238726615e-03 3.5321220444351456e-03  5.0000000000000000e-01 6.9779560504232832e-03 3.5321124169369581e-03  2.9513248967676342e-01 2.1033357934816142e-04 3.5181601614813012e-03  2.4391609036655298e-01 2.4121921446095831e-04 3.5191824534413084e-03  3.4634771997448044e-01 1.8798335884279889e-04 3.5180082262699767e-03  3.9756473683696048e-01 1.7298013921477563e-04 3.5178945062212300e-03  4.4878232046657263e-01 1.6438005498734063e-04 3.5178591537804739e-03  5.0000000000000000e-01 1.6157915967219183e-04 3.5178515461231383e-03  2.9514125551173009e-01 -6.6051215976176379e-03 3.5037585206276300e-03  2.4392824705123978e-01 -6.5775532538905213e-03 3.5046752843815856e-03  3.4635398190613559e-01 -6.6277816438946729e-03 3.5036779657934350e-03  3.9756874445287904e-01 -6.6430530740969346e-03 3.5035991335922345e-03  4.4878426482157363e-01 -6.6517304479677295e-03 3.5035851288110348e-03  5.0000000000000000e-01 -6.6545429575246657e-03 3.5035838181508672e-03  2.9514913467756482e-01 -1.3420300216943667e-02 3.4892489547684123e-03  2.4393910844354774e-01 -1.3395125505993366e-02 3.4898195108414467e-03  3.4635998712736316e-01 -1.3443284865858588e-02 3.4892843671406222e-03  3.9757268480030589e-01 -1.3458816379133492e-02 3.4892793612435972e-03  4.4878618787500452e-01 -1.3467581017565905e-02 3.4893018144035517e-03  5.0000000000000000e-01 -1.3470411661529860e-02 3.4893106919334665e-03  2.9515622867448088e-01 -2.0235321917105253e-02 3.4746419767910579e-03  2.4394801188284118e-01 -2.0211483483450730e-02 3.4748155781922077e-03  3.4636576388103751e-01 -2.0258592130223099e-02 3.4748387876330903e-03  3.9757652632601559e-01 -2.0274325376780769e-02 3.4749424611344951e-03  4.4878806537056404e-01 -2.0283179063858372e-02 3.4750126606124631e-03  5.0000000000000000e-01 -2.0286034046140128e-02 3.4750347367771888e-03  2.9516290636495890e-01 -2.7050374996330815e-02 3.4599286530814545e-03  2.4395404013915956e-01 -2.7026746710974076e-02 3.4599829545810612e-03  3.4637138806261558e-01 -2.7073728617530955e-02 3.4603669834533312e-03  3.9758024227706973e-01 -2.7089589192784057e-02 3.4605981800647991e-03  4.4878987243509899e-01 -2.7098536747968957e-02 3.4607224869260614e-03  5.0000000000000000e-01 -2.7101423064136324e-02 3.4607593671704294e-03  2.9516974788721734e-01 -3.3865588401075460e-02 3.4451440480190217e-03  2.4395771787223081e-01 -3.3841689404929307e-02 3.4457611175377685e-03  3.4637691019982675e-01 -3.3888653056127802e-02 3.4459081547348861e-03  3.9758379403476518e-01 -3.3904615164898094e-02 3.4462556747128612e-03  4.4879157956793708e-01 -3.3913671821443024e-02 3.4464358935899840e-03  5.0000000000000000e-01 -3.3916598319282197e-02 3.4464880653235284e-03  2.9509187079170984e-01 2.7479909735358406e-02 2.4383180153820672e-03  2.9508281550855581e-01 3.4298295088317353e-02 2.4521776350159932e-03  2.4383817788202705e-01 3.4341184735925685e-02 2.4517076869645044e-03  2.4385608163474837e-01 2.7521258822545358e-02 2.4381070441774019e-03  3.4632207851618579e-01 2.7457189470138126e-02 2.4384979294008267e-03  3.4631652338169983e-01 3.4274911989637322e-02 2.4525708591317638e-03  3.9754914682812270e-01 2.7442404021271700e-02 2.4386105393366954e-03  3.9754571253243093e-01 3.4259855486208857e-02 2.4527739905223413e-03  4.4877484400536033e-01 2.7433765178508793e-02 2.4386520491842183e-03  4.4877317620889279e-01 3.4251103553687011e-02 2.4528497034743105e-03  5.0000000000000000e-01 2.7430919449964005e-02 2.4386606807485396e-03  5.0000000000000000e-01 3.4248224511009791e-02 2.4528652931610239e-03  2.9510206590000959e-01 2.0662127807583100e-02 2.4244390663953888e-03  2.4387339544367218e-01 2.0702122445820311e-02 2.4246393891825114e-03  3.4632821395787300e-01 2.0639834701166680e-02 2.4244264341684329e-03  3.9755283741280628e-01 2.0625205429015421e-02 2.4244475430930312e-03  4.4877661609375580e-01 2.0616643445093376e-02 2.4244542572608991e-03  5.0000000000000000e-01 2.0613823841865529e-02 2.4244554673693822e-03  2.9511261559786012e-01 1.3845006106924773e-02 2.4104658977220084e-03  2.4388891937394980e-01 1.3882948415922266e-02 2.4111729667767126e-03  3.4633468461583350e-01 1.3822920453567106e-02 2.4103268368052362e-03  3.9755671712217938e-01 1.3808290569517049e-02 2.4102718869879617e-03  4.4877846997443777e-01 1.3799758742296216e-02 2.4102514582799873e-03  5.0000000000000000e-01 1.3796955686044863e-02 2.4102466785828414e-03  2.9512289824780114e-01 7.0285653796951977e-03 2.3963881312634816e-03  2.4390297705089475e-01 7.0632372681474478e-03 2.3974240567487706e-03  3.4634125018879441e-01 7.0064466887278642e-03 2.3961792237704544e-03  3.9756070912367003e-01 6.9916740718630604e-03 2.3960752138803589e-03  4.4878038058458714e-01 6.9831264286181437e-03 2.3960402148479670e-03  5.0000000000000000e-01 6.9803291575011792e-03 2.3960322516234913e-03  2.9513251668264040e-01 2.1271768373861696e-04 2.3821833329838900e-03  2.4391602940758028e-01 2.4361094777851020e-04 2.3833680699122516e-03  3.4634772240183997e-01 1.9036307299401934e-04 2.3819673348211882e-03  3.9756473909379042e-01 1.7535690136945159e-04 2.3818525311611518e-03  4.4878232097506227e-01 1.6675482498566672e-04 2.3818183297861129e-03  5.0000000000000000e-01 1.6395332286297262e-04 2.3818110254751178e-03  2.9514128034011033e-01 -6.6027164853857635e-03 2.3678368469303599e-03  2.4392817631496749e-01 -6.5751032561722012e-03 2.3689057721642771e-03  3.4635398168359838e-01 -6.6253920276758025e-03 2.3676866101028293e-03  3.9756874557294170e-01 -6.6406724435445798e-03 2.3676024041494647e-03  4.4878426480016725e-01 -6.6493541448314078e-03 2.3675854077717315e-03  5.0000000000000000e-01 -6.6521678699699794e-03 2.3675830000156033e-03  2.9514915078676790e-01 -1.3417876851036497e-02 2.3533621032561318e-03  2.4393902649219423e-01 -1.3392629384105358e-02 2.3540630232217787e-03  3.4635998243206045e-01 -1.3440886738910692e-02 2.3533402747924551e-03  3.9757268379007377e-01 -1.3456432650331049e-02 2.3533276358810662e-03  4.4878618697783812e-01 -1.3465203575660143e-02 2.3533430420441957e-03  5.0000000000000000e-01 -1.3468035950042539e-02 2.3533493984214835e-03  2.9515623213514264e-01 -2.0232883752799160e-02 2.3387737575731112e-03  2.4394790463456065e-01 -2.0208974299452773e-02 2.3390179348587504e-03  3.4636575349038040e-01 -2.0256188219932837e-02 2.3389413811787060e-03  3.9757652237623770e-01 -2.0271939772944052e-02 2.3390353577079550e-03  4.4878806335220367e-01 -2.0280801071087717e-02 2.3390944787279305e-03  5.0000000000000000e-01 -2.0283658140936960e-02 2.3391125467300501e-03  2.9516290137750262e-01 -2.7047927041447272e-02 2.3240772410026331e-03  2.4395389233253964e-01 -2.7024271845448807e-02 2.3240392676210052e-03  3.4637137141241814e-01 -2.7071322562567588e-02 2.3245166047336538e-03  3.9758023520718438e-01 -2.7087202986518594e-02 2.3247353664366454e-03  4.4878986924976388e-01 -2.7096158816184691e-02 2.3248442979420508e-03  5.0000000000000000e-01 -2.7099047439406217e-02 2.3248756086722156e-03  2.9516973886428943e-01 -3.3863133462623179e-02 2.3093330138513639e-03  2.4395760072259473e-01 -3.3839273939654309e-02 2.3093852055213414e-03  3.4637689388038473e-01 -3.3886246657805437e-02 2.3101026298509935e-03  3.9758378625383206e-01 -3.3902229533874999e-02 2.3104377197461297e-03  4.4879157602036240e-01 -3.3911294450779624e-02 2.3105971589704039e-03  5.0000000000000000e-01 -3.3914223327684768e-02 2.3106419555914580e-03  2.9509186360152717e-01 2.7482217521419904e-02 1.3019709640968420e-03  2.9508281134624209e-01 3.4300597599865847e-02 1.3157236982188800e-03  2.4383819853765978e-01 3.4343410602418335e-02 1.3149322150769853e-03  2.4385608027913258e-01 2.7523487392108369e-02 1.3016637471950469e-03  3.4632207131481513e-01 2.7459532046493446e-02 1.3022367853695357e-03  3.4631651670024688e-01 3.4277253740900279e-02 1.3162568731368630e-03  3.9754914333088237e-01 2.7444761808945967e-02 1.3023907682136551e-03  3.9754570903641934e-01 3.4262213157521211e-02 1.3165131365121330e-03  4.4877484287454766e-01 2.7436128512161685e-02 1.3024503199533324e-03  4.4877317505481679e-01 3.4253466884821941e-02 1.3166098870607155e-03  5.0000000000000000e-01 2.7433283975968649e-02 1.3024642517386511e-03  5.0000000000000000e-01 3.4250588939909954e-02 1.3166316334281998e-03  2.9510207069654243e-01 2.0664444317259511e-02 1.2881981990093834e-03  2.4387338402721070e-01 2.0704358978178170e-02 1.2884356370771017e-03  3.4632821081675602e-01 2.0642180348701040e-02 1.2882199182405170e-03  3.9755283588050244e-01 2.0627564435524697e-02 1.2882704726304534e-03  4.4877661559181042e-01 2.0619007277334483e-02 1.2882916277367842e-03  5.0000000000000000e-01 2.0616188739202863e-02 1.2882970679344798e-03  2.9511263354424433e-01 1.3847338