<?xml version="1.0"?>
<VTKFile type="UnstructuredGrid"  version="0.1"  >
<UnstructuredGrid>
<Piece  NumberOfPoints="395" NumberOfCells="1500">
<Points>
<DataArray  type="Float64"  NumberOfComponents="3"  format="ascii">0 0 0.15  0 0 0.2  1 0 0.2  1 0.3 0.2  0 0.3 0.2  1 0.3 0.25  1 0 0.25  0 0 0.25  0 0.3 0.25  2 0 0.2  2 0.3 0.2  2 0.3 0.25  2 0 0.25  3 0 0.2  3 0.3 0.2  3 0.3 0.25  3 0 0.25  4 0 0.2  4 0.3 0.2  4 0.3 0.25  4 0 0.25  5 0 0.2  5 0.3 0.2  5 0.3 0.25  5 0 0.25  1 0.6 0.2  1 0.6 0.25  0 0.6 0.2  0 0.6 0.25  2 0.6 0.2  2 0.6 0.25  3 0.6 0.2  3 0.6 0.25  4 0.6 0.2  4 0.6 0.25  5 0.6 0.2  5 0.6 0.25  1 0.9 0.2  1 0.9 0.25  0 0.9 0.2  0 0.9 0.25  2 0.9 0.2  2 0.9 0.25  3 0.9 0.2  3 0.9 0.25  4 0.9 0.2  4 0.9 0.25  5 0.9 0.2  5 0.9 0.25  1 1.2 0.2  1 1.2 0.25  0 1.2 0.2  0 1.2 0.25  2 1.2 0.2  2 1.2 0.25  3 1.2 0.2  3 1.2 0.25  4 1.2 0.2  4 1.2 0.25  5 1.2 0.2  5 1.2 0.25  1 1.5 0.25  0 1.5 0.25  0 1.5 0.2  2 1.5 0.25  3 1.5 0.25  4 1.5 0.25  5 1.5 0.25  1 1.8 0.25  0 1.8 0.25  1 0.3 0.3  1 0 0.3  0 0 0.3  0 0.3 0.3  2 0.3 0.3  2 0 0.3  3 0.3 0.3  3 0 0.3  4 0.3 0.3  4 0 0.3  5 0.3 0.3  5 0 0.3  1 0.6 0.3  0 0.6 0.3  2 0.6 0.3  3 0.6 0.3  4 0.6 0.3  5 0.6 0.3  1 0.9 0.3  0 0.9 0.3  2 0.9 0.3  3 0.9 0.3  4 0.9 0.3  5 0.9 0.3  1 1.2 0.3  0 1.2 0.3  2 1.2 0.3  3 1.2 0.3  4 1.2 0.3  5 1.2 0.3  1 1.5 0.3  0 1.5 0.3  2 1.5 0.3  3 1.5 0.3  4 1.5 0.3  5 1.5 0.3  1 1.8 0.3  0 1.8 0.3  2 1.8 0.3  3 1.8 0.3  4 1.8 0.3  5 1.8 0.3  1 2.1 0.3  0 2.1 0.3  2 2.1 0.3  1 0.3 0.35  1 0 0.35  0 0 0.35  0 0.3 0.35  2 0.3 0.35  2 0 0.35  3 0.3 0.35  3 0 0.35  4 0.3 0.35  4 0 0.35  5 0.3 0.35  5 0 0.35  1 0.6 0.35  0 0.6 0.35  2 0.6 0.35  3 0.6 0.35  4 0.6 0.35  5 0.6 0.35  1 0.9 0.35  0 0.9 0.35  2 0.9 0.35  3 0.9 0.35  4 0.9 0.35  5 0.9 0.35  1 1.2 0.35  0 1.2 0.35  2 1.2 0.35  3 1.2 0.35  4 1.2 0.35  5 1.2 0.35  1 1.5 0.35  0 1.5 0.35  2 1.5 0.35  3 1.5 0.35  4 1.5 0.35  5 1.5 0.35  1 1.8 0.35  0 1.8 0.35  2 1.8 0.35  3 1.8 0.35  4 1.8 0.35  5 1.8 0.35  1 2.1 0.35  0 2.1 0.35  2 2.1 0.35  3 2.1 0.3  3 2.1 0.35  4 2.1 0.3  4 2.1 0.35  5 2.1 0.3  5 2.1 0.35  1 2.4 0.3  1 2.4 0.35  0 2.4 0.3  0 2.4 0.35  2 2.4 0.3  2 2.4 0.35  3 2.4 0.3  3 2.4 0.35  4 2.4 0.3  4 2.4 0.35  5 2.4 0.3  5 2.4 0.35  1 2.7 0.3  1 2.7 0.35  0 2.7 0.3  0 2.7 0.35  2 2.7 0.3  2 2.7 0.35  3 2.7 0.3  3 2.7 0.35  4 2.7 0.3  4 2.7 0.35  5 2.7 0.35  1 3 0.3  1 3 0.35  0 3 0.3  0 3 0.35  2 3 0.35  3 3 0.35  4 3 0.35  5 3 0.35  1 0.3 0.4  1 0 0.4  0 0 0.4  0 0.3 0.4  2 0.3 0.4  2 0 0.4  3 0.3 0.4  3 0 0.4  4 0.3 0.4  4 0 0.4  5 0.3 0.4  5 0 0.4  1 0.6 0.4  0 0.6 0.4  2 0.6 0.4  3 0.6 0.4  4 0.6 0.4  5 0.6 0.4  1 0.9 0.4  0 0.9 0.4  2 0.9 0.4  3 0.9 0.4  4 0.9 0.4  5 0.9 0.4  1 1.2 0.4  0 1.2 0.4  2 1.2 0.4  3 1.2 0.4  4 1.2 0.4  5 1.2 0.4  1 1.5 0.4  0 1.5 0.4  2 1.5 0.4  3 1.5 0.4  4 1.5 0.4  5 1.5 0.4  1 1.8 0.4  0 1.8 0.4  2 1.8 0.4  3 1.8 0.4  4 1.8 0.4  5 1.8 0.4  1 2.1 0.4  0 2.1 0.4  2 2.1 0.4  3 2.1 0.4  4 2.1 0.4  5 2.1 0.4  1 2.4 0.4  0 2.4 0.4  2 2.4 0.4  3 2.4 0.4  4 2.4 0.4  5 2.4 0.4  1 2.7 0.4  0 2.7 0.4  2 2.7 0.4  3 2.7 0.4  4 2.7 0.4  5 2.7 0.4  1 3 0.4  0 3 0.4  2 3 0.4  3 3 0.4  4 3 0.4  5 3 0.4  1 0.3 0.45  1 0 0.45  0 0 0.45  0 0.3 0.45  2 0.3 0.45  2 0 0.45  3 0.3 0.45  3 0 0.45  4 0.3 0.45  4 0 0.45  5 0.3 0.45  5 0 0.45  1 0.6 0.45  0 0.6 0.45  2 0.6 0.45  3 0.6 0.45  4 0.6 0.45  5 0.6 0.45  1 0.9 0.45  0 0.9 0.45  2 0.9 0.45  3 0.9 0.45  4 0.9 0.45  5 0.9 0.45  1 1.2 0.45  0 1.2 0.45  2 1.2 0.45  3 1.2 0.45  4 1.2 0.45  5 1.2 0.45  1 1.5 0.45  0 1.5 0.45  2 1.5 0.45  3 1.5 0.45  4 1.5 0.45  5 1.5 0.45  1 1.8 0.45  0 1.8 0.45  2 1.8 0.45  3 1.8 0.45  4 1.8 0.45  5 1.8 0.45  1 2.1 0.45  0 2.1 0.45  2 2.1 0.45  3 2.1 0.45  4 2.1 0.45  5 2.1 0.45  1 2.4 0.45  0 2.4 0.45  2 2.4 0.45  3 2.4 0.45  4 2.4 0.45  5 2.4 0.45  1 2.7 0.45  0 2.7 0.45  2 2.7 0.45  3 2.7 0.45  4 2.7 0.45  5 2.7 0.45  1 3 0.45  0 3 0.45  2 3 0.45  3 3 0.45  4 3 0.45  5 3 0.45  1 0.3 0.5  1 0 0.5  0 0 0.5  0 0.3 0.5  2 0.3 0.5  2 0 0.5  3 0.3 0.5  3 0 0.5  4 0.3 0.5  4 0 0.5  5 0.3 0.5  5 0 0.5  1 0.6 0.5  0 0.6 0.5  2 0.6 0.5  3 0.6 0.5  4 0.6 0.5  5 0.6 0.5  1 0.9 0.5  0 0.9 0.5  2 0.9 0.5  3 0.9 0.5  4 0.9 0.5  5 0.9 0.5  1 1.2 0.5  0 1.2 0.5  2 1.2 0.5  3 1.2 0.5  4 1.2 0.5  5 1.2 0.5  1 1.5 0.5  0 1.5 0.5  2 1.5 0.5  3 1.5 0.5  4 1.5 0.5  5 1.5 0.5  1 1.8 0.5  0 1.8 0.5  2 1.8 0.5  3 1.8 0.5  4 1.8 0.5  5 1.8 0.5  1 2.1 0.5  0 2.1 0.5  2 2.1 0.5  3 2.1 0.5  4 2.1 0.5  5 2.1 0.5  1 2.4 0.5  0 2.4 0.5  2 2.4 0.5  3 2.4 0.5  4 2.4 0.5  5 2.4 0.5  1 2.7 0.5  0 2.7 0.5  2 2.7 0.5  3 2.7 0.5  4 2.7 0.5  5 2.7 0.5  1 3 0.5  0 3 0.5  2 3 0.5  3 3 0.5  4 3 0.5  5 3 0.5  </DataArray>
</Points>
<Cells>
<DataArray  type="UInt32"  Name="connectivity"  format="ascii">0 1 2 3  0 1 4 3  1 2 3 5  1 2 6 5  1 7 6 5  1 4 3 5  1 7 8 5  1 4 8 5  2 9 10 11  2 9 12 11  2 6 12 11  2 3 10 11  2 6 5 11  2 3 5 11  9 13 14 15  9 13 16 15  9 12 16 15  9 10 14 15  9 12 11 15  9 10 11 15  13 17 18 19  13 17 20 19  13 16 20 19  13 14 18 19  13 16 15 19  13 14 15 19  17 21 22 23  17 21 24 23  17 20 24 23  17 18 22 23  17 20 19 23  17 18 19 23  4 3 25 26  4 3 5 26  4 8 5 26  4 27 25 26  4 8 28 26  4 27 28 26  3 10 29 30  3 10 11 30  3 5 11 30  3 25 29 30  3 5 26 30  3 25 26 30  10 14 31 32  10 14 15 32  10 11 15 32  10 29 31 32  10 11 30 32  10 29 30 32  14 18 33 34  14 18 19 34  14 15 19 34  14 31 33 34  14 15 32 34  14 31 32 34  18 22 35 36  18 22 23 36  18 19 23 36  18 33 35 36  18 19 34 36  18 33 34 36  27 25 37 38  27 25 26 38  27 28 26 38  27 39 37 38  27 28 40 38  27 39 40 38  25 29 41 42  25 29 30 42  25 26 30 42  25 37 41 42  25 26 38 42  25 37 38 42  29 31 43 44  29 31 32 44  29 30 32 44  29 41 43 44  29 30 42 44  29 41 42 44  31 33 45 46  31 33 34 46  31 32 34 46  31 43 45 46  31 32 44 46  31 43 44 46  33 35 47 48  33 35 36 48  33 34 36 48  33 45 47 48  33 34 46 48  33 45 46 48  39 37 49 50  39 37 38 50  39 40 38 50  39 51 49 50  39 40 52 50  39 51 52 50  37 41 53 54  37 41 42 54  37 38 42 54  37 49 53 54  37 38 50 54  37 49 50 54  41 43 55 56  41 43 44 56  41 42 44 56  41 53 55 56  41 42 54 56  41 53 54 56  43 45 57 58  43 45 46 58  43 44 46 58  43 55 57 58  43 44 56 58  43 55 56 58  45 47 59 60  45 47 48 60  45 46 48 60  45 57 59 60  45 46 58 60  45 57 58 60  51 49 50 61  51 52 50 61  51 52 62 61  51 63 62 61  49 53 54 64  49 50 54 64  49 50 61 64  53 55 56 65  53 54 56 65  53 54 64 65  55 57 58 66  55 56 58 66  55 56 65 66  57 59 60 67  57 58 60 67  57 58 66 67  63 62 61 68  63 62 69 68  7 6 5 70  7 6 71 70  7 72 71 70  7 8 5 70  7 72 73 70  7 8 73 70  6 12 11 74  6 12 75 74  6 71 75 74  6 5 11 74  6 71 70 74  6 5 70 74  12 16 15 76  12 16 77 76  12 75 77 76  12 11 15 76  12 75 74 76  12 11 74 76  16 20 19 78  16 20 79 78  16 77 79 78  16 15 19 78  16 77 76 78  16 15 76 78  20 24 23 80  20 24 81 80  20 79 81 80  20 19 23 80  20 79 78 80  20 19 78 80  8 5 26 82  8 5 70 82  8 73 70 82  8 28 26 82  8 73 83 82  8 28 83 82  5 11 30 84  5 11 74 84  5 70 74 84  5 26 30 84  5 70 82 84  5 26 82 84  11 15 32 85  11 15 76 85  11 74 76 85  11 30 32 85  11 74 84 85  11 30 84 85  15 19 34 86  15 19 78 86  15 76 78 86  15 32 34 86  15 76 85 86  15 32 85 86  19 23 36 87  19 23 80 87  19 78 80 87  19 34 36 87  19 78 86 87  19 34 86 87  28 26 38 88  28 26 82 88  28 83 82 88  28 40 38 88  28 83 89 88  28 40 89 88  26 30 42 90  26 30 84 90  26 82 84 90  26 38 42 90  26 82 88 90  26 38 88 90  30 32 44 91  30 32 85 91  30 84 85 91  30 42 44 91  30 84 90 91  30 42 90 91  32 34 46 92  32 34 86 92  32 85 86 92  32 44 46 92  32 85 91 92  32 44 91 92  34 36 48 93  34 36 87 93  34 86 87 93  34 46 48 93  34 86 92 93  34 46 92 93  40 38 50 94  40 38 88 94  40 89 88 94  40 52 50 94  40 89 95 94  40 52 95 94  38 42 54 96  38 42 90 96  38 88 90 96  38 50 54 96  38 88 94 96  38 50 94 96  42 44 56 97  42 44 91 97  42 90 91 97  42 54 56 97  42 90 96 97  42 54 96 97  44 46 58 98  44 46 92 98  44 91 92 98  44 56 58 98  44 91 97 98  44 56 97 98  46 48 60 99  46 48 93 99  46 92 93 99  46 58 60 99  46 92 98 99  46 58 98 99  52 50 61 100  52 50 94 100  52 95 94 100  52 62 61 100  52 95 101 100  52 62 101 100  50 54 64 102  50 54 96 102  50 94 96 102  50 61 64 102  50 94 100 102  50 61 100 102  54 56 65 103  54 56 97 103  54 96 97 103  54 64 65 103  54 96 102 103  54 64 102 103  56 58 66 104  56 58 98 104  56 97 98 104  56 65 66 104  56 97 103 104  56 65 103 104  58 60 67 105  58 60 99 105  58 98 99 105  58 66 67 105  58 98 104 105  58 66 104 105  62 61 68 106  62 61 100 106  62 101 100 106  62 69 68 106  62 101 107 106  62 69 107 106  61 64 102 108  61 100 102 108  61 100 106 108  61 68 106 108  64 65 103 109  64 102 103 109  64 102 108 109  65 66 104 110  65 103 104 110  65 103 109 110  66 67 105 111  66 104 105 111  66 104 110 111  69 68 106 112  69 107 106 112  69 107 113 112  68 106 108 114  68 106 112 114  72 71 70 115  72 71 116 115  72 117 116 115  72 73 70 115  72 117 118 115  72 73 118 115  71 75 74 119  71 75 120 119  71 116 120 119  71 70 74 119  71 116 115 119  71 70 115 119  75 77 76 121  75 77 122 121  75 120 122 121  75 74 76 121  75 120 119 121  75 74 119 121  77 79 78 123  77 79 124 123  77 122 124 123  77 76 78 123  77 122 121 123  77 76 121 123  79 81 80 125  79 81 126 125  79 124 126 125  79 78 80 125  79 124 123 125  79 78 123 125  73 70 82 127  73 70 115 127  73 118 115 127  73 83 82 127  73 118 128 127  73 83 128 127  70 74 84 129  70 74 119 129  70 115 119 129  70 82 84 129  70 115 127 129  70 82 127 129  74 76 85 130  74 76 121 130  74 119 121 130  74 84 85 130  74 119 129 130  74 84 129 130  76 78 86 131  76 78 123 131  76 121 123 131  76 85 86 131  76 121 130 131  76 85 130 131  78 80 87 132  78 80 125 132  78 123 125 132  78 86 87 132  78 123 131 132  78 86 131 132  83 82 88 133  83 82 127 133  83 128 127 133  83 89 88 133  83 128 134 133  83 89 134 133  82 84 90 135  82 84 129 135  82 127 129 135  82 88 90 135  82 127 133 135  82 88 133 135  84 85 91 136  84 85 130 136  84 129 130 136  84 90 91 136  84 129 135 136  84 90 135 136  85 86 92 137  85 86 131 137  85 130 131 137  85 91 92 137  85 1
[...]
<PointData  Vectors="f_16"> 
<DataArray  type="Float64"  Name="f_16"  NumberOfComponents="3" format="ascii">0.0000000000000000e+00 0.0000000000000000e+00 0.0000000000000000e+00  0.0000000000000000e+00 0.0000000000000000e+00 0.0000000000000000e+00  4.2597023585186633e-02 3.1617406380376474e-02 1.8924335319082898e-03  4.0515648542171469e-02 2.5406073715997138e-02 2.0361468287785323e-03  0.0000000000000000e+00 0.0000000000000000e+00 0.0000000000000000e+00  4.0508160512769030e-02 2.5406095102613123e-02 7.3477827719294032e-04  4.2585494994993735e-02 3.1624799665637443e-02 7.4460503915168164e-04  0.0000000000000000e+00 0.0000000000000000e+00 0.0000000000000000e+00  0.0000000000000000e+00 0.0000000000000000e+00 0.0000000000000000e+00  9.1266521196225484e-02 3.4645584779224477e-02 1.3420050543343702e-03  9.0982459634239524e-02 2.7943557164725651e-02 1.3234306529755536e-03  9.0999478828909547e-02 2.7943088915856881e-02 2.3464577259283778e-04  9.1284078955806230e-02 3.4645183188535003e-02 2.4783299541447591e-04  1.4150833382379019e-01 3.4682659961564562e-02 1.3115071361570645e-03  1.4149531195088899e-01 2.7899928211219668e-02 1.3124200313162603e-03  1.4149513269055466e-01 2.7900354890051538e-02 1.7854815031665721e-04  1.4150812789180020e-01 3.4682696922166203e-02 1.8174538615829141e-04  1.9258967985000519e-01 3.4454726129701865e-02 1.3159979003675142e-03  1.9262495264288906e-01 2.7634193462001702e-02 1.3033535001887066e-03  1.9262529666769376e-01 2.7636309247046076e-02 1.6776134239394208e-04  1.9259004607713603e-01 3.4456817605833356e-02 1.7952183327821637e-04  2.4383819853765987e-01 3.4343410602418301e-02 1.3149322150819347e-03  2.4385608027913272e-01 2.7523487392108355e-02 1.3016637471999206e-03  2.4385609212207346e-01 2.7525669152193396e-02 1.6521711032484464e-04  2.4383822631583821e-01 3.4345583850233938e-02 1.7816016250263910e-04  3.8192181343048949e-02 1.8339092776132639e-02 2.1918654171326343e-03  3.8179159314474596e-02 1.8331277583100460e-02 7.6234890828006058e-04  0.0000000000000000e+00 0.0000000000000000e+00 0.0000000000000000e+00  0.0000000000000000e+00 0.0000000000000000e+00 0.0000000000000000e+00  9.0416686311969155e-02 2.1222356938713955e-02 1.3173881328353485e-03  9.0435680155247250e-02 2.1223319034967471e-02 2.2140793956746145e-04  1.4139283945403652e-01 2.1081839199731636e-02 1.3121320050486177e-03  1.4139253576014824e-01 2.1083026067536630e-02 1.7407574870847932e-04  1.9264258957767094e-01 2.0807352765543970e-02 1.2898724029469504e-03  1.9264316665648304e-01 2.0809479300980174e-02 1.5520277949671409e-04  2.4387338402721070e-01 2.0704358978178163e-02 1.2884356370820877e-03  2.4387339763089247e-01 2.0706566640976452e-02 1.5222169695949052e-04  3.7180974531856585e-02 1.1988387029939538e-02 2.2486970815193122e-03  3.7166547222708408e-02 1.1982254694877551e-02 7.6983313829740417e-04  0.0000000000000000e+00 0.0000000000000000e+00 0.0000000000000000e+00  0.0000000000000000e+00 0.0000000000000000e+00 0.0000000000000000e+00  8.9882106412820753e-02 1.4458717043589133e-02 1.3000256770078942e-03  8.9904357961032619e-02 1.4461316420805882e-02 2.0017124699788519e-04  1.4127082783008432e-01 1.4199757345002529e-02 1.3059064692416778e-03  1.4127041624526626e-01 1.4201500827736697e-02 1.6506843423473152e-04  1.9264940362509064e-01 1.3972538059751250e-02 1.2765479567287904e-03  1.9265014123264992e-01 1.3974669853574290e-02 1.4236792090920039e-04  2.4388890057802301e-01 1.3885214686955185e-02 1.2751319193324525e-03  2.4388891580905239e-01 1.3887464008548454e-02 1.3906320900903142e-04  3.6698756662836736e-02 6.1521480187652607e-03 2.2749880709877195e-03  3.6683865052353284e-02 6.1483914683887440e-03 7.7152279464059417e-04  0.0000000000000000e+00 0.0000000000000000e+00 0.0000000000000000e+00  0.0000000000000000e+00 0.0000000000000000e+00 0.0000000000000000e+00  8.9439959256581825e-02 7.5328978964643188e-03 1.2967303840645081e-03  8.9463344072536560e-02 7.5354402852553567e-03 1.8824449936982463e-04  1.4118256698769813e-01 7.2730890373525741e-03 1.2959752388571968e-03  1.4118185331306254e-01 7.2751538730378628e-03 1.5332181200584992e-04  1.9265555009519741e-01 7.1310887792992257e-03 1.2630289657252938e-03  1.9265639348376198e-01 7.1333101869242342e-03 1.2912025499583178e-04  2.4390295874503740e-01 7.0655625869919959e-03 1.2615021039086634e-03  2.4390297825090973e-01 7.0678731413210847e-03 1.2554524977202890e-04  3.6532370750885612e-02 5.9180791054542830e-04 7.7145395698407484e-04  0.0000000000000000e+00 0.0000000000000000e+00 0.0000000000000000e+00  0.0000000000000000e+00 0.0000000000000000e+00 0.0000000000000000e+00  8.9285550625634716e-02 5.3003572412220034e-04 1.7785495312402900e-04  1.4117092220407479e-01 3.3194454742653935e-04 1.3789059218200051e-04  1.9266965381721787e-01 2.8746042952238371e-04 1.1536704713550399e-04  2.4391602074314500e-01 2.4835992114298711e-04 1.1163099194485595e-04  3.6675505642938803e-02 -4.9039194906671160e-03 7.7260110083499469e-04  0.0000000000000000e+00 0.0000000000000000e+00 0.0000000000000000e+00  4.0516347865039236e-02 2.5423275891004151e-02 -5.6928115544767322e-04  4.2579873666156232e-02 3.1652167253629515e-02 -4.0682887591861138e-04  0.0000000000000000e+00 0.0000000000000000e+00 0.0000000000000000e+00  0.0000000000000000e+00 0.0000000000000000e+00 0.0000000000000000e+00  9.1014894327483206e-02 2.7942927468119293e-02 -8.5213696528548780e-04  9.1301016048750711e-02 3.4642964878477192e-02 -8.4483772900596961e-04  1.4149569657024352e-01 2.7901600937332287e-02 -9.5567589762782072e-04  1.4150871366216974e-01 3.4683494424543861e-02 -9.4810746517750655e-04  1.9262573450706794e-01 2.7638284780312536e-02 -9.6778182568070059e-04  1.9259052488692768e-01 3.4458710509285180e-02 -9.5694054260261994e-04  2.4385611125068923e-01 2.7527807348052467e-02 -9.7123117710212726e-04  2.4383825824514294e-01 3.4347709558763914e-02 -9.5860849103358262e-04  3.8180190758056308e-02 1.8333995071121056e-02 -6.7205330143734669e-04  0.0000000000000000e+00 0.0000000000000000e+00 0.0000000000000000e+00  9.0450455125007767e-02 2.1225667565856584e-02 -8.7206421642474410e-04  1.4139288872465905e-01 2.1084878221864126e-02 -9.6449856115266800e-04  1.9264376584929499e-01 2.0811486295536898e-02 -9.7936579557290470e-04  2.4387343243041709e-01 2.0708744385875187e-02 -9.8400261578202876e-04  3.7166940822809434e-02 1.1981452663111753e-02 -7.1387507195481113e-04  0.0000000000000000e+00 0.0000000000000000e+00 0.0000000000000000e+00  8.9921010228251691e-02 1.4465574713248695e-02 -8.9664636363567774e-04  1.4127051654720857e-01 1.4203553690009543e-02 -9.7640884228680541e-04  1.9265084385081990e-01 1.3976748025028404e-02 -9.9166985157670600e-04  2.4388896360720544e-01 1.3889696103152858e-02 -9.9702807615365506e-04  3.6684249665764362e-02 6.1472005734909243e-03 -7.3692903807035177e-04  0.0000000000000000e+00 0.0000000000000000e+00 0.0000000000000000e+00  8.9480262188336962e-02 7.5389360323898326e-03 -9.1714097519276486e-04  1.4118149426335544e-01 7.2773059119767393e-03 -9.8999497085523378e-04  1.9265717218971823e-01 7.1355164689544974e-03 -1.0046403946106293e-03  2.4390303605579261e-01 7.0701676080824703e-03 -1.0104404841140768e-03  3.6532976621176418e-02 5.9080549274604809e-04 -7.4663132507846348e-04  0.0000000000000000e+00 0.0000000000000000e+00 0.0000000000000000e+00  8.9302833885103156e-02 5.3253575727201310e-04 -9.3155694791219746e-04  1.4117051333214309e-01 3.3435601734997232e-04 -1.0049188781194435e-03  1.9267047874502280e-01 2.8979350835557595e-04 -1.0182401491035846e-03  2.4391607677638691e-01 2.5071689860449133e-04 -1.0242834154385130e-03  3.6676605549458126e-02 -4.9049492552664196e-03 -7.4304657261529798e-04  0.0000000000000000e+00 0.0000000000000000e+00 0.0000000000000000e+00  8.9429272536696261e-02 -6.5085416848516360e-03 -9.4081304309024099e-04  1.4124248957232541e-01 -6.6077066889672544e-03 -1.0198006024222798e-03  1.9269300027639327e-01 -6.5538450312399715e-03 -1.0324397820565239e-03  2.4392819948350314e-01 -6.5677989958979159e-03 -1.0386045253093933e-03  3.7145926725570377e-02 -1.0546592195854479e-02 -7.2210130880067953e-04  0.0000000000000000e+00 0.0000000000000000e+00 0.0000000000000000e+00  8.9857653985699684e-02 -1.3556944697904980e-02 -9.4618166670976274e-04  4.0543437558840101e-02 2.5457361987485085e-02 -1.8728906604246185e-03  4.2580306796037026e-02 3.1697781554701668e-02 -1.5557293738012738e-03  0.0000000000000000e+00 0.0000000000000000e+00 0.0000000000000000e+00  0.0000000000000000e+00 0.0000000000000000e+00 0.0000000000000000e+00  9.1028328636550915e-02 2.7943647027914093e-02 -1.9381837571859500e-03  9.1316982642517017e-02 3.4639520709383212e-02 -1.9370923879551587e-03  1.4149699252275263e-01 2.7903602117538045e-02 -2.0900365835594989e-03  1.4151006264505869e-01 3.4685083460957951e-02 -2.0779321557225297e-03  1.9262626847382944e-01 2.7640107783563281e-02 -2.1032971097325781e-03  1.9259111030556456e-01 3.4460387803825848e-02 -2.0934043507975755e-03  2.4385613174077803e-01 2.7529904880221237e-02 -2.1076778801283991e-03  2.4383828854696593e-01 3.4349790340138929e-02 -2.0953740381694187e-03  3.8196887355924893e-02 1.8346884017843079e-02 -2.1060516874787404e-03  0.0000000000000000e+00 0.0000000000000000e+00 0.0000000000000000e+00  9.0459879793280712e-02 2.1229374492534373e-02 -1.9645082188552063e-03  1.4139395789918097e-01 2.1087329106027595e-02 -2.1032733226142596e-03  1.9264438438551240e-01 2.0813379275015940e-02 -2.1138737384818569e-03  2.4387348360959141e-01 2.0710891638938404e-02 -2.1202350120239299e-03  3.7183801147483368e-02 1.1986007490833500e-02 -2.1978722712378681e-03  0.0000000000000000e+00 0.0000000000000000e+00 0.0000000000000000e+00  8.9931245380008351e-02 1.4471474521143977e-02 -1.9917852685173844e-03  1.4127127981526660e-01 1.4205931515258249e-02 -2.1181721145172761e-03  1.9265149832032399e-01 1.3978770836150534e-02 -2.1256316411550121e-03  2.4388903960649699e-01 1.3891909835721836e-02 -2.1331350919640995e-03  3.6701572394334282e-02 6.1487223309551319e-03 -2.2458109294530826e-03  0.0000000000000000e+00 0.0000000000000000e+00 0.0000000000000000e+00  8.9489950900517909e-02 7.5433364203861004e-03 -2.0207776984441021e-03  1.4118159372399816e-01 7.2795550492441539e-03 -2.1336532869591749e-03  1.9265786709987695e-01 7.1377061099857902e-03 -2.1383118781977419e-03  2.4390312842484688e-01 7.0724446931602417e-03 -2.1464467268209066e-03  3.6550710551583876e-02 5.9035490647036087e-04 -2.2651442024950964e-03  0.0000000000000000e+00 0.0000000000000000e+00 0.0000000000000000e+00  8.9312594602331485e-02 5.3502479545493883e-04 -2.0392034251625790e-03  1.4117048776725027e-01 3.3666378409113210e-04 -2.1480393972152854e-03  1.9267122668603309e-01 2.9210718425814200e-04 -2.1517558356636945e-03  2.4391616910482253e-01 2.5306188545522158e-04 -2.1602203543176469e-03  3.6694817352599857e-02 -4.9074167946987716e-03 -2.2591004046896941e-03  0.0000000000000000e+00 0.0000000000000000e+00 0.0000000000000000e+00  8.9439614179023283e-02 -6.5080079881214888e-03 -2.0449115233039448e-03  1.4124253011139656e-01 -6.6054557997875423e-03 -2.1612235271470099e-03  1.9269374975494258e-01 -6.5514246187449955e-03 -2.1659756909254754e-03  2.4392828274227921e-01 -6.5653750785713500e-03 -2.1744950150556163e-03  3.7164788674829079e-02 -1.0551901192250605e-02 -2.2235194339687392e-03  0.0000000000000000e+00 0.0000000000000000e+00 0.0000000000000000e+00  8.9869109891711596e-02 -1.3558440110173112e-02 -2.0380529218096887e-03  1.4138365697375477e-01 -1.3518178278261454e-02 -1.0341628581571716e-03  1.4138394099596199e-01 -1.3515856446346687e-02 -2.1735890987314801e-03  1.9272134819764986e-01 -1.3388513367426743e-02 -1.0475112148444947e-03  1.9272210731096948e-01 -1.3385943462242993e-02 -2.1811004236648546e-03  2.4393900891263495e-01 -1.3385143669344160e-02 -1.0533913919680206e-03  2.4393907578116886e-01 -1.3382642363882454e-02 -2.1892574213144365e-03  3.8051693783715652e-02 -1.6552813775266361e-02 -6.7297982247358596e-04  3.8071208711490653e-02 -1.6563058845463094e-02 -2.1434641060245228e-03  0.0000000000000000e+00 0.0000000000000000e+00 0.0000000000000000e+00  0.0000000000000000e+00 0.0000000000000000e+00 0.0000000000000000e+00  9.0551350034511910e-02 -2.0565102658751423e-02 -9.4951621877157786e-04  9.0564845135547314e-02 -2.0568785614531328e-02 -2.0202772672831206e-03  1.4154621269656090e-01 -2.0367098276600930e-02 -1.0484756934167970e-03  1.4154681927074209e-01 -2.0364172434959100e-02 -2.1867689524737413e-03  1.9274706926193674e-01 -2.0213054759278936e-02 -1.0637094578009796e-03  1.9274783765886033e-01 -2.0210360256638579e-02 -2.1973138038818645e-03  2.4394779850911522e-01 -2.0201359171424033e-02 -1.0685494287065952e-03  2.4394782941980311e-01 -2.0198788385908991e-02 -2.2044513308843261e-03  3.9725837505377413e-02 -2.3167153870729797e-02 -5.7003124280088663e-04  3.9743653587020797e-02 -2.3180655525701213e-02 -1.9780968066859528e-03  0.0000000000000000e+00 0.0000000000000000e+00 0.0000000000000000e+00  0.0000000000000000e+00 0.0000000000000000e+00 0.0000000000000000e+00  9.1376604257601968e-02 -2.7416133358718526e-02 -9.5587354864283807e-04  9.1394511509101370e-02 -2.7424572854681795e-02 -2.0005119938794401e-03  1.4165180238452385e-01 -2.7148928130801765e-02 -1.0647159567991342e-03  1.4165244063958241e-01 -2.7144042742984150e-02 -2.2041135979481517e-03  1.9276331361239604e-01 -2.7031635661329385e-02 -1.0809141105569374e-03  1.9276412904236345e-01 -2.7029033314158457e-02 -2.2143410230485174e-03  2.4395359930972951e-01 -2.7013881988018778e-02 -2.2200508977669991e-03  4.3309775030476068e-02 -3.0502560199064815e-02 -4.2164611538042979e-04  4.3338589456972665e-02 -3.0520196863419693e-02 -1.7231037806271713e-03  0.0000000000000000e+00 0.0000000000000000e+00 0.0000000000000000e+00  0.0000000000000000e+00 0.0000000000000000e+00 0.0000000000000000e+00  9.1792429978121190e-02 -3.3946045105308569e-02 -1.9468685368025228e-03  1.4168538389709642e-01 -3.3902865565322834e-02 -2.2384748463331228e-03  1.9275809684336809e-01 -3.3846415676146116e-02 -2.2292914271754985e-03  2.4395748139063173e-01 -3.3828578354886618e-02 -2.2365934073856003e-03  4.0589864492782401e-02 2.5509997082045339e-02 -3.1723145911274468e-03  4.2585880762158003e-02 3.1761610180015734e-02 -2.6971421613854432e-03  0.0000000000000000e+00 0.0000000000000000e+00 0.0000000000000000e+00  0.0000000000000000e+00 0.0000000000000000e+00 0.0000000000000000e+00  9.1040196706583920e-02 2.7945062258623952e-02 -3.0247162078421404e-03  9.1332335872382625e-02 3.4635371150768653e-02 -3.0298946974600602e-03  1.4149889933756246e-01 2.7906312445760823e-02 -3.2243169747117979e-03  1.4151207168094207e-01 3.4687395802240603e-02 -3.2076075965250432e-03  1.9262691504461307e-01 2.7641767616111645e-02 -3.2388125396974918e-03  1.9259180557324973e-01 3.4461846714008024e-02 -3.2298832625547507e-03  2.4385614749337206e-01 2.7531963639798315e-02 -3.2441193744036567e-03  2.4383830814144966e-01 3.4351825681980433e-02 -3.2321370108140935e-03  3.8228488776541468e-02 1.8369910852839580e-02 -3.5346822790810221e-03  0.0000000000000000e+00 0.0000000000000000e+00 0.0000000000000000e+00  9.0464014848414973e-02 2.1234304682741685e-02 -3.0573931236982438e-03  1.4139562098091041e-01 2.1090387620708050e-02 -3.2419353541858391e-03  1.9264504266589735e-01 2.0815152974275788e-02 -3.2483649949830475e-03  2.4387354371934100e-01 2.0713008293613906e-02 -3.2564720391126032e-03  3.7216684865506632e-02 1.1996305706074089e-02 -3.6777482491597031e-03  0.0000000000000000e+00 0.0000000000000000e+00 0.0000000000000000e+00  8.9935399476443842e-02 1.4478901052660713e-02 -3.0865036839600440e-03  1.4127262591789955e-01 1.4208661238488489e-02 -3.2598499717728727e-03  1.9265211707149316e-01 1.3980728904996928e-02 -3.2595896932324487e-03  2.4388913436077742e-01 1.3894104163796651e-02 -3.2692504199707271e-03  3.6735412678078200e-02 6.1532057442024515e-03 -3.7506664502258177e-03  0.0000000000000000e+00 0.0000000000000000e+00 0.0000000000000000e+00  8.9492849155738338e-02 7.5486108646140287e-03 -3.1239492988067745e-03  1.4118203482270741e-01 7.2819221742460791e-03 -3.2773301848795151e-03  1.9265848246728925e-01 7.1398712865243970e-03 -3.2719620605698939e-03  2.4390324509805800e-01 7.0747035048200528e-03 -3.2824634239219178e-03  3.6585132360828762e-02 5.9067743334033070e-04 -3.7796434631412407e-03  0.0000000000000000e+00 0.0000000000000000e+00 0.0000000000000000e+00  8.9315354616999076e-02 5.3749293102579832e-04 -3.1463420401561019e-03  1.4117070241459531e-01 3.3887296757811864e-04 -3.2911161935360658e-03  1.9267190320881483e-01 2.9439586145127157e-04 -3.2852458149381599e-03  2.4391628732032111e-01 2.5539419620952317e-04 -3.2961723233878850e-03  3.6729735721780947e-02 -4.9111113047064512e-03 -3.7711017876714231e-03  0.0000000000000000e+00 0.0000000000000000e+00 0.0000000000000000e+00  8.9443032778718928e-02 -6.5086568222825899e-03 -3.1484751564833809e-03  1.4124283688635236e-01 -6.6034956710004358e-03 -3.3025840101496931e-03  1.9269445689679293e-01 -6.5490213567758375e-03 -3.2995016126717604e-03  2.4392839129111268e-01 -6.5629551125826174e-03 -3.3104005395503977e-03  3.7200238183277619e-02 -1.0560797663703578e-02 -3.7207892783662684e-03  0.0000000000000000e+00 0.0000000000000000e+00 0.0000000000000000e+00  8.9873954581297572e-02 -1.3562326643277646e-02 -3.1293821126961905e-03  1.4138468392631834e-01 -1.3513887385076622e-02 -3.3129596676707393e-03  1.9272287071758687e-01 -1.3383376598010699e-02 -3.3146873964867633e-03  2.4393916707763316e-01 -1.3380136528016283e-02 -3.3251347669894138e-03  3.8106745504538742e-02 -1.6580086629668589e-02 -3.6097809525790681e-03  0.0000000000000000e+00 0.0000000000000000e+00 0.0000000000000000e+00  9.0572423616417583e-02 -2.0575902327778506e-02 -3.0904060707391259e-03  1.4154825347578909e-01 -2.0361505252350594e-02 -3.3250616052387660e-03  1.9274865075227610e-01 -2.0207645021037633e-02 -3.3309109476797089e-03  2.4394788168283041e-01 -2.0196202395048522e-02 -3.3403619117384447e-03  3.9774054628141174e-02 -2.3202550670144869e-02 -3.3856437128644214e-03  0.0000000000000000e+00 0.0000000000000000e+00 0.0000000000000000e+00  9.1408682636132138e-02 -2.7438619784349669e-02 -3.0427239942780212e-03  1.4165425486243874e-01 -2.7138746252499211e-02 -3.3438675452363755e-03  1.9276501356347106e-01 -2.7026464841513529e-02 -3.3477180346422339e-03  2.4395357574992441e-01 -2.7011168241790964e-02 -3.3561195234302686e-03  4.3388824817921737e-02 -3.0531820722370696e-02 -3.0198785759868760e-03  0.0000000000000000e+00 0.0000000000000000e+00 0.0000000000000000e+00  9.1806746815620358e-02 -3.3971590040292377e-02 -2.9507929981100298e-03  1.4168857914434541e-01 -3.3891765225327060e-02 -3.3851831618975578e-03  1.9275873740278718e-01 -3.3844738983550844e-02 -3.3614326206693381e-03  2.4395744986786264e-01 -3.3825629997470311e-02 -3.3732231997664541e-03  4.0652418108362863e-02 2.5585641889798554e-02 -4.4614339166482312e-03  4.2596103660204228e-02 3.1841347184202368e-02 -3.8285772082383824e-03  0.0000000000000000e+00 0.0000000000000000e+00 0.0000000000000000e+00  0.0000000000000000e+00 0.0000000000000000e+00 0.0000000000000000e+00  9.1051782564959036e-02 2.7946126418792339e-02 -4.1129633596492712e-03  9.1348091915721713e-02 3.4631026177529195e-02 -4.1238750270914228e-03  1.4150117875657514e-01 2.7909661670554819e-02 -4.3583326873217424e-03  1.4151454133288111e-01 3.4690245333615817e-02 -4.3370787046742567e-03  1.9262771039508036e-01 2.7643260127845595e-02 -4.3743528360511083e-03  1.9259261818767770e-01 3.4463119594206205e-02 -4.3663759432694188e-03  2.4385615336899355e-01 2.7533984174666976e-02 -4.3805542663094251e-03  2.4383830415039928e-01 3.4353812380308373e-02 -4.3688975397733311e-03  3.8272041707841750e-02 1.8404731116052581e-02 -4.9527883484956348e-03  0.0000000000000000e+00 0.0000000000000000e+00 0.0000000000000000e+00  9.0464274991009772e-02 2.1240173304893344e-02 -4.1523748576589477e-03  1.4139752832134042e-01 2.1094184377081156e-02 -4.3801646522975751e-03  1.9264578818392217e-01 2.0816790007579140e-02 -4.3828822671073157e-03  2.4387360225999030e-01 2.0715092479106093e-02 -