<?xml version="1.0"?>
<VTKFile type="UnstructuredGrid"  version="0.1"  >
<UnstructuredGrid>
<Piece  NumberOfPoints="396" NumberOfCells="1500">
<Points>
<DataArray  type="Float64"  NumberOfComponents="3"  format="ascii">5 0 0  6 0 0  6 0.3 0  6 0.3 0.05  6 0 0.05  5 0 0.05  5 0.3 0  5 0.3 0.05  7 0 0  7 0.3 0  7 0.3 0.05  7 0 0.05  8 0 0  8 0.3 0  8 0.3 0.05  8 0 0.05  9 0 0  9 0.3 0  9 0.3 0.05  9 0 0.05  10 0 0  10 0.3 0  10 0.3 0.05  10 0 0.05  6 0.6 0  6 0.6 0.05  5 0.6 0  5 0.6 0.05  7 0.6 0  7 0.6 0.05  8 0.6 0  8 0.6 0.05  9 0.6 0  9 0.6 0.05  10 0.6 0  10 0.6 0.05  6 0.9 0  6 0.9 0.05  5 0.9 0  5 0.9 0.05  7 0.9 0  7 0.9 0.05  8 0.9 0  8 0.9 0.05  9 0.9 0  9 0.9 0.05  10 0.9 0  10 0.9 0.05  6 1.2 0  6 1.2 0.05  5 1.2 0  5 1.2 0.05  7 1.2 0  7 1.2 0.05  8 1.2 0  8 1.2 0.05  9 1.2 0  9 1.2 0.05  10 1.2 0  10 1.2 0.05  6 1.5 0  6 1.5 0.05  5 1.5 0  5 1.5 0.05  7 1.5 0  7 1.5 0.05  8 1.5 0  8 1.5 0.05  9 1.5 0  9 1.5 0.05  10 1.5 0  10 1.5 0.05  6 1.8 0  6 1.8 0.05  5 1.8 0  5 1.8 0.05  7 1.8 0  7 1.8 0.05  8 1.8 0  8 1.8 0.05  9 1.8 0  9 1.8 0.05  10 1.8 0  10 1.8 0.05  6 2.1 0  6 2.1 0.05  5 2.1 0  5 2.1 0.05  7 2.1 0  7 2.1 0.05  8 2.1 0  8 2.1 0.05  9 2.1 0  9 2.1 0.05  10 2.1 0  10 2.1 0.05  6 2.4 0  6 2.4 0.05  5 2.4 0  5 2.4 0.05  7 2.4 0  7 2.4 0.05  8 2.4 0  8 2.4 0.05  9 2.4 0  9 2.4 0.05  10 2.4 0  10 2.4 0.05  6 2.7 0  6 2.7 0.05  5 2.7 0  5 2.7 0.05  7 2.7 0  7 2.7 0.05  8 2.7 0  8 2.7 0.05  9 2.7 0  9 2.7 0.05  10 2.7 0  10 2.7 0.05  6 3 0  6 3 0.05  5 3 0  5 3 0.05  7 3 0  7 3 0.05  8 3 0  8 3 0.05  9 3 0  9 3 0.05  10 3 0  10 3 0.05  6 0.3 0.1  6 0 0.1  5 0 0.1  5 0.3 0.1  7 0.3 0.1  7 0 0.1  8 0.3 0.1  8 0 0.1  9 0.3 0.1  9 0 0.1  10 0.3 0.1  10 0 0.1  6 0.6 0.1  5 0.6 0.1  7 0.6 0.1  8 0.6 0.1  9 0.6 0.1  10 0.6 0.1  6 0.9 0.1  5 0.9 0.1  7 0.9 0.1  8 0.9 0.1  9 0.9 0.1  10 0.9 0.1  6 1.2 0.1  5 1.2 0.1  7 1.2 0.1  8 1.2 0.1  9 1.2 0.1  10 1.2 0.1  6 1.5 0.1  5 1.5 0.1  7 1.5 0.1  8 1.5 0.1  9 1.5 0.1  10 1.5 0.1  6 1.8 0.1  5 1.8 0.1  7 1.8 0.1  8 1.8 0.1  9 1.8 0.1  10 1.8 0.1  6 2.1 0.1  5 2.1 0.1  7 2.1 0.1  8 2.1 0.1  9 2.1 0.1  10 2.1 0.1  6 2.4 0.1  5 2.4 0.1  7 2.4 0.1  8 2.4 0.1  9 2.4 0.1  10 2.4 0.1  6 2.7 0.1  5 2.7 0.1  7 2.7 0.1  8 2.7 0.1  9 2.7 0.1  10 2.7 0.1  6 3 0.1  5 3 0.1  7 3 0.1  8 3 0.1  9 3 0.1  10 3 0.1  6 0.3 0.15  6 0 0.15  5 0 0.15  5 0.3 0.15  7 0.3 0.15  7 0 0.15  8 0.3 0.15  8 0 0.15  9 0.3 0.15  9 0 0.15  10 0.3 0.15  10 0 0.15  6 0.6 0.15  5 0.6 0.15  7 0.6 0.15  8 0.6 0.15  9 0.6 0.15  10 0.6 0.15  6 0.9 0.15  5 0.9 0.15  7 0.9 0.15  8 0.9 0.15  9 0.9 0.15  10 0.9 0.15  6 1.2 0.15  5 1.2 0.15  7 1.2 0.15  8 1.2 0.15  9 1.2 0.15  10 1.2 0.15  6 1.5 0.15  5 1.5 0.15  7 1.5 0.15  8 1.5 0.15  9 1.5 0.15  10 1.5 0.15  6 1.8 0.15  5 1.8 0.15  7 1.8 0.15  8 1.8 0.15  9 1.8 0.15  10 1.8 0.15  6 2.1 0.15  5 2.1 0.15  7 2.1 0.15  8 2.1 0.15  9 2.1 0.15  10 2.1 0.15  6 2.4 0.15  5 2.4 0.15  7 2.4 0.15  8 2.4 0.15  9 2.4 0.15  10 2.4 0.15  6 2.7 0.15  5 2.7 0.15  7 2.7 0.15  8 2.7 0.15  9 2.7 0.15  10 2.7 0.15  6 3 0.15  5 3 0.15  7 3 0.15  8 3 0.15  9 3 0.15  10 3 0.15  6 0.3 0.2  6 0 0.2  5 0 0.2  5 0.3 0.2  7 0.3 0.2  7 0 0.2  8 0.3 0.2  8 0 0.2  9 0.3 0.2  9 0 0.2  10 0.3 0.2  10 0 0.2  6 0.6 0.2  5 0.6 0.2  7 0.6 0.2  8 0.6 0.2  9 0.6 0.2  10 0.6 0.2  6 0.9 0.2  5 0.9 0.2  7 0.9 0.2  8 0.9 0.2  9 0.9 0.2  10 0.9 0.2  6 1.2 0.2  5 1.2 0.2  7 1.2 0.2  8 1.2 0.2  9 1.2 0.2  10 1.2 0.2  6 1.5 0.2  5 1.5 0.2  7 1.5 0.2  8 1.5 0.2  9 1.5 0.2  10 1.5 0.2  6 1.8 0.2  5 1.8 0.2  7 1.8 0.2  8 1.8 0.2  9 1.8 0.2  10 1.8 0.2  6 2.1 0.2  5 2.1 0.2  7 2.1 0.2  8 2.1 0.2  9 2.1 0.2  10 2.1 0.2  6 2.4 0.2  5 2.4 0.2  7 2.4 0.2  8 2.4 0.2  9 2.4 0.2  10 2.4 0.2  6 2.7 0.2  5 2.7 0.2  7 2.7 0.2  8 2.7 0.2  9 2.7 0.2  10 2.7 0.2  6 3 0.2  5 3 0.2  7 3 0.2  8 3 0.2  9 3 0.2  10 3 0.2  6 0.3 0.25  6 0 0.25  5 0 0.25  5 0.3 0.25  7 0.3 0.25  7 0 0.25  8 0.3 0.25  8 0 0.25  9 0.3 0.25  9 0 0.25  10 0.3 0.25  10 0 0.25  6 0.6 0.25  5 0.6 0.25  7 0.6 0.25  8 0.6 0.25  9 0.6 0.25  10 0.6 0.25  6 0.9 0.25  5 0.9 0.25  7 0.9 0.25  8 0.9 0.25  9 0.9 0.25  10 0.9 0.25  6 1.2 0.25  5 1.2 0.25  7 1.2 0.25  8 1.2 0.25  9 1.2 0.25  10 1.2 0.25  6 1.5 0.25  5 1.5 0.25  7 1.5 0.25  8 1.5 0.25  9 1.5 0.25  10 1.5 0.25  6 1.8 0.25  5 1.8 0.25  7 1.8 0.25  8 1.8 0.25  9 1.8 0.25  10 1.8 0.25  6 2.1 0.25  5 2.1 0.25  7 2.1 0.25  8 2.1 0.25  9 2.1 0.25  10 2.1 0.25  6 2.4 0.25  5 2.4 0.25  7 2.4 0.25  8 2.4 0.25  9 2.4 0.25  10 2.4 0.25  6 2.7 0.25  5 2.7 0.25  7 2.7 0.25  8 2.7 0.25  9 2.7 0.25  10 2.7 0.25  6 3 0.25  5 3 0.25  7 3 0.25  8 3 0.25  9 3 0.25  10 3 0.25  </DataArray>
</Points>
<Cells>
<DataArray  type="UInt32"  Name="connectivity"  format="ascii">0 1 2 3  0 1 4 3  0 5 4 3  0 6 2 3  0 5 7 3  0 6 7 3  1 8 9 10  1 8 11 10  1 4 11 10  1 2 9 10  1 4 3 10  1 2 3 10  8 12 13 14  8 12 15 14  8 11 15 14  8 9 13 14  8 11 10 14  8 9 10 14  12 16 17 18  12 16 19 18  12 15 19 18  12 13 17 18  12 15 14 18  12 13 14 18  16 20 21 22  16 20 23 22  16 19 23 22  16 17 21 22  16 19 18 22  16 17 18 22  6 2 24 25  6 2 3 25  6 7 3 25  6 26 24 25  6 7 27 25  6 26 27 25  2 9 28 29  2 9 10 29  2 3 10 29  2 24 28 29  2 3 25 29  2 24 25 29  9 13 30 31  9 13 14 31  9 10 14 31  9 28 30 31  9 10 29 31  9 28 29 31  13 17 32 33  13 17 18 33  13 14 18 33  13 30 32 33  13 14 31 33  13 30 31 33  17 21 34 35  17 21 22 35  17 18 22 35  17 32 34 35  17 18 33 35  17 32 33 35  26 24 36 37  26 24 25 37  26 27 25 37  26 38 36 37  26 27 39 37  26 38 39 37  24 28 40 41  24 28 29 41  24 25 29 41  24 36 40 41  24 25 37 41  24 36 37 41  28 30 42 43  28 30 31 43  28 29 31 43  28 40 42 43  28 29 41 43  28 40 41 43  30 32 44 45  30 32 33 45  30 31 33 45  30 42 44 45  30 31 43 45  30 42 43 45  32 34 46 47  32 34 35 47  32 33 35 47  32 44 46 47  32 33 45 47  32 44 45 47  38 36 48 49  38 36 37 49  38 39 37 49  38 50 48 49  38 39 51 49  38 50 51 49  36 40 52 53  36 40 41 53  36 37 41 53  36 48 52 53  36 37 49 53  36 48 49 53  40 42 54 55  40 42 43 55  40 41 43 55  40 52 54 55  40 41 53 55  40 52 53 55  42 44 56 57  42 44 45 57  42 43 45 57  42 54 56 57  42 43 55 57  42 54 55 57  44 46 58 59  44 46 47 59  44 45 47 59  44 56 58 59  44 45 57 59  44 56 57 59  50 48 60 61  50 48 49 61  50 51 49 61  50 62 60 61  50 51 63 61  50 62 63 61  48 52 64 65  48 52 53 65  48 49 53 65  48 60 64 65  48 49 61 65  48 60 61 65  52 54 66 67  52 54 55 67  52 53 55 67  52 64 66 67  52 53 65 67  52 64 65 67  54 56 68 69  54 56 57 69  54 55 57 69  54 66 68 69  54 55 67 69  54 66 67 69  56 58 70 71  56 58 59 71  56 57 59 71  56 68 70 71  56 57 69 71  56 68 69 71  62 60 72 73  62 60 61 73  62 63 61 73  62 74 72 73  62 63 75 73  62 74 75 73  60 64 76 77  60 64 65 77  60 61 65 77  60 72 76 77  60 61 73 77  60 72 73 77  64 66 78 79  64 66 67 79  64 65 67 79  64 76 78 79  64 65 77 79  64 76 77 79  66 68 80 81  66 68 69 81  66 67 69 81  66 78 80 81  66 67 79 81  66 78 79 81  68 70 82 83  68 70 71 83  68 69 71 83  68 80 82 83  68 69 81 83  68 80 81 83  74 72 84 85  74 72 73 85  74 75 73 85  74 86 84 85  74 75 87 85  74 86 87 85  72 76 88 89  72 76 77 89  72 73 77 89  72 84 88 89  72 73 85 89  72 84 85 89  76 78 90 91  76 78 79 91  76 77 79 91  76 88 90 91  76 77 89 91  76 88 89 91  78 80 92 93  78 80 81 93  78 79 81 93  78 90 92 93  78 79 91 93  78 90 91 93  80 82 94 95  80 82 83 95  80 81 83 95  80 92 94 95  80 81 93 95  80 92 93 95  86 84 96 97  86 84 85 97  86 87 85 97  86 98 96 97  86 87 99 97  86 98 99 97  84 88 100 101  84 88 89 101  84 85 89 101  84 96 100 101  84 85 97 101  84 96 97 101  88 90 102 103  88 90 91 103  88 89 91 103  88 100 102 103  88 89 101 103  88 100 101 103  90 92 104 105  90 92 93 105  90 91 93 105  90 102 104 105  90 91 103 105  90 102 103 105  92 94 106 107  92 94 95 107  92 93 95 107  92 104 106 107  92 93 105 107  92 104 105 107  98 96 108 109  98 96 97 109  98 99 97 109  98 110 108 109  98 99 111 109  98 110 111 109  96 100 112 113  96 100 101 113  96 97 101 113  96 108 112 113  96 97 109 113  96 108 109 113  100 102 114 115  100 102 103 115  100 101 103 115  100 112 114 115  100 101 113 115  100 112 113 115  102 104 116 117  102 104 105 117  102 103 105 117  102 114 116 117  102 103 115 117  102 114 115 117  104 106 118 119  104 106 107 119  104 105 107 119  104 116 118 119  104 105 117 119  104 116 117 119  110 108 120 121  110 108 109 121  110 111 109 121  110 122 120 121  110 111 123 121  110 122 123 121  108 112 124 125  108 112 113 125  108 109 113 125  108 120 124 125  108 109 121 125  108 120 121 125  112 114 126 127  112 114 115 127  112 113 115 127  112 124 126 127  112 113 125 127  112 124 125 127  114 116 128 129  114 116 117 129  114 115 117 129  114 126 128 129  114 115 127 129  114 126 127 129  116 118 130 131  116 118 119 131  116 117 119 131  116 128 130 131  116 117 129 131  116 128 129 131  5 4 3 132  5 4 133 132  5 134 133 132  5 7 3 132  5 134 135 132  5 7 135 132  4 11 10 136  4 11 137 136  4 133 137 136  4 3 10 136  4 133 132 136  4 3 132 136  11 15 14 138  11 15 139 138  11 137 139 138  11 10 14 138  11 137 136 138  11 10 136 138  15 19 18 140  15 19 141 140  15 139 141 140  15 14 18 140  15 139 138 140  15 14 138 140  19 23 22 142  19 23 143 142  19 141 143 142  19 18 22 142  19 141 140 142  19 18 140 142  7 3 25 144  7 3 132 144  7 135 132 144  7 27 25 144  7 135 145 144  7 27 145 144  3 10 29 146  3 10 136 146  3 132 136 146  3 25 29 146  3 132 144 146  3 25 144 146  10 14 31 147  10 14 138 147  10 136 138 147  10 29 31 147  10 136 146 147  10 29 146 147  14 18 33 148  14 18 140 148  14 138 140 148  14 31 33 148  14 138 147 148  14 31 147 148  18 22 35 149  18 22 142 149  18 140 142 149  18 33 35 149  18 140 148 149  18 33 148 149  27 25 37 150  27 25 144 150  27 145 144 150  27 39 37 150  27 145 151 150  27 39 151 150  25 29 41 152  25 29 146 152  25 144 146 152  25 37 41 152  25 144 150 152  25 37 150 152  29 31 43 153  29 31 147 153  29 146 147 153  29 41 43 153  29 146 152 153  29 41 152 153  31 33 45 154  31 33 148 154  31 147 148 154  31 43 45 154  31 147 153 154  31 43 153 154  33 35 47 155  33 35 149 155  
[...]
<PointData  Vectors="f_16"> 
<DataArray  type="Float64"  Name="f_16"  NumberOfComponents="3" format="ascii">2.4383816108256762e-01 3.4334109657568883e-02 5.8620494724493490e-03  2.9508280588611435e-01 3.4291279695177083e-02 5.8615401194716983e-03  2.9509186389147263e-01 2.7472889257848600e-02 5.8473575821568957e-03  2.9509186933115339e-01 2.7475245697062525e-02 4.7110106780881306e-03  2.9508281081563925e-01 3.4293639213544121e-02 4.7250853096458796e-03  2.4383816096740399e-01 3.4336541433909962e-02 4.7252679379249634e-03  2.4385624884467799e-01 2.7514256317003154e-02 5.8474414645059659e-03  2.4385615246775463e-01 2.7516651607614968e-02 4.7109890128342168e-03  3.4631653233274967e-01 3.4267836298862840e-02 5.8615118433692683e-03  3.4632208001414283e-01 2.7450108361787254e-02 5.8472785537002506e-03  3.4632208331768316e-01 2.7452477682759612e-02 4.7110188717543024e-03  3.4631653014899377e-01 3.4270203983719785e-02 4.7251982152532682e-03  3.9754571784756337e-01 3.4252742666293870e-02 5.8615557730593961e-03  3.9754914821891196e-01 2.7435289147791867e-02 5.8472685949396280e-03  3.9754914948051456e-01 2.7437667657297726e-02 4.7110494879222357e-03  3.9754571654555465e-01 3.4255120331821404e-02 4.7252952748466385e-03  4.4877317756271784e-01 3.4243975971403336e-02 5.8615688208761554e-03  4.4877484387971134e-01 2.7426636758918162e-02 5.8472567076752364e-03  4.4877484457532391e-01 2.7429019275606176e-02 4.7110552522060829e-03  4.4877317731898481e-01 3.4246358115742254e-02 4.7253291583675356e-03  5.0000000000000000e-01 3.4241094408382772e-02 5.8615660778226315e-03  5.0000000000000000e-01 2.7423788423033339e-02 5.8472496971401717e-03  5.0000000000000000e-01 2.7426171663120367e-02 4.7110534118606660e-03  5.0000000000000000e-01 3.4243477288467328e-02 4.7253324836099252e-03  2.9510204054217753e-01 2.0655079786487198e-02 5.8331601775719099e-03  2.9510204895765624e-01 2.0657445323692038e-02 4.6969197133580826e-03  2.4387366091311391e-01 2.0695230496308691e-02 5.8332112142050700e-03  2.4387351807686813e-01 2.0697563969891478e-02 4.6970263047931031e-03  3.4632820869906228e-01 2.0632742227812549e-02 5.8330413266076400e-03  3.4632821338500464e-01 2.0635115789869832e-02 4.6968371905389212e-03  3.9755283380776207e-01 2.0618085376017486e-02 5.8329766778430900e-03  3.9755283667043534e-01 2.0620465943279351e-02 4.6968007161084886e-03  4.4877661433478316e-01 2.0609512605881064e-02 5.8329412749980880e-03  4.4877661557433851e-01 2.0611896100438145e-02 4.6967790951670998e-03  5.0000000000000000e-01 2.0606690923507032e-02 5.8329301175704812e-03  5.0000000000000000e-01 2.0609074935336747e-02 4.6967720081046447e-03  2.9511256916728296e-01 1.3837919400098469e-02 5.8188867133471614e-03  2.9511258172864852e-01 1.3840295789161213e-02 4.6827438913306851e-03  2.4388920498191044e-01 1.3876040125406268e-02 5.8191323179236296e-03  2.4388906274185168e-01 1.3878359573988504e-02 4.6831692346190048e-03  3.4633467595224404e-01 1.3815810070875638e-02 5.8187717002671701e-03  3.4633468016152857e-01 1.3818189502839967e-02 4.6826245941353588e-03  3.9755670946489552e-01 1.3801161413959184e-02 5.8186677151552306e-03  3.9755671330822845e-01 1.3803545209347399e-02 4.6825362218323339e-03  4.4877846711239278e-01 1.3792623945893626e-02 5.8186183146792178e-03  4.4877846859716941e-01 1.3795008906518700e-02 4.6824962206990783e-03  5.0000000000000000e-01 1.3789819979535860e-02 5.8186048664876176e-03  5.0000000000000000e-01 1.3792205023483177e-02 4.6824855960643681e-03  2.9512283801777300e-01 7.0214370287666897e-03 5.8045508552131272e-03  2.9512285342794992e-01 7.0238243776091173e-03 4.6684928740607142e-03  2.4390323484400622e-01 7.0562178809339569e-03 5.8049798866701427e-03  2.4390311455274646e-01 7.0585566251810316e-03 4.6691585652317465e-03  3.4634124078230610e-01 6.9993110534517207e-03 5.8044558261647885e-03  3.4634124417460677e-01 7.0016984565404086e-03 4.6683652079002654e-03  3.9756069975977004e-01 6.9845332718712263e-03 5.8043356923547984e-03  3.9756070372946894e-01 6.9869211251070420e-03 4.6682493072136965e-03  4.4878037757447375e-01 6.9759866799497259e-03 5.8042850688615130e-03  4.4878037894601225e-01 6.9783734242596478e-03 4.6682036702088460e-03  5.0000000000000000e-01 6.9731901477782573e-03 5.8042723618315188e-03  5.0000000000000000e-01 6.9755763784928792e-03 4.6681924591514441e-03  2.9513244782031833e-01 2.0553861544858785e-04 5.7901280799064585e-03  2.9513246694464373e-01 2.0793856535957625e-04 4.6541416487262321e-03  2.4391630169236095e-01 2.3644671371817795e-04 5.7907021235207891e-03  2.4391618356594999e-01 2.3882408881874538e-04 4.6549600527829547e-03  3.4634771648500434e-01 1.8319840598806725e-04 5.7900842395770726e-03  3.4634771805210685e-01 1.8559496025157994e-04 4.6540470661301063e-03  3.9756473116460744e-01 1.6820356072378800e-04 5.7899772482594937e-03  3.9756473420242922e-01 1.7059574184002293e-04 4.6539360841535314e-03  4.4878231890554682e-01 1.5960981872652734e-04 5.7899401353860829e-03  4.4878231979291017e-01 1.6199841657096628e-04 4.6538997626981949e-03  5.0000000000000000e-01 1.5681096892781695e-04 5.7899322017433419e-03  5.0000000000000000e-01 1.5919837664721891e-04 4.6538919421940201e-03  2.9514121369931356e-01 -6.6099485446713974e-03 5.7756165483319995e-03  2.9514123408319815e-01 -6.6075352012147206e-03 4.6396845753692226e-03  2.4392846698431192e-01 -6.5824264233525255e-03 5.7761140130763193e-03  2.4392834970134247e-01 -6.5800061457390053e-03 4.6404106766272449e-03  3.4635398532720790e-01 -6.6325854911837246e-03 5.7756546600125289e-03  3.4635398316603755e-01 -6.6301797825695742e-03 4.6396671771583931e-03  3.9756874208929177e-01 -6.6478375945833914e-03 5.7755916252162668e-03  3.9756874326890534e-01 -6.6454413995159197e-03 4.6395955420949408e-03  4.4878426478402789e-01 -6.6565038734451194e-03 5.7755839352636035e-03  4.4878426482141098e-01 -6.6541136449771157e-03 4.6395846444888499e-03  5.0000000000000000e-01 -6.6593130535417830e-03 5.7755851044734097e-03  5.0000000000000000e-01 -6.6569246781481772e-03 4.6395845233518293e-03  2.9514910781742687e-01 -1.3425155850490535e-02 5.7610354483536557e-03  2.9514912124073672e-01 -1.3422729998466226e-02 4.6251394126716541e-03  2.4393933836690776e-01 -1.3400074266296792e-02 5.7612490415140626e-03  2.4393921977453176e-01 -1.3397622448892881e-02 4.6255454531496463e-03  3.4636000027367569e-01 -1.3448105221442307e-02 5.7611672407687740e-03  3.4635999309128757e-01 -1.3445691497003802e-02 4.6252265352394722e-03  3.9757268749513519e-01 -1.3463607119079311e-02 5.7611821546423164e-03  3.9757268599553602e-01 -1.3461207803183791e-02 4.6252308557313080e-03  4.4878619003835696e-01 -1.3472356687378549e-02 5.7612188065607845e-03  4.4878618889530753e-01 -1.3469965329414944e-02 4.6252604108108645e-03  5.0000000000000000e-01 -1.3475182913724740e-02 5.7612329948989920e-03  5.0000000000000000e-01 -1.3472793971566276e-02 4.6252718944027153e-03  2.9515622588022489e-01 -2.0240204000292115e-02 5.7463889577293098e-03  2.9515622708506456e-01 -2.0237765639079790e-02 4.6105131234269528e-03  2.4394829936989865e-01 -2.0216424064933521e-02 5.7463418718996778e-03  2.4394814977000948e-01 -2.0213982272572147e-02 4.6105859112178377e-03  3.4636578822621433e-01 -2.0263423830846096e-02 5.7466297908307347e-03  3.4636577541924196e-01 -2.0261004570712976e-02 4.6107346939436196e-03  3.9757653563346823e-01 -2.0279119718598197e-02 5.7467562702273947e-03  3.9757653070284960e-01 -2.0276718616133688e-02 4.6108494125482640e-03  4.4878807019486866e-01 -2.0287955615879649e-02 5.7468485936795983e-03  4.4878806765461976e-01 -2.0285563847856250e-02 4.6109307090148417e-03  5.0000000000000000e-01 -2.0290805420633190e-02 5.7468789109841895e-03  5.0000000000000000e-01 -2.0288416461970570e-02 4.6109568612748226e-03  2.9516291900384312e-01 -2.7055283853078274e-02 5.7316447127618853e-03  2.9516291188083310e-01 -2.7052831551780631e-02 4.5957844167615900e-03  2.4395443313829543e-01 -2.7031533910027321e-02 5.7318144537477946e-03  2.4395422196677227e-01 -2.7029173254359010e-02 4.5959001735922074e-03  3.4637142542063459e-01 -2.7078563768521708e-02 5.7320652324141805e-03  3.4637140594164290e-01 -2.7076142774169421e-02 4.5962161117190682e-03  3.9758025881529852e-01 -2.7094384460833367e-02 5.7323234779225246e-03  3.9758025011619824e-01 -2.7091982959287150e-02 4.5964608888071070e-03  4.4878988007021303e-01 -2.7103312738319604e-02 5.7324784791788035e-03  4.4878987605539811e-01 -2.7100921334677109e-02 4.5966005570366696e-03  5.0000000000000000e-01 -2.7106193423395757e-02 5.7325267423419621e-03  5.0000000000000000e-01 -2.7103805053591827e-02 4.5966430807747273e-03  2.9516976411248080e-01 -3.3870493772423238e-02 5.7168037641560721e-03  2.9516975484560010e-01 -3.3868052442972432e-02 4.5809601106876477e-03  2.4395821429002415e-01 -3.3846073522570630e-02 5.7183729203421126e-03  2.4395791222342805e-01 -3.3843986071591795e-02 4.5820914369081346e-03  3.4637695604940133e-01 -3.3893485487790552e-02 5.7175147826311820e-03  3.4637693014740650e-01 -3.3891067069689661e-02 4.5817120517561948e-03  3.9758381446264951e-01 -3.3909410152884310e-02 5.7178916133770429e-03  3.9758380324057219e-01 -3.3907008672004767e-02 4.5820737022990114e-03  4.4879158945381170e-01 -3.3918446481151679e-02 5.7181129237963329e-03  4.4879158396555907e-01 -3.3916055722810458e-02 4.5822745451223812e-03  5.0000000000000000e-01 -3.3921366774814346e-02 5.7181801054679415e-03  5.0000000000000000e-01 -3.3918979468208245e-02 4.5823341255726031e-03  2.9509187246564705e-01 2.7477585656317482e-02 3.5746645592509732e-03  2.9508281486599514e-01 3.4295976187560188e-02 3.5886313413975527e-03  2.4383816538127356e-01 3.4338898478330770e-02 3.5884864343424723e-03  2.4385610266320562e-01 2.7518981031747908e-02 3.5745474605869401e-03  3.4632208262023234e-01 2.7454837984989922e-02 3.5747586582367138e-03  3.4631652762971388e-01 3.4272562137792957e-02 3.5888846169995813e-03  3.9754914891803494e-01 2.7440039283891209e-02 3.5748301172668019e-03  3.9754571494598961e-01 3.4257491196440421e-02 3.5890346991173674e-03  4.4877484458494055e-01 2.7431395426992709e-02 3.5748536945482520e-03  4.4877317693064606e-01 3.4248733958281305e-02 3.5890894588552222e-03  5.0000000000000000e-01 2.7428548670822960e-02 3.5748570673496028e-03  5.0000000000000000e-01 3.4245853958600088e-02 3.5890989061411389e-03  2.9510205856476679e-01 2.0659794625841599e-02 3.5606795983212165e-03  2.4387343689436794e-01 2.0699857906936816e-02 3.5608353892183156e-03  3.4632821496711685e-01 2.0637479810356310e-02 3.5606321908210605e-03  3.9755283774229427e-01 2.0622839246833325e-02 3.5606242964406733e-03  4.4877661611032604e-01 2.0614273046870621e-02 3.5606167481127991e-03  5.0000000000000000e-01 2.0611452567430858e-02 3.5606137819642180e-03  2.9511259814191920e-01 1.3842658082745934e-02 3.5466038758925995e-03  2.4388897256731928e-01 1.3880663296600306e-02 3.5471843494600612e-03  3.4633468297843018e-01 1.3820559521421845e-02 3.5464762884900827e-03  3.9755671576421642e-01 1.3805921565036952e-02 3.5464042641373339e-03  4.4877846950779643e-01 1.3797387164645597e-02 3.5463739275434420e-03  5.0000000000000000e-01 1.3794583591819513e-02 3.5463661919189152e-03  2.9512287396868453e-01 7.0262013512850966e-03 3.5324385629619749e-03  2.4390302986880893e-01 7.0608996018721795e-03 3.5333085570888653e-03  3.4634124727103488e-01 7.0040770486256244e-03 3.5322730645337896e-03  3.9756070680017613e-01 6.9893013588413159e-03 3.5321624777225158e-03  4.4878037991923203e-01 6.9807533238725652e-03 3.5321220444403615e-03  5.0000000000000000e-01 6.9779560504233135e-03 3.5321124169416592e-03  2.9513248967676337e-01 2.1033357934803514e-04 3.5181601614863605e-03  2.4391609036655310e-01 2.4121921446091364e-04 3.5191824534459258e-03  3.4634771997448038e-01 1.8798335884268952e-04 3.5180082262742710e-03  3.9756473683696042e-01 1.7298013921464663e-04 3.5178945062258066e-03  4.4878232046657263e-01 1.6438005498726742e-04 3.5178591537853221e-03  5.0000000000000000e-01 1.6157915967225404e-04 3.5178515461278849e-03  2.9514125551173004e-01 -6.6051215976177758e-03 3.5037585206324049e-03  2.4392824705123980e-01 -6.5775532538906037e-03 3.5046752843862004e-03  3.4635398190613548e-01 -6.6277816438947788e-03 3.5036779657973078e-03  3.9756874445287910e-01 -6.6430530740970613e-03 3.5035991335962777e-03  4.4878426482157369e-01 -6.6517304479678250e-03 3.5035851288156036e-03  5.0000000000000000e-01 -6.6545429575246813e-03 3.5035838181555865e-03  2.9514913467756476e-01 -1.3420300216943799e-02 3.4892489547728080e-03  2.4393910844354788e-01 -1.3395125505993513e-02 3.4898195108459557e-03  3.4635998712736304e-01 -1.3443284865858716e-02 3.4892843671441732e-03  3.9757268480030600e-01 -1.3458816379133577e-02 3.4892793612471907e-03  4.4878618787500452e-01 -1.3467581017565964e-02 3.4893018144078595e-03  5.0000000000000000e-01 -1.3470411661529928e-02 3.4893106919380735e-03  2.9515622867448083e-01 -2.0235321917105344e-02 3.4746419767952398e-03  2.4394801188284132e-01 -2.0211483483450938e-02 3.4748155781964343e-03  3.4636576388103740e-01 -2.0258592130223217e-02 3.4748387876363308e-03  3.9757652632601570e-01 -2.0274325376780880e-02 3.4749424611378978e-03  4.4878806537056415e-01 -2.0283179063858459e-02 3.4750126606165783e-03  5.0000000000000000e-01 -2.0286034046140249e-02 3.4750347367812199e-03  2.9516290636495884e-01 -2.7050374996330905e-02 3.4599286530856113e-03  2.4395404013915964e-01 -2.7026746710974325e-02 3.4599829545847536e-03  3.4637138806261553e-01 -2.7073728617531080e-02 3.4603669834561424e-03  3.9758024227706984e-01 -2.7089589192784154e-02 3.4605981800678470e-03  4.4878987243509916e-01 -2.7098536747969044e-02 3.4607224869298179e-03  5.0000000000000000e-01 -2.7101423064136414e-02 3.4607593671739782e-03  2.9516974788721717e-01 -3.3865588401075487e-02 3.4451440480231027e-03  2.4395771787223078e-01 -3.3841689404929522e-02 3.4457611175409799e-03  3.4637691019982664e-01 -3.3888653056127968e-02 3.4459081547372847e-03  3.9758379403476524e-01 -3.3904615164898240e-02 3.4462556747153427e-03  4.4879157956793719e-01 -3.3913671821443052e-02 3.4464358935935801e-03  5.0000000000000000e-01 -3.3916598319282308e-02 3.4464880653266869e-03  2.9509187079170984e-01 2.7479909735358427e-02 2.4383180153877545e-03  2.9508281550855586e-01 3.4298295088317388e-02 2.4521776350215846e-03  2.4383817788202722e-01 3.4341184735925658e-02 2.4517076869694414e-03  2.4385608163474853e-01 2.7521258822545337e-02 2.4381070441822825e-03  3.4632207851618590e-01 2.7457189470137984e-02 2.4384979294071688e-03  3.4631652338169994e-01 3.4274911989637176e-02 2.4525708591386442e-03  3.9754914682812265e-01 2.7442404021271564e-02 2.4386105393432297e-03  3.9754571253243098e-01 3.4259855486208704e-02 2.4527739905294719e-03  4.4877484400536027e-01 2.7433765178508696e-02 2.4386520491900612e-03  4.4877317620889273e-01 3.4251103553686893e-02 2.4528497034805434e-03  5.0000000000000000e-01 2.7430919449964036e-02 2.4386606807536518e-03  5.0000000000000000e-01 3.4248224511009853e-02 2.4528652931660837e-03  2.9510206590000965e-01 2.0662127807583072e-02 2.4244390664010626e-03  2.4387339544367226e-01 2.0702122445820304e-02 2.4246393891874940e-03  3.4632821395787311e-01 2.0639834701166579e-02 2.4244264341740296e-03  3.9755283741280628e-01 2.0625205429015317e-02 2.4244475430988720e-03  4.4877661609375580e-01 2.0616643445093317e-02 2.4244542572662941e-03  5.0000000000000000e-01 2.0613823841865549e-02 2.4244554673742993e-03  2.9511261559786017e-01 1.3845006106924733e-02 2.4104658977274632e-03  2.4388891937394988e-01 1.3882948415922245e-02 2.4111729667818135e-03  3.4633468461583350e-01 1.3822920453567023e-02 2.4103268368102738e-03  3.9755671712217933e-01 1.3808290569516957e-02 2.4102718869933588e-03  4.4877846997443765e-01 1.3799758742296171e-02 2.4102514582852656e-03  5.0000000000000000e-01 1.3796955686044905e-02 2.4102466785877828e-03  2.9512289824780108e-01 7.0285653796951239e-03 2.3963881312686957e-03  2.4390297705089481e-01 7.0632372681474253e-03 2.3974240567535940e-03  3.4634125018879447e-01 7.0064466887277957e-03 2.3961792237750437e-03  3.9756070912367009e-01 6.9916740718629728e-03 2.3960752138854785e-03  4.4878038058458708e-01 6.9831264286181055e-03 2.3960402148531859e-03  5.0000000000000000e-01 6.9803291575012459e-03 2.3960322516281868e-03  2.9513251668264029e-01 2.1271768373852819e-04 2.3821833329889562e-03  2.4391602940758036e-01 2.4361094777848455e-04 2.3833680699168764e-03  3.4634772240183997e-01 1.9036307299397147e-04 2.3819673348254729e-03  3.9756473909379031e-01 1.7535690136938857e-04 2.3818525311657258e-03  4.4878232097506227e-01 1.6675482498563671e-04 2.3818183297909658e-03  5.0000000000000000e-01 1.6395332286304153e-04 2.3818110254798614e-03  2.9514128034011022e-01 -6.6027164853858398e-03 2.3678368469351439e-03  2.4392817631496760e-01 -6.5751032561722489e-03 2.3689057721688910e-03  3.4635398168359827e-01 -6.6253920276758390e-03 2.3676866101066956e-03  3.9756874557294181e-01 -6.6406724435446448e-03 2.3676024041535040e-03  4.4878426480016731e-01 -6.6493541448314607e-03 2.3675854077762973e-03  5.0000000000000000e-01 -6.6521678699699837e-03 2.3675830000203001e-03  2.9514915078676790e-01 -1.3417876851036578e-02 2.3533621032605242e-03  2.4393902649219426e-01 -1.3392629384105455e-02 2.3540630232262980e-03  3.4635998243206034e-01 -1.3440886738910751e-02 2.3533402747960013e-03  3.9757268379007377e-01 -1.3456432650331092e-02 2.3533276358846549e-03  4.4878618697783818e-01 -1.3465203575660160e-02 2.3533430420485070e-03  5.0000000000000000e-01 -1.3468035950042546e-02 2.3533493984261014e-03  2.9515623213514264e-01 -2.0232883752799215e-02 2.3387737575772992e-03  2.4394790463456073e-01 -2.0208974299452915e-02 2.3390179348629849e-03  3.4636575349038035e-01 -2.0256188219932903e-02 2.3389413811819447e-03  3.9757652237623764e-01 -2.0271939772944097e-02 2.3390353577113490e-03  4.4878806335220378e-01 -2.0280801071087762e-02 2.3390944787320526e-03  5.0000000000000000e-01 -2.0283658140937008e-02 2.3391125467340764e-03  2.9516290137750251e-01 -2.7047927041447348e-02 2.3240772410067926e-03  2.4395389233253975e-01 -2.7024271845448967e-02 2.3240392676247006e-03  3.4637137141241803e-01 -2.7071322562567675e-02 2.3245166047364636e-03  3.9758023520718450e-01 -2.7087202986518625e-02 2.3247353664397020e-03  4.4878986924976400e-01 -2.7096158816184726e-02 2.3248442979458112e-03  5.0000000000000000e-01 -2.7099047439406256e-02 2.3248756086757492e-03  2.9516973886428932e-01 -3.3863133462623200e-02 2.3093330138554444e-03  2.4395760072259468e-01 -3.3839273939654455e-02 2.3093852055245498e-03  3.4637689388038467e-01 -3.3886246657805492e-02 2.3101026298533991e-03  3.9758378625383206e-01 -3.3902229533875054e-02 2.3104377197486125e-03  4.4879157602036235e-01 -3.3911294450779617e-02 2.3105971589740025e-03  5.0000000000000000e-01 -3.3914223327684845e-02 2.3106419555946368e-03  2.9509186360152728e-01 2.7482217521419935e-02 1.3019709641025302e-03  2.9508281134624209e-01 3.4300597599865854e-02 1.3157236982244674e-03  2.4383819853765987e-01 3.4343410602418301e-02 1.3149322150819347e-03  2.4385608027913272e-01 2.7523487392108355e-02 1.3016637471999206e-03  3.4632207131481518e-01 2.7459532046493391e-02 1.3022367853758716e-03  3.4631651670024699e-01 3.4277253740900224e-02 1.3162568731437500e-03  3.9754914333088237e-01 2.7444761808945933e-02 1.3023907682201859e-03  3.9754570903641939e-01 3.4262213157521169e-02 1.3165131365192567e-03  4.4877484287454761e-01 2.7436128512161644e-02 1.3024503199591860e-03  4.4877317505481679e-01 3.4253466884821886e-02 1.3166098870669373e-03  5.0000000000000000e-01 2.7433283975968687e-02 1.3024642517437753e-03  5.0000000000000000e-01 3.4250588939910030e-02 1.3166316334332765e-03  2.9510207069654254e-01 2.0664444317259507e-02 1.2881981990150611e-03  2.4387338402721070e-01 2.0704358978178163e-02 1.2884356370820877e-03  3.4632821081675613e-01 2.0642180348701026e-02 1.2882199182461152e-03  3.9755283588050261e-01 2.0627564435524701e-02 1.2882704726362984e-03  4.4877661559181042e-01 2.0619007277334480e-02 1.2882916277421911e-03  5.0000000000000000e-01 2.0616188739202894e-02 1.2882970679393842e-03  2.9511263354424433e-01 1.3847338