<?xml version="1.0"?>
<VTKFile type="UnstructuredGrid"  version="0.1"  >
<UnstructuredGrid>
<Piece  NumberOfPoints="396" NumberOfCells="1500">
<Points>
<DataArray  type="Float64"  NumberOfComponents="3"  format="ascii">5 0 0.25  6 0 0.25  6 0.3 0.25  6 0.3 0.3  6 0 0.3  5 0 0.3  5 0.3 0.25  5 0.3 0.3  7 0 0.25  7 0.3 0.25  7 0.3 0.3  7 0 0.3  8 0 0.25  8 0.3 0.25  8 0.3 0.3  8 0 0.3  9 0 0.25  9 0.3 0.25  9 0.3 0.3  9 0 0.3  10 0 0.25  10 0.3 0.25  10 0.3 0.3  10 0 0.3  6 0.6 0.25  6 0.6 0.3  5 0.6 0.25  5 0.6 0.3  7 0.6 0.25  7 0.6 0.3  8 0.6 0.25  8 0.6 0.3  9 0.6 0.25  9 0.6 0.3  10 0.6 0.25  10 0.6 0.3  6 0.9 0.25  6 0.9 0.3  5 0.9 0.25  5 0.9 0.3  7 0.9 0.25  7 0.9 0.3  8 0.9 0.25  8 0.9 0.3  9 0.9 0.25  9 0.9 0.3  10 0.9 0.25  10 0.9 0.3  6 1.2 0.25  6 1.2 0.3  5 1.2 0.25  5 1.2 0.3  7 1.2 0.25  7 1.2 0.3  8 1.2 0.25  8 1.2 0.3  9 1.2 0.25  9 1.2 0.3  10 1.2 0.25  10 1.2 0.3  6 1.5 0.25  6 1.5 0.3  5 1.5 0.25  5 1.5 0.3  7 1.5 0.25  7 1.5 0.3  8 1.5 0.25  8 1.5 0.3  9 1.5 0.25  9 1.5 0.3  10 1.5 0.25  10 1.5 0.3  6 1.8 0.25  6 1.8 0.3  5 1.8 0.25  5 1.8 0.3  7 1.8 0.25  7 1.8 0.3  8 1.8 0.25  8 1.8 0.3  9 1.8 0.25  9 1.8 0.3  10 1.8 0.25  10 1.8 0.3  6 2.1 0.25  6 2.1 0.3  5 2.1 0.25  5 2.1 0.3  7 2.1 0.25  7 2.1 0.3  8 2.1 0.25  8 2.1 0.3  9 2.1 0.25  9 2.1 0.3  10 2.1 0.25  10 2.1 0.3  6 2.4 0.25  6 2.4 0.3  5 2.4 0.25  5 2.4 0.3  7 2.4 0.25  7 2.4 0.3  8 2.4 0.25  8 2.4 0.3  9 2.4 0.25  9 2.4 0.3  10 2.4 0.25  10 2.4 0.3  6 2.7 0.25  6 2.7 0.3  5 2.7 0.25  5 2.7 0.3  7 2.7 0.25  7 2.7 0.3  8 2.7 0.25  8 2.7 0.3  9 2.7 0.25  9 2.7 0.3  10 2.7 0.25  10 2.7 0.3  6 3 0.25  6 3 0.3  5 3 0.25  5 3 0.3  7 3 0.25  7 3 0.3  8 3 0.25  8 3 0.3  9 3 0.25  9 3 0.3  10 3 0.25  10 3 0.3  6 0.3 0.35  6 0 0.35  5 0 0.35  5 0.3 0.35  7 0.3 0.35  7 0 0.35  8 0.3 0.35  8 0 0.35  9 0.3 0.35  9 0 0.35  10 0.3 0.35  10 0 0.35  6 0.6 0.35  5 0.6 0.35  7 0.6 0.35  8 0.6 0.35  9 0.6 0.35  10 0.6 0.35  6 0.9 0.35  5 0.9 0.35  7 0.9 0.35  8 0.9 0.35  9 0.9 0.35  10 0.9 0.35  6 1.2 0.35  5 1.2 0.35  7 1.2 0.35  8 1.2 0.35  9 1.2 0.35  10 1.2 0.35  6 1.5 0.35  5 1.5 0.35  7 1.5 0.35  8 1.5 0.35  9 1.5 0.35  10 1.5 0.35  6 1.8 0.35  5 1.8 0.35  7 1.8 0.35  8 1.8 0.35  9 1.8 0.35  10 1.8 0.35  6 2.1 0.35  5 2.1 0.35  7 2.1 0.35  8 2.1 0.35  9 2.1 0.35  10 2.1 0.35  6 2.4 0.35  5 2.4 0.35  7 2.4 0.35  8 2.4 0.35  9 2.4 0.35  10 2.4 0.35  6 2.7 0.35  5 2.7 0.35  7 2.7 0.35  8 2.7 0.35  9 2.7 0.35  10 2.7 0.35  6 3 0.35  5 3 0.35  7 3 0.35  8 3 0.35  9 3 0.35  10 3 0.35  6 0.3 0.4  6 0 0.4  5 0 0.4  5 0.3 0.4  7 0.3 0.4  7 0 0.4  8 0.3 0.4  8 0 0.4  9 0.3 0.4  9 0 0.4  10 0.3 0.4  10 0 0.4  6 0.6 0.4  5 0.6 0.4  7 0.6 0.4  8 0.6 0.4  9 0.6 0.4  10 0.6 0.4  6 0.9 0.4  5 0.9 0.4  7 0.9 0.4  8 0.9 0.4  9 0.9 0.4  10 0.9 0.4  6 1.2 0.4  5 1.2 0.4  7 1.2 0.4  8 1.2 0.4  9 1.2 0.4  10 1.2 0.4  6 1.5 0.4  5 1.5 0.4  7 1.5 0.4  8 1.5 0.4  9 1.5 0.4  10 1.5 0.4  6 1.8 0.4  5 1.8 0.4  7 1.8 0.4  8 1.8 0.4  9 1.8 0.4  10 1.8 0.4  6 2.1 0.4  5 2.1 0.4  7 2.1 0.4  8 2.1 0.4  9 2.1 0.4  10 2.1 0.4  6 2.4 0.4  5 2.4 0.4  7 2.4 0.4  8 2.4 0.4  9 2.4 0.4  10 2.4 0.4  6 2.7 0.4  5 2.7 0.4  7 2.7 0.4  8 2.7 0.4  9 2.7 0.4  10 2.7 0.4  6 3 0.4  5 3 0.4  7 3 0.4  8 3 0.4  9 3 0.4  10 3 0.4  6 0.3 0.45  6 0 0.45  5 0 0.45  5 0.3 0.45  7 0.3 0.45  7 0 0.45  8 0.3 0.45  8 0 0.45  9 0.3 0.45  9 0 0.45  10 0.3 0.45  10 0 0.45  6 0.6 0.45  5 0.6 0.45  7 0.6 0.45  8 0.6 0.45  9 0.6 0.45  10 0.6 0.45  6 0.9 0.45  5 0.9 0.45  7 0.9 0.45  8 0.9 0.45  9 0.9 0.45  10 0.9 0.45  6 1.2 0.45  5 1.2 0.45  7 1.2 0.45  8 1.2 0.45  9 1.2 0.45  10 1.2 0.45  6 1.5 0.45  5 1.5 0.45  7 1.5 0.45  8 1.5 0.45  9 1.5 0.45  10 1.5 0.45  6 1.8 0.45  5 1.8 0.45  7 1.8 0.45  8 1.8 0.45  9 1.8 0.45  10 1.8 0.45  6 2.1 0.45  5 2.1 0.45  7 2.1 0.45  8 2.1 0.45  9 2.1 0.45  10 2.1 0.45  6 2.4 0.45  5 2.4 0.45  7 2.4 0.45  8 2.4 0.45  9 2.4 0.45  10 2.4 0.45  6 2.7 0.45  5 2.7 0.45  7 2.7 0.45  8 2.7 0.45  9 2.7 0.45  10 2.7 0.45  6 3 0.45  5 3 0.45  7 3 0.45  8 3 0.45  9 3 0.45  10 3 0.45  6 0.3 0.5  6 0 0.5  5 0 0.5  5 0.3 0.5  7 0.3 0.5  7 0 0.5  8 0.3 0.5  8 0 0.5  9 0.3 0.5  9 0 0.5  10 0.3 0.5  10 0 0.5  6 0.6 0.5  5 0.6 0.5  7 0.6 0.5  8 0.6 0.5  9 0.6 0.5  10 0.6 0.5  6 0.9 0.5  5 0.9 0.5  7 0.9 0.5  8 0.9 0.5  9 0.9 0.5  10 0.9 0.5  6 1.2 0.5  5 1.2 0.5  7 1.2 0.5  8 1.2 0.5  9 1.2 0.5  10 1.2 0.5  6 1.5 0.5  5 1.5 0.5  7 1.5 0.5  8 1.5 0.5  9 1.5 0.5  10 1.5 0.5  6 1.8 0.5  5 1.8 0.5  7 1.8 0.5  8 1.8 0.5  9 1.8 0.5  10 1.8 0.5  6 2.1 0.5  5 2.1 0.5  7 2.1 0.5  8 2.1 0.5  9 2.1 0.5  10 2.1 0.5  6 2.4 0.5  5 2.4 0.5  7 2.4 0.5  8 2.4 0.5  9 2.4 0.5  10 2.4 0.5  6 2.7 0.5  5 2.7 0.5  7 2.7 0.5  8 2.7 0.5  9 2.7 0.5  10 2.7 0.5  6 3 0.5  5 3 0.5  7 3 0.5  8 3 0.5  9 3 0.5  10 3 0.5  </DataArray>
</Points>
<Cells>
<DataArray  type="UInt32"  Name="connectivity"  format="ascii">0 1 2 3  0 1 4 3  0 5 4 3  0 6 2 3  0 5 7 3  0 6 7 3  1 8 9 10  1 8 11 10  1 4 11 10  1 2 9 10  1 4 3 10  1 2 3 10  8 12 13 14  8 12 15 14  8 11 15 14  8 9 13 14  8 11 10 14  8 9 10 14  12 16 17 18  12 16 19 18  12 15 19 18  12 13 17 18  12 15 14 18  12 13 14 18  16 20 21 22  16 20 23 22  16 19 23 22  16 17 21 22  16 19 18 22  16 17 18 22  6 2 24 25  6 2 3 25  6 7 3 25  6 26 24 25  6 7 27 25  6 26 27 25  2 9 28 29  2 9 10 29  2 3 10 29  2 24 28 29  2 3 25 29  2 24 25 29  9 13 30 31  9 13 14 31  9 10 14 31  9 28 30 31  9 10 29 31  9 28 29 31  13 17 32 33  13 17 18 33  13 14 18 33  13 30 32 33  13 14 31 33  13 30 31 33  17 21 34 35  17 21 22 35  17 18 22 35  17 32 34 35  17 18 33 35  17 32 33 35  26 24 36 37  26 24 25 37  26 27 25 37  26 38 36 37  26 27 39 37  26 38 39 37  24 28 40 41  24 28 29 41  24 25 29 41  24 36 40 41  24 25 37 41  24 36 37 41  28 30 42 43  28 30 31 43  28 29 31 43  28 40 42 43  28 29 41 43  28 40 41 43  30 32 44 45  30 32 33 45  30 31 33 45  30 42 44 45  30 31 43 45  30 42 43 45  32 34 46 47  32 34 35 47  32 33 35 47  32 44 46 47  32 33 45 47  32 44 45 47  38 36 48 49  38 36 37 49  38 39 37 49  38 50 48 49  38 39 51 49  38 50 51 49  36 40 52 53  36 40 41 53  36 37 41 53  36 48 52 53  36 37 49 53  36 48 49 53  40 42 54 55  40 42 43 55  40 41 43 55  40 52 54 55  40 41 53 55  40 52 53 55  42 44 56 57  42 44 45 57  42 43 45 57  42 54 56 57  42 43 55 57  42 54 55 57  44 46 58 59  44 46 47 59  44 45 47 59  44 56 58 59  44 45 57 59  44 56 57 59  50 48 60 61  50 48 49 61  50 51 49 61  50 62 60 61  50 51 63 61  50 62 63 61  48 52 64 65  48 52 53 65  48 49 53 65  48 60 64 65  48 49 61 65  48 60 61 65  52 54 66 67  52 54 55 67  52 53 55 67  52 64 66 67  52 53 65 67  52 64 65 67  54 56 68 69  54 56 57 69  54 55 57 69  54 66 68 69  54 55 67 69  54 66 67 69  56 58 70 71  56 58 59 71  56 57 59 71  56 68 70 71  56 57 69 71  56 68 69 71  62 60 72 73  62 60 61 73  62 63 61 73  62 74 72 73  62 63 75 73  62 74 75 73  60 64 76 77  60 64 65 77  60 61 65 77  60 72 76 77  60 61 73 77  60 72 73 77  64 66 78 79  64 66 67 79  64 65 67 79  64 76 78 79  64 65 77 79  64 76 77 79  66 68 80 81  66 68 69 81  66 67 69 81  66 78 80 81  66 67 79 81  66 78 79 81  68 70 82 83  68 70 71 83  68 69 71 83  68 80 82 83  68 69 81 83  68 80 81 83  74 72 84 85  74 72 73 85  74 75 73 85  74 86 84 85  74 75 87 85  74 86 87 85  72 76 88 89  72 76 77 89  72 73 77 89  72 84 88 89  72 73 85 89  72 84 85 89  76 78 90 91  76 78 79 91  76 77 79 91  76 88 90 91  76 77 89 91  76 88 89 91  78 80 92 93  78 80 81 93  78 79 81 93  78 90 92 93  78 79 91 93  78 90 91 93  80 82 94 95  80 82 83 95  80 81 83 95  80 92 94 95  80 81 93 95  80 92 93 95  86 84 96 97  86 84 85 97  86 87 85 97  86 98 96 97  86 87 99 97  86 98 99 97  84 88 100 101  84 88 89 101  84 85 89 101  84 96 100 101  84 85 97 101  84 96 97 101  88 90 102 103  88 90 91 103  88 89 91 103  88 100 102 103  88 89 101 103  88 100 101 103  90 92 104 105  90 92 93 105  90 91 93 105  90 102 104 105  90 91 103 105  90 102 103 105  92 94 106 107  92 94 95 107  92 93 95 107  92 104 106 107  92 93 105 107  92 104 105 107  98 96 108 109  98 96 97 109  98 99 97 109  98 110 108 109  98 99 111 109  98 110 111 109  96 100 112 113  96 100 101 113  96 97 101 113  96 108 112 113  96 97 109 113  96 108 109 113  100 102 114 115  100 102 103 115  100 101 103 115  100 112 114 115  100 101 113 115  100 112 113 115  102 104 116 117  102 104 105 117  102 103 105 117  102 114 116 117  102 103 115 117  102 114 115 117  104 106 118 119  104 106 107 119  104 105 107 119  104 116 118 119  104 105 117 119  104 116 117 119  110 108 120 121  110 108 109 121  110 111 109 121  110 122 120 121  110 111 123 121  110 122 123 121  108 112 124 125  108 112 113 125  108 109 113 125  108 120 124 125  108 109 121 125  108 120 121 125  112 114 126 127  112 114 115 127  112 113 115 127  112 124 126 127  112 113 125 127  112 124 125 127  114 116 128 129  114 116 117 129  114 115 117 129  114 126 128 129  114 115 127 129  114 126 127 129  116 118 130 131  116 118 119 131  116 117 119 131  116 128 130 131  116 117 129 131  116 128 129 131  5 4 3 132  5 4 133 132  5 134 133 132  5 7 3 132  5 134 135 132  5 7 135 132  4 11 10 136  4 11 137 136  4 133 137 136  4 3 10 136  4 133 132 136  4 3 132 136  11 15 14 138  11 15 139 138  11 137 139 138  11 10 14 138  11 137 136 138  11 10 136 138  15 19 18 140  15 19 141 140  15 139 141 140  15 14 18 140  15 139 138 140  15 14 138 140  19 23 22 142  19 23 143 142  19 141 143 142  19 18 22 142  19 141 140 142  19 18 140 142  7 3 25 144  7 3 132 144  7 135 132 144  7 27 25 144  7 135 145 144  7 27 145 144  3 10 29 146  3 10 136 146  3 132 136 146  3 25 29 146  3 132 144 146  3 25 144 146  10 14 31 147  10 14 138 147  10 136 138 147  10 29 31 147  10 136 146 147  10 29 146 147  14 18 33 148  14 18 140 148  14 138 140 148  14 31 33 148  14 138 147 148  14 31 147 148  18 22 35 149  18 22 142 149  18 140 142 149  18 33 35 149  18 140 148 149  18 33 148 149  27 25 37 150  27 25 144 150  27 145 144 150  27 39 37 150  27 145 151 150  27 39 151 150  25 29 41 152  25 29 146 152  25 144 146 152  25 37 41 152  25 144 150 152  25 37 150 152  29 31 43 153  29 31 147 153  29 146 147 153  29 41 43 153  29 146 152 153  29
[...]
<PointData  Vectors="f_16"> 
<DataArray  type="Float64"  Name="f_16"  NumberOfComponents="3" format="ascii">2.4383822631583821e-01 3.4345583850233952e-02 1.7816016249768552e-04  2.9508280124889658e-01 3.4302883921849055e-02 1.7926934484934265e-04  2.9509185054267634e-01 2.7484508188674036e-02 1.6562328923083849e-04  2.9509183141345002e-01 2.7486780841220068e-02 -9.7072523258526710e-04  2.9508278387397008e-01 3.4305153844806209e-02 -9.5718539778639230e-04  2.4383825824514296e-01 3.4347709558763928e-02 -9.5860849103853753e-04  2.4385609212207343e-01 2.7525669152193396e-02 1.6521711031997370e-04  2.4385611125068934e-01 2.7527807348052474e-02 -9.7123117710698362e-04  3.4631650705130962e-01 3.4279587307855575e-02 1.7994266120980055e-04  3.4632206109554109e-01 2.7461865650268584e-02 1.6597528413891100e-04  3.4632204780591064e-01 2.7464190255213287e-02 -9.7028655655245614e-04  3.4631649388273400e-01 3.4281912595205882e-02 -9.5637175139202761e-04  3.9754570425728297e-01 3.4264564147130951e-02 1.8025214206181700e-04  3.9754913846744655e-01 2.7447112602982788e-02 1.6617079672592264e-04  3.9754913224547672e-01 2.7449456370604225e-02 -9.7004938829606507e-04  3.9754569800632866e-01 3.4266908423428569e-02 -9.5600898123907475e-04  4.4877317339880446e-01 3.4255823933931236e-02 1.8037000965045845e-04  4.4877484120609290e-01 2.7438485416031288e-02 1.6624850493325829e-04  4.4877483900282189e-01 2.7440835880047296e-02 -9.6995339977683454e-04  4.4877317118137328e-01 3.4258174694037698e-02 -9.5586992655025951e-04  5.0000000000000000e-01 3.4252947229699827e-02 1.8039792960215366e-04  5.0000000000000000e-01 2.7435642230317182e-02 1.6626777561227907e-04  5.0000000000000000e-01 2.7437994200130888e-02 -9.6992875363788702e-04  5.0000000000000000e-01 3.4255299370709237e-02 -9.5583580930381346e-04  2.9510207322709259e-01 2.0666743733558909e-02 1.5195701616222237e-04  2.9510207393170662e-01 2.0669025550854776e-02 -9.8428472589395647e-04  2.4387339763089255e-01 2.0706566640976452e-02 1.5222169695449988e-04  2.4387343243041718e-01 2.0708744385875177e-02 -9.8400261578701653e-04  3.4632820579034135e-01 2.0644516677630554e-02 1.5201263462531945e-04  3.4632819898380246e-01 2.0646843665878777e-02 -9.8419539192695789e-04  3.9755283324937141e-01 2.0629916222151962e-02 1.5209308401603505e-04  3.9755282958839577e-01 2.0632260743427860e-02 -9.8408462862340797e-04  4.4877661463857893e-01 2.0621364530352591e-02 1.5212886326510341e-04  4.4877661325536183e-01 2.0623715191482823e-02 -9.8403403181079440e-04  5.0000000000000000e-01 2.0618547244433592e-02 1.5213858464676309e-04  5.0000000000000000e-01 2.0620899345420270e-02 -9.8401998157189910e-04  2.9511265214987176e-01 1.3849654579452364e-02 1.3819397034032808e-04  2.9511267186933643e-01 1.3851953601739020e-02 -9.9794115871781083e-04  2.4388891580905245e-01 1.3887464008548459e-02 1.3906320900393203e-04  2.4388896360720549e-01 1.3889696103152846e-02 -9.9702807615875688e-04  3.4633468548111923e-01 1.3827614867713696e-02 1.3802447934132056e-04  3.4633468499540893e-01 1.3829948249231788e-02 -9.9812841981442306e-04  3.9755671721894381e-01 1.3813006361066259e-02 1.3800591045845688e-04  3.9755671616410498e-01 1.3815353086432790e-02 -9.9812767295576654e-04  4.4877846980421393e-01 1.3804481780909825e-02 1.3800600530821858e-04  4.4877846923136855e-01 1.3806833216045797e-02 -9.9811697058454748e-04  5.0000000000000000e-01 1.3801680382166642e-02 1.3800733314505462e-04  5.0000000000000000e-01 1.3804032961983854e-02 -9.9811249713416435e-04  2.9512295554023893e-01 7.0332530671740048e-03 1.2429833161368216e-04  2.9512298828284100e-01 7.0355761966051106e-03 -1.0117431258524223e-03  2.4390297825090970e-01 7.0678731413210839e-03 1.2554524976717566e-04  2.4390303605579267e-01 7.0701676080824599e-03 -1.0104404841189318e-03  3.4634125653980669e-01 7.0111591195905218e-03 1.2398626756729154e-04  3.4634126031722479e-01 7.0135019848666545e-03 -1.0121127497220157e-03  3.9756071204614585e-01 6.9963968872313797e-03 1.2389942940456796e-04  3.9756071285129035e-01 6.9987469470675617e-03 -1.0121890851841802e-03  4.4878038118388264e-01 6.9878522232531227e-03 1.2387596066744749e-04  4.4878038118248997e-01 6.9902049035065680e-03 -1.0122064561941383e-03  5.0000000000000000e-01 6.9850556246694138e-03 1.2387155496830970e-04  5.0000000000000000e-01 6.9874089734467499e-03 -1.0122089745807498e-03  2.9513258201911224e-01 2.1745363254705423e-04 1.1024155991727055e-04  2.9513262000428708e-01 2.1980599302006342e-04 -1.0257259360494336e-03  2.4391602074314497e-01 2.4835992114298152e-04 1.1163099194022604e-04  2.4391607677638702e-01 2.5071689860447328e-04 -1.0242834154431462e-03  3.4634772973709876e-01 1.9509682632005230e-04 1.0987931297634681e-04  3.4634773501221872e-01 1.9745085970835529e-04 -1.0261676601140274e-03  3.9756474276177955e-01 1.8008762345919635e-04 1.0976745984641558e-04  3.9756474433890338e-01 1.8244160559178360e-04 -1.0262756359798932e-03  4.4878232165449494e-01 1.7148377351992232e-04 1.0973604089798347e-04  4.4878232188879769e-01 1.7383796211544101e-04 -1.0263054167446598e-03  5.0000000000000000e-01 1.6868176153975374e-04 1.0972961205478892e-04  5.0000000000000000e-01 1.7103603748165212e-04 -1.0263112789024480e-03  2.9514134043628820e-01 -6.5979293511228129e-03 9.6004612607336222e-05  2.9514137577397925e-01 -6.5955467731197556e-03 -1.0399082434292665e-03  2.4392815159444275e-01 -6.5702272891575006e-03 9.7263030452586206e-05  2.4392819948350319e-01 -6.5677989958979593e-03 -1.0386045253140052e-03  3.4635398485016028e-01 -6.6206375870881077e-03 9.5697755039861608e-05  3.4635398848781329e-01 -6.6182726835226652e-03 -1.0402995156117093e-03  3.9756874772177692e-01 -6.6359340100407421e-03 9.5608002354077284e-05  3.9756874887756671e-01 -6.6335761205923802e-03 -1.0403896914490804e-03  4.4878426482296291e-01 -6.6446221736518804e-03 9.5585343268810201e-05  4.4878426492708889e-01 -6.6422664807041275e-03 -1.0404149919893213e-03  5.0000000000000000e-01 -6.6474376012996723e-03 9.5581025142903972e-05  5.0000000000000000e-01 -6.6450824070370309e-03 -1.0404201301665863e-03  2.9514919054520100e-01 -1.3413045827530563e-02 8.1598774861328964e-05  2.9514921431547697e-01 -1.3410637860106078e-02 -1.0542795628845966e-03  2.4393897594356193e-01 -1.3387640736892265e-02 8.2454837053956185e-05  2.4393900891263504e-01 -1.3385143669344207e-02 -1.0533913919725411e-03  3.4635997679928188e-01 -1.3436114682933596e-02 8.1446679270181775e-05  3.4635997592947354e-01 -1.3433740509033039e-02 -1.0545026458875044e-03  3.9757268232328591e-01 -1.3451687904842951e-02 8.1423452771460186e-05  3.9757268196715356e-01 -1.3449326776125689e-02 -1.0545290361444375e-03  4.4878618566547457e-01 -1.3460469240927333e-02 8.1424960880957184e-05  4.4878618530350306e-01 -1.3458112314065313e-02 -1.0545343391860163e-03  5.0000000000000000e-01 -1.3463304316317254e-02 8.1426534083192456e-05  5.0000000000000000e-01 -1.3460948370997606e-02 -1.0545350372924713e-03  2.9515624141981667e-01 -2.0228019532184761e-02 6.7047531668708351e-05  2.9515624676835611e-01 -2.0225593369108737e-02 -1.0688117960461760e-03  2.4394779811984274e-01 -2.0203913888449963e-02 6.7333559404779281e-05  2.4394779850911524e-01 -2.0201359171424082e-02 -1.0685494287108323e-03  3.4636573576956442e-01 -2.0251404157327273e-02 6.7142202040916754e-05  3.4636572836589491e-01 -2.0249023636606658e-02 -1.0687594955113317e-03  3.9757651568881824e-01 -2.0267191130975415e-02 6.7220644791461215e-05  3.9757651301541430e-01 -2.0264828017924383e-02 -1.0686869783518263e-03  4.4878806023271672e-01 -2.0276065406316119e-02 6.7257703782048085e-05  4.4878805917667697e-01 -2.0273707698323137e-02 -1.0686608839909544e-03  5.0000000000000000e-01 -2.0278925857460554e-02 6.7267960763650432e-05  5.0000000000000000e-01 -2.0276569453665953e-02 -1.0686544367788664e-03  2.9516288625714543e-01 -2.7043047052110775e-02 5.2391281761072312e-05  2.9516287431361432e-01 -2.7040613609628058e-02 -1.0834459419572417e-03  2.4395369112530516e-01 -2.7019169090407951e-02 5.2048451247505725e-05  2.4395363420011928e-01 -2.7016548112139389e-02 -1.0839919733579451e-03  3.4637134069115205e-01 -2.7066533588954101e-02 5.2811636303089354e-05  3.4637132619973149e-01 -2.7064150548691355e-02 -1.0830426539841088e-03  3.9758022321712350e-01 -2.7082453158754672e-02 5.3009538073890830e-05  3.9758021824822004e-01 -2.7080089544291176e-02 -1.0828534962758357e-03  4.4878986430575879e-01 -2.7091422962242019e-02 5.3087578528481809e-05  4.4878986256399916e-01 -2.7089065021627282e-02 -1.0827909277058739e-03  5.0000000000000000e-01 -2.7094315309382243e-02 5.3107942208411882e-05  5.0000000000000000e-01 -2.7091958793903179e-02 -1.0827759670040456e-03  2.9516971252726115e-01 -3.3858259901428781e-02 3.7730853882874292e-05  2.9516969432955736e-01 -3.3855840695329091e-02 -1.0980572053246216e-03  2.4395750588765588e-01 -3.3834121643441094e-02 3.6498984912273140e-05  2.4395749353349835e-01 -3.3831400569091806e-02 -1.1000201261487552e-03  3.4637686679114721e-01 -3.3881455365465211e-02 3.8486714052055430e-05  3.4637685389486189e-01 -3.3879071097412915e-02 -1.0973240188153258e-03  3.9758377382621396e-01 -3.3897481272027317e-02 3.8802453920769027e-05  3.9758376885634589e-01 -3.3895118515129330e-02 -1.0970148599942151e-03  4.4879157095711120e-01 -3.3906559246186588e-02 3.8919439317852460e-05  4.4879156927752706e-01 -3.3904201426232898e-02 -1.0969195542454633e-03  5.0000000000000000e-01 -3.3909491957718918e-02 3.8949617787219550e-05  5.0000000000000000e-01 -3.3907135607140829e-02 -1.0968965920281095e-03  2.9509180610692043e-01 2.7489034757373944e-02 -2.1070748742977579e-03  2.9508275738921536e-01 3.4307407327669105e-02 -2.0936403677820170e-03  2.4383828854696615e-01 3.4349790340138929e-02 -2.0953740381743726e-03  2.4385613174077811e-01 2.7529904880221244e-02 -2.1076778801332428e-03  3.4632203132334444e-01 2.7466505860710713e-02 -2.1065487447139188e-03  3.4631647653789543e-01 3.4284229574301481e-02 -2.0926863423870530e-03  3.9754912465988118e-01 2.7451793089488745e-02 -2.1062697968163265e-03  3.9754569008055141e-01 3.4269245993540323e-02 -2.0922702198780175e-03  4.4877483626298281e-01 2.7443179895391481e-02 -2.1061553978974279e-03  4.4877316834455960e-01 3.4260519170672563e-02 -2.0921099188047315e-03  5.0000000000000000e-01 2.7440339877197337e-02 -2.1061253420500202e-03  5.0000000000000000e-01 3.4257645361586493e-02 -2.0920695716094909e-03  2.9510207335621902e-01 2.0671289157480163e-02 -2.1205275942882454e-03  2.4387348360959149e-01 2.0710891638938383e-02 -2.1202350120289076e-03  3.4632819040975615e-01 2.0649161319759302e-02 -2.1204041060621870e-03  3.9755282495861677e-01 2.0634597954992839e-02 -2.1202626715891037e-03  4.4877661145932707e-01 2.0626059248232090e-02 -2.1201970527418229e-03  5.0000000000000000e-01 2.0623245032017432e-02 -2.1201786292107420e-03  2.9511269332907136e-01 1.3854235238804552e-02 -2.1340769482078902e-03  2.4388903960649702e-01 1.3891909835721826e-02 -2.1331350919691888e-03  3.4633468394696920e-01 1.3832272355118023e-02 -2.1342824315509789e-03  3.9755671449401003e-01 1.3817692319366765e-02 -2.1342616538730340e-03  4.4877846836607838e-01 1.3809177915033303e-02 -2.1342401072101456e-03  5.0000000000000000e-01 1.3806379018559248e-02 -2.1342324316860756e-03  2.9512302422875214e-01 7.0378850439036123e-03 -2.1477847386950845e-03  2.4390312842484693e-01 7.0724446931602035e-03 -2.1464467268257625e-03  3.4634126459138986e-01 7.0158359852353653e-03 -2.1482132896228391e-03  3.9756071336103466e-01 7.0010894147229958e-03 -2.1482780243598119e-03  4.4878038101656059e-01 6.9925507693773077e-03 -2.1482890614757527e-03  5.0000000000000000e-01 6.9897557287321209e-03 -2.1482896239645205e-03  2.9513266205034139e-01 2.2214811591261677e-04 -2.1616936438241855e-03  2.4391616910482264e-01 2.5306188545516818e-04 -2.1602203543222781e-03  3.4634774148974762e-01 1.9979634786982127e-04 -2.1622163480055994e-03  3.9756474588186203e-01 1.8478801154003097e-04 -2.1623191334628955e-03  4.4878232208960478e-01 1.7618530455241091e-04 -2.1623470752361066e-03  5.0000000000000000e-01 1.7338368877319320e-04 -2.1623522919938104e-03  2.9514141538193728e-01 -6.5931714413832946e-03 -2.1758211468504256e-03  2.4392828274227926e-01 -6.5653750785714211e-03 -2.1744950150602198e-03  3.4635399357943136e-01 -6.6159159068057407e-03 -2.1762984274969759e-03  3.9756875021255900e-01 -6.6312257281345979e-03 -2.1763877482454774e-03  4.4878426512770259e-01 -6.6399176300157162e-03 -2.1764155185929135e-03  5.0000000000000000e-01 -6.6427338267131160e-03 -2.1764213977599825e-03  2.9514924158681877e-01 -1.3408234721071357e-02 -2.1901577066842730e-03  2.4393907578116900e-01 -1.3382642363882546e-02 -2.1892574213189507e-03  3.4635997635624743e-01 -1.3431374050654397e-02 -2.1904534359938593e-03  3.9757268197037227e-01 -1.3446973076847472e-02 -2.1904818171006816e-03  4.4878618516653657e-01 -1.3455762188633834e-02 -2.1904938019491516e-03  5.0000000000000000e-01 -1.3458598987681775e-02 -2.1904967032471598e-03  2.9515625337536860e-01 -2.0223170572679902e-02 -2.2046703989707854e-03  2.4394782941980322e-01 -2.0198788385909102e-02 -2.2044513308885627e-03  3.4636572182121361e-01 -2.0246650629504190e-02 -2.2046624033392717e-03  3.9757651086492080e-01 -2.0262472313233755e-02 -2.2045947897148086e-03  4.4878805847638809e-01 -2.0271356712555148e-02 -2.2045795987262733e-03  5.0000000000000000e-01 -2.0274219521658286e-02 -2.2045769056980831e-03  2.9516285956222177e-01 -2.7038184319382968e-02 -2.2192825497110449e-03  2.4395359930972968e-01 -2.7013881988018917e-02 -2.2200508977706567e-03  3.4637131188525350e-01 -2.7061774977704969e-02 -2.2188976662884247e-03  3.9758021395220777e-01 -2.7077733438871359e-02 -2.2187166471019319e-03  4.4878986130675608e-01 -2.7086713713484756e-02 -2.2186695094942718e-03  5.0000000000000000e-01 -2.7089608634701442e-02 -2.2186599270584092e-03  2.9516967182251713e-01 -3.3853433025528699e-02 -2.2338350651825499e-03  2.4395748139063181e-01 -3.3828578354886785e-02 -2.2365934073887359e-03  3.4637683998696323e-01 -3.3876694612385544e-02 -2.2331365259898399e-03  3.9758376456562017e-01 -3.3892763317066511e-02 -2.2328320338248476e-03  4.4879156809836523e-01 -3.3901850137954562e-02 -2.2327586338065507e-03  5.0000000000000000e-01 -3.3904785487488258e-02 -2.2327428238499056e-03  2.9509177457242614e-01 2.7491269628597461e-02 -3.2434258888339260e-03  2.9508271921046020e-01 3.4309644802196032e-02 -3.2300953390521758e-03  2.4383830814144994e-01 3.4351825681980412e-02 -3.2321370108190470e-03  2.4385614749337228e-01 2.7531963639798311e-02 -3.2441193744084970e-03  3.4632201149644659e-01 2.7468812486848425e-02 -3.2428112981735223e-03  3.4631645418560553e-01 3.4286538318589008e-02 -3.2290011017513851e-03  3.9754911570317691e-01 2.7454122748503913e-02 -3.2424904285459299e-03  3.9754568024139708e-01 3.4271576906458337e-02 -3.2285315614528514e-03  4.4877483298455778e-01 2.7445517453628346e-02 -3.2423574907095958e-03  4.4877316482740431e-01 3.4262857383673774e-02 -3.2283499652481342e-03  5.0000000000000000e-01 2.7442679257281333e-02 -3.2423219943365912e-03  5.0000000000000000e-01 3.4259985207726863e-02 -3.2283033466913511e-03  2.9510207205702738e-01 2.0673533880718992e-02 -3.2567723555914645e-03  2.4387354371934111e-01 2.0713008293613881e-02 -3.2564720391175779e-03  3.4632818001838506e-01 2.0651469659066956e-02 -3.2566134379950181e-03  3.9755281942430404e-01 2.0636927821553130e-02 -3.2564410483723015e-03  4.4877660926801605e-01 2.0628396688961846e-02 -3.2563601947690093e-03  5.0000000000000000e-01 2.0625584295970289e-02 -3.2563373557633387e-03  2.9511271723859500e-01 1.3856499030468953e-02 -3.2702145454089416e-03  2.4388913436077758e-01 1.3894104163796637e-02 -3.2692504199758007e-03  3.4633468230274084e-01 1.3834587166316943e-02 -3.2704375068922913e-03  3.9755671230949757e-01 1.3820024031384569e-02 -3.2703960375587370e-03  4.4877846723258108e-01 1.3811515872471140e-02 -3.2703633999926918e-03  5.0000000000000000e-01 1.3808718546341629e-02 -3.2703524698743797e-03  2.9512306413714368e-01 7.0401791565838524e-03 -3.2838287624499976e-03  2.4390324509805819e-01 7.0747035048200043e-03 -3.2824634239267689e-03  3.4634126933385562e-01 7.0181611395226428e-03 -3.2843151831402836e-03  3.9756071370183405e-01 7.0034242843209785e-03 -3.2843673992319347e-03  4.4878038071340215e-01 6.9948898242099041e-03 -3.2843718514880111e-03  5.0000000000000000e-01 6.9920958911353350e-03 -3.2843703923537914e-03  2.9513270902963240e-01 2.2447991747891834e-04 -3.2976638106284387e-03  2.4391628732032114e-01 2.5539419620944191e-04 -3.2961723233925207e-03  3.4634774914743804e-01 2.0213334373579009e-04 -3.2982664713756119e-03  3.9756474752568655e-01 1.8712685662922724e-04 -3.2983630677990644e-03  4.4878232228375320e-01 1.7852581428638996e-04 -3.2983889271002067e-03  5.0000000000000000e-01 1.7572472273138127e-04 -3.2983934266107092e-03  2.9514146029840083e-01 -6.5908032576697745e-03 -3.3117360234370071e-03  2.4392839129111282e-01 -6.5629551125826989e-03 -3.3104005395549999e-03  3.4635400008287670e-01 -6.6135671712406301e-03 -3.3122987445518030e-03  3.9756875185601859e-01 -6.6288827919925384e-03 -3.3123862052954621e-03  4.4878426544829980e-01 -6.6375756009337799e-03 -3.3124162254700757e-03  5.0000000000000000e-01 -6.6403918466691149e-03 -3.3124227783312829e-03  2.9514927359902360e-01 -1.3405835952058076e-02 -3.3260375044739314e-03  2.4393916707763330e-01 -1.3380136528016420e-02 -3.3251347669939046e-03  3.4635997799747087e-01 -1.3429015195759656e-02 -3.3264054854439421e-03  3.9757268244222488e-01 -1.3444626756770215e-02 -3.3264349127766343e-03  4.4878618527222264e-01 -1.3453418839481847e-02 -3.3264534174088337e-03  5.0000000000000000e-01 -1.3456256148252977e-02 -3.3264584650678033e-03  2.9515626265642247e-01 -2.0220750241013670e-02 -3.3405302783806614e-03  2.4394788168283060e-01 -2.0196202395048702e-02 -3.3403619117426801e-03  3.4636571595325244e-01 -2.0244285123803281e-02 -3.3405662638371515e-03  3.9757650931384036e-01 -2.0260123953964874e-02 -3.3405028081872450e-03  4.4878805814186912e-01 -2.0269012423564138e-02 -3.3404984330428931e-03  5.0000000000000000e-01 -2.0271876042120246e-02 -3.3404994467145619e-03  2.9516284330980408e-01 -2.7035759937685769e-02 -3.3551210803655961e-03  2.4395357574992463e-01 -2.7011168241791193e-02 -3.3561195234339180e-03  3.4637129729430172e-01 -2.7059406738206164e-02 -3.3547530057487199e-03  3.9758021034066832e-01 -2.7075384799374120e-02 -3.3545799397768574e-03  4.4878986052957642e-01 -2.7084369006555888e-02 -3.3545481479785285e-03  5.0000000000000000e-01 -2.7087264819156683e-02 -3.3545439372315057e-03  2.9516964314162192e-01 -3.3851038572881909e-02 -3.3696022618914883e-03  2.4395744986786280e-01 -3.3825629997470560e-02 -3.3732231997695775e-03  3.4637682372824663e-01 -3.3874325726800325e-02 -3.3689505958840221e-03  3.9758376083686137e-01 -3.3890415775658815e-02 -3.3686491530482525e-03  4.4879156739960430e-01 -3.3899505395619291e-02 -3.3685977859963358e-03  5.0000000000000000e-01 -3.3902441602270052e-02 -3.3685890767250282e-03  2.9509173681767725e-01 2.7493485714791741e-02 -4.3797783879547508e-03  2.9508266564907176e-01 3.4311867374531742e-02 -4.3665501402765511e-03  2.4383830415039953e-01 3.4353812380308310e-02 -4.3688975397782716e-03  2.4385615336899377e-01 2.7533984174666973e-02 -4.3805542663142658e-03  3.4632198816361504e-01 2.7471110189071172e-02 -4.3790742273826970e-03  3.4631642573598581e-01 3.4288839062551930e-02 -4.3653160178756915e-03  3.9754910536755939e-01 2.7456445337271262e-02 -4.3787112667918538e-03  3.9754566819589976e-01 3.4273901254608628e-02 -4.3647930000465292e-03  4.4877482916910633e-01 2.7447848542995652e-02 -4.3785596735760567e-03  4.4877316056615862e-01 3.4265189369044352e-02 -4.3645900661062123e-03  5.0000000000000000e-01 2.7445012338622243e-02 -4.3785187118408741e-03  5.0000000000000000e-01 3.4262318912376341e-02 -4.3645371319995553e-03  2.9510207037480113e-01 2.0675758917285684e-02 -4.3930196998623596e-03  2.4387360225999041e-01 2.0715092479106089e-02 -4.3927113801738582e-03  3.4632816772070874e-01 2.0653768691402272e-02 -4.3928233442241272e-03  3.9755281305558965e-01 2.0639