<?xml version="1.0"?>
<VTKFile type="UnstructuredGrid"  version="0.1"  >
<UnstructuredGrid>
<Piece  NumberOfPoints="397" NumberOfCells="1500">
<Points>
<DataArray  type="Float64"  NumberOfComponents="3"  format="ascii">0 0 0  1 0 0  1 0.3 0  1 0.3 0.05  1 0 0.05  0 0 0.05  0 0.3 0  0 0.3 0.05  2 0 0  2 0.3 0  2 0.3 0.05  2 0 0.05  3 0 0  3 0.3 0  3 0.3 0.05  3 0 0.05  4 0 0  4 0.3 0  4 0.3 0.05  4 0 0.05  5 0 0  5 0.3 0  5 0.3 0.05  5 0 0.05  1 0.6 0  1 0.6 0.05  0 0.6 0  0 0.6 0.05  2 0.6 0  2 0.6 0.05  3 0.6 0  3 0.6 0.05  4 0.6 0  4 0.6 0.05  5 0.6 0  5 0.6 0.05  1 0.9 0  1 0.9 0.05  0 0.9 0  0 0.9 0.05  2 0.9 0  2 0.9 0.05  3 0.9 0  3 0.9 0.05  4 0.9 0  4 0.9 0.05  5 0.9 0  5 0.9 0.05  1 1.2 0  1 1.2 0.05  0 1.2 0  0 1.2 0.05  2 1.2 0  2 1.2 0.05  3 1.2 0  3 1.2 0.05  4 1.2 0  4 1.2 0.05  5 1.2 0  5 1.2 0.05  1 1.5 0  1 1.5 0.05  0 1.5 0  0 1.5 0.05  2 1.5 0  2 1.5 0.05  3 1.5 0  3 1.5 0.05  4 1.5 0  4 1.5 0.05  5 1.5 0  5 1.5 0.05  1 1.8 0  1 1.8 0.05  0 1.8 0  0 1.8 0.05  2 1.8 0  2 1.8 0.05  3 1.8 0  3 1.8 0.05  4 1.8 0  4 1.8 0.05  5 1.8 0  5 1.8 0.05  1 2.1 0  1 2.1 0.05  0 2.1 0  0 2.1 0.05  2 2.1 0  2 2.1 0.05  3 2.1 0  3 2.1 0.05  4 2.1 0  4 2.1 0.05  5 2.1 0  5 2.1 0.05  1 2.4 0  1 2.4 0.05  0 2.4 0  0 2.4 0.05  2 2.4 0  2 2.4 0.05  3 2.4 0  3 2.4 0.05  4 2.4 0  4 2.4 0.05  5 2.4 0  5 2.4 0.05  1 2.7 0  1 2.7 0.05  0 2.7 0  0 2.7 0.05  2 2.7 0  2 2.7 0.05  3 2.7 0  3 2.7 0.05  4 2.7 0  4 2.7 0.05  5 2.7 0  5 2.7 0.05  1 3 0  1 3 0.05  0 3 0  0 3 0.05  2 3 0  2 3 0.05  3 3 0  3 3 0.05  4 3 0  4 3 0.05  5 3 0  5 3 0.05  1 0.3 0.1  1 0 0.1  0 0 0.1  0 0.3 0.1  2 0.3 0.1  2 0 0.1  3 0.3 0.1  3 0 0.1  4 0.3 0.1  4 0 0.1  5 0.3 0.1  5 0 0.1  1 0.6 0.1  0 0.6 0.1  2 0.6 0.1  3 0.6 0.1  4 0.6 0.1  5 0.6 0.1  1 0.9 0.1  0 0.9 0.1  2 0.9 0.1  3 0.9 0.1  4 0.9 0.1  5 0.9 0.1  1 1.2 0.1  0 1.2 0.1  2 1.2 0.1  3 1.2 0.1  4 1.2 0.1  5 1.2 0.1  1 1.5 0.1  0 1.5 0.1  2 1.5 0.1  3 1.5 0.1  4 1.5 0.1  5 1.5 0.1  1 1.8 0.1  0 1.8 0.1  2 1.8 0.1  3 1.8 0.1  4 1.8 0.1  5 1.8 0.1  1 2.1 0.1  0 2.1 0.1  2 2.1 0.1  3 2.1 0.1  4 2.1 0.1  5 2.1 0.1  1 2.4 0.1  0 2.4 0.1  2 2.4 0.1  3 2.4 0.1  4 2.4 0.1  5 2.4 0.1  1 2.7 0.1  0 2.7 0.1  2 2.7 0.1  3 2.7 0.1  4 2.7 0.1  5 2.7 0.1  1 3 0.1  0 3 0.1  2 3 0.1  3 3 0.1  4 3 0.1  5 3 0.1  1 0.3 0.15  1 0 0.15  0 0 0.15  0 0.3 0.15  2 0.3 0.15  2 0 0.15  3 0.3 0.15  3 0 0.15  4 0.3 0.15  4 0 0.15  5 0.3 0.15  5 0 0.15  1 0.6 0.15  0 0.6 0.15  2 0.6 0.15  3 0.6 0.15  4 0.6 0.15  5 0.6 0.15  1 0.9 0.15  0 0.9 0.15  2 0.9 0.15  3 0.9 0.15  4 0.9 0.15  5 0.9 0.15  1 1.2 0.15  0 1.2 0.15  2 1.2 0.15  3 1.2 0.15  4 1.2 0.15  5 1.2 0.15  1 1.5 0.15  0 1.5 0.15  2 1.5 0.15  3 1.5 0.15  4 1.5 0.15  5 1.5 0.15  1 1.8 0.15  0 1.8 0.15  2 1.8 0.15  3 1.8 0.15  4 1.8 0.15  5 1.8 0.15  1 2.1 0.15  0 2.1 0.15  2 2.1 0.15  3 2.1 0.15  4 2.1 0.15  5 2.1 0.15  1 2.4 0.15  0 2.4 0.15  2 2.4 0.15  3 2.4 0.15  4 2.4 0.15  5 2.4 0.15  1 2.7 0.15  0 2.7 0.15  2 2.7 0.15  3 2.7 0.15  4 2.7 0.15  5 2.7 0.15  1 3 0.15  0 3 0.15  2 3 0.15  3 3 0.15  4 3 0.15  5 3 0.15  1 0.3 0.2  1 0 0.2  0 0.3 0.2  2 0.3 0.2  2 0 0.2  3 0.3 0.2  3 0 0.2  4 0.3 0.2  4 0 0.2  5 0.3 0.2  5 0 0.2  1 0.6 0.2  0 0.6 0.2  2 0.6 0.2  3 0.6 0.2  4 0.6 0.2  5 0.6 0.2  1 0.9 0.2  0 0.9 0.2  2 0.9 0.2  3 0.9 0.2  4 0.9 0.2  5 0.9 0.2  1 1.2 0.2  0 1.2 0.2  2 1.2 0.2  3 1.2 0.2  4 1.2 0.2  5 1.2 0.2  1 1.5 0.2  0 1.5 0.2  2 1.5 0.2  3 1.5 0.2  4 1.5 0.2  5 1.5 0.2  1 1.8 0.2  0 1.8 0.2  2 1.8 0.2  3 1.8 0.2  4 1.8 0.2  5 1.8 0.2  1 2.1 0.2  0 2.1 0.2  2 2.1 0.2  3 2.1 0.2  4 2.1 0.2  5 2.1 0.2  1 2.4 0.2  0 2.4 0.2  2 2.4 0.2  3 2.4 0.2  4 2.4 0.2  5 2.4 0.2  1 2.7 0.2  0 2.7 0.2  2 2.7 0.2  3 2.7 0.2  4 2.7 0.2  5 2.7 0.2  1 3 0.2  0 3 0.2  2 3 0.2  3 3 0.2  4 3 0.2  5 3 0.2  1 1.5 0.25  2 1.5 0.25  3 1.5 0.25  4 1.5 0.25  5 1.5 0.25  1 1.8 0.25  0 1.8 0.25  2 1.8 0.25  3 1.8 0.25  4 1.8 0.25  5 1.8 0.25  1 2.1 0.25  0 2.1 0.25  2 2.1 0.25  3 2.1 0.25  4 2.1 0.25  5 2.1 0.25  1 2.4 0.25  0 2.4 0.25  2 2.4 0.25  3 2.4 0.25  4 2.4 0.25  5 2.4 0.25  1 2.7 0.25  0 2.7 0.25  2 2.7 0.25  3 2.7 0.25  4 2.7 0.25  5 2.7 0.25  1 3 0.25  0 3 0.25  2 3 0.25  3 3 0.25  4 3 0.25  5 3 0.25  2 1.8 0.3  3 1.8 0.3  4 1.8 0.3  5 1.8 0.3  1 2.1 0.3  0 2.1 0.3  2 2.1 0.3  3 2.1 0.3  4 2.1 0.3  5 2.1 0.3  1 2.4 0.3  0 2.4 0.3  2 2.4 0.3  3 2.4 0.3  4 2.4 0.3  5 2.4 0.3  1 2.7 0.3  0 2.7 0.3  2 2.7 0.3  3 2.7 0.3  4 2.7 0.3  5 2.7 0.3  1 3 0.3  0 3 0.3  2 3 0.3  3 3 0.3  4 3 0.3  5 3 0.3  5 2.7 0.35  2 3 0.35  3 3 0.35  4 3 0.35  5 3 0.35  </DataArray>
</Points>
<Cells>
<DataArray  type="UInt32"  Name="connectivity"  format="ascii">0 1 2 3  0 1 4 3  0 5 4 3  0 6 2 3  0 5 7 3  0 6 7 3  1 8 9 10  1 8 11 10  1 4 11 10  1 2 9 10  1 4 3 10  1 2 3 10  8 12 13 14  8 12 15 14  8 11 15 14  8 9 13 14  8 11 10 14  8 9 10 14  12 16 17 18  12 16 19 18  12 15 19 18  12 13 17 18  12 15 14 18  12 13 14 18  16 20 21 22  16 20 23 22  16 19 23 22  16 17 21 22  16 19 18 22  16 17 18 22  6 2 24 25  6 2 3 25  6 7 3 25  6 26 24 25  6 7 27 25  6 26 27 25  2 9 28 29  2 9 10 29  2 3 10 29  2 24 28 29  2 3 25 29  2 24 25 29  9 13 30 31  9 13 14 31  9 10 14 31  9 28 30 31  9 10 29 31  9 28 29 31  13 17 32 33  13 17 18 33  13 14 18 33  13 30 32 33  13 14 31 33  13 30 31 33  17 21 34 35  17 21 22 35  17 18 22 35  17 32 34 35  17 18 33 35  17 32 33 35  26 24 36 37  26 24 25 37  26 27 25 37  26 38 36 37  26 27 39 37  26 38 39 37  24 28 40 41  24 28 29 41  24 25 29 41  24 36 40 41  24 25 37 41  24 36 37 41  28 30 42 43  28 30 31 43  28 29 31 43  28 40 42 43  28 29 41 43  28 40 41 43  30 32 44 45  30 32 33 45  30 31 33 45  30 42 44 45  30 31 43 45  30 42 43 45  32 34 46 47  32 34 35 47  32 33 35 47  32 44 46 47  32 33 45 47  32 44 45 47  38 36 48 49  38 36 37 49  38 39 37 49  38 50 48 49  38 39 51 49  38 50 51 49  36 40 52 53  36 40 41 53  36 37 41 53  36 48 52 53  36 37 49 53  36 48 49 53  40 42 54 55  40 42 43 55  40 41 43 55  40 52 54 55  40 41 53 55  40 52 53 55  42 44 56 57  42 44 45 57  42 43 45 57  42 54 56 57  42 43 55 57  42 54 55 57  44 46 58 59  44 46 47 59  44 45 47 59  44 56 58 59  44 45 57 59  44 56 57 59  50 48 60 61  50 48 49 61  50 51 49 61  50 62 60 61  50 51 63 61  50 62 63 61  48 52 64 65  48 52 53 65  48 49 53 65  48 60 64 65  48 49 61 65  48 60 61 65  52 54 66 67  52 54 55 67  52 53 55 67  52 64 66 67  52 53 65 67  52 64 65 67  54 56 68 69  54 56 57 69  54 55 57 69  54 66 68 69  54 55 67 69  54 66 67 69  56 58 70 71  56 58 59 71  56 57 59 71  56 68 70 71  56 57 69 71  56 68 69 71  62 60 72 73  62 60 61 73  62 63 61 73  62 74 72 73  62 63 75 73  62 74 75 73  60 64 76 77  60 64 65 77  60 61 65 77  60 72 76 77  60 61 73 77  60 72 73 77  64 66 78 79  64 66 67 79  64 65 67 79  64 76 78 79  64 65 77 79  64 76 77 79  66 68 80 81  66 68 69 81  66 67 69 81  66 78 80 81  66 67 79 81  66 78 79 81  68 70 82 83  68 70 71 83  68 69 71 83  68 80 82 83  68 69 81 83  68 80 81 83  74 72 84 85  74 72 73 85  74 75 73 85  74 86 84 85  74 75 87 85  74 86 87 85  72 76 88 89  72 76 77 89  72 73 77 89  72 84 88 89  72 73 85 89  72 84 85 89  76 78 90 91  76 78 79 91  76 77 79 91  76 88 90 91  76 77 89 91  76 88 89 91  78 80 92 93  78 80 81 93  78 79 81 93  78 90 92 93  78 79 91 93  78 90 91 93  80 82 94 95  80 82 83 95  80 81 83 95  80 92 94 95  80 81 93 95  80 92 93 95  86 84 96 97  86 84 85 97  86 87 85 97  86 98 96 97  86 87 99 97  86 98 99 97  84 88 100 101  84 88 89 101  84 85 89 101  84 96 100 101  84 85 97 101  84 96 97 101  88 90 102 103  88 90 91 103  88 89 91 103  88 100 102 103  88 89 101 103  88 100 101 103  90 92 104 105  90 92 93 105  90 91 93 105  90 102 104 105  90 91 103 105  90 102 103 105  92 94 106 107  92 94 95 107  92 93 95 107  92 104 106 107  92 93 105 107  92 104 105 107  98 96 108 109  98 96 97 109  98 99 97 109  98 110 108 109  98 99 111 109  98 110 111 109  96 100 112 113  96 100 101 113  96 97 101 113  96 108 112 113  96 97 109 113  96 108 109 113  100 102 114 115  100 102 103 115  100 101 103 115  100 112 114 115  100 101 113 115  100 112 113 115  102 104 116 117  102 104 105 117  102 103 105 117  102 114 116 117  102 103 115 117  102 114 115 117  104 106 118 119  104 106 107 119  104 105 107 119  104 116 118 119  104 105 117 119  104 116 117 119  110 108 120 121  110 108 109 121  110 111 109 121  110 122 120 121  110 111 123 121  110 122 123 121  108 112 124 125  108 112 113 125  108 109 113 125  108 120 124 125  108 109 121 125  108 120 121 125  112 114 126 127  112 114 115 127  112 113 115 127  112 124 126 127  112 113 125 127  112 124 125 127  114 116 128 129  114 116 117 129  114 115 117 129  114 126 128 129  114 115 127 129  114 126 127 129  116 118 130 131  116 118 119 131  116 117 119 131  116 128 130 131  116 117 129 131  116 128 129 131  5 4 3 132  5 4 133 132  5 134 133 132  5 7 3 132  5 134 135 132  5 7 135 132  4 11 10 136  4 11 137 136  4 133 137 136  4 3 10 136  4 133 132 136  4 3 132 136  11 15 14 138  11 15 139 138  11 137 139 138  11 10 14 138  11 137 136 138  11 10 136 138  15 19 18 140  15 19 141 140  15 139 141 140  15 14 18 140  15 139 138 140  15 14 138 140  19 23 22 142  19 23 143 142  19 141 143 142  19 18 22 142  19 141 140 142  19 18 140 142  7 3 25 144  7 3 132 144  7 135 132 144  7 27 25 144  7 135 145 144  7 27 145 144  3 10 29 146  3 10 136 146  3 132 136 146  3 25 29 146  3 132 144 146  3 25 144 146  10 14 31 147  10 14 138 147  10 136 138 147  10 29 31 147  10 136 146 147  10 29 146 147  14 18 33 148  14 18 140 148  14 138 140 148  14 31 33 148  14 138 147 148  14 31 147 148  18 22 35 149  18 22 142 149  18 140 142 149  18 33 35 149  18 140 148 149  18 33 148 149  27 25 37 150  27 25 144 150  27 145 144 150  27 39 37 150  27 145 151 150  27 39 151 150  25 29 41 152  25 29 146 152  25 144 146 152  25 37 41 152  25 144 150 152  25 37 150 152  29 31 43 153  29 31 147 153  29 146 147 153  29 41 43 153  29 146 152 153  29 41 152 153  31 33 45 154  31 33 148 154  31 147 148 154  31 43 45 154  31 147 153 154  31 43 153 154  33 35 47 155  33 35 149 155  33 148 149 155  33 45 47 155  33 148 154 155  33 45 154 155  39 37 49 156  39 37 150 15
[...]
<PointData  Vectors="f_16"> 
<DataArray  type="Float64"  Name="f_16"  NumberOfComponents="3" format="ascii">0.0000000000000000e+00 0.0000000000000000e+00 0.0000000000000000e+00  4.2620821943685279e-02 3.1995967400661414e-02 6.3351697556743927e-03  4.0370772146065187e-02 2.5589788447489333e-02 7.0654144629484364e-03  4.0506475883627470e-02 2.5531061060958576e-02 5.8644305706228436e-03  4.2634085752540601e-02 3.1802280208227549e-02 5.2532618271274372e-03  0.0000000000000000e+00 0.0000000000000000e+00 0.0000000000000000e+00  0.0000000000000000e+00 0.0000000000000000e+00 0.0000000000000000e+00  0.0000000000000000e+00 0.0000000000000000e+00 0.0000000000000000e+00  9.1217962307894473e-02 3.4638800143691174e-02 5.7418573050441197e-03  9.0925694174566404e-02 2.7931130392611504e-02 5.7263567468100072e-03  9.0935779638940187e-02 2.7935041188304258e-02 4.6164870653140431e-03  9.1223577524121482e-02 3.4636423951405697e-02 4.6396214344848821e-03  1.4151649977115177e-01 3.4686479279211431e-02 5.8289845266963338e-03  1.4150376264551975e-01 2.7905936740541582e-02 5.8430129508633341e-03  1.4150017079501842e-01 2.7903607231675811e-02 4.7109112036384593e-03  1.4151349151312598e-01 3.4685177124777172e-02 4.6997792428503321e-03  1.9258970785026064e-01 3.4444718368426427e-02 5.8621358320471682e-03  1.9262479199122257e-01 2.7624566841961858e-02 5.8461760199986215e-03  1.9262457050135554e-01 2.7627133364008825e-02 4.7104142814255873e-03  1.9258943996972802e-01 3.4447411660717568e-02 4.7255921432200502e-03  2.4383816108256731e-01 3.4334109657568980e-02 5.8620494724443955e-03  2.4385624884467766e-01 2.7514256317003206e-02 5.8474414645011035e-03  2.4385615246775436e-01 2.7516651607615020e-02 4.7109890128293492e-03  2.4383816096740374e-01 3.4336541433910038e-02 4.7252679379200264e-03  3.8124881072527060e-02 1.8465635985183519e-02 7.7113305396744316e-03  3.8217783018446555e-02 1.8427640177410873e-02 6.3821320796297980e-03  0.0000000000000000e+00 0.0000000000000000e+00 0.0000000000000000e+00  0.0000000000000000e+00 0.0000000000000000e+00 0.0000000000000000e+00  9.0358741755205182e-02 2.1234732373643577e-02 5.7572570461801439e-03  9.0364650990799281e-02 2.1229191466040392e-02 4.6377972353215694e-03  1.4139739489676872e-01 2.1084314385318929e-02 5.8539440061986395e-03  1.4139596380435046e-01 2.1082530563843977e-02 4.7201427702708862e-03  1.9264110530114306e-01 2.0797774845581065e-02 5.8300266666109482e-03  1.9264121506040918e-01 2.0800267140714295e-02 4.6947316807115468e-03  2.4387366091311360e-01 2.0695230496308701e-02 5.8332112142001008e-03  2.4387351807686788e-01 2.0697563969891503e-02 4.6970263047881296e-03  3.7140230308977291e-02 1.2053280808891178e-02 7.9740063113822989e-03  3.7221539393168156e-02 1.2037346311940554e-02 6.5915256010287146e-03  0.0000000000000000e+00 0.0000000000000000e+00 0.0000000000000000e+00  0.0000000000000000e+00 0.0000000000000000e+00 0.0000000000000000e+00  8.9789634111236055e-02 1.4463742725292911e-02 5.7577820761748498e-03  8.9808031964949589e-02 1.4460074055071171e-02 4.6327624601350597e-03  1.4127191570357833e-01 1.4196047070175806e-02 5.8582091532120868e-03  1.4127212984931387e-01 1.4196318591220553e-02 4.7218586589730183e-03  1.9264708698040728e-01 1.3963496966114602e-02 5.8154894541007415e-03  1.9264740711010181e-01 1.3965854755959904e-02 4.6804205584010106e-03  2.4388920498191022e-01 1.3876040125406290e-02 5.8191323179185590e-03  2.4388906274185151e-01 1.3878359573988535e-02 4.6831692346139143e-03  3.6664127963426260e-02 6.1779445680456447e-03 8.0996490559757800e-03  3.6743812747675270e-02 6.1747012326982880e-03 6.6918239737605214e-03  0.0000000000000000e+00 0.0000000000000000e+00 0.0000000000000000e+00  0.0000000000000000e+00 0.0000000000000000e+00 0.0000000000000000e+00  8.9333260693970268e-02 7.5329985108958256e-03 5.7882206928782758e-03  8.9356507377128441e-02 7.5321543343852332e-03 4.6554921188204767e-03  1.4118460349871273e-01 7.2652733566822966e-03 5.8552325458591306e-03  1.4118444635398011e-01 7.2671736144717921e-03 4.7173358989692155e-03  1.9265242521975653e-01 7.1220882480356991e-03 5.8008940702207624e-03  1.9265304802532673e-01 7.1243577896840824e-03 4.6660680049013907e-03  2.4390323484400600e-01 7.0562178809340497e-03 5.8049798866653670e-03  2.4390311455274624e-01 7.0585566251810958e-03 4.6691585652269491e-03  3.6512930330382082e-02 5.8955734854134259e-04 8.1482371250833907e-03  3.6592894933404639e-02 5.9575904598866715e-04 6.7305851166591293e-03  0.0000000000000000e+00 0.0000000000000000e+00 0.0000000000000000e+00  0.0000000000000000e+00 0.0000000000000000e+00 0.0000000000000000e+00  8.9149368152458039e-02 5.1585072547798833e-04 5.7963065410856591e-03  8.9174172814852445e-02 5.2043736417044066e-04 4.6603374885565256e-03  1.4117347844515279e-01 3.1723929919342099e-04 5.8379144185679924e-03  1.4117332929771298e-01 3.2070857210612225e-04 4.7001636756591192e-03  1.9266508747385716e-01 2.7581543861229156e-04 5.7863682706997847e-03  1.9266596466780492e-01 2.7811623804482752e-04 4.6517064363346345e-03  2.4391630169236084e-01 2.3644671371828813e-04 5.7907021235161938e-03  2.4391618356594985e-01 2.3882408881882374e-04 4.6549600527783491e-03  3.6653230256019749e-02 -4.9341636931683076e-03 8.1371164797024859e-03  3.6733849068563015e-02 -4.9195439602639467e-03 6.7218623044112717e-03  0.0000000000000000e+00 0.0000000000000000e+00 0.0000000000000000e+00  0.0000000000000000e+00 0.0000000000000000e+00 0.0000000000000000e+00  8.9274059908447168e-02 -6.5405046157322785e-03 5.7654810427737787e-03  8.9298748815998794e-02 -6.5295018272172704e-03 4.6331999846881385e-03  1.4124637004427465e-01 -6.6276402865080930e-03 5.8138942948785252e-03  1.4124587622523230e-01 -6.6232616256301415e-03 4.6775143936040120e-03  1.9268781904132309e-01 -6.5684529582971524e-03 5.7720050591446781e-03  1.9268870060599255e-01 -6.5660613307647149e-03 4.6374409027473262e-03  2.4392846698431170e-01 -6.5824264233524188e-03 5.7761140130717170e-03  2.4392834970134225e-01 -6.5800061457389073e-03 4.6404106766226331e-03  3.7114955530237526e-02 -1.0604789752116799e-02 8.0691737783373328e-03  3.7196548515131767e-02 -1.0581263619518671e-02 6.6688390993435249e-03  0.0000000000000000e+00 0.0000000000000000e+00 0.0000000000000000e+00  0.0000000000000000e+00 0.0000000000000000e+00 0.0000000000000000e+00  8.9704673442527624e-02 -1.3605241596018528e-02 5.6885758501993532e-03  8.9727800292075069e-02 -1.3587405597162365e-02 4.5678835940769673e-03  1.4139044553866603e-01 -1.3538901638987728e-02 5.7876095744762877e-03  1.4138900612156968e-01 -1.3534325165952312e-02 4.6532142835989457e-03  1.9271663271026113e-01 -1.3404034413759112e-02 5.7570139681468284e-03  1.9271742663487476e-01 -1.3401489289123320e-02 4.6224849964598275e-03  2.4393933836690757e-01 -1.3400074266296564e-02 5.7612490415096139e-03  2.4393921977453162e-01 -1.3397622448892699e-02 4.6255454531451612e-03  3.8002242002576757e-02 -1.6648242281627194e-02 7.9314519421995865e-03  3.8086410526705819e-02 -1.6612857593514101e-02 6.5630609760886256e-03  0.0000000000000000e+00 0.0000000000000000e+00 0.0000000000000000e+00  0.0000000000000000e+00 0.0000000000000000e+00 0.0000000000000000e+00  9.0406526360631193e-02 -2.0626284696491845e-02 5.5621823641820627e-03  9.0426183199668178e-02 -2.0602006856884979e-02 4.4610731837487613e-03  1.4155788898625174e-01 -2.0387405510750283e-02 5.7652312764210987e-03  1.4155497194043062e-01 -2.0383613769144753e-02 4.6324363092245880e-03  1.9274274483561490e-01 -2.0229518582805018e-02 5.7410423398104801e-03  1.9274344806763102e-01 -2.0226754630436532e-02 4.6064716278558298e-03  2.4394829936989837e-01 -2.0216424064933156e-02 5.7463418718954901e-03  2.4394814977000925e-01 -2.0213982272571863e-02 4.6105859112136310e-03  3.9615542305240871e-02 -2.3288659658380131e-02 7.6749640028890929e-03  3.9713099399064755e-02 -2.3233823957248691e-02 6.3592383183836256e-03  0.0000000000000000e+00 0.0000000000000000e+00 0.0000000000000000e+00  0.0000000000000000e+00 0.0000000000000000e+00 0.0000000000000000e+00  9.1257543103501593e-02 -2.7495134897459788e-02 5.3954840675391157e-03  9.1268553000180844e-02 -2.7464365112562547e-02 4.3237075907674354e-03  1.4166818619998203e-01 -2.7167409050675433e-02 5.7543720339765158e-03  1.4166402260115962e-01 -2.7165566988710331e-02 4.6206879366718556e-03  1.9275917372732582e-01 -2.7048668868556485e-02 5.7232430161504024e-03  1.9275976298252134e-01 -2.7045628432673090e-02 4.5887128515041649e-03  2.4395443313829521e-01 -2.7031533910026894e-02 5.7318144537441117e-03  2.4395422196677211e-01 -2.7029173254358677e-02 4.5959001735885211e-03  4.3015901839459851e-02 -3.0500163265805656e-02 7.1747139439761205e-03  4.3228658463169194e-02 -3.0426356283112851e-02 5.9628184688403224e-03  0.0000000000000000e+00 0.0000000000000000e+00 0.0000000000000000e+00  0.0000000000000000e+00 0.0000000000000000e+00 0.0000000000000000e+00  9.1733230899498072e-02 -3.4105224730573397e-02 5.1764860633530200e-03  9.1717877610557094e-02 -3.4035594485376332e-02 4.1511321343046109e-03  1.4169038470215228e-01 -3.3915616989162095e-02 5.7604668210636083e-03  1.4168736114718192e-01 -3.3919830209376237e-02 4.6209305341013418e-03  1.9275622492996664e-01 -3.3866119408973411e-02 5.7031787441367103e-03  1.9275609998554843e-01 -3.3862788312387558e-02 4.5690717902620078e-03  2.4395821429002396e-01 -3.3846073522570227e-02 5.7183729203389051e-03  2.4395791222342797e-01 -3.3843986071591489e-02 4.5820914369049271e-03  4.0539142486923599e-02 2.5466469946039051e-02 4.6111500950488373e-03  4.2627618283389193e-02 3.1690575232047442e-02 4.1518933937246235e-03  0.0000000000000000e+00 0.0000000000000000e+00 0.0000000000000000e+00  0.0000000000000000e+00 0.0000000000000000e+00 0.0000000000000000e+00  9.0948769065026400e-02 2.7940301006900412e-02 3.5128136855652327e-03  9.1234515887320566e-02 3.4639765285061457e-02 3.5379864451911690e-03  1.4149773904970478e-01 2.7901682154685019e-02 3.5785641590123586e-03  1.4151104732640635e-01 3.4684145777592636e-02 3.5705102672895050e-03  1.9262457158887825e-01 2.7629599759177430e-02 3.5746930616430751e-03  1.9258935241572939e-01 3.4450015751351974e-02 3.5890330052760371e-03  2.4385610266320545e-01 2.7518981031747949e-02 3.5745474605820625e-03  2.4383816538127331e-01 3.4338898478330812e-02 3.5884864343375374e-03  3.8231378412030538e-02 1.8387284248671160e-02 5.0104340896768955e-03  0.0000000000000000e+00 0.0000000000000000e+00 0.0000000000000000e+00  9.0377090821812417e-02 2.1224584822635399e-02 3.5237003962093538e-03  1.4139469457954709e-01 2.1081751034391263e-02 3.5854137180483248e-03  1.9264157427183967e-01 2.0802726635510273e-02 3.5596251962878096e-03  2.4387343689436775e-01 2.0699857906936840e-02 3.5608353892133313e-03  3.7226994914413676e-02 1.2017083208850237e-02 5.1683874805068539e-03  0.0000000000000000e+00 0.0000000000000000e+00 0.0000000000000000e+00  8.9830382366413303e-02 1.4457900770443725e-02 3.5147354229306759e-03  1.4127194842805924e-01 1.4197201054258710e-02 3.5844834344948796e-03  1.9264796708183771e-01 1.3968131497127318e-02 3.5455504601857005e-03  2.4388897256731917e-01 1.3880663296600333e-02 3.5471843494549586e-03  3.6747268939496799e-02 6.1664805575046729e-03 5.2437665362358105e-03  0.0000000000000000e+00 0.0000000000000000e+00 0.0000000000000000e+00  8.9383081078111798e-02 7.5310290666855779e-03 3.5290029554941676e-03  1.4118403879929442e-01 7.2691563101783489e-03 3.5781693779269805e-03  1.9265381954761479e-01 7.1266083766503658e-03 3.5314710630329127e-03  2.4390302986880880e-01 7.0608996018722281e-03 3.5333085570840544e-03  3.6596112287273309e-02 5.9627688719112381e-04 5.2727463498603465e-03  0.0000000000000000e+00 0.0000000000000000e+00 0.0000000000000000e+00  8.9202307370900152e-02 5.2271203998702350e-04 3.5303503360161453e-03  1.4117297493823769e-01 3.2380038334393213e-04 3.5612781461000749e-03  1.9266689037241960e-01 2.8043397549141439e-04 3.5172713709321585e-03  2.4391609036655298e-01 2.4121921446095831e-04 3.5191824534413084e-03  3.6737620598289916e-02 -4.9112641638979727e-03 5.2665303053638576e-03  0.0000000000000000e+00 0.0000000000000000e+00 0.0000000000000000e+00  8.9327053997831737e-02 -6.5226148914965037e-03 3.5068906375963636e-03  1.4124526945265670e-01 -6.6196210181615244e-03 3.5400269858095914e-03  1.9268958745424600e-01 -6.5636399143153791e-03 3.5030570360059504e-03  2.4392824705123978e-01 -6.5775532538905213e-03 3.5046752843815856e-03  3.7201787817171608e-02 -1.0564633766678088e-02 5.2286182665677904e-03  0.0000000000000000e+00 0.0000000000000000e+00 0.0000000000000000e+00  8.9755069180128974e-02 -1.3575533495395371e-02 3.4533340179001095e-03  1.4138760475644502e-01 -1.3530694457949726e-02 3.5176713269391069e-03  1.9271820721942007e-01 -1.3398902980390637e-02 3.4881040173355238e-03  2.4393910844354774e-01 -1.3395125505993366e-02 3.4898195108414467e-03  3.8095565879633558e-02 -1.6584236796470014e-02 5.1544116135243019e-03  0.0000000000000000e+00 0.0000000000000000e+00 0.0000000000000000e+00  9.0450614884158759e-02 -2.0586007984443822e-02 3.3667024902876582e-03  1.4155228533344502e-01 -2.0380542467394850e-02 3.4982930437636142e-03  1.9274413682630440e-01 -2.0223956070548828e-02 3.4720499838370514e-03  2.4394801188284118e-01 -2.0211483483450730e-02 3.4748155781922077e-03  3.9737724177085286e-02 -2.3191895751048162e-02 5.0064169229977725e-03  0.0000000000000000e+00 0.0000000000000000e+00 0.0000000000000000e+00  9.1284914124647218e-02 -2.7443348921218691e-02 3.2575281911583574e-03  1.4166025816570563e-01 -2.7163785468570484e-02 3.4855739945474696e-03  1.9276037518851699e-01 -2.7042584471742240e-02 3.4543577824491384e-03  2.4395404013915956e-01 -2.7026746710974076e-02 3.4599829545810612e-03  4.3301988030554038e-02 -3.0414259591707314e-02 4.7275621960143240e-03  0.0000000000000000e+00 0.0000000000000000e+00 0.0000000000000000e+00  9.1713487891194989e-02 -3.3996641410988189e-02 3.1198970412664425e-03  1.4168526271989632e-01 -3.3922278616790591e-02 3.4800865370182761e-03  1.9275616374928806e-01 -3.3859515812294023e-02 3.4354860061295372e-03  2.4395771787223081e-01 -3.3841689404929307e-02 3.4457611175377685e-03  4.0531284847244532e-02 2.5425158038944906e-02 3.3306577145193130e-03  4.2612553883884755e-02 3.1635544666026937e-02 3.0301949059089979e-03  0.0000000000000000e+00 0.0000000000000000e+00 0.0000000000000000e+00  0.0000000000000000e+00 0.0000000000000000e+00 0.0000000000000000e+00  9.0964962070725727e-02 2.7943112303296803e-02 2.4156262038170003e-03  9.1249433643282515e-02 3.4643669953602949e-02 2.4385941048708369e-03  1.4149618366245650e-01 2.7900378050058579e-02 2.4457746956133403e-03  1.4150931563919628e-01 3.4683231340880021e-02 2.4411001234791447e-03  1.9262470773907542e-01 2.7631952509329670e-02 2.4390009812380684e-03  1.9258944104226469e-01 3.4452455612154716e-02 2.4524995720839179e-03  2.4385608163474837e-01 2.7521258822545358e-02 2.4381070441774019e-03  2.4383817788202705e-01 3.4341184735925685e-02 2.4517076869645044e-03  3.8213841834017000e-02 1.8357702841798922e-02 3.6103944870625260e-03  0.0000000000000000e+00 0.0000000000000000e+00 0.0000000000000000e+00  9.0395894710763564e-02 2.1222760868558597e-02 2.4175290003304365e-03  1.4139362290201946e-01 2.1081413051945216e-02 2.4493452746113934e-03  1.9264205077425386e-01 2.0805099154753148e-02 2.4246741861808497e-03  2.4387339544367218e-01 2.0702122445820311e-02 2.4246393891825114e-03  3.7205091768884674e-02 1.2000010700014043e-02 3.7172901123461114e-03  0.0000000000000000e+00 0.0000000000000000e+00 0.0000000000000000e+00  8.9856328739955915e-02 1.4457680366905982e-02 2.4043821617720043e-03  1.4127144755730489e-01 1.4198329050871065e-02 2.4457930469075095e-03  1.9264866237076986e-01 1.3970353349450947e-02 2.4109274271432511e-03  2.4388891937394980e-01 1.3882948415922266e-02 2.4111729667767126e-03  3.6723840040881424e-02 6.1583009315737776e-03 3.7680936985213451e-03  0.0000000000000000e+00 0.0000000000000000e+00 0.0000000000000000e+00  8.9412119492535594e-02 7.5313868654713623e-03 2.4098070608172930e-03  1.4118338345360826e-01 7.2711114014965411e-03 2.4376736543624991e-03  1.9265467639474670e-01 7.1288506747046428e-03 2.3971323110551493e-03  2.4390297705089475e-01 7.0632372681474478e-03 2.3974240567487706e-03  3.6572435171896366e-02 5.9483709145880784e-04 3.7873567984996158e-03  0.0000000000000000e+00 0.0000000000000000e+00 0.0000000000000000e+00  8.9232644293239433e-02 5.2508513160532853e-04 2.4073650549537194e-03  1.4117239094359824e-01 3.2671013323838291e-04 2.4212379838615037e-03  1.9266783505082424e-01 2.8276736945368592e-04 2.3830823551386710e-03  2.4391602940758028e-01 2.4361094777851020e-04 2.3833680699122516e-03  3.6714499244230613e-02 -4.9067885678606487e-03 3.7836217789596486e-03  0.0000000000000000e+00 0.0000000000000000e+00 0.0000000000000000e+00  8.9357700011832852e-02 -6.5172321981161073e-03 2.3874911933589255e-03  1.4124450656075743e-01 -6.6161948954177301e-03 2.4014899733582548e-03  1.9269047584402585e-01 -6.5611909694575435e-03 2.3688912632900015e-03  2.4392817631496749e-01 -6.5751032561722012e-03 2.3689057721642771e-03  3.7180244938532545e-02 -1.0553852743428663e-02 3.7606176951782947e-03  0.0000000000000000e+00 0.0000000000000000e+00 0.0000000000000000e+00  8.9785155691116697e-02 -1.3566920494909634e-02 2.3458161036894634e-03  1.4138623131443273e-01 -1.3527153536803454e-02 2.3811184233217689e-03  1.9271899300887022e-01 -1.3396289682083421e-02 2.3539255839653194e-03  2.4393902649219423e-01 -1.3392629384105358e-02 2.3540630232217787e-03  3.8078133524907451e-02 -1.6564756787178368e-02 3.7173459963018005e-03  0.0000000000000000e+00 0.0000000000000000e+00 0.0000000000000000e+00  9.0478729256060694e-02 -2.0574960776285178e-02 2.2797744023075124e-03  1.4154989558300510e-01 -2.0377132776343884e-02 2.3630762965888403e-03  1.9274484009899520e-01 -2.0221174090816918e-02 2.3378289355451831e-03  2.4394790463456065e-01 -2.0208974299452773e-02 2.3390179348587504e-03  3.9733981445846736e-02 -2.3169258925525339e-02 3.6288673400238424e-03  0.0000000000000000e+00 0.0000000000000000e+00 0.0000000000000000e+00  9.1306869316063757e-02 -2.7427842503463355e-02 2.1974330626179047e-03  1.4165694290541311e-01 -2.7160953632597799e-02 2.3494407404278678e-03  1.9276104293607843e-01 -2.7039691834837110e-02 2.3202257611390242e-03  2.4395389233253964e-01 -2.7024271845448807e-02 2.3240392676210052e-03  4.3312483475922300e-02 -3.0429120589816699e-02 3.4623290318073702e-03  0.0000000000000000e+00 0.0000000000000000e+00 0.0000000000000000e+00  9.1721599792713521e-02 -3.3968832241619978e-02 2.0952155122034868e-03  1.4168390161294908e-01 -3.3922152566890178e-02 2.3385258700758952e-03  1.9275635203986399e-01 -3.3856377408666316e-02 2.3021023278219301e-03  2.4395760072259473e-01 -3.3839273939654309e-02 2.3093852055213414e-03  4.0515648542171497e-02 2.5406073715997134e-02 2.0361468287789417e-03  4.2597023585186654e-02 3.1617406380376453e-02 1.8924335319087974e-03  0.0000000000000000e+00 0.0000000000000000e+00 0.0000000000000000e+00  9.0982459634239468e-02 2.7943557164725651e-02 1.3234306529751956e-03  9.1266521196225456e-02 3.4645584779224442e-02 1.3420050543343429e-03  1.4149531195088891e-01 2.7899928211219640e-02 1.3124200313150776e-03  1.4150833382379011e-01 3.4682659961564513e-02 1.3115071361562039e-03  1.9262495264288895e-01 2.7634193462001719e-02 1.3033535001851161e-03  1.9258967985000511e-01 3.4454726129701900e-02 1.3159979003639795e-03  2.4385608027913258e-01 2.7523487392108369e-02 1.3016637471950469e-03  2.4383819853765978e-01 3.4343410602418335e-02 1.3149322150769853e-03  3.8192181343048921e-02 1.8339092776132614e-02 2.1918654171328078e-03  0.0000000000000000e+00 0.0000000000000000e+00 0.0000000000000000e+00  9.0416686311969099e-02 2.1222356938713959e-02 1.3173881328347472e-03  1.4139283945403647e-01 2.1081839199731618e-02 1.3121320050470040e-03  1.9264258957767089e-01 2.0807352765544008e-02 1.2898724029433511e-03  2.4387338402721070e-01 2.0704358978178170e-02 1.2884356370771017e-03  3.7180974531856550e-02 1.1988387029939531e-02 2.2486970815194392e-03  0.0000000000000000e+00 0.0000000000000000e+00 0.0000