<?xml version="1.0"?>
<VTKFile type="UnstructuredGrid"  version="0.1"  >
<UnstructuredGrid>
<Piece  NumberOfPoints="397" NumberOfCells="1500">
<Points>
<DataArray  type="Float64"  NumberOfComponents="3"  format="ascii">0 0 0  1 0 0  1 0.3 0  1 0.3 0.05  1 0 0.05  0 0 0.05  0 0.3 0  0 0.3 0.05  2 0 0  2 0.3 0  2 0.3 0.05  2 0 0.05  3 0 0  3 0.3 0  3 0.3 0.05  3 0 0.05  4 0 0  4 0.3 0  4 0.3 0.05  4 0 0.05  5 0 0  5 0.3 0  5 0.3 0.05  5 0 0.05  1 0.6 0  1 0.6 0.05  0 0.6 0  0 0.6 0.05  2 0.6 0  2 0.6 0.05  3 0.6 0  3 0.6 0.05  4 0.6 0  4 0.6 0.05  5 0.6 0  5 0.6 0.05  1 0.9 0  1 0.9 0.05  0 0.9 0  0 0.9 0.05  2 0.9 0  2 0.9 0.05  3 0.9 0  3 0.9 0.05  4 0.9 0  4 0.9 0.05  5 0.9 0  5 0.9 0.05  1 1.2 0  1 1.2 0.05  0 1.2 0  0 1.2 0.05  2 1.2 0  2 1.2 0.05  3 1.2 0  3 1.2 0.05  4 1.2 0  4 1.2 0.05  5 1.2 0  5 1.2 0.05  1 1.5 0  1 1.5 0.05  0 1.5 0  0 1.5 0.05  2 1.5 0  2 1.5 0.05  3 1.5 0  3 1.5 0.05  4 1.5 0  4 1.5 0.05  5 1.5 0  5 1.5 0.05  1 1.8 0  1 1.8 0.05  0 1.8 0  0 1.8 0.05  2 1.8 0  2 1.8 0.05  3 1.8 0  3 1.8 0.05  4 1.8 0  4 1.8 0.05  5 1.8 0  5 1.8 0.05  1 2.1 0  1 2.1 0.05  0 2.1 0  0 2.1 0.05  2 2.1 0  2 2.1 0.05  3 2.1 0  3 2.1 0.05  4 2.1 0  4 2.1 0.05  5 2.1 0  5 2.1 0.05  1 2.4 0  1 2.4 0.05  0 2.4 0  0 2.4 0.05  2 2.4 0  2 2.4 0.05  3 2.4 0  3 2.4 0.05  4 2.4 0  4 2.4 0.05  5 2.4 0  5 2.4 0.05  1 2.7 0  1 2.7 0.05  0 2.7 0  0 2.7 0.05  2 2.7 0  2 2.7 0.05  3 2.7 0  3 2.7 0.05  4 2.7 0  4 2.7 0.05  5 2.7 0  5 2.7 0.05  1 3 0  1 3 0.05  0 3 0  0 3 0.05  2 3 0  2 3 0.05  3 3 0  3 3 0.05  4 3 0  4 3 0.05  5 3 0  5 3 0.05  1 0.3 0.1  1 0 0.1  0 0 0.1  0 0.3 0.1  2 0.3 0.1  2 0 0.1  3 0.3 0.1  3 0 0.1  4 0.3 0.1  4 0 0.1  5 0.3 0.1  5 0 0.1  1 0.6 0.1  0 0.6 0.1  2 0.6 0.1  3 0.6 0.1  4 0.6 0.1  5 0.6 0.1  1 0.9 0.1  0 0.9 0.1  2 0.9 0.1  3 0.9 0.1  4 0.9 0.1  5 0.9 0.1  1 1.2 0.1  0 1.2 0.1  2 1.2 0.1  3 1.2 0.1  4 1.2 0.1  5 1.2 0.1  1 1.5 0.1  0 1.5 0.1  2 1.5 0.1  3 1.5 0.1  4 1.5 0.1  5 1.5 0.1  1 1.8 0.1  0 1.8 0.1  2 1.8 0.1  3 1.8 0.1  4 1.8 0.1  5 1.8 0.1  1 2.1 0.1  0 2.1 0.1  2 2.1 0.1  3 2.1 0.1  4 2.1 0.1  5 2.1 0.1  1 2.4 0.1  0 2.4 0.1  2 2.4 0.1  3 2.4 0.1  4 2.4 0.1  5 2.4 0.1  1 2.7 0.1  0 2.7 0.1  2 2.7 0.1  3 2.7 0.1  4 2.7 0.1  5 2.7 0.1  1 3 0.1  0 3 0.1  2 3 0.1  3 3 0.1  4 3 0.1  5 3 0.1  1 0.3 0.15  1 0 0.15  0 0 0.15  0 0.3 0.15  2 0.3 0.15  2 0 0.15  3 0.3 0.15  3 0 0.15  4 0.3 0.15  4 0 0.15  5 0.3 0.15  5 0 0.15  1 0.6 0.15  0 0.6 0.15  2 0.6 0.15  3 0.6 0.15  4 0.6 0.15  5 0.6 0.15  1 0.9 0.15  0 0.9 0.15  2 0.9 0.15  3 0.9 0.15  4 0.9 0.15  5 0.9 0.15  1 1.2 0.15  0 1.2 0.15  2 1.2 0.15  3 1.2 0.15  4 1.2 0.15  5 1.2 0.15  1 1.5 0.15  0 1.5 0.15  2 1.5 0.15  3 1.5 0.15  4 1.5 0.15  5 1.5 0.15  1 1.8 0.15  0 1.8 0.15  2 1.8 0.15  3 1.8 0.15  4 1.8 0.15  5 1.8 0.15  1 2.1 0.15  0 2.1 0.15  2 2.1 0.15  3 2.1 0.15  4 2.1 0.15  5 2.1 0.15  1 2.4 0.15  0 2.4 0.15  2 2.4 0.15  3 2.4 0.15  4 2.4 0.15  5 2.4 0.15  1 2.7 0.15  0 2.7 0.15  2 2.7 0.15  3 2.7 0.15  4 2.7 0.15  5 2.7 0.15  1 3 0.15  0 3 0.15  2 3 0.15  3 3 0.15  4 3 0.15  5 3 0.15  1 0.3 0.2  1 0 0.2  0 0.3 0.2  2 0.3 0.2  2 0 0.2  3 0.3 0.2  3 0 0.2  4 0.3 0.2  4 0 0.2  5 0.3 0.2  5 0 0.2  1 0.6 0.2  0 0.6 0.2  2 0.6 0.2  3 0.6 0.2  4 0.6 0.2  5 0.6 0.2  1 0.9 0.2  0 0.9 0.2  2 0.9 0.2  3 0.9 0.2  4 0.9 0.2  5 0.9 0.2  1 1.2 0.2  0 1.2 0.2  2 1.2 0.2  3 1.2 0.2  4 1.2 0.2  5 1.2 0.2  1 1.5 0.2  0 1.5 0.2  2 1.5 0.2  3 1.5 0.2  4 1.5 0.2  5 1.5 0.2  1 1.8 0.2  0 1.8 0.2  2 1.8 0.2  3 1.8 0.2  4 1.8 0.2  5 1.8 0.2  1 2.1 0.2  0 2.1 0.2  2 2.1 0.2  3 2.1 0.2  4 2.1 0.2  5 2.1 0.2  1 2.4 0.2  0 2.4 0.2  2 2.4 0.2  3 2.4 0.2  4 2.4 0.2  5 2.4 0.2  1 2.7 0.2  0 2.7 0.2  2 2.7 0.2  3 2.7 0.2  4 2.7 0.2  5 2.7 0.2  1 3 0.2  0 3 0.2  2 3 0.2  3 3 0.2  4 3 0.2  5 3 0.2  1 1.5 0.25  2 1.5 0.25  3 1.5 0.25  4 1.5 0.25  5 1.5 0.25  1 1.8 0.25  0 1.8 0.25  2 1.8 0.25  3 1.8 0.25  4 1.8 0.25  5 1.8 0.25  1 2.1 0.25  0 2.1 0.25  2 2.1 0.25  3 2.1 0.25  4 2.1 0.25  5 2.1 0.25  1 2.4 0.25  0 2.4 0.25  2 2.4 0.25  3 2.4 0.25  4 2.4 0.25  5 2.4 0.25  1 2.7 0.25  0 2.7 0.25  2 2.7 0.25  3 2.7 0.25  4 2.7 0.25  5 2.7 0.25  1 3 0.25  0 3 0.25  2 3 0.25  3 3 0.25  4 3 0.25  5 3 0.25  2 1.8 0.3  3 1.8 0.3  4 1.8 0.3  5 1.8 0.3  1 2.1 0.3  0 2.1 0.3  2 2.1 0.3  3 2.1 0.3  4 2.1 0.3  5 2.1 0.3  1 2.4 0.3  0 2.4 0.3  2 2.4 0.3  3 2.4 0.3  4 2.4 0.3  5 2.4 0.3  1 2.7 0.3  0 2.7 0.3  2 2.7 0.3  3 2.7 0.3  4 2.7 0.3  5 2.7 0.3  1 3 0.3  0 3 0.3  2 3 0.3  3 3 0.3  4 3 0.3  5 3 0.3  5 2.7 0.35  2 3 0.35  3 3 0.35  4 3 0.35  5 3 0.35  </DataArray>
</Points>
<Cells>
<DataArray  type="UInt32"  Name="connectivity"  format="ascii">0 1 2 3  0 1 4 3  0 5 4 3  0 6 2 3  0 5 7 3  0 6 7 3  1 8 9 10  1 8 11 10  1 4 11 10  1 2 9 10  1 4 3 10  1 2 3 10  8 12 13 14  8 12 15 14  8 11 15 14  8 9 13 14  8 11 10 14  8 9 10 14  12 16 17 18  12 16 19 18  12 15 19 18  12 13 17 18  12 15 14 18  12 13 14 18  16 20 21 22  16 20 23 22  16 19 23 22  16 17 21 22  16 19 18 22  16 17 18 22  6 2 24 25  6 2 3 25  6 7 3 25  6 26 24 25  6 7 27 25  6 26 27 25  2 9 28 29  2 9 10 29  2 3 10 29  2 24 28 29  2 3 25 29  2 24 25 29  9 13 30 31  9 13 14 31  9 10 14 31  9 28 30 31  9 10 29 31  9 28 29 31  13 17 32 33  13 17 18 33  13 14 18 33  13 30 32 33  13 14 31 33  13 30 31 33  17 21 34 35  17 21 22 35  17 18 22 35  17 32 34 35  17 18 33 35  17 32 33 35  26 24 36 37  26 24 25 37  26 27 25 37  26 38 36 37  26 27 39 37  26 38 39 37  24 28 40 41  24 28 29 41  24 25 29 41  24 36 40 41  24 25 37 41  24 36 37 41  28 30 42 43  28 30 31 43  28 29 31 43  28 40 42 43  28 29 41 43  28 40 41 43  30 32 44 45  30 32 33 45  30 31 33 45  30 42 44 45  30 31 43 45  30 42 43 45  32 34 46 47  32 34 35 47  32 33 35 47  32 44 46 47  32 33 45 47  32 44 45 47  38 36 48 49  38 36 37 49  38 39 37 49  38 50 48 49  38 39 51 49  38 50 51 49  36 40 52 53  36 40 41 53  36 37 41 53  36 48 52 53  36 37 49 53  36 48 49 53  40 42 54 55  40 42 43 55  40 41 43 55  40 52 54 55  40 41 53 55  40 52 53 55  42 44 56 57  42 44 45 57  42 43 45 57  42 54 56 57  42 43 55 57  42 54 55 57  44 46 58 59  44 46 47 59  44 45 47 59  44 56 58 59  44 45 57 59  44 56 57 59  50 48 60 61  50 48 49 61  50 51 49 61  50 62 60 61  50 51 63 61  50 62 63 61  48 52 64 65  48 52 53 65  48 49 53 65  48 60 64 65  48 49 61 65  48 60 61 65  52 54 66 67  52 54 55 67  52 53 55 67  52 64 66 67  52 53 65 67  52 64 65 67  54 56 68 69  54 56 57 69  54 55 57 69  54 66 68 69  54 55 67 69  54 66 67 69  56 58 70 71  56 58 59 71  56 57 59 71  56 68 70 71  56 57 69 71  56 68 69 71  62 60 72 73  62 60 61 73  62 63 61 73  62 74 72 73  62 63 75 73  62 74 75 73  60 64 76 77  60 64 65 77  60 61 65 77  60 72 76 77  60 61 73 77  60 72 73 77  64 66 78 79  64 66 67 79  64 65 67 79  64 76 78 79  64 65 77 79  64 76 77 79  66 68 80 81  66 68 69 81  66 67 69 81  66 78 80 81  66 67 79 81  66 78 79 81  68 70 82 83  68 70 71 83  68 69 71 83  68 80 82 83  68 69 81 83  68 80 81 83  74 72 84 85  74 72 73 85  74 75 73 85  74 86 84 85  74 75 87 85  74 86 87 85  72 76 88 89  72 76 77 89  72 73 77 89  72 84 88 89  72 73 85 89  72 84 85 89  76 78 90 91  76 78 79 91  76 77 79 91  76 88 90 91  76 77 89 91  76 88 89 91  78 80 92 93  78 80 81 93  78 79 81 93  78 90 92 93  78 79 91 93  78 90 91 93  80 82 94 95  80 82 83 95  80 81 83 95  80 92 94 95  80 81 93 95  80 92 93 95  86 84 96 97  86 84 85 97  86 87 85 97  86 98 96 97  86 87 99 97  86 98 99 97  84 88 100 101  84 88 89 101  84 85 89 101  84 96 100 101  84 85 97 101  84 96 97 101  88 90 102 103  88 90 91 103  88 89 91 103  88 100 102 103  88 89 101 103  88 100 101 103  90 92 104 105  90 92 93 105  90 91 93 105  90 102 104 105  90 91 103 105  90 102 103 105  92 94 106 107  92 94 95 107  92 93 95 107  92 104 106 107  92 93 105 107  92 104 105 107  98 96 108 109  98 96 97 109  98 99 97 109  98 110 108 109  98 99 111 109  98 110 111 109  96 100 112 113  96 100 101 113  96 97 101 113  96 108 112 113  96 97 109 113  96 108 109 113  100 102 114 115  100 102 103 115  100 101 103 115  100 112 114 115  100 101 113 115  100 112 113 115  102 104 116 117  102 104 105 117  102 103 105 117  102 114 116 117  102 103 115 117  102 114 115 117  104 106 118 119  104 106 107 119  104 105 107 119  104 116 118 119  104 105 117 119  104 116 117 119  110 108 120 121  110 108 109 121  110 111 109 121  110 122 120 121  110 111 123 121  110 122 123 121  108 112 124 125  108 112 113 125  108 109 113 125  108 120 124 125  108 109 121 125  108 120 121 125  112 114 126 127  112 114 115 127  112 113 115 127  112 124 126 127  112 113 125 127  112 124 125 127  114 116 128 129  114 116 117 129  114 115 117 129  114 126 128 129  114 115 127 129  114 126 127 129  116 118 130 131  116 118 119 131  116 117 119 131  116 128 130 131  116 117 129 131  116 128 129 131  5 4 3 132  5 4 133 132  5 134 133 132  5 7 3 132  5 134 135 132  5 7 135 132  4 11 10 136  4 11 137 136  4 133 137 136  4 3 10 136  4 133 132 136  4 3 132 136  11 15 14 138  11 15 139 138  11 137 139 138  11 10 14 138  11 137 136 138  11 10 136 138  15 19 18 140  15 19 141 140  15 139 141 140  15 14 18 140  15 139 138 140  15 14 138 140  19 23 22 142  19 23 143 142  19 141 143 142  19 18 22 142  19 141 140 142  19 18 140 142  7 3 25 144  7 3 132 144  7 135 132 144  7 27 25 144  7 135 145 144  7 27 145 144  3 10 29 146  3 10 136 146  3 132 136 146  3 25 29 146  3 132 144 146  3 25 144 146  10 14 31 147  10 14 138 147  10 136 138 147  10 29 31 147  10 136 146 147  10 29 146 147  14 18 33 148  14 18 140 148  14 138 140 148  14 31 33 148  14 138 147 148  14 31 147 148  18 22 35 149  18 22 142 149  18 140 142 149  18 33 35 149  18 140 148 149  18 33 148 149  27 25 37 150  27 25 144 150  27 145 144 150  27 39 37 150  27 145 151 150  27 39 151 150  25 29 41 152  25 29 146 152  25 144 146 152  25 37 41 152  25 144 150 152  25 37 150 152  29 31 43 153  29 31 147 153  29 146 147 153  29 41 43 153  29 146 152 153  29 41 152 153  31 33 45 154  31 33 148 154  31 147 148 154  31 43 45 154  31 147 153 154  31 43 153 154  33 35 47 155  33 35 149 155  33 148 149 155  33 45 47 155  33 148 154 155  33 45 154 155  39 37 49 156  39 37 150 15
[...]
<PointData  Vectors="f_16"> 
<DataArray  type="Float64"  Name="f_16"  NumberOfComponents="3" format="ascii">0.0000000000000000e+00 0.0000000000000000e+00 0.0000000000000000e+00  4.2620821943685244e-02 3.1995967400661601e-02 6.3351697556738454e-03  4.0370772146065152e-02 2.5589788447489440e-02 7.0654144629481944e-03  4.0506475883627421e-02 2.5531061060958656e-02 5.8644305706226059e-03  4.2634085752540567e-02 3.1802280208227680e-02 5.2532618271268951e-03  0.0000000000000000e+00 0.0000000000000000e+00 0.0000000000000000e+00  0.0000000000000000e+00 0.0000000000000000e+00 0.0000000000000000e+00  0.0000000000000000e+00 0.0000000000000000e+00 0.0000000000000000e+00  9.1217962307894501e-02 3.4638800143691181e-02 5.7418573050439922e-03  9.0925694174566432e-02 2.7931130392611473e-02 5.7263567468097019e-03  9.0935779638940215e-02 2.7935041188304255e-02 4.6164870653137421e-03  9.1223577524121482e-02 3.4636423951405704e-02 4.6396214344847538e-03  1.4151649977115213e-01 3.4686479279211375e-02 5.8289845266966131e-03  1.4150376264552006e-01 2.7905936740541513e-02 5.8430129508635006e-03  1.4150017079501867e-01 2.7903607231675755e-02 4.7109112036386163e-03  1.4151349151312623e-01 3.4685177124777165e-02 4.6997792428506140e-03  1.9258970785026089e-01 3.4444718368426164e-02 5.8621358320493124e-03  1.9262479199122287e-01 2.7624566841961525e-02 5.8461760200003232e-03  1.9262457050135579e-01 2.7627133364008582e-02 4.7104142814272942e-03  1.9258943996972824e-01 3.4447411660717346e-02 4.7255921432222152e-03  2.4383816108256731e-01 3.4334109657568460e-02 5.8620494724476151e-03  2.4385624884467763e-01 2.7514256317002810e-02 5.8474414645035650e-03  2.4385615246775436e-01 2.7516651607614739e-02 4.7109890128318186e-03  2.4383816096740379e-01 3.4336541433909663e-02 4.7252679379232504e-03  3.8124881072527005e-02 1.8465635985183561e-02 7.7113305396742642e-03  3.8217783018446513e-02 1.8427640177410911e-02 6.3821320796296288e-03  0.0000000000000000e+00 0.0000000000000000e+00 0.0000000000000000e+00  0.0000000000000000e+00 0.0000000000000000e+00 0.0000000000000000e+00  9.0358741755205155e-02 2.1234732373643529e-02 5.7572570461796816e-03  9.0364650990799267e-02 2.1229191466040364e-02 4.6377972353211037e-03  1.4139739489676897e-01 2.1084314385318804e-02 5.8539440061986048e-03  1.4139596380435068e-01 2.1082530563843894e-02 4.7201427702708385e-03  1.9264110530114331e-01 2.0797774845580787e-02 5.8300266666122995e-03  1.9264121506040946e-01 2.0800267140714070e-02 4.6947316807129016e-03  2.4387366091311374e-01 2.0695230496308434e-02 5.8332112142021695e-03  2.4387351807686794e-01 2.0697563969891312e-02 4.6970263047902095e-03  3.7140230308977264e-02 1.2053280808891211e-02 7.9740063113821757e-03  3.7221539393168142e-02 1.2037346311940594e-02 6.5915256010285941e-03  0.0000000000000000e+00 0.0000000000000000e+00 0.0000000000000000e+00  0.0000000000000000e+00 0.0000000000000000e+00 0.0000000000000000e+00  8.9789634111235972e-02 1.4463742725292847e-02 5.7577820761741923e-03  8.9808031964949561e-02 1.4460074055071123e-02 4.6327624601344040e-03  1.4127191570357858e-01 1.4196047070175690e-02 5.8582091532118005e-03  1.4127212984931403e-01 1.4196318591220466e-02 4.7218586589727225e-03  1.9264708698040758e-01 1.3963496966114318e-02 5.8154894541017025e-03  1.9264740711010206e-01 1.3965854755959694e-02 4.6804205584019733e-03  2.4388920498191030e-01 1.3876040125406074e-02 5.8191323179200682e-03  2.4388906274185151e-01 1.3878359573988390e-02 4.6831692346154287e-03  3.6664127963426218e-02 6.1779445680456638e-03 8.0996490559756239e-03  3.6743812747675228e-02 6.1747012326983019e-03 6.6918239737603705e-03  0.0000000000000000e+00 0.0000000000000000e+00 0.0000000000000000e+00  0.0000000000000000e+00 0.0000000000000000e+00 0.0000000000000000e+00  8.9333260693970143e-02 7.5329985108957076e-03 5.7882206928774474e-03  8.9356507377128372e-02 7.5321543343851490e-03 4.6554921188196440e-03  1.4118460349871287e-01 7.2652733566821422e-03 5.8552325458586171e-03  1.4118444635398025e-01 7.2671736144716793e-03 4.7173358989686994e-03  1.9265242521975676e-01 7.1220882480354164e-03 5.8008940702211969e-03  1.9265304802532690e-01 7.1243577896838795e-03 4.6660680049018253e-03  2.4390323484400608e-01 7.0562178809339404e-03 5.8049798866665293e-03  2.4390311455274633e-01 7.0585566251810420e-03 4.6691585652281122e-03  3.6512930330382040e-02 5.8955734854131668e-04 8.1482371250832207e-03  3.6592894933404591e-02 5.9575904598864894e-04 6.7305851166589731e-03  0.0000000000000000e+00 0.0000000000000000e+00 0.0000000000000000e+00  0.0000000000000000e+00 0.0000000000000000e+00 0.0000000000000000e+00  8.9149368152457886e-02 5.1585072547786646e-04 5.7963065410846747e-03  8.9174172814852321e-02 5.2043736417033799e-04 4.6603374885555342e-03  1.4117347844515296e-01 3.1723929919321369e-04 5.8379144185672369e-03  1.4117332929771315e-01 3.2070857210597843e-04 4.7001636756583672e-03  1.9266508747385741e-01 2.7581543861204995e-04 5.7863682706997830e-03  1.9266596466780506e-01 2.7811623804464342e-04 4.6517064363346345e-03  2.4391630169236103e-01 2.3644671371827097e-04 5.7907021235170048e-03  2.4391618356594996e-01 2.3882408881883816e-04 4.6549600527791635e-03  3.6653230256019645e-02 -4.9341636931683978e-03 8.1371164797022586e-03  3.6733849068562939e-02 -4.9195439602640091e-03 6.7218623044110601e-03  0.0000000000000000e+00 0.0000000000000000e+00 0.0000000000000000e+00  0.0000000000000000e+00 0.0000000000000000e+00 0.0000000000000000e+00  8.9274059908446987e-02 -6.5405046157324042e-03 5.7654810427724933e-03  8.9298748815998627e-02 -6.5295018272173676e-03 4.6331999846868374e-03  1.4124637004427482e-01 -6.6276402865083194e-03 5.8138942948774454e-03  1.4124587622523244e-01 -6.6232616256303193e-03 4.6775143936029322e-03  1.9268781904132329e-01 -6.5684529582973831e-03 5.7720050591444387e-03  1.9268870060599275e-01 -6.5660613307648779e-03 4.6374409027470850e-03  2.4392846698431192e-01 -6.5824264233524605e-03 5.7761140130724647e-03  2.4392834970134250e-01 -6.5800061457389159e-03 4.6404106766234085e-03  3.7114955530237380e-02 -1.0604789752116909e-02 8.0691737783369182e-03  3.7196548515131649e-02 -1.0581263619518746e-02 6.6688390993431129e-03  0.0000000000000000e+00 0.0000000000000000e+00 0.0000000000000000e+00  0.0000000000000000e+00 0.0000000000000000e+00 0.0000000000000000e+00  8.9704673442527402e-02 -1.3605241596018646e-02 5.6885758501980547e-03  8.9727800292074888e-02 -1.3587405597162460e-02 4.5678835940756619e-03  1.4139044553866612e-01 -1.3538901638987959e-02 5.7876095744748453e-03  1.4138900612156977e-01 -1.3534325165952476e-02 4.6532142835974989e-03  1.9271663271026135e-01 -1.3404034413759361e-02 5.7570139681461510e-03  1.9271742663487496e-01 -1.3401489289123509e-02 4.6224849964591518e-03  2.4393933836690762e-01 -1.3400074266296681e-02 5.7612490415101083e-03  2.4393921977453173e-01 -1.3397622448892765e-02 4.6255454531456781e-03  3.8002242002576597e-02 -1.6648242281627253e-02 7.9314519421989516e-03  3.8086410526705680e-02 -1.6612857593514132e-02 6.5630609760879786e-03  0.0000000000000000e+00 0.0000000000000000e+00 0.0000000000000000e+00  0.0000000000000000e+00 0.0000000000000000e+00 0.0000000000000000e+00  9.0406526360630943e-02 -2.0626284696491977e-02 5.5621823641804676e-03  9.0426183199667998e-02 -2.0602006856885072e-02 4.4610731837471575e-03  1.4155788898625171e-01 -2.0387405510750470e-02 5.7652312764193536e-03  1.4155497194043065e-01 -2.0383613769144909e-02 4.6324363092228307e-03  1.9274274483561521e-01 -2.0229518582805323e-02 5.7410423398094480e-03  1.9274344806763122e-01 -2.0226754630436761e-02 4.6064716278548089e-03  2.4394829936989842e-01 -2.0216424064933302e-02 5.7463418718956159e-03  2.4394814977000934e-01 -2.0213982272571946e-02 4.6105859112137741e-03  3.9615542305240704e-02 -2.3288659658380107e-02 7.6749640028882767e-03  3.9713099399064616e-02 -2.3233823957248653e-02 6.3592383183828103e-03  0.0000000000000000e+00 0.0000000000000000e+00 0.0000000000000000e+00  0.0000000000000000e+00 0.0000000000000000e+00 0.0000000000000000e+00  9.1257543103501371e-02 -2.7495134897459882e-02 5.3954840675373445e-03  9.1268553000180636e-02 -2.7464365112562627e-02 4.3237075907656582e-03  1.4166818619998206e-01 -2.7167409050675682e-02 5.7543720339745287e-03  1.4166402260115968e-01 -2.7165566988710511e-02 4.6206879366698849e-03  1.9275917372732601e-01 -2.7048668868556860e-02 5.7232430161488239e-03  1.9275976298252154e-01 -2.7045628432673361e-02 4.5887128515025993e-03  2.4395443313829543e-01 -2.7031533910027002e-02 5.7318144537439556e-03  2.4395422196677219e-01 -2.7029173254358729e-02 4.5959001735883685e-03  4.3015901839459608e-02 -3.0500163265805610e-02 7.1747139439753667e-03  4.3228658463169020e-02 -3.0426356283112806e-02 5.9628184688395652e-03  0.0000000000000000e+00 0.0000000000000000e+00 0.0000000000000000e+00  0.0000000000000000e+00 0.0000000000000000e+00 0.0000000000000000e+00  9.1733230899497781e-02 -3.4105224730573550e-02 5.1764860633510329e-03  9.1717877610556886e-02 -3.4035594485376443e-02 4.1511321343026281e-03  1.4169038470215239e-01 -3.3915616989162428e-02 5.7604668210610903e-03  1.4168736114718200e-01 -3.3919830209376493e-02 4.6209305340988247e-03  1.9275622492996683e-01 -3.3866119408973841e-02 5.7031787441345124e-03  1.9275609998554857e-01 -3.3862788312387877e-02 4.5690717902598117e-03  2.4395821429002407e-01 -3.3846073522570318e-02 5.7183729203383890e-03  2.4395791222342805e-01 -3.3843986071591517e-02 4.5820914369044154e-03  4.0539142486923564e-02 2.5466469946039107e-02 4.6111500950486032e-03  4.2627618283389179e-02 3.1690575232047540e-02 4.1518933937240883e-03  0.0000000000000000e+00 0.0000000000000000e+00 0.0000000000000000e+00  0.0000000000000000e+00 0.0000000000000000e+00 0.0000000000000000e+00  9.0948769065026414e-02 2.7940301006900425e-02 3.5128136855649282e-03  9.1234515887320594e-02 3.4639765285061477e-02 3.5379864451910220e-03  1.4149773904970495e-01 2.7901682154684984e-02 3.5785641590125087e-03  1.4151104732640651e-01 3.4684145777592650e-02 3.5705102672897852e-03  1.9262457158887838e-01 2.7629599759177274e-02 3.5746930616447812e-03  1.9258935241572969e-01 3.4450015751351822e-02 3.5890330052782055e-03  2.4385610266320548e-01 2.7518981031747776e-02 3.5745474605845401e-03  2.4383816538127343e-01 3.4338898478330583e-02 3.5884864343407622e-03  3.8231378412030524e-02 1.8387284248671198e-02 5.0104340896767385e-03  0.0000000000000000e+00 0.0000000000000000e+00 0.0000000000000000e+00  9.0377090821812431e-02 2.1224584822635395e-02 3.5237003962088971e-03  1.4139469457954731e-01 2.1081751034391229e-02 3.5854137180482614e-03  1.9264157427183992e-01 2.0802726635510114e-02 3.5596251962891727e-03  2.4387343689436786e-01 2.0699857906936729e-02 3.5608353892154173e-03  3.7226994914413655e-02 1.2017083208850280e-02 5.1683874805067403e-03  0.0000000000000000e+00 0.0000000000000000e+00 0.0000000000000000e+00  8.9830382366413261e-02 1.4457900770443698e-02 3.5147354229300297e-03  1.4127194842805935e-01 1.4197201054258656e-02 3.5844834344945821e-03  1.9264796708183782e-01 1.3968131497127190e-02 3.5455504601866672e-03  2.4388897256731923e-01 1.3880663296600272e-02 3.5471843494564738e-03  3.6747268939496758e-02 6.1664805575046755e-03 5.2437665362356674e-03  0.0000000000000000e+00 0.0000000000000000e+00 0.0000000000000000e+00  8.9383081078111770e-02 7.5310290666855354e-03 3.5290029554933267e-03  1.4118403879929456e-01 7.2691563101782743e-03 3.5781693779264627e-03  1.9265381954761490e-01 7.1266083766502444e-03 3.5314710630333398e-03  2.4390302986880885e-01 7.0608996018722194e-03 3.5333085570852176e-03  3.6596112287273275e-02 5.9627688719111828e-04 5.2727463498601999e-03  0.0000000000000000e+00 0.0000000000000000e+00 0.0000000000000000e+00  8.9202307370900041e-02 5.2271203998696062e-04 3.5303503360151469e-03  1.4117297493823783e-01 3.2380038334384854e-04 3.5612781460993264e-03  1.9266689037241969e-01 2.8043397549128428e-04 3.5172713709321559e-03  2.4391609036655301e-01 2.4121921446099400e-04 3.5191824534421350e-03  3.6737620598289854e-02 -4.9112641638980152e-03 5.2665303053636729e-03  0.0000000000000000e+00 0.0000000000000000e+00 0.0000000000000000e+00  8.9327053997831640e-02 -6.5226148914965618e-03 3.5068906375950600e-03  1.4124526945265678e-01 -6.6196210181616432e-03 3.5400269858085072e-03  1.9268958745424619e-01 -6.5636399143154840e-03 3.5030570360057144e-03  2.4392824705123986e-01 -6.5775532538904936e-03 3.5046752843823688e-03  3.7201787817171525e-02 -1.0564633766678140e-02 5.2286182665673827e-03  0.0000000000000000e+00 0.0000000000000000e+00 0.0000000000000000e+00  8.9755069180128877e-02 -1.3575533495395434e-02 3.4533340178987933e-03  1.4138760475644513e-01 -1.3530694457949834e-02 3.5176713269376480e-03  1.9271820721942023e-01 -1.3398902980390759e-02 3.4881040173348615e-03  2.4393910844354783e-01 -1.3395125505993394e-02 3.4898195108419737e-03  3.8095565879633454e-02 -1.6584236796470031e-02 5.1544116135236471e-03  0.0000000000000000e+00 0.0000000000000000e+00 0.0000000000000000e+00  9.0450614884158634e-02 -2.0586007984443877e-02 3.3667024902860631e-03  1.4155228533344508e-01 -2.0380542467394965e-02 3.4982930437618535e-03  1.9274413682630454e-01 -2.0223956070548974e-02 3.4720499838360279e-03  2.4394801188284126e-01 -2.0211483483450747e-02 3.4748155781923681e-03  3.9737724177085175e-02 -2.3191895751048120e-02 5.0064169229969598e-03  0.0000000000000000e+00 0.0000000000000000e+00 0.0000000000000000e+00  9.1284914124647079e-02 -2.7443348921218743e-02 3.2575281911565762e-03  1.4166025816570565e-01 -2.7163785468570595e-02 3.4855739945455016e-03  1.9276037518851716e-01 -2.7042584471742431e-02 3.4543577824475763e-03  2.4395404013915956e-01 -2.7026746710974086e-02 3.4599829545809164e-03  4.3301988030553906e-02 -3.0414259591707273e-02 4.7275621960135624e-03  0.0000000000000000e+00 0.0000000000000000e+00 0.0000000000000000e+00  9.1713487891194809e-02 -3.3996641410988244e-02 3.1198970412644675e-03  1.4168526271989634e-01 -3.3922278616790764e-02 3.4800865370157464e-03  1.9275616374928820e-01 -3.3859515812294252e-02 3.4354860061273544e-03  2.4395771787223083e-01 -3.3841689404929265e-02 3.4457611175372624e-03  4.0531284847244504e-02 2.5425158038944944e-02 3.3306577145190818e-03  4.2612553883884755e-02 3.1635544666026992e-02 3.0301949059084701e-03  0.0000000000000000e+00 0.0000000000000000e+00 0.0000000000000000e+00  0.0000000000000000e+00 0.0000000000000000e+00 0.0000000000000000e+00  9.0964962070725741e-02 2.7943112303296831e-02 2.4156262038166894e-03  9.1249433643282543e-02 3.4643669953602969e-02 2.4385941048706817e-03  1.4149618366245664e-01 2.7900378050058586e-02 2.4457746956134869e-03  1.4150931563919636e-01 3.4683231340880062e-02 2.4411001234794162e-03  1.9262470773907556e-01 2.7631952509329583e-02 2.4390009812397802e-03  1.9258944104226489e-01 3.4452455612154639e-02 2.4524995720860915e-03  2.4385608163474842e-01 2.7521258822545282e-02 2.4381070441798778e-03  2.4383817788202719e-01 3.4341184735925581e-02 2.4517076869677336e-03  3.8213841834017007e-02 1.8357702841798960e-02 3.6103944870623638e-03  0.0000000000000000e+00 0.0000000000000000e+00 0.0000000000000000e+00  9.0395894710763550e-02 2.1222760868558618e-02 2.4175290003299850e-03  1.4139362290201959e-01 2.1081413051945212e-02 2.4493452746113275e-03  1.9264205077425403e-01 2.0805099154753058e-02 2.4246741861822163e-03  2.4387339544367223e-01 2.0702122445820290e-02 2.4246393891845901e-03  3.7205091768884660e-02 1.2000010700014078e-02 3.7172901123460039e-03  0.0000000000000000e+00 0.0000000000000000e+00 0.0000000000000000e+00  8.9856328739955887e-02 1.4457680366905970e-02 2.4043821617713546e-03  1.4127144755730495e-01 1.4198329050871053e-02 2.4457930469072137e-03  1.9264866237076997e-01 1.3970353349450883e-02 2.4109274271442121e-03  2.4388891937394983e-01 1.3882948415922278e-02 2.4111729667782248e-03  3.6723840040881403e-02 6.1583009315737932e-03 3.7680936985212080e-03  0.0000000000000000e+00 0.0000000000000000e+00 0.0000000000000000e+00  8.9412119492535566e-02 7.5313868654713484e-03 2.4098070608164482e-03  1.4118338345360837e-01 7.2711114014965082e-03 2.4376736543619748e-03  1.9265467639474682e-01 7.1288506747045986e-03 2.3971323110555721e-03  2.4390297705089481e-01 7.0632372681475051e-03 2.3974240567499359e-03  3.6572435171896345e-02 5.9483709145881391e-04 3.7873567984994818e-03  0.0000000000000000e+00 0.0000000000000000e+00 0.0000000000000000e+00  8.9232644293239391e-02 5.2508513160529871e-04 2.4073650549527280e-03  1.4117239094359826e-01 3.2671013323835277e-04 2.4212379838607638e-03  1.9266783505082430e-01 2.8276736945362775e-04 2.3830823551386719e-03  2.4391602940758034e-01 2.4361094777857262e-04 2.3833680699130869e-03  3.6714499244230578e-02 -4.9067885678606687e-03 3.7836217789594768e-03  0.0000000000000000e+00 0.0000000000000000e+00 0.0000000000000000e+00  8.9357700011832783e-02 -6.5172321981161359e-03 2.3874911933576149e-03  1.4124450656075749e-01 -6.6161948954177865e-03 2.4014899733571676e-03  1.9269047584402596e-01 -6.5611909694575921e-03 2.3688912632897478e-03  2.4392817631496763e-01 -6.5751032561721335e-03 2.3689057721650668e-03  3.7180244938532496e-02 -1.0553852743428687e-02 3.7606176951778822e-03  0.0000000000000000e+00 0.0000000000000000e+00 0.0000000000000000e+00  8.9785155691116628e-02 -1.3566920494909658e-02 2.3458161036881407e-03  1.4138623131443279e-01 -1.3527153536803510e-02 2.3811184233203035e-03  1.9271899300887027e-01 -1.3396289682083473e-02 2.3539255839646659e-03  2.4393902649219421e-01 -1.3392629384105337e-02 2.3540630232223060e-03  3.8078133524907368e-02 -1.6564756787178361e-02 3.7173459963011335e-03  0.0000000000000000e+00 0.0000000000000000e+00 0.0000000000000000e+00  9.0478729256060597e-02 -2.0574960776285192e-02 2.2797744023059165e-03  1.4154989558300513e-01 -2.0377132776343940e-02 2.3630762965870704e-03  1.9274484009899528e-01 -2.0221174090816991e-02 2.3378289355441601e-03  2.4394790463456070e-01 -2.0208974299452728e-02 2.3390179348589143e-03  3.9733981445846646e-02 -2.3169258925525300e-02 3.6288673400230384e-03  0.0000000000000000e+00 0.0000000000000000e+00 0.0000000000000000e+00  9.1306869316063619e-02 -2.7427842503463383e-02 2.1974330626161149e-03  1.4165694290541309e-01 -2.7160953632597847e-02 2.3494407404259024e-03  1.9276104293607854e-01 -2.7039691834837232e-02 2.3202257611374681e-03  2.4395389233253972e-01 -2.7024271845448759e-02 2.3240392676208638e-03  4.3312483475922203e-02 -3.0429120589816654e-02 3.4623290318065983e-03  0.0000000000000000e+00 0.0000000000000000e+00 0.0000000000000000e+00  9.1721599792713410e-02 -3.3968832241619992e-02 2.0952155122015144e-03  1.4168390161294908e-01 -3.3922152566890275e-02 2.3385258700733560e-03  1.9275635203986413e-01 -3.3856377408666441e-02 2.3021023278197625e-03  2.4395760072259468e-01 -3.3839273939654226e-02 2.3093852055208262e-03  4.0515648542171476e-02 2.5406073715997141e-02 2.0361468287787036e-03  4.2597023585186654e-02 3.1617406380376481e-02 1.8924335319082590e-03  0.0000000000000000e+00 0.0000000000000000e+00 0.0000000000000000e+00  9.0982459634239496e-02 2.7943557164725689e-02 1.3234306529748845e-03  9.1266521196225456e-02 3.4645584779224463e-02 1.3420050543341906e-03  1.4149531195088899e-01 2.7899928211219675e-02 1.3124200313152207e-03  1.4150833382379022e-01 3.4682659961564562e-02 1.3115071361564775e-03  1.9262495264288915e-01 2.7634193462001709e-02 1.3033535001868426e-03  1.9258967985000525e-01 3.4454726129701900e-02 1.3159979003661414e-03  2.4385608027913269e-01 2.7523487392108390e-02 1.3016637471975291e-03  2.4383819853765989e-01 3.4343410602418342e-02 1.3149322150802234e-03  3.8192181343048928e-02 1.8339092776132649e-02 2.1918654171326421e-03  0.0000000000000000e+00 0.0000000000000000e+00 0.0000000000000000e+00  9.0416686311969113e-02 2.1222356938713986e-02 1.3173881328343059e-03  1.4139283945403652e-01 2.1081839199731646e-02 1.3121320050469404e-03  1.9264258957767097e-01 2.0807352765543987e-02 1.2898724029447243e-03  2.4387338402721070e-01 2.0704358978178225e-02 1.2884356370791675e-03  3.7180974531856557e-02 1.1988387029939563e-02 2.2486970815193395e-03  0.0000000000000000e+00 0.0000000000000000e+00 0.0000