<?xml version="1.0"?>
<VTKFile type="UnstructuredGrid"  version="0.1"  >
<UnstructuredGrid>
<Piece  NumberOfPoints="396" NumberOfCells="1500">
<Points>
<DataArray  type="Float64"  NumberOfComponents="3"  format="ascii">5 0 0  6 0 0  6 0.3 0  6 0.3 0.05  6 0 0.05  5 0 0.05  5 0.3 0  5 0.3 0.05  7 0 0  7 0.3 0  7 0.3 0.05  7 0 0.05  8 0 0  8 0.3 0  8 0.3 0.05  8 0 0.05  9 0 0  9 0.3 0  9 0.3 0.05  9 0 0.05  10 0 0  10 0.3 0  10 0.3 0.05  10 0 0.05  6 0.6 0  6 0.6 0.05  5 0.6 0  5 0.6 0.05  7 0.6 0  7 0.6 0.05  8 0.6 0  8 0.6 0.05  9 0.6 0  9 0.6 0.05  10 0.6 0  10 0.6 0.05  6 0.9 0  6 0.9 0.05  5 0.9 0  5 0.9 0.05  7 0.9 0  7 0.9 0.05  8 0.9 0  8 0.9 0.05  9 0.9 0  9 0.9 0.05  10 0.9 0  10 0.9 0.05  6 1.2 0  6 1.2 0.05  5 1.2 0  5 1.2 0.05  7 1.2 0  7 1.2 0.05  8 1.2 0  8 1.2 0.05  9 1.2 0  9 1.2 0.05  10 1.2 0  10 1.2 0.05  6 1.5 0  6 1.5 0.05  5 1.5 0  5 1.5 0.05  7 1.5 0  7 1.5 0.05  8 1.5 0  8 1.5 0.05  9 1.5 0  9 1.5 0.05  10 1.5 0  10 1.5 0.05  6 1.8 0  6 1.8 0.05  5 1.8 0  5 1.8 0.05  7 1.8 0  7 1.8 0.05  8 1.8 0  8 1.8 0.05  9 1.8 0  9 1.8 0.05  10 1.8 0  10 1.8 0.05  6 2.1 0  6 2.1 0.05  5 2.1 0  5 2.1 0.05  7 2.1 0  7 2.1 0.05  8 2.1 0  8 2.1 0.05  9 2.1 0  9 2.1 0.05  10 2.1 0  10 2.1 0.05  6 2.4 0  6 2.4 0.05  5 2.4 0  5 2.4 0.05  7 2.4 0  7 2.4 0.05  8 2.4 0  8 2.4 0.05  9 2.4 0  9 2.4 0.05  10 2.4 0  10 2.4 0.05  6 2.7 0  6 2.7 0.05  5 2.7 0  5 2.7 0.05  7 2.7 0  7 2.7 0.05  8 2.7 0  8 2.7 0.05  9 2.7 0  9 2.7 0.05  10 2.7 0  10 2.7 0.05  6 3 0  6 3 0.05  5 3 0  5 3 0.05  7 3 0  7 3 0.05  8 3 0  8 3 0.05  9 3 0  9 3 0.05  10 3 0  10 3 0.05  6 0.3 0.1  6 0 0.1  5 0 0.1  5 0.3 0.1  7 0.3 0.1  7 0 0.1  8 0.3 0.1  8 0 0.1  9 0.3 0.1  9 0 0.1  10 0.3 0.1  10 0 0.1  6 0.6 0.1  5 0.6 0.1  7 0.6 0.1  8 0.6 0.1  9 0.6 0.1  10 0.6 0.1  6 0.9 0.1  5 0.9 0.1  7 0.9 0.1  8 0.9 0.1  9 0.9 0.1  10 0.9 0.1  6 1.2 0.1  5 1.2 0.1  7 1.2 0.1  8 1.2 0.1  9 1.2 0.1  10 1.2 0.1  6 1.5 0.1  5 1.5 0.1  7 1.5 0.1  8 1.5 0.1  9 1.5 0.1  10 1.5 0.1  6 1.8 0.1  5 1.8 0.1  7 1.8 0.1  8 1.8 0.1  9 1.8 0.1  10 1.8 0.1  6 2.1 0.1  5 2.1 0.1  7 2.1 0.1  8 2.1 0.1  9 2.1 0.1  10 2.1 0.1  6 2.4 0.1  5 2.4 0.1  7 2.4 0.1  8 2.4 0.1  9 2.4 0.1  10 2.4 0.1  6 2.7 0.1  5 2.7 0.1  7 2.7 0.1  8 2.7 0.1  9 2.7 0.1  10 2.7 0.1  6 3 0.1  5 3 0.1  7 3 0.1  8 3 0.1  9 3 0.1  10 3 0.1  6 0.3 0.15  6 0 0.15  5 0 0.15  5 0.3 0.15  7 0.3 0.15  7 0 0.15  8 0.3 0.15  8 0 0.15  9 0.3 0.15  9 0 0.15  10 0.3 0.15  10 0 0.15  6 0.6 0.15  5 0.6 0.15  7 0.6 0.15  8 0.6 0.15  9 0.6 0.15  10 0.6 0.15  6 0.9 0.15  5 0.9 0.15  7 0.9 0.15  8 0.9 0.15  9 0.9 0.15  10 0.9 0.15  6 1.2 0.15  5 1.2 0.15  7 1.2 0.15  8 1.2 0.15  9 1.2 0.15  10 1.2 0.15  6 1.5 0.15  5 1.5 0.15  7 1.5 0.15  8 1.5 0.15  9 1.5 0.15  10 1.5 0.15  6 1.8 0.15  5 1.8 0.15  7 1.8 0.15  8 1.8 0.15  9 1.8 0.15  10 1.8 0.15  6 2.1 0.15  5 2.1 0.15  7 2.1 0.15  8 2.1 0.15  9 2.1 0.15  10 2.1 0.15  6 2.4 0.15  5 2.4 0.15  7 2.4 0.15  8 2.4 0.15  9 2.4 0.15  10 2.4 0.15  6 2.7 0.15  5 2.7 0.15  7 2.7 0.15  8 2.7 0.15  9 2.7 0.15  10 2.7 0.15  6 3 0.15  5 3 0.15  7 3 0.15  8 3 0.15  9 3 0.15  10 3 0.15  6 0.3 0.2  6 0 0.2  5 0 0.2  5 0.3 0.2  7 0.3 0.2  7 0 0.2  8 0.3 0.2  8 0 0.2  9 0.3 0.2  9 0 0.2  10 0.3 0.2  10 0 0.2  6 0.6 0.2  5 0.6 0.2  7 0.6 0.2  8 0.6 0.2  9 0.6 0.2  10 0.6 0.2  6 0.9 0.2  5 0.9 0.2  7 0.9 0.2  8 0.9 0.2  9 0.9 0.2  10 0.9 0.2  6 1.2 0.2  5 1.2 0.2  7 1.2 0.2  8 1.2 0.2  9 1.2 0.2  10 1.2 0.2  6 1.5 0.2  5 1.5 0.2  7 1.5 0.2  8 1.5 0.2  9 1.5 0.2  10 1.5 0.2  6 1.8 0.2  5 1.8 0.2  7 1.8 0.2  8 1.8 0.2  9 1.8 0.2  10 1.8 0.2  6 2.1 0.2  5 2.1 0.2  7 2.1 0.2  8 2.1 0.2  9 2.1 0.2  10 2.1 0.2  6 2.4 0.2  5 2.4 0.2  7 2.4 0.2  8 2.4 0.2  9 2.4 0.2  10 2.4 0.2  6 2.7 0.2  5 2.7 0.2  7 2.7 0.2  8 2.7 0.2  9 2.7 0.2  10 2.7 0.2  6 3 0.2  5 3 0.2  7 3 0.2  8 3 0.2  9 3 0.2  10 3 0.2  6 0.3 0.25  6 0 0.25  5 0 0.25  5 0.3 0.25  7 0.3 0.25  7 0 0.25  8 0.3 0.25  8 0 0.25  9 0.3 0.25  9 0 0.25  10 0.3 0.25  10 0 0.25  6 0.6 0.25  5 0.6 0.25  7 0.6 0.25  8 0.6 0.25  9 0.6 0.25  10 0.6 0.25  6 0.9 0.25  5 0.9 0.25  7 0.9 0.25  8 0.9 0.25  9 0.9 0.25  10 0.9 0.25  6 1.2 0.25  5 1.2 0.25  7 1.2 0.25  8 1.2 0.25  9 1.2 0.25  10 1.2 0.25  6 1.5 0.25  5 1.5 0.25  7 1.5 0.25  8 1.5 0.25  9 1.5 0.25  10 1.5 0.25  6 1.8 0.25  5 1.8 0.25  7 1.8 0.25  8 1.8 0.25  9 1.8 0.25  10 1.8 0.25  6 2.1 0.25  5 2.1 0.25  7 2.1 0.25  8 2.1 0.25  9 2.1 0.25  10 2.1 0.25  6 2.4 0.25  5 2.4 0.25  7 2.4 0.25  8 2.4 0.25  9 2.4 0.25  10 2.4 0.25  6 2.7 0.25  5 2.7 0.25  7 2.7 0.25  8 2.7 0.25  9 2.7 0.25  10 2.7 0.25  6 3 0.25  5 3 0.25  7 3 0.25  8 3 0.25  9 3 0.25  10 3 0.25  </DataArray>
</Points>
<Cells>
<DataArray  type="UInt32"  Name="connectivity"  format="ascii">0 1 2 3  0 1 4 3  0 5 4 3  0 6 2 3  0 5 7 3  0 6 7 3  1 8 9 10  1 8 11 10  1 4 11 10  1 2 9 10  1 4 3 10  1 2 3 10  8 12 13 14  8 12 15 14  8 11 15 14  8 9 13 14  8 11 10 14  8 9 10 14  12 16 17 18  12 16 19 18  12 15 19 18  12 13 17 18  12 15 14 18  12 13 14 18  16 20 21 22  16 20 23 22  16 19 23 22  16 17 21 22  16 19 18 22  16 17 18 22  6 2 24 25  6 2 3 25  6 7 3 25  6 26 24 25  6 7 27 25  6 26 27 25  2 9 28 29  2 9 10 29  2 3 10 29  2 24 28 29  2 3 25 29  2 24 25 29  9 13 30 31  9 13 14 31  9 10 14 31  9 28 30 31  9 10 29 31  9 28 29 31  13 17 32 33  13 17 18 33  13 14 18 33  13 30 32 33  13 14 31 33  13 30 31 33  17 21 34 35  17 21 22 35  17 18 22 35  17 32 34 35  17 18 33 35  17 32 33 35  26 24 36 37  26 24 25 37  26 27 25 37  26 38 36 37  26 27 39 37  26 38 39 37  24 28 40 41  24 28 29 41  24 25 29 41  24 36 40 41  24 25 37 41  24 36 37 41  28 30 42 43  28 30 31 43  28 29 31 43  28 40 42 43  28 29 41 43  28 40 41 43  30 32 44 45  30 32 33 45  30 31 33 45  30 42 44 45  30 31 43 45  30 42 43 45  32 34 46 47  32 34 35 47  32 33 35 47  32 44 46 47  32 33 45 47  32 44 45 47  38 36 48 49  38 36 37 49  38 39 37 49  38 50 48 49  38 39 51 49  38 50 51 49  36 40 52 53  36 40 41 53  36 37 41 53  36 48 52 53  36 37 49 53  36 48 49 53  40 42 54 55  40 42 43 55  40 41 43 55  40 52 54 55  40 41 53 55  40 52 53 55  42 44 56 57  42 44 45 57  42 43 45 57  42 54 56 57  42 43 55 57  42 54 55 57  44 46 58 59  44 46 47 59  44 45 47 59  44 56 58 59  44 45 57 59  44 56 57 59  50 48 60 61  50 48 49 61  50 51 49 61  50 62 60 61  50 51 63 61  50 62 63 61  48 52 64 65  48 52 53 65  48 49 53 65  48 60 64 65  48 49 61 65  48 60 61 65  52 54 66 67  52 54 55 67  52 53 55 67  52 64 66 67  52 53 65 67  52 64 65 67  54 56 68 69  54 56 57 69  54 55 57 69  54 66 68 69  54 55 67 69  54 66 67 69  56 58 70 71  56 58 59 71  56 57 59 71  56 68 70 71  56 57 69 71  56 68 69 71  62 60 72 73  62 60 61 73  62 63 61 73  62 74 72 73  62 63 75 73  62 74 75 73  60 64 76 77  60 64 65 77  60 61 65 77  60 72 76 77  60 61 73 77  60 72 73 77  64 66 78 79  64 66 67 79  64 65 67 79  64 76 78 79  64 65 77 79  64 76 77 79  66 68 80 81  66 68 69 81  66 67 69 81  66 78 80 81  66 67 79 81  66 78 79 81  68 70 82 83  68 70 71 83  68 69 71 83  68 80 82 83  68 69 81 83  68 80 81 83  74 72 84 85  74 72 73 85  74 75 73 85  74 86 84 85  74 75 87 85  74 86 87 85  72 76 88 89  72 76 77 89  72 73 77 89  72 84 88 89  72 73 85 89  72 84 85 89  76 78 90 91  76 78 79 91  76 77 79 91  76 88 90 91  76 77 89 91  76 88 89 91  78 80 92 93  78 80 81 93  78 79 81 93  78 90 92 93  78 79 91 93  78 90 91 93  80 82 94 95  80 82 83 95  80 81 83 95  80 92 94 95  80 81 93 95  80 92 93 95  86 84 96 97  86 84 85 97  86 87 85 97  86 98 96 97  86 87 99 97  86 98 99 97  84 88 100 101  84 88 89 101  84 85 89 101  84 96 100 101  84 85 97 101  84 96 97 101  88 90 102 103  88 90 91 103  88 89 91 103  88 100 102 103  88 89 101 103  88 100 101 103  90 92 104 105  90 92 93 105  90 91 93 105  90 102 104 105  90 91 103 105  90 102 103 105  92 94 106 107  92 94 95 107  92 93 95 107  92 104 106 107  92 93 105 107  92 104 105 107  98 96 108 109  98 96 97 109  98 99 97 109  98 110 108 109  98 99 111 109  98 110 111 109  96 100 112 113  96 100 101 113  96 97 101 113  96 108 112 113  96 97 109 113  96 108 109 113  100 102 114 115  100 102 103 115  100 101 103 115  100 112 114 115  100 101 113 115  100 112 113 115  102 104 116 117  102 104 105 117  102 103 105 117  102 114 116 117  102 103 115 117  102 114 115 117  104 106 118 119  104 106 107 119  104 105 107 119  104 116 118 119  104 105 117 119  104 116 117 119  110 108 120 121  110 108 109 121  110 111 109 121  110 122 120 121  110 111 123 121  110 122 123 121  108 112 124 125  108 112 113 125  108 109 113 125  108 120 124 125  108 109 121 125  108 120 121 125  112 114 126 127  112 114 115 127  112 113 115 127  112 124 126 127  112 113 125 127  112 124 125 127  114 116 128 129  114 116 117 129  114 115 117 129  114 126 128 129  114 115 127 129  114 126 127 129  116 118 130 131  116 118 119 131  116 117 119 131  116 128 130 131  116 117 129 131  116 128 129 131  5 4 3 132  5 4 133 132  5 134 133 132  5 7 3 132  5 134 135 132  5 7 135 132  4 11 10 136  4 11 137 136  4 133 137 136  4 3 10 136  4 133 132 136  4 3 132 136  11 15 14 138  11 15 139 138  11 137 139 138  11 10 14 138  11 137 136 138  11 10 136 138  15 19 18 140  15 19 141 140  15 139 141 140  15 14 18 140  15 139 138 140  15 14 138 140  19 23 22 142  19 23 143 142  19 141 143 142  19 18 22 142  19 141 140 142  19 18 140 142  7 3 25 144  7 3 132 144  7 135 132 144  7 27 25 144  7 135 145 144  7 27 145 144  3 10 29 146  3 10 136 146  3 132 136 146  3 25 29 146  3 132 144 146  3 25 144 146  10 14 31 147  10 14 138 147  10 136 138 147  10 29 31 147  10 136 146 147  10 29 146 147  14 18 33 148  14 18 140 148  14 138 140 148  14 31 33 148  14 138 147 148  14 31 147 148  18 22 35 149  18 22 142 149  18 140 142 149  18 33 35 149  18 140 148 149  18 33 148 149  27 25 37 150  27 25 144 150  27 145 144 150  27 39 37 150  27 145 151 150  27 39 151 150  25 29 41 152  25 29 146 152  25 144 146 152  25 37 41 152  25 144 150 152  25 37 150 152  29 31 43 153  29 31 147 153  29 146 147 153  29 41 43 153  29 146 152 153  29 41 152 153  31 33 45 154  31 33 148 154  31 147 148 154  31 43 45 154  31 147 153 154  31 43 153 154  33 35 47 155  33 35 149 155  
[...]
<PointData  Vectors="f_16"> 
<DataArray  type="Float64"  Name="f_16"  NumberOfComponents="3" format="ascii">2.4383816108256731e-01 3.4334109657568460e-02 5.8620494724476151e-03  2.9508280588611391e-01 3.4291279695177278e-02 5.8615401194667483e-03  2.9509186389147218e-01 2.7472889257848812e-02 5.8473575821520090e-03  2.9509186933115306e-01 2.7475245697062719e-02 4.7110106780832309e-03  2.9508281081563897e-01 3.4293639213544294e-02 4.7250853096409357e-03  2.4383816096740379e-01 3.4336541433909663e-02 4.7252679379232504e-03  2.4385624884467763e-01 2.7514256317002810e-02 5.8474414645035650e-03  2.4385615246775436e-01 2.7516651607614739e-02 4.7109890128318186e-03  3.4631653233274939e-01 3.4267836298863485e-02 5.8615118433626061e-03  3.4632208001414261e-01 2.7450108361787864e-02 5.8472785536941166e-03  3.4632208331768299e-01 2.7452477682760140e-02 4.7110188717481528e-03  3.4631653014899366e-01 3.4270203983720347e-02 4.7251982152465887e-03  3.9754571784756404e-01 3.4252742666294703e-02 5.8615557730534798e-03  3.9754914821891263e-01 2.7435289147792589e-02 5.8472685949345626e-03  3.9754914948051495e-01 2.7437667657298322e-02 4.7110494879171634e-03  3.9754571654555515e-01 3.4255120331822077e-02 4.7252952748407292e-03  4.4877317756271828e-01 3.4243975971403690e-02 5.8615688208726877e-03  4.4877484387971173e-01 2.7426636758918554e-02 5.8472567076718902e-03  4.4877484457532424e-01 2.7429019275606526e-02 4.7110552522027452e-03  4.4877317731898519e-01 3.4246358115742580e-02 4.7253291583640705e-03  5.0000000000000000e-01 3.4241094408382945e-02 5.8615660778202749e-03  5.0000000000000000e-01 2.7423788423033620e-02 5.8472496971378263e-03  5.0000000000000000e-01 2.7426171663120620e-02 4.7110534118583328e-03  5.0000000000000000e-01 3.4243477288467494e-02 4.7253324836076006e-03  2.9510204054217737e-01 2.0655079786487451e-02 5.8331601775672860e-03  2.9510204895765613e-01 2.0657445323692260e-02 4.6969197133534552e-03  2.4387366091311374e-01 2.0695230496308434e-02 5.8332112142021695e-03  2.4387351807686794e-01 2.0697563969891312e-02 4.6970263047902095e-03  3.4632820869906228e-01 2.0632742227813170e-02 5.8330413266019917e-03  3.4632821338500469e-01 2.0635115789870366e-02 4.6968371905332694e-03  3.9755283380776252e-01 2.0618085376018103e-02 5.8329766778387132e-03  3.9755283667043562e-01 2.0620465943279886e-02 4.6968007161041197e-03  4.4877661433478383e-01 2.0609512605881515e-02 5.8329412749950184e-03  4.4877661557433879e-01 2.0611896100438534e-02 4.6967790951640545e-03  5.0000000000000000e-01 2.0606690923507250e-02 5.8329301175683024e-03  5.0000000000000000e-01 2.0609074935336983e-02 4.6967720081024737e-03  2.9511256916728279e-01 1.3837919400098738e-02 5.8188867133426823e-03  2.9511258172864846e-01 1.3840295789161456e-02 4.6827438913261982e-03  2.4388920498191030e-01 1.3876040125406074e-02 5.8191323179200682e-03  2.4388906274185151e-01 1.3878359573988390e-02 4.6831692346154287e-03  3.4633467595224415e-01 1.3815810070876190e-02 5.8187717002621004e-03  3.4633468016152863e-01 1.3818189502840441e-02 4.6826245941302795e-03  3.9755670946489585e-01 1.3801161413959699e-02 5.8186677151512278e-03  3.9755671330822873e-01 1.3803545209347848e-02 4.6825362218283388e-03  4.4877846711239294e-01 1.3792623945894008e-02 5.8186183146763616e-03  4.4877846859716969e-01 1.3795008906519050e-02 4.6824962206962343e-03  5.0000000000000000e-01 1.3789819979536034e-02 5.8186048664854188e-03  5.0000000000000000e-01 1.3792205023483356e-02 4.6824855960621728e-03  2.9512283801777273e-01 7.0214370287668866e-03 5.8045508552088251e-03  2.9512285342794981e-01 7.0238243776093289e-03 4.6684928740564026e-03  2.4390323484400608e-01 7.0562178809339404e-03 5.8049798866665293e-03  2.4390311455274633e-01 7.0585566251810420e-03 4.6691585652281122e-03  3.4634124078230610e-01 6.9993110534522030e-03 5.8044558261601256e-03  3.4634124417460682e-01 7.0016984565408327e-03 4.6683652078956007e-03  3.9756069975977032e-01 6.9845332718717268e-03 5.8043356923511980e-03  3.9756070372946928e-01 6.9869211251074714e-03 4.6682493072101160e-03  4.4878037757447398e-01 6.9759866799500867e-03 5.8042850688588112e-03  4.4878037894601230e-01 6.9783734242599791e-03 4.6682036702061580e-03  5.0000000000000000e-01 6.9731901477784394e-03 5.8042723618291639e-03  5.0000000000000000e-01 6.9755763784930605e-03 4.6681924591491022e-03  2.9513244782031839e-01 2.0553861544880990e-04 5.7901280799020280e-03  2.9513246694464368e-01 2.0793856535980228e-04 4.6541416487217947e-03  2.4391630169236103e-01 2.3644671371827097e-04 5.7907021235170048e-03  2.4391618356594996e-01 2.3882408881883816e-04 4.6549600527791635e-03  3.4634771648500468e-01 1.8319840598855181e-04 5.7900842395727497e-03  3.4634771805210707e-01 1.8559496025198429e-04 4.6540470661257842e-03  3.9756473116460778e-01 1.6820356072425909e-04 5.7899772482563625e-03  3.9756473420242944e-01 1.7059574184043004e-04 4.6539360841504158e-03  4.4878231890554693e-01 1.5960981872690293e-04 5.7899401353836951e-03  4.4878231979291028e-01 1.6199841657129217e-04 4.6538997626958010e-03  5.0000000000000000e-01 1.5681096892810380e-04 5.7899322017411570e-03  5.0000000000000000e-01 1.5919837664747898e-04 4.6538919421918344e-03  2.9514121369931351e-01 -6.6099485446711320e-03 5.7756165483275074e-03  2.9514123408319803e-01 -6.6075352012144629e-03 4.6396845753647244e-03  2.4392846698431192e-01 -6.5824264233524605e-03 5.7761140130724647e-03  2.4392834970134250e-01 -6.5800061457389159e-03 4.6404106766234085e-03  3.4635398532720801e-01 -6.6325854911833265e-03 5.7756546600086214e-03  3.4635398316603766e-01 -6.6301797825692272e-03 4.6396671771544917e-03  3.9756874208929210e-01 -6.6478375945829846e-03 5.7755916252135138e-03  3.9756874326890557e-01 -6.6454413995155675e-03 4.6395955420921921e-03  4.4878426478402816e-01 -6.6565038734447031e-03 5.7755839352617135e-03  4.4878426482141109e-01 -6.6541136449767514e-03 4.6395846444869521e-03  5.0000000000000000e-01 -6.6593130535414213e-03 5.7755851044713888e-03  5.0000000000000000e-01 -6.6569246781478450e-03 4.6395845233498396e-03  2.9514910781742693e-01 -1.3425155850490252e-02 5.7610354483492911e-03  2.9514912124073683e-01 -1.3422729998465971e-02 4.6251394126672766e-03  2.4393933836690762e-01 -1.3400074266296681e-02 5.7612490415101083e-03  2.4393921977453173e-01 -1.3397622448892765e-02 4.6255454531456781e-03  3.4636000027367597e-01 -1.3448105221441966e-02 5.7611672407651008e-03  3.4635999309128779e-01 -1.3445691497003490e-02 4.6252265352357998e-03  3.9757268749513563e-01 -1.3463607119078947e-02 5.7611821546397594e-03  3.9757268599553625e-01 -1.3461207803183462e-02 4.6252308557287510e-03  4.4878619003835724e-01 -1.3472356687378215e-02 5.7612188065588937e-03  4.4878618889530753e-01 -1.3469965329414628e-02 4.6252604108089727e-03  5.0000000000000000e-01 -1.3475182913724282e-02 5.7612329948971714e-03  5.0000000000000000e-01 -1.3472793971565878e-02 4.6252718944008757e-03  2.9515622588022489e-01 -2.0240204000291855e-02 5.7463889577250467e-03  2.9515622708506456e-01 -2.0237765639079537e-02 4.6105131234226923e-03  2.4394829936989842e-01 -2.0216424064933302e-02 5.7463418718956159e-03  2.4394814977000934e-01 -2.0213982272571946e-02 4.6105859112137741e-03  3.4636578822621461e-01 -2.0263423830845784e-02 5.7466297908270771e-03  3.4636577541924213e-01 -2.0261004570712685e-02 4.6107346939399611e-03  3.9757653563346840e-01 -2.0279119718597825e-02 5.7467562702249817e-03  3.9757653070284993e-01 -2.0276718616133331e-02 4.6108494125458588e-03  4.4878807019486894e-01 -2.0287955615879191e-02 5.7468485936778765e-03  4.4878806765461993e-01 -2.0285563847855861e-02 4.6109307090131087e-03  5.0000000000000000e-01 -2.0290805420632614e-02 5.7468789109828338e-03  5.0000000000000000e-01 -2.0288416461970094e-02 4.6109568612734591e-03  2.9516291900384317e-01 -2.7055283853078035e-02 5.7316447127576551e-03  2.9516291188083310e-01 -2.7052831551780395e-02 4.5957844167573581e-03  2.4395443313829543e-01 -2.7031533910027002e-02 5.7318144537439556e-03  2.4395422196677219e-01 -2.7029173254358729e-02 4.5959001735883685e-03  3.4637142542063487e-01 -2.7078563768521430e-02 5.7320652324107917e-03  3.4637140594164323e-01 -2.7076142774169153e-02 4.5962161117156890e-03  3.9758025881529890e-01 -2.7094384460832930e-02 5.7323234779202894e-03  3.9758025011619857e-01 -2.7091982959286751e-02 4.5964608888048727e-03  4.4878988007021303e-01 -2.7103312738319136e-02 5.7324784791776299e-03  4.4878987605539827e-01 -2.7100921334676707e-02 4.5966005570354925e-03  5.0000000000000000e-01 -2.7106193423395240e-02 5.7325267423413030e-03  5.0000000000000000e-01 -2.7103805053591380e-02 4.5966430807740785e-03  2.9516976411248091e-01 -3.3870493772423078e-02 5.7168037641518255e-03  2.9516975484560010e-01 -3.3868052442972259e-02 4.5809601106833985e-03  2.4395821429002407e-01 -3.3846073522570318e-02 5.7183729203383890e-03  2.4395791222342805e-01 -3.3843986071591517e-02 4.5820914369044154e-03  3.4637695604940166e-01 -3.3893485487790295e-02 5.7175147826278028e-03  3.4637693014740673e-01 -3.3891067069689432e-02 4.5817120517528034e-03  3.9758381446264973e-01 -3.3909410152883776e-02 5.7178916133753368e-03  3.9758380324057241e-01 -3.3907008672004330e-02 4.5820737022973001e-03  4.4879158945381170e-01 -3.3918446481151249e-02 5.7181129237953501e-03  4.4879158396555902e-01 -3.3916055722810097e-02 4.5822745451214253e-03  5.0000000000000000e-01 -3.3921366774813770e-02 5.7181801054676873e-03  5.0000000000000000e-01 -3.3918979468207759e-02 4.5823341255723437e-03  2.9509187246564689e-01 2.7477585656317662e-02 3.5746645592460644e-03  2.9508281486599491e-01 3.4295976187560341e-02 3.5886313413926092e-03  2.4383816538127343e-01 3.4338898478330583e-02 3.5884864343407622e-03  2.4385610266320548e-01 2.7518981031747776e-02 3.5745474605845401e-03  3.4632208262023234e-01 2.7454837984990370e-02 3.5747586582305512e-03  3.4631652762971382e-01 3.4272562137793443e-02 3.5888846169928870e-03  3.9754914891803528e-01 2.7440039283891698e-02 3.5748301172617374e-03  3.9754571494598978e-01 3.4257491196440955e-02 3.5890346991114754e-03  4.4877484458494082e-01 2.7431395426993025e-02 3.5748536945449201e-03  4.4877317693064644e-01 3.4248733958281589e-02 3.5890894588517597e-03  5.0000000000000000e-01 2.7428548670823179e-02 3.5748570673472709e-03  5.0000000000000000e-01 3.4245853958600268e-02 3.5890989061388308e-03  2.9510205856476668e-01 2.0659794625841801e-02 3.5606795983165770e-03  2.4387343689436786e-01 2.0699857906936729e-02 3.5608353892154173e-03  3.4632821496711685e-01 2.0637479810356737e-02 3.5606321908154049e-03  3.9755283774229450e-01 2.0622839246833762e-02 3.5606242964363014e-03  4.4877661611032621e-01 2.0614273046870954e-02 3.5606167481097707e-03  5.0000000000000000e-01 2.0611452567431073e-02 3.5606137819620474e-03  2.9511259814191904e-01 1.3842658082746158e-02 3.5466038758881200e-03  2.4388897256731923e-01 1.3880663296600272e-02 3.5471843494564738e-03  3.4633468297843023e-01 1.3820559521422256e-02 3.5464762884850017e-03  3.9755671576421669e-01 1.3805921565037337e-02 3.5464042641333410e-03  4.4877846950779660e-01 1.3797387164645895e-02 3.5463739275406114e-03  5.0000000000000000e-01 1.3794583591819731e-02 3.5463661919167186e-03  2.9512287396868447e-01 7.0262013512853274e-03 3.5324385629576546e-03  2.4390302986880885e-01 7.0608996018722194e-03 3.5333085570852176e-03  3.4634124727103494e-01 7.0040770486260008e-03 3.5322730645291228e-03  3.9756070680017647e-01 6.9893013588416793e-03 3.5321624777189592e-03  4.4878037991923220e-01 6.9807533238728662e-03 3.5321220444376874e-03  5.0000000000000000e-01 6.9779560504234983e-03 3.5321124169393212e-03  2.9513248967676331e-01 2.1033357934825995e-04 3.5181601614819201e-03  2.4391609036655301e-01 2.4121921446099400e-04 3.5191824534421350e-03  3.4634771997448049e-01 1.8798335884301468e-04 3.5180082262699442e-03  3.9756473683696070e-01 1.7298013921499464e-04 3.5178945062226937e-03  4.4878232046657285e-01 1.6438005498754609e-04 3.5178591537829238e-03  5.0000000000000000e-01 1.6157915967248199e-04 3.5178515461257043e-03  2.9514125551172998e-01 -6.6051215976175338e-03 3.5037585206279067e-03  2.4392824705123986e-01 -6.5775532538904936e-03 3.5046752843823688e-03  3.4635398190613564e-01 -6.6277816438944951e-03 3.5036779657934129e-03  3.9756874445287932e-01 -6.6430530740967577e-03 3.5035991335935351e-03  4.4878426482157369e-01 -6.6517304479675153e-03 3.5035851288137089e-03  5.0000000000000000e-01 -6.6545429575243864e-03 3.5035838181536176e-03  2.9514913467756482e-01 -1.3420300216943551e-02 3.4892489547684318e-03  2.4393910844354783e-01 -1.3395125505993394e-02 3.4898195108419737e-03  3.4635998712736321e-01 -1.3443284865858433e-02 3.4892843671404982e-03  3.9757268480030628e-01 -1.3458816379133291e-02 3.4892793612446441e-03  4.4878618787500463e-01 -1.3467581017565658e-02 3.4893018144059682e-03  5.0000000000000000e-01 -1.3470411661529572e-02 3.4893106919362316e-03  2.9515622867448094e-01 -2.0235321917105108e-02 3.4746419767909690e-03  2.4394801188284126e-01 -2.0211483483450747e-02 3.4748155781923681e-03  3.4636576388103768e-01 -2.0258592130222953e-02 3.4748387876326749e-03  3.9757652632601581e-01 -2.0274325376780557e-02 3.4749424611354948e-03  4.4878806537056426e-01 -2.0283179063858126e-02 3.4750126606148389e-03  5.0000000000000000e-01 -2.0286034046139871e-02 3.4750347367798595e-03  2.9516290636495890e-01 -2.7050374996330673e-02 3.4599286530813756e-03  2.4395404013915956e-01 -2.7026746710974086e-02 3.4599829545809164e-03  3.4637138806261575e-01 -2.7073728617530851e-02 3.4603669834527635e-03  3.9758024227707001e-01 -2.7089589192783835e-02 3.4605981800656061e-03  4.4878987243509921e-01 -2.7098536747968673e-02 3.4607224869286383e-03  5.0000000000000000e-01 -2.7101423064136054e-02 3.4607593671733424e-03  2.9516974788721728e-01 -3.3865588401075314e-02 3.4451440480188634e-03  2.4395771787223083e-01 -3.3841689404929265e-02 3.4457611175372624e-03  3.4637691019982675e-01 -3.3888653056127781e-02 3.4459081547338895e-03  3.9758379403476535e-01 -3.3904615164897886e-02 3.4462556747136344e-03  4.4879157956793725e-01 -3.3913671821442719e-02 3.4464358935926433e-03  5.0000000000000000e-01 -3.3916598319281885e-02 3.4464880653264423e-03  2.9509187079170968e-01 2.7479909735358594e-02 2.4383180153828431e-03  2.9508281550855575e-01 3.4298295088317554e-02 2.4521776350166376e-03  2.4383817788202719e-01 3.4341184735925581e-02 2.4517076869677336e-03  2.4385608163474842e-01 2.7521258822545282e-02 2.4381070441798778e-03  3.4632207851618590e-01 2.7457189470138352e-02 2.4384979294010101e-03  3.4631652338169999e-01 3.4274911989637578e-02 2.4525708591319360e-03  3.9754914682812292e-01 2.7442404021271946e-02 2.4386105393381669e-03  3.9754571253243109e-01 3.4259855486209127e-02 2.4527739905235860e-03  4.4877484400536055e-01 2.7433765178508988e-02 2.4386520491867254e-03  4.4877317620889279e-01 3.4251103553687157e-02 2.4528497034770939e-03  5.0000000000000000e-01 2.7430919449964238e-02 2.4386606807513317e-03  5.0000000000000000e-01 3.4248224511010041e-02 2.4528652931637726e-03  2.9510206590000948e-01 2.0662127807583260e-02 2.4244390663964205e-03  2.4387339544367223e-01 2.0702122445820290e-02 2.4246393891845901e-03  3.4632821395787300e-01 2.0639834701166912e-02 2.4244264341683783e-03  3.9755283741280645e-01 2.0625205429015657e-02 2.4244475430944966e-03  4.4877661609375596e-01 2.0616643445093598e-02 2.4244542572632809e-03  5.0000000000000000e-01 2.0613823841865740e-02 2.4244554673721265e-03  2.9511261559786006e-01 1.3845006106924941e-02 2.4104658977229876e-03  2.4388891937394983e-01 1.3882948415922278e-02 2.4111729667782248e-03  3.4633468461583355e-01 1.3822920453567355e-02 2.4103268368051872e-03  3.9755671712217944e-01 1.3808290569517264e-02 2.4102718869893629e-03  4.4877846997443771e-01 1.3799758742296414e-02 2.4102514582824397e-03  5.0000000000000000e-01 1.3796955686045108e-02 2.4102466785856022e-03  2.9512289824780114e-01 7.0285653796953486e-03 2.3963881312643732e-03  2.4390297705089481e-01 7.0632372681475051e-03 2.3974240567499359e-03  3.4634125018879458e-01 7.0064466887281122e-03 2.3961792237703751e-03  3.9756070912367014e-01 6.9916740718632851e-03 2.3960752138819435e-03  4.4878038058458714e-01 6.9831264286183675e-03 2.3960402148505092e-03  5.0000000000000000e-01 6.9803291575014298e-03 2.3960322516258731e-03  2.9513251668264034e-01 2.1271768373875403e-04 2.3821833329845167e-03  2.4391602940758034e-01 2.4361094777857262e-04 2.3833680699130869e-03  3.4634772240183997e-01 1.9036307299424396e-04 2.3819673348211509e-03  3.9756473909379059e-01 1.7535690136967453e-04 2.3818525311626116e-03  4.4878232097506243e-01 1.6675482498588952e-04 2.3818183297885744e-03  5.0000000000000000e-01 1.6395332286325725e-04 2.3818110254776900e-03  2.9514128034011022e-01 -6.6027164853856230e-03 2.3678368469306327e-03  2.4392817631496763e-01 -6.5751032561721335e-03 2.3689057721650668e-03  3.4635398168359838e-01 -6.6253920276756013e-03 2.3676866101028072e-03  3.9756874557294186e-01 -6.6406724435443890e-03 2.3676024041507596e-03  4.4878426480016737e-01 -6.6493541448312023e-03 2.3675854077744051e-03  5.0000000000000000e-01 -6.6521678699697070e-03 2.3675830000183494e-03  2.9514915078676790e-01 -1.3417876851036341e-02 2.3533621032561427e-03  2.4393902649219421e-01 -1.3392629384105337e-02 2.3540630232223060e-03  3.4635998243206040e-01 -1.3440886738910508e-02 2.3533402747923276e-03  3.9757268379007382e-01 -1.3456432650330847e-02 2.3533276358821023e-03  4.4878618697783818e-01 -1.3465203575659900e-02 2.3533430420466174e-03  5.0000000000000000e-01 -1.3468035950042256e-02 2.3533493984242721e-03  2.9515623213514269e-01 -2.0232883752798990e-02 2.3387737575730253e-03  2.4394790463456070e-01 -2.0208974299452728e-02 2.3390179348589143e-03  3.4636575349038057e-01 -2.0256188219932660e-02 2.3389413811782866e-03  3.9757652237623786e-01 -2.0271939772943809e-02 2.3390353577089568e-03  4.4878806335220378e-01 -2.0280801071087470e-02 2.3390944787303075e-03  5.0000000000000000e-01 -2.0283658140936706e-02 2.3391125467327103e-03  2.9516290137750262e-01 -2.7047927041447119e-02 2.3240772410025637e-03  2.4395389233253972e-01 -2.7024271845448759e-02 2.3240392676208638e-03  3.4637137141241814e-01 -2.7071322562567470e-02 2.3245166047330765e-03  3.9758023520718455e-01 -2.7087202986518358e-02 2.3247353664374503e-03  4.4878986924976400e-01 -2.7096158816184431e-02 2.3248442979446385e-03  5.0000000000000000e-01 -2.7099047439405957e-02 2.3248756086751130e-03  2.9516973886428943e-01 -3.3863133462623013e-02 2.3093330138512103e-03  2.4395760072259468e-01 -3.3839273939654226e-02 2.3093852055208262e-03  3.4637689388038462e-01 -3.3886246657805347e-02 2.3101026298500073e-03  3.9758378625383234e-01 -3.3902229533874770e-02 2.3104377197469121e-03  4.4879157602036235e-01 -3.3911294450779360e-02 2.3105971589730680e-03  5.0000000000000000e-01 -3.3914223327684526e-02 2.3106419555944074e-03  2.9509186360152723e-01 2.7482217521420094e-02 1.3019709640976064e-03  2.9508281134624209e-01 3.4300597599865999e-02 1.3157236982195269e-03  2.4383819853765989e-01 3.4343410602418342e-02 1.3149322150802234e-03  2.4385608027913269e-01 2.7523487392108390e-02 1.3016637471975291e-03  3.4632207131481518e-01 2.7459532046493686e-02 1.3022367853697152e-03  3.4631651670024693e-01 3.4277253740900529e-02 1.3162568731370432e-03  3.9754914333088243e-01 2.7444761808946214e-02 1.3023907682151211e-03  3.9754570903641945e-01 3.4262213157521475e-02 1.3165131365133749e-03  4.4877484287454772e-01 2.7436128512161897e-02 1.3024503199558447e-03  4.4877317505481695e-01 3.4253466884822122e-02 1.3166098870634748e-03  5.0000000000000000e-01 2.7433283975968871e-02 1.3024642517414568e-03  5.0000000000000000e-01 3.4250588939910225e-02 1.3166316334309752e-03  2.9510207069654243e-01 2.0664444317259688e-02 1.2881981990104168e-03  2.4387338402721070e-01 2.0704358978178225e-02 1.2884356370791675e-03  3.4632821081675619e-01 2.0642180348701283e-02 1.2882199182404522e-03  3.9755283588050255e-01 2.0627564435524937e-02 1.2882704726319178e-03  4.4877661559181048e-01 2.0619007277334702e-02 1.2882916277391875e-03  5.0000000000000000e-01 2.0616188739203088e-02 1.2882970679372245e-03  2.9511263354424433e-01 1.3847338