<?xml version="1.0"?>
<VTKFile type="UnstructuredGrid"  version="0.1"  >
<UnstructuredGrid>
<Piece  NumberOfPoints="395" NumberOfCells="1500">
<Points>
<DataArray  type="Float64"  NumberOfComponents="3"  format="ascii">0 0 0.15  0 0 0.2  1 0 0.2  1 0.3 0.2  0 0.3 0.2  1 0.3 0.25  1 0 0.25  0 0 0.25  0 0.3 0.25  2 0 0.2  2 0.3 0.2  2 0.3 0.25  2 0 0.25  3 0 0.2  3 0.3 0.2  3 0.3 0.25  3 0 0.25  4 0 0.2  4 0.3 0.2  4 0.3 0.25  4 0 0.25  5 0 0.2  5 0.3 0.2  5 0.3 0.25  5 0 0.25  1 0.6 0.2  1 0.6 0.25  0 0.6 0.2  0 0.6 0.25  2 0.6 0.2  2 0.6 0.25  3 0.6 0.2  3 0.6 0.25  4 0.6 0.2  4 0.6 0.25  5 0.6 0.2  5 0.6 0.25  1 0.9 0.2  1 0.9 0.25  0 0.9 0.2  0 0.9 0.25  2 0.9 0.2  2 0.9 0.25  3 0.9 0.2  3 0.9 0.25  4 0.9 0.2  4 0.9 0.25  5 0.9 0.2  5 0.9 0.25  1 1.2 0.2  1 1.2 0.25  0 1.2 0.2  0 1.2 0.25  2 1.2 0.2  2 1.2 0.25  3 1.2 0.2  3 1.2 0.25  4 1.2 0.2  4 1.2 0.25  5 1.2 0.2  5 1.2 0.25  1 1.5 0.25  0 1.5 0.25  0 1.5 0.2  2 1.5 0.25  3 1.5 0.25  4 1.5 0.25  5 1.5 0.25  1 1.8 0.25  0 1.8 0.25  1 0.3 0.3  1 0 0.3  0 0 0.3  0 0.3 0.3  2 0.3 0.3  2 0 0.3  3 0.3 0.3  3 0 0.3  4 0.3 0.3  4 0 0.3  5 0.3 0.3  5 0 0.3  1 0.6 0.3  0 0.6 0.3  2 0.6 0.3  3 0.6 0.3  4 0.6 0.3  5 0.6 0.3  1 0.9 0.3  0 0.9 0.3  2 0.9 0.3  3 0.9 0.3  4 0.9 0.3  5 0.9 0.3  1 1.2 0.3  0 1.2 0.3  2 1.2 0.3  3 1.2 0.3  4 1.2 0.3  5 1.2 0.3  1 1.5 0.3  0 1.5 0.3  2 1.5 0.3  3 1.5 0.3  4 1.5 0.3  5 1.5 0.3  1 1.8 0.3  0 1.8 0.3  2 1.8 0.3  3 1.8 0.3  4 1.8 0.3  5 1.8 0.3  1 2.1 0.3  0 2.1 0.3  2 2.1 0.3  1 0.3 0.35  1 0 0.35  0 0 0.35  0 0.3 0.35  2 0.3 0.35  2 0 0.35  3 0.3 0.35  3 0 0.35  4 0.3 0.35  4 0 0.35  5 0.3 0.35  5 0 0.35  1 0.6 0.35  0 0.6 0.35  2 0.6 0.35  3 0.6 0.35  4 0.6 0.35  5 0.6 0.35  1 0.9 0.35  0 0.9 0.35  2 0.9 0.35  3 0.9 0.35  4 0.9 0.35  5 0.9 0.35  1 1.2 0.35  0 1.2 0.35  2 1.2 0.35  3 1.2 0.35  4 1.2 0.35  5 1.2 0.35  1 1.5 0.35  0 1.5 0.35  2 1.5 0.35  3 1.5 0.35  4 1.5 0.35  5 1.5 0.35  1 1.8 0.35  0 1.8 0.35  2 1.8 0.35  3 1.8 0.35  4 1.8 0.35  5 1.8 0.35  1 2.1 0.35  0 2.1 0.35  2 2.1 0.35  3 2.1 0.3  3 2.1 0.35  4 2.1 0.3  4 2.1 0.35  5 2.1 0.3  5 2.1 0.35  1 2.4 0.3  1 2.4 0.35  0 2.4 0.3  0 2.4 0.35  2 2.4 0.3  2 2.4 0.35  3 2.4 0.3  3 2.4 0.35  4 2.4 0.3  4 2.4 0.35  5 2.4 0.3  5 2.4 0.35  1 2.7 0.3  1 2.7 0.35  0 2.7 0.3  0 2.7 0.35  2 2.7 0.3  2 2.7 0.35  3 2.7 0.3  3 2.7 0.35  4 2.7 0.3  4 2.7 0.35  5 2.7 0.35  1 3 0.3  1 3 0.35  0 3 0.3  0 3 0.35  2 3 0.35  3 3 0.35  4 3 0.35  5 3 0.35  1 0.3 0.4  1 0 0.4  0 0 0.4  0 0.3 0.4  2 0.3 0.4  2 0 0.4  3 0.3 0.4  3 0 0.4  4 0.3 0.4  4 0 0.4  5 0.3 0.4  5 0 0.4  1 0.6 0.4  0 0.6 0.4  2 0.6 0.4  3 0.6 0.4  4 0.6 0.4  5 0.6 0.4  1 0.9 0.4  0 0.9 0.4  2 0.9 0.4  3 0.9 0.4  4 0.9 0.4  5 0.9 0.4  1 1.2 0.4  0 1.2 0.4  2 1.2 0.4  3 1.2 0.4  4 1.2 0.4  5 1.2 0.4  1 1.5 0.4  0 1.5 0.4  2 1.5 0.4  3 1.5 0.4  4 1.5 0.4  5 1.5 0.4  1 1.8 0.4  0 1.8 0.4  2 1.8 0.4  3 1.8 0.4  4 1.8 0.4  5 1.8 0.4  1 2.1 0.4  0 2.1 0.4  2 2.1 0.4  3 2.1 0.4  4 2.1 0.4  5 2.1 0.4  1 2.4 0.4  0 2.4 0.4  2 2.4 0.4  3 2.4 0.4  4 2.4 0.4  5 2.4 0.4  1 2.7 0.4  0 2.7 0.4  2 2.7 0.4  3 2.7 0.4  4 2.7 0.4  5 2.7 0.4  1 3 0.4  0 3 0.4  2 3 0.4  3 3 0.4  4 3 0.4  5 3 0.4  1 0.3 0.45  1 0 0.45  0 0 0.45  0 0.3 0.45  2 0.3 0.45  2 0 0.45  3 0.3 0.45  3 0 0.45  4 0.3 0.45  4 0 0.45  5 0.3 0.45  5 0 0.45  1 0.6 0.45  0 0.6 0.45  2 0.6 0.45  3 0.6 0.45  4 0.6 0.45  5 0.6 0.45  1 0.9 0.45  0 0.9 0.45  2 0.9 0.45  3 0.9 0.45  4 0.9 0.45  5 0.9 0.45  1 1.2 0.45  0 1.2 0.45  2 1.2 0.45  3 1.2 0.45  4 1.2 0.45  5 1.2 0.45  1 1.5 0.45  0 1.5 0.45  2 1.5 0.45  3 1.5 0.45  4 1.5 0.45  5 1.5 0.45  1 1.8 0.45  0 1.8 0.45  2 1.8 0.45  3 1.8 0.45  4 1.8 0.45  5 1.8 0.45  1 2.1 0.45  0 2.1 0.45  2 2.1 0.45  3 2.1 0.45  4 2.1 0.45  5 2.1 0.45  1 2.4 0.45  0 2.4 0.45  2 2.4 0.45  3 2.4 0.45  4 2.4 0.45  5 2.4 0.45  1 2.7 0.45  0 2.7 0.45  2 2.7 0.45  3 2.7 0.45  4 2.7 0.45  5 2.7 0.45  1 3 0.45  0 3 0.45  2 3 0.45  3 3 0.45  4 3 0.45  5 3 0.45  1 0.3 0.5  1 0 0.5  0 0 0.5  0 0.3 0.5  2 0.3 0.5  2 0 0.5  3 0.3 0.5  3 0 0.5  4 0.3 0.5  4 0 0.5  5 0.3 0.5  5 0 0.5  1 0.6 0.5  0 0.6 0.5  2 0.6 0.5  3 0.6 0.5  4 0.6 0.5  5 0.6 0.5  1 0.9 0.5  0 0.9 0.5  2 0.9 0.5  3 0.9 0.5  4 0.9 0.5  5 0.9 0.5  1 1.2 0.5  0 1.2 0.5  2 1.2 0.5  3 1.2 0.5  4 1.2 0.5  5 1.2 0.5  1 1.5 0.5  0 1.5 0.5  2 1.5 0.5  3 1.5 0.5  4 1.5 0.5  5 1.5 0.5  1 1.8 0.5  0 1.8 0.5  2 1.8 0.5  3 1.8 0.5  4 1.8 0.5  5 1.8 0.5  1 2.1 0.5  0 2.1 0.5  2 2.1 0.5  3 2.1 0.5  4 2.1 0.5  5 2.1 0.5  1 2.4 0.5  0 2.4 0.5  2 2.4 0.5  3 2.4 0.5  4 2.4 0.5  5 2.4 0.5  1 2.7 0.5  0 2.7 0.5  2 2.7 0.5  3 2.7 0.5  4 2.7 0.5  5 2.7 0.5  1 3 0.5  0 3 0.5  2 3 0.5  3 3 0.5  4 3 0.5  5 3 0.5  </DataArray>
</Points>
<Cells>
<DataArray  type="UInt32"  Name="connectivity"  format="ascii">0 1 2 3  0 1 4 3  1 2 3 5  1 2 6 5  1 7 6 5  1 4 3 5  1 7 8 5  1 4 8 5  2 9 10 11  2 9 12 11  2 6 12 11  2 3 10 11  2 6 5 11  2 3 5 11  9 13 14 15  9 13 16 15  9 12 16 15  9 10 14 15  9 12 11 15  9 10 11 15  13 17 18 19  13 17 20 19  13 16 20 19  13 14 18 19  13 16 15 19  13 14 15 19  17 21 22 23  17 21 24 23  17 20 24 23  17 18 22 23  17 20 19 23  17 18 19 23  4 3 25 26  4 3 5 26  4 8 5 26  4 27 25 26  4 8 28 26  4 27 28 26  3 10 29 30  3 10 11 30  3 5 11 30  3 25 29 30  3 5 26 30  3 25 26 30  10 14 31 32  10 14 15 32  10 11 15 32  10 29 31 32  10 11 30 32  10 29 30 32  14 18 33 34  14 18 19 34  14 15 19 34  14 31 33 34  14 15 32 34  14 31 32 34  18 22 35 36  18 22 23 36  18 19 23 36  18 33 35 36  18 19 34 36  18 33 34 36  27 25 37 38  27 25 26 38  27 28 26 38  27 39 37 38  27 28 40 38  27 39 40 38  25 29 41 42  25 29 30 42  25 26 30 42  25 37 41 42  25 26 38 42  25 37 38 42  29 31 43 44  29 31 32 44  29 30 32 44  29 41 43 44  29 30 42 44  29 41 42 44  31 33 45 46  31 33 34 46  31 32 34 46  31 43 45 46  31 32 44 46  31 43 44 46  33 35 47 48  33 35 36 48  33 34 36 48  33 45 47 48  33 34 46 48  33 45 46 48  39 37 49 50  39 37 38 50  39 40 38 50  39 51 49 50  39 40 52 50  39 51 52 50  37 41 53 54  37 41 42 54  37 38 42 54  37 49 53 54  37 38 50 54  37 49 50 54  41 43 55 56  41 43 44 56  41 42 44 56  41 53 55 56  41 42 54 56  41 53 54 56  43 45 57 58  43 45 46 58  43 44 46 58  43 55 57 58  43 44 56 58  43 55 56 58  45 47 59 60  45 47 48 60  45 46 48 60  45 57 59 60  45 46 58 60  45 57 58 60  51 49 50 61  51 52 50 61  51 52 62 61  51 63 62 61  49 53 54 64  49 50 54 64  49 50 61 64  53 55 56 65  53 54 56 65  53 54 64 65  55 57 58 66  55 56 58 66  55 56 65 66  57 59 60 67  57 58 60 67  57 58 66 67  63 62 61 68  63 62 69 68  7 6 5 70  7 6 71 70  7 72 71 70  7 8 5 70  7 72 73 70  7 8 73 70  6 12 11 74  6 12 75 74  6 71 75 74  6 5 11 74  6 71 70 74  6 5 70 74  12 16 15 76  12 16 77 76  12 75 77 76  12 11 15 76  12 75 74 76  12 11 74 76  16 20 19 78  16 20 79 78  16 77 79 78  16 15 19 78  16 77 76 78  16 15 76 78  20 24 23 80  20 24 81 80  20 79 81 80  20 19 23 80  20 79 78 80  20 19 78 80  8 5 26 82  8 5 70 82  8 73 70 82  8 28 26 82  8 73 83 82  8 28 83 82  5 11 30 84  5 11 74 84  5 70 74 84  5 26 30 84  5 70 82 84  5 26 82 84  11 15 32 85  11 15 76 85  11 74 76 85  11 30 32 85  11 74 84 85  11 30 84 85  15 19 34 86  15 19 78 86  15 76 78 86  15 32 34 86  15 76 85 86  15 32 85 86  19 23 36 87  19 23 80 87  19 78 80 87  19 34 36 87  19 78 86 87  19 34 86 87  28 26 38 88  28 26 82 88  28 83 82 88  28 40 38 88  28 83 89 88  28 40 89 88  26 30 42 90  26 30 84 90  26 82 84 90  26 38 42 90  26 82 88 90  26 38 88 90  30 32 44 91  30 32 85 91  30 84 85 91  30 42 44 91  30 84 90 91  30 42 90 91  32 34 46 92  32 34 86 92  32 85 86 92  32 44 46 92  32 85 91 92  32 44 91 92  34 36 48 93  34 36 87 93  34 86 87 93  34 46 48 93  34 86 92 93  34 46 92 93  40 38 50 94  40 38 88 94  40 89 88 94  40 52 50 94  40 89 95 94  40 52 95 94  38 42 54 96  38 42 90 96  38 88 90 96  38 50 54 96  38 88 94 96  38 50 94 96  42 44 56 97  42 44 91 97  42 90 91 97  42 54 56 97  42 90 96 97  42 54 96 97  44 46 58 98  44 46 92 98  44 91 92 98  44 56 58 98  44 91 97 98  44 56 97 98  46 48 60 99  46 48 93 99  46 92 93 99  46 58 60 99  46 92 98 99  46 58 98 99  52 50 61 100  52 50 94 100  52 95 94 100  52 62 61 100  52 95 101 100  52 62 101 100  50 54 64 102  50 54 96 102  50 94 96 102  50 61 64 102  50 94 100 102  50 61 100 102  54 56 65 103  54 56 97 103  54 96 97 103  54 64 65 103  54 96 102 103  54 64 102 103  56 58 66 104  56 58 98 104  56 97 98 104  56 65 66 104  56 97 103 104  56 65 103 104  58 60 67 105  58 60 99 105  58 98 99 105  58 66 67 105  58 98 104 105  58 66 104 105  62 61 68 106  62 61 100 106  62 101 100 106  62 69 68 106  62 101 107 106  62 69 107 106  61 64 102 108  61 100 102 108  61 100 106 108  61 68 106 108  64 65 103 109  64 102 103 109  64 102 108 109  65 66 104 110  65 103 104 110  65 103 109 110  66 67 105 111  66 104 105 111  66 104 110 111  69 68 106 112  69 107 106 112  69 107 113 112  68 106 108 114  68 106 112 114  72 71 70 115  72 71 116 115  72 117 116 115  72 73 70 115  72 117 118 115  72 73 118 115  71 75 74 119  71 75 120 119  71 116 120 119  71 70 74 119  71 116 115 119  71 70 115 119  75 77 76 121  75 77 122 121  75 120 122 121  75 74 76 121  75 120 119 121  75 74 119 121  77 79 78 123  77 79 124 123  77 122 124 123  77 76 78 123  77 122 121 123  77 76 121 123  79 81 80 125  79 81 126 125  79 124 126 125  79 78 80 125  79 124 123 125  79 78 123 125  73 70 82 127  73 70 115 127  73 118 115 127  73 83 82 127  73 118 128 127  73 83 128 127  70 74 84 129  70 74 119 129  70 115 119 129  70 82 84 129  70 115 127 129  70 82 127 129  74 76 85 130  74 76 121 130  74 119 121 130  74 84 85 130  74 119 129 130  74 84 129 130  76 78 86 131  76 78 123 131  76 121 123 131  76 85 86 131  76 121 130 131  76 85 130 131  78 80 87 132  78 80 125 132  78 123 125 132  78 86 87 132  78 123 131 132  78 86 131 132  83 82 88 133  83 82 127 133  83 128 127 133  83 89 88 133  83 128 134 133  83 89 134 133  82 84 90 135  82 84 129 135  82 127 129 135  82 88 90 135  82 127 133 135  82 88 133 135  84 85 91 136  84 85 130 136  84 129 130 136  84 90 91 136  84 129 135 136  84 90 135 136  85 86 92 137  85 86 131 137  85 130 131 137  85 91 92 137  85 1
[...]
<PointData  Vectors="f_16"> 
<DataArray  type="Float64"  Name="f_16"  NumberOfComponents="3" format="ascii">0.0000000000000000e+00 0.0000000000000000e+00 0.0000000000000000e+00  0.0000000000000000e+00 0.0000000000000000e+00 0.0000000000000000e+00  4.2597023585186654e-02 3.1617406380376453e-02 1.8924335319087974e-03  4.0515648542171497e-02 2.5406073715997134e-02 2.0361468287789417e-03  0.0000000000000000e+00 0.0000000000000000e+00 0.0000000000000000e+00  4.0508160512769037e-02 2.5406095102613130e-02 7.3477827719334603e-04  4.2585494994993756e-02 3.1624799665637450e-02 7.4460503915220640e-04  0.0000000000000000e+00 0.0000000000000000e+00 0.0000000000000000e+00  0.0000000000000000e+00 0.0000000000000000e+00 0.0000000000000000e+00  9.1266521196225456e-02 3.4645584779224442e-02 1.3420050543343429e-03  9.0982459634239468e-02 2.7943557164725651e-02 1.3234306529751956e-03  9.0999478828909533e-02 2.7943088915856923e-02 2.3464577259247997e-04  9.1284078955806189e-02 3.4645183188535017e-02 2.4783299541443802e-04  1.4150833382379011e-01 3.4682659961564513e-02 1.3115071361562039e-03  1.4149531195088891e-01 2.7899928211219640e-02 1.3124200313150776e-03  1.4149513269055469e-01 2.7900354890051580e-02 1.7854815031547616e-04  1.4150812789180017e-01 3.4682696922166224e-02 1.8174538615743700e-04  1.9258967985000511e-01 3.4454726129701900e-02 1.3159979003639795e-03  1.9262495264288895e-01 2.7634193462001719e-02 1.3033535001851161e-03  1.9262529666769379e-01 2.7636309247046100e-02 1.6776134239034873e-04  1.9259004607713606e-01 3.4456817605833391e-02 1.7952183327468708e-04  2.4383819853765978e-01 3.4343410602418335e-02 1.3149322150769853e-03  2.4385608027913258e-01 2.7523487392108369e-02 1.3016637471950469e-03  2.4385609212207343e-01 2.7525669152193396e-02 1.6521711031997370e-04  2.4383822631583821e-01 3.4345583850233952e-02 1.7816016249768552e-04  3.8192181343048921e-02 1.8339092776132614e-02 2.1918654171328078e-03  3.8179159314474596e-02 1.8331277583100467e-02 7.6234890828023156e-04  0.0000000000000000e+00 0.0000000000000000e+00 0.0000000000000000e+00  0.0000000000000000e+00 0.0000000000000000e+00 0.0000000000000000e+00  9.0416686311969099e-02 2.1222356938713959e-02 1.3173881328347472e-03  9.0435680155247236e-02 2.1223319034967526e-02 2.2140793956685814e-04  1.4139283945403647e-01 2.1081839199731618e-02 1.3121320050470040e-03  1.4139253576014824e-01 2.1083026067536658e-02 1.7407574870686687e-04  1.9264258957767089e-01 2.0807352765544008e-02 1.2898724029433511e-03  1.9264316665648304e-01 2.0809479300980222e-02 1.5520277949311568e-04  2.4387338402721070e-01 2.0704358978178170e-02 1.2884356370771017e-03  2.4387339763089255e-01 2.0706566640976452e-02 1.5222169695449988e-04  3.7180974531856550e-02 1.1988387029939531e-02 2.2486970815194392e-03  3.7166547222708395e-02 1.1982254694877558e-02 7.6983313829752668e-04  0.0000000000000000e+00 0.0000000000000000e+00 0.0000000000000000e+00  0.0000000000000000e+00 0.0000000000000000e+00 0.0000000000000000e+00  8.9882106412820711e-02 1.4458717043589153e-02 1.3000256770072732e-03  8.9904357961032605e-02 1.4461316420805928e-02 2.0017124699726752e-04  1.4127082783008421e-01 1.4199757345002532e-02 1.3059064692398179e-03  1.4127041624526626e-01 1.4201500827736734e-02 1.6506843423287227e-04  1.9264940362509053e-01 1.3972538059751270e-02 1.2765479567251837e-03  1.9265014123264987e-01 1.3974669853574326e-02 1.4236792090560136e-04  2.4388890057802293e-01 1.3885214686955197e-02 1.2751319193273580e-03  2.4388891580905245e-01 1.3887464008548459e-02 1.3906320900393203e-04  3.6698756662836701e-02 6.1521480187652598e-03 2.2749880709878852e-03  3.6683865052353271e-02 6.1483914683887544e-03 7.7152279464075258e-04  0.0000000000000000e+00 0.0000000000000000e+00 0.0000000000000000e+00  0.0000000000000000e+00 0.0000000000000000e+00 0.0000000000000000e+00  8.9439959256581797e-02 7.5328978964643405e-03 1.2967303840639279e-03  8.9463344072536588e-02 7.5354402852553896e-03 1.8824449936923868e-04  1.4118256698769804e-01 7.2730890373526062e-03 1.2959752388551579e-03  1.4118185331306252e-01 7.2751538730379027e-03 1.5332181200380422e-04  1.9265555009519736e-01 7.1310887792992361e-03 1.2630289657215158e-03  1.9265639348376198e-01 7.1333101869242568e-03 1.2912025499206236e-04  2.4390295874503740e-01 7.0655625869920097e-03 1.2615021039038216e-03  2.4390297825090970e-01 7.0678731413210839e-03 1.2554524976717566e-04  3.6532370750885605e-02 5.9180791054543470e-04 7.7145395698409707e-04  0.0000000000000000e+00 0.0000000000000000e+00 0.0000000000000000e+00  0.0000000000000000e+00 0.0000000000000000e+00 0.0000000000000000e+00  8.9285550625634702e-02 5.3003572412225488e-04 1.7785495312335275e-04  1.4117092220407479e-01 3.3194454742657388e-04 1.3789059217978695e-04  1.9266965381721790e-01 2.8746042952239239e-04 1.1536704713162179e-04  2.4391602074314497e-01 2.4835992114298152e-04 1.1163099194022604e-04  3.6675505642938783e-02 -4.9039194906671081e-03 7.7260110083497702e-04  0.0000000000000000e+00 0.0000000000000000e+00 0.0000000000000000e+00  4.0516347865039229e-02 2.5423275891004179e-02 -5.6928115544726664e-04  4.2579873666156259e-02 3.1652167253629564e-02 -4.0682887591807611e-04  0.0000000000000000e+00 0.0000000000000000e+00 0.0000000000000000e+00  0.0000000000000000e+00 0.0000000000000000e+00 0.0000000000000000e+00  9.1014894327483248e-02 2.7942927468119383e-02 -8.5213696528584114e-04  9.1301016048750697e-02 3.4642964878477275e-02 -8.4483772900600810e-04  1.4149569657024358e-01 2.7901600937332380e-02 -9.5567589762900478e-04  1.4150871366216980e-01 3.4683494424543965e-02 -9.4810746517835721e-04  1.9262573450706799e-01 2.7638284780312584e-02 -9.6778182568429288e-04  1.9259052488692782e-01 3.4458710509285229e-02 -9.5694054260614392e-04  2.4385611125068934e-01 2.7527807348052474e-02 -9.7123117710698362e-04  2.4383825824514296e-01 3.4347709558763928e-02 -9.5860849103853753e-04  3.8180190758056322e-02 1.8333995071121080e-02 -6.7205330143717474e-04  0.0000000000000000e+00 0.0000000000000000e+00 0.0000000000000000e+00  9.0450455125007795e-02 2.1225667565856671e-02 -8.7206421642533997e-04  1.4139288872465916e-01 2.1084878221864198e-02 -9.6449856115427696e-04  1.9264376584929507e-01 2.0811486295536960e-02 -9.7936579557649948e-04  2.4387343243041718e-01 2.0708744385875177e-02 -9.8400261578701653e-04  3.7166940822809427e-02 1.1981452663111783e-02 -7.1387507195469534e-04  0.0000000000000000e+00 0.0000000000000000e+00 0.0000000000000000e+00  8.9921010228251733e-02 1.4465574713248773e-02 -8.9664636363629758e-04  1.4127051654720865e-01 1.4203553690009602e-02 -9.7640884228866601e-04  1.9265084385081999e-01 1.3976748025028449e-02 -9.9166985158029601e-04  2.4388896360720549e-01 1.3889696103152846e-02 -9.9702807615875688e-04  3.6684249665764369e-02 6.1472005734909442e-03 -7.3692903807019412e-04  0.0000000000000000e+00 0.0000000000000000e+00 0.0000000000000000e+00  8.9480262188337004e-02 7.5389360323898863e-03 -9.1714097519335347e-04  1.4118149426335549e-01 7.2773059119768009e-03 -9.8999497085728162e-04  1.9265717218971831e-01 7.1355164689545234e-03 -1.0046403946143937e-03  2.4390303605579267e-01 7.0701676080824599e-03 -1.0104404841189318e-03  3.6532976621176431e-02 5.9080549274607096e-04 -7.4663132507843974e-04  0.0000000000000000e+00 0.0000000000000000e+00 0.0000000000000000e+00  8.9302833885103211e-02 5.3253575727207523e-04 -9.3155694791287281e-04  1.4117051333214317e-01 3.3435601735002269e-04 -1.0049188781216512e-03  1.9267047874502286e-01 2.8979350835557882e-04 -1.0182401491074667e-03  2.4391607677638702e-01 2.5071689860447328e-04 -1.0242834154431462e-03  3.6676605549458133e-02 -4.9049492552663962e-03 -7.4304657261532595e-04  0.0000000000000000e+00 0.0000000000000000e+00 0.0000000000000000e+00  8.9429272536696330e-02 -6.5085416848515701e-03 -9.4081304309108092e-04  1.4124248957232541e-01 -6.6077066889672145e-03 -1.0198006024246828e-03  1.9269300027639330e-01 -6.5538450312399663e-03 -1.0324397820601783e-03  2.4392819948350319e-01 -6.5677989958979593e-03 -1.0386045253140052e-03  3.7145926725570377e-02 -1.0546592195854429e-02 -7.2210130880081744e-04  0.0000000000000000e+00 0.0000000000000000e+00 0.0000000000000000e+00  8.9857653985699767e-02 -1.3556944697904921e-02 -9.4618166671074568e-04  4.0543437558840101e-02 2.5457361987485130e-02 -1.8728906604242150e-03  4.2580306796037054e-02 3.1697781554701744e-02 -1.5557293738007330e-03  0.0000000000000000e+00 0.0000000000000000e+00 0.0000000000000000e+00  0.0000000000000000e+00 0.0000000000000000e+00 0.0000000000000000e+00  9.1028328636550970e-02 2.7943647027914235e-02 -1.9381837571863076e-03  9.1316982642517086e-02 3.4639520709383365e-02 -1.9370923879551908e-03  1.4149699252275277e-01 2.7903602117538194e-02 -2.0900365835606984e-03  1.4151006264505886e-01 3.4685083460958117e-02 -2.0779321557233771e-03  1.9262626847382963e-01 2.7640107783563322e-02 -2.1032971097361807e-03  1.9259111030556475e-01 3.4460387803825904e-02 -2.0934043508010949e-03  2.4385613174077811e-01 2.7529904880221244e-02 -2.1076778801332428e-03  2.4383828854696615e-01 3.4349790340138929e-02 -2.0953740381743726e-03  3.8196887355924899e-02 1.8346884017843127e-02 -2.1060516874785696e-03  0.0000000000000000e+00 0.0000000000000000e+00 0.0000000000000000e+00  9.0459879793280795e-02 2.1229374492534491e-02 -1.9645082188557961e-03  1.4139395789918113e-01 2.1087329106027716e-02 -2.1032733226158716e-03  1.9264438438551254e-01 2.0813379275016006e-02 -2.1138737384854382e-03  2.4387348360959149e-01 2.0710891638938383e-02 -2.1202350120289076e-03  3.7183801147483389e-02 1.1986007490833549e-02 -2.1978722712377510e-03  0.0000000000000000e+00 0.0000000000000000e+00 0.0000000000000000e+00  8.9931245380008448e-02 1.4471474521144079e-02 -1.9917852685180019e-03  1.4127127981526674e-01 1.4205931515258351e-02 -2.1181721145191374e-03  1.9265149832032413e-01 1.3978770836150591e-02 -2.1256316411585991e-03  2.4388903960649702e-01 1.3891909835721826e-02 -2.1331350919691888e-03  3.6701572394334303e-02 6.1487223309551701e-03 -2.2458109294529239e-03  0.0000000000000000e+00 0.0000000000000000e+00 0.0000000000000000e+00  8.9489950900518006e-02 7.5433364203861663e-03 -2.0207776984446850e-03  1.4118159372399827e-01 7.2795550492442381e-03 -2.1336532869612197e-03  1.9265786709987703e-01 7.1377061099858335e-03 -2.1383118782014980e-03  2.4390312842484693e-01 7.0724446931602035e-03 -2.1464467268257625e-03  3.6550710551583931e-02 5.9035490647039741e-04 -2.2651442024950747e-03  0.0000000000000000e+00 0.0000000000000000e+00 0.0000000000000000e+00  8.9312594602331583e-02 5.3502479545502048e-04 -2.0392034251632608e-03  1.4117048776725044e-01 3.3666378409119455e-04 -2.1480393972174846e-03  1.9267122668603326e-01 2.9210718425813685e-04 -2.1517558356675772e-03  2.4391616910482264e-01 2.5306188545516818e-04 -2.1602203543222781e-03  3.6694817352599898e-02 -4.9074167946987308e-03 -2.2591004046897279e-03  0.0000000000000000e+00 0.0000000000000000e+00 0.0000000000000000e+00  8.9439614179023366e-02 -6.5080079881214047e-03 -2.0449115233047844e-03  1.4124253011139670e-01 -6.6054557997874998e-03 -2.1612235271494229e-03  1.9269374975494269e-01 -6.5514246187450206e-03 -2.1659756909291239e-03  2.4392828274227926e-01 -6.5653750785714211e-03 -2.1744950150602198e-03  3.7164788674829106e-02 -1.0551901192250543e-02 -2.2235194339688736e-03  0.0000000000000000e+00 0.0000000000000000e+00 0.0000000000000000e+00  8.9869109891711693e-02 -1.3558440110173041e-02 -2.0380529218106550e-03  1.4138365697375480e-01 -1.3518178278261407e-02 -1.0341628581595238e-03  1.4138394099596210e-01 -1.3515856446346645e-02 -2.1735890987338211e-03  1.9272134819764991e-01 -1.3388513367426762e-02 -1.0475112148477695e-03  1.9272210731096950e-01 -1.3385943462243052e-02 -2.1811004236681249e-03  2.4393900891263504e-01 -1.3385143669344207e-02 -1.0533913919725411e-03  2.4393907578116900e-01 -1.3382642363882546e-02 -2.1892574213189507e-03  3.8051693783715673e-02 -1.6552813775266330e-02 -6.7297982247379142e-04  3.8071208711490688e-02 -1.6563058845463035e-02 -2.1434641060247392e-03  0.0000000000000000e+00 0.0000000000000000e+00 0.0000000000000000e+00  0.0000000000000000e+00 0.0000000000000000e+00 0.0000000000000000e+00  9.0551350034511952e-02 -2.0565102658751382e-02 -9.4951621877276550e-04  9.0564845135547412e-02 -2.0568785614531262e-02 -2.0202772672843175e-03  1.4154621269656098e-01 -2.0367098276600888e-02 -1.0484756934190870e-03  1.4154681927074220e-01 -2.0364172434959069e-02 -2.1867689524760277e-03  1.9274706926193680e-01 -2.0213054759278964e-02 -1.0637094578040864e-03  1.9274783765886036e-01 -2.0210360256638679e-02 -2.1973138038849827e-03  2.4394779850911524e-01 -2.0201359171424082e-02 -1.0685494287108323e-03  2.4394782941980322e-01 -2.0198788385909102e-02 -2.2044513308885627e-03  3.9725837505377448e-02 -2.3167153870729765e-02 -5.7003124280139165e-04  3.9743653587020866e-02 -2.3180655525701147e-02 -1.9780968066864684e-03  0.0000000000000000e+00 0.0000000000000000e+00 0.0000000000000000e+00  0.0000000000000000e+00 0.0000000000000000e+00 0.0000000000000000e+00  9.1376604257602009e-02 -2.7416133358718460e-02 -9.5587354864405108e-04  9.1394511509101439e-02 -2.7424572854681705e-02 -2.0005119938806605e-03  1.4165180238452391e-01 -2.7148928130801740e-02 -1.0647159568014553e-03  1.4165244063958249e-01 -2.7144042742984140e-02 -2.2041135979504714e-03  1.9276331361239613e-01 -2.7031635661329427e-02 -1.0809141105595358e-03  1.9276412904236351e-01 -2.7029033314158589e-02 -2.2143410230511134e-03  2.4395359930972968e-01 -2.7013881988018917e-02 -2.2200508977706567e-03  4.3309775030476116e-02 -3.0502560199064752e-02 -4.2164611538120152e-04  4.3338589456972727e-02 -3.0520196863419589e-02 -1.7231037806279413e-03  0.0000000000000000e+00 0.0000000000000000e+00 0.0000000000000000e+00  0.0000000000000000e+00 0.0000000000000000e+00 0.0000000000000000e+00  9.1792429978121232e-02 -3.3946045105308478e-02 -1.9468685368040149e-03  1.4168538389709648e-01 -3.3902865565322834e-02 -2.2384748463350939e-03  1.9275809684336828e-01 -3.3846415676146296e-02 -2.2292914271772437e-03  2.4395748139063181e-01 -3.3828578354886785e-02 -2.2365934073887359e-03  4.0589864492782401e-02 2.5509997082045401e-02 -3.1723145911270478e-03  4.2585880762158010e-02 3.1761610180015824e-02 -2.6971421613849063e-03  0.0000000000000000e+00 0.0000000000000000e+00 0.0000000000000000e+00  0.0000000000000000e+00 0.0000000000000000e+00 0.0000000000000000e+00  9.1040196706584045e-02 2.7945062258624136e-02 -3.0247162078425025e-03  9.1332335872382736e-02 3.4635371150768854e-02 -3.0298946974600845e-03  1.4149889933756268e-01 2.7906312445761024e-02 -3.2243169747130057e-03  1.4151207168094232e-01 3.4687395802240846e-02 -3.2076075965259067e-03  1.9262691504461338e-01 2.7641767616111704e-02 -3.2388125397011035e-03  1.9259180557324995e-01 3.4461846714008072e-02 -3.2298832625582636e-03  2.4385614749337228e-01 2.7531963639798311e-02 -3.2441193744084970e-03  2.4383830814144994e-01 3.4351825681980412e-02 -3.2321370108190470e-03  3.8228488776541461e-02 1.8369910852839660e-02 -3.5346822790808543e-03  0.0000000000000000e+00 0.0000000000000000e+00 0.0000000000000000e+00  9.0464014848415097e-02 2.1234304682741855e-02 -3.0573931236988179e-03  1.4139562098091066e-01 2.1090387620708216e-02 -3.2419353541874528e-03  1.9264504266589760e-01 2.0815152974275858e-02 -3.2483649949866153e-03  2.4387354371934111e-01 2.0713008293613881e-02 -3.2564720391175779e-03  3.7216684865506659e-02 1.1996305706074156e-02 -3.6777482491595842e-03  0.0000000000000000e+00 0.0000000000000000e+00 0.0000000000000000e+00  8.9935399476443981e-02 1.4478901052660829e-02 -3.0865036839606667e-03  1.4127262591789971e-01 1.4208661238488619e-02 -3.2598499717747362e-03  1.9265211707149338e-01 1.3980728904996999e-02 -3.2595896932360348e-03  2.4388913436077758e-01 1.3894104163796637e-02 -3.2692504199758007e-03  3.6735412678078255e-02 6.1532057442025114e-03 -3.7506664502256590e-03  0.0000000000000000e+00 0.0000000000000000e+00 0.0000000000000000e+00  8.9492849155738505e-02 7.5486108646141067e-03 -3.1239492988073634e-03  1.4118203482270764e-01 7.2819221742461866e-03 -3.2773301848815521e-03  1.9265848246728942e-01 7.1398712865244499e-03 -3.2719620605736409e-03  2.4390324509805819e-01 7.0747035048200043e-03 -3.2824634239267689e-03  3.6585132360828838e-02 5.9067743334037645e-04 -3.7796434631412251e-03  0.0000000000000000e+00 0.0000000000000000e+00 0.0000000000000000e+00  8.9315354616999215e-02 5.3749293102589308e-04 -3.1463420401567866e-03  1.4117070241459551e-01 3.3887296757819133e-04 -3.2911161935382668e-03  1.9267190320881494e-01 2.9439586145126625e-04 -3.2852458149420435e-03  2.4391628732032114e-01 2.5539419620944191e-04 -3.2961723233925207e-03  3.6729735721781023e-02 -4.9111113047064035e-03 -3.7711017876714647e-03  0.0000000000000000e+00 0.0000000000000000e+00 0.0000000000000000e+00  8.9443032778719025e-02 -6.5086568222824876e-03 -3.1484751564842223e-03  1.4124283688635261e-01 -6.6034956710003916e-03 -3.3025840101521039e-03  1.9269445689679304e-01 -6.5490213567759008e-03 -3.2995016126754033e-03  2.4392839129111282e-01 -6.5629551125826989e-03 -3.3104005395549999e-03  3.7200238183277688e-02 -1.0560797663703499e-02 -3.7207892783664006e-03  0.0000000000000000e+00 0.0000000000000000e+00 0.0000000000000000e+00  8.9873954581297683e-02 -1.3562326643277551e-02 -3.1293821126971546e-03  1.4138468392631853e-01 -1.3513887385076586e-02 -3.3129596676730695e-03  1.9272287071758706e-01 -1.3383376598010813e-02 -3.3146873964900294e-03  2.4393916707763330e-01 -1.3380136528016420e-02 -3.3251347669939046e-03  3.8106745504538811e-02 -1.6580086629668499e-02 -3.6097809525792945e-03  0.0000000000000000e+00 0.0000000000000000e+00 0.0000000000000000e+00  9.0572423616417680e-02 -2.0575902327778405e-02 -3.0904060707403216e-03  1.4154825347578923e-01 -2.0361505252350573e-02 -3.3250616052410507e-03  1.9274865075227618e-01 -2.0207645021037803e-02 -3.3309109476828366e-03  2.4394788168283060e-01 -2.0196202395048702e-02 -3.3403619117426801e-03  3.9774054628141257e-02 -2.3202550670144758e-02 -3.3856437128649448e-03  0.0000000000000000e+00 0.0000000000000000e+00 0.0000000000000000e+00  9.1408682636132277e-02 -2.7438619784349555e-02 -3.0427239942792481e-03  1.4165425486243879e-01 -2.7138746252499221e-02 -3.3438675452386879e-03  1.9276501356347114e-01 -2.7026464841513758e-02 -3.3477180346448312e-03  2.4395357574992463e-01 -2.7011168241791193e-02 -3.3561195234339180e-03  4.3388824817921841e-02 -3.0531820722370543e-02 -3.0198785759876544e-03  0.0000000000000000e+00 0.0000000000000000e+00 0.0000000000000000e+00  9.1806746815620441e-02 -3.3971590040292259e-02 -2.9507929981115225e-03  1.4168857914434546e-01 -3.3891765225327074e-02 -3.3851831618995284e-03  1.9275873740278721e-01 -3.3844738983551143e-02 -3.3614326206710863e-03  2.4395744986786280e-01 -3.3825629997470560e-02 -3.3732231997695775e-03  4.0652418108362842e-02 2.5585641889798654e-02 -4.4614339166478357e-03  4.2596103660204221e-02 3.1841347184202486e-02 -3.8285772082378498e-03  0.0000000000000000e+00 0.0000000000000000e+00 0.0000000000000000e+00  0.0000000000000000e+00 0.0000000000000000e+00 0.0000000000000000e+00  9.1051782564959202e-02 2.7946126418792568e-02 -4.1129633596496303e-03  9.1348091915721880e-02 3.4631026177529445e-02 -4.1238750270914584e-03  1.4150117875657545e-01 2.7909661670555082e-02 -4.3583326873229619e-03  1.4151454133288138e-01 3.4690245333616108e-02 -4.3370787046751380e-03  1.9262771039508070e-01 2.7643260127845664e-02 -4.3743528360547139e-03  1.9259261818767801e-01 3.4463119594206247e-02 -4.3663759432729238e-03  2.4385615336899377e-01 2.7533984174666973e-02 -4.3805542663142658e-03  2.4383830415039953e-01 3.4353812380308310e-02 -4.3688975397782716e-03  3.8272041707841764e-02 1.8404731116052689e-02 -4.9527883484954778e-03  0.0000000000000000e+00 0.0000000000000000e+00 0.0000000000000000e+00  9.0464274991009952e-02 2.1240173304893546e-02 -4.1523748576595115e-03  1.4139752832134073e-01 2.1094184377081382e-02 -4.3801646522992014e-03  1.9264578818392250e-01 2.0816790007579213e-02 -4.3828822671108806e-03  2.4387360225999041e-01 2.0715092479106089e-02 -