<?xml version="1.0"?>
<VTKFile type="UnstructuredGrid"  version="0.1"  >
<UnstructuredGrid>
<Piece  NumberOfPoints="397" NumberOfCells="1500">
<Points>
<DataArray  type="Float64"  NumberOfComponents="3"  format="ascii">0 0 0  1 0 0  1 0.3 0  1 0.3 0.05  1 0 0.05  0 0 0.05  0 0.3 0  0 0.3 0.05  2 0 0  2 0.3 0  2 0.3 0.05  2 0 0.05  3 0 0  3 0.3 0  3 0.3 0.05  3 0 0.05  4 0 0  4 0.3 0  4 0.3 0.05  4 0 0.05  5 0 0  5 0.3 0  5 0.3 0.05  5 0 0.05  1 0.6 0  1 0.6 0.05  0 0.6 0  0 0.6 0.05  2 0.6 0  2 0.6 0.05  3 0.6 0  3 0.6 0.05  4 0.6 0  4 0.6 0.05  5 0.6 0  5 0.6 0.05  1 0.9 0  1 0.9 0.05  0 0.9 0  0 0.9 0.05  2 0.9 0  2 0.9 0.05  3 0.9 0  3 0.9 0.05  4 0.9 0  4 0.9 0.05  5 0.9 0  5 0.9 0.05  1 1.2 0  1 1.2 0.05  0 1.2 0  0 1.2 0.05  2 1.2 0  2 1.2 0.05  3 1.2 0  3 1.2 0.05  4 1.2 0  4 1.2 0.05  5 1.2 0  5 1.2 0.05  1 1.5 0  1 1.5 0.05  0 1.5 0  0 1.5 0.05  2 1.5 0  2 1.5 0.05  3 1.5 0  3 1.5 0.05  4 1.5 0  4 1.5 0.05  5 1.5 0  5 1.5 0.05  1 1.8 0  1 1.8 0.05  0 1.8 0  0 1.8 0.05  2 1.8 0  2 1.8 0.05  3 1.8 0  3 1.8 0.05  4 1.8 0  4 1.8 0.05  5 1.8 0  5 1.8 0.05  1 2.1 0  1 2.1 0.05  0 2.1 0  0 2.1 0.05  2 2.1 0  2 2.1 0.05  3 2.1 0  3 2.1 0.05  4 2.1 0  4 2.1 0.05  5 2.1 0  5 2.1 0.05  1 2.4 0  1 2.4 0.05  0 2.4 0  0 2.4 0.05  2 2.4 0  2 2.4 0.05  3 2.4 0  3 2.4 0.05  4 2.4 0  4 2.4 0.05  5 2.4 0  5 2.4 0.05  1 2.7 0  1 2.7 0.05  0 2.7 0  0 2.7 0.05  2 2.7 0  2 2.7 0.05  3 2.7 0  3 2.7 0.05  4 2.7 0  4 2.7 0.05  5 2.7 0  5 2.7 0.05  1 3 0  1 3 0.05  0 3 0  0 3 0.05  2 3 0  2 3 0.05  3 3 0  3 3 0.05  4 3 0  4 3 0.05  5 3 0  5 3 0.05  1 0.3 0.1  1 0 0.1  0 0 0.1  0 0.3 0.1  2 0.3 0.1  2 0 0.1  3 0.3 0.1  3 0 0.1  4 0.3 0.1  4 0 0.1  5 0.3 0.1  5 0 0.1  1 0.6 0.1  0 0.6 0.1  2 0.6 0.1  3 0.6 0.1  4 0.6 0.1  5 0.6 0.1  1 0.9 0.1  0 0.9 0.1  2 0.9 0.1  3 0.9 0.1  4 0.9 0.1  5 0.9 0.1  1 1.2 0.1  0 1.2 0.1  2 1.2 0.1  3 1.2 0.1  4 1.2 0.1  5 1.2 0.1  1 1.5 0.1  0 1.5 0.1  2 1.5 0.1  3 1.5 0.1  4 1.5 0.1  5 1.5 0.1  1 1.8 0.1  0 1.8 0.1  2 1.8 0.1  3 1.8 0.1  4 1.8 0.1  5 1.8 0.1  1 2.1 0.1  0 2.1 0.1  2 2.1 0.1  3 2.1 0.1  4 2.1 0.1  5 2.1 0.1  1 2.4 0.1  0 2.4 0.1  2 2.4 0.1  3 2.4 0.1  4 2.4 0.1  5 2.4 0.1  1 2.7 0.1  0 2.7 0.1  2 2.7 0.1  3 2.7 0.1  4 2.7 0.1  5 2.7 0.1  1 3 0.1  0 3 0.1  2 3 0.1  3 3 0.1  4 3 0.1  5 3 0.1  1 0.3 0.15  1 0 0.15  0 0 0.15  0 0.3 0.15  2 0.3 0.15  2 0 0.15  3 0.3 0.15  3 0 0.15  4 0.3 0.15  4 0 0.15  5 0.3 0.15  5 0 0.15  1 0.6 0.15  0 0.6 0.15  2 0.6 0.15  3 0.6 0.15  4 0.6 0.15  5 0.6 0.15  1 0.9 0.15  0 0.9 0.15  2 0.9 0.15  3 0.9 0.15  4 0.9 0.15  5 0.9 0.15  1 1.2 0.15  0 1.2 0.15  2 1.2 0.15  3 1.2 0.15  4 1.2 0.15  5 1.2 0.15  1 1.5 0.15  0 1.5 0.15  2 1.5 0.15  3 1.5 0.15  4 1.5 0.15  5 1.5 0.15  1 1.8 0.15  0 1.8 0.15  2 1.8 0.15  3 1.8 0.15  4 1.8 0.15  5 1.8 0.15  1 2.1 0.15  0 2.1 0.15  2 2.1 0.15  3 2.1 0.15  4 2.1 0.15  5 2.1 0.15  1 2.4 0.15  0 2.4 0.15  2 2.4 0.15  3 2.4 0.15  4 2.4 0.15  5 2.4 0.15  1 2.7 0.15  0 2.7 0.15  2 2.7 0.15  3 2.7 0.15  4 2.7 0.15  5 2.7 0.15  1 3 0.15  0 3 0.15  2 3 0.15  3 3 0.15  4 3 0.15  5 3 0.15  1 0.3 0.2  1 0 0.2  0 0.3 0.2  2 0.3 0.2  2 0 0.2  3 0.3 0.2  3 0 0.2  4 0.3 0.2  4 0 0.2  5 0.3 0.2  5 0 0.2  1 0.6 0.2  0 0.6 0.2  2 0.6 0.2  3 0.6 0.2  4 0.6 0.2  5 0.6 0.2  1 0.9 0.2  0 0.9 0.2  2 0.9 0.2  3 0.9 0.2  4 0.9 0.2  5 0.9 0.2  1 1.2 0.2  0 1.2 0.2  2 1.2 0.2  3 1.2 0.2  4 1.2 0.2  5 1.2 0.2  1 1.5 0.2  0 1.5 0.2  2 1.5 0.2  3 1.5 0.2  4 1.5 0.2  5 1.5 0.2  1 1.8 0.2  0 1.8 0.2  2 1.8 0.2  3 1.8 0.2  4 1.8 0.2  5 1.8 0.2  1 2.1 0.2  0 2.1 0.2  2 2.1 0.2  3 2.1 0.2  4 2.1 0.2  5 2.1 0.2  1 2.4 0.2  0 2.4 0.2  2 2.4 0.2  3 2.4 0.2  4 2.4 0.2  5 2.4 0.2  1 2.7 0.2  0 2.7 0.2  2 2.7 0.2  3 2.7 0.2  4 2.7 0.2  5 2.7 0.2  1 3 0.2  0 3 0.2  2 3 0.2  3 3 0.2  4 3 0.2  5 3 0.2  1 1.5 0.25  2 1.5 0.25  3 1.5 0.25  4 1.5 0.25  5 1.5 0.25  1 1.8 0.25  0 1.8 0.25  2 1.8 0.25  3 1.8 0.25  4 1.8 0.25  5 1.8 0.25  1 2.1 0.25  0 2.1 0.25  2 2.1 0.25  3 2.1 0.25  4 2.1 0.25  5 2.1 0.25  1 2.4 0.25  0 2.4 0.25  2 2.4 0.25  3 2.4 0.25  4 2.4 0.25  5 2.4 0.25  1 2.7 0.25  0 2.7 0.25  2 2.7 0.25  3 2.7 0.25  4 2.7 0.25  5 2.7 0.25  1 3 0.25  0 3 0.25  2 3 0.25  3 3 0.25  4 3 0.25  5 3 0.25  2 1.8 0.3  3 1.8 0.3  4 1.8 0.3  5 1.8 0.3  1 2.1 0.3  0 2.1 0.3  2 2.1 0.3  3 2.1 0.3  4 2.1 0.3  5 2.1 0.3  1 2.4 0.3  0 2.4 0.3  2 2.4 0.3  3 2.4 0.3  4 2.4 0.3  5 2.4 0.3  1 2.7 0.3  0 2.7 0.3  2 2.7 0.3  3 2.7 0.3  4 2.7 0.3  5 2.7 0.3  1 3 0.3  0 3 0.3  2 3 0.3  3 3 0.3  4 3 0.3  5 3 0.3  5 2.7 0.35  2 3 0.35  3 3 0.35  4 3 0.35  5 3 0.35  </DataArray>
</Points>
<Cells>
<DataArray  type="UInt32"  Name="connectivity"  format="ascii">0 1 2 3  0 1 4 3  0 5 4 3  0 6 2 3  0 5 7 3  0 6 7 3  1 8 9 10  1 8 11 10  1 4 11 10  1 2 9 10  1 4 3 10  1 2 3 10  8 12 13 14  8 12 15 14  8 11 15 14  8 9 13 14  8 11 10 14  8 9 10 14  12 16 17 18  12 16 19 18  12 15 19 18  12 13 17 18  12 15 14 18  12 13 14 18  16 20 21 22  16 20 23 22  16 19 23 22  16 17 21 22  16 19 18 22  16 17 18 22  6 2 24 25  6 2 3 25  6 7 3 25  6 26 24 25  6 7 27 25  6 26 27 25  2 9 28 29  2 9 10 29  2 3 10 29  2 24 28 29  2 3 25 29  2 24 25 29  9 13 30 31  9 13 14 31  9 10 14 31  9 28 30 31  9 10 29 31  9 28 29 31  13 17 32 33  13 17 18 33  13 14 18 33  13 30 32 33  13 14 31 33  13 30 31 33  17 21 34 35  17 21 22 35  17 18 22 35  17 32 34 35  17 18 33 35  17 32 33 35  26 24 36 37  26 24 25 37  26 27 25 37  26 38 36 37  26 27 39 37  26 38 39 37  24 28 40 41  24 28 29 41  24 25 29 41  24 36 40 41  24 25 37 41  24 36 37 41  28 30 42 43  28 30 31 43  28 29 31 43  28 40 42 43  28 29 41 43  28 40 41 43  30 32 44 45  30 32 33 45  30 31 33 45  30 42 44 45  30 31 43 45  30 42 43 45  32 34 46 47  32 34 35 47  32 33 35 47  32 44 46 47  32 33 45 47  32 44 45 47  38 36 48 49  38 36 37 49  38 39 37 49  38 50 48 49  38 39 51 49  38 50 51 49  36 40 52 53  36 40 41 53  36 37 41 53  36 48 52 53  36 37 49 53  36 48 49 53  40 42 54 55  40 42 43 55  40 41 43 55  40 52 54 55  40 41 53 55  40 52 53 55  42 44 56 57  42 44 45 57  42 43 45 57  42 54 56 57  42 43 55 57  42 54 55 57  44 46 58 59  44 46 47 59  44 45 47 59  44 56 58 59  44 45 57 59  44 56 57 59  50 48 60 61  50 48 49 61  50 51 49 61  50 62 60 61  50 51 63 61  50 62 63 61  48 52 64 65  48 52 53 65  48 49 53 65  48 60 64 65  48 49 61 65  48 60 61 65  52 54 66 67  52 54 55 67  52 53 55 67  52 64 66 67  52 53 65 67  52 64 65 67  54 56 68 69  54 56 57 69  54 55 57 69  54 66 68 69  54 55 67 69  54 66 67 69  56 58 70 71  56 58 59 71  56 57 59 71  56 68 70 71  56 57 69 71  56 68 69 71  62 60 72 73  62 60 61 73  62 63 61 73  62 74 72 73  62 63 75 73  62 74 75 73  60 64 76 77  60 64 65 77  60 61 65 77  60 72 76 77  60 61 73 77  60 72 73 77  64 66 78 79  64 66 67 79  64 65 67 79  64 76 78 79  64 65 77 79  64 76 77 79  66 68 80 81  66 68 69 81  66 67 69 81  66 78 80 81  66 67 79 81  66 78 79 81  68 70 82 83  68 70 71 83  68 69 71 83  68 80 82 83  68 69 81 83  68 80 81 83  74 72 84 85  74 72 73 85  74 75 73 85  74 86 84 85  74 75 87 85  74 86 87 85  72 76 88 89  72 76 77 89  72 73 77 89  72 84 88 89  72 73 85 89  72 84 85 89  76 78 90 91  76 78 79 91  76 77 79 91  76 88 90 91  76 77 89 91  76 88 89 91  78 80 92 93  78 80 81 93  78 79 81 93  78 90 92 93  78 79 91 93  78 90 91 93  80 82 94 95  80 82 83 95  80 81 83 95  80 92 94 95  80 81 93 95  80 92 93 95  86 84 96 97  86 84 85 97  86 87 85 97  86 98 96 97  86 87 99 97  86 98 99 97  84 88 100 101  84 88 89 101  84 85 89 101  84 96 100 101  84 85 97 101  84 96 97 101  88 90 102 103  88 90 91 103  88 89 91 103  88 100 102 103  88 89 101 103  88 100 101 103  90 92 104 105  90 92 93 105  90 91 93 105  90 102 104 105  90 91 103 105  90 102 103 105  92 94 106 107  92 94 95 107  92 93 95 107  92 104 106 107  92 93 105 107  92 104 105 107  98 96 108 109  98 96 97 109  98 99 97 109  98 110 108 109  98 99 111 109  98 110 111 109  96 100 112 113  96 100 101 113  96 97 101 113  96 108 112 113  96 97 109 113  96 108 109 113  100 102 114 115  100 102 103 115  100 101 103 115  100 112 114 115  100 101 113 115  100 112 113 115  102 104 116 117  102 104 105 117  102 103 105 117  102 114 116 117  102 103 115 117  102 114 115 117  104 106 118 119  104 106 107 119  104 105 107 119  104 116 118 119  104 105 117 119  104 116 117 119  110 108 120 121  110 108 109 121  110 111 109 121  110 122 120 121  110 111 123 121  110 122 123 121  108 112 124 125  108 112 113 125  108 109 113 125  108 120 124 125  108 109 121 125  108 120 121 125  112 114 126 127  112 114 115 127  112 113 115 127  112 124 126 127  112 113 125 127  112 124 125 127  114 116 128 129  114 116 117 129  114 115 117 129  114 126 128 129  114 115 127 129  114 126 127 129  116 118 130 131  116 118 119 131  116 117 119 131  116 128 130 131  116 117 129 131  116 128 129 131  5 4 3 132  5 4 133 132  5 134 133 132  5 7 3 132  5 134 135 132  5 7 135 132  4 11 10 136  4 11 137 136  4 133 137 136  4 3 10 136  4 133 132 136  4 3 132 136  11 15 14 138  11 15 139 138  11 137 139 138  11 10 14 138  11 137 136 138  11 10 136 138  15 19 18 140  15 19 141 140  15 139 141 140  15 14 18 140  15 139 138 140  15 14 138 140  19 23 22 142  19 23 143 142  19 141 143 142  19 18 22 142  19 141 140 142  19 18 140 142  7 3 25 144  7 3 132 144  7 135 132 144  7 27 25 144  7 135 145 144  7 27 145 144  3 10 29 146  3 10 136 146  3 132 136 146  3 25 29 146  3 132 144 146  3 25 144 146  10 14 31 147  10 14 138 147  10 136 138 147  10 29 31 147  10 136 146 147  10 29 146 147  14 18 33 148  14 18 140 148  14 138 140 148  14 31 33 148  14 138 147 148  14 31 147 148  18 22 35 149  18 22 142 149  18 140 142 149  18 33 35 149  18 140 148 149  18 33 148 149  27 25 37 150  27 25 144 150  27 145 144 150  27 39 37 150  27 145 151 150  27 39 151 150  25 29 41 152  25 29 146 152  25 144 146 152  25 37 41 152  25 144 150 152  25 37 150 152  29 31 43 153  29 31 147 153  29 146 147 153  29 41 43 153  29 146 152 153  29 41 152 153  31 33 45 154  31 33 148 154  31 147 148 154  31 43 45 154  31 147 153 154  31 43 153 154  33 35 47 155  33 35 149 155  33 148 149 155  33 45 47 155  33 148 154 155  33 45 154 155  39 37 49 156  39 37 150 15
[...]
<PointData  Vectors="f_16"> 
<DataArray  type="Float64"  Name="f_16"  NumberOfComponents="3" format="ascii">0.0000000000000000e+00 0.0000000000000000e+00 0.0000000000000000e+00  4.2620821943685244e-02 3.1995967400661532e-02 6.3351697556739348e-03  4.0370772146065159e-02 2.5589788447489430e-02 7.0654144629480288e-03  4.0506475883627442e-02 2.5531061060958652e-02 5.8644305706224238e-03  4.2634085752540574e-02 3.1802280208227639e-02 5.2532618271269619e-03  0.0000000000000000e+00 0.0000000000000000e+00 0.0000000000000000e+00  0.0000000000000000e+00 0.0000000000000000e+00 0.0000000000000000e+00  0.0000000000000000e+00 0.0000000000000000e+00 0.0000000000000000e+00  9.1217962307894668e-02 3.4638800143691410e-02 5.7418573050441405e-03  9.0925694174566696e-02 2.7931130392611692e-02 5.7263567468103446e-03  9.0935779638940395e-02 2.7935041188304404e-02 4.6164870653143900e-03  9.1223577524121663e-02 3.4636423951405870e-02 4.6396214344849073e-03  1.4151649977115208e-01 3.4686479279211750e-02 5.8289845266971856e-03  1.4150376264552006e-01 2.7905936740541881e-02 5.8430129508645441e-03  1.4150017079501867e-01 2.7903607231676012e-02 4.7109112036396571e-03  1.4151349151312623e-01 3.4685177124777436e-02 4.6997792428511865e-03  1.9258970785026105e-01 3.4444718368426420e-02 5.8621358320506828e-03  1.9262479199122309e-01 2.7624566841961858e-02 5.8461760200022046e-03  1.9262457050135590e-01 2.7627133364008821e-02 4.7104142814291816e-03  1.9258943996972841e-01 3.4447411660717540e-02 4.7255921432235856e-03  2.4383816108256762e-01 3.4334109657568883e-02 5.8620494724493490e-03  2.4385624884467799e-01 2.7514256317003154e-02 5.8474414645059659e-03  2.4385615246775463e-01 2.7516651607614968e-02 4.7109890128342168e-03  2.4383816096740399e-01 3.4336541433909962e-02 4.7252679379249634e-03  3.8124881072527095e-02 1.8465635985183623e-02 7.7113305396743015e-03  3.8217783018446590e-02 1.8427640177410953e-02 6.3821320796296575e-03  0.0000000000000000e+00 0.0000000000000000e+00 0.0000000000000000e+00  0.0000000000000000e+00 0.0000000000000000e+00 0.0000000000000000e+00  9.0358741755205432e-02 2.1234732373643712e-02 5.7572570461807068e-03  9.0364650990799461e-02 2.1229191466040499e-02 4.6377972353221350e-03  1.4139739489676906e-01 2.1084314385319148e-02 5.8539440062002554e-03  1.4139596380435074e-01 2.1082530563844154e-02 4.7201427702724995e-03  1.9264110530114353e-01 2.0797774845581086e-02 5.8300266666145347e-03  1.9264121506040954e-01 2.0800267140714292e-02 4.6947316807151350e-03  2.4387366091311391e-01 2.0695230496308691e-02 5.8332112142050700e-03  2.4387351807686813e-01 2.0697563969891478e-02 4.6970263047931031e-03  3.7140230308977402e-02 1.2053280808891259e-02 7.9740063113821844e-03  3.7221539393168232e-02 1.2037346311940622e-02 6.5915256010285923e-03  0.0000000000000000e+00 0.0000000000000000e+00 0.0000000000000000e+00  0.0000000000000000e+00 0.0000000000000000e+00 0.0000000000000000e+00  8.9789634111236319e-02 1.4463742725292989e-02 5.7577820761754717e-03  8.9808031964949783e-02 1.4460074055071227e-02 4.6327624601356886e-03  1.4127191570357869e-01 1.4196047070175945e-02 5.8582091532139629e-03  1.4127212984931412e-01 1.4196318591220655e-02 4.7218586589748883e-03  1.9264708698040764e-01 1.3963496966114632e-02 5.8154894541043540e-03  1.9264740711010211e-01 1.3965854755959923e-02 4.6804205584046179e-03  2.4388920498191044e-01 1.3876040125406268e-02 5.8191323179236296e-03  2.4388906274185168e-01 1.3878359573988504e-02 4.6831692346190048e-03  3.6664127963426406e-02 6.1779445680457063e-03 8.0996490559756447e-03  3.6743812747675374e-02 6.1747012326983410e-03 6.6918239737603705e-03  0.0000000000000000e+00 0.0000000000000000e+00 0.0000000000000000e+00  0.0000000000000000e+00 0.0000000000000000e+00 0.0000000000000000e+00  8.9333260693970448e-02 7.5329985108958447e-03 5.7882206928788465e-03  8.9356507377128594e-02 7.5321543343852444e-03 4.6554921188210500e-03  1.4118460349871303e-01 7.2652733566823677e-03 5.8552325458611680e-03  1.4118444635398042e-01 7.2671736144718250e-03 4.7173358989712521e-03  1.9265242521975687e-01 7.1220882480357104e-03 5.8008940702245311e-03  1.9265304802532693e-01 7.1243577896840790e-03 4.6660680049051724e-03  2.4390323484400622e-01 7.0562178809339569e-03 5.8049798866701427e-03  2.4390311455274646e-01 7.0585566251810316e-03 4.6691585652317465e-03  3.6512930330382248e-02 5.8955734854138271e-04 8.1482371250833682e-03  3.6592894933404750e-02 5.9575904598869599e-04 6.7305851166591102e-03  0.0000000000000000e+00 0.0000000000000000e+00 0.0000000000000000e+00  0.0000000000000000e+00 0.0000000000000000e+00 0.0000000000000000e+00  8.9149368152458219e-02 5.1585072547801663e-04 5.7963065410863547e-03  8.9174172814852584e-02 5.2043736417045118e-04 4.6603374885572134e-03  1.4117347844515318e-01 3.1723929919346154e-04 5.8379144185702024e-03  1.4117332929771326e-01 3.2070857210614578e-04 4.7001636756613370e-03  1.9266508747385749e-01 2.7581543861221550e-04 5.7863682707036046e-03  1.9266596466780514e-01 2.7811623804477288e-04 4.6517064363384769e-03  2.4391630169236095e-01 2.3644671371817795e-04 5.7907021235207891e-03  2.4391618356594999e-01 2.3882408881874538e-04 4.6549600527829547e-03  3.6653230256019895e-02 -4.9341636931682720e-03 8.1371164797024772e-03  3.6733849068563133e-02 -4.9195439602639206e-03 6.7218623044112552e-03  0.0000000000000000e+00 0.0000000000000000e+00 0.0000000000000000e+00  0.0000000000000000e+00 0.0000000000000000e+00 0.0000000000000000e+00  8.9274059908447320e-02 -6.5405046157322308e-03 5.7654810427746530e-03  8.9298748815998905e-02 -6.5295018272172479e-03 4.6331999846890059e-03  1.4124637004427501e-01 -6.6276402865081017e-03 5.8138942948808975e-03  1.4124587622523258e-01 -6.6232616256301658e-03 4.6775143936064042e-03  1.9268781904132334e-01 -6.5684529582973510e-03 5.7720050591482785e-03  1.9268870060599277e-01 -6.5660613307648693e-03 4.6374409027509439e-03  2.4392846698431192e-01 -6.5824264233525255e-03 5.7761140130763193e-03  2.4392834970134247e-01 -6.5800061457390053e-03 4.6404106766272449e-03  3.7114955530237678e-02 -1.0604789752116723e-02 8.0691737783375132e-03  3.7196548515131884e-02 -1.0581263619518621e-02 6.6688390993437001e-03  0.0000000000000000e+00 0.0000000000000000e+00 0.0000000000000000e+00  0.0000000000000000e+00 0.0000000000000000e+00 0.0000000000000000e+00  8.9704673442527805e-02 -1.3605241596018450e-02 5.6885758502003897e-03  8.9727800292075208e-02 -1.3587405597162316e-02 4.5678835940779969e-03  1.4139044553866625e-01 -1.3538901638987810e-02 5.7876095744786044e-03  1.4138900612156996e-01 -1.3534325165952375e-02 4.6532142836012719e-03  1.9271663271026132e-01 -1.3404034413759373e-02 5.7570139681500862e-03  1.9271742663487498e-01 -1.3401489289123540e-02 4.6224849964630879e-03  2.4393933836690776e-01 -1.3400074266296792e-02 5.7612490415140626e-03  2.4393921977453176e-01 -1.3397622448892881e-02 4.6255454531496463e-03  3.8002242002576916e-02 -1.6648242281627073e-02 7.9314519421998381e-03  3.8086410526705944e-02 -1.6612857593514007e-02 6.5630609760888624e-03  0.0000000000000000e+00 0.0000000000000000e+00 0.0000000000000000e+00  0.0000000000000000e+00 0.0000000000000000e+00 0.0000000000000000e+00  9.0406526360631373e-02 -2.0626284696491807e-02 5.5621823641832093e-03  9.0426183199668317e-02 -2.0602006856884948e-02 4.4610731837499036e-03  1.4155788898625199e-01 -2.0387405510750353e-02 5.7652312764233911e-03  1.4155497194043087e-01 -2.0383613769144833e-02 4.6324363092268787e-03  1.9274274483561515e-01 -2.0229518582805372e-02 5.7410423398135142e-03  1.9274344806763122e-01 -2.0226754630436824e-02 4.6064716278588777e-03  2.4394829936989865e-01 -2.0216424064933521e-02 5.7463418718996778e-03  2.4394814977000948e-01 -2.0213982272572147e-02 4.6105859112178377e-03  3.9615542305241051e-02 -2.3288659658379930e-02 7.6749640028895682e-03  3.9713099399064901e-02 -2.3233823957248538e-02 6.3592383183841018e-03  0.0000000000000000e+00 0.0000000000000000e+00 0.0000000000000000e+00  0.0000000000000000e+00 0.0000000000000000e+00 0.0000000000000000e+00  9.1257543103501704e-02 -2.7495134897459694e-02 5.3954840675403161e-03  9.1268553000180955e-02 -2.7464365112562492e-02 4.3237075907686306e-03  1.4166818619998225e-01 -2.7167409050675537e-02 5.7543720339788057e-03  1.4166402260115979e-01 -2.7165566988710414e-02 4.6206879366741636e-03  1.9275917372732587e-01 -2.7048668868557006e-02 5.7232430161529889e-03  1.9275976298252143e-01 -2.7045628432673500e-02 4.5887128515067722e-03  2.4395443313829543e-01 -2.7031533910027321e-02 5.7318144537477946e-03  2.4395422196677227e-01 -2.7029173254359010e-02 4.5959001735922074e-03  4.3015901839459990e-02 -3.0500163265805472e-02 7.1747139439768846e-03  4.3228658463169305e-02 -3.0426356283112705e-02 5.9628184688410857e-03  0.0000000000000000e+00 0.0000000000000000e+00 0.0000000000000000e+00  0.0000000000000000e+00 0.0000000000000000e+00 0.0000000000000000e+00  9.1733230899498197e-02 -3.4105224730573307e-02 5.1764860633544563e-03  9.1717877610557219e-02 -3.4035594485376269e-02 4.1511321343060525e-03  1.4169038470215245e-01 -3.3915616989162262e-02 5.7604668210655572e-03  1.4168736114718208e-01 -3.3919830209376348e-02 4.6209305341032977e-03  1.9275622492996666e-01 -3.3866119408974056e-02 5.7031787441384173e-03  1.9275609998554852e-01 -3.3862788312388044e-02 4.5690717902637070e-03  2.4395821429002415e-01 -3.3846073522570630e-02 5.7183729203421126e-03  2.4395791222342805e-01 -3.3843986071591795e-02 4.5820914369081346e-03  4.0539142486923585e-02 2.5466469946039100e-02 4.6111500950484210e-03  4.2627618283389193e-02 3.1690575232047519e-02 4.1518933937241482e-03  0.0000000000000000e+00 0.0000000000000000e+00 0.0000000000000000e+00  0.0000000000000000e+00 0.0000000000000000e+00 0.0000000000000000e+00  9.0948769065026525e-02 2.7940301006900519e-02 3.5128136855655826e-03  9.1234515887320691e-02 3.4639765285061588e-02 3.5379864451911863e-03  1.4149773904970497e-01 2.7901682154685158e-02 3.5785641590135530e-03  1.4151104732640651e-01 3.4684145777592830e-02 3.5705102672903576e-03  1.9262457158887852e-01 2.7629599759177427e-02 3.5746930616466651e-03  1.9258935241572969e-01 3.4450015751351939e-02 3.5890330052795712e-03  2.4385610266320562e-01 2.7518981031747908e-02 3.5745474605869401e-03  2.4383816538127356e-01 3.4338898478330770e-02 3.5884864343424723e-03  3.8231378412030573e-02 1.8387284248671216e-02 5.0104340896767437e-03  0.0000000000000000e+00 0.0000000000000000e+00 0.0000000000000000e+00  9.0377090821812570e-02 2.1224584822635471e-02 3.5237003962099375e-03  1.4139469457954734e-01 2.1081751034391392e-02 3.5854137180499342e-03  1.9264157427183995e-01 2.0802726635510249e-02 3.5596251962914049e-03  2.4387343689436794e-01 2.0699857906936816e-02 3.5608353892183156e-03  3.7226994914413739e-02 1.2017083208850291e-02 5.1683874805067316e-03  0.0000000000000000e+00 0.0000000000000000e+00 0.0000000000000000e+00  8.9830382366413442e-02 1.4457900770443760e-02 3.5147354229313069e-03  1.4127194842805943e-01 1.4197201054258769e-02 3.5844834344967475e-03  1.9264796708183793e-01 1.3968131497127325e-02 3.5455504601893052e-03  2.4388897256731928e-01 1.3880663296600306e-02 3.5471843494600612e-03  3.6747268939496862e-02 6.1664805575047076e-03 5.2437665362356570e-03  0.0000000000000000e+00 0.0000000000000000e+00 0.0000000000000000e+00  8.9383081078111937e-02 7.5310290666855857e-03 3.5290029554947418e-03  1.4118403879929470e-01 7.2691563101783627e-03 3.5781693779290214e-03  1.9265381954761490e-01 7.1266083766503641e-03 3.5314710630366939e-03  2.4390302986880893e-01 7.0608996018721795e-03 3.5333085570888653e-03  3.6596112287273400e-02 5.9627688719114777e-04 5.2727463498603239e-03  0.0000000000000000e+00 0.0000000000000000e+00 0.0000000000000000e+00  8.9202307370900263e-02 5.2271203998701808e-04 3.5303503360168288e-03  1.4117297493823791e-01 3.2380038334394790e-04 3.5612781461022910e-03  1.9266689037241969e-01 2.8043397549136273e-04 3.5172713709360134e-03  2.4391609036655310e-01 2.4121921446091364e-04 3.5191824534459258e-03  3.6737620598289993e-02 -4.9112641638979545e-03 5.2665303053638481e-03  0.0000000000000000e+00 0.0000000000000000e+00 0.0000000000000000e+00  8.9327053997831862e-02 -6.5226148914964864e-03 3.5068906375972228e-03  1.4124526945265689e-01 -6.6196210181615513e-03 3.5400269858119884e-03  1.9268958745424619e-01 -6.5636399143154910e-03 3.5030570360095855e-03  2.4392824705123980e-01 -6.5775532538906037e-03 3.5046752843862004e-03  3.7201787817171698e-02 -1.0564633766678063e-02 5.2286182665679604e-03  0.0000000000000000e+00 0.0000000000000000e+00 0.0000000000000000e+00  8.9755069180129099e-02 -1.3575533495395342e-02 3.4533340179011300e-03  1.4138760475644521e-01 -1.3530694457949785e-02 3.5176713269414396e-03  1.9271820721942023e-01 -1.3398902980390809e-02 3.4881040173387946e-03  2.4393910844354788e-01 -1.3395125505993513e-02 3.4898195108459557e-03  3.8095565879633649e-02 -1.6584236796469955e-02 5.1544116135245257e-03  0.0000000000000000e+00 0.0000000000000000e+00 0.0000000000000000e+00  9.0450614884158870e-02 -2.0586007984443790e-02 3.3667024902888144e-03  1.4155228533344516e-01 -2.0380542467394930e-02 3.4982930437659071e-03  1.9274413682630451e-01 -2.0223956070549057e-02 3.4720499838401036e-03  2.4394801188284132e-01 -2.0211483483450938e-02 3.4748155781964343e-03  3.9737724177085397e-02 -2.3191895751048061e-02 5.0064169229982504e-03  0.0000000000000000e+00 0.0000000000000000e+00 0.0000000000000000e+00  9.1284914124647301e-02 -2.7443348921218674e-02 3.2575281911595600e-03  1.4166025816570571e-01 -2.7163785468570550e-02 3.4855739945497859e-03  1.9276037518851705e-01 -2.7042584471742556e-02 3.4543577824517483e-03  2.4395404013915964e-01 -2.7026746710974325e-02 3.4599829545847536e-03  4.3301988030554114e-02 -3.0414259591707214e-02 4.7275621960150829e-03  0.0000000000000000e+00 0.0000000000000000e+00 0.0000000000000000e+00  9.1713487891195059e-02 -3.3996641410988140e-02 3.1198970412678992e-03  1.4168526271989645e-01 -3.3922278616790681e-02 3.4800865370202346e-03  1.9275616374928808e-01 -3.3859515812294377e-02 3.4354860061312346e-03  2.4395771787223078e-01 -3.3841689404929522e-02 3.4457611175409799e-03  4.0531284847244504e-02 2.5425158038944934e-02 3.3306577145189023e-03  4.2612553883884748e-02 3.1635544666026985e-02 3.0301949059085126e-03  0.0000000000000000e+00 0.0000000000000000e+00 0.0000000000000000e+00  0.0000000000000000e+00 0.0000000000000000e+00 0.0000000000000000e+00  9.0964962070725811e-02 2.7943112303296862e-02 2.4156262038173525e-03  9.1249433643282613e-02 3.4643669953603018e-02 2.4385941048708530e-03  1.4149618366245664e-01 2.7900378050058666e-02 2.4457746956145316e-03  1.4150931563919636e-01 3.4683231340880145e-02 2.4411001234800000e-03  1.9262470773907558e-01 2.7631952509329653e-02 2.4390009812416576e-03  1.9258944104226491e-01 3.4452455612154681e-02 2.4524995720874567e-03  2.4385608163474853e-01 2.7521258822545337e-02 2.4381070441822825e-03  2.4383817788202722e-01 3.4341184735925658e-02 2.4517076869694414e-03  3.8213841834017034e-02 1.8357702841798964e-02 3.6103944870623547e-03  0.0000000000000000e+00 0.0000000000000000e+00 0.0000000000000000e+00  9.0395894710763661e-02 2.1222760868558628e-02 2.4175290003310298e-03  1.4139362290201957e-01 2.1081413051945285e-02 2.4493452746130054e-03  1.9264205077425406e-01 2.0805099154753114e-02 2.4246741861844437e-03  2.4387339544367226e-01 2.0702122445820304e-02 2.4246393891874940e-03  3.7205091768884715e-02 1.2000010700014073e-02 3.7172901123459856e-03  0.0000000000000000e+00 0.0000000000000000e+00 0.0000000000000000e+00  8.9856328739956012e-02 1.4457680366905984e-02 2.4043821617726262e-03  1.4127144755730500e-01 1.4198329050871098e-02 2.4457930469093773e-03  1.9264866237077002e-01 1.3970353349450933e-02 2.4109274271468567e-03  2.4388891937394988e-01 1.3882948415922245e-02 2.4111729667818135e-03  3.6723840040881472e-02 6.1583009315737949e-03 3.7680936985211824e-03  0.0000000000000000e+00 0.0000000000000000e+00 0.0000000000000000e+00  8.9412119492535691e-02 7.5313868654713545e-03 2.4098070608178689e-03  1.4118338345360842e-01 7.2711114014965333e-03 2.4376736543645344e-03  1.9265467639474682e-01 7.1288506747046419e-03 2.3971323110589327e-03  2.4390297705089481e-01 7.0632372681474253e-03 2.3974240567535940e-03  3.6572435171896421e-02 5.9483709145882367e-04 3.7873567984995937e-03  0.0000000000000000e+00 0.0000000000000000e+00 0.0000000000000000e+00  8.9232644293239516e-02 5.2508513160530272e-04 2.4073650549544037e-03  1.4117239094359835e-01 3.2671013323838492e-04 2.4212379838637276e-03  1.9266783505082430e-01 2.8276736945365366e-04 2.3830823551425412e-03  2.4391602940758036e-01 2.4361094777848455e-04 2.3833680699168764e-03  3.6714499244230682e-02 -4.9067885678606331e-03 3.7836217789596473e-03  0.0000000000000000e+00 0.0000000000000000e+00 0.0000000000000000e+00  8.9357700011832936e-02 -6.5172321981161211e-03 2.3874911933597733e-03  1.4124450656075754e-01 -6.6161948954177614e-03 2.4014899733606505e-03  1.9269047584402593e-01 -6.5611909694576276e-03 2.3688912632936427e-03  2.4392817631496760e-01 -6.5751032561722489e-03 2.3689057721688910e-03  3.7180244938532607e-02 -1.0553852743428665e-02 3.7606176951784503e-03  0.0000000000000000e+00 0.0000000000000000e+00 0.0000000000000000e+00  8.9785155691116753e-02 -1.3566920494909622e-02 2.3458161036904747e-03  1.4138623131443287e-01 -1.3527153536803506e-02 2.3811184233241134e-03  1.9271899300887030e-01 -1.3396289682083536e-02 2.3539255839685989e-03  2.4393902649219426e-01 -1.3392629384105455e-02 2.3540630232262980e-03  3.8078133524907513e-02 -1.6564756787178329e-02 3.7173459963020126e-03  0.0000000000000000e+00 0.0000000000000000e+00 0.0000000000000000e+00  9.0478729256060764e-02 -2.0574960776285164e-02 2.2797744023086738e-03  1.4154989558300521e-01 -2.0377132776343950e-02 2.3630762965911318e-03  1.9274484009899526e-01 -2.0221174090817081e-02 2.3378289355482440e-03  2.4394790463456073e-01 -2.0208974299452915e-02 2.3390179348629849e-03  3.9733981445846805e-02 -2.3169258925525280e-02 3.6288673400243251e-03  0.0000000000000000e+00 0.0000000000000000e+00 0.0000000000000000e+00  9.1306869316063785e-02 -2.7427842503463366e-02 2.1974330626191065e-03  1.4165694290541314e-01 -2.7160953632597847e-02 2.3494407404301885e-03  1.9276104293607854e-01 -2.7039691834837343e-02 2.3202257611416306e-03  2.4395389233253975e-01 -2.7024271845448967e-02 2.3240392676247006e-03  4.3312483475922349e-02 -3.0429120589816651e-02 3.4623290318081287e-03  0.0000000000000000e+00 0.0000000000000000e+00 0.0000000000000000e+00  9.1721599792713562e-02 -3.3968832241619971e-02 2.0952155122049539e-03  1.4168390161294916e-01 -3.3922152566890247e-02 2.3385258700778571e-03  1.9275635203986408e-01 -3.3856377408666573e-02 2.3021023278236310e-03  2.4395760072259468e-01 -3.3839273939654455e-02 2.3093852055245498e-03  4.0515648542171469e-02 2.5406073715997138e-02 2.0361468287785323e-03  4.2597023585186633e-02 3.1617406380376474e-02 1.8924335319082898e-03  0.0000000000000000e+00 0.0000000000000000e+00 0.0000000000000000e+00  9.0982459634239524e-02 2.7943557164725651e-02 1.3234306529755536e-03  9.1266521196225484e-02 3.4645584779224477e-02 1.3420050543343702e-03  1.4149531195088899e-01 2.7899928211219668e-02 1.3124200313162603e-03  1.4150833382379019e-01 3.4682659961564562e-02 1.3115071361570645e-03  1.9262495264288906e-01 2.7634193462001702e-02 1.3033535001887066e-03  1.9258967985000519e-01 3.4454726129701865e-02 1.3159979003675142e-03  2.4385608027913272e-01 2.7523487392108355e-02 1.3016637471999206e-03  2.4383819853765987e-01 3.4343410602418301e-02 1.3149322150819347e-03  3.8192181343048949e-02 1.8339092776132639e-02 2.1918654171326343e-03  0.0000000000000000e+00 0.0000000000000000e+00 0.0000000000000000e+00  9.0416686311969155e-02 2.1222356938713955e-02 1.3173881328353485e-03  1.4139283945403652e-01 2.1081839199731636e-02 1.3121320050486177e-03  1.9264258957767094e-01 2.0807352765543970e-02 1.2898724029469504e-03  2.4387338402721070e-01 2.0704358978178163e-02 1.2884356370820877e-03  3.7180974531856585e-02 1.1988387029939538e-02 2.2486970815193122e-03  0.0000000000000000e+00 0.0000000000000000e+00 0.0000