<?xml version="1.0"?>
<VTKFile type="UnstructuredGrid"  version="0.1"  >
<UnstructuredGrid>
<Piece  NumberOfPoints="395" NumberOfCells="1500">
<Points>
<DataArray  type="Float64"  NumberOfComponents="3"  format="ascii">0 0 0.15  0 0 0.2  1 0 0.2  1 0.3 0.2  0 0.3 0.2  1 0.3 0.25  1 0 0.25  0 0 0.25  0 0.3 0.25  2 0 0.2  2 0.3 0.2  2 0.3 0.25  2 0 0.25  3 0 0.2  3 0.3 0.2  3 0.3 0.25  3 0 0.25  4 0 0.2  4 0.3 0.2  4 0.3 0.25  4 0 0.25  5 0 0.2  5 0.3 0.2  5 0.3 0.25  5 0 0.25  1 0.6 0.2  1 0.6 0.25  0 0.6 0.2  0 0.6 0.25  2 0.6 0.2  2 0.6 0.25  3 0.6 0.2  3 0.6 0.25  4 0.6 0.2  4 0.6 0.25  5 0.6 0.2  5 0.6 0.25  1 0.9 0.2  1 0.9 0.25  0 0.9 0.2  0 0.9 0.25  2 0.9 0.2  2 0.9 0.25  3 0.9 0.2  3 0.9 0.25  4 0.9 0.2  4 0.9 0.25  5 0.9 0.2  5 0.9 0.25  1 1.2 0.2  1 1.2 0.25  0 1.2 0.2  0 1.2 0.25  2 1.2 0.2  2 1.2 0.25  3 1.2 0.2  3 1.2 0.25  4 1.2 0.2  4 1.2 0.25  5 1.2 0.2  5 1.2 0.25  1 1.5 0.25  0 1.5 0.25  0 1.5 0.2  2 1.5 0.25  3 1.5 0.25  4 1.5 0.25  5 1.5 0.25  1 1.8 0.25  0 1.8 0.25  1 0.3 0.3  1 0 0.3  0 0 0.3  0 0.3 0.3  2 0.3 0.3  2 0 0.3  3 0.3 0.3  3 0 0.3  4 0.3 0.3  4 0 0.3  5 0.3 0.3  5 0 0.3  1 0.6 0.3  0 0.6 0.3  2 0.6 0.3  3 0.6 0.3  4 0.6 0.3  5 0.6 0.3  1 0.9 0.3  0 0.9 0.3  2 0.9 0.3  3 0.9 0.3  4 0.9 0.3  5 0.9 0.3  1 1.2 0.3  0 1.2 0.3  2 1.2 0.3  3 1.2 0.3  4 1.2 0.3  5 1.2 0.3  1 1.5 0.3  0 1.5 0.3  2 1.5 0.3  3 1.5 0.3  4 1.5 0.3  5 1.5 0.3  1 1.8 0.3  0 1.8 0.3  2 1.8 0.3  3 1.8 0.3  4 1.8 0.3  5 1.8 0.3  1 2.1 0.3  0 2.1 0.3  2 2.1 0.3  1 0.3 0.35  1 0 0.35  0 0 0.35  0 0.3 0.35  2 0.3 0.35  2 0 0.35  3 0.3 0.35  3 0 0.35  4 0.3 0.35  4 0 0.35  5 0.3 0.35  5 0 0.35  1 0.6 0.35  0 0.6 0.35  2 0.6 0.35  3 0.6 0.35  4 0.6 0.35  5 0.6 0.35  1 0.9 0.35  0 0.9 0.35  2 0.9 0.35  3 0.9 0.35  4 0.9 0.35  5 0.9 0.35  1 1.2 0.35  0 1.2 0.35  2 1.2 0.35  3 1.2 0.35  4 1.2 0.35  5 1.2 0.35  1 1.5 0.35  0 1.5 0.35  2 1.5 0.35  3 1.5 0.35  4 1.5 0.35  5 1.5 0.35  1 1.8 0.35  0 1.8 0.35  2 1.8 0.35  3 1.8 0.35  4 1.8 0.35  5 1.8 0.35  1 2.1 0.35  0 2.1 0.35  2 2.1 0.35  3 2.1 0.3  3 2.1 0.35  4 2.1 0.3  4 2.1 0.35  5 2.1 0.3  5 2.1 0.35  1 2.4 0.3  1 2.4 0.35  0 2.4 0.3  0 2.4 0.35  2 2.4 0.3  2 2.4 0.35  3 2.4 0.3  3 2.4 0.35  4 2.4 0.3  4 2.4 0.35  5 2.4 0.3  5 2.4 0.35  1 2.7 0.3  1 2.7 0.35  0 2.7 0.3  0 2.7 0.35  2 2.7 0.3  2 2.7 0.35  3 2.7 0.3  3 2.7 0.35  4 2.7 0.3  4 2.7 0.35  5 2.7 0.35  1 3 0.3  1 3 0.35  0 3 0.3  0 3 0.35  2 3 0.35  3 3 0.35  4 3 0.35  5 3 0.35  1 0.3 0.4  1 0 0.4  0 0 0.4  0 0.3 0.4  2 0.3 0.4  2 0 0.4  3 0.3 0.4  3 0 0.4  4 0.3 0.4  4 0 0.4  5 0.3 0.4  5 0 0.4  1 0.6 0.4  0 0.6 0.4  2 0.6 0.4  3 0.6 0.4  4 0.6 0.4  5 0.6 0.4  1 0.9 0.4  0 0.9 0.4  2 0.9 0.4  3 0.9 0.4  4 0.9 0.4  5 0.9 0.4  1 1.2 0.4  0 1.2 0.4  2 1.2 0.4  3 1.2 0.4  4 1.2 0.4  5 1.2 0.4  1 1.5 0.4  0 1.5 0.4  2 1.5 0.4  3 1.5 0.4  4 1.5 0.4  5 1.5 0.4  1 1.8 0.4  0 1.8 0.4  2 1.8 0.4  3 1.8 0.4  4 1.8 0.4  5 1.8 0.4  1 2.1 0.4  0 2.1 0.4  2 2.1 0.4  3 2.1 0.4  4 2.1 0.4  5 2.1 0.4  1 2.4 0.4  0 2.4 0.4  2 2.4 0.4  3 2.4 0.4  4 2.4 0.4  5 2.4 0.4  1 2.7 0.4  0 2.7 0.4  2 2.7 0.4  3 2.7 0.4  4 2.7 0.4  5 2.7 0.4  1 3 0.4  0 3 0.4  2 3 0.4  3 3 0.4  4 3 0.4  5 3 0.4  1 0.3 0.45  1 0 0.45  0 0 0.45  0 0.3 0.45  2 0.3 0.45  2 0 0.45  3 0.3 0.45  3 0 0.45  4 0.3 0.45  4 0 0.45  5 0.3 0.45  5 0 0.45  1 0.6 0.45  0 0.6 0.45  2 0.6 0.45  3 0.6 0.45  4 0.6 0.45  5 0.6 0.45  1 0.9 0.45  0 0.9 0.45  2 0.9 0.45  3 0.9 0.45  4 0.9 0.45  5 0.9 0.45  1 1.2 0.45  0 1.2 0.45  2 1.2 0.45  3 1.2 0.45  4 1.2 0.45  5 1.2 0.45  1 1.5 0.45  0 1.5 0.45  2 1.5 0.45  3 1.5 0.45  4 1.5 0.45  5 1.5 0.45  1 1.8 0.45  0 1.8 0.45  2 1.8 0.45  3 1.8 0.45  4 1.8 0.45  5 1.8 0.45  1 2.1 0.45  0 2.1 0.45  2 2.1 0.45  3 2.1 0.45  4 2.1 0.45  5 2.1 0.45  1 2.4 0.45  0 2.4 0.45  2 2.4 0.45  3 2.4 0.45  4 2.4 0.45  5 2.4 0.45  1 2.7 0.45  0 2.7 0.45  2 2.7 0.45  3 2.7 0.45  4 2.7 0.45  5 2.7 0.45  1 3 0.45  0 3 0.45  2 3 0.45  3 3 0.45  4 3 0.45  5 3 0.45  1 0.3 0.5  1 0 0.5  0 0 0.5  0 0.3 0.5  2 0.3 0.5  2 0 0.5  3 0.3 0.5  3 0 0.5  4 0.3 0.5  4 0 0.5  5 0.3 0.5  5 0 0.5  1 0.6 0.5  0 0.6 0.5  2 0.6 0.5  3 0.6 0.5  4 0.6 0.5  5 0.6 0.5  1 0.9 0.5  0 0.9 0.5  2 0.9 0.5  3 0.9 0.5  4 0.9 0.5  5 0.9 0.5  1 1.2 0.5  0 1.2 0.5  2 1.2 0.5  3 1.2 0.5  4 1.2 0.5  5 1.2 0.5  1 1.5 0.5  0 1.5 0.5  2 1.5 0.5  3 1.5 0.5  4 1.5 0.5  5 1.5 0.5  1 1.8 0.5  0 1.8 0.5  2 1.8 0.5  3 1.8 0.5  4 1.8 0.5  5 1.8 0.5  1 2.1 0.5  0 2.1 0.5  2 2.1 0.5  3 2.1 0.5  4 2.1 0.5  5 2.1 0.5  1 2.4 0.5  0 2.4 0.5  2 2.4 0.5  3 2.4 0.5  4 2.4 0.5  5 2.4 0.5  1 2.7 0.5  0 2.7 0.5  2 2.7 0.5  3 2.7 0.5  4 2.7 0.5  5 2.7 0.5  1 3 0.5  0 3 0.5  2 3 0.5  3 3 0.5  4 3 0.5  5 3 0.5  </DataArray>
</Points>
<Cells>
<DataArray  type="UInt32"  Name="connectivity"  format="ascii">0 1 2 3  0 1 4 3  1 2 3 5  1 2 6 5  1 7 6 5  1 4 3 5  1 7 8 5  1 4 8 5  2 9 10 11  2 9 12 11  2 6 12 11  2 3 10 11  2 6 5 11  2 3 5 11  9 13 14 15  9 13 16 15  9 12 16 15  9 10 14 15  9 12 11 15  9 10 11 15  13 17 18 19  13 17 20 19  13 16 20 19  13 14 18 19  13 16 15 19  13 14 15 19  17 21 22 23  17 21 24 23  17 20 24 23  17 18 22 23  17 20 19 23  17 18 19 23  4 3 25 26  4 3 5 26  4 8 5 26  4 27 25 26  4 8 28 26  4 27 28 26  3 10 29 30  3 10 11 30  3 5 11 30  3 25 29 30  3 5 26 30  3 25 26 30  10 14 31 32  10 14 15 32  10 11 15 32  10 29 31 32  10 11 30 32  10 29 30 32  14 18 33 34  14 18 19 34  14 15 19 34  14 31 33 34  14 15 32 34  14 31 32 34  18 22 35 36  18 22 23 36  18 19 23 36  18 33 35 36  18 19 34 36  18 33 34 36  27 25 37 38  27 25 26 38  27 28 26 38  27 39 37 38  27 28 40 38  27 39 40 38  25 29 41 42  25 29 30 42  25 26 30 42  25 37 41 42  25 26 38 42  25 37 38 42  29 31 43 44  29 31 32 44  29 30 32 44  29 41 43 44  29 30 42 44  29 41 42 44  31 33 45 46  31 33 34 46  31 32 34 46  31 43 45 46  31 32 44 46  31 43 44 46  33 35 47 48  33 35 36 48  33 34 36 48  33 45 47 48  33 34 46 48  33 45 46 48  39 37 49 50  39 37 38 50  39 40 38 50  39 51 49 50  39 40 52 50  39 51 52 50  37 41 53 54  37 41 42 54  37 38 42 54  37 49 53 54  37 38 50 54  37 49 50 54  41 43 55 56  41 43 44 56  41 42 44 56  41 53 55 56  41 42 54 56  41 53 54 56  43 45 57 58  43 45 46 58  43 44 46 58  43 55 57 58  43 44 56 58  43 55 56 58  45 47 59 60  45 47 48 60  45 46 48 60  45 57 59 60  45 46 58 60  45 57 58 60  51 49 50 61  51 52 50 61  51 52 62 61  51 63 62 61  49 53 54 64  49 50 54 64  49 50 61 64  53 55 56 65  53 54 56 65  53 54 64 65  55 57 58 66  55 56 58 66  55 56 65 66  57 59 60 67  57 58 60 67  57 58 66 67  63 62 61 68  63 62 69 68  7 6 5 70  7 6 71 70  7 72 71 70  7 8 5 70  7 72 73 70  7 8 73 70  6 12 11 74  6 12 75 74  6 71 75 74  6 5 11 74  6 71 70 74  6 5 70 74  12 16 15 76  12 16 77 76  12 75 77 76  12 11 15 76  12 75 74 76  12 11 74 76  16 20 19 78  16 20 79 78  16 77 79 78  16 15 19 78  16 77 76 78  16 15 76 78  20 24 23 80  20 24 81 80  20 79 81 80  20 19 23 80  20 79 78 80  20 19 78 80  8 5 26 82  8 5 70 82  8 73 70 82  8 28 26 82  8 73 83 82  8 28 83 82  5 11 30 84  5 11 74 84  5 70 74 84  5 26 30 84  5 70 82 84  5 26 82 84  11 15 32 85  11 15 76 85  11 74 76 85  11 30 32 85  11 74 84 85  11 30 84 85  15 19 34 86  15 19 78 86  15 76 78 86  15 32 34 86  15 76 85 86  15 32 85 86  19 23 36 87  19 23 80 87  19 78 80 87  19 34 36 87  19 78 86 87  19 34 86 87  28 26 38 88  28 26 82 88  28 83 82 88  28 40 38 88  28 83 89 88  28 40 89 88  26 30 42 90  26 30 84 90  26 82 84 90  26 38 42 90  26 82 88 90  26 38 88 90  30 32 44 91  30 32 85 91  30 84 85 91  30 42 44 91  30 84 90 91  30 42 90 91  32 34 46 92  32 34 86 92  32 85 86 92  32 44 46 92  32 85 91 92  32 44 91 92  34 36 48 93  34 36 87 93  34 86 87 93  34 46 48 93  34 86 92 93  34 46 92 93  40 38 50 94  40 38 88 94  40 89 88 94  40 52 50 94  40 89 95 94  40 52 95 94  38 42 54 96  38 42 90 96  38 88 90 96  38 50 54 96  38 88 94 96  38 50 94 96  42 44 56 97  42 44 91 97  42 90 91 97  42 54 56 97  42 90 96 97  42 54 96 97  44 46 58 98  44 46 92 98  44 91 92 98  44 56 58 98  44 91 97 98  44 56 97 98  46 48 60 99  46 48 93 99  46 92 93 99  46 58 60 99  46 92 98 99  46 58 98 99  52 50 61 100  52 50 94 100  52 95 94 100  52 62 61 100  52 95 101 100  52 62 101 100  50 54 64 102  50 54 96 102  50 94 96 102  50 61 64 102  50 94 100 102  50 61 100 102  54 56 65 103  54 56 97 103  54 96 97 103  54 64 65 103  54 96 102 103  54 64 102 103  56 58 66 104  56 58 98 104  56 97 98 104  56 65 66 104  56 97 103 104  56 65 103 104  58 60 67 105  58 60 99 105  58 98 99 105  58 66 67 105  58 98 104 105  58 66 104 105  62 61 68 106  62 61 100 106  62 101 100 106  62 69 68 106  62 101 107 106  62 69 107 106  61 64 102 108  61 100 102 108  61 100 106 108  61 68 106 108  64 65 103 109  64 102 103 109  64 102 108 109  65 66 104 110  65 103 104 110  65 103 109 110  66 67 105 111  66 104 105 111  66 104 110 111  69 68 106 112  69 107 106 112  69 107 113 112  68 106 108 114  68 106 112 114  72 71 70 115  72 71 116 115  72 117 116 115  72 73 70 115  72 117 118 115  72 73 118 115  71 75 74 119  71 75 120 119  71 116 120 119  71 70 74 119  71 116 115 119  71 70 115 119  75 77 76 121  75 77 122 121  75 120 122 121  75 74 76 121  75 120 119 121  75 74 119 121  77 79 78 123  77 79 124 123  77 122 124 123  77 76 78 123  77 122 121 123  77 76 121 123  79 81 80 125  79 81 126 125  79 124 126 125  79 78 80 125  79 124 123 125  79 78 123 125  73 70 82 127  73 70 115 127  73 118 115 127  73 83 82 127  73 118 128 127  73 83 128 127  70 74 84 129  70 74 119 129  70 115 119 129  70 82 84 129  70 115 127 129  70 82 127 129  74 76 85 130  74 76 121 130  74 119 121 130  74 84 85 130  74 119 129 130  74 84 129 130  76 78 86 131  76 78 123 131  76 121 123 131  76 85 86 131  76 121 130 131  76 85 130 131  78 80 87 132  78 80 125 132  78 123 125 132  78 86 87 132  78 123 131 132  78 86 131 132  83 82 88 133  83 82 127 133  83 128 127 133  83 89 88 133  83 128 134 133  83 89 134 133  82 84 90 135  82 84 129 135  82 127 129 135  82 88 90 135  82 127 133 135  82 88 133 135  84 85 91 136  84 85 130 136  84 129 130 136  84 90 91 136  84 129 135 136  84 90 135 136  85 86 92 137  85 86 131 137  85 130 131 137  85 91 92 137  85 1
[...]
<PointData  Vectors="f_16"> 
<DataArray  type="Float64"  Name="f_16"  NumberOfComponents="3" format="ascii">0.0000000000000000e+00 0.0000000000000000e+00 0.0000000000000000e+00  0.0000000000000000e+00 0.0000000000000000e+00 0.0000000000000000e+00  4.2597023585186654e-02 3.1617406380376481e-02 1.8924335319082590e-03  4.0515648542171476e-02 2.5406073715997141e-02 2.0361468287787036e-03  0.0000000000000000e+00 0.0000000000000000e+00 0.0000000000000000e+00  4.0508160512769044e-02 2.5406095102613140e-02 7.3477827719311520e-04  4.2585494994993776e-02 3.1624799665637450e-02 7.4460503915167210e-04  0.0000000000000000e+00 0.0000000000000000e+00 0.0000000000000000e+00  0.0000000000000000e+00 0.0000000000000000e+00 0.0000000000000000e+00  9.1266521196225456e-02 3.4645584779224463e-02 1.3420050543341906e-03  9.0982459634239496e-02 2.7943557164725689e-02 1.3234306529748845e-03  9.0999478828909589e-02 2.7943088915856971e-02 2.3464577259215975e-04  9.1284078955806217e-02 3.4645183188535052e-02 2.4783299541428271e-04  1.4150833382379022e-01 3.4682659961564562e-02 1.3115071361564775e-03  1.4149531195088899e-01 2.7899928211219675e-02 1.3124200313152207e-03  1.4149513269055475e-01 2.7900354890051642e-02 1.7854815031562068e-04  1.4150812789180023e-01 3.4682696922166294e-02 1.8174538615771141e-04  1.9258967985000525e-01 3.4454726129701900e-02 1.3159979003661414e-03  1.9262495264288915e-01 2.7634193462001709e-02 1.3033535001868426e-03  1.9262529666769382e-01 2.7636309247046163e-02 1.6776134239208508e-04  1.9259004607713609e-01 3.4456817605833454e-02 1.7952183327683775e-04  2.4383819853765989e-01 3.4343410602418342e-02 1.3149322150802234e-03  2.4385608027913269e-01 2.7523487392108390e-02 1.3016637471975291e-03  2.4385609212207349e-01 2.7525669152193521e-02 1.6521711032246300e-04  2.4383822631583818e-01 3.4345583850234070e-02 1.7816016250092121e-04  3.8192181343048928e-02 1.8339092776132649e-02 2.1918654171326421e-03  3.8179159314474603e-02 1.8331277583100495e-02 7.6234890828006795e-04  0.0000000000000000e+00 0.0000000000000000e+00 0.0000000000000000e+00  0.0000000000000000e+00 0.0000000000000000e+00 0.0000000000000000e+00  9.0416686311969113e-02 2.1222356938713986e-02 1.3173881328343059e-03  9.0435680155247236e-02 2.1223319034967564e-02 2.2140793956642601e-04  1.4139283945403652e-01 2.1081839199731646e-02 1.3121320050469404e-03  1.4139253576014824e-01 2.1083026067536714e-02 1.7407574870680420e-04  1.9264258957767097e-01 2.0807352765543987e-02 1.2898724029447243e-03  1.9264316665648307e-01 2.0809479300980264e-02 1.5520277949449118e-04  2.4387338402721070e-01 2.0704358978178225e-02 1.2884356370791675e-03  2.4387339763089250e-01 2.0706566640976594e-02 1.5222169695655656e-04  3.7180974531856557e-02 1.1988387029939563e-02 2.2486970815193395e-03  3.7166547222708395e-02 1.1982254694877591e-02 7.6983313829743626e-04  0.0000000000000000e+00 0.0000000000000000e+00 0.0000000000000000e+00  0.0000000000000000e+00 0.0000000000000000e+00 0.0000000000000000e+00  8.9882106412820711e-02 1.4458717043589161e-02 1.3000256770066237e-03  8.9904357961032633e-02 1.4461316420805958e-02 2.0017124699661299e-04  1.4127082783008429e-01 1.4199757345002556e-02 1.3059064692395206e-03  1.4127041624526634e-01 1.4201500827736793e-02 1.6506843423257406e-04  1.9264940362509064e-01 1.3972538059751283e-02 1.2765479567261389e-03  1.9265014123264990e-01 1.3974669853574409e-02 1.4236792090655052e-04  2.4388890057802301e-01 1.3885214686955288e-02 1.2751319193288605e-03  2.4388891580905245e-01 1.3887464008548617e-02 1.3906320900543604e-04  3.6698756662836701e-02 6.1521480187652763e-03 2.2749880709877508e-03  3.6683865052353298e-02 6.1483914683887805e-03 7.7152279464061803e-04  0.0000000000000000e+00 0.0000000000000000e+00 0.0000000000000000e+00  0.0000000000000000e+00 0.0000000000000000e+00 0.0000000000000000e+00  8.9439959256581755e-02 7.5328978964643535e-03 1.2967303840630854e-03  8.9463344072536574e-02 7.5354402852554408e-03 1.8824449936840268e-04  1.4118256698769810e-01 7.2730890373526157e-03 1.2959752388546296e-03  1.4118185331306252e-01 7.2751538730379556e-03 1.5332181200327003e-04  1.9265555009519739e-01 7.1310887792992664e-03 1.2630289657219423e-03  1.9265639348376198e-01 7.1333101869243513e-03 1.2912025499249645e-04  2.4390295874503742e-01 7.0655625869921043e-03 1.2615021039049852e-03  2.4390297825090976e-01 7.0678731413212270e-03 1.2554524976833806e-04  3.6532370750885619e-02 5.9180791054546788e-04 7.7145395698397618e-04  0.0000000000000000e+00 0.0000000000000000e+00 0.0000000000000000e+00  0.0000000000000000e+00 0.0000000000000000e+00 0.0000000000000000e+00  8.9285550625634702e-02 5.3003572412228090e-04 1.7785495312236586e-04  1.4117092220407479e-01 3.3194454742664848e-04 1.3789059217904785e-04  1.9266965381721796e-01 2.8746042952246058e-04 1.1536704713163057e-04  2.4391602074314503e-01 2.4835992114311819e-04 1.1163099194106770e-04  3.6675505642938810e-02 -4.9039194906670830e-03 7.7260110083482902e-04  0.0000000000000000e+00 0.0000000000000000e+00 0.0000000000000000e+00  4.0516347865039257e-02 2.5423275891004168e-02 -5.6928115544749931e-04  4.2579873666156287e-02 3.1652167253629536e-02 -4.0682887591861181e-04  0.0000000000000000e+00 0.0000000000000000e+00 0.0000000000000000e+00  0.0000000000000000e+00 0.0000000000000000e+00 0.0000000000000000e+00  9.1014894327483276e-02 2.7942927468119428e-02 -8.5213696528615827e-04  9.1301016048750752e-02 3.4642964878477296e-02 -8.4483772900616498e-04  1.4149569657024361e-01 2.7901600937332481e-02 -9.5567589762885418e-04  1.4150871366216977e-01 3.4683494424544055e-02 -9.4810746517808540e-04  1.9262573450706805e-01 2.7638284780312716e-02 -9.6778182568255837e-04  1.9259052488692779e-01 3.4458710509285360e-02 -9.5694054260400977e-04  2.4385611125068937e-01 2.7527807348052696e-02 -9.7123117710449733e-04  2.4383825824514296e-01 3.4347709558764157e-02 -9.5860849103532417e-04  3.8180190758056336e-02 1.8333995071121101e-02 -6.7205330143734995e-04  0.0000000000000000e+00 0.0000000000000000e+00 0.0000000000000000e+00  9.0450455125007836e-02 2.1225667565856716e-02 -8.7206421642576780e-04  1.4139288872465910e-01 2.1084878221864299e-02 -9.6449856115434374e-04  1.9264376584929499e-01 2.0811486295537071e-02 -9.7936579557512666e-04  2.4387343243041729e-01 2.0708744385875406e-02 -9.8400261578496543e-04  3.7166940822809462e-02 1.1981452663111819e-02 -7.1387507195478305e-04  0.0000000000000000e+00 0.0000000000000000e+00 0.0000000000000000e+00  8.9921010228251760e-02 1.4465574713248825e-02 -8.9664636363695808e-04  1.4127051654720865e-01 1.4203553690009701e-02 -9.7640884228895745e-04  1.9265084385081996e-01 1.3976748025028603e-02 -9.9166985157935232e-04  2.4388896360720558e-01 1.3889696103153069e-02 -9.9702807615724984e-04  3.6684249665764404e-02 6.1472005734909815e-03 -7.3692903807033485e-04  0.0000000000000000e+00 0.0000000000000000e+00 0.0000000000000000e+00  8.9480262188337031e-02 7.5389360323899601e-03 -9.1714097519418863e-04  1.4118149426335549e-01 7.2773059119768998e-03 -9.8999497085781440e-04  1.9265717218971828e-01 7.1355164689546873e-03 -1.0046403946139511e-03  2.4390303605579261e-01 7.0701676080826489e-03 -1.0104404841177715e-03  3.6532976621176466e-02 5.9080549274611455e-04 -7.4663132507856453e-04  0.0000000000000000e+00 0.0000000000000000e+00 0.0000000000000000e+00  8.9302833885103239e-02 5.3253575727213833e-04 -9.3155694791386074e-04  1.4117051333214314e-01 3.3435601735014379e-04 -1.0049188781223882e-03  1.9267047874502283e-01 2.8979350835570469e-04 -1.0182401491074539e-03  2.4391607677638699e-01 2.5071689860464838e-04 -1.0242834154422945e-03  3.6676605549458188e-02 -4.9049492552663554e-03 -7.4304657261546885e-04  0.0000000000000000e+00 0.0000000000000000e+00 0.0000000000000000e+00  8.9429272536696344e-02 -6.5085416848514929e-03 -9.4081304309239899e-04  1.4124248957232546e-01 -6.6077066889670888e-03 -1.0198006024257505e-03  1.9269300027639327e-01 -6.5538450312398388e-03 -1.0324397820604555e-03  2.4392819948350314e-01 -6.5677989958977815e-03 -1.0386045253132235e-03  3.7145926725570405e-02 -1.0546592195854394e-02 -7.2210130880124581e-04  0.0000000000000000e+00 0.0000000000000000e+00 0.0000000000000000e+00  8.9857653985699767e-02 -1.3556944697904845e-02 -9.4618166671207524e-04  4.0543437558840136e-02 2.5457361987485109e-02 -1.8728906604244503e-03  4.2580306796037096e-02 3.1697781554701682e-02 -1.5557293738012663e-03  0.0000000000000000e+00 0.0000000000000000e+00 0.0000000000000000e+00  0.0000000000000000e+00 0.0000000000000000e+00 0.0000000000000000e+00  9.1028328636551026e-02 2.7943647027914291e-02 -1.9381837571866196e-03  9.1316982642517114e-02 3.4639520709383392e-02 -1.9370923879553513e-03  1.4149699252275275e-01 2.7903602117538333e-02 -2.0900365835605328e-03  1.4151006264505878e-01 3.4685083460958235e-02 -2.0779321557231056e-03  1.9262626847382963e-01 2.7640107783563541e-02 -2.1032971097344360e-03  1.9259111030556464e-01 3.4460387803826105e-02 -2.0934043507989859e-03  2.4385613174077819e-01 2.7529904880221563e-02 -2.1076778801307609e-03  2.4383828854696613e-01 3.4349790340139297e-02 -2.0953740381711716e-03  3.8196887355924934e-02 1.8346884017843141e-02 -2.1060516874787474e-03  0.0000000000000000e+00 0.0000000000000000e+00 0.0000000000000000e+00  9.0459879793280823e-02 2.1229374492534550e-02 -1.9645082188562194e-03  1.4139395789918108e-01 2.1087329106027841e-02 -2.1032733226159389e-03  1.9264438438551248e-01 2.0813379275016187e-02 -2.1138737384840713e-03  2.4387348360959160e-01 2.0710891638938689e-02 -2.1202350120268659e-03  3.7183801147483424e-02 1.1986007490833582e-02 -2.1978722712378447e-03  0.0000000000000000e+00 0.0000000000000000e+00 0.0000000000000000e+00  8.9931245380008476e-02 1.4471474521144164e-02 -1.9917852685186655e-03  1.4127127981526671e-01 1.4205931515258494e-02 -2.1181721145194163e-03  1.9265149832032410e-01 1.3978770836150812e-02 -2.1256316411576641e-03  2.4388903960649705e-01 1.3891909835722104e-02 -2.1331350919676826e-03  3.6701572394334352e-02 6.1487223309552100e-03 -2.2458109294530709e-03  0.0000000000000000e+00 0.0000000000000000e+00 0.0000000000000000e+00  8.9489950900518048e-02 7.5433364203862669e-03 -2.0207776984455215e-03  1.4118159372399827e-01 7.2795550492443838e-03 -2.1336532869617518e-03  1.9265786709987698e-01 7.1377061099860469e-03 -2.1383118782010413e-03  2.4390312842484699e-01 7.0724446931604464e-03 -2.1464467268246076e-03  3.6550710551583973e-02 5.9035490647044414e-04 -2.2651442024952013e-03  0.0000000000000000e+00 0.0000000000000000e+00 0.0000000000000000e+00  8.9312594602331652e-02 5.3502479545511513e-04 -2.0392034251642418e-03  1.4117048776725039e-01 3.3666378409136298e-04 -2.1480393972182197e-03  1.9267122668603318e-01 2.9210718425832057e-04 -2.1517558356675612e-03  2.4391616910482258e-01 2.5306188545539364e-04 -2.1602203543214255e-03  3.6694817352599961e-02 -4.9074167946986710e-03 -2.2591004046898658e-03  0.0000000000000000e+00 0.0000000000000000e+00 0.0000000000000000e+00  8.9439614179023422e-02 -6.5080079881212963e-03 -2.0449115233061054e-03  1.4124253011139665e-01 -6.6054557997873211e-03 -2.1612235271504742e-03  1.9269374975494266e-01 -6.5514246187448350e-03 -2.1659756909294049e-03  2.4392828274227918e-01 -6.5653750785712051e-03 -2.1744950150594457e-03  3.7164788674829162e-02 -1.0551901192250491e-02 -2.2235194339693103e-03  0.0000000000000000e+00 0.0000000000000000e+00 0.0000000000000000e+00  8.9869109891711749e-02 -1.3558440110172923e-02 -2.0380529218119838e-03  1.4138365697375477e-01 -1.3518178278261305e-02 -1.0341628581610049e-03  1.4138394099596208e-01 -1.3515856446346479e-02 -2.1735890987353065e-03  1.9272134819764986e-01 -1.3388513367426635e-02 -1.0475112148484150e-03  1.9272210731096945e-01 -1.3385943462242859e-02 -2.1811004236687755e-03  2.4393900891263501e-01 -1.3385143669344039e-02 -1.0533913919720096e-03  2.4393907578116888e-01 -1.3382642363882325e-02 -2.1892574213184268e-03  3.8051693783715708e-02 -1.6552813775266281e-02 -6.7297982247446287e-04  3.8071208711490757e-02 -1.6563058845462969e-02 -2.1434641060254014e-03  0.0000000000000000e+00 0.0000000000000000e+00 0.0000000000000000e+00  0.0000000000000000e+00 0.0000000000000000e+00 0.0000000000000000e+00  9.0551350034511993e-02 -2.0565102658751309e-02 -9.4951621877434420e-04  9.0564845135547481e-02 -2.0568785614531165e-02 -2.0202772672858900e-03  1.4154621269656092e-01 -2.0367098276600781e-02 -1.0484756934208508e-03  1.4154681927074214e-01 -2.0364172434958912e-02 -2.1867689524777884e-03  1.9274706926193674e-01 -2.0213054759278828e-02 -1.0637094578050768e-03  1.9274783765886028e-01 -2.0210360256638468e-02 -2.1973138038859624e-03  2.4394779850911522e-01 -2.0201359171423881e-02 -1.0685494287106536e-03  2.4394782941980317e-01 -2.0198788385908849e-02 -2.2044513308883810e-03  3.9725837505377469e-02 -2.3167153870729713e-02 -5.7003124280219212e-04  3.9743653587020929e-02 -2.3180655525701088e-02 -1.9780968066872616e-03  0.0000000000000000e+00 0.0000000000000000e+00 0.0000000000000000e+00  0.0000000000000000e+00 0.0000000000000000e+00 0.0000000000000000e+00  9.1376604257602051e-02 -2.7416133358718387e-02 -9.5587354864582852e-04  9.1394511509101536e-02 -2.7424572854681611e-02 -2.0005119938824338e-03  1.4165180238452391e-01 -2.7148928130801626e-02 -1.0647159568034053e-03  1.4165244063958249e-01 -2.7144042742983966e-02 -2.2041135979524256e-03  1.9276331361239601e-01 -2.7031635661329295e-02 -1.0809141105610452e-03  1.9276412904236342e-01 -2.7029033314158384e-02 -2.2143410230526153e-03  2.4395359930972957e-01 -2.7013881988018643e-02 -2.2200508977708281e-03  4.3309775030476116e-02 -3.0502560199064690e-02 -4.2164611538199364e-04  4.3338589456972790e-02 -3.0520196863419523e-02 -1.7231037806287499e-03  0.0000000000000000e+00 0.0000000000000000e+00 0.0000000000000000e+00  0.0000000000000000e+00 0.0000000000000000e+00 0.0000000000000000e+00  9.1792429978121343e-02 -3.3946045105308402e-02 -1.9468685368059101e-03  1.4168538389709648e-01 -3.3902865565322640e-02 -2.2384748463376426e-03  1.9275809684336812e-01 -3.3846415676146067e-02 -2.2292914271793735e-03  2.4395748139063175e-01 -3.3828578354886507e-02 -2.2365934073893244e-03  4.0589864492782450e-02 2.5509997082045370e-02 -3.1723145911272919e-03  4.2585880762158052e-02 3.1761610180015748e-02 -2.6971421613854324e-03  0.0000000000000000e+00 0.0000000000000000e+00 0.0000000000000000e+00  0.0000000000000000e+00 0.0000000000000000e+00 0.0000000000000000e+00  9.1040196706584087e-02 2.7945062258624212e-02 -3.0247162078428170e-03  9.1332335872382764e-02 3.4635371150768902e-02 -3.0298946974602549e-03  1.4149889933756252e-01 2.7906312445761187e-02 -3.2243169747128357e-03  1.4151207168094215e-01 3.4687395802240971e-02 -3.2076075965256365e-03  1.9262691504461324e-01 2.7641767616111985e-02 -3.2388125396993453e-03  1.9259180557324987e-01 3.4461846714008329e-02 -3.2298832625561806e-03  2.4385614749337239e-01 2.7531963639798731e-02 -3.2441193744060181e-03  2.4383830814144994e-01 3.4351825681980912e-02 -3.2321370108158425e-03  3.8228488776541517e-02 1.8369910852839663e-02 -3.5346822790810369e-03  0.0000000000000000e+00 0.0000000000000000e+00 0.0000000000000000e+00  9.0464014848415111e-02 2.1234304682741931e-02 -3.0573931236992434e-03  1.4139562098091057e-01 2.1090387620708379e-02 -3.2419353541875179e-03  1.9264504266589749e-01 2.0815152974276122e-02 -3.2483649949852614e-03  2.4387354371934120e-01 2.0713008293614263e-02 -3.2564720391155492e-03  3.7216684865506722e-02 1.1996305706074191e-02 -3.6777482491596823e-03  0.0000000000000000e+00 0.0000000000000000e+00 0.0000000000000000e+00  8.9935399476444050e-02 1.4478901052660942e-02 -3.0865036839613333e-03  1.4127262591789966e-01 1.4208661238488799e-02 -3.2598499717750007e-03  1.9265211707149330e-01 1.3980728904997283e-02 -3.2595896932351097e-03  2.4388913436077758e-01 1.3894104163796973e-02 -3.2692504199743071e-03  3.6735412678078311e-02 6.1532057442025565e-03 -3.7506664502258121e-03  0.0000000000000000e+00 0.0000000000000000e+00 0.0000000000000000e+00  8.9492849155738560e-02 7.5486108646142351e-03 -3.1239492988081900e-03  1.4118203482270758e-01 7.2819221742463792e-03 -3.2773301848820838e-03  1.9265848246728934e-01 7.1398712865247318e-03 -3.2719620605731830e-03  2.4390324509805816e-01 7.0747035048203000e-03 -3.2824634239256101e-03  3.6585132360828894e-02 5.9067743334042762e-04 -3.7796434631413457e-03  0.0000000000000000e+00 0.0000000000000000e+00 0.0000000000000000e+00  8.9315354616999298e-02 5.3749293102601907e-04 -3.1463420401577624e-03  1.4117070241459545e-01 3.3887296757841690e-04 -3.2911161935389945e-03  1.9267190320881483e-01 2.9439586145150754e-04 -3.2852458149420123e-03  2.4391628732032111e-01 2.5539419620971085e-04 -3.2961723233916633e-03  3.6729735721781086e-02 -4.9111113047063211e-03 -3.7711017876716009e-03  0.0000000000000000e+00 0.0000000000000000e+00 0.0000000000000000e+00  8.9443032778719136e-02 -6.5086568222823505e-03 -3.1484751564855398e-03  1.4124283688635250e-01 -6.6034956710001582e-03 -3.3025840101531465e-03  1.9269445689679296e-01 -6.5490213567756632e-03 -3.2995016126756830e-03  2.4392839129111274e-01 -6.5629551125824465e-03 -3.3104005395542292e-03  3.7200238183277771e-02 -1.0560797663703422e-02 -3.7207892783668512e-03  0.0000000000000000e+00 0.0000000000000000e+00 0.0000000000000000e+00  8.9873954581297766e-02 -1.3562326643277403e-02 -3.1293821126984907e-03  1.4138468392631851e-01 -1.3513887385076367e-02 -3.3129596676745505e-03  1.9272287071758690e-01 -1.3383376598010560e-02 -3.3146873964906795e-03  2.4393916707763325e-01 -1.3380136528016137e-02 -3.3251347669933989e-03  3.8106745504538929e-02 -1.6580086629668415e-02 -3.6097809525799497e-03  0.0000000000000000e+00 0.0000000000000000e+00 0.0000000000000000e+00  9.0572423616417805e-02 -2.0575902327778266e-02 -3.0904060707418824e-03  1.4154825347578914e-01 -2.0361505252350365e-02 -3.3250616052428053e-03  1.9274865075227601e-01 -2.0207645021037522e-02 -3.3309109476838128e-03  2.4394788168283041e-01 -2.0196202395048404e-02 -3.3403619117424966e-03  3.9774054628141368e-02 -2.3202550670144682e-02 -3.3856437128657393e-03  0.0000000000000000e+00 0.0000000000000000e+00 0.0000000000000000e+00  9.1408682636132416e-02 -2.7438619784349430e-02 -3.0427239942810167e-03  1.4165425486243882e-01 -2.7138746252498985e-02 -3.3438675452406442e-03  1.9276501356347100e-01 -2.7026464841513470e-02 -3.3477180346463253e-03  2.4395357574992452e-01 -2.7011168241790867e-02 -3.3561195234341015e-03  4.3388824817921959e-02 -3.0531820722370491e-02 -3.0198785759884593e-03  0.0000000000000000e+00 0.0000000000000000e+00 0.0000000000000000e+00  9.1806746815620593e-02 -3.3971590040292148e-02 -2.9507929981134008e-03  1.4168857914434549e-01 -3.3891765225326803e-02 -3.3851831619020707e-03  1.9275873740278715e-01 -3.3844738983550823e-02 -3.3614326206732161e-03  2.4395744986786258e-01 -3.3825629997470234e-02 -3.3732231997701807e-03  4.0652418108362898e-02 2.5585641889798599e-02 -4.4614339166480872e-03  4.2596103660204263e-02 3.1841347184202375e-02 -3.8285772082383806e-03  0.0000000000000000e+00 0.0000000000000000e+00 0.0000000000000000e+00  0.0000000000000000e+00 0.0000000000000000e+00 0.0000000000000000e+00  9.1051782564959258e-02 2.7946126418792672e-02 -4.1129633596499442e-03  9.1348091915721921e-02 3.4631026177529521e-02 -4.1238750270916188e-03  1.4150117875657517e-01 2.7909661670555263e-02 -4.3583326873227876e-03  1.4151454133288119e-01 3.4690245333616247e-02 -4.3370787046748656e-03  1.9262771039508050e-01 2.7643260127846014e-02 -4.3743528360529558e-03  1.9259261818767789e-01 3.4463119594206587e-02 -4.3663759432708569e-03  2.4385615336899386e-01 2.7533984174667479e-02 -4.3805542663117895e-03  2.4383830415039967e-01 3.4353812380308935e-02 -4.3688975397750702e-03  3.8272041707841827e-02 1.8404731116052685e-02 -4.9527883484956643e-03  0.0000000000000000e+00 0.0000000000000000e+00 0.0000000000000000e+00  9.0464274991010021e-02 2.1240173304893629e-02 -4.1523748576599321e-03  1.4139752832134056e-01 2.1094184377081583e-02 -4.3801646522992578e-03  1.9264578818392239e-01 2.0816790007579557e-02 -4.3828822671095388e-03  2.4387360225999041e-01 2.0715092479106544e-02 -