<?xml version="1.0"?>
<VTKFile type="UnstructuredGrid"  version="0.1"  >
<UnstructuredGrid>
<Piece  NumberOfPoints="1408" NumberOfCells="6148">
<Points>
<DataArray  type="Float64"  NumberOfComponents="3"  format="ascii">0.2 0.15 0  0.25 0.15 0  0.25 0.2 0  0.25 0.2 0.05  0.3 0.15 0  0.3 0.2 0  0.3 0.2 0.05  0.35 0.15 0  0.35 0.2 0  0.35 0.2 0.05  0.4 0.2 0  0.4 0.2 0.05  0.3 0.25 0  0.3 0.25 0.05  0.25 0.25 0  0.25 0.25 0.05  0.35 0.25 0  0.35 0.25 0.05  0.4 0.25 0  0.4 0.25 0.05  0.45 0.2 0  0.45 0.25 0  0.45 0.25 0.05  0.45 0.2 0.05  0.5 0.2 0  0.5 0.25 0  0.5 0.25 0.05  0.5 0.2 0.05  0.55 0.2 0  0.55 0.25 0  0.55 0.25 0.05  0.55 0.2 0.05  0.3 0.3 0  0.3 0.3 0.05  0.25 0.3 0  0.25 0.3 0.05  0.35 0.3 0  0.35 0.3 0.05  0.4 0.3 0  0.4 0.3 0.05  0.45 0.3 0  0.45 0.3 0.05  0.5 0.3 0  0.5 0.3 0.05  0.55 0.3 0  0.55 0.3 0.05  0.6 0.25 0  0.6 0.3 0  0.6 0.3 0.05  0.6 0.25 0.05  0.3 0.35 0  0.3 0.35 0.05  0.35 0.35 0  0.35 0.35 0.05  0.4 0.35 0  0.4 0.35 0.05  0.45 0.35 0  0.45 0.35 0.05  0.5 0.35 0  0.5 0.35 0.05  0.55 0.35 0  0.55 0.35 0.05  0.6 0.35 0  0.6 0.35 0.05  0.65 0.3 0  0.65 0.35 0  0.65 0.35 0.05  0.65 0.3 0.05  0.7 0.3 0  0.7 0.35 0  0.7 0.35 0.05  0.7 0.3 0.05  0.75 0.3 0  0.75 0.35 0  0.75 0.35 0.05  0.75 0.3 0.05  0.8 0.3 0  0.8 0.35 0  0.8 0.35 0.05  0.85 0.3 0  0.85 0.35 0  0.85 0.35 0.05  0.85 0.3 0.05  0.8 0.3 0.05  0.9 0.3 0  0.9 0.35 0  0.9 0.35 0.05  0.9 0.3 0.05  0.95 0.3 0  0.95 0.35 0  0.95 0.35 0.05  0.35 0.4 0  0.35 0.4 0.05  0.3 0.4 0  0.3 0.4 0.05  0.4 0.4 0  0.4 0.4 0.05  0.45 0.4 0  0.45 0.4 0.05  0.5 0.4 0  0.5 0.4 0.05  0.55 0.4 0  0.55 0.4 0.05  0.6 0.4 0  0.6 0.4 0.05  0.65 0.4 0  0.65 0.4 0.05  0.7 0.4 0  0.7 0.4 0.05  0.75 0.4 0  0.75 0.4 0.05  0.8 0.4 0  0.8 0.4 0.05  0.85 0.4 0  0.85 0.4 0.05  0.9 0.4 0  0.9 0.4 0.05  0.95 0.4 0  0.95 0.4 0.05  1 0.35 0  1 0.4 0  1 0.4 0.05  1 0.35 0.05  0.35 0.45 0  0.35 0.45 0.05  0.4 0.45 0  0.4 0.45 0.05  0.45 0.45 0  0.45 0.45 0.05  0.5 0.45 0  0.5 0.45 0.05  0.55 0.45 0  0.55 0.45 0.05  0.6 0.45 0  0.6 0.45 0.05  0.65 0.45 0  0.65 0.45 0.05  0.7 0.45 0  0.7 0.45 0.05  0.75 0.45 0  0.75 0.45 0.05  0.8 0.45 0  0.8 0.45 0.05  0.85 0.45 0  0.85 0.45 0.05  0.9 0.45 0  0.9 0.45 0.05  0.95 0.45 0  0.95 0.45 0.05  1 0.45 0  1 0.45 0.05  0.4 0.5 0  0.4 0.5 0.05  0.35 0.5 0  0.35 0.5 0.05  0.45 0.5 0  0.45 0.5 0.05  0.5 0.5 0  0.5 0.5 0.05  0.55 0.5 0  0.55 0.5 0.05  0.6 0.5 0  0.6 0.5 0.05  0.65 0.5 0  0.65 0.5 0.05  0.7 0.5 0  0.7 0.5 0.05  0.75 0.5 0  0.75 0.5 0.05  0.8 0.5 0  0.8 0.5 0.05  0.85 0.5 0  0.85 0.5 0.05  0.9 0.5 0  0.9 0.5 0.05  0.95 0.5 0  0.95 0.5 0.05  1 0.5 0  1 0.5 0.05  0.4 0.55 0  0.4 0.55 0.05  0.35 0.55 0  0.35 0.55 0.05  0.45 0.55 0  0.45 0.55 0.05  0.5 0.55 0  0.5 0.55 0.05  0.55 0.55 0  0.55 0.55 0.05  0.6 0.55 0  0.6 0.55 0.05  0.65 0.55 0  0.65 0.55 0.05  0.7 0.55 0  0.7 0.55 0.05  0.75 0.55 0  0.75 0.55 0.05  0.8 0.55 0  0.8 0.55 0.05  0.85 0.55 0  0.85 0.55 0.05  0.9 0.55 0  0.9 0.55 0.05  0.95 0.55 0  0.95 0.55 0.05  1 0.55 0  1 0.55 0.05  0.4 0.6 0  0.4 0.6 0.05  0.35 0.6 0  0.35 0.6 0.05  0.45 0.6 0  0.45 0.6 0.05  0.5 0.6 0  0.5 0.6 0.05  0.55 0.6 0  0.55 0.6 0.05  0.6 0.6 0  0.6 0.6 0.05  0.65 0.6 0  0.65 0.6 0.05  0.7 0.6 0  0.7 0.6 0.05  0.75 0.6 0  0.75 0.6 0.05  0.8 0.6 0  0.8 0.6 0.05  0.85 0.6 0  0.85 0.6 0.05  0.9 0.6 0  0.9 0.6 0.05  0.95 0.6 0  0.95 0.6 0.05  1 0.6 0  1 0.6 0.05  0.4 0.65 0  0.4 0.65 0.05  0.35 0.65 0  0.35 0.65 0.05  0.45 0.65 0  0.45 0.65 0.05  0.5 0.65 0  0.5 0.65 0.05  0.55 0.65 0  0.55 0.65 0.05  0.6 0.65 0  0.6 0.65 0.05  0.65 0.65 0  0.65 0.65 0.05  0.7 0.65 0  0.7 0.65 0.05  0.75 0.65 0  0.75 0.65 0.05  0.8 0.65 0  0.8 0.65 0.05  0.85 0.65 0  0.85 0.65 0.05  0.9 0.65 0  0.9 0.65 0.05  0.95 0.65 0  0.95 0.65 0.05  1 0.65 0  1 0.65 0.05  0.4 0.7 0  0.4 0.7 0.05  0.35 0.7 0  0.35 0.7 0.05  0.45 0.7 0  0.45 0.7 0.05  0.5 0.7 0  0.5 0.7 0.05  0.55 0.7 0  0.55 0.7 0.05  0.6 0.7 0  0.6 0.7 0.05  0.65 0.7 0  0.65 0.7 0.05  0.7 0.7 0  0.7 0.7 0.05  0.75 0.7 0  0.75 0.7 0.05  0.8 0.7 0  0.8 0.7 0.05  0.85 0.7 0  0.85 0.7 0.05  0.9 0.7 0  0.9 0.7 0.05  0.95 0.7 0  0.95 0.7 0.05  1 0.7 0  1 0.7 0.05  0.4 0.75 0  0.4 0.75 0.05  0.45 0.75 0  0.45 0.75 0.05  0.5 0.75 0  0.5 0.75 0.05  0.55 0.75 0  0.55 0.75 0.05  0.6 0.75 0  0.6 0.75 0.05  0.65 0.75 0  0.65 0.75 0.05  0.7 0.75 0  0.7 0.75 0.05  0.75 0.75 0  0.75 0.75 0.05  0.8 0.75 0  0.8 0.75 0.05  0.85 0.75 0  0.85 0.75 0.05  0.9 0.75 0  0.9 0.75 0.05  0.95 0.75 0  0.95 0.75 0.05  1 0.75 0  1 0.75 0.05  0.45 0.8 0  0.45 0.8 0.05  0.5 0.8 0  0.5 0.8 0.05  0.55 0.8 0  0.55 0.8 0.05  0.6 0.8 0  0.6 0.8 0.05  0.65 0.8 0  0.65 0.8 0.05  0.7 0.8 0  0.7 0.8 0.05  0.75 0.8 0  0.75 0.8 0.05  0.8 0.8 0  0.8 0.8 0.05  0.85 0.8 0  0.85 0.8 0.05  0.9 0.8 0  0.9 0.8 0.05  0.95 0.8 0  0.95 0.8 0.05  1 0.8 0  1 0.8 0.05  0.5 0.85 0  0.5 0.85 0.05  0.45 0.85 0  0.45 0.85 0.05  0.55 0.85 0  0.55 0.85 0.05  0.6 0.85 0  0.6 0.85 0.05  0.65 0.85 0  0.65 0.85 0.05  0.7 0.85 0  0.7 0.85 0.05  0.75 0.85 0  0.75 0.85 0.05  0.8 0.85 0  0.8 0.85 0.05  0.85 0.85 0  0.85 0.85 0.05  0.9 0.85 0  0.9 0.85 0.05  0.95 0.85 0  0.95 0.85 0.05  1 0.85 0  1 0.85 0.05  0.5 0.9 0  0.5 0.9 0.05  0.45 0.9 0  0.45 0.9 0.05  0.55 0.9 0  0.55 0.9 0.05  0.6 0.9 0  0.6 0.9 0.05  0.65 0.9 0  0.65 0.9 0.05  0.7 0.9 0  0.7 0.9 0.05  0.75 0.9 0  0.75 0.9 0.05  0.8 0.9 0  0.8 0.9 0.05  0.85 0.9 0  0.85 0.9 0.05  0.9 0.9 0  0.9 0.9 0.05  0.95 0.9 0  0.95 0.9 0.05  1 0.9 0  1 0.9 0.05  0.5 0.95 0  0.5 0.95 0.05  0.55 0.95 0  0.55 0.95 0.05  0.6 0.95 0  0.6 0.95 0.05  0.65 0.95 0  0.65 0.95 0.05  0.7 0.95 0  0.7 0.95 0.05  0.75 0.95 0  0.75 0.95 0.05  0.8 0.95 0  0.8 0.95 0.05  0.85 0.95 0  0.85 0.95 0.05  0.9 0.95 0  0.9 0.95 0.05  0.95 0.95 0  0.95 0.95 0.05  1 0.95 0  1 0.95 0.05  0.55 1 0  0.55 1 0.05  0.6 1 0  0.6 1 0.05  0.65 1 0  0.65 1 0.05  0.7 1 0  0.7 1 0.05  0.75 1 0  0.75 1 0.05  0.8 1 0  0.8 1 0.05  0.85 1 0  0.85 1 0.05  0.9 1 0  0.9 1 0.05  0.95 1 0  0.95 1 0.05  1 1 0  1 1 0.05  0.3 0.25 0.1  0.3 0.2 0.1  0.25 0.2 0.1  0.25 0.25 0.1  0.35 0.25 0.1  0.35 0.2 0.1  0.4 0.25 0.1  0.4 0.2 0.1  0.45 0.25 0.1  0.5 0.25 0.1  0.55 0.25 0.1  0.6 0.25 0.1  0.3 0.3 0.1  0.35 0.3 0.1  0.4 0.3 0.1  0.45 0.3 0.1  0.5 0.3 0.1  0.55 0.3 0.1  0.6 0.3 0.1  0.65 0.3 0.1  0.3 0.35 0.1  0.35 0.35 0.1  0.4 0.35 0.1  0.45 0.35 0.1  0.5 0.35 0.1  0.55 0.35 0.1  0.6 0.35 0.1  0.65 0.35 0.1  0.7 0.35 0.1  0.75 0.35 0.1  0.8 0.35 0.1  0.85 0.35 0.1  0.35 0.4 0.1  0.3 0.4 0.1  0.4 0.4 0.1  0.45 0.4 0.1  0.5 0.4 0.1  0.55 0.4 0.1  0.6 0.4 0.1  0.65 0.4 0.1  0.7 0.4 0.1  0.75 0.4 0.1  0.8 0.4 0.1  0.85 0.4 0.1  0.95 0.4 0.1  1 0.4 0.1  0.35 0.45 0.1  0.4 0.45 0.1  0.45 0.45 0.1  0.5 0.45 0.1  0.55 0.45 0.1  0.6 0.45 0.1  0.65 0.45 0.1  0.7 0.45 0.1  0.75 0.45 0.1  0.8 0.45 0.1  0.85 0.45 0.1  0.9 0.45 0.1  0.95 0.45 0.1  1 0.45 0.1  0.4 0.5 0.1  0.35 0.5 0.1  0.45 0.5 0.1  0.5 0.5 0.1  0.55 0.5 0.1  0.6 0.5 0.1  0.65 0.5 0.1  0.7 0.5 0.1  0.75 0.5 0.1  0.8 0.5 0.1  0.85 0.5 0.1  0.9 0.5 0.1  0.95 0.5 0.1  1 0.5 0.1  0.4 0.55 0.1  0.45 0.55 0.1  0.5 0.55 0.1  0.55 0.55 0.1  0.6 0.55 0.1  0.65 0.55 0.1  0.7 0.55 0.1  0.75 0.55 0.1  0.8 0.55 0.1  0.85 0.55 0.1  0.9 0.55 0.1  0.95 0.55 0.1  1 0.55 0.1  0.4 0.6 0.1  0.45 0.6 0.1  0.5 0.6 0.1  0.55 0.6 0.1  0.6 0.6 0.1  0.65 0.6 0.1  0.7 0.6 0.1  0.75 0.6 0.1  0.8 0.6 0.1  0.85 0.6 0.1  0.9 0.6 0.1  0.95 0.6 0.1  1 0.6 0.1  0.4 0.65 0.1  0.45 0.65 0.1  0.5 0.65 0.1  0.55 0.65 0.1  0.6 0.65 0.1  0.65 0.65 0.1  0.7 0.65 0.1  0.75 0.65 0.1  0.8 0.65 0.1  0.85 0.65 0.1  0.9 0.65 0.1  0.95 0.65 0.1  1 0.65 0.1  0.4 0.7 0.1  0.45 0.7 0.1  0.5 0.7 0.1  0.55 0.7 0.1  0.6 0.7 0.1  0.65 0.7 0.1  0.7 0.7 0.1  0.75 0.7 0.1  0.8 0.7 0.1  0.85 0.7 0.1  0.9 0.7 0.1  0.95 0.7 0.1  1 0.7 0.1  0.4 0.75 0.1  0.45 0.75 0.1  0.5 0.75 0.1  0.55 0.75 0.1  0.6 0.75 0.1  0.65 0.75 0.1  0.7 0.75 0.1  0.75 0.75 0.1  0.8 0.75 0.1  0.85 0.75 0.1  0.9 0.75 0.1  0.95 0.75 0.1  1 0.75 0.1  0.45 0.8 0.1  0.5 0.8 0.1  0.55 0.8 0.1  0.6 0.8 0.1  0.65 0.8 0.1  0.7 0.8 0.1  0.75 0.8 0.1  0.8 0.8 0.1  0.85 0.8 0.1  0.9 0.8 0.1  0.95 0.8 0.1  1 0.8 0.1  0.5 0.85 0.1  0.45 0.85 0.1  0.55 0.85 0.1  0.6 0.85 0.1  0.65 0.85 0.1  0.7 0.85 0.1  0.75 0.85 0.1  0.8 0.85 0.1  0.85 0.85 0.1  0.9 0.85 0.1  0.95 0.85 0.1  1 0.85 0.1  0.5 0.9 0.1  0.55 0.9 0.1  0.6 0.9 0.1  0.65 0.9 0.1  0.7 0.9 0.1  0.75 0.9 0.1  0.8 0.9 0.1  0.85 0.9 0.1  0.9 0.9 0.1  0.95 0.9 0.1  1 0.9 0.1  0.5 0.95 0.1  0.55 0.95 0.1  0.6 0.95 0.1  0.65 0.95 0.1  0.7 0.95 0.1  0.75 0.95 0.1  0.8 0.95 0.1  0.85 0.95 0.1  0.9 0.95 0.1  0.95 0.95 0.1  1 0.95 0.1  0.55 1 0.1  0.6 1 0.1  0.65 1 0.1  0.7 1 0.1  0.75 1 0.1  0.8 1 0.1  0.85 1 0.1  0.9 1 0.1  0.95 1 0.1  1 1 0.1  0.3 0.25 0.15  0.35 0.25 0.15  0.4 0.25 0.15  0.45 0.25 0.15  0.3 0.3 0.15  0.35 0.3 0.15  0.4 0.3 0.15  0.45 0.3 0.15  0.5 0.3 0.15  0.55 0.3 0.15  0.6 0.3 0.15  0.65 0.3 0.15  0.35 0.35 0.15  0.3 0.35 0.15  0.4 0.35 0.15  0.45 0.35 0.15  0.5 0.35 0.15  0.55 0.35 0.15  0.6 0.35 0.15  0.65 0.35 0.15  0.7 0.3 0.1  0.7 0.35 0.15  0.7 0.3 0.15  0.75 0.3 0.1  0.8 0.35 0.15  0.75 0.35 0.15  0.8 0.3 0.1  0.85 0.35 0.15  0.35 0.4 0.15  0.3 0.4 0.15  0.4 0.4 0.15  0.45 0.4 0.15  0.5 0.4 0.15  0.55 0.4 0.15  0.6 0.4 0.15  0.65 0.4 0.15  0.7 0.4 0.15  0.75 0.4 0.15  0.8 0.4 0.15  0.85 0.4 0.15  0.35 0.45 0.15  0.4 0.45 0.15  0.45 0.45 0.15  0.5 0.45 0.15  0.55 0.45 0.15  0.6 0.45 0.15  0.65 0.45 0.15  0.7 0.45 0.15  0.75 0.45 0.15  0.8 0.45 0.15  0.85 0.45 0.15  0.9 0.45 0.15  1 0.45 0.15  0.95 0.45 0.15  0.4 0.5 0.15  0.35 0.5 0.15  0.45 0.5 0.15  0.5 0.5 0.15  0.55 0.5 0.15  0.6 0.5 0.15  0.65 0.5 0.15  0.7 0.5 0.15  0.75 0.5 0.15  0.8 0.5 0.15  0.85 0.5 0.15  0.9 0.5 0.15  0.95 0.5 0.15  1 0.5 0.15  0.4 0.55 0.15  0.45 0.55 0.15  0.5 0.55 0.15  0.55 0.55 0.15  0.6 0.55 0.15  0.65 0.55 0.15  0.7 0.55 0.15  0.75 0.55 0.15  0.8 0.55 0.15  0.85 0.55 0.15  0.9 0.55 0.15  0.95 0.55 0.15  1 0.55 0.15  0.45 0.6 0.15  0.4 0.6 0.15  0.5 0.6 0.15  0.55 0.6 0.15  0.6 0.6 0.15  0.65 0.6 0.15  0.7 0.6 0.15  0.75 0.6 0.15  0.8 0.6 0.15  0.85 0.6 0.15  0.9 0.6 0.15  0.95 0.6 0.15  1 0.6 0.15  0.45 
[...]
<PointData  Vectors="f_8-0"> 
<DataArray  type="Float64"  Name="f_8-0"  NumberOfComponents="3" format="ascii">1.1618342427282831e-01 0.0000000000000000e+00 0.0000000000000000e+00  1.1618342427282831e-01 0.0000000000000000e+00 0.0000000000000000e+00  1.2214027581601700e-01 0.0000000000000000e+00 0.0000000000000000e+00  1.2840256881393852e-01 -5.9977963524095843e-09 -6.8911177546543499e-09  1.1618342427282831e-01 0.0000000000000000e+00 0.0000000000000000e+00  1.2214027581601700e-01 0.0000000000000000e+00 0.0000000000000000e+00  1.2840256854899670e-01 -6.1305441440147575e-09 -6.9668767235718921e-09  1.1618342427282831e-01 0.0000000000000000e+00 0.0000000000000000e+00  1.2214027581601700e-01 0.0000000000000000e+00 0.0000000000000000e+00  1.2840256843343598e-01 -6.2246910128697461e-09 -7.0056332183582154e-09  1.2214027581601700e-01 0.0000000000000000e+00 0.0000000000000000e+00  1.2840256841890366e-01 -6.2830709914681955e-09 -7.0223190980275969e-09  1.2840254166877416e-01 0.0000000000000000e+00 0.0000000000000000e+00  1.3498590917644251e-01 -6.5932666974832555e-09 -7.6350529382058699e-09  1.2840254166877416e-01 0.0000000000000000e+00 0.0000000000000000e+00  1.3498590938833332e-01 -6.4799266307479765e-09 -7.5426298607343017e-09  1.2840254166877416e-01 0.0000000000000000e+00 0.0000000000000000e+00  1.3498590910900157e-01 -6.6775238418873541e-09 -7.6848183760204781e-09  1.2840254166877416e-01 0.0000000000000000e+00 0.0000000000000000e+00  1.3498590913449995e-01 -6.7283095070329925e-09 -7.7084721838909870e-09  1.2214027581601700e-01 0.0000000000000000e+00 0.0000000000000000e+00  1.2840254166877416e-01 0.0000000000000000e+00 0.0000000000000000e+00  1.3498590921775683e-01 -6.7499446323336669e-09 -7.7150839514707067e-09  1.2840256847156076e-01 -6.3133603789458140e-09 -7.0247486582199164e-09  1.2214027581601700e-01 0.0000000000000000e+00 0.0000000000000000e+00  1.2840254166877416e-01 0.0000000000000000e+00 0.0000000000000000e+00  1.3498590933520779e-01 -6.7513440802613324e-09 -7.7109383716347052e-09  1.2840256856897131e-01 -6.3253664878887141e-09 -7.0181751828663813e-09  1.2214027581601700e-01 0.0000000000000000e+00 0.0000000000000000e+00  1.2840254166877416e-01 0.0000000000000000e+00 0.0000000000000000e+00  1.3498590947344308e-01 -6.7440434551018330e-09 -7.7015786028788844e-09  1.2840256869917127e-01 -6.3303473977049553e-09 -7.0071984712003867e-09  1.3498588075760032e-01 0.0000000000000000e+00 0.0000000000000000e+00  1.4190678481719726e-01 -7.1879481881931313e-09 -8.3800637520871199e-09  1.3498588075760032e-01 0.0000000000000000e+00 0.0000000000000000e+00  1.4190678498643597e-01 -7.1102899652050142e-09 -8.2722530184394994e-09  1.3498588075760032e-01 0.0000000000000000e+00 0.0000000000000000e+00  1.4190678479413474e-01 -7.2431417176909113e-09 -8.4404301699953596e-09  1.3498588075760032e-01 0.0000000000000000e+00 0.0000000000000000e+00  1.4190678485863692e-01 -7.2675067807183968e-09 -8.4710201054235205e-09  1.3498588075760032e-01 0.0000000000000000e+00 0.0000000000000000e+00  1.4190678497172088e-01 -7.2628505712780770e-09 -8.4818885518705047e-09  1.3498588075760032e-01 0.0000000000000000e+00 0.0000000000000000e+00  1.4190678510756924e-01 -7.2368625838783100e-09 -8.4802348218783094e-09  1.3498588075760032e-01 0.0000000000000000e+00 0.0000000000000000e+00  1.4190678525117456e-01 -7.2004976113915052e-09 -8.4725004811200182e-09  1.2840254166877416e-01 0.0000000000000000e+00 0.0000000000000000e+00  1.3498588075760032e-01 0.0000000000000000e+00 0.0000000000000000e+00  1.4190678539814991e-01 -7.1661577820880293e-09 -8.4656184389744760e-09  1.3498590962927859e-01 -6.7410957837569386e-09 -7.6929887512258655e-09  1.4190675485932572e-01 0.0000000000000000e+00 0.0000000000000000e+00  1.4918250129579216e-01 -7.8922953245656002e-09 -9.2077283788059154e-09  1.4190675485932572e-01 0.0000000000000000e+00 0.0000000000000000e+00  1.4918250130960781e-01 -7.9026897686204899e-09 -9.2778842808097720e-09  1.4190675485932572e-01 0.0000000000000000e+00 0.0000000000000000e+00  1.4918250140830669e-01 -7.8831872161554895e-09 -9.3148486658542134e-09  1.4190675485932572e-01 0.0000000000000000e+00 0.0000000000000000e+00  1.4918250154796148e-01 -7.8347608072135842e-09 -9.3295152705356041e-09  1.4190675485932572e-01 0.0000000000000000e+00 0.0000000000000000e+00  1.4918250170000583e-01 -7.7644100906927715e-09 -9.3299102058934908e-09  1.4190675485932572e-01 0.0000000000000000e+00 0.0000000000000000e+00  1.4918250184801679e-01 -7.6824206587410837e-09 -9.3233220089920226e-09  1.4190675485932572e-01 0.0000000000000000e+00 0.0000000000000000e+00  1.4918250198722255e-01 -7.6003805323129313e-09 -9.3175860010789941e-09  1.3498588075760032e-01 0.0000000000000000e+00 0.0000000000000000e+00  1.4190675485932572e-01 0.0000000000000000e+00 0.0000000000000000e+00  1.4918250212646267e-01 -7.5294149977419068e-09 -9.3225320139114341e-09  1.4190678555632694e-01 -7.1458923341241404e-09 -8.4683993038337059e-09  1.3498588075760032e-01 0.0000000000000000e+00 0.0000000000000000e+00  1.4190675485932572e-01 0.0000000000000000e+00 0.0000000000000000e+00  1.4918250229359978e-01 -7.4782071934626286e-09 -9.3528122985595650e-09  1.4190678575000037e-01 -7.1488341561014315e-09 -8.4942316894507167e-09  1.3498588075760032e-01 0.0000000000000000e+00 0.0000000000000000e+00  1.4190675485932572e-01 0.0000000000000000e+00 0.0000000000000000e+00  1.4918250254657164e-01 -7.4508951912943522e-09 -9.4348208465363811e-09  1.4190678602902554e-01 -7.1772933105298234e-09 -8.5676770736100026e-09  1.3498588075760032e-01 0.0000000000000000e+00 0.0000000000000000e+00  1.4190675485932572e-01 0.0000000000000000e+00 0.0000000000000000e+00  1.4918250299176186e-01 -7.4467333680040946e-09 -9.6246238951492468e-09  1.3498588075760032e-01 0.0000000000000000e+00 0.0000000000000000e+00  1.4190675485932572e-01 0.0000000000000000e+00 0.0000000000000000e+00  1.4918250379754514e-01 -7.4686200999683837e-09 -1.0052677537202796e-08  1.4190678726753447e-01 -7.2657104004337841e-09 -9.1388401197165103e-09  1.4190678648527838e-01 -7.2223846704637646e-09 -8.7414839782328339e-09  1.3498588075760032e-01 0.0000000000000000e+00 0.0000000000000000e+00  1.4190675485932572e-01 0.0000000000000000e+00 0.0000000000000000e+00  1.4918250508797865e-01 -7.5444634242116874e-09 -1.0992414030256308e-08  1.4190678849064303e-01 -7.2941171607639524e-09 -1.0019319240778801e-08  1.3498588075760032e-01 0.0000000000000000e+00 0.0000000000000000e+00  1.4190675485932572e-01 0.0000000000000000e+00 0.0000000000000000e+00  1.4918250536322553e-01 -7.3237470167393004e-09 -1.2515885354792643e-08  1.4918246976412705e-01 0.0000000000000000e+00 0.0000000000000000e+00  1.5683125175624002e-01 -8.6397772492664356e-09 -1.0203880682258581e-08  1.4918246976412705e-01 0.0000000000000000e+00 0.0000000000000000e+00  1.5683125171365769e-01 -8.6883636338607226e-09 -1.0125170628470793e-08  1.4918246976412705e-01 0.0000000000000000e+00 0.0000000000000000e+00  1.5683125188247740e-01 -8.5604173946800054e-09 -1.0246079826061272e-08  1.4918246976412705e-01 0.0000000000000000e+00 0.0000000000000000e+00  1.5683125204367757e-01 -8.4521721730379607e-09 -1.0263476205386313e-08  1.4918246976412705e-01 0.0000000000000000e+00 0.0000000000000000e+00  1.5683125220889449e-01 -8.3222002519382183e-09 -1.0264890259902747e-08  1.4918246976412705e-01 0.0000000000000000e+00 0.0000000000000000e+00  1.5683125236088896e-01 -8.1803823942390499e-09 -1.0258419648883408e-08  1.4918246976412705e-01 0.0000000000000000e+00 0.0000000000000000e+00  1.5683125249525068e-01 -8.0376685280987488e-09 -1.0252753397254809e-08  1.4918246976412705e-01 0.0000000000000000e+00 0.0000000000000000e+00  1.5683125262252542e-01 -7.9049495942843316e-09 -1.0258679728777264e-08  1.4918246976412705e-01 0.0000000000000000e+00 0.0000000000000000e+00  1.5683125277438076e-01 -7.7922576313061167e-09 -1.0292061208849464e-08  1.4918246976412705e-01 0.0000000000000000e+00 0.0000000000000000e+00  1.5683125301583001e-01 -7.7086925242393724e-09 -1.0381153643746846e-08  1.4918246976412705e-01 0.0000000000000000e+00 0.0000000000000000e+00  1.5683125346453361e-01 -7.6651954188514401e-09 -1.0585654698109019e-08  1.4918246976412705e-01 0.0000000000000000e+00 0.0000000000000000e+00  1.5683125430298248e-01 -7.6871661518140638e-09 -1.1044316162011748e-08  1.4918246976412705e-01 0.0000000000000000e+00 0.0000000000000000e+00  1.5683125565922668e-01 -7.8390088071953408e-09 -1.2046516342912828e-08  1.4918246976412705e-01 0.0000000000000000e+00 0.0000000000000000e+00  1.5683125589924871e-01 -7.7829312167384270e-09 -1.3648658706015041e-08  1.4190675485932572e-01 0.0000000000000000e+00 0.0000000000000000e+00  1.4918246976412705e-01 0.0000000000000000e+00 0.0000000000000000e+00  1.5683121854901691e-01 0.0000000000000000e+00 0.0000000000000000e+00  1.4918246976412705e-01 0.0000000000000000e+00 0.0000000000000000e+00  1.5683121854901691e-01 0.0000000000000000e+00 0.0000000000000000e+00  1.6487216200668497e-01 -9.4404233063726919e-09 -1.1225486407848884e-08  1.5683121854901691e-01 0.0000000000000000e+00 0.0000000000000000e+00  1.6487216215204598e-01 -9.2864278994454336e-09 -1.1271126354246092e-08  1.5683121854901691e-01 0.0000000000000000e+00 0.0000000000000000e+00  1.6487216232772628e-01 -9.1046130234544021e-09 -1.1289526630425533e-08  1.5683121854901691e-01 0.0000000000000000e+00 0.0000000000000000e+00  1.6487216250161102e-01 -8.9029790345747636e-09 -1.1290326613502189e-08  1.5683121854901691e-01 0.0000000000000000e+00 0.0000000000000000e+00  1.6487216265666710e-01 -8.6911011769188393e-09 -1.1282413674672295e-08  1.5683121854901691e-01 0.0000000000000000e+00 0.0000000000000000e+00  1.6487216278952010e-01 -8.4792292056560026e-09 -1.1275282250339341e-08  1.5683121854901691e-01 0.0000000000000000e+00 0.0000000000000000e+00  1.6487216291251705e-01 -8.2782614220598551e-09 -1.1280626478819491e-08  1.5683121854901691e-01 0.0000000000000000e+00 0.0000000000000000e+00  1.6487216306030791e-01 -8.1004798985431882e-09 -1.1315511386809884e-08  1.5683121854901691e-01 0.0000000000000000e+00 0.0000000000000000e+00  1.6487216330288632e-01 -7.9615173318339404e-09 -1.1410190893259938e-08  1.5683121854901691e-01 0.0000000000000000e+00 0.0000000000000000e+00  1.6487216376581870e-01 -7.8856474885124502e-09 -1.1628474924538959e-08  1.5683121854901691e-01 0.0000000000000000e+00 0.0000000000000000e+00  1.6487216464206064e-01 -7.9214250290148043e-09 -1.2118609872422029e-08  1.5683121854901691e-01 0.0000000000000000e+00 0.0000000000000000e+00  1.6487216606145252e-01 -8.1688609824460865e-09 -1.3188033835011881e-08  1.5683121854901691e-01 0.0000000000000000e+00 0.0000000000000000e+00  1.6487216624805642e-01 -8.2978795441799487e-09 -1.4875552341314219e-08  1.5683121854901691e-01 0.0000000000000000e+00 0.0000000000000000e+00  1.6487212707001284e-01 0.0000000000000000e+00 0.0000000000000000e+00  1.6487212707001284e-01 0.0000000000000000e+00 0.0000000000000000e+00  1.7332533868256741e-01 -1.0050441068642308e-08 -1.2396138399230136e-08  1.6487212707001284e-01 0.0000000000000000e+00 0.0000000000000000e+00  1.7332533852962462e-01 -1.0292431018205946e-08 -1.2349626091336368e-08  1.6487212707001284e-01 0.0000000000000000e+00 0.0000000000000000e+00  1.7332533886250290e-01 -9.7847272716635537e-09 -1.2413125520938304e-08  1.6487212707001284e-01 0.0000000000000000e+00 0.0000000000000000e+00  1.7332533903814695e-01 -9.5042073470533752e-09 -1.2411112963485380e-08  1.6487212707001284e-01 0.0000000000000000e+00 0.0000000000000000e+00  1.7332533919408291e-01 -9.2175937407412671e-09 -1.2399758732870357e-08  1.6487212707001284e-01 0.0000000000000000e+00 0.0000000000000000e+00  1.7332533932862551e-01 -8.9336593506630222e-09 -1.2389293917066439e-08  1.6487212707001284e-01 0.0000000000000000e+00 0.0000000000000000e+00  1.7332533945564460e-01 -8.6626885217519992e-09 -1.2392249015282090e-08  1.6487212707001284e-01 0.0000000000000000e+00 0.0000000000000000e+00  1.7332533961136790e-01 -8.4190180031392612e-09 -1.2426892777486005e-08  1.6487212707001284e-01 0.0000000000000000e+00 0.0000000000000000e+00  1.7332533986816881e-01 -8.2251675159107675e-09 -1.2525667277560538e-08  1.6487212707001284e-01 0.0000000000000000e+00 0.0000000000000000e+00  1.7332534035612698e-01 -8.1196368849069194e-09 -1.2757083781615226e-08  1.6487212707001284e-01 0.0000000000000000e+00 0.0000000000000000e+00  1.7332534127564428e-01 -8.1756465714782795e-09 -1.3280248114984575e-08  1.6487212707001284e-01 0.0000000000000000e+00 0.0000000000000000e+00  1.7332534275670702e-01 -8.5314478717197099e-09 -1.4422957351666501e-08  1.6487212707001284e-01 0.0000000000000000e+00 0.0000000000000000e+00  1.7332534287189555e-01 -8.8649207950708025e-09 -1.6204000153504314e-08  1.6487212707001284e-01 0.0000000000000000e+00 0.0000000000000000e+00  1.7332530178673955e-01 0.0000000000000000e+00 0.0000000000000000e+00  1.7332530178673955e-01 0.0000000000000000e+00 0.0000000000000000e+00  1.8221191880811516e-01 -1.0843717985826347e-08 -1.3626549603106236e-08  1.7332530178673955e-01 0.0000000000000000e+00 0.0000000000000000e+00  1.8221191866464428e-01 -1.1184380459757263e-08 -1.3582649829135615e-08  1.7332530178673955e-01 0.0000000000000000e+00 0.0000000000000000e+00  1.8221191897735187e-01 -1.0489149355115240e-08 -1.3639026747031234e-08  1.7332530178673955e-01 0.0000000000000000e+00 0.0000000000000000e+00  1.8221191914456922e-01 -1.0129471494790722e-08 -1.3631561754341382e-08  1.7332530178673955e-01 0.0000000000000000e+00 0.0000000000000000e+00  1.8221191929761851e-01 -9.7709059654398961e-09 -1.3614517587043873e-08  1.7332530178673955e-01 0.0000000000000000e+00 0.0000000000000000e+00  1.8221191943711576e-01 -9.4189688349094073e-09 -1.3598726557512014e-08  1.7332530178673955e-01 0.0000000000000000e+00 0.0000000000000000e+00  1.8221191957798452e-01 -9.0816689880204877e-09 -1.3597423846871270e-08  1.7332530178673955e-01 0.0000000000000000e+00 0.0000000000000000e+00  1.8221191975635792e-01 -8.7740635142260375e-09 -1.3630045269550180e-08  1.7332530178673955e-01 0.0000000000000000e+00 0.0000000000000000e+00  1.8221192004406486e-01 -8.5248595327677344e-09 -1.3731417842912277e-08  1.7332530178673955e-01 0.0000000000000000e+00 0.0000000000000000e+00  1.8221192057189695e-01 -8.3872995517569097e-09 -1.3975427818781827e-08  1.7332530178673955e-01 0.0000000000000000e+00 0.0000000000000000e+00  1.8221192154409663e-01 -8.4619704840671221e-09 -1.4533626634941411e-08  1.7332530178673955e-01 0.0000000000000000e+00 0.0000000000000000e+00  1.8221192308815978e-01 -8.9312990750271593e-09 -1.5756847357268473e-08  1.7332530178673955e-01 0.0000000000000000e+00 0.0000000000000000e+00  1.8221192311335360e-01 -9.4855507951118544e-09 -1.7641213930157218e-08  1.7332530178673955e-01 0.0000000000000000e+00 0.0000000000000000e+00  1.8221188003905092e-01 0.0000000000000000e+00 0.0000000000000000e+00  1.8221188003905089e-01 0.0000000000000000e+00 0.0000000000000000e+00  1.9155412358122714e-01 -1.1660551186235716e-08 -1.4966480290477860e-08  1.8221188003905089e-01 0.0000000000000000e+00 0.0000000000000000e+00  1.9155412347255249e-01 -1.2104875178181490e-08 -1.4929680682003496e-08  1.8221188003905089e-01 0.0000000000000000e+00 0.0000000000000000e+00  1.9155412371877983e-01 -1.1220762516530366e-08 -1.4970812273760736e-08  1.8221188003905089e-01 0.0000000000000000e+00 0.0000000000000000e+00  1.9155412386382098e-01 -1.0791438406457086e-08 -1.4955092290667231e-08  1.8221188003905089e-01 0.0000000000000000e+00 0.0000000000000000e+00  1.9155412400894253e-01 -1.0373390253339463e-08 -1.4930192460893494e-08  1.8221188003905089e-01 0.0000000000000000e+00 0.0000000000000000e+00  1.9155412415747700e-01 -9.9661172893910288e-09 -1.4907278210757969e-08  1.8221188003905089e-01 0.0000000000000000e+00 0.0000000000000000e+00  1.9155412432490759e-01 -9.5727423940896883e-09 -1.4900041210980554e-08  1.8221188003905089e-01 0.0000000000000000e+00 0.0000000000000000e+00  1.9155412454569193e-01 -9.2065795070430551e-09 -1.4928959338198466e-08  1.8221188003905089e-01 0.0000000000000000e+00 0.0000000000000000e+00  1.9155412488809254e-01 -8.9006008916831290e-09 -1.5031400944584169e-08  1.8221188003905089e-01 0.0000000000000000e+00 0.0000000000000000e+00  1.9155412547904774e-01 -8.7225854012313096e-09 -1.5287365163885321e-08  1.8221188003905089e-01 0.0000000000000000e+00 0.0000000000000000e+00  1.9155412652126316e-01 -8.8040710255789575e-09 -1.5882730299197545e-08  1.8221188003905089e-01 0.0000000000000000e+00 0.0000000000000000e+00  1.9155412813453346e-01 -9.3810314255384088e-09 -1.7194663642054367e-08  1.8221188003905089e-01 0.0000000000000000e+00 0.0000000000000000e+00  1.9155412804998573e-01 -1.0165431170665615e-08 -1.9194058669659396e-08  1.8221188003905089e-01 0.0000000000000000e+00 0.0000000000000000e+00  1.9155408290138964e-01 0.0000000000000000e+00 0.0000000000000000e+00  1.9155408290138964e-01 0.0000000000000000e+00 0.0000000000000000e+00  2.0137531333067396e-01 -1.2501824093461356e-08 -1.6417707787976375e-08  1.9155408290138964e-01 0.0000000000000000e+00 0.0000000000000000e+00  2.0137531329218586e-01 -1.3043559689566178e-08 -1.6393351632081432e-08  1.9155408290138964e-01 0.0000000000000000e+00 0.0000000000000000e+00  2.0137531340977438e-01 -1.1993582719880152e-08 -1.6410144714821397e-08  1.9155408290138964e-01 0.0000000000000000e+00 0.0000000000000000e+00  2.0137531351644111e-01 -1.1517022545557596e-08 -1.6383733391699432e-08  1.9155408290138964e-01 0.0000000000000000e+00 0.0000000000000000e+00  2.0137531364847358e-01 -1.1063626940856420e-08 -1.6349415601633748e-08  1.9155408290138964e-01 0.0000000000000000e+00 0.0000000000000000e+00  2.0137531381187557e-01 -1.0623707795174788e-08 -1.6318223849526148e-08  1.9155408290138964e-01 0.0000000000000000e+00 0.0000000000000000e+00  2.0137531402247233e-01 -1.0192431896705214e-08 -1.6303899025312285e-08  1.9155408290138964e-01 0.0000000000000000e+00 0.0000000000000000e+00  2.0137531431227754e-01 -9.7778875755477343e-09 -1.6327704269788332e-08  1.9155408290138964e-01 0.0000000000000000e+00 0.0000000000000000e+00  2.0137531474364087e-01 -9.4136361439679787e-09 -1.6429611794150504e-08  1.9155408290138964e-01 0.0000000000000000e+00 0.0000000000000000e+00  2.0137531543449513e-01 -9.1798243505873640e-09 -1.6696485226166871e-08  1.9155408290138964e-01 0.0000000000000000e+00 0.0000000000000000e+00  2.0137531657768282e-01 -9.2421148846633546e-09 -1.7330749818775965e-08  1.9155408290138964e-01 0.0000000000000000e+00 0.0000000000000000e+00  2.0137531827500305e-01 -9.9030927143614924e-09 -1.8740154845629163e-08  1.9155408290138964e-01 0.0000000000000000e+00 0.0000000000000000e+00  2.0137531805950262e-01 -1.0913392120560420e-08 -2.0868475555380883e-08  1.9155408290138964e-01 0.0000000000000000e+00 0.0000000000000000e+00  2.0137527074704767e-01 0.0000000000000000e+00 0.0000000000000000e+00  2.0137527074704767e-01 0.0000000000000000e+00 0.0000000000000000e+00  2.1170004606650555e-01 -1.3384193680560733e-08 -1.7977551866279560e-08  2.0137527074704767e-01 0.0000000000000000e+00 0.0000000000000000e+00  2.1170004614165935e-01 -1.3997480106646807e-08 -1.7971115536996359e-08  2.0137527074704767e-01 0.0000000000000000e+00 0.0000000000000000e+00  2.1170004605841042e-01 -1.2842270700491202e-08 -1.7955136112414449e-08  2.0137527074704767e-01 0.0000000000000000e+00 0.0000000000000000e+00  2.1170004611149665e-01 -1.2355754867458766e-08 -1.7916809380547637e-08  2.0137527074704767e-01 0.0000000000000000e+00 0.0000000000000000e+00  2.1170004622714272e-01 -1.1903215298346168e-08 -1.7872808015697836e-08  2.0137527074704767e-01 0.0000000000000000e+00 0.0000000000000000e+00  2.1170004641334678e-01 -1.1463563701696143e-08 -1.7833357585786281e-08  2.0137527074704767e-01 0.0000000000000000e+00 0.0000000000000000e+00  2.1170004668691625e-01 -1.1021535233082568e-08 -1.7811684869145443e-08  2.0137527074704767e-01 0.0000000000000000e+00 0.0000000000000000e+00  2.1170004707882534e-01 -1.0575877595851334e-08 -1.7829424033527711e-08  2.0137527074704767e-01 0.0000000000000000e+00 0.0000000000000000e+00  2.1170004764579720e-01 -1.0154