<?xml version="1.0"?>
<VTKFile type="UnstructuredGrid"  version="0.1"  >
<UnstructuredGrid>
<Piece  NumberOfPoints="209" NumberOfCells="721">
<Points>
<DataArray  type="Float64"  NumberOfComponents="3"  format="ascii">0 0.3 0.5  0 0.4 0.5  0.1 0.4 0.5  0.1 0.4 0.6  0 0.4 0.6  0.1 0.5 0.5  0.1 0.5 0.6  0 0.5 0.5  0 0.5 0.6  0.2 0.5 0.5  0.2 0.5 0.6  0.1 0.6 0.5  0.1 0.6 0.6  0 0.6 0.5  0 0.6 0.6  0.2 0.6 0.5  0.2 0.6 0.6  0.3 0.5 0.5  0.3 0.6 0.5  0.3 0.6 0.6  0.3 0.5 0.6  0.4 0.5 0.5  0.4 0.6 0.5  0.4 0.6 0.6  0.4 0.5 0.6  0.5 0.5 0.5  0.5 0.6 0.5  0.5 0.6 0.6  0.5 0.5 0.6  0.1 0.7 0.5  0.1 0.7 0.6  0 0.7 0.5  0 0.7 0.6  0.2 0.7 0.5  0.2 0.7 0.6  0.3 0.7 0.5  0.3 0.7 0.6  0.4 0.7 0.5  0.4 0.7 0.6  0.5 0.7 0.5  0.5 0.7 0.6  0.1 0.8 0.5  0.1 0.8 0.6  0 0.8 0.5  0 0.8 0.6  0.2 0.8 0.5  0.2 0.8 0.6  0.3 0.8 0.5  0.3 0.8 0.6  0.4 0.8 0.5  0.4 0.8 0.6  0.5 0.8 0.5  0.5 0.8 0.6  0.1 0.9 0.6  0 0.9 0.6  0.2 0.9 0.6  0.3 0.9 0.6  0.4 0.9 0.6  0.5 0.9 0.6  0.1 0.5 0.7  0 0.5 0.7  0.2 0.5 0.7  0.1 0.6 0.7  0 0.6 0.7  0.2 0.6 0.7  0.3 0.6 0.7  0.3 0.5 0.7  0.4 0.6 0.7  0.4 0.5 0.7  0.5 0.6 0.7  0.5 0.5 0.7  0.1 0.7 0.7  0 0.7 0.7  0.2 0.7 0.7  0.3 0.7 0.7  0.4 0.7 0.7  0.5 0.7 0.7  0.1 0.8 0.7  0 0.8 0.7  0.2 0.8 0.7  0.3 0.8 0.7  0.4 0.8 0.7  0.5 0.8 0.7  0.1 0.9 0.7  0 0.9 0.7  0.2 0.9 0.7  0.3 0.9 0.7  0.4 0.9 0.7  0.5 0.9 0.7  0.1 1 0.6  0.1 1 0.7  0 1 0.6  0 1 0.7  0.2 1 0.6  0.2 1 0.7  0.3 1 0.6  0.3 1 0.7  0.4 1 0.6  0.4 1 0.7  0.5 1 0.6  0.5 1 0.7  0.1 0.6 0.8  0.1 0.5 0.8  0 0.5 0.8  0 0.6 0.8  0.2 0.6 0.8  0.2 0.5 0.8  0.3 0.6 0.8  0.3 0.5 0.8  0.4 0.6 0.8  0.4 0.5 0.8  0.5 0.6 0.8  0.5 0.5 0.8  0.1 0.7 0.8  0 0.7 0.8  0.2 0.7 0.8  0.3 0.7 0.8  0.4 0.7 0.8  0.5 0.7 0.8  0.1 0.8 0.8  0 0.8 0.8  0.2 0.8 0.8  0.3 0.8 0.8  0.4 0.8 0.8  0.5 0.8 0.8  0.1 0.9 0.8  0 0.9 0.8  0.2 0.9 0.8  0.3 0.9 0.8  0.4 0.9 0.8  0.5 0.9 0.8  0.1 1 0.8  0 1 0.8  0.2 1 0.8  0.3 1 0.8  0.4 1 0.8  0.5 1 0.8  0.1 0.6 0.9  0.1 0.5 0.9  0 0.5 0.9  0 0.6 0.9  0.2 0.6 0.9  0.2 0.5 0.9  0.3 0.6 0.9  0.3 0.5 0.9  0.4 0.6 0.9  0.4 0.5 0.9  0.5 0.6 0.9  0.5 0.5 0.9  0.1 0.7 0.9  0 0.7 0.9  0.2 0.7 0.9  0.3 0.7 0.9  0.4 0.7 0.9  0.5 0.7 0.9  0.1 0.8 0.9  0 0.8 0.9  0.2 0.8 0.9  0.3 0.8 0.9  0.4 0.8 0.9  0.5 0.8 0.9  0.1 0.9 0.9  0 0.9 0.9  0.2 0.9 0.9  0.3 0.9 0.9  0.4 0.9 0.9  0.5 0.9 0.9  0.1 1 0.9  0 1 0.9  0.2 1 0.9  0.3 1 0.9  0.4 1 0.9  0.5 1 0.9  0.1 0.6 1  0.1 0.5 1  0 0.5 1  0 0.6 1  0.2 0.6 1  0.2 0.5 1  0.3 0.6 1  0.3 0.5 1  0.4 0.6 1  0.4 0.5 1  0.5 0.6 1  0.5 0.5 1  0.1 0.7 1  0 0.7 1  0.2 0.7 1  0.3 0.7 1  0.4 0.7 1  0.5 0.7 1  0.1 0.8 1  0 0.8 1  0.2 0.8 1  0.3 0.8 1  0.4 0.8 1  0.5 0.8 1  0.1 0.9 1  0 0.9 1  0.2 0.9 1  0.3 0.9 1  0.4 0.9 1  0.5 0.9 1  0.1 1 1  0 1 1  0.2 1 1  0.3 1 1  0.4 1 1  0.5 1 1  </DataArray>
</Points>
<Cells>
<DataArray  type="UInt32"  Name="connectivity"  format="ascii">0 1 2 3  0 1 4 3  1 2 5 6  1 2 3 6  1 4 3 6  1 7 5 6  1 4 8 6  1 7 8 6  2 5 9 10  2 3 6 10  2 5 6 10  7 5 11 12  7 5 6 12  7 8 6 12  7 13 11 12  7 8 14 12  7 13 14 12  5 9 15 16  5 9 10 16  5 6 10 16  5 11 15 16  5 6 12 16  5 11 12 16  9 17 18 19  9 17 20 19  9 10 20 19  9 15 18 19  9 10 16 19  9 15 16 19  17 21 22 23  17 21 24 23  17 20 24 23  17 18 22 23  17 20 19 23  17 18 19 23  21 25 26 27  21 25 28 27  21 24 28 27  21 22 26 27  21 24 23 27  21 22 23 27  13 11 29 30  13 11 12 30  13 14 12 30  13 31 29 30  13 14 32 30  13 31 32 30  11 15 33 34  11 15 16 34  11 12 16 34  11 29 33 34  11 12 30 34  11 29 30 34  15 18 35 36  15 18 19 36  15 16 19 36  15 33 35 36  15 16 34 36  15 33 34 36  18 22 37 38  18 22 23 38  18 19 23 38  18 35 37 38  18 19 36 38  18 35 36 38  22 26 39 40  22 26 27 40  22 23 27 40  22 37 39 40  22 23 38 40  22 37 38 40  31 29 41 42  31 29 30 42  31 32 30 42  31 43 41 42  31 32 44 42  31 43 44 42  29 33 45 46  29 33 34 46  29 30 34 46  29 41 45 46  29 30 42 46  29 41 42 46  33 35 47 48  33 35 36 48  33 34 36 48  33 45 47 48  33 34 46 48  33 45 46 48  35 37 49 50  35 37 38 50  35 36 38 50  35 47 49 50  35 36 48 50  35 47 48 50  37 39 51 52  37 39 40 52  37 38 40 52  37 49 51 52  37 38 50 52  37 49 50 52  43 41 42 53  43 44 42 53  43 44 54 53  41 45 46 55  41 42 46 55  41 42 53 55  45 47 48 56  45 46 48 56  45 46 55 56  47 49 50 57  47 48 50 57  47 48 56 57  49 51 52 58  49 50 52 58  49 50 57 58  4 3 6 59  4 8 6 59  4 8 60 59  3 6 10 61  3 6 59 61  8 6 12 62  8 6 59 62  8 60 59 62  8 14 12 62  8 60 63 62  8 14 63 62  6 10 16 64  6 10 61 64  6 59 61 64  6 12 16 64  6 59 62 64  6 12 62 64  10 20 19 65  10 20 66 65  10 61 66 65  10 16 19 65  10 61 64 65  10 16 64 65  20 24 23 67  20 24 68 67  20 66 68 67  20 19 23 67  20 66 65 67  20 19 65 67  24 28 27 69  24 28 70 69  24 68 70 69  24 23 27 69  24 68 67 69  24 23 67 69  14 12 30 71  14 12 62 71  14 63 62 71  14 32 30 71  14 63 72 71  14 32 72 71  12 16 34 73  12 16 64 73  12 62 64 73  12 30 34 73  12 62 71 73  12 30 71 73  16 19 36 74  16 19 65 74  16 64 65 74  16 34 36 74  16 64 73 74  16 34 73 74  19 23 38 75  19 23 67 75  19 65 67 75  19 36 38 75  19 65 74 75  19 36 74 75  23 27 40 76  23 27 69 76  23 67 69 76  23 38 40 76  23 67 75 76  23 38 75 76  32 30 42 77  32 30 71 77  32 72 71 77  32 44 42 77  32 72 78 77  32 44 78 77  30 34 46 79  30 34 73 79  30 71 73 79  30 42 46 79  30 71 77 79  30 42 77 79  34 36 48 80  34 36 74 80  34 73 74 80  34 46 48 80  34 73 79 80  34 46 79 80  36 38 50 81  36 38 75 81  36 74 75 81  36 48 50 81  36 74 80 81  36 48 80 81  38 40 52 82  38 40 76 82  38 75 76 82  38 50 52 82  38 75 81 82  38 50 81 82  44 42 53 83  44 42 77 83  44 78 77 83  44 54 53 83  44 78 84 83  44 54 84 83  42 46 55 85  42 46 79 85  42 77 79 85  42 53 55 85  42 77 83 85  42 53 83 85  46 48 56 86  46 48 80 86  46 79 80 86  46 55 56 86  46 79 85 86  46 55 85 86  48 50 57 87  48 50 81 87  48 80 81 87  48 56 57 87  48 80 86 87  48 56 86 87  50 52 58 88  50 52 82 88  50 81 82 88  50 57 58 88  50 81 87 88  50 57 87 88  54 53 89 90  54 53 83 90  54 84 83 90  54 91 89 90  54 84 92 90  54 91 92 90  53 55 93 94  53 55 85 94  53 83 85 94  53 89 93 94  53 83 90 94  53 89 90 94  55 56 95 96  55 56 86 96  55 85 86 96  55 93 95 96  55 85 94 96  55 93 94 96  56 57 97 98  56 57 87 98  56 86 87 98  56 95 97 98  56 86 96 98  56 95 96 98  57 58 99 100  57 58 88 100  57 87 88 100  57 97 99 100  57 87 98 100  57 97 98 100  60 59 62 101  60 59 102 101  60 103 102 101  60 63 62 101  60 103 104 101  60 63 104 101  59 61 64 105  59 61 106 105  59 102 106 105  59 62 64 105  59 102 101 105  59 62 101 105  61 66 65 107  61 66 108 107  61 106 108 107  61 64 65 107  61 106 105 107  61 64 105 107  66 68 67 109  66 68 110 109  66 108 110 109  66 65 67 109  66 108 107 109  66 65 107 109  68 70 69 111  68 70 112 111  68 110 112 111  68 67 69 111  68 110 109 111  68 67 109 111  63 62 71 113  63 62 101 113  63 104 101 113  63 72 71 113  63 104 114 113  63 72 114 113  62 64 73 115  62 64 105 115  62 101 105 115  62 71 73 115  62 101 113 115  62 71 113 115  64 65 74 116  64 65 107 116  64 105 107 116  64 73 74 116  64 105 115 116  64 73 115 116  65 67 75 117  65 67 109 117  65 107 109 117  65 74 75 117  65 107 116 117  65 74 116 117  67 69 76 118  67 69 111 118  67 109 111 118  67 75 76 118  67 109 117 118  67 75 117 118  72 71 77 119  72 71 113 119  72 114 113 119  72 78 77 119  72 114 120 119  72 78 120 119  71 73 79 121  71 73 115 121  71 113 115 121  71 77 79 121  71 113 119 121  71 77 119 121  73 74 80 122  73 74 116 122  73 115 116 122  73 79 80 122  73 115 121 122  73 79 121 122  74 75 81 123  74 75 117 123  74 116 117 123  74 80 81 123  74 116 122 123  74 80 122 123  75 76 82 124  75 76 118 124  75 117 118 124  75 81 82 124  75 117 123 124  75 81 123 124  78 77 83 125  78 77 119 125  78 120 119 125  78 84 83 125  78 120 126 125  78 84 126 125  77 79 85 127  77 79 121 127  77 119 121 127  77 83 85 127  77 119 125 127  77 83 125 127  79 80 86 128  79 80 122 128  79 121 122 128  79 85 86 128  79 121 127 128  79 85 127 128  80 81 87 129  80 81 123 129  80 122 123 129  80 86 87 129  80 122 128 129  80 86 128 129  81 82 88 130  81 82 124 130  81 123 124 130  81 87 88 130  81 123 129 130  81 87 129 130  84 83 90 131  84 83 125 131  84 126 125 131  84 92 90 131  84 126 132 131  84 92 132 131  83 85 94 133  83 85 127 133  83 125 127 133  83 90 94 133  83 125 131 133  83 90 131 133  85 86 96 134  85 86 128 134  85 127 128 134  85 94 96 134  85 127 133 134  85 94 133 134  86 87 98 135  86 87 129 135  86 128 129 135  86 96 98 135  86 128 134 135  86 96 134 135  87 88 100 136  87 88 130 136  87 129 130 136  87 98 100 136  87 129 135 136  87 98 135 136  103 102 101 137  103 102 138 137  103 139 138 137  103 104 101 137  103 139 140 137  103 104 140 137  102 106 105 141  102 106 142 141  102 138 142 141  102 101 105 141  102 138 137 141  102 101 137 141  106 108 107 143  106 108 144 143  106 142 144 143  106 105 107 143  106 142 141 143  106 105 141 143  108 110 109 145  108 110 146 145  108 144 146 145  108 107 109 145  108 144 143 145  108 107 143 145  110 112 111 147  110 112 148 147  110 146 148 147  110 109 111 147  110 146 145 147  110 109 145 147  104 101 113 149  104 101 137 149  104 140 137 149  104 114 113 149  104 140 150 149  104 114 150 149  101 105 115 151  101 105 141 151  101 137 141 151  101 113 115 151  101 137 149 151  101 113 149 151  105 107 116 152  105 107 143 152  105 141 143 152  105 115 116 152  105 141 151 152  105 115 151 152  107 109 117 153  107 109 145 153  107 143 145 153  107 116 117 153  107 143 152 153  107 116 152 153  109 111 118 154  109 111 147 154  109 145 147 154  109 117 118 154  109 145 153 154  109 117 153 154  114 113 119 155  114 113 149 155  114 150 149 155  114 120 119 155  114 150 156 155  114 120 156 155  113 115 121 157  113 115 151 157  113 149 151 157  113 119 121 157  113 149 155 157  113 119 155 157  115 116 122 158  115 116 152 158  115 151 152 158  115 121 122 158  115 151 157 158  115 121 157 158  116 117 123 159  116 117 153 159  116 152 153 159  116 122 123 159  116 152 158 159  116 122 158 159  117 118 124 160  117 118 154 160  117 153 154 160  117 123 124 160  117 153 159 160  117 123 159 160  120 119 125 161  120 119 155 161  120 156 155 161  120 126 125 161  120 156 162 161  120 126 162 161  119 121 127 163  119 121 157 163  119 155 157 163  119 125 127 163  119 155 161 163  119 125 161 163  121 122 128 164  121 122 158 164  121 157 158 164  121 127 128 164  121 157 163 164  121 127 163 164  122 123 129 165  122 123 159 165  122 158 159 165  122 128 129 165  122 158 164 165  122 128 164 165  123 124 130 166  123 124 160 166  123 159 160 166  123 129 130 166  123 159 165 166  123 129 165 166  126 125 131 167  126 125 161 167  126 162 161 167  126 132 131 167  126 162 168 167  126 132 168 167  125 127 133 169  125 127 163 169  125 161 163 169  125 131 133 169  125 161 167 169  125 131 167 169  127 128 134 170  127 128 164 170  127 163 164 170  127 133 134 170  127 163 169 170  127 133 169 170  128 129 135 171  128 129 165 171  128 164 165 171  128 134 135 171  128 164 170 171  128 134 170 171  129 130 136 172  129 130 166 172  129 165 166 172  129 135 136 172  129 165 171 172  129 135 171 172  139 138 137 173  139 138 174 173  139 175 174 173  139 140 137 173  139 175 176 173  139 140 176 173  138 142 141 177  138 142 178 177  138 174 178 177  138 137 141 177  138 174 173 177  138 137 173 177  142 144 143 179  142 144 180 179  142 178 180 179  142 141 143 179  142 178 177 179  142 141 177 179  144 146 145 181  144 146 182 181  144 180 182 181  144 143 145 181  144 180 179 181  144 143 179 181  146 148 147 183  146 148 184 183  146 182 184 183  146 145 147 183  146 182 181 183  146 145 181 183  140 137 149 185  140 137 173 185  140 176 173 185  140 150 149 185  140 176 186 185  140 150 186 185  137 141 151 187  137 141 177 187  137 173 177 187  137 149 151 187  137 173 185 187  137 149 185 187  141 143 152 188  141 143 179 188  141 177 179 188  141 151 152 188  141 177 187 188  141 151 187 188  143 145 153 189  143 145 181 189  143 179 181 189  143 152 153 189  143 179 188 189  143 152 188 189  145 147 154 190  145 147 183 190  145 181 183 190  145 153 154 190  145 181 189 190  145 153 189 190  150 149 155 191  150 149 185 191  150 186 185 191  150 156 155 191  150 186 192 191  150 156 192 191  149 151 157 193  149 151 187 193  149 185 187 193  149 155 157 193  149 185 191 193  149 155 191 193  151 152 158 194  151 152 188 194  151 187 188 194  151 157 158 194  151 187 193 194  151 157 193 194  152 153 159 195  152 153 189 195  152 188 189 195  152 158 159 195  152 188 194 195  152 158 194 195  153 154 160 196  153 154 190 196  153 189 190 196  153 159 160 196  153 189 195 196  153 159 195 196  156 155 161 197  156 155 191 197  156 192 191 197  156 162 161 197  156 192 198 197  156 162 198 197  155 157 163 199  155 157 193 199  155 191 193 199  155 161 163 199  155 191 197 199  155 161 197 199  157 158 164 200  157 158 194 200  157 193 194 200  157 163 164 200  157 193 199 200  157 163 199 200  158 159 165 201  158 159 195 201  158 194 195 201  158 164 165 201  158 194 200 201  158 164 200 201  159 160 166 202  159 160 196 202  159 195 196 202  159 165 166 202  159 195 201 202  159 165 201 202  162 161 167 203  162 161 197 203  162 198 197 203  162 168 167 203  162 198 204 203  162 168 204 203  161 163 169 205  161 163 199 205  161 197 199 205  161 167 169 205  161 197 203 205  161 167 203 205  163 164 170 206  163 164 200 206  163 199 200 206  163 169 170 206  163 199 205 206  163 169 205 206  164 165 171 207  164 165 201 207  164 200 201 207  164 170 171 207  164 200 206 207  164 170 206 207  165 166 172 208  165 166 202 208  165 201 202 208  165 171 172 208  165 201 207 208  165 171 207 208  </DataArray>
<DataArray  type="UInt32"  Name="offsets"  format="ascii">4 8 12 16 20 24 28 32 36 40 44 48 52 56 60 64 68 72 76 80 84 88 92 96 100 104 108 112 116 120 124 128 132 136 140 144 148 152 156 160 164 168 172 176 180 184 188 192 196 200 204 208 212 216 220 224 228 232 236 240 244 248 252 256 260 264 268 272 276 280 284 288 292 296 300 304 308 312 316 320 324 328 332 336 340 344 348 352 356 360 364 368 372 376 380 384 388 392 396 400 404 408 412 416 420 424 428 432 436 440 444 448 452 456 460 464 468 472 476 480 484 488 492 496 500 504 508 512 516 520 524 528 532 536 540 544 548 552 556 560 564 568 572 576 580 584 588 592 596 600 604 608 612 616 620 624 628 632 636 640 644 648 652 656 660 664 668 672 676 680 684 688 692 696 700 704 708 712 716 720 724 728 732 736 740 744 748 752 756 760 764 768 772 776 780 784 788 792 796 800 804 808 812 816 820 824 828 832 836 840 844 848 852 856 860 864 868 872 876 880 884 888 892 896 900 904 908 912 916 920 924 928 932 936 940 944 948 952 956 960 964 968 972 976 980 984 988 992 996 1000 1004 1008 1012 1016 1020 1024 1028 1032 1036 1040 1044 1048 1052 1056 1060 1064 1068 1072 1076 1080 1084 1088 1092 1096 1100 1104 1108 1112 1116 1120 1124 1128 1132 1136 1140 1144 1148 1152 1156 1160 1164 1168 1172 1176 1180 1184 1188 1192 1196 1200 1204 1208 1212 1216 1220 1224 1228 1232 1236 1240 1244 1248 1252 1256 1260 1264 1268 1272 1276 1280 1284 1288 1292 1296 1300 1304 1308 1312 1316 1320 1324 1328 1332 1336 1340 1344 1348 1352 1356 1360 1364 1368 1372 1376 1380 1384 1388 1392 1396 1400 1404 1408 1412 1416 1420 1424 1428 1432 1436 1440 1444 1448 1452 1456 1460 1464 1468 1472 1476 1480 1484 1488 1492 1496 1500 1504 1508 1512 1516 1520 1524 1528 1532 1536 1540 1544 1548 1552 1556 1560 1564 1568 1572 1576 1580 1584 1588 1592 1596 1600 1604 1608 1612 1616 1620 1624 1628 1632 1636 1640 1644 1648 1652 1656 1660 1664 1668 1672 1676 1680 1684 1688 1692 1696 1700 1704 1708 1712 1716 1720 1724 1728 1732 1736 1740 1744 1748 1752 1756 1760 1764 1768 1772 1776 1780 1784 1788 1792 1796 1800 1804 1808 1812 1816 1820 1824 1828 1832 1836 1840 1844 1848 1852 1856 1860 1864 1868 1872 1876 1880 1884 1888 1892 1896 1900 1904 1908 1912 1916 1920 1924 1928 1932 1936 1940 1944 1948 1952 1956 1960 1964 1968 1972 1976 1980 1984 1988 1992 1996 2000 2004 2008 2012 2016 2020 2024 2028 2032 2036 2040 2044 2048 2052 2056 2060 2064 2068 2072 2076 2080 2084 2088 2092 2096 2100 2104 2108 2112 2116 2120 2124 2128 2132 2136 2140 2144 2148 2152 2156 2160 2164 2168 2172 2176 2180 2184 2188 2192 2196 2200 2204 2208 2212 2216 2220 2224 2228 2232 2236 2240 2244 2248 2252 2256 2260 2264 2268 2272 2276 2280 2284 2288 2292 2296 2300 2304 2308 2312 2316 2320 2324 2328 2332 2336 2340 2344 2348 2352 2356 2360 2364 2368 2372 2376 2380 2384 2388 2392 2396 2400 2404 2408 2412 2416 2420 2424 2428 2432 2436 2440 2444 2448 2452 2456 2460 2464 2468 2472 2476 2480 2484 2488 2492 2496 2500 2504 2508 2512 2516 2520 2524 2528 2532 2536 2540 2544 2548 2552 2556 2560 2564 2568 2572 2576 2580 2584 2588 2592 2596 2600 2604 2608 2612 2616 2620 2624 2628 2632 2636 2640 2644 2648 2652 2656 2660 2664 2668 2672 2676 2680 2684 2688 2692 2696 2700 2704 2708 2712 2716 2720 2724 2728 2732 2736 2740 2744 2748 2752 2756 2760 2764 2768 2772 2776 2780 2784 2788 2792 2796 2800 2804 2808 2812 2816 2820 2824 2828 2832 2836 2840 2844 2848 2852 2856 2860 2864 2868 2872 2876 2880 2884 </DataArray>
<DataArray  type="UInt8"  Name="types"  format="ascii">10 10 10 10 10 10 10 10 10 10 10 10 10 10 10 10 10 10 10 10 10 10 10 10 10 10 10 10 10 10 10 10 10 10 10 10 10 10 10 10 10 10 10 10 10 10 10 10 10 10 10 10 10 10 10 10 10 10 10 10 10 10 10 10 10 10 10 10 10 10 10 10 10 10 10 10 10 10 10 10 10 10 10 10 10 10 10 10 10 10 10 10 10 10 10 10 10 10 10 10 10 10 10 10 10 10 10 10 10 10 10 10 10 10 10 10 10 10 10 10 10 10 10 10 10 10 10 10 10 10 10 10 10 10 10 10 10 10 10 10 10 10 10 10 10 10 10 10 10 10 10 10 10 10 10 10 10 10 10 10 10 10 10 10 10 10 10 10 10 10 10 10 10 10 10 10 10 10 10 10 10 10 10 10 10 10 10 10 10 10 10 10 10 10 10 10 10 10 10 10 10 10 10 10 10 10 10 10 10 10 10 10 10 10 10 10 10 10 10 10 10 10 10 10 10 10 10 10 10 10 10 10 10 10 10 10 10 10 10 10 10 10 10 10 10 10 10 10 10 10 10 10 10 10 10 10 10 10 10 10 10 10 10 10 10 10 10 10 10 10 10 10 10 10 10 10 10 10 10 10 10 10 10 10 10 10 10 10 10 10 10 10 10 10 10 10 10 10 10 10 10 10 10 10 10 10 10 10 10 10 10 10 10 10 10 10 10 10 10 10 10 10 10 10 10 10 10 10 10 10 10 10 10 10 10 10 10 10 10 10 10 10 10 10 10 10 10 10 10 10 10 10 10 10 10 10 10 10 10 10 10 10 10 10 10 10 10 10 10 10 10 10 10 10 10 10 10 10 10 10 10 10 10 10 10 10 10 10 10 10 10 10 10 10 10 10 10 10 10 10 10 10 10 10 10 10 10 10 10 10 10 10 10 10 10 10 10 10 10 10 10 10 10 10 10 10 10 10 10 10 10 10 10 10 10 10 10 10 10 10 10 10 10 10 10 10 10 10 10 10 10 10 10 10 10 10 10 10 10 10 10 10 10 10 10 10 10 10 10 10 10 10 10 10 10 10 10 10 10 10 10 10 10 10 10 10 10 10 10 10 10 10 10 10 10 10 10 10 10 10 10 10 10 10 10 10 10 10 10 10 10 10 10 10 10 10 10 10 10 10 10 10 10 10 10 10 10 10 10 10 10 10 10 10 10 10 10 10 10 10 10 10 10 10 10 10 10 10 10 10 10 10 10 10 10 10 10 10 10 10 10 10 10 10 10 10 10 10 10 10 10 10 10 10 10 10 10 10 10 10 10 10 10 10 10 10 10 10 10 10 10 10 10 10 10 10 10 10 10 10 10 10 10 10 10 10 10 10 10 10 10 10 10 10 10 10 10 10 10 10 10 10 10 10 10 10 10 10 10 10 10 10 10 10 10 10 10 10 10 10 10 10 10 10 10 10 10 10 10 10 10 10 10 10 10 10 10 10 10 10 10 10 10 10 10 10 10 10 10 10 10 10 10 10 10 10 10 10 10 10 10 10 10 10 10 10 10 10 10 10 10 10 10 10 10 10 10 10 10 10 10 10 10 10 10 10 10 10 10 10 10 10 10 10 10 10 10 10 10 10 10 </DataArray>
</Cells>
<PointData  Vectors="f_8-0"> 