<?xml version="1.0"?>
<VTKFile type="UnstructuredGrid"  version="0.1"  >
<UnstructuredGrid>
<Piece  NumberOfPoints="1396" NumberOfCells="6111">
<Points>
<DataArray  type="Float64"  NumberOfComponents="3"  format="ascii">0 0 0.65  0.05 0 0.65  0.05 0.05 0.65  0.05 0.05 0.7  0.05 0 0.7  0 0 0.7  0 0.05 0.65  0 0.05 0.7  0.1 0 0.65  0.1 0.05 0.65  0.1 0.05 0.7  0.1 0 0.7  0.15 0 0.65  0.15 0.05 0.65  0.15 0.05 0.7  0.15 0 0.7  0.2 0 0.65  0.2 0.05 0.65  0.2 0.05 0.7  0.2 0 0.7  0.25 0 0.65  0.25 0.05 0.65  0.25 0.05 0.7  0.25 0 0.7  0.3 0 0.65  0.3 0.05 0.65  0.3 0.05 0.7  0.3 0 0.7  0.35 0 0.65  0.35 0.05 0.65  0.35 0.05 0.7  0.35 0 0.7  0.4 0 0.65  0.4 0.05 0.65  0.4 0.05 0.7  0.4 0 0.7  0.45 0 0.7  0.45 0.05 0.7  0.05 0.1 0.65  0.05 0.1 0.7  0 0.1 0.65  0 0.1 0.7  0.1 0.1 0.65  0.1 0.1 0.7  0.15 0.1 0.65  0.15 0.1 0.7  0.2 0.1 0.65  0.2 0.1 0.7  0.25 0.1 0.65  0.25 0.1 0.7  0.3 0.1 0.65  0.3 0.1 0.7  0.35 0.1 0.65  0.35 0.1 0.7  0.4 0.1 0.65  0.4 0.1 0.7  0.45 0.1 0.7  0.05 0.15 0.65  0.05 0.15 0.7  0 0.15 0.65  0 0.15 0.7  0.1 0.15 0.65  0.1 0.15 0.7  0.15 0.15 0.65  0.15 0.15 0.7  0.2 0.15 0.65  0.2 0.15 0.7  0.25 0.15 0.65  0.25 0.15 0.7  0.3 0.15 0.65  0.3 0.15 0.7  0.35 0.15 0.65  0.35 0.15 0.7  0.4 0.15 0.65  0.4 0.15 0.7  0.45 0.15 0.7  0.45 0.15 0.65  0.05 0.2 0.65  0.05 0.2 0.7  0 0.2 0.65  0 0.2 0.7  0.1 0.2 0.65  0.1 0.2 0.7  0.15 0.2 0.65  0.15 0.2 0.7  0.2 0.2 0.65  0.2 0.2 0.7  0.25 0.2 0.65  0.25 0.2 0.7  0.3 0.2 0.65  0.3 0.2 0.7  0.35 0.2 0.65  0.35 0.2 0.7  0.4 0.2 0.65  0.4 0.2 0.7  0.45 0.2 0.65  0.45 0.2 0.7  0.5 0.2 0.7  0.05 0.25 0.65  0.05 0.25 0.7  0 0.25 0.65  0 0.25 0.7  0.1 0.25 0.65  0.1 0.25 0.7  0.15 0.25 0.65  0.15 0.25 0.7  0.2 0.25 0.65  0.2 0.25 0.7  0.25 0.25 0.65  0.25 0.25 0.7  0.3 0.25 0.7  0.35 0.25 0.7  0.4 0.25 0.7  0.45 0.25 0.65  0.45 0.25 0.7  0.4 0.25 0.65  0.5 0.25 0.7  0.05 0.3 0.65  0.05 0.3 0.7  0 0.3 0.65  0 0.3 0.7  0.1 0.3 0.65  0.1 0.3 0.7  0.15 0.3 0.65  0.15 0.3 0.7  0.2 0.3 0.7  0.25 0.3 0.7  0.3 0.3 0.7  0.45 0.3 0.7  0.5 0.3 0.7  0.05 0.35 0.65  0.05 0.35 0.7  0 0.35 0.65  0 0.35 0.7  0.1 0.35 0.65  0.1 0.35 0.7  0.15 0.35 0.65  0.15 0.35 0.7  0.2 0.35 0.7  0.05 0.4 0.65  0.05 0.4 0.7  0 0.4 0.65  0 0.4 0.7  0.1 0.4 0.65  0.1 0.4 0.7  0.15 0.4 0.65  0.15 0.4 0.7  0.2 0.4 0.7  0.05 0.45 0.65  0.05 0.45 0.7  0 0.45 0.65  0 0.45 0.7  0.1 0.45 0.65  0.1 0.45 0.7  0.15 0.45 0.65  0.15 0.45 0.7  0.2 0.45 0.7  0.05 0.5 0.65  0.05 0.5 0.7  0 0.5 0.65  0 0.5 0.7  0.1 0.5 0.65  0.1 0.5 0.7  0.15 0.5 0.65  0.15 0.5 0.7  0.2 0.45 0.65  0.2 0.5 0.65  0.2 0.5 0.7  0.25 0.5 0.7  0.05 0.55 0.7  0 0.55 0.7  0.1 0.55 0.65  0.1 0.55 0.7  0.15 0.55 0.65  0.15 0.55 0.7  0.2 0.55 0.65  0.2 0.55 0.7  0.25 0.55 0.7  0.05 0.05 0.75  0.05 0 0.75  0 0 0.75  0 0.05 0.75  0.1 0.05 0.75  0.1 0 0.75  0.15 0.05 0.75  0.15 0 0.75  0.2 0.05 0.75  0.2 0 0.75  0.25 0.05 0.75  0.25 0 0.75  0.3 0.05 0.75  0.3 0 0.75  0.35 0.05 0.75  0.35 0 0.75  0.4 0.05 0.75  0.4 0 0.75  0.45 0.05 0.75  0.45 0 0.75  0.05 0.1 0.75  0 0.1 0.75  0.1 0.1 0.75  0.15 0.1 0.75  0.2 0.1 0.75  0.25 0.1 0.75  0.3 0.1 0.75  0.35 0.1 0.75  0.4 0.1 0.75  0.45 0.1 0.75  0.5 0.1 0.75  0.05 0.15 0.75  0 0.15 0.75  0.1 0.15 0.75  0.15 0.15 0.75  0.2 0.15 0.75  0.25 0.15 0.75  0.3 0.15 0.75  0.35 0.15 0.75  0.4 0.15 0.75  0.45 0.15 0.75  0.5 0.15 0.75  0.05 0.2 0.75  0 0.2 0.75  0.1 0.2 0.75  0.15 0.2 0.75  0.2 0.2 0.75  0.25 0.2 0.75  0.3 0.2 0.75  0.35 0.2 0.75  0.4 0.2 0.75  0.45 0.2 0.75  0.5 0.2 0.75  0.05 0.25 0.75  0 0.25 0.75  0.1 0.25 0.75  0.15 0.25 0.75  0.2 0.25 0.75  0.25 0.25 0.75  0.3 0.25 0.75  0.35 0.25 0.75  0.4 0.25 0.75  0.45 0.25 0.75  0.5 0.25 0.75  0.55 0.25 0.75  0.05 0.3 0.75  0 0.3 0.75  0.1 0.3 0.75  0.15 0.3 0.75  0.2 0.3 0.75  0.25 0.3 0.75  0.3 0.3 0.75  0.35 0.3 0.7  0.35 0.3 0.75  0.4 0.3 0.75  0.45 0.3 0.75  0.5 0.3 0.75  0.55 0.3 0.75  0.05 0.35 0.75  0 0.35 0.75  0.1 0.35 0.75  0.15 0.35 0.75  0.2 0.35 0.75  0.25 0.35 0.7  0.25 0.35 0.75  0.3 0.35 0.7  0.3 0.35 0.75  0.35 0.35 0.75  0.4 0.35 0.75  0.5 0.35 0.75  0.55 0.35 0.75  0.05 0.4 0.75  0 0.4 0.75  0.1 0.4 0.75  0.15 0.4 0.75  0.2 0.4 0.75  0.25 0.4 0.7  0.25 0.4 0.75  0.3 0.4 0.75  0.35 0.4 0.75  0.05 0.45 0.75  0 0.45 0.75  0.1 0.45 0.75  0.15 0.45 0.75  0.2 0.45 0.75  0.25 0.45 0.7  0.25 0.45 0.75  0.3 0.45 0.75  0.05 0.5 0.75  0 0.5 0.75  0.1 0.5 0.75  0.15 0.5 0.75  0.2 0.5 0.75  0.25 0.5 0.75  0.3 0.5 0.75  0.05 0.55 0.75  0 0.55 0.75  0.1 0.55 0.75  0.15 0.55 0.75  0.2 0.55 0.75  0.25 0.55 0.75  0.3 0.55 0.75  0.15 0.6 0.75  0.2 0.6 0.75  0.25 0.6 0.75  0.3 0.6 0.75  0.05 0.05 0.8  0.05 0 0.8  0 0 0.8  0 0.05 0.8  0.1 0.05 0.8  0.1 0 0.8  0.15 0.05 0.8  0.15 0 0.8  0.2 0.05 0.8  0.2 0 0.8  0.25 0.05 0.8  0.25 0 0.8  0.3 0.05 0.8  0.3 0 0.8  0.35 0.05 0.8  0.35 0 0.8  0.4 0.05 0.8  0.4 0 0.8  0.45 0.05 0.8  0.45 0 0.8  0.5 0 0.8  0.5 0.05 0.8  0.05 0.1 0.8  0 0.1 0.8  0.1 0.1 0.8  0.15 0.1 0.8  0.2 0.1 0.8  0.25 0.1 0.8  0.3 0.1 0.8  0.35 0.1 0.8  0.4 0.1 0.8  0.45 0.1 0.8  0.5 0.1 0.8  0.05 0.15 0.8  0 0.15 0.8  0.1 0.15 0.8  0.15 0.15 0.8  0.2 0.15 0.8  0.25 0.15 0.8  0.3 0.15 0.8  0.35 0.15 0.8  0.4 0.15 0.8  0.45 0.15 0.8  0.5 0.15 0.8  0.55 0.15 0.8  0.05 0.2 0.8  0 0.2 0.8  0.1 0.2 0.8  0.15 0.2 0.8  0.2 0.2 0.8  0.25 0.2 0.8  0.3 0.2 0.8  0.35 0.2 0.8  0.4 0.2 0.8  0.45 0.2 0.8  0.5 0.2 0.8  0.55 0.2 0.8  0.05 0.25 0.8  0 0.25 0.8  0.1 0.25 0.8  0.15 0.25 0.8  0.2 0.25 0.8  0.25 0.25 0.8  0.3 0.25 0.8  0.35 0.25 0.8  0.4 0.25 0.8  0.45 0.25 0.8  0.5 0.25 0.8  0.55 0.25 0.8  0.05 0.3 0.8  0 0.3 0.8  0.1 0.3 0.8  0.15 0.3 0.8  0.2 0.3 0.8  0.25 0.3 0.8  0.3 0.3 0.8  0.35 0.3 0.8  0.4 0.3 0.8  0.45 0.3 0.8  0.5 0.3 0.8  0.55 0.3 0.8  0.6 0.3 0.8  0.05 0.35 0.8  0 0.35 0.8  0.1 0.35 0.8  0.15 0.35 0.8  0.2 0.35 0.8  0.25 0.35 0.8  0.3 0.35 0.8  0.35 0.35 0.8  0.4 0.35 0.8  0.45 0.35 0.75  0.45 0.35 0.8  0.5 0.35 0.8  0.55 0.35 0.8  0.6 0.35 0.8  0.05 0.4 0.8  0 0.4 0.8  0.1 0.4 0.8  0.15 0.4 0.8  0.2 0.4 0.8  0.25 0.4 0.8  0.3 0.4 0.8  0.35 0.4 0.8  0.4 0.4 0.75  0.4 0.4 0.8  0.45 0.4 0.75  0.45 0.4 0.8  0.5 0.4 0.75  0.5 0.4 0.8  0.55 0.4 0.75  0.55 0.4 0.8  0.6 0.4 0.8  0.05 0.45 0.8  0 0.45 0.8  0.1 0.45 0.8  0.15 0.45 0.8  0.2 0.45 0.8  0.25 0.45 0.8  0.3 0.45 0.8  0.35 0.45 0.75  0.35 0.45 0.8  0.4 0.45 0.75  0.4 0.45 0.8  0.45 0.45 0.75  0.45 0.45 0.8  0.5 0.45 0.75  0.5 0.45 0.8  0.55 0.45 0.75  0.55 0.45 0.8  0.6 0.45 0.8  0.6 0.45 0.75  0.05 0.5 0.8  0 0.5 0.8  0.1 0.5 0.8  0.15 0.5 0.8  0.2 0.5 0.8  0.25 0.5 0.8  0.3 0.5 0.8  0.35 0.5 0.75  0.35 0.5 0.8  0.4 0.5 0.75  0.4 0.5 0.8  0.45 0.5 0.75  0.45 0.5 0.8  0.5 0.5 0.75  0.5 0.5 0.8  0.55 0.5 0.75  0.55 0.5 0.8  0.6 0.5 0.75  0.6 0.5 0.8  0.05 0.55 0.8  0 0.55 0.8  0.1 0.55 0.8  0.15 0.55 0.8  0.2 0.55 0.8  0.25 0.55 0.8  0.3 0.55 0.8  0.35 0.55 0.75  0.35 0.55 0.8  0.4 0.55 0.75  0.4 0.55 0.8  0.45 0.55 0.75  0.45 0.55 0.8  0.5 0.55 0.75  0.5 0.55 0.8  0.55 0.55 0.75  0.55 0.55 0.8  0.6 0.55 0.75  0.6 0.55 0.8  0.65 0.55 0.8  0.15 0.6 0.8  0.2 0.6 0.8  0.25 0.6 0.8  0.3 0.6 0.8  0.35 0.6 0.75  0.35 0.6 0.8  0.4 0.6 0.75  0.4 0.6 0.8  0.45 0.6 0.75  0.45 0.6 0.8  0.5 0.6 0.75  0.5 0.6 0.8  0.55 0.6 0.75  0.55 0.6 0.8  0.6 0.6 0.75  0.6 0.6 0.8  0.65 0.6 0.8  0.3 0.65 0.8  0.35 0.65 0.75  0.35 0.65 0.8  0.4 0.65 0.75  0.4 0.65 0.8  0.45 0.65 0.75  0.45 0.65 0.8  0.5 0.65 0.75  0.5 0.65 0.8  0.55 0.65 0.75  0.55 0.65 0.8  0.6 0.65 0.75  0.6 0.65 0.8  0.65 0.65 0.8  0.65 0.65 0.75  0.4 0.7 0.8  0.45 0.7 0.75  0.45 0.7 0.8  0.5 0.7 0.75  0.5 0.7 0.8  0.55 0.7 0.75  0.55 0.7 0.8  0.6 0.7 0.75  0.6 0.7 0.8  0.65 0.7 0.75  0.65 0.7 0.8  0.7 0.7 0.8  0.55 0.75 0.8  0.6 0.75 0.8  0.65 0.75 0.75  0.65 0.75 0.8  0.7 0.75 0.8  0.7 0.8 0.8  0.65 0.8 0.75  0.7 0.8 0.75  0.65 0.8 0.8  0.7 0.85 0.8  0.65 0.85 0.8  0.05 0.05 0.85  0.05 0 0.85  0 0 0.85  0 0.05 0.85  0.1 0.05 0.85  0.1 0 0.85  0.15 0.05 0.85  0.15 0 0.85  0.2 0.05 0.85  0.2 0 0.85  0.25 0.05 0.85  0.25 0 0.85  0.3 0.05 0.85  0.3 0 0.85  0.35 0.05 0.85  0.35 0 0.85  0.4 0.05 0.85  0.4 0 0.85  0.45 0.05 0.85  0.45 0 0.85  0.5 0.05 0.85  0.5 0 0.85  0.05 0.1 0.85  0 0.1 0.85  0.1 0.1 0.85  0.15 0.1 0.85  0.2 0.1 0.85  0.25 0.1 0.85  0.3 0.1 0.85  0.35 0.1 0.85  0.4 0.1 0.85  0.45 0.1 0.85  0.5 0.1 0.85  0.55 0.1 0.85  0.05 0.15 0.85  0 0.15 0.85  0.1 0.15 0.85  0.15 0.15 0.85  0.2 0.15 0.85  0.25 0.15 0.85  0.3 0.15 0.85  0.35 0.15 0.85  0.4 0.15 0.85  0.45 0.15 0.85  0.5 0.15 0.85  0.55 0.15 0.85  0.05 0.2 0.85  0 0.2 0.85  0.1 0.2 0.85  0.15 0.2 0.85  0.2 0.2 0.85  0.25 0.2 0.85  0.3 0.2 0.85  0.35 0.2 0.85  0.4 0.2 0.85  0.45 0.2 0.85  0.5 0.2 0.85  0.55 0.2 0.85  0.05 0.25 0.85  0 0.25 0.85  0.1 0.25 0.85  0.15 0.25 0.85  0.2 0.25 0.85  0.25 0.25 0.85  0.3 0.25 0.85  0.35 0.25 0.85  0.4 0.25 0.85  0.45 0.25 0.85  0.5 0.25 0.85  0.55 0.25 0.85  0.6 0.25 0.85  0.05 0.3 0.85  0 0.3 0.85  0.1 0.3 0.85  0.15 0.3 0.85  0.2 0.3 0.85  0.25 0.3 0.85  0.3 0.3 0.85  0.35 0.3 0.85  0.4 0.3 0.85  0.45 0.3 0.85  0.5 0.3 0.85  0.55 0.3 0.85  0.6 0.3 0.85  0.05 0.35 0.85  0 0.35 0.85  0.1 0.35 0.85  0.15 0.35 0.85  0.2 0.35 0.85  0.25 0.35 0.85  0.3 0.35 0.85  0.35 0.35 0.85  0.4 0.35 0.85  0.45 0.35 0.85  0.5 0.35 0.85  0.55 0.35 0.85  0.6 0.35 0.85  0.05 0.4 0.85  0 0.4 0.85  0.1 0.4 0.85  0.15 0.4 0.85  0.2 0.4 0.85  0.25 0.4 0.85  0.3 0.4 0.85  0.35 0.4 0.85  0.4 0.4 0.85  0.45 0.4 0.85  0.5 0.4 0.85  0.55 0.4 0.85  0.6 0.4 0.85  0.05 0.45 0.85  0 0.45 0.85  0.1 0.45 0.85  0.15 0.45 0.85  0.2 0.45 0.85  0.25 0.45 0.85  0.3 0.45 0.85  0.35 0.45 0.85  0.4 0.45 0.85  0.45 0.45 0.85  0.5 0.45 0.85  0.55 0.45 0.85  0.6 0.45 0.85  0.65 0.45 0.85  0.05 0.5 0.85  0 0.5 0.85  0.1 0.5 0.85  0.15 0.5 0.85  0.2 0.5 0.85  0.25 0.5 0.85  0.3 0.5 0.85  0.35 0.5 0.85  0.4 0.5 0.85  0.45 0.5 0.85  0.5 0.5 0.85  0.55 0.5 0.85  0.6 0.5 0.85  0.65 0.5 0.85  0.05 0.55 0.85  0 0.55 0.85  0.1 0.55 0.85  0.15 0.55 0.85  0.2 0.55 0.85  0.25 0.55 0.85  0.3 0.55 0.85  0.35 0.55 0.85  0.4 0.55 0.85  0.45 0.55 0.85  0.5 0.55 0.85  0.55 0.55 0.85  0.6 0.55 0.85  0.65 0.55 0.85  0.05 0.6 0.85  0 0.6 0.85  0.1 0.6 0.85  0.15 0.6 0.85  0.2 0.6 0.85  0.25 
[...]
<PointData  Vectors="f_8-0"> 
<DataArray  type="Float64"  Name="f_8-0"  NumberOfComponents="3" format="ascii">1.9155408290138964e-01 0.0000000000000000e+00 0.0000000000000000e+00  1.9155408290138964e-01 0.0000000000000000e+00 0.0000000000000000e+00  2.0137531825327437e-01 -1.0888421716254642e-08 -1.5344187319565029e-08  2.1170005147592696e-01 -1.2218581946568952e-08 -1.7125427481946874e-08  2.0137527074704767e-01 0.0000000000000000e+00 0.0000000000000000e+00  2.0137527074704767e-01 0.0000000000000000e+00 0.0000000000000000e+00  2.0137527074704767e-01 0.0000000000000000e+00 0.0000000000000000e+00  2.1170000166126748e-01 0.0000000000000000e+00 0.0000000000000000e+00  1.9155408290138964e-01 0.0000000000000000e+00 0.0000000000000000e+00  2.0137531688540480e-01 -1.4209389589673562e-08 -1.5610827971976571e-08  2.1170005015398843e-01 -1.5763839688007640e-08 -1.7431723670124278e-08  2.0137527074704767e-01 0.0000000000000000e+00 0.0000000000000000e+00  1.9155408290138964e-01 0.0000000000000000e+00 0.0000000000000000e+00  2.0137531499922459e-01 -1.5317999315999466e-08 -1.5164953850267679e-08  2.1170004823234057e-01 -1.6929358443291520e-08 -1.6840752715784390e-08  2.0137527074704767e-01 0.0000000000000000e+00 0.0000000000000000e+00  1.9155408290138964e-01 0.0000000000000000e+00 0.0000000000000000e+00  2.0137531397606720e-01 -1.5871805191021565e-08 -1.4697214457576158e-08  2.1170004715875851e-01 -1.7496326524603008e-08 -1.6163493739380157e-08  2.0137527074704767e-01 0.0000000000000000e+00 0.0000000000000000e+00  1.9155408290138964e-01 0.0000000000000000e+00 0.0000000000000000e+00  2.0137531350671464e-01 -1.6163894077888201e-08 -1.4171528831776972e-08  2.1170004660139419e-01 -1.7779521173307964e-08 -1.5423529245307890e-08  2.0137527074704767e-01 0.0000000000000000e+00 0.0000000000000000e+00  1.9155408290138964e-01 0.0000000000000000e+00 0.0000000000000000e+00  2.0137531332702360e-01 -1.6318735507418853e-08 -1.3608569833280838e-08  2.1170004630308592e-01 -1.7916298323227308e-08 -1.4684447204492624e-08  2.0137527074704767e-01 0.0000000000000000e+00 0.0000000000000000e+00  1.9155408290138964e-01 0.0000000000000000e+00 0.0000000000000000e+00  2.0137531329218589e-01 -1.6393351636795627e-08 -1.3043559688253279e-08  2.1170004614165933e-01 -1.7971115533917358e-08 -1.3997480104653412e-08  2.0137527074704767e-01 0.0000000000000000e+00 0.0000000000000000e+00  1.9155408290138964e-01 0.0000000000000000e+00 0.0000000000000000e+00  2.0137531333067396e-01 -1.6417707794992677e-08 -1.2501824088008166e-08  2.1170004606650555e-01 -1.7977551865528216e-08 -1.3384193682715196e-08  2.0137527074704767e-01 0.0000000000000000e+00 0.0000000000000000e+00  2.0137527074704767e-01 0.0000000000000000e+00 0.0000000000000000e+00  2.1170004605841042e-01 -1.7955136096978888e-08 -1.2842270702087889e-08  2.1170005156538899e-01 -1.3530319140560797e-08 -1.8180695774540166e-08  2.2255414511532418e-01 -1.5124500704679327e-08 -2.0343963775981148e-08  2.1170000166126748e-01 0.0000000000000000e+00 0.0000000000000000e+00  2.2255409284924677e-01 0.0000000000000000e+00 0.0000000000000000e+00  2.1170005428702887e-01 -1.5378604219933747e-08 -1.9651655525252266e-08  2.2255414818974573e-01 -1.7114526124080794e-08 -2.1984586186429498e-08  2.1170005365460745e-01 -1.6946446670470913e-08 -1.9560540321506973e-08  2.2255414762064485e-01 -1.8741916287357648e-08 -2.1723305550348027e-08  2.1170005301777747e-01 -1.8079251537232212e-08 -1.9065410237299629e-08  2.2255414693710743e-01 -1.9883795119603499e-08 -2.0918284961629944e-08  2.1170005269886613e-01 -1.8827608153460780e-08 -1.8325611025440042e-08  2.2255414647883345e-01 -2.0606101949278227e-08 -1.9846558067106950e-08  2.1170005261187380e-01 -1.9294246146000452e-08 -1.7449603069095277e-08  2.2255414619475639e-01 -2.1029468130686188e-08 -1.8693158497185157e-08  2.1170005265841224e-01 -1.9562904468199229e-08 -1.6527365777983196e-08  2.2255414603116716e-01 -2.1251561464310278e-08 -1.7577030615625964e-08  2.1170005277920012e-01 -1.9694786898472788e-08 -1.5616808893264077e-08  2.2255414596496828e-01 -2.1341500898144371e-08 -1.6551823208534156e-08  2.2255414598958612e-01 -2.1348253329316141e-08 -1.5624691383412802e-08  2.2255414499953993e-01 -1.6374339317433955e-08 -2.0871243700373242e-08  2.3396473973716383e-01 -1.8249283217338395e-08 -2.3371105549330732e-08  2.2255409284924679e-01 0.0000000000000000e+00 0.0000000000000000e+00  2.3396468519259908e-01 0.0000000000000000e+00 0.0000000000000000e+00  2.2255414898290274e-01 -1.7801089691228397e-08 -2.3232922059358506e-08  2.3396474415456364e-01 -1.9783331057539000e-08 -2.5998561866799076e-08  2.2255414974815818e-01 -1.9090559129314436e-08 -2.3610224981421073e-08  2.3396474506433790e-01 -2.1077250109495649e-08 -2.6207281802702156e-08  2.2255415000797196e-01 -2.0388664580122361e-08 -2.3295599292257965e-08  2.3396474530156156e-01 -2.2343977099163101e-08 -2.5529287619925069e-08  2.2255415023904990e-01 -2.1413729110379119e-08 -2.2537726379631675e-08  2.3396474537256948e-01 -2.3305154549903274e-08 -2.4366513406620164e-08  2.2255415050300506e-01 -2.2126182937434349e-08 -2.1520650542327527e-08  2.3396474539371606e-01 -2.3937342868389008e-08 -2.3004758067086845e-08  2.2255415078763785e-01 -2.2569879150256707e-08 -2.0387321406919980e-08  2.3396474541522863e-01 -2.4300602568079824e-08 -2.1627387400609235e-08  2.2255415108007012e-01 -2.2806430268957439e-08 -1.9229982222095230e-08  2.3396474547297408e-01 -2.4466744336690165e-08 -2.0323933419668349e-08  2.3396474559236449e-01 -2.4500914920709879e-08 -1.9117901897289878e-08  2.2255415137560178e-01 -2.2896869277429708e-08 -1.8094805018822430e-08  2.3396473954113203e-01 -1.9371422431037224e-08 -2.3461572774353667e-08  2.4596036787220543e-01 -2.1529564078691487e-08 -2.6279466407874561e-08  2.3396468519259914e-01 0.0000000000000000e+00 0.0000000000000000e+00  2.4596031111569494e-01 0.0000000000000000e+00 0.0000000000000000e+00  2.3396474420810107e-01 -2.0945952228703249e-08 -2.6513659650246923e-08  2.4596037300663534e-01 -2.3203172071330605e-08 -2.9669515978254439e-08  2.3396474579464560e-01 -2.2085833637280362e-08 -2.7319427610973982e-08  2.4596037477188942e-01 -2.4296309082722433e-08 -3.0308403749488192e-08  2.3396474685323429e-01 -2.3367129339183016e-08 -2.7245024789907514e-08  2.4596037582559688e-01 -2.5493147597808775e-08 -2.9830735489872256e-08  2.3396474771593381e-01 -2.4489492160751077e-08 -2.6567120790306400e-08  2.4596037651962663e-01 -2.6502927955302878e-08 -2.8690741793293837e-08  2.3396474844655482e-01 -2.5323600504716808e-08 -2.5511833953359038e-08  2.4596037697966630e-01 -2.7212854552120560e-08 -2.7235512785942843e-08  2.3396474906829598e-01 -2.5861245325601521e-08 -2.4262049851454491e-08  2.4596037730278139e-01 -2.7632100654908637e-08 -2.5698568382023144e-08  2.3396474960125888e-01 -2.6147040666630009e-08 -2.2940287426906787e-08  2.4596037756768202e-01 -2.7816666637568445e-08 -2.4202162487244952e-08  2.3396475006348305e-01 -2.6244615001303935e-08 -2.1612829629978714e-08  2.4596037782919539e-01 -2.7834720016186979e-08 -2.2787842898601780e-08  2.4596037811914850e-01 -2.7755230874336756e-08 -2.1449673098107907e-08  2.4596036769669175e-01 -2.2546499044982839e-08 -2.6169101936862687e-08  2.5857102492563855e-01 -2.4994347092589261e-08 -2.9309536962272518e-08  2.4596031111569500e-01 0.0000000000000000e+00 0.0000000000000000e+00  2.5857096593158463e-01 0.0000000000000000e+00 0.0000000000000000e+00  2.4596037282255723e-01 -2.4579868582927280e-08 -2.9821734329447630e-08  2.5857103053649183e-01 -2.7135944178175827e-08 -3.3359383273550555e-08  2.4596037491162334e-01 -2.5765544012167672e-08 -3.1002990891992510e-08  2.5857103281983329e-01 -2.8237076656156204e-08 -3.4369970590326735e-08  2.4596037656020261e-01 -2.7042801519245820e-08 -3.1172553784161083e-08  2.5857103447305219e-01 -2.9382194500901136e-08 -3.4097397311490975e-08  2.4596037798503920e-01 -2.8182716400400505e-08 -3.0613112487748114e-08  2.5857103572363982e-01 -3.0361757960398324e-08 -3.3021312792261423e-08  2.5857103663595044e-01 -3.1052441057754052e-08 -3.1526450479007870e-08  2.5857103730092279e-01 -3.1439548947556896e-08 -2.9883613631702664e-08  2.5857103781162089e-01 -3.1566571272730950e-08 -2.8242739503785058e-08  2.4596038163224157e-01 -2.9881508046411719e-08 -2.5347274796626582e-08  2.5857103823906441e-01 -3.1500953690171770e-08 -2.6662434514180280e-08  2.4596038098400452e-01 -2.9844406116510424e-08 -2.6822991948531587e-08  2.5857103862541603e-01 -3.1317723582374483e-08 -2.5145750550633271e-08  2.5857102476767901e-01 -2.5942956350940016e-08 -2.9093603566623545e-08  2.7182824408904505e-01 -2.8697885549451138e-08 -3.2571280316936321e-08  2.5857096593158463e-01 0.0000000000000000e+00 0.0000000000000000e+00  2.7182818284590454e-01 0.0000000000000000e+00 0.0000000000000000e+00  2.5857103026495803e-01 -2.8612861725832083e-08 -3.3323221297528192e-08  2.7182825008663830e-01 -3.1498563769070234e-08 -3.7251804006557794e-08  2.5857103268291531e-01 -3.0002411939605286e-08 -3.4850331172448861e-08  2.7182825270849170e-01 -3.2780450695985900e-08 -3.8600316158582663e-08  2.7182825480038930e-01 -3.3952276702958976e-08 -3.8523483133432404e-08  2.7182825651139036e-01 -3.4896711003215676e-08 -3.7521814563749459e-08  2.7182825783720038e-01 -3.5516798200584113e-08 -3.6007945818781916e-08  2.7182826019800632e-01 -3.5570723111544044e-08 -3.0795997875392817e-08  2.7182826068024551e-01 -3.5205971561997631e-08 -2.9120392166915791e-08  2.7182824393677035e-01 -2.9609626367857858e-08 -3.2298738919137030e-08  2.8576517528049755e-01 -3.2701149847866097e-08 -3.6135902127677354e-08  2.7182818284590454e-01 0.0000000000000000e+00 0.0000000000000000e+00  2.8576511180631636e-01 0.0000000000000000e+00 0.0000000000000000e+00  2.7182824976841258e-01 -3.3036251493064175e-08 -3.7122803848736742e-08  2.8576518162898273e-01 -3.6294962087597986e-08 -4.1464197715565989e-08  2.7182825241943981e-01 -3.4742491048104988e-08 -3.8988818749918212e-08  2.8576518449292554e-01 -3.7884499394006932e-08 -4.3142196860355306e-08  2.8576518692072972e-01 -3.9163829924226614e-08 -4.3256862550819752e-08  2.8576517512359717e-01 -3.3596278169775970e-08 -3.5836504231208753e-08  3.0041666804461553e-01 -3.7065448080217466e-08 -4.0062733571656061e-08  2.8576511180631642e-01 0.0000000000000000e+00 0.0000000000000000e+00  3.0041660239464335e-01 0.0000000000000000e+00 0.0000000000000000e+00  2.8576518127163369e-01 -3.7876412188950637e-08 -4.1299594554415690e-08  3.0041667472624911e-01 -4.1565831452871584e-08 -4.6087295914133474e-08  2.8576518409967605e-01 -3.9978349365566845e-08 -4.3514843697301394e-08  3.0041667777666681e-01 -4.3556451449110578e-08 -4.8106516357173154e-08  3.0041668047749731e-01 -4.5006895682351952e-08 -4.8417724258737816e-08  3.0041666787629062e-01 -3.7953033463135444e-08 -3.9755343411724472e-08  3.1581935869428496e-01 -4.1851974220956434e-08 -4.4408336949636104e-08  3.0041660239464335e-01 0.0000000000000000e+00 0.0000000000000000e+00  3.1581929096897676e-01 0.0000000000000000e+00 0.0000000000000000e+00  3.0041667433010849e-01 -4.3174400131705042e-08 -4.5920876409541586e-08  3.1581936569550600e-01 -4.7367527098856622e-08 -5.1200984218581469e-08  3.0041667729980054e-01 -4.5725052435761358e-08 -4.8506802337355874e-08  3.1581936889619383e-01 -4.9828453521487795e-08 -5.3587694592461892e-08  3.1581937183121001e-01 -5.1489779998890826e-08 -5.4108459950038289e-08  3.1581935851278087e-01 -4.2730364914789207e-08 -4.4102083991866479e-08  3.3201176191935317e-01 -4.7122265389090988e-08 -4.9229393096218608e-08  3.1581929096897676e-01 0.0000000000000000e+00 0.0000000000000000e+00  3.3201169227365473e-01 0.0000000000000000e+00 0.0000000000000000e+00  3.1581936526557941e-01 -4.8975742433561588e-08 -5.1045408319012271e-08  3.3201176922568881e-01 -5.3761888521174601e-08 -5.6879555623197203e-08  3.1581936835389235e-01 -5.2002672789996965e-08 -5.4027442282130270e-08  3.3201177255008968e-01 -5.6739898789062738e-08 -5.9668630049305336e-08  3.0041668019659046e-01 -4.7585851269075734e-08 -4.9632602751857570e-08  3.1581937144768041e-01 -5.4064034629932207e-08 -5.5410189029867257e-08  3.3201177569372886e-01 -5.8621443918349176e-08 -6.0415772219329662e-08  3.3201177866304243e-01 -5.9559620715645938e-08 -5.9737332188515945e-08  3.4903436709291596e-01 -5.2938034616271041e-08 -5.4582319678674056e-08  3.4903429574618416e-01 0.0000000000000000e+00 0.0000000000000000e+00  3.3201176878143052e-01 -5.5323326871710243e-08 -5.6720063753300577e-08  3.4903437468938109e-01 -6.0808502648995922e-08 -6.3190360319686852e-08  3.3201177197609472e-01 -5.8820700413841953e-08 -6.0117702584532673e-08  3.4903437811807275e-01 -6.4320521171954855e-08 -6.6417240021095000e-08  3.3201177524833886e-01 -6.1029961472731102e-08 -6.1756995649382478e-08  3.4903438145111387e-01 -6.6387983455588744e-08 -6.7403982418103536e-08  3.4903438465122005e-01 -6.7243823716855732e-08 -6.6809640729558151e-08  2.2255414507346347e-01 -1.3702918155022215e-08 -1.9176414072823117e-08  2.1170000166126748e-01 0.0000000000000000e+00 0.0000000000000000e+00  2.1170000166126748e-01 0.0000000000000000e+00 0.0000000000000000e+00  2.2255409284924679e-01 0.0000000000000000e+00 0.0000000000000000e+00  2.2255414385319433e-01 -1.7492681076578062e-08 -1.9500938723123807e-08  2.1170000166126748e-01 0.0000000000000000e+00 0.0000000000000000e+00  2.2255414190016781e-01 -1.8704880209331841e-08 -1.8658534501612450e-08  2.1170000166126748e-01 0.0000000000000000e+00 0.0000000000000000e+00  2.2255414071486362e-01 -1.9264815319665455e-08 -1.7668777048073927e-08  2.1170000166126748e-01 0.0000000000000000e+00 0.0000000000000000e+00  2.2255413997403517e-01 -1.9518887428876304e-08 -1.6665555467762588e-08  2.1170000166126748e-01 0.0000000000000000e+00 0.0000000000000000e+00  2.2255413946615207e-01 -1.9622659124446260e-08 -1.5757500069597131e-08  2.1170000166126748e-01 0.0000000000000000e+00 0.0000000000000000e+00  2.2255413911133706e-01 -1.9648935583453574e-08 -1.4990105977450604e-08  2.1170000166126748e-01 0.0000000000000000e+00 0.0000000000000000e+00  2.2255413888157727e-01 -1.9633618845609250e-08 -1.4359761718999327e-08  2.1170000166126748e-01 0.0000000000000000e+00 0.0000000000000000e+00  2.2255413876507973e-01 -1.9595686668698797e-08 -1.3838980530648255e-08  2.1170000166126748e-01 0.0000000000000000e+00 0.0000000000000000e+00  2.3396473990531991e-01 -1.6903958928952002e-08 -2.2856416796068196e-08  2.3396468519259908e-01 0.0000000000000000e+00 0.0000000000000000e+00  2.3396474341369633e-01 -1.9036938183196197e-08 -2.4644337132714655e-08  2.3396474289440466e-01 -2.0686293439178882e-08 -2.4056020897234274e-08  2.3396474205181966e-01 -2.1783847049054116e-08 -2.2789526041122926e-08  2.3396474129754974e-01 -2.2429311640171403e-08 -2.1318510337357496e-08  2.3396474067367326e-01 -2.2771826201001373e-08 -1.9906714806540755e-08  2.3396474019804792e-01 -2.2924891645308001e-08 -1.8668141718210185e-08  2.3396473988397390e-01 -2.2962615466635531e-08 -1.7619314628578374e-08  2.3396473973687917e-01 -2.2932949222793843e-08 -1.6728914526816704e-08  2.3396473975840448e-01 -2.2869691534692873e-08 -1.5948149526442577e-08  2.4596036811500918e-01 -2.0328751063191341e-08 -2.6275252520581926e-08  2.4596031111569500e-01 0.0000000000000000e+00 0.0000000000000000e+00  2.4596037304286522e-01 -2.1944329418371970e-08 -2.9139949849446957e-08  2.4596037406479285e-01 -2.3169083370630212e-08 -2.8986784813254429e-08  2.4596037412994637e-01 -2.4315184630164255e-08 -2.7758692085493601e-08  2.4596037384205335e-01 -2.5130841802584454e-08 -2.6108224552579443e-08  2.4596037344222857e-01 -2.5622704417345622e-08 -2.4426276606412094e-08  2.4596037307456742e-01 -2.5869457389269888e-08 -2.2895371531342692e-08  2.4596037282295258e-01 -2.5948640523532484e-08 -2.1561775418383291e-08  2.4596037272949089e-01 -2.5923216754517986e-08 -2.0402118729776702e-08  2.4596037281303990e-01 -2.5845060403290376e-08 -1.9364981156943154e-08  2.5857102513370778e-01 -2.3897973635287808e-08 -2.9543351266498311e-08  2.5857096593158463e-01 0.0000000000000000e+00 0.0000000000000000e+00  2.5857103080734761e-01 -2.5616883397001645e-08 -3.3230773126893826e-08  2.5857103270454079e-01 -2.6556322149573260e-08 -3.3474501953349959e-08  2.5857103357677719e-01 -2.7547569377689504e-08 -3.2372067378897159e-08  2.5857103387037639e-01 -2.8336288249611275e-08 -3.0667673098826013e-08  2.5857103385196645e-01 -2.8842521491301653e-08 -2.8835327618611152e-08  2.5857103372869222e-01 -2.9095685371605974e-08 -2.7112912293751054e-08  2.5857103363743511e-01 -2.9157511334754235e-08 -2.5575570847510097e-08  2.5857103365457662e-01 -2.9092556955675721e-08 -2.4211456659622716e-08  2.5857103381672414e-01 -2.8962229453781317e-08 -2.2971206578138692e-08  2.7182824427186675e-01 -2.7651814439852535e-08 -3.2929621601332247e-08  2.7182818284590454e-01 0.0000000000000000e+00 0.0000000000000000e+00  2.7182825044120834e-01 -2.9820772513048048e-08 -3.7321061592806659e-08  2.7182825286542961e-01 -3.0700722577688198e-08 -3.7897341961451645e-08  2.7182825432701652e-01 -3.1564844917641159e-08 -3.6924468994335309e-08  2.7182825514351255e-01 -3.2252308121803075e-08 -3.5205657922709112e-08  2.7182825552943018e-01 -3.2678478808502898e-08 -3.3273043614647473e-08  2.7182825569865010e-01 -3.2851699180118157e-08 -3.1407773797856507e-08  2.7182825581176018e-01 -3.2821650453739954e-08 -2.9709846247979486e-08  2.7182825596632054e-01 -3.2650980175584516e-08 -2.8178596870013620e-08  2.7182825621145618e-01 -3.2405120392664473e-08 -2.6767795515956871e-08  2.7182825656357751e-01 -3.2150010511397720e-08 -2.5416384748281165e-08  2.8576517545852248e-01 -3.1661053084141495e-08 -3.6558345387411009e-08  2.8576511180631642e-01 0.0000000000000000e+00 0.0000000000000000e+00  2.8576518203860607e-01 -3.4484881115948175e-08 -4.1618182196179581e-08  2.8576518481174440e-01 -3.5494182717597682e-08 -4.2488800464455978e-08  2.8576518670503037e-01 -3.6322486783316742e-08 -4.1632216244828469e-08  2.8576518795275579e-01 -3.6912529568881211e-08 -3.9904338433149746e-08  2.8576518870828688e-01 -3.7212966929550632e-08 -3.7886082399675347e-08  2.7182825883758210e-01 -3.5801842815465619e-08 -3.4282914496988557e-08  2.8576518916622068e-01 -3.7240216775840249e-08 -3.5895859224982721e-08  2.8576518949041113e-01 -3.7046101655581884e-08 -3.4055649154176581e-08  2.8576518978777005e-01 -3.6695997993442171e-08 -3.2374897396544920e-08  2.8576519011486290e-01 -3.6258929010493773e-08 -3.0810257234253402e-08  2.8576519049067617e-01 -3.5803400305921574e-08 -2.9299848427314767e-08  3.0041666823650809e-01 -3.6001519930398111e-08 -4.0511087301083455e-08  3.0041660239464335e-01 0.0000000000000000e+00 0.0000000000000000e+00  3.0041667519849657e-01 -3.9627665435722217e-08 -4.6255650138812390e-08  3.0041667822994822e-01 -4.0906637438617189e-08 -4.7409950094963289e-08  3.0041668045777575e-01 -4.1791929359456188e-08 -4.6661746702857275e-08  2.8576518901332221e-01 -4.0094918455890334e-08 -4.2331463074312698e-08  3.0041668206250494e-01 -4.2315504390934909e-08 -4.4921205956930845e-08  2.8576519070400236e-01 -4.0619711889513270e-08 -4.0804081155041885e-08  3.0041668314184927e-01 -4.2472033044523505e-08 -4.2816772374812892e-08  3.0041668386401860e-01 -4.2304626198396822e-08 -4.0703182503522047e-08  3.0041668438702174e-01 -4.1881779277055798e-08 -3.8723882695100871e-08  3.0041668522877429e-01 -4.0575581235627428e-08 -3.5185133839428517e-08  3.0041668563362522e-01 -3.9840397632004067e-08 -3.3521917946550197e-08  3.1581935891510737e-01 -4.0747449486275853e-08 -4.4855690811620507e-08  3.1581929096897676e-01 0.0000000000000000e+00 0.0000000000000000e+00  3.1581936624623841e-01 -4.5305350989406580e-08 -5.1336568884015199e-08  3.1581936948645156e-01 -4.6960360688459605e-08 -5.2786087205673064e-08  3.1581937199242754e-01 -4.7977705198821883e-08 -5.2148794417465310e-08  3.0041668289655205e-01 -4.5945646874187096e-08 -4.7570619656734082e-08  3.1581937390431608e-01 -4.8464969848154324e-08 -5.0392961295266220e-08  3.1581937526837861e-01 -4.8465986571063043e-08 -4.8196741213415713e-08  3.1581937622582401e-01 -4.8062451654195744e-08 -4.595338884407