<?xml version="1.0"?>
<VTKFile type="UnstructuredGrid"  version="0.1"  >
<UnstructuredGrid>
<Piece  NumberOfPoints="216" NumberOfCells="750">
<Points>
<DataArray  type="Float64"  NumberOfComponents="3"  format="ascii">0.5 0.5 0.5  0.6 0.5 0.5  0.6 0.6 0.5  0.6 0.6 0.6  0.6 0.5 0.6  0.5 0.5 0.6  0.5 0.6 0.5  0.5 0.6 0.6  0.7 0.5 0.5  0.7 0.6 0.5  0.7 0.6 0.6  0.7 0.5 0.6  0.8 0.5 0.5  0.8 0.6 0.5  0.8 0.6 0.6  0.8 0.5 0.6  0.9 0.5 0.5  0.9 0.6 0.5  0.9 0.6 0.6  0.9 0.5 0.6  1 0.5 0.5  1 0.6 0.5  1 0.6 0.6  1 0.5 0.6  0.6 0.7 0.5  0.6 0.7 0.6  0.5 0.7 0.5  0.5 0.7 0.6  0.7 0.7 0.5  0.7 0.7 0.6  0.8 0.7 0.5  0.8 0.7 0.6  0.9 0.7 0.5  0.9 0.7 0.6  1 0.7 0.5  1 0.7 0.6  0.6 0.8 0.5  0.6 0.8 0.6  0.5 0.8 0.5  0.5 0.8 0.6  0.7 0.8 0.5  0.7 0.8 0.6  0.8 0.8 0.5  0.8 0.8 0.6  0.9 0.8 0.5  0.9 0.8 0.6  1 0.8 0.5  1 0.8 0.6  0.6 0.9 0.5  0.6 0.9 0.6  0.5 0.9 0.5  0.5 0.9 0.6  0.7 0.9 0.5  0.7 0.9 0.6  0.8 0.9 0.5  0.8 0.9 0.6  0.9 0.9 0.5  0.9 0.9 0.6  1 0.9 0.5  1 0.9 0.6  0.6 1 0.5  0.6 1 0.6  0.5 1 0.5  0.5 1 0.6  0.7 1 0.5  0.7 1 0.6  0.8 1 0.5  0.8 1 0.6  0.9 1 0.5  0.9 1 0.6  1 1 0.5  1 1 0.6  0.6 0.6 0.7  0.6 0.5 0.7  0.5 0.5 0.7  0.5 0.6 0.7  0.7 0.6 0.7  0.7 0.5 0.7  0.8 0.6 0.7  0.8 0.5 0.7  0.9 0.6 0.7  0.9 0.5 0.7  1 0.6 0.7  1 0.5 0.7  0.6 0.7 0.7  0.5 0.7 0.7  0.7 0.7 0.7  0.8 0.7 0.7  0.9 0.7 0.7  1 0.7 0.7  0.6 0.8 0.7  0.5 0.8 0.7  0.7 0.8 0.7  0.8 0.8 0.7  0.9 0.8 0.7  1 0.8 0.7  0.6 0.9 0.7  0.5 0.9 0.7  0.7 0.9 0.7  0.8 0.9 0.7  0.9 0.9 0.7  1 0.9 0.7  0.6 1 0.7  0.5 1 0.7  0.7 1 0.7  0.8 1 0.7  0.9 1 0.7  1 1 0.7  0.6 0.6 0.8  0.6 0.5 0.8  0.5 0.5 0.8  0.5 0.6 0.8  0.7 0.6 0.8  0.7 0.5 0.8  0.8 0.6 0.8  0.8 0.5 0.8  0.9 0.6 0.8  0.9 0.5 0.8  1 0.6 0.8  1 0.5 0.8  0.6 0.7 0.8  0.5 0.7 0.8  0.7 0.7 0.8  0.8 0.7 0.8  0.9 0.7 0.8  1 0.7 0.8  0.6 0.8 0.8  0.5 0.8 0.8  0.7 0.8 0.8  0.8 0.8 0.8  0.9 0.8 0.8  1 0.8 0.8  0.6 0.9 0.8  0.5 0.9 0.8  0.7 0.9 0.8  0.8 0.9 0.8  0.9 0.9 0.8  1 0.9 0.8  0.6 1 0.8  0.5 1 0.8  0.7 1 0.8  0.8 1 0.8  0.9 1 0.8  1 1 0.8  0.6 0.6 0.9  0.6 0.5 0.9  0.5 0.5 0.9  0.5 0.6 0.9  0.7 0.6 0.9  0.7 0.5 0.9  0.8 0.6 0.9  0.8 0.5 0.9  0.9 0.6 0.9  0.9 0.5 0.9  1 0.6 0.9  1 0.5 0.9  0.6 0.7 0.9  0.5 0.7 0.9  0.7 0.7 0.9  0.8 0.7 0.9  0.9 0.7 0.9  1 0.7 0.9  0.6 0.8 0.9  0.5 0.8 0.9  0.7 0.8 0.9  0.8 0.8 0.9  0.9 0.8 0.9  1 0.8 0.9  0.6 0.9 0.9  0.5 0.9 0.9  0.7 0.9 0.9  0.8 0.9 0.9  0.9 0.9 0.9  1 0.9 0.9  0.6 1 0.9  0.5 1 0.9  0.7 1 0.9  0.8 1 0.9  0.9 1 0.9  1 1 0.9  0.6 0.6 1  0.6 0.5 1  0.5 0.5 1  0.5 0.6 1  0.7 0.6 1  0.7 0.5 1  0.8 0.6 1  0.8 0.5 1  0.9 0.6 1  0.9 0.5 1  1 0.6 1  1 0.5 1  0.6 0.7 1  0.5 0.7 1  0.7 0.7 1  0.8 0.7 1  0.9 0.7 1  1 0.7 1  0.6 0.8 1  0.5 0.8 1  0.7 0.8 1  0.8 0.8 1  0.9 0.8 1  1 0.8 1  0.6 0.9 1  0.5 0.9 1  0.7 0.9 1  0.8 0.9 1  0.9 0.9 1  1 0.9 1  0.6 1 1  0.5 1 1  0.7 1 1  0.8 1 1  0.9 1 1  1 1 1  </DataArray>
</Points>
<Cells>
<DataArray  type="UInt32"  Name="connectivity"  format="ascii">0 1 2 3  0 1 4 3  0 5 4 3  0 6 2 3  0 5 7 3  0 6 7 3  1 8 9 10  1 8 11 10  1 4 11 10  1 2 9 10  1 4 3 10  1 2 3 10  8 12 13 14  8 12 15 14  8 11 15 14  8 9 13 14  8 11 10 14  8 9 10 14  12 16 17 18  12 16 19 18  12 15 19 18  12 13 17 18  12 15 14 18  12 13 14 18  16 20 21 22  16 20 23 22  16 19 23 22  16 17 21 22  16 19 18 22  16 17 18 22  6 2 24 25  6 2 3 25  6 7 3 25  6 26 24 25  6 7 27 25  6 26 27 25  2 9 28 29  2 9 10 29  2 3 10 29  2 24 28 29  2 3 25 29  2 24 25 29  9 13 30 31  9 13 14 31  9 10 14 31  9 28 30 31  9 10 29 31  9 28 29 31  13 17 32 33  13 17 18 33  13 14 18 33  13 30 32 33  13 14 31 33  13 30 31 33  17 21 34 35  17 21 22 35  17 18 22 35  17 32 34 35  17 18 33 35  17 32 33 35  26 24 36 37  26 24 25 37  26 27 25 37  26 38 36 37  26 27 39 37  26 38 39 37  24 28 40 41  24 28 29 41  24 25 29 41  24 36 40 41  24 25 37 41  24 36 37 41  28 30 42 43  28 30 31 43  28 29 31 43  28 40 42 43  28 29 41 43  28 40 41 43  30 32 44 45  30 32 33 45  30 31 33 45  30 42 44 45  30 31 43 45  30 42 43 45  32 34 46 47  32 34 35 47  32 33 35 47  32 44 46 47  32 33 45 47  32 44 45 47  38 36 48 49  38 36 37 49  38 39 37 49  38 50 48 49  38 39 51 49  38 50 51 49  36 40 52 53  36 40 41 53  36 37 41 53  36 48 52 53  36 37 49 53  36 48 49 53  40 42 54 55  40 42 43 55  40 41 43 55  40 52 54 55  40 41 53 55  40 52 53 55  42 44 56 57  42 44 45 57  42 43 45 57  42 54 56 57  42 43 55 57  42 54 55 57  44 46 58 59  44 46 47 59  44 45 47 59  44 56 58 59  44 45 57 59  44 56 57 59  50 48 60 61  50 48 49 61  50 51 49 61  50 62 60 61  50 51 63 61  50 62 63 61  48 52 64 65  48 52 53 65  48 49 53 65  48 60 64 65  48 49 61 65  48 60 61 65  52 54 66 67  52 54 55 67  52 53 55 67  52 64 66 67  52 53 65 67  52 64 65 67  54 56 68 69  54 56 57 69  54 55 57 69  54 66 68 69  54 55 67 69  54 66 67 69  56 58 70 71  56 58 59 71  56 57 59 71  56 68 70 71  56 57 69 71  56 68 69 71  5 4 3 72  5 4 73 72  5 74 73 72  5 7 3 72  5 74 75 72  5 7 75 72  4 11 10 76  4 11 77 76  4 73 77 76  4 3 10 76  4 73 72 76  4 3 72 76  11 15 14 78  11 15 79 78  11 77 79 78  11 10 14 78  11 77 76 78  11 10 76 78  15 19 18 80  15 19 81 80  15 79 81 80  15 14 18 80  15 79 78 80  15 14 78 80  19 23 22 82  19 23 83 82  19 81 83 82  19 18 22 82  19 81 80 82  19 18 80 82  7 3 25 84  7 3 72 84  7 75 72 84  7 27 25 84  7 75 85 84  7 27 85 84  3 10 29 86  3 10 76 86  3 72 76 86  3 25 29 86  3 72 84 86  3 25 84 86  10 14 31 87  10 14 78 87  10 76 78 87  10 29 31 87  10 76 86 87  10 29 86 87  14 18 33 88  14 18 80 88  14 78 80 88  14 31 33 88  14 78 87 88  14 31 87 88  18 22 35 89  18 22 82 89  18 80 82 89  18 33 35 89  18 80 88 89  18 33 88 89  27 25 37 90  27 25 84 90  27 85 84 90  27 39 37 90  27 85 91 90  27 39 91 90  25 29 41 92  25 29 86 92  25 84 86 92  25 37 41 92  25 84 90 92  25 37 90 92  29 31 43 93  29 31 87 93  29 86 87 93  29 41 43 93  29 86 92 93  29 41 92 93  31 33 45 94  31 33 88 94  31 87 88 94  31 43 45 94  31 87 93 94  31 43 93 94  33 35 47 95  33 35 89 95  33 88 89 95  33 45 47 95  33 88 94 95  33 45 94 95  39 37 49 96  39 37 90 96  39 91 90 96  39 51 49 96  39 91 97 96  39 51 97 96  37 41 53 98  37 41 92 98  37 90 92 98  37 49 53 98  37 90 96 98  37 49 96 98  41 43 55 99  41 43 93 99  41 92 93 99  41 53 55 99  41 92 98 99  41 53 98 99  43 45 57 100  43 45 94 100  43 93 94 100  43 55 57 100  43 93 99 100  43 55 99 100  45 47 59 101  45 47 95 101  45 94 95 101  45 57 59 101  45 94 100 101  45 57 100 101  51 49 61 102  51 49 96 102  51 97 96 102  51 63 61 102  51 97 103 102  51 63 103 102  49 53 65 104  49 53 98 104  49 96 98 104  49 61 65 104  49 96 102 104  49 61 102 104  53 55 67 105  53 55 99 105  53 98 99 105  53 65 67 105  53 98 104 105  53 65 104 105  55 57 69 106  55 57 100 106  55 99 100 106  55 67 69 106  55 99 105 106  55 67 105 106  57 59 71 107  57 59 101 107  57 100 101 107  57 69 71 107  57 100 106 107  57 69 106 107  74 73 72 108  74 73 109 108  74 110 109 108  74 75 72 108  74 110 111 108  74 75 111 108  73 77 76 112  73 77 113 112  73 109 113 112  73 72 76 112  73 109 108 112  73 72 108 112  77 79 78 114  77 79 115 114  77 113 115 114  77 76 78 114  77 113 112 114  77 76 112 114  79 81 80 116  79 81 117 116  79 115 117 116  79 78 80 116  79 115 114 116  79 78 114 116  81 83 82 118  81 83 119 118  81 117 119 118  81 80 82 118  81 117 116 118  81 80 116 118  75 72 84 120  75 72 108 120  75 111 108 120  75 85 84 120  75 111 121 120  75 85 121 120  72 76 86 122  72 76 112 122  72 108 112 122  72 84 86 122  72 108 120 122  72 84 120 122  76 78 87 123  76 78 114 123  76 112 114 123  76 86 87 123  76 112 122 123  76 86 122 123  78 80 88 124  78 80 116 124  78 114 116 124  78 87 88 124  78 114 123 124  78 87 123 124  80 82 89 125  80 82 118 125  80 116 118 125  80 88 89 125  80 116 124 125  80 88 124 125  85 84 90 126  85 84 120 126  85 121 120 126  85 91 90 126  85 121 127 126  85 91 127 126  84 86 92 128  84 86 122 128  84 120 122 128  84 90 92 128  84 120 126 128  84 90 126 128  86 87 93 129  86 87 123 129  86 122 123 129  86 92 93 129  86 122 128 129  86 92 128 129  87 88 94 130  87 88 124 130  87 123 124 130  87 93 94 130  87 123 129 130  87 93 129 130  88 89 95 131  88 89 125 131  88 124 125 131  88 94 95 131  88 124 130 131  88 94 130 131  91 90 96 132  91 90 126 132  91 127 126 132  91 97 96 132  91 127 133 132  91 97 133 132  90 92 98 134  90 92 128 134  90 126 128 134  90 96 98 134  90 126 132 134  90 96 132 134  92 93 99 135  92 93 129 135  92 128 129 135  92 98 99 135  92 128 134 135  92 98 134 135  93 94 100 136  93 94 130 136  93 129 130 136  93 99 100 136  93 129 135 136  93 99 135 136  94 95 101 137  94 95 131 137  94 130 131 137  94 100 101 137  94 130 136 137  94 100 136 137  97 96 102 138  97 96 132 138  97 133 132 138  97 103 102 138  97 133 139 138  97 103 139 138  96 98 104 140  96 98 134 140  96 132 134 140  96 102 104 140  96 132 138 140  96 102 138 140  98 99 105 141  98 99 135 141  98 134 135 141  98 104 105 141  98 134 140 141  98 104 140 141  99 100 106 142  99 100 136 142  99 135 136 142  99 105 106 142  99 135 141 142  99 105 141 142  100 101 107 143  100 101 137 143  100 136 137 143  100 106 107 143  100 136 142 143  100 106 142 143  110 109 108 144  110 109 145 144  110 146 145 144  110 111 108 144  110 146 147 144  110 111 147 144  109 113 112 148  109 113 149 148  109 145 149 148  109 108 112 148  109 145 144 148  109 108 144 148  113 115 114 150  113 115 151 150  113 149 151 150  113 112 114 150  113 149 148 150  113 112 148 150  115 117 116 152  115 117 153 152  115 151 153 152  115 114 116 152  115 151 150 152  115 114 150 152  117 119 118 154  117 119 155 154  117 153 155 154  117 116 118 154  117 153 152 154  117 116 152 154  111 108 120 156  111 108 144 156  111 147 144 156  111 121 120 156  111 147 157 156  111 121 157 156  108 112 122 158  108 112 148 158  108 144 148 158  108 120 122 158  108 144 156 158  108 120 156 158  112 114 123 159  112 114 150 159  112 148 150 159  112 122 123 159  112 148 158 159  112 122 158 159  114 116 124 160  114 116 152 160  114 150 152 160  114 123 124 160  114 150 159 160  114 123 159 160  116 118 125 161  116 118 154 161  116 152 
[...]
<PointData  Vectors="f_8-0"> 
<DataArray  type="Float64"  Name="f_8-0"  NumberOfComponents="3" format="ascii">2.8580808750487968e-01 2.1773545006987912e-02 2.1773545006987909e-02  2.8554642453255974e-01 2.2109779894983621e-02 2.2109779894983615e-02  3.1549131613110842e-01 2.1909617362891189e-02 2.4474399530166911e-02  3.4885440322755951e-01 2.4928411123426301e-02 2.4928411123426298e-02  3.1549131613110848e-01 2.4474399530166897e-02 2.1909617362891192e-02  3.1515196263079143e-01 2.4059574793378346e-02 2.1590851590265477e-02  3.1515196263079148e-01 2.1590851590265508e-02 2.4059574793378339e-02  3.4781513155265237e-01 2.4540867439225834e-02 2.4540867439225827e-02  2.8453140076032646e-01 2.1233515037163645e-02 2.1233515037163649e-02  3.1504653274582523e-01 2.1123409045568378e-02 2.3647629959802293e-02  3.4909579511748634e-01 2.4172972623121982e-02 2.4172972623121985e-02  3.1504653274582523e-01 2.3647629959802293e-02 2.1123409045568371e-02  2.8229273899227098e-01 1.8332112298272911e-02 1.8332112298272911e-02  3.1307756333329562e-01 1.8403615137608801e-02 2.0641915276030660e-02  3.4747335268601615e-01 2.1297099482519323e-02 2.1297099482519330e-02  3.1307756333329567e-01 2.0641915276030653e-02 1.8403615137608801e-02  2.7815474519405703e-01 1.1911455632913752e-02 1.1911455632913747e-02  3.0848010423282540e-01 1.2122270318976752e-02 1.3631689304605376e-02  3.4232184514049430e-01 1.4269885873385938e-02 1.4269885873385936e-02  3.0848010423282540e-01 1.3631689304605371e-02 1.2122270318976754e-02  2.7182818284590454e-01 0.0000000000000000e+00 0.0000000000000000e+00  3.0041660239464335e-01 0.0000000000000000e+00 0.0000000000000000e+00  3.3201169227365473e-01 0.0000000000000000e+00 0.0000000000000000e+00  3.0041660239464335e-01 0.0000000000000000e+00 0.0000000000000000e+00  3.4721100734394200e-01 1.9242403104189738e-02 2.5350730567037873e-02  3.8424215668943856e-01 2.2611709402618481e-02 2.6589877482346265e-02  3.4626438495967227e-01 1.9001198393700420e-02 2.4901347266077643e-02  3.8251798865846570e-01 2.2323664941219120e-02 2.6169731287052796e-02  3.4746803923374464e-01 1.8665850855327910e-02 2.4673885291015600e-02  3.8529105690946081e-01 2.2049326112342973e-02 2.5965684804390404e-02  3.4607281914996335e-01 1.6505831930959135e-02 2.1844912864603612e-02  3.8433777369012240e-01 1.9711897347761135e-02 2.3204891844029577e-02  3.4144455357225179e-01 1.1109846850784189e-02 1.4735320685997984e-02  3.7910469802910379e-01 1.3502111230598792e-02 1.5894670534487437e-02  3.3201169227365473e-01 0.0000000000000000e+00 0.0000000000000000e+00  3.6692966676192440e-01 0.0000000000000000e+00 0.0000000000000000e+00  3.8022492353797482e-01 1.4051206575085575e-02 2.3054752149571679e-02  4.2101104737542483e-01 1.7140563449606554e-02 2.4966232651635743e-02  3.7886371299503846e-01 1.3919490754535769e-02 2.2637884306808295e-02  4.1888228272274597e-01 1.6990023654749439e-02 2.4570942362407172e-02  3.8114376118801913e-01 1.3738289733971924e-02 2.2640655388724135e-02  4.2274827815088262e-01 1.6825891938288505e-02 2.4588608461050005e-02  3.8065877956982819e-01 1.2439294360268612e-02 2.0417022643509697e-02  4.2280228947696147e-01 1.5377184972020536e-02 2.2379360037410607e-02  3.7675324507669805e-01 8.7128080995190395e-03 1.4175337761218302e-02  4.1835588892083792e-01 1.0942860429031585e-02 1.5789560386728119e-02  3.6692966676192446e-01 0.0000000000000000e+00 0.0000000000000000e+00  4.0551999668446748e-01 0.0000000000000000e+00 0.0000000000000000e+00  4.1377031029495304e-01 6.9345842388826547e-03 1.5155645905462204e-02  4.5803996109758804e-01 8.8466038901947180e-03 1.6954955578701081e-02  4.1257320444615486e-01 6.9036010422451064e-03 1.4851513545122015e-02  4.5629401208576670e-01 8.8210600905597007e-03 1.6655984038776352e-02  4.1486423144745771e-01 6.8209605027991825e-03 1.5062115325628020e-02  4.5975648631832911e-01 8.7129790531703354e-03 1.6885749583887739e-02  4.1530828098499395e-01 6.3563688741392500e-03 1.3921392700629389e-02  4.6071585841769436e-01 8.1557902590810236e-03 1.5739653503040907e-02  4.1356632439035912e-01 4.9547862897699035e-03 1.0144966952856166e-02  4.5880775320551948e-01 6.4120495530308689e-03 1.1663634237974311e-02  4.0551999668446748e-01 0.0000000000000000e+00 0.0000000000000000e+00  4.4816890703380646e-01 0.0000000000000000e+00 0.0000000000000000e+00  4.4816890703380646e-01 0.0000000000000000e+00 0.0000000000000000e+00  4.9530324243951152e-01 0.0000000000000000e+00 0.0000000000000000e+00  4.4816890703380646e-01 0.0000000000000000e+00 0.0000000000000000e+00  4.9530324243951152e-01 0.0000000000000000e+00 0.0000000000000000e+00  4.4816890703380646e-01 0.0000000000000000e+00 0.0000000000000000e+00  4.9530324243951152e-01 0.0000000000000000e+00 0.0000000000000000e+00  4.4816890703380646e-01 0.0000000000000000e+00 0.0000000000000000e+00  4.9530324243951152e-01 0.0000000000000000e+00 0.0000000000000000e+00  4.4816890703380646e-01 0.0000000000000000e+00 0.0000000000000000e+00  4.9530324243951152e-01 0.0000000000000000e+00 0.0000000000000000e+00  4.4816890703380646e-01 0.0000000000000000e+00 0.0000000000000000e+00  4.9530324243951152e-01 0.0000000000000000e+00 0.0000000000000000e+00  3.8424215668943862e-01 2.6589877482346258e-02 2.2611709402618502e-02  3.4721100734394200e-01 2.5350730567037880e-02 1.9242403104189742e-02  3.4626438495967221e-01 2.4901347266077629e-02 1.9001198393700420e-02  3.8251798865846570e-01 2.6169731287052796e-02 2.2323664941219120e-02  3.8529105690946075e-01 2.5965684804390435e-02 2.2049326112342973e-02  3.4746803923374470e-01 2.4673885291015597e-02 1.8665850855327897e-02  3.8433777369012240e-01 2.3204891844029567e-02 1.9711897347761121e-02  3.4607281914996341e-01 2.1844912864603609e-02 1.6505831930959114e-02  3.7910469802910379e-01 1.5894670534487426e-02 1.3502111230598806e-02  3.4144455357225179e-01 1.4735320685997986e-02 1.1109846850784193e-02  3.6692966676192440e-01 0.0000000000000000e+00 0.0000000000000000e+00  3.3201169227365473e-01 0.0000000000000000e+00 0.0000000000000000e+00  4.2374792170798992e-01 2.5066135066372459e-02 2.5066135066372456e-02  4.2127738025478167e-01 2.4749523945736911e-02 2.4749523945736908e-02  4.2569955784408109e-01 2.4605608394697144e-02 2.4605608394697106e-02  4.2551597699910076e-01 2.2310520851755330e-02 2.2310520851755326e-02  4.2015611566526867e-01 1.5637512354626956e-02 1.5637512354626969e-02  4.0551999668446748e-01 0.0000000000000000e+00 0.0000000000000000e+00  4.6498940646458353e-01 1.9947946249758208e-02 2.4705155704785237e-02  4.6212791122110392e-01 1.9779958235055031e-02 2.4393352616182001e-02  4.6764352684970939e-01 1.9689049308774544e-02 2.4445290942358353e-02  4.6855239020849787e-01 1.8224967293907737e-02 2.2575121584631271e-02  4.6398899898881685e-01 1.3256821099841380e-02 1.6329060575657726e-02  4.4816890703380646e-01 0.0000000000000000e+00 0.0000000000000000e+00  5.0642809338198891e-01 1.0889895019490569e-02 1.7727216266729452e-02  5.0415675399366811e-01 1.0866804247730651e-02 1.7471749234894040e-02  5.0883749121638389e-01 1.0755766035917661e-02 1.7716034579890481e-02  5.1054421795581773e-01 1.0143857452178663e-02 1.6742572652645803e-02  5.0877649365750022e-01 8.0832329468355502e-03 1.2758705182060823e-02  4.9530324243951152e-01 0.0000000000000000e+00 0.0000000000000000e+00  5.4739473917271997e-01 0.0000000000000000e+00 0.0000000000000000e+00  5.4739473917271997e-01 0.0000000000000000e+00 0.0000000000000000e+00  5.4739473917271997e-01 0.0000000000000000e+00 0.0000000000000000e+00  5.4739473917271997e-01 0.0000000000000000e+00 0.0000000000000000e+00  5.4739473917271997e-01 0.0000000000000000e+00 0.0000000000000000e+00  5.4739473917271997e-01 0.0000000000000000e+00 0.0000000000000000e+00  4.2101104737542483e-01 2.4966232651635768e-02 1.7140563449606561e-02  3.8022492353797482e-01 2.3054752149571690e-02 1.4051206575085583e-02  3.7886371299503846e-01 2.2637884306808295e-02 1.3919490754535762e-02  4.1888228272274591e-01 2.4570942362407120e-02 1.6990023654749459e-02  4.2274827815088262e-01 2.4588608461050043e-02 1.6825891938288495e-02  3.8114376118801924e-01 2.2640655388724135e-02 1.3738289733971922e-02  4.2280228947696147e-01 2.2379360037410607e-02 1.5377184972020569e-02  3.8065877956982824e-01 2.0417022643509686e-02 1.2439294360268605e-02  4.1835588892083797e-01 1.5789560386728112e-02 1.0942860429031571e-02  3.7675324507669800e-01 1.4175337761218305e-02 8.7128080995190343e-03  4.0551999668446748e-01 0.0000000000000000e+00 0.0000000000000000e+00  3.6692966676192446e-01 0.0000000000000000e+00 0.0000000000000000e+00  4.6498940646458348e-01 2.4705155704785261e-02 1.9947946249758201e-02  4.6212791122110386e-01 2.4393352616182001e-02 1.9779958235055007e-02  4.6764352684970933e-01 2.4445290942358321e-02 1.9689049308774523e-02  4.6855239020849787e-01 2.2575121584631281e-02 1.8224967293907737e-02  4.6398899898881685e-01 1.6329060575657740e-02 1.3256821099841427e-02  4.4816890703380646e-01 0.0000000000000000e+00 0.0000000000000000e+00  5.1155597714475975e-01 2.1149208188397883e-02 2.1149208188397880e-02  5.0832458733557850e-01 2.0972566686968910e-02 2.0972566686968910e-02  5.1490400792689606e-01 2.1012232840026016e-02 2.1012232840026002e-02  5.1696445352503273e-01 1.9795267430171643e-02 1.9795267430171678e-02  5.1313852571753504e-01 1.4877529154904059e-02 1.4877529154904071e-02  4.9530324243951152e-01 0.0000000000000000e+00 0.0000000000000000e+00  5.5890254900276237e-01 1.2706181265643050e-02 1.6883178044557013e-02  5.5634484939071849e-01 1.2686333303357727e-02 1.6722175481344359e-02  5.6185969166172467e-01 1.2593707963981446e-02 1.6896895983812377e-02  5.6449984535310260e-01 1.2012810407012721e-02 1.6236728540883764e-02  5.6352674595683327e-01 9.8331462669084529e-03 1.2943395709879898e-02  5.4739473917272008e-01 0.0000000000000000e+00 0.0000000000000000e+00  6.0496474644129472e-01 0.0000000000000000e+00 0.0000000000000000e+00  6.0496474644129472e-01 0.0000000000000000e+00 0.0000000000000000e+00  6.0496474644129472e-01 0.0000000000000000e+00 0.0000000000000000e+00  6.0496474644129472e-01 0.0000000000000000e+00 0.0000000000000000e+00  6.0496474644129472e-01 0.0000000000000000e+00 0.0000000000000000e+00  6.0496474644129472e-01 0.0000000000000000e+00 0.0000000000000000e+00  4.5803996109758804e-01 1.6954955578701109e-02 8.8466038901947319e-03  4.1377031029495304e-01 1.5155645905462208e-02 6.9345842388826495e-03  4.1257320444615486e-01 1.4851513545122009e-02 6.9036010422450916e-03  4.5629401208576670e-01 1.6655984038776332e-02 8.8210600905597059e-03  4.5975648631832905e-01 1.6885749583887721e-02 8.7129790531703232e-03  4.1486423144745771e-01 1.5062115325628031e-02 6.8209605027991765e-03  4.6071585841769430e-01 1.5739653503040952e-02 8.1557902590810253e-03  4.1530828098499389e-01 1.3921392700629363e-02 6.3563688741392526e-03  4.5880775320551948e-01 1.1663634237974334e-02 6.4120495530308455e-03  4.1356632439035906e-01 1.0144966952856143e-02 4.9547862897698983e-03  4.4816890703380646e-01 0.0000000000000000e+00 0.0000000000000000e+00  4.0551999668446748e-01 0.0000000000000000e+00 0.0000000000000000e+00  5.0642809338198891e-01 1.7727216266729465e-02 1.0889895019490529e-02  5.0415675399366811e-01 1.7471749234894036e-02 1.0866804247730658e-02  5.0883749121638389e-01 1.7716034579890495e-02 1.0755766035917710e-02  5.1054421795581773e-01 1.6742572652645813e-02 1.0143857452178690e-02  5.0877649365750022e-01 1.2758705182060829e-02 8.0832329468355450e-03  4.9530324243951152e-01 0.0000000000000000e+00 0.0000000000000000e+00  5.5890254900276248e-01 1.6883178044557016e-02 1.2706181265643020e-02  5.5634484939071849e-01 1.6722175481344349e-02 1.2686333303357753e-02  5.6185969166172467e-01 1.6896895983812381e-02 1.2593707963981460e-02  5.6449984535310260e-01 1.6236728540883753e-02 1.2012810407012693e-02  5.6352674595683327e-01 1.2943395709879948e-02 9.8331462669084407e-03  5.4739473917272008e-01 0.0000000000000000e+00 0.0000000000000000e+00  6.1461162396447711e-01 1.2479277067080257e-02 1.2479277067080241e-02  6.1249249354537805e-01 1.2456733768183272e-02 1.2456733768183270e-02  6.1731394508648396e-01 1.2418362224607815e-02 1.2418362224607814e-02  6.2038474161833368e-01 1.2039738314436679e-02 1.2039738314436726e-02  6.2167111178497303e-01 1.0478973503206451e-02 1.0478973503206448e-02  6.0496474644129472e-01 0.0000000000000000e+00 0.0000000000000000e+00  6.6858944422792688e-01 0.0000000000000000e+00 0.0000000000000000e+00  6.6858944422792688e-01 0.0000000000000000e+00 0.0000000000000000e+00  6.6858944422792688e-01 0.0000000000000000e+00 0.0000000000000000e+00  6.6858944422792688e-01 0.0000000000000000e+00 0.0000000000000000e+00  6.6858944422792688e-01 0.0000000000000000e+00 0.0000000000000000e+00  6.6858944422792688e-01 0.0000000000000000e+00 0.0000000000000000e+00  4.9530324243951152e-01 0.0000000000000000e+00 0.0000000000000000e+00  4.4816890703380646e-01 0.0000000000000000e+00 0.0000000000000000e+00  4.4816890703380646e-01 0.0000000000000000e+00 0.0000000000000000e+00  4.9530324243951152e-01 0.0000000000000000e+00 0.0000000000000000e+00  4.9530324243951152e-01 0.0000000000000000e+00 0.0000000000000000e+00  4.4816890703380646e-01 0.0000000000000000e+00 0.0000000000000000e+00  4.9530324243951152e-01 0.0000000000000000e+00 0.0000000000000000e+00  4.4816890703380646e-01 0.0000000000000000e+00 0.0000000000000000e+00  4.9530324243951152e-01 0.0000000000000000e+00 0.0000000000000000e+00  4.4816890703380646e-01 0.0000000000000000e+00 0.0000000000000000e+00  4.9530324243951152e-01 0.0000000000000000e+00 0.0000000000000000e+00  4.4816890703380646e-01 0.0000000000000000e+00 0.0000000000000000e+00  5.4739473917271997e-01 0.0000000000000000e+00 0.0000000000000000e+00  5.4739473917271997e-01 0.0000000000000000e+00 0.0000000000000000e+00  5.4739473917271997e-01 0.0000000000000000e+00 0.0000000000000000e+00  5.4739473917271997e-01 0.0000000000000000e+00 0.0000000000000000e+00  5.4739473917271997e-01 0.0000000000000000e+00 0.0000000000000000e+00  5.4739473917271997e-01 0.0000000000000000e+00 0.0000000000000000e+00  6.0496474644129472e-01 0.0000000000000000e+00 0.0000000000000000e+00  6.0496474644129472e-01 0.0000000000000000e+00 0.0000000000000000e+00  6.0496474644129472e-01 0.0000000000000000e+00 0.0000000000000000e+00  6.0496474644129472e-01 0.0000000000000000e+00 0.0000000000000000e+00  6.0496474644129472e-01 0.0000000000000000e+00 0.0000000000000000e+00  6.0496474644129472e-01 0.0000000000000000e+00 0.0000000000000000e+00  6.6858944422792688e-01 0.0000000000000000e+00 0.0000000000000000e+00  6.6858944422792688e-01 0.0000000000000000e+00 0.0000000000000000e+00  6.6858944422792688e-01 0.0000000000000000e+00 0.0000000000000000e+00  6.6858944422792688e-01 0.0000000000000000e+00 0.0000000000000000e+00  6.6858944422792688e-01 0.0000000000000000e+00 0.0000000000000000e+00  6.6858944422792688e-01 0.0000000000000000e+00 0.0000000000000000e+00  7.3890560989306509e-01 0.0000000000000000e+00 0.0000000000000000e+00  7.3890560989306509e-01 0.0000000000000000e+00 0.0000000000000000e+00  7.3890560989306509e-01 0.0000000000000000e+00 0.0000000000000000e+00  7.3890560989306509e-01 0.0000000000000000e+00 0.0000000000000000e+00  7.3890560989306509e-01 0.0000000000000000e+00 0.0000000000000000e+00  7.3890560989306509e-01 0.0000000000000000e+00 0.0000000000000000e+00  </DataArray> 
</PointData> 
</Piece>
</UnstructuredGrid>
</VTKFile>