<?xml version="1.0"?>
<VTKFile type="UnstructuredGrid"  version="0.1"  >
<UnstructuredGrid>
<Piece  NumberOfPoints="1292" NumberOfCells="5711">
<Points>
<DataArray  type="Float64"  NumberOfComponents="3"  format="ascii">0 0 0  0.05 0 0  0.05 0.05 0  0.05 0.05 0.05  0.05 0 0.05  0 0 0.05  0 0.05 0  0 0.05 0.05  0.1 0 0  0.1 0.05 0  0.1 0.05 0.05  0.1 0 0.05  0.15 0 0  0.15 0.05 0  0.15 0.05 0.05  0.15 0 0.05  0.2 0 0  0.2 0.05 0  0.2 0.05 0.05  0.2 0 0.05  0.05 0.1 0  0.05 0.1 0.05  0 0.1 0  0 0.1 0.05  0.1 0.1 0  0.1 0.1 0.05  0.15 0.1 0  0.15 0.1 0.05  0.2 0.1 0  0.2 0.1 0.05  0.05 0.15 0  0.05 0.15 0.05  0 0.15 0  0 0.15 0.05  0.1 0.15 0  0.1 0.15 0.05  0.15 0.15 0  0.15 0.15 0.05  0.2 0.15 0  0.2 0.15 0.05  0.05 0.2 0  0.05 0.2 0.05  0 0.2 0  0 0.2 0.05  0.1 0.2 0  0.1 0.2 0.05  0.15 0.2 0  0.15 0.2 0.05  0.2 0.2 0  0.2 0.2 0.05  0.25 0.2 0  0.25 0.2 0.05  0.05 0.25 0  0.05 0.25 0.05  0 0.25 0  0 0.25 0.05  0.1 0.25 0  0.1 0.25 0.05  0.15 0.25 0  0.15 0.25 0.05  0.2 0.25 0  0.2 0.25 0.05  0.25 0.25 0  0.25 0.25 0.05  0.05 0.3 0  0.05 0.3 0.05  0 0.3 0  0 0.3 0.05  0.1 0.3 0  0.1 0.3 0.05  0.15 0.3 0  0.15 0.3 0.05  0.2 0.3 0  0.2 0.3 0.05  0.25 0.3 0  0.25 0.3 0.05  0.05 0.05 0.1  0.05 0 0.1  0 0 0.1  0 0.05 0.1  0.1 0.05 0.1  0.1 0 0.1  0.15 0.05 0.1  0.15 0 0.1  0.2 0.05 0.1  0.2 0 0.1  0.05 0.1 0.1  0 0.1 0.1  0.1 0.1 0.1  0.15 0.1 0.1  0.2 0.1 0.1  0.05 0.15 0.1  0 0.15 0.1  0.1 0.15 0.1  0.15 0.15 0.1  0.2 0.15 0.1  0.05 0.2 0.1  0 0.2 0.1  0.1 0.2 0.1  0.15 0.2 0.1  0.2 0.2 0.1  0.25 0.2 0.1  0.05 0.25 0.1  0 0.25 0.1  0.1 0.25 0.1  0.15 0.25 0.1  0.2 0.25 0.1  0.25 0.25 0.1  0.05 0.3 0.1  0 0.3 0.1  0.1 0.3 0.1  0.15 0.3 0.1  0.2 0.3 0.1  0.25 0.3 0.1  0.3 0.3 0.1  0.15 0.35 0.1  0.2 0.35 0.1  0.25 0.35 0.1  0.3 0.35 0.1  0.05 0.05 0.15  0.05 0 0.15  0 0 0.15  0 0.05 0.15  0.1 0.05 0.15  0.1 0 0.15  0.15 0.05 0.15  0.15 0 0.15  0.2 0.05 0.15  0.2 0 0.15  0.05 0.1 0.15  0 0.1 0.15  0.1 0.1 0.15  0.15 0.1 0.15  0.2 0.1 0.15  0.05 0.15 0.15  0 0.15 0.15  0.1 0.15 0.15  0.15 0.15 0.15  0.2 0.15 0.15  0.25 0.15 0.15  0.05 0.2 0.15  0 0.2 0.15  0.1 0.2 0.15  0.15 0.2 0.15  0.2 0.2 0.15  0.25 0.2 0.15  0.05 0.25 0.15  0 0.25 0.15  0.1 0.25 0.15  0.15 0.25 0.15  0.2 0.25 0.15  0.25 0.25 0.15  0.3 0.25 0.15  0.05 0.3 0.15  0 0.3 0.15  0.1 0.3 0.15  0.15 0.3 0.15  0.2 0.3 0.15  0.25 0.3 0.15  0.3 0.3 0.15  0.05 0.35 0.15  0 0.35 0.15  0.1 0.35 0.15  0.15 0.35 0.15  0.2 0.35 0.15  0.25 0.35 0.15  0.3 0.35 0.15  0.3 0.4 0.15  0.05 0.05 0.2  0.05 0 0.2  0 0 0.2  0 0.05 0.2  0.1 0.05 0.2  0.1 0 0.2  0.15 0.05 0.2  0.15 0 0.2  0.2 0.05 0.2  0.2 0 0.2  0.25 0 0.2  0.25 0.05 0.2  0.05 0.1 0.2  0 0.1 0.2  0.1 0.1 0.2  0.15 0.1 0.2  0.2 0.1 0.2  0.25 0.1 0.2  0.05 0.15 0.2  0 0.15 0.2  0.1 0.15 0.2  0.15 0.15 0.2  0.2 0.15 0.2  0.25 0.15 0.2  0.05 0.2 0.2  0 0.2 0.2  0.1 0.2 0.2  0.15 0.2 0.2  0.2 0.2 0.2  0.25 0.2 0.2  0.05 0.25 0.2  0 0.25 0.2  0.1 0.25 0.2  0.15 0.25 0.2  0.2 0.25 0.2  0.25 0.25 0.2  0.3 0.25 0.2  0.05 0.3 0.2  0 0.3 0.2  0.1 0.3 0.2  0.15 0.3 0.2  0.2 0.3 0.2  0.25 0.3 0.2  0.3 0.3 0.2  0.05 0.35 0.2  0 0.35 0.2  0.1 0.35 0.2  0.15 0.35 0.2  0.2 0.35 0.2  0.25 0.35 0.2  0.3 0.35 0.2  0.35 0.35 0.2  0.05 0.4 0.2  0 0.4 0.2  0.15 0.4 0.2  0.2 0.4 0.2  0.25 0.4 0.2  0.3 0.4 0.2  0.35 0.4 0.2  0.35 0.45 0.2  0.05 0.05 0.25  0.05 0 0.25  0 0 0.25  0 0.05 0.25  0.1 0.05 0.25  0.1 0 0.25  0.15 0.05 0.25  0.15 0 0.25  0.2 0.05 0.25  0.2 0 0.25  0.25 0.05 0.25  0.25 0 0.25  0.3 0 0.25  0.3 0.05 0.25  0.05 0.1 0.25  0 0.1 0.25  0.1 0.1 0.25  0.15 0.1 0.25  0.2 0.1 0.25  0.25 0.1 0.25  0.05 0.15 0.25  0 0.15 0.25  0.1 0.15 0.25  0.15 0.15 0.25  0.2 0.15 0.25  0.25 0.15 0.25  0.3 0.15 0.25  0.05 0.2 0.25  0 0.2 0.25  0.1 0.2 0.25  0.15 0.2 0.25  0.2 0.2 0.25  0.25 0.2 0.25  0.3 0.2 0.25  0.05 0.25 0.25  0 0.25 0.25  0.1 0.25 0.25  0.15 0.25 0.25  0.2 0.25 0.25  0.25 0.25 0.25  0.3 0.25 0.25  0.05 0.3 0.25  0 0.3 0.25  0.1 0.3 0.25  0.15 0.3 0.25  0.2 0.3 0.25  0.25 0.3 0.25  0.3 0.3 0.25  0.35 0.3 0.25  0.05 0.35 0.25  0 0.35 0.25  0.1 0.35 0.25  0.15 0.35 0.25  0.2 0.35 0.25  0.25 0.35 0.25  0.3 0.35 0.25  0.35 0.35 0.25  0.05 0.4 0.25  0 0.4 0.25  0.1 0.4 0.25  0.15 0.4 0.25  0.2 0.4 0.25  0.25 0.4 0.25  0.3 0.4 0.25  0.35 0.4 0.25  0.2 0.45 0.25  0.25 0.45 0.25  0.3 0.45 0.25  0.35 0.45 0.25  0.05 0.05 0.3  0.05 0 0.3  0 0 0.3  0 0.05 0.3  0.1 0.05 0.3  0.1 0 0.3  0.15 0.05 0.3  0.15 0 0.3  0.2 0.05 0.3  0.2 0 0.3  0.25 0.05 0.3  0.25 0 0.3  0.3 0.05 0.3  0.3 0 0.3  0.05 0.1 0.3  0 0.1 0.3  0.1 0.1 0.3  0.15 0.1 0.3  0.2 0.1 0.3  0.25 0.1 0.3  0.3 0.1 0.3  0.05 0.15 0.3  0 0.15 0.3  0.1 0.15 0.3  0.15 0.15 0.3  0.2 0.15 0.3  0.25 0.15 0.3  0.3 0.15 0.3  0.05 0.2 0.3  0 0.2 0.3  0.1 0.2 0.3  0.15 0.2 0.3  0.2 0.2 0.3  0.25 0.2 0.3  0.3 0.2 0.3  0.35 0.2 0.3  0.05 0.25 0.3  0 0.25 0.3  0.1 0.25 0.3  0.15 0.25 0.3  0.2 0.25 0.3  0.25 0.25 0.3  0.3 0.25 0.3  0.35 0.25 0.3  0.05 0.3 0.3  0 0.3 0.3  0.1 0.3 0.3  0.15 0.3 0.3  0.2 0.3 0.3  0.25 0.3 0.3  0.3 0.3 0.3  0.35 0.3 0.3  0.05 0.35 0.3  0 0.35 0.3  0.1 0.35 0.3  0.15 0.35 0.3  0.2 0.35 0.3  0.25 0.35 0.3  0.3 0.35 0.3  0.35 0.35 0.3  0.4 0.35 0.3  0.05 0.4 0.3  0 0.4 0.3  0.1 0.4 0.3  0.15 0.4 0.3  0.2 0.4 0.3  0.25 0.4 0.3  0.3 0.4 0.3  0.35 0.4 0.3  0.4 0.4 0.3  0.05 0.45 0.3  0 0.45 0.3  0.1 0.45 0.3  0.15 0.45 0.3  0.2 0.45 0.3  0.25 0.45 0.3  0.3 0.45 0.3  0.35 0.45 0.3  0.4 0.45 0.3  0.35 0.5 0.3  0.4 0.5 0.3  0.05 0.05 0.35  0.05 0 0.35  0 0 0.35  0 0.05 0.35  0.1 0.05 0.35  0.1 0 0.35  0.15 0.05 0.35  0.15 0 0.35  0.2 0.05 0.35  0.2 0 0.35  0.25 0.05 0.35  0.25 0 0.35  0.3 0.05 0.35  0.3 0 0.35  0.05 0.1 0.35  0 0.1 0.35  0.1 0.1 0.35  0.15 0.1 0.35  0.2 0.1 0.35  0.25 0.1 0.35  0.3 0.1 0.35  0.35 0.1 0.35  0.05 0.15 0.35  0 0.15 0.35  0.1 0.15 0.35  0.15 0.15 0.35  0.2 0.15 0.35  0.25 0.15 0.35  0.3 0.15 0.35  0.35 0.15 0.35  0.05 0.2 0.35  0 0.2 0.35  0.1 0.2 0.35  0.15 0.2 0.35  0.2 0.2 0.35  0.25 0.2 0.35  0.3 0.2 0.35  0.35 0.2 0.35  0.05 0.25 0.35  0 0.25 0.35  0.1 0.25 0.35  0.15 0.25 0.35  0.2 0.25 0.35  0.25 0.25 0.35  0.3 0.25 0.35  0.35 0.25 0.35  0.4 0.25 0.35  0.05 0.3 0.35  0 0.3 0.35  0.1 0.3 0.35  0.15 0.3 0.35  0.2 0.3 0.35  0.25 0.3 0.35  0.3 0.3 0.35  0.35 0.3 0.35  0.4 0.3 0.35  0.05 0.35 0.35  0 0.35 0.35  0.1 0.35 0.35  0.15 0.35 0.35  0.2 0.35 0.35  0.25 0.35 0.35  0.3 0.35 0.35  0.35 0.35 0.35  0.4 0.35 0.35  0.05 0.4 0.35  0 0.4 0.35  0.1 0.4 0.35  0.15 0.4 0.35  0.2 0.4 0.35  0.25 0.4 0.35  0.3 0.4 0.35  0.35 0.4 0.35  0.4 0.4 0.35  0.05 0.45 0.35  0 0.45 0.35  0.1 0.45 0.35  0.15 0.45 0.35  0.2 0.45 0.35  0.25 0.45 0.35  0.3 0.45 0.35  0.35 0.45 0.35  0.4 0.45 0.35  0.05 0.5 0.35  0 0.5 0.35  0.1 0.5 0.35  0.15 0.5 0.35  0.25 0.5 0.35  0.3 0.5 0.35  0.35 0.5 0.35  0.4 0.5 0.35  0.4 0.55 0.35  0.05 0.05 0.4  0.05 0 0.4  0 0 0.4  0 0.05 0.4  0.1 0.05 0.4  0.1 0 0.4  0.15 0.05 0.4  0.15 0 0.4  0.2 0.05 0.4  0.2 0 0.4  0.25 0.05 0.4  0.25 0 0.4  0.3 0.05 0.4  0.3 0 0.4  0.05 0.1 0.4  0 0.1 0.4  0.1 0.1 0.4  0.15 0.1 0.4  0.2 0.1 0.4  0.25 0.1 0.4  0.3 0.1 0.4  0.35 0.1 0.4  0.05 0.15 0.4  0 0.15 0.4  0.1 0.15 0.4  0.15 0.15 0.4  0.2 0.15 0.4  0.25 0.15 0.4  0.3 0.15 0.4  0.35 0.15 0.4  0.05 0.2 0.4  0 0.2 0.4  0.1 0.2 0.4  0.15 0.2 0.4  0.2 0.2 0.4  0.25 0.2 0.4  0.3 0.2 0.4  0.35 0.2 0.4  0.4 0.2 0.4  0.05 0.25 0.4  0 0.25 0.4  0.1 0.25 0.4  0.15 0.25 0.4  0.2 0.25 0.4  0.25 0.25 0.4  0.3 0.25 0.4  0.35 0.25 0.4  0.4 0.25 0.4  0.05 0.3 0.4  0 0.3 0.4  0.1 0.3 0.4  0.15 0.3 0.4  0.2 0.3 0.4  0.25 0.3 0.4  0.3 0.3 0.4  0.35 0.3 0.4  0.4 0.3 0.4  0.05 0.35 0.4  0 0.35 0.4  0.1 0.35 0.4  0.15 0.35 0.4  0.2 0.35 0.4  0.25 0.35 0.4  0.3 0.35 0.4  0.35 0.35 0.4  0.4 0.35 0.4  0.05 0.4 0.4  0 0.4 0.4  0.1 0.4 0.4  0.15 0.4 0.4  0.2 0.4 0.4  0.25 0.4 0.4  0.3 0.4 0.4  0.35 0.4 0.4  0.4 0.4 0.4  0.05 0.45 0.4  0 0.45 0.4  0.1 0.45 0.4  0.15 0.45 0.4  0.2 0.45 0.4  0.25 0.45 0.4  0.3 0.45 0.4  0.35 0.45 0.4  0.4 0.45 0.4  0.45 0.45 0.4  0.05 0.5 0.4  0 0.5 0.4  0.1 0.5 0.4  0.15 0.5 0.4  0.2 0.5 0.4  0.25 0.5 0.4  0.3 0.5 0.4  0.35 0.5 0.4  0.4 0.5 0.4  0.45 0.5 0.4  0.4 0.55 0.4  0.45 0.55 0.4  0.05 0.05 0.45  0.05 0 0.45  0 0 0.45  0 0.05 0.45  0.1 0.05 0.45  0.1 0 0.45  0.15 0.05 0.45  0.15 0 0.45  0.2 0.05 0.45  0.2 0 0.45  0.25 0.05 0.45  0.25 0 0.45  0.3 0.05 0.45  0.3 0 0.45  0.05 0.1 0.45  0 0.1 0.45  0.1 0.1 0.45  0.15 0.1 0.45  0.2 0.1 0.45  0.25 0.1 0.45  0.3 0.1 0.45  0.35 0.1 0.45  0.05 0.15 0.45  0 0.15 0.45  0.1 0.15 0.45  0.15 0.15 0.45  0.2 0.15 0.45  0.25 0.15 0.45  0.3 0.15 0.45  0.35 0.15 0.45  0.05 0.2 0.45  0 0.2 0.45  0.1 0.2 0.45  0.15 0.2 0.45  0.2 0.2 0.45  0.25 0.2 0.45  0.3 0.2 0.45  0.35 0.2 0.45  0.4 0.2 0.45  0.05 0.25 0.45  0 0.25 0.45  0.1 0.25 0.45  0.15 0.25 0.45  0.2 0.25 0.45  0.25 0.25 0.45  0.3 0.25 0.45  0.35 0.25 0.45  0.4 0.25 0.45  0.05 0.3 0.45  0 0.3 0.45  0.1 0.3 0.45  0.15 0.3 0.45  0.2 0.3 0.45  0.25 0.3 0.45  0.3 0.3 0.45  0.35 0.3 0.45  0.4 0.3 0.45  0.05 0.35 0.45  0 0.35 0.45  0.1 0.35 0.45  0.15 0.35 0.45  0.2 0.35 0.45  0.25 0.35 0.45  0.3 0.35 0.45  0.35 0.35 0.45  0.4 0.35 0.45  0.45 0.35 0.45  0.05 0.4 0.45  0 0.4 0.45  0.1 0.4 0.45  0.15 0.4 0.45  0.2 0.4 0.45  0.25 0.4 0.45  0.3 0.4 0.45  0.35 0.4 0.45  0.4 0.4 0.45  0.45 0.4 0.45  0.05 0.45 0.45  0 0.45 0.45  0.1 0.45 0.45  0.15 0.45 0.45  0.2 0.45 0.45  0.25 0.45 0.45  0.3 0.45 0.45  0.35 0.45 0.45  0.4 0.45 0.45  0.45 0.45 0.45  0.05 0.5 0.45  0 0.5 0.45  0.1 0.5 0.45  0.15 0.5 0.45  0.2 0.5 0.45  0.25 0.5 0.45  0.3 0.5 0.45  0.35 0.5 0.45  0.4 0.5 0.45  0.45 0.5 0.45  0.45 0.55 0.45  0.05 0.05 0.5  0.05 0 0.5  0 0 0.5  0 0.05 0.5  0.1 0.05 0.5  0.1 0 0.5  0.15 0.05 0.5  0.15 0 0.5  0.2 0.05 0.5  0.2 0 0.5  0.25 0.05 0.5  0.25 0 0.5  0.3 0.05 0.5  0.3 0 0.5  0.35 0 0.5  0.35 0.05 0.5  0.05 0.1 0.5  0 0.1 0.5  0.1 0.1 0.5  0.15 0.1 0.5  0.2 0.1 0.5  0.25 0.1 0.5  0.3 0.1 0.5  0.35 0.1 0.5  0.05 0.15 0.5  0 0.15 0.5  0.1 0.15 0.5  0.15 0.15 0.5  0.2 0.15 0.5  0.25 0.15 0.5  0.3 0.15 0.5  0.35 0.15 0.5  0.4 0.15 0.5  0.05 0.2 0.5  0 0.2 0.5  0.1 0.2 0.5  0.15 0.2 0.5  0.2 0.2 0.5  0.25 0.2 0.5  0.3 0.2 0.5  0.35 0.2 0.5  0.4 0
[...]
<PointData  Vectors="f_8-0"> 
<DataArray  type="Float64"  Name="f_8-0"  NumberOfComponents="3" format="ascii">1.0000000000000001e-01 0.0000000000000000e+00 0.0000000000000000e+00  1.0000000000000001e-01 0.0000000000000000e+00 0.0000000000000000e+00  1.0512710963760241e-01 0.0000000000000000e+00 0.0000000000000000e+00  1.1051711850586013e-01 -3.7604355123184350e-09 -3.7604355145654993e-09  1.0512710963760241e-01 0.0000000000000000e+00 0.0000000000000000e+00  1.0512710963760241e-01 0.0000000000000000e+00 0.0000000000000000e+00  1.0512710963760241e-01 0.0000000000000000e+00 0.0000000000000000e+00  1.1051709180756478e-01 0.0000000000000000e+00 0.0000000000000000e+00  1.0000000000000001e-01 0.0000000000000000e+00 0.0000000000000000e+00  1.0512710963760241e-01 0.0000000000000000e+00 0.0000000000000000e+00  1.1051711679904365e-01 -5.0248765228451815e-09 -5.0248765273076423e-09  1.0512710963760241e-01 0.0000000000000000e+00 0.0000000000000000e+00  1.0000000000000001e-01 0.0000000000000000e+00 0.0000000000000000e+00  1.0512710963760241e-01 0.0000000000000000e+00 0.0000000000000000e+00  1.1051711531111749e-01 -5.3542168369609816e-09 -5.3542168355674420e-09  1.0512710963760241e-01 0.0000000000000000e+00 0.0000000000000000e+00  1.0000000000000001e-01 0.0000000000000000e+00 0.0000000000000000e+00  1.0512710963760241e-01 0.0000000000000000e+00 0.0000000000000000e+00  1.1051711447324723e-01 -5.4713030333657011e-09 -5.4713030292346205e-09  1.0512710963760241e-01 0.0000000000000000e+00 0.0000000000000000e+00  1.1051709180756478e-01 0.0000000000000000e+00 0.0000000000000000e+00  1.1618345227277690e-01 -4.3635822305617811e-09 -3.2893272510947336e-09  1.1051709180756478e-01 0.0000000000000000e+00 0.0000000000000000e+00  1.1618342427282831e-01 0.0000000000000000e+00 0.0000000000000000e+00  1.1051709180756478e-01 0.0000000000000000e+00 0.0000000000000000e+00  1.1618345124026250e-01 -4.8754083990438687e-09 -5.0306221120495747e-09  1.1051709180756478e-01 0.0000000000000000e+00 0.0000000000000000e+00  1.1618344979254586e-01 -5.2331836108182538e-09 -5.5232131973847587e-09  1.1051709180756478e-01 0.0000000000000000e+00 0.0000000000000000e+00  1.1618344882852982e-01 -5.4719943569392562e-09 -5.7195287875336169e-09  1.1618342427282831e-01 0.0000000000000000e+00 0.0000000000000000e+00  1.2214030513232373e-01 -4.9501419755531827e-09 -3.4415047901149444e-09  1.1618342427282831e-01 0.0000000000000000e+00 0.0000000000000000e+00  1.2214027581601700e-01 0.0000000000000000e+00 0.0000000000000000e+00  1.1618342427282831e-01 0.0000000000000000e+00 0.0000000000000000e+00  1.2214030416175604e-01 -5.1372119176945882e-09 -5.3404837579699552e-09  1.1618342427282831e-01 0.0000000000000000e+00 0.0000000000000000e+00  1.2214030286252105e-01 -5.3017501274486302e-09 -5.9395259860578559e-09  1.1618342427282831e-01 0.0000000000000000e+00 0.0000000000000000e+00  1.2214030197942032e-01 -5.5210617393460503e-09 -6.1956169136510890e-09  1.2214027581601700e-01 0.0000000000000000e+00 0.0000000000000000e+00  1.2840257241305406e-01 -5.6104900251467606e-09 -3.7829673834954723e-09  1.2214027581601700e-01 0.0000000000000000e+00 0.0000000000000000e+00  1.2840254166877416e-01 0.0000000000000000e+00 0.0000000000000000e+00  1.2214027581601700e-01 0.0000000000000000e+00 0.0000000000000000e+00  1.2840257139054226e-01 -5.6764609724430995e-09 -5.7826350100730356e-09  1.2214027581601700e-01 0.0000000000000000e+00 0.0000000000000000e+00  1.2840257011434936e-01 -5.6908654384142424e-09 -6.4439329410351247e-09  1.2214027581601700e-01 0.0000000000000000e+00 0.0000000000000000e+00  1.2840256929910485e-01 -5.8365696629251608e-09 -6.7446063973751818e-09  1.2214027581601700e-01 0.0000000000000000e+00 0.0000000000000000e+00  1.2840256881393852e-01 -5.9977963524095843e-09 -6.8911177546543499e-09  1.2840254166877416e-01 0.0000000000000000e+00 0.0000000000000000e+00  1.3498591302527618e-01 -6.3323827329278868e-09 -4.2291646816193989e-09  1.2840254166877416e-01 0.0000000000000000e+00 0.0000000000000000e+00  1.3498588075760032e-01 0.0000000000000000e+00 0.0000000000000000e+00  1.2840254166877416e-01 0.0000000000000000e+00 0.0000000000000000e+00  1.3498591193555765e-01 -6.3630807500592168e-09 -6.3286223688502603e-09  1.2840254166877416e-01 0.0000000000000000e+00 0.0000000000000000e+00  1.3498591061765408e-01 -6.2846261599634149e-09 -7.0365674017162366e-09  1.2840254166877416e-01 0.0000000000000000e+00 0.0000000000000000e+00  1.3498590982450034e-01 -6.3589881951332626e-09 -7.3716910573233490e-09  1.2840254166877416e-01 0.0000000000000000e+00 0.0000000000000000e+00  1.3498590938833332e-01 -6.4799266307479765e-09 -7.5426298607343017e-09  1.3498588075760032e-01 0.0000000000000000e+00 0.0000000000000000e+00  1.4190678873612708e-01 -7.1193148049578627e-09 -4.7564187740400276e-09  1.3498588075760032e-01 0.0000000000000000e+00 0.0000000000000000e+00  1.4190675485932572e-01 0.0000000000000000e+00 0.0000000000000000e+00  1.3498588075760032e-01 0.0000000000000000e+00 0.0000000000000000e+00  1.4190678758273254e-01 -7.1526972465700971e-09 -6.9641682117298671e-09  1.3498588075760032e-01 0.0000000000000000e+00 0.0000000000000000e+00  1.4190678619711128e-01 -7.0182621971184580e-09 -7.7149195262497304e-09  1.3498588075760032e-01 0.0000000000000000e+00 0.0000000000000000e+00  1.4190678539493282e-01 -7.0357447819037092e-09 -8.0797858499221762e-09  1.3498588075760032e-01 0.0000000000000000e+00 0.0000000000000000e+00  1.4190678498643597e-01 -7.1102899652050142e-09 -8.2722530184394994e-09  1.1618345227277690e-01 -3.2893272465742210e-09 -4.3635822377011571e-09  1.1051709180756478e-01 0.0000000000000000e+00 0.0000000000000000e+00  1.1051709180756478e-01 0.0000000000000000e+00 0.0000000000000000e+00  1.1618342427282831e-01 0.0000000000000000e+00 0.0000000000000000e+00  1.1618345124026248e-01 -5.0306221092243840e-09 -4.8754084082599825e-09  1.1051709180756478e-01 0.0000000000000000e+00 0.0000000000000000e+00  1.1618344979254586e-01 -5.5232131873793598e-09 -5.2331836134353176e-09  1.1051709180756478e-01 0.0000000000000000e+00 0.0000000000000000e+00  1.1618344882852984e-01 -5.7195287914716641e-09 -5.4719943624328538e-09  1.1051709180756478e-01 0.0000000000000000e+00 0.0000000000000000e+00  1.2214030534285612e-01 -4.5481627902828085e-09 -4.5481627892507005e-09  1.2214027581601700e-01 0.0000000000000000e+00 0.0000000000000000e+00  1.2214030603810674e-01 -5.4597792240449523e-09 -5.4597792276147073e-09  1.2214030480598276e-01 -6.1120308127300717e-09 -6.1120308175456426e-09  1.2214030370068500e-01 -6.5115270633325133e-09 -6.5115270657655989e-09  1.2840257264748295e-01 -5.5060696320203241e-09 -4.7927869174811373e-09  1.2840254166877416e-01 0.0000000000000000e+00 0.0000000000000000e+00  1.2840257370694338e-01 -6.0861998042477245e-09 -5.8529485693688448e-09  1.2840257283327372e-01 -6.5124798946118975e-09 -6.6772612158189232e-09  1.2840257189007004e-01 -6.9146830312300403e-09 -7.2007263259891553e-09  1.3498591324313647e-01 -6.3947148381243901e-09 -5.1590265230334218e-09  1.3498588075760032e-01 0.0000000000000000e+00 0.0000000000000000e+00  1.3498591444852978e-01 -6.8779815628066819e-09 -6.2746778697365524e-09  1.3498591372462782e-01 -7.1255866472751837e-09 -7.2050892586303974e-09  1.3498591293724241e-01 -7.4425416979926878e-09 -7.8219561574612078e-09  1.3498591237373939e-01 -7.7399728322225194e-09 -8.2066847439907544e-09  1.4190678894147882e-01 -7.3038389168409187e-09 -5.6506469695461989e-09  1.4190675485932572e-01 0.0000000000000000e+00 0.0000000000000000e+00  1.4190679024562203e-01 -7.7998557623541210e-09 -6.8060045288594685e-09  1.4190678956825395e-01 -7.9446002940974932e-09 -7.8109337232359716e-09  1.4190678887061262e-01 -8.1733681728343842e-09 -8.5018248791413796e-09  1.4190678841263565e-01 -8.4208461527165980e-09 -8.9461457237460455e-09  1.4918250552915291e-01 -8.2698261315756096e-09 -6.2505036233873123e-09  1.4918246976412705e-01 0.0000000000000000e+00 0.0000000000000000e+00  1.4918250693279178e-01 -8.8317158993803918e-09 -7.4500126622933196e-09  1.4918250625839460e-01 -8.9263957290328521e-09 -8.5187967858305977e-09  1.4918250560232721e-01 -9.0849860884254359e-09 -9.2735490890997375e-09  1.4918250521859205e-01 -9.2695241669386383e-09 -9.7714665007044221e-09  1.4918250507858677e-01 -9.4281520093537159e-09 -1.0093797832990938e-08  1.5683125690989186e-01 -1.0044293770111678e-08 -9.3364864679035042e-09  1.5683125626862318e-01 -1.0148070299620986e-08 -1.0150892672924519e-08  1.5683125593411837e-01 -1.0264852752734369e-08 -1.0698690616361159e-08  1.5683125586173544e-01 -1.0351788894191731e-08 -1.1059682514980323e-08  1.2214030513232373e-01 -3.4415047954723318e-09 -4.9501419781408824e-09  1.1618342427282831e-01 0.0000000000000000e+00 0.0000000000000000e+00  1.1618342427282831e-01 0.0000000000000000e+00 0.0000000000000000e+00  1.2214027581601700e-01 0.0000000000000000e+00 0.0000000000000000e+00  1.2214030416175606e-01 -5.3404837596153175e-09 -5.1372119219267371e-09  1.1618342427282831e-01 0.0000000000000000e+00 0.0000000000000000e+00  1.2214030286252106e-01 -5.9395259902466142e-09 -5.3017501250623440e-09  1.1618342427282831e-01 0.0000000000000000e+00 0.0000000000000000e+00  1.2214030197942033e-01 -6.1956169151642753e-09 -5.5210617433258487e-09  1.1618342427282831e-01 0.0000000000000000e+00 0.0000000000000000e+00  1.2840257264748295e-01 -4.7927869133425012e-09 -5.5060696361127390e-09  1.2840254166877416e-01 0.0000000000000000e+00 0.0000000000000000e+00  1.2840257370694338e-01 -5.8529485641696375e-09 -6.0861998065280588e-09  1.2840257283327372e-01 -6.6772612130145418e-09 -6.5124798957214958e-09  1.2840257189007004e-01 -7.2007263316441424e-09 -6.9146830361426089e-09  1.3498591329145868e-01 -6.0096384991972248e-09 -6.0096384990211230e-09  1.3498588075760032e-01 0.0000000000000000e+00 0.0000000000000000e+00  1.3498591488369310e-01 -6.7637462548728147e-09 -6.7637462534964564e-09  1.3498591454757033e-01 -7.3798430934104362e-09 -7.3798430976169441e-09  1.3498591387203843e-01 -7.9393678356536390e-09 -7.9393678335479432e-09  1.3498591330569351e-01 -8.3604941381087539e-09 -8.3604941376528119e-09  1.4190678898200718e-01 -7.1281887011057419e-09 -6.5086963404111492e-09  1.4190675485932572e-01 0.0000000000000000e+00 0.0000000000000000e+00  1.4190679082670682e-01 -7.8343963747896325e-09 -7.3295649886079483e-09  1.4190679076629445e-01 -8.2855490358204665e-09 -8.0672120337382273e-09  1.4190679034418247e-01 -8.7727860404265580e-09 -8.7515709028931735e-09  1.4190678996744324e-01 -9.2008141245314963e-09 -9.2734185813968677e-09  1.4918250555984086e-01 -8.2340759853954717e-09 -7.0992928529438492e-09  1.4918246976412705e-01 0.0000000000000000e+00 0.0000000000000000e+00  1.4918250757979848e-01 -9.0116889933136708e-09 -7.9528194068880691e-09  1.4918250766302002e-01 -9.3790862667399909e-09 -8.7718660511918285e-09  1.4918250741287636e-01 -9.7866388832813391e-09 -9.5563383551449302e-09  1.4918250720657103e-01 -1.0171430800958958e-08 -1.0167532812937527e-08  1.4918250714132242e-01 -1.0482282829643976e-08 -1.0602726146113244e-08  1.5683125610255139e-01 -9.3830994660953083e-09 -7.8015428396442678e-09  1.5683121854901688e-01 0.0000000000000000e+00 0.0000000000000000e+00  1.5683125828653185e-01 -1.0289045435112905e-08 -8.6846626287733135e-09  1.5683125845468876e-01 -1.0632465875858673e-08 -9.5676485044925326e-09  1.5683125831615774e-01 -1.0978673206537841e-08 -1.0437709293380966e-08  1.5683125824215680e-01 -1.1301578998614177e-08 -1.1129713460074747e-08  1.5683125831033648e-01 -1.1557204758150724e-08 -1.1630991717565514e-08  1.6487216646398661e-01 -1.0609113315763271e-08 -8.6203990075814530e-09  1.6487212707001284e-01 0.0000000000000000e+00 0.0000000000000000e+00  1.6487216882228933e-01 -1.1674412820716768e-08 -9.5417339160552728e-09  1.6487216905274421e-01 -1.2029106222723530e-08 -1.0483535556322217e-08  1.6487216899111817e-01 -1.2330637493963823e-08 -1.1431999840545240e-08  1.6487216901776927e-01 -1.2583251462003626e-08 -1.2199016085037827e-08  1.6487216919640268e-01 -1.2756749695491415e-08 -1.2762521283577574e-08  1.7332534631527921e-01 -1.4066237015085883e-08 -1.4016628772219913e-08  1.2840257241305408e-01 -3.7829673809659498e-09 -5.6104900230816438e-09  1.2214027581601700e-01 0.0000000000000000e+00 0.0000000000000000e+00  1.2214027581601700e-01 0.0000000000000000e+00 0.0000000000000000e+00  1.2840254166877416e-01 0.0000000000000000e+00 0.0000000000000000e+00  1.2840257139054226e-01 -5.7826350165696393e-09 -5.6764609735142033e-09  1.2214027581601700e-01 0.0000000000000000e+00 0.0000000000000000e+00  1.2840257011434936e-01 -6.4439329425066682e-09 -5.6908654416189783e-09  1.2214027581601700e-01 0.0000000000000000e+00 0.0000000000000000e+00  1.2840256929910485e-01 -6.7446063930368983e-09 -5.8365696684642005e-09  1.2214027581601700e-01 0.0000000000000000e+00 0.0000000000000000e+00  1.2214027581601700e-01 0.0000000000000000e+00 0.0000000000000000e+00  1.2840256881393852e-01 -6.8911177518105178e-09 -5.9977963552179246e-09  1.3498591324313647e-01 -5.1590265158602753e-09 -6.3947148366672237e-09  1.3498588075760032e-01 0.0000000000000000e+00 0.0000000000000000e+00  1.3498591444852978e-01 -6.2746778644674193e-09 -6.8779815626049665e-09  1.3498591372462782e-01 -7.2050892582664296e-09 -7.1255866452490470e-09  1.3498591293724241e-01 -7.8219561542630810e-09 -7.4425416927850647e-09  1.3498591237373939e-01 -8.2066847374397255e-09 -7.7399728373518714e-09  1.4190678898200720e-01 -6.5086963356717426e-09 -7.1281887003366484e-09  1.4190675485932572e-01 0.0000000000000000e+00 0.0000000000000000e+00  1.4190679082670685e-01 -7.3295649873919597e-09 -7.8343963732488498e-09  1.4190679076629448e-01 -8.0672120342358129e-09 -8.2855490386428548e-09  1.4190679034418247e-01 -8.7515709037360325e-09 -8.7727860458134659e-09  1.4190678996744324e-01 -9.2734185786195393e-09 -9.2008141327694757e-09  1.4918250555188226e-01 -7.8041852850730058e-09 -7.8041852891056949e-09  1.4918246976412705e-01 0.0000000000000000e+00 0.0000000000000000e+00  1.4918250772268390e-01 -8.6177864234027357e-09 -8.6177864259081119e-09  1.4918250803255154e-01 -9.2101947974175325e-09 -9.2101947998942386e-09  1.4918250795213944e-01 -9.8428521361962854e-09 -9.8428521385980292e-09  1.4918250783384437e-01 -1.0393281579814300e-08 -1.0393281582444388e-08  1.5683125608318357e-01 -9.0921317155985024e-09 -8.5384759178940156e-09  1.5683121854901691e-01 0.0000000000000000e+00 0.0000000000000000e+00  1.5683125848425500e-01 -1.0030806222258368e-08 -9.4118164614200791e-09  1.5683125901074757e-01 -1.0565930869528760e-08 -1.0101085313928454e-08  1.5683125917706811e-01 -1.1136785642324225e-08 -1.0853647102877024e-08  1.5683125929350636e-01 -1.1658553476594984e-08 -1.1515639073172451e-08  1.5683125947046930e-01 -1.2073680884630258e-08 -1.2027350012642832e-08  1.6487216643374794e-01 -1.0421687298806537e-08 -9.3770062137004822e-09  1.6487212707001284e-01 0.0000000000000000e+00 0.0000000000000000e+00  1.6487216904366528e-01 -1.1547494118051830e-08 -1.0298327841667158e-08  1.6487216971471830e-01 -1.2090203180817258e-08 -1.1062227877007024e-08  1.6487217005663776e-01 -1.2617966889791346e-08 -1.1917467804679821e-08  1.6487217036317414e-01 -1.3088282959294209e-08 -1.2681345007560959e-08  1.6487217072192520e-01 -1.3453045506661022e-08 -1.3279264675602587e-08  1.7332534306089170e-01 -1.1829960421646243e-08 -1.0339925528079926e-08  1.7332530178673955e-01 0.0000000000000000e+00 0.0000000000000000e+00  1.7332534588474374e-01 -1.3176130155699749e-08 -1.1314848576112656e-08  1.7332534666998375e-01 -1.3765046439044792e-08 -1.2144812130015260e-08  1.7332534714526995e-01 -1.4267009222891639e-08 -1.3093007249415215e-08  1.7332534760421761e-01 -1.4674578139598238e-08 -1.3951230159729963e-08  1.7332534811750630e-01 -1.4956451782817603e-08 -1.4630449291464458e-08  1.7332534868099411e-01 -1.5098262612751080e-08 -1.5118072328968571e-08  1.8221192330309516e-01 -1.3344979607499466e-08 -1.1439396429186530e-08  1.8221188003905092e-01 0.0000000000000000e+00 0.0000000000000000e+00  1.8221192724776153e-01 -1.5587340160810944e-08 -1.3375682753662492e-08  1.8221192783485407e-01 -1.6070078181308212e-08 -1.4411320096268857e-08  1.8221192842003089e-01 -1.6401960713511535e-08 -1.5357303594224841e-08  1.8221192906234912e-01 -1.6571074627945077e-08 -1.6111350663979602e-08  1.8221192974393338e-01 -1.6576504226293743e-08 -1.6655779938743202e-08  1.9155413544592079e-01 -1.8106979789627458e-08 -1.8325199514288555e-08  1.3498591302527618e-01 -4.2291646792850000e-09 -6.3323827361804966e-09  1.2840254166877416e-01 0.0000000000000000e+00 0.0000000000000000e+00  1.2840254166877416e-01 0.0000000000000000e+00 0.0000000000000000e+00  1.3498588075760032e-01 0.0000000000000000e+00 0.0000000000000000e+00  1.3498591193555765e-01 -6.3286223671427949e-09 -6.3630807495691081e-09  1.2840254166877416e-01 0.0000000000000000e+00 0.0000000000000000e+00  1.3498591061765408e-01 -7.0365673962798551e-09 -6.2846261636966622e-09  1.2840254166877416e-01 0.0000000000000000e+00 0.0000000000000000e+00  1.3498590982450037e-01 -7.3716910492523931e-09 -6.3589882012135488e-09  1.2840254166877416e-01 0.0000000000000000e+00 0.0000000000000000e+00  1.3498590938833332e-01 -7.5426298570217282e-09 -6.4799266355320086e-09  1.2840254166877416e-01 0.0000000000000000e+00 0.0000000000000000e+00  1.2840254166877416e-01 0.0000000000000000e+00 0.0000000000000000e+00  1.3498590917644254e-01 -7.6350529331656897e-09 -6.5932666985153197e-09  1.4190678894147879e-01 -5.6506469570269593e-09 -7.3038389181619394e-09  1.4190675485932572e-01 0.0000000000000000e+00 0.0000000000000000e+00  1.4190679024562206e-01 -6.8060045290501584e-09 -7.7998557741476155e-09  1.4190678956825395e-01 -7.8109337118547158e-09 -7.9446003012411822e-09  1.4190678887061262e-01 -8.5018248766369547e-09 -8.1733681705926503e-09  1.4190678841263563e-01 -8.9461457171555072e-09 -8.4208461590888119e-09  1.4918250555984086e-01 -7.0992928542564078e-09 -8.2340759786966389e-09  1.4918246976412705e-01 0.0000000000000000e+00 0.0000000000000000e+00  1.4918250757979848e-01 -7.9528194072077777e-09 -9.0116890024486846e-09  1.4918250766302002e-01 -8.7718660569535865e-09 -9.3790862665059699e-09  1.4918250741287634e-01 -9.5563383538078821e-09 -9.7866388879057320e-09  1.4918250720657103e-01 -1.0167532806630250e-08 -1.0171430809896997e-08  1.4918250714132242e-01 -1.0602726144476111e-08 -1.0482282831991574e-08  1.5683125608318357e-01 -8.5384759157697513e-09 -9.0921317213385188e-09  1.5683121854901691e-01 0.0000000000000000e+00 0.0000000000000000e+00  1.5683125848425500e-01 -9.4118164526809292e-09 -1.0030806220719983e-08  1.5683125901074760e-01 -1.0101085314651233e-08 -1.0565930874145927e-08  1.5683125917706811e-01 -1.0853647103695819e-08 -1.1136785641020463e-08  1.5683125929350636e-01 -1.1515639075873240e-08 -1.1658553481982640e-08  1.5683125947046928e-01 -1.2027350005961916e-08 -1.2073680889571038e-08  1.6487216642242289e-01 -9.9941139642758974e-09 -9.9941139671268664e-09  1.6487212707001284e-01 0.0000000000000000e+00 0.0000000000000000e+00  1.6487216909554367e-01 -1.1037861351421701e-08 -1.1037861351630547e-08  1.6487216989472780e-01 -1.1694845214034501e-08 -1.1694845212241686e-08  1.6487217037058510e-01 -1.2405392398080342e-08 -1.2405392393947190e-08  1.6487217078039187e-01 -1.3056142727724992e-08 -1.3056142728975133e-08  1.6487217120867559e-01 -1.3575787510706343e-08 -1.3575787517485439e-08  1.7332534303863512e-01 -1.1503472152745976e-08 -1.0995905017795698e-08  1.7332530178673955e-01 0.0000000000000000e+00 0.0000000000000000e+00  1.7332534595433000e-01 -1.2788538132757416e-08 -1.2126760761056371e-08  1.7332534694254645e-01 -1.3484635948145344e-08 -1.2880268810008377e-08  1.7332534764668459e-01 -1.4173390850080133e-08 -1.3712353568163070e-08  1.7332534829854243e-01 -1.4787456767906592e-08 -1.4482713307901030e-08  1.7332534895439589e-01 -1.5266110655252381e-08 -1.5103903656866609e-08  1.7332534961943871e-01 -1.5584888295723095e-08 -1.5548071171651817e-08  1.8221192326875862e-01 -1.3100475916712249e-08 -1.2128059735318672e-08  1.8221188003905089e-01 0.0000000000000000e+00 0.0000000000000000e+00  1.