<?xml version="1.0"?>
<VTKFile type="UnstructuredGrid"  version="0.1"  >
<UnstructuredGrid>
<Piece  NumberOfPoints="1352" NumberOfCells="5958">
<Points>
<DataArray  type="Float64"  NumberOfComponents="3"  format="ascii">0.2 0 0  0.25 0 0  0.25 0.05 0  0.25 0.05 0.05  0.25 0 0.05  0.2 0 0.05  0.2 0.05 0  0.2 0.05 0.05  0.3 0 0  0.3 0.05 0  0.3 0.05 0.05  0.3 0 0.05  0.35 0 0  0.35 0.05 0  0.35 0.05 0.05  0.35 0 0.05  0.4 0 0  0.4 0.05 0  0.4 0.05 0.05  0.4 0 0.05  0.45 0 0  0.45 0.05 0  0.45 0.05 0.05  0.45 0 0.05  0.5 0 0  0.5 0.05 0  0.5 0.05 0.05  0.5 0 0.05  0.55 0 0  0.55 0.05 0  0.55 0.05 0.05  0.55 0 0.05  0.6 0 0  0.6 0.05 0  0.6 0.05 0.05  0.6 0 0.05  0.65 0 0  0.65 0.05 0  0.65 0.05 0.05  0.65 0 0.05  0.7 0 0  0.7 0.05 0  0.7 0.05 0.05  0.7 0 0.05  0.75 0 0  0.75 0.05 0  0.75 0.05 0.05  0.75 0 0.05  0.8 0 0  0.8 0.05 0  0.8 0.05 0.05  0.8 0 0.05  0.85 0 0  0.85 0.05 0  0.85 0.05 0.05  0.85 0 0.05  0.9 0 0  0.9 0.05 0  0.9 0.05 0.05  0.9 0 0.05  0.95 0 0  0.95 0.05 0  0.95 0.05 0.05  0.95 0 0.05  1 0 0  1 0.05 0  1 0.05 0.05  1 0 0.05  0.25 0.1 0  0.25 0.1 0.05  0.2 0.1 0  0.2 0.1 0.05  0.3 0.1 0  0.3 0.1 0.05  0.35 0.1 0  0.35 0.1 0.05  0.4 0.1 0  0.4 0.1 0.05  0.45 0.1 0  0.45 0.1 0.05  0.5 0.1 0  0.5 0.1 0.05  0.55 0.1 0  0.55 0.1 0.05  0.6 0.1 0  0.6 0.1 0.05  0.65 0.1 0  0.65 0.1 0.05  0.7 0.1 0  0.7 0.1 0.05  0.75 0.1 0  0.75 0.1 0.05  0.8 0.1 0  0.8 0.1 0.05  0.85 0.1 0  0.85 0.1 0.05  0.9 0.1 0  0.9 0.1 0.05  0.95 0.1 0  0.95 0.1 0.05  1 0.1 0  1 0.1 0.05  0.25 0.15 0  0.25 0.15 0.05  0.2 0.15 0  0.2 0.15 0.05  0.3 0.15 0  0.3 0.15 0.05  0.35 0.15 0  0.35 0.15 0.05  0.4 0.15 0  0.4 0.15 0.05  0.45 0.15 0  0.45 0.15 0.05  0.5 0.15 0  0.5 0.15 0.05  0.55 0.15 0  0.55 0.15 0.05  0.6 0.15 0  0.6 0.15 0.05  0.65 0.15 0  0.65 0.15 0.05  0.7 0.15 0  0.7 0.15 0.05  0.75 0.15 0  0.75 0.15 0.05  0.8 0.15 0  0.8 0.15 0.05  0.85 0.15 0  0.85 0.15 0.05  0.9 0.15 0  0.9 0.15 0.05  0.95 0.15 0  0.95 0.15 0.05  1 0.15 0  1 0.15 0.05  0.25 0.2 0.05  0.3 0.2 0.05  0.35 0.2 0.05  0.4 0.2 0  0.4 0.2 0.05  0.45 0.2 0  0.45 0.2 0.05  0.5 0.2 0  0.5 0.2 0.05  0.55 0.2 0  0.55 0.2 0.05  0.6 0.2 0  0.6 0.2 0.05  0.65 0.2 0  0.65 0.2 0.05  0.7 0.2 0  0.7 0.2 0.05  0.75 0.2 0  0.75 0.2 0.05  0.8 0.2 0  0.8 0.2 0.05  0.85 0.2 0  0.85 0.2 0.05  0.9 0.2 0  0.9 0.2 0.05  0.95 0.2 0  0.95 0.2 0.05  1 0.2 0  1 0.2 0.05  0.55 0.25 0.05  0.6 0.25 0  0.6 0.25 0.05  0.55 0.25 0  0.65 0.25 0  0.65 0.25 0.05  0.7 0.25 0  0.7 0.25 0.05  0.75 0.25 0  0.75 0.25 0.05  0.8 0.25 0  0.8 0.25 0.05  0.85 0.25 0  0.85 0.25 0.05  0.9 0.25 0  0.9 0.25 0.05  0.95 0.25 0  0.95 0.25 0.05  1 0.25 0  1 0.25 0.05  0.6 0.3 0.05  0.65 0.3 0  0.65 0.3 0.05  0.6 0.3 0  0.7 0.3 0  0.7 0.3 0.05  0.75 0.3 0  0.75 0.3 0.05  0.8 0.3 0  0.8 0.3 0.05  0.85 0.3 0  0.85 0.3 0.05  0.9 0.3 0  0.9 0.3 0.05  0.95 0.3 0  0.95 0.3 0.05  1 0.3 0  1 0.3 0.05  0.65 0.35 0.05  0.7 0.35 0.05  0.75 0.35 0.05  0.8 0.35 0.05  0.85 0.35 0.05  0.9 0.35 0.05  0.95 0.35 0.05  1 0.35 0  1 0.35 0.05  0.95 0.35 0  1 0.4 0.05  0.25 0.05 0.1  0.25 0 0.1  0.2 0 0.1  0.2 0.05 0.1  0.3 0.05 0.1  0.3 0 0.1  0.35 0.05 0.1  0.35 0 0.1  0.4 0.05 0.1  0.4 0 0.1  0.45 0.05 0.1  0.45 0 0.1  0.5 0.05 0.1  0.5 0 0.1  0.55 0.05 0.1  0.55 0 0.1  0.6 0.05 0.1  0.6 0 0.1  0.65 0.05 0.1  0.65 0 0.1  0.7 0.05 0.1  0.7 0 0.1  0.75 0.05 0.1  0.75 0 0.1  0.8 0.05 0.1  0.8 0 0.1  0.85 0.05 0.1  0.85 0 0.1  0.9 0.05 0.1  0.9 0 0.1  0.95 0.05 0.1  0.95 0 0.1  1 0.05 0.1  1 0 0.1  0.25 0.1 0.1  0.2 0.1 0.1  0.3 0.1 0.1  0.35 0.1 0.1  0.4 0.1 0.1  0.45 0.1 0.1  0.5 0.1 0.1  0.55 0.1 0.1  0.6 0.1 0.1  0.65 0.1 0.1  0.7 0.1 0.1  0.75 0.1 0.1  0.8 0.1 0.1  0.85 0.1 0.1  0.9 0.1 0.1  0.95 0.1 0.1  1 0.1 0.1  0.25 0.15 0.1  0.2 0.15 0.1  0.3 0.15 0.1  0.35 0.15 0.1  0.4 0.15 0.1  0.45 0.15 0.1  0.5 0.15 0.1  0.55 0.15 0.1  0.6 0.15 0.1  0.65 0.15 0.1  0.7 0.15 0.1  0.75 0.15 0.1  0.8 0.15 0.1  0.85 0.15 0.1  0.9 0.15 0.1  0.95 0.15 0.1  1 0.15 0.1  0.25 0.2 0.1  0.3 0.2 0.1  0.35 0.2 0.1  0.4 0.2 0.1  0.45 0.2 0.1  0.5 0.2 0.1  0.55 0.2 0.1  0.6 0.2 0.1  0.65 0.2 0.1  0.7 0.2 0.1  0.75 0.2 0.1  0.8 0.2 0.1  0.85 0.2 0.1  0.9 0.2 0.1  0.95 0.2 0.1  1 0.2 0.1  0.45 0.25 0.1  0.5 0.25 0.1  0.55 0.25 0.1  0.6 0.25 0.1  0.65 0.25 0.1  0.7 0.25 0.1  0.75 0.25 0.1  0.8 0.25 0.1  0.85 0.25 0.1  0.9 0.25 0.1  0.95 0.25 0.1  1 0.25 0.1  0.65 0.3 0.1  0.6 0.3 0.1  0.7 0.3 0.1  0.75 0.3 0.1  0.8 0.3 0.1  0.85 0.3 0.1  0.9 0.3 0.1  0.95 0.3 0.1  1 0.3 0.1  0.7 0.35 0.1  0.75 0.35 0.1  0.8 0.35 0.1  0.85 0.35 0.1  0.9 0.35 0.1  0.95 0.35 0.1  1 0.35 0.1  0.9 0.4 0.05  0.9 0.4 0.1  0.85 0.4 0.05  0.85 0.4 0.1  0.95 0.4 0.1  1 0.4 0.1  0.9 0.45 0.1  0.95 0.45 0.1  0.25 0.05 0.15  0.25 0 0.15  0.2 0 0.15  0.2 0.05 0.15  0.3 0.05 0.15  0.3 0 0.15  0.35 0.05 0.15  0.35 0 0.15  0.4 0.05 0.15  0.4 0 0.15  0.45 0.05 0.15  0.45 0 0.15  0.5 0.05 0.15  0.5 0 0.15  0.55 0.05 0.15  0.55 0 0.15  0.6 0.05 0.15  0.6 0 0.15  0.65 0.05 0.15  0.65 0 0.15  0.7 0.05 0.15  0.7 0 0.15  0.75 0.05 0.15  0.75 0 0.15  0.8 0.05 0.15  0.8 0 0.15  0.85 0.05 0.15  0.85 0 0.15  0.9 0.05 0.15  0.9 0 0.15  0.95 0.05 0.15  0.95 0 0.15  1 0.05 0.15  1 0 0.15  0.25 0.1 0.15  0.2 0.1 0.15  0.3 0.1 0.15  0.35 0.1 0.15  0.4 0.1 0.15  0.45 0.1 0.15  0.5 0.1 0.15  0.55 0.1 0.15  0.6 0.1 0.15  0.65 0.1 0.15  0.7 0.1 0.15  0.75 0.1 0.15  0.8 0.1 0.15  0.85 0.1 0.15  0.9 0.1 0.15  0.95 0.1 0.15  1 0.1 0.15  0.25 0.15 0.15  0.3 0.15 0.15  0.35 0.15 0.15  0.4 0.15 0.15  0.45 0.15 0.15  0.5 0.15 0.15  0.55 0.15 0.15  0.6 0.15 0.15  0.65 0.15 0.15  0.7 0.15 0.15  0.75 0.15 0.15  0.8 0.15 0.15  0.85 0.15 0.15  0.9 0.15 0.15  0.95 0.15 0.15  1 0.15 0.15  0.25 0.2 0.15  0.3 0.2 0.15  0.35 0.2 0.15  0.4 0.2 0.15  0.45 0.2 0.15  0.5 0.2 0.15  0.55 0.2 0.15  0.6 0.2 0.15  0.65 0.2 0.15  0.7 0.2 0.15  0.75 0.2 0.15  0.8 0.2 0.15  0.85 0.2 0.15  0.9 0.2 0.15  0.95 0.2 0.15  1 0.2 0.15  0.3 0.25 0.15  0.35 0.25 0.15  0.4 0.25 0.15  0.45 0.25 0.15  0.5 0.25 0.15  0.55 0.25 0.15  0.6 0.25 0.15  0.65 0.25 0.15  0.7 0.25 0.15  0.75 0.25 0.15  0.8 0.25 0.15  0.85 0.25 0.15  0.9 0.25 0.15  0.95 0.25 0.15  1 0.25 0.15  0.5 0.3 0.15  0.55 0.3 0.15  0.6 0.3 0.15  0.65 0.3 0.15  0.7 0.3 0.15  0.75 0.3 0.15  0.8 0.3 0.15  0.85 0.3 0.15  0.9 0.3 0.15  0.95 0.3 0.15  1 0.3 0.15  0.7 0.35 0.15  0.75 0.35 0.15  0.8 0.35 0.15  0.85 0.35 0.15  0.9 0.35 0.15  0.95 0.35 0.15  1 0.35 0.15  0.9 0.4 0.15  0.85 0.4 0.15  0.95 0.4 0.15  1 0.4 0.15  0.9 0.45 0.15  0.95 0.45 0.15  1 0.45 0.15  0.25 0.05 0.2  0.25 0 0.2  0.3 0.05 0.2  0.3 0 0.2  0.35 0.05 0.2  0.35 0 0.2  0.4 0.05 0.2  0.4 0 0.2  0.45 0.05 0.2  0.45 0 0.2  0.5 0.05 0.2  0.5 0 0.2  0.55 0.05 0.2  0.55 0 0.2  0.6 0.05 0.2  0.6 0 0.2  0.65 0.05 0.2  0.65 0 0.2  0.7 0.05 0.2  0.7 0 0.2  0.75 0.05 0.2  0.75 0 0.2  0.8 0.05 0.2  0.8 0 0.2  0.85 0.05 0.2  0.85 0 0.2  0.9 0.05 0.2  0.9 0 0.2  0.95 0.05 0.2  0.95 0 0.2  1 0.05 0.2  1 0 0.2  0.25 0.1 0.2  0.3 0.1 0.2  0.35 0.1 0.2  0.4 0.1 0.2  0.45 0.1 0.2  0.5 0.1 0.2  0.55 0.1 0.2  0.6 0.1 0.2  0.65 0.1 0.2  0.7 0.1 0.2  0.75 0.1 0.2  0.8 0.1 0.2  0.85 0.1 0.2  0.9 0.1 0.2  0.95 0.1 0.2  1 0.1 0.2  0.25 0.15 0.2  0.3 0.15 0.2  0.35 0.15 0.2  0.4 0.15 0.2  0.45 0.15 0.2  0.5 0.15 0.2  0.55 0.15 0.2  0.6 0.15 0.2  0.65 0.15 0.2  0.7 0.15 0.2  0.75 0.15 0.2  0.8 0.15 0.2  0.85 0.15 0.2  0.9 0.15 0.2  0.95 0.15 0.2  1 0.15 0.2  0.3 0.2 0.2  0.25 0.2 0.2  0.35 0.2 0.2  0.4 0.2 0.2  0.45 0.2 0.2  0.5 0.2 0.2  0.55 0.2 0.2  0.6 0.2 0.2  0.65 0.2 0.2  0.7 0.2 0.2  0.75 0.2 0.2  0.8 0.2 0.2  0.85 0.2 0.2  0.9 0.2 0.2  0.95 0.2 0.2  1 0.2 0.2  0.3 0.25 0.2  0.35 0.25 0.2  0.4 0.25 0.2  0.45 0.25 0.2  0.5 0.25 0.2  0.55 0.25 0.2  0.6 0.25 0.2  0.65 0.25 0.2  0.7 0.25 0.2  0.75 0.25 0.2  0.8 0.25 0.2  0.85 0.25 0.2  0.9 0.25 0.2  0.95 0.25 0.2  1 0.25 0.2  0.5 0.3 0.2  0.55 0.3 0.2  0.6 0.3 0.2  0.65 0.3 0.2  0.7 0.3 0.2  0.75 0.3 0.2  0.8 0.3 0.2  0.85 0.3 0.2  0.9 0.3 0.2  0.95 0.3 0.2  1 0.3 0.2  0.55 0.35 0.2  0.6 0.35 0.2  0.65 0.35 0.2  0.7 0.35 0.2  0.75 0.35 0.2  0.8 0.35 0.2  0.85 0.35 0.2  0.9 0.35 0.2  0.95 0.35 0.2  1 0.35 0.2  0.75 0.4 0.2  0.8 0.4 0.2  0.85 0.4 0.2  0.9 0.4 0.2  0.95 0.4 0.2  1 0.4 0.2  0.9 0.45 0.2  0.95 0.45 0.2  1 0.45 0.2  0.95 0.5 0.2  1 0.5 0.2  0.3 0.05 0.25  0.3 0 0.25  0.35 0.05 0.25  0.35 0 0.25  0.4 0.05 0.25  0.4 0 0.25  0.45 0.05 0.25  0.45 0 0.25  0.5 0.05 0.25  0.5 0 0.25  0.55 0.05 0.25  0.55 0 0.25  0.6 0.05 0.25  0.6 0 0.25  0.65 0.05 0.25  0.65 0 0.25  0.7 0.05 0.25  0.7 0 0.25  0.75 0.05 0.25  0.75 0 0.25  0.8 0.05 0.25  0.8 0 0.25  0.85 0.05 0.25  0.85 0 0.25  0.9 0.05 0.25  0.9 0 0.25  0.95 0.05 0.25  0.95 0 0.25  1 0.05 0.25  1 0 0.25  0.3 0.1 0.25  0.25 0.05 0.25  0.25 0.1 0.25  0.35 0.1 0.25  0.4 0.1 0.25  0.45 0.1 0.25  0.5 0.1 0.25  0.55 0.1 0.25  0.6 0.1 0.25  0.65 0.1 0.25  0.7 0.1 0.25  0.75 0.1 0.25  0.8 0.1 0.25  0.85 0.1 0.25  0.9 0.1 0.25  0.95 0.1 0.25  1 0.1 0.25  0.3 0.15 0.25  0.35 0.15 0.25  0.4 0.15 0.25  0.45 0.15 0.25  0.5 0.15 0.25  0.55 0.15 0.25  0.6 0.15 0.25  0.65 0.15 0.25  0.7 0.15 0.25  0.75 0.15 0.25  0.8 0.15 0.25  0.85 0.15 0.25  0.9 0.15 0.25  0.95 0.15 0.25  1 0.15 0.25  0.3 0.2 0.25  0.35 0.2 0.25  0.4 0.2 0.25  0.45 0.2 0.25  0.5 0.2 0.25  0.55 0.2 0.25  0.6 0.2 0.25  0.65 0.2 0.25  0.7 0.2 0.25  0.75 0.2 0.25  0.8 0.2 0.25  0.85 0.2 0.25  0.9 0.2 0.25  0.95 0.2 0.25  1 0.2 0.25  0.3 0.25 0.25  0.35 0.25 0.25  0.4 0.25 0.25  0.45 0.25 0.25  0.5 0.25 0.25  0.55 0.25 0.25  0.6 0.25 0.25  0.65 0.25 0.25  0.7 0.25 0.25  0.75 0.25 0.25  0.8 0.25 0.25  0.85 0.25 0.25  0.9 0.25 0.25  0.95 0.25 0.25  1 0.25 0.25  0.4 0.3 0.25  0.45 0.3 0.25  0.5 0.3 0.25  0.55 0.3 0.25  0.6 0.3 0.25  0.65 0.3 0.25  0.7 0.3 0.25  0.75 0.3 0.25  0.8 0.3 0.25  0.85 0.3 0.25  0.9 0.3 0.25  0.95 0.3 0.25  1 0.3 0.25  0.55 0.35 0.25  0.6 0.35 0.25  0.65 0.35 0.25  0.7 0.35 0.25  0.75 0.35 0.25  0.8 0.35 0.25  0.85 0.35 0.25  0.9 0.35 0.25  0.95 0.35 0.25  1 0.35 0.25  0.7 0.4 0.25  0.75 0.4 0.25  0.8 0.4 0.25  0.85 0.4 0.25  0.9 0.4 0.25  0.95 0.4 0.25  1 0.4 0.25  0.95 0.45 0.25  1 0.45 0.25  0.95 0.5 0.25  1 0.5 0.25  0.35 0.05 0.3  0.35 0 0.3  0.3 0 0.3  
[...]
<PointData  Vectors="f_8-0"> 
<DataArray  type="Float64"  Name="f_8-0"  NumberOfComponents="3" format="ascii">1.0000000000000001e-01 0.0000000000000000e+00 0.0000000000000000e+00  1.0000000000000001e-01 0.0000000000000000e+00 0.0000000000000000e+00  1.0512710963760241e-01 0.0000000000000000e+00 0.0000000000000000e+00  1.1051711401073026e-01 -5.5171938305494373e-09 -5.5171938298717696e-09  1.0512710963760241e-01 0.0000000000000000e+00 0.0000000000000000e+00  1.0512710963760241e-01 0.0000000000000000e+00 0.0000000000000000e+00  1.0512710963760241e-01 0.0000000000000000e+00 0.0000000000000000e+00  1.1051711447324723e-01 -5.4713030333657011e-09 -5.4713030292346205e-09  1.0000000000000001e-01 0.0000000000000000e+00 0.0000000000000000e+00  1.0512710963760241e-01 0.0000000000000000e+00 0.0000000000000000e+00  1.1051711375961200e-01 -5.5357467683024557e-09 -5.5357467689737525e-09  1.0512710963760241e-01 0.0000000000000000e+00 0.0000000000000000e+00  1.0000000000000001e-01 0.0000000000000000e+00 0.0000000000000000e+00  1.0512710963760241e-01 0.0000000000000000e+00 0.0000000000000000e+00  1.1051711363262177e-01 -5.5415033759246582e-09 -5.5415033725222311e-09  1.0512710963760241e-01 0.0000000000000000e+00 0.0000000000000000e+00  1.0000000000000001e-01 0.0000000000000000e+00 0.0000000000000000e+00  1.0512710963760241e-01 0.0000000000000000e+00 0.0000000000000000e+00  1.1051711358179019e-01 -5.5397930905811629e-09 -5.5397930904642426e-09  1.0512710963760241e-01 0.0000000000000000e+00 0.0000000000000000e+00  1.0000000000000001e-01 0.0000000000000000e+00 0.0000000000000000e+00  1.0512710963760241e-01 0.0000000000000000e+00 0.0000000000000000e+00  1.1051711357972395e-01 -5.5330084702802485e-09 -5.5330084730055232e-09  1.0512710963760241e-01 0.0000000000000000e+00 0.0000000000000000e+00  1.0000000000000001e-01 0.0000000000000000e+00 0.0000000000000000e+00  1.0512710963760241e-01 0.0000000000000000e+00 0.0000000000000000e+00  1.1051711361126677e-01 -5.5226807536456770e-09 -5.5226807550408792e-09  1.0512710963760241e-01 0.0000000000000000e+00 0.0000000000000000e+00  1.0000000000000001e-01 0.0000000000000000e+00 0.0000000000000000e+00  1.0512710963760241e-01 0.0000000000000000e+00 0.0000000000000000e+00  1.1051711367020918e-01 -5.5102390449200120e-09 -5.5102390415503694e-09  1.0512710963760241e-01 0.0000000000000000e+00 0.0000000000000000e+00  1.0000000000000001e-01 0.0000000000000000e+00 0.0000000000000000e+00  1.0512710963760241e-01 0.0000000000000000e+00 0.0000000000000000e+00  1.1051711375879099e-01 -5.4974085563436273e-09 -5.4974085565616151e-09  1.0512710963760241e-01 0.0000000000000000e+00 0.0000000000000000e+00  1.0000000000000001e-01 0.0000000000000000e+00 0.0000000000000000e+00  1.0512710963760241e-01 0.0000000000000000e+00 0.0000000000000000e+00  1.1051711388946867e-01 -5.4867294515305078e-09 -5.4867294489538212e-09  1.0512710963760241e-01 0.0000000000000000e+00 0.0000000000000000e+00  1.0000000000000001e-01 0.0000000000000000e+00 0.0000000000000000e+00  1.0512710963760241e-01 0.0000000000000000e+00 0.0000000000000000e+00  1.1051711408967511e-01 -5.4828356686049413e-09 -5.4828356706841714e-09  1.0512710963760241e-01 0.0000000000000000e+00 0.0000000000000000e+00  1.0000000000000001e-01 0.0000000000000000e+00 0.0000000000000000e+00  1.0512710963760241e-01 0.0000000000000000e+00 0.0000000000000000e+00  1.1051711441163629e-01 -5.4960624546385254e-09 -5.4960624556333135e-09  1.0512710963760241e-01 0.0000000000000000e+00 0.0000000000000000e+00  1.0000000000000001e-01 0.0000000000000000e+00 0.0000000000000000e+00  1.0512710963760241e-01 0.0000000000000000e+00 0.0000000000000000e+00  1.1051711495006981e-01 -5.5526053621447676e-09 -5.5526053583816848e-09  1.0512710963760241e-01 0.0000000000000000e+00 0.0000000000000000e+00  1.0000000000000001e-01 0.0000000000000000e+00 0.0000000000000000e+00  1.0512710963760241e-01 0.0000000000000000e+00 0.0000000000000000e+00  1.1051711586371504e-01 -5.7217541068055698e-09 -5.7217541045557172e-09  1.0512710963760241e-01 0.0000000000000000e+00 0.0000000000000000e+00  1.0000000000000001e-01 0.0000000000000000e+00 0.0000000000000000e+00  1.0512710963760241e-01 0.0000000000000000e+00 0.0000000000000000e+00  1.1051711734043108e-01 -6.1628325493749194e-09 -6.1628325512783827e-09  1.0512710963760241e-01 0.0000000000000000e+00 0.0000000000000000e+00  1.0000000000000001e-01 0.0000000000000000e+00 0.0000000000000000e+00  1.0512710963760241e-01 0.0000000000000000e+00 0.0000000000000000e+00  1.1051711848729442e-01 -6.9966181194579966e-09 -6.9966181179820946e-09  1.0512710963760241e-01 0.0000000000000000e+00 0.0000000000000000e+00  1.0000000000000001e-01 0.0000000000000000e+00 0.0000000000000000e+00  1.0512710963760241e-01 0.0000000000000000e+00 0.0000000000000000e+00  1.1051709180756478e-01 0.0000000000000000e+00 0.0000000000000000e+00  1.0512710963760241e-01 0.0000000000000000e+00 0.0000000000000000e+00  1.1051709180756478e-01 0.0000000000000000e+00 0.0000000000000000e+00  1.1618344824659443e-01 -5.6142770437226021e-09 -5.8042801458190803e-09  1.1051709180756478e-01 0.0000000000000000e+00 0.0000000000000000e+00  1.1618344882852982e-01 -5.4719943569392562e-09 -5.7195287875336169e-09  1.1051709180756478e-01 0.0000000000000000e+00 0.0000000000000000e+00  1.1618344791503692e-01 -5.6970564375769800e-09 -5.8434055740352001e-09  1.1051709180756478e-01 0.0000000000000000e+00 0.0000000000000000e+00  1.1618344774528866e-01 -5.7433782970894190e-09 -5.8603548460605083e-09  1.1051709180756478e-01 0.0000000000000000e+00 0.0000000000000000e+00  1.1618344768096818e-01 -5.7662051706470611e-09 -5.8643802310156020e-09  1.1051709180756478e-01 0.0000000000000000e+00 0.0000000000000000e+00  1.1618344768659569e-01 -5.7735411145893975e-09 -5.8599320310699360e-09  1.1051709180756478e-01 0.0000000000000000e+00 0.0000000000000000e+00  1.1618344774121096e-01 -5.7713771595329442e-09 -5.8499197126556164e-09  1.1051709180756478e-01 0.0000000000000000e+00 0.0000000000000000e+00  1.1618344783563110e-01 -5.7653062907801984e-09 -5.8369629962530300e-09  1.1051709180756478e-01 0.0000000000000000e+00 0.0000000000000000e+00  1.1618344797221009e-01 -5.7616614995164106e-09 -5.8240589764300554e-09  1.1051709180756478e-01 0.0000000000000000e+00 0.0000000000000000e+00  1.1618344816675483e-01 -5.7688624854580939e-09 -5.8153623672849431e-09  1.1051709180756478e-01 0.0000000000000000e+00 0.0000000000000000e+00  1.1618344845289783e-01 -5.7997794508880601e-09 -5.8179101461737039e-09  1.1051709180756478e-01 0.0000000000000000e+00 0.0000000000000000e+00  1.1618344888925081e-01 -5.8762847586287624e-09 -5.8462044286970847e-09  1.1051709180756478e-01 0.0000000000000000e+00 0.0000000000000000e+00  1.1618344956657499e-01 -6.0368651304166046e-09 -5.9347411799133135e-09  1.1051709180756478e-01 0.0000000000000000e+00 0.0000000000000000e+00  1.1618345059476536e-01 -6.3413139442931795e-09 -6.1708363162929329e-09  1.1051709180756478e-01 0.0000000000000000e+00 0.0000000000000000e+00  1.1618345195427093e-01 -6.8236565477503733e-09 -6.7591497692603746e-09  1.1051709180756478e-01 0.0000000000000000e+00 0.0000000000000000e+00  1.1618345229878115e-01 -6.7399902972244009e-09 -7.8800951932399051e-09  1.1051709180756478e-01 0.0000000000000000e+00 0.0000000000000000e+00  1.1618342427282831e-01 0.0000000000000000e+00 0.0000000000000000e+00  1.1618342427282831e-01 0.0000000000000000e+00 0.0000000000000000e+00  1.2214030143035061e-01 -5.6994058775721539e-09 -6.3136509071073028e-09  1.1618342427282831e-01 0.0000000000000000e+00 0.0000000000000000e+00  1.2214030197942032e-01 -5.5210617393460503e-09 -6.1956169136510890e-09  1.1618342427282831e-01 0.0000000000000000e+00 0.0000000000000000e+00  1.2214030111414334e-01 -5.8249238403599211e-09 -6.3715696152749993e-09  1.1618342427282831e-01 0.0000000000000000e+00 0.0000000000000000e+00  1.2214030095755829e-01 -5.9060157973134532e-09 -6.3993337961737922e-09  1.1618342427282831e-01 0.0000000000000000e+00 0.0000000000000000e+00  1.2214030090936040e-01 -5.9534214416268841e-09 -6.4094398123269508e-09  1.1618342427282831e-01 0.0000000000000000e+00 0.0000000000000000e+00  1.2214030093451492e-01 -5.9769241038910776e-09 -6.4081380522201465e-09  1.1618342427282831e-01 0.0000000000000000e+00 0.0000000000000000e+00  1.2214030101083040e-01 -5.9856348865865509e-09 -6.3995491802875073e-09  1.1618342427282831e-01 0.0000000000000000e+00 0.0000000000000000e+00  1.2214030112758671e-01 -5.9888710641082405e-09 -6.3873044042180601e-09  1.1618342427282831e-01 0.0000000000000000e+00 0.0000000000000000e+00  1.2214030128566149e-01 -5.9971290961468327e-09 -6.3754290916759271e-09  1.1618342427282831e-01 0.0000000000000000e+00 0.0000000000000000e+00  1.2214030149894733e-01 -6.0232332432334073e-09 -6.3693232420265301e-09  1.1618342427282831e-01 0.0000000000000000e+00 0.0000000000000000e+00  1.2214030179699290e-01 -6.0837208445793353e-09 -6.3778191709275888e-09  1.1618342427282831e-01 0.0000000000000000e+00 0.0000000000000000e+00  1.2214030222838512e-01 -6.1997634959572126e-09 -6.4185199147328711e-09  1.1618342427282831e-01 0.0000000000000000e+00 0.0000000000000000e+00  1.2214030286190437e-01 -6.3938298243672068e-09 -6.5321716516464206e-09  1.1618342427282831e-01 0.0000000000000000e+00 0.0000000000000000e+00  1.2214030377141351e-01 -6.6690134206687762e-09 -6.8199091387393778e-09  1.1618342427282831e-01 0.0000000000000000e+00 0.0000000000000000e+00  1.2214030493358825e-01 -6.9219399433349663e-09 -7.5099135038510035e-09  1.1618342427282831e-01 0.0000000000000000e+00 0.0000000000000000e+00  1.2214030516929855e-01 -6.4509400618611637e-09 -8.7453880174631835e-09  1.1618342427282831e-01 0.0000000000000000e+00 0.0000000000000000e+00  1.2214027581601700e-01 0.0000000000000000e+00 0.0000000000000000e+00  1.2840256881393852e-01 -5.9977963524095843e-09 -6.8911177546543499e-09  1.2840256854899670e-01 -6.1305441440147575e-09 -6.9668767235718921e-09  1.2840256843343598e-01 -6.2246910128697461e-09 -7.0056332183582154e-09  1.2214027581601700e-01 0.0000000000000000e+00 0.0000000000000000e+00  1.2840256841890366e-01 -6.2830709914681955e-09 -7.0223190980275969e-09  1.2214027581601700e-01 0.0000000000000000e+00 0.0000000000000000e+00  1.2840256847156076e-01 -6.3133603789458140e-09 -7.0247486582199164e-09  1.2214027581601700e-01 0.0000000000000000e+00 0.0000000000000000e+00  1.2840256856897131e-01 -6.3253664878887141e-09 -7.0181751828663813e-09  1.2214027581601700e-01 0.0000000000000000e+00 0.0000000000000000e+00  1.2840256869917127e-01 -6.3303473977049553e-09 -7.0071984712003867e-09  1.2214027581601700e-01 0.0000000000000000e+00 0.0000000000000000e+00  1.2840256886089427e-01 -6.3410122459923969e-09 -6.9968263245131209e-09  1.2214027581601700e-01 0.0000000000000000e+00 0.0000000000000000e+00  1.2840256906466663e-01 -6.3715735724668058e-09 -6.9936339829782265e-09  1.2214027581601700e-01 0.0000000000000000e+00 0.0000000000000000e+00  1.2840256933487362e-01 -6.4371014531625787e-09 -7.0081073349645829e-09  1.2214027581601700e-01 0.0000000000000000e+00 0.0000000000000000e+00  1.2840256971326741e-01 -6.5504220990742274e-09 -7.0605524580528340e-09  1.2214027581601700e-01 0.0000000000000000e+00 0.0000000000000000e+00  1.2840257026441632e-01 -6.7126008839309153e-09 -7.1966311828122280e-09  1.2214027581601700e-01 0.0000000000000000e+00 0.0000000000000000e+00  1.2840257107815442e-01 -6.8909873827358220e-09 -7.5263412146440485e-09  1.2214027581601700e-01 0.0000000000000000e+00 0.0000000000000000e+00  1.2840257220169077e-01 -6.9803631875457216e-09 -8.2876885411863446e-09  1.2214027581601700e-01 0.0000000000000000e+00 0.0000000000000000e+00  1.2840257246099895e-01 -6.4433237461675126e-09 -9.5993187521223109e-09  1.2214027581601700e-01 0.0000000000000000e+00 0.0000000000000000e+00  1.2840254166877416e-01 0.0000000000000000e+00 0.0000000000000000e+00  1.3498590947344308e-01 -6.7440434551018330e-09 -7.7015786028788844e-09  1.2840254166877416e-01 0.0000000000000000e+00 0.0000000000000000e+00  1.3498590962927859e-01 -6.7410957837569386e-09 -7.6929887512258655e-09  1.2840254166877416e-01 0.0000000000000000e+00 0.0000000000000000e+00  1.2840254166877416e-01 0.0000000000000000e+00 0.0000000000000000e+00  1.3498590981097167e-01 -6.7559342560134392e-09 -7.6928903584472929e-09  1.2840254166877416e-01 0.0000000000000000e+00 0.0000000000000000e+00  1.3498591004111060e-01 -6.8001963294208418e-09 -7.7132950728072851e-09  1.2840254166877416e-01 0.0000000000000000e+00 0.0000000000000000e+00  1.3498591036285126e-01 -6.8790711804485931e-09 -7.7767972581301397e-09  1.2840254166877416e-01 0.0000000000000000e+00 0.0000000000000000e+00  1.3498591085208891e-01 -6.9827834123996632e-09 -7.9328483106559361e-09  1.2840254166877416e-01 0.0000000000000000e+00 0.0000000000000000e+00  1.3498591163050841e-01 -7.0771695106979307e-09 -8.2980775129183650e-09  1.2840254166877416e-01 0.0000000000000000e+00 0.0000000000000000e+00  1.3498591279127101e-01 -7.1017058188443723e-09 -9.1203289594071278e-09  1.2840254166877416e-01 0.0000000000000000e+00 0.0000000000000000e+00  1.3498591307674410e-01 -6.6248687030721712e-09 -1.0500856441176728e-08  1.2840254166877416e-01 0.0000000000000000e+00 0.0000000000000000e+00  1.3498588075760032e-01 0.0000000000000000e+00 0.0000000000000000e+00  1.4190678539814991e-01 -7.1661577820880293e-09 -8.4656184389744760e-09  1.3498588075760032e-01 0.0000000000000000e+00 0.0000000000000000e+00  1.4190678555632694e-01 -7.1458923341241404e-09 -8.4683993038337059e-09  1.3498588075760032e-01 0.0000000000000000e+00 0.0000000000000000e+00  1.3498588075760032e-01 0.0000000000000000e+00 0.0000000000000000e+00  1.4190678575000037e-01 -7.1488341561014315e-09 -8.4942316894507167e-09  1.3498588075760032e-01 0.0000000000000000e+00 0.0000000000000000e+00  1.4190678602902554e-01 -7.1772933105298234e-09 -8.5676770736100026e-09  1.3498588075760032e-01 0.0000000000000000e+00 0.0000000000000000e+00  1.4190678648527838e-01 -7.2223846704637646e-09 -8.7414839782328339e-09  1.3498588075760032e-01 0.0000000000000000e+00 0.0000000000000000e+00  1.4190678726753447e-01 -7.2657104004337841e-09 -9.1388401197165103e-09  1.3498588075760032e-01 0.0000000000000000e+00 0.0000000000000000e+00  1.4190678849064303e-01 -7.2941171607639524e-09 -1.0019319240778801e-08  1.3498588075760032e-01 0.0000000000000000e+00 0.0000000000000000e+00  1.4190678878170487e-01 -6.9308283866664259e-09 -1.1469463755669206e-08  1.3498588075760032e-01 0.0000000000000000e+00 0.0000000000000000e+00  1.4190675485932572e-01 0.0000000000000000e+00 0.0000000000000000e+00  1.4918250212646267e-01 -7.5294149977419068e-09 -9.3225320139114341e-09  1.4918250229359978e-01 -7.4782071934626286e-09 -9.3528122985595650e-09  1.4918250254657164e-01 -7.4508951912943522e-09 -9.4348208465363811e-09  1.4918250299176186e-01 -7.4467333680040946e-09 -9.6246238951492468e-09  1.4918250379754514e-01 -7.4686200999683837e-09 -1.0052677537202796e-08  1.4918250508797865e-01 -7.5444634242116874e-09 -1.0992414030256308e-08  1.4918250536322553e-01 -7.3237470167393004e-09 -1.2515885354792643e-08  1.4190675485932572e-01 0.0000000000000000e+00 0.0000000000000000e+00  1.4918246976412705e-01 0.0000000000000000e+00 0.0000000000000000e+00  1.4190675485932572e-01 0.0000000000000000e+00 0.0000000000000000e+00  1.5683121854901691e-01 0.0000000000000000e+00 0.0000000000000000e+00  1.1618344824659442e-01 -5.8042801466692607e-09 -5.6142770445738139e-09  1.1051709180756478e-01 0.0000000000000000e+00 0.0000000000000000e+00  1.1051709180756478e-01 0.0000000000000000e+00 0.0000000000000000e+00  1.1618344882852984e-01 -5.7195287914716641e-09 -5.4719943624328538e-09  1.1618344791503690e-01 -5.8434055711740593e-09 -5.6970564459693196e-09  1.1051709180756478e-01 0.0000000000000000e+00 0.0000000000000000e+00  1.1618344774528866e-01 -5.8603548464705550e-09 -5.7433783018409090e-09  1.1051709180756478e-01 0.0000000000000000e+00 0.0000000000000000e+00  1.1618344768096818e-01 -5.8643802313375779e-09 -5.7662051680237024e-09  1.1051709180756478e-01 0.0000000000000000e+00 0.0000000000000000e+00  1.1618344768659569e-01 -5.8599320354406674e-09 -5.7735411109617431e-09  1.1051709180756478e-01 0.0000000000000000e+00 0.0000000000000000e+00  1.1618344774121095e-01 -5.8499197146833347e-09 -5.7713771655236525e-09  1.1051709180756478e-01 0.0000000000000000e+00 0.0000000000000000e+00  1.1618344783563112e-01 -5.8369630033435643e-09 -5.7653062938010761e-09  1.1051709180756478e-01 0.0000000000000000e+00 0.0000000000000000e+00  1.1618344797221009e-01 -5.8240589771333128e-09 -5.7616615020585177e-09  1.1051709180756478e-01 0.0000000000000000e+00 0.0000000000000000e+00  1.1618344816675483e-01 -5.8153623685300129e-09 -5.7688624759104304e-09  1.1051709180756478e-01 0.0000000000000000e+00 0.0000000000000000e+00  1.1618344845289783e-01 -5.8179101436419745e-09 -5.7997794558166470e-09  1.1051709180756478e-01 0.0000000000000000e+00 0.0000000000000000e+00  1.1618344888925081e-01 -5.8462044333760120e-09 -5.8762847643231623e-09  1.1051709180756478e-01 0.0000000000000000e+00 0.0000000000000000e+00  1.1618344956657500e-01 -5.9347411812190760e-09 -6.0368651291864464e-09  1.1051709180756478e-01 0.0000000000000000e+00 0.0000000000000000e+00  1.1618345059476536e-01 -6.1708363173522676e-09 -6.3413139452754656e-09  1.1051709180756478e-01 0.0000000000000000e+00 0.0000000000000000e+00  1.1618345195427093e-01 -6.7591497680014470e-09 -6.8236565463632303e-09  1.1051709180756478e-01 0.0000000000000000e+00 0.0000000000000000e+00  1.1618345229878115e-01 -7.8800951896537794e-09 -6.7399902997966919e-09  1.1051709180756478e-01 0.0000000000000000e+00 0.0000000000000000e+00  1.1618342427282831e-01 0.0000000000000000e+00 0.0000000000000000e+00  1.1051709180756478e-01 0.0000000000000000e+00 0.0000000000000000e+00  1.2214030295123031e-01 -6.7485087156240326e-09 -6.7485087141215963e-09  1.2214030370068500e-01 -6.5115270633325133e-09 -6.5115270657655989e-09  1.2214030250252392e-01 -6.8889511211166445e-09 -6.8889511268433367e-09  1.2214030227190695e-01 -6.9700223983669282e-09 -6.9700223957880139e-09  1.2214030219259624e-01 -7.0125184684988398e-09 -7.0125184653453088e-09  1.2214030221716805e-01 -7.0295154489299469e-09 -7.0295154487265978e-09  1.2214030231551233e-01 -7.0310002307134025e-09 -7.0310002230482110e-09  1.2214030247347053e-01 -7.0263647027215648e-09 -7.0263647019227300e-09  1.2214030269310765e-01 -7.0261314634782208e-09 -7.0261314530622260e-09  1.2214030299458023e-01 -7.0439032342497944e-09 -7.0439032239705798e-09  1.2214030341894520e-01 -7.0995812494518841e-09 -7.0995812475491602e-09  1.2214030402864294e-01 -7.2251386880121029e-09 -7.2251386894413022e-09  1.2214030489182202e-01 -7.4730535366757547e-09 -7.4730535382685108e-09  1.2214030599834021e-01 -7.9150940000630480e-09 -7.9150940026307704e-09  1.2214030690439488e-01 -8.5476129573078211e-09 -8.5476129560947360e-09  1.2214030551596432e-01 -8.2355253789733230e-09 -8.2355253810649947e-09  1.2214027581601700e-01 0.0000000000000000e+00 0.0000000000000000e+00  1.2840257120418391e-01 -7.2227872104709266e-09 -7.5169977058541504e-09  1.2840257189007004e-01 -6.9146830312300403e-09 -7.2007263259891553e-09  1.2840257078551753e-01 -7.4369998363116297e-09 -7.7075169429714423e-09  1.2840257058063467e-01 -7.5759071087072915e-09 -7.8198407558956367e-09  1.2840257053212289e-01 -7.6581506899403355e-09 -7.8810878558544538e-09  1.2840257059334031e-01 -7.7001786509429406e-09 -7.9085462137379024e-09  1.2840257073193151e-01 -7.7173386446046600e-09 -7.9154863443152778e-09  1.2840257093089213e-01 -7.7253553093559906e-09 -7.9143079713635460e-09  1.2840257118943751e-01 -7.7417746295960178e-09 -7.9186752038858881e-09  1.2840257152387102e-01 -7.7875043940694632e-09 -7.9458212258868420e-09  1.2840257196705013e-01 -7.8883451478440853e-09 -8.0201897414020251e-09  1.2840257256140677e-01 -8.0749227203548284e-09 -8.1797111827964002e-09  1.2840257332998961e-01 -8.3739746003852557e-09 -8.4841980862473947e-09  1.2840257418053672e-01 -8.7664862950117552e-09 -9.0096426926856848e-09  1.2840257461172486e-01 -9.0286558667574348e-09 -9.7226483876357881e-09  1.2840257280437622e-01