<?xml version="1.0"?>
<VTKFile type="UnstructuredGrid"  version="0.1"  >
<UnstructuredGrid>
<Piece  NumberOfPoints="1394" NumberOfCells="6277">
<Points>
<DataArray  type="Float64"  NumberOfComponents="3"  format="ascii">0 0.3 0  0.05 0.3 0  0.05 0.35 0  0.05 0.35 0.05  0.05 0.3 0.05  0 0.3 0.05  0 0.35 0  0 0.35 0.05  0.1 0.3 0  0.1 0.35 0  0.1 0.35 0.05  0.1 0.3 0.05  0.15 0.3 0  0.15 0.35 0  0.15 0.35 0.05  0.15 0.3 0.05  0.2 0.3 0  0.2 0.35 0  0.2 0.35 0.05  0.2 0.3 0.05  0.25 0.3 0  0.25 0.35 0  0.25 0.35 0.05  0.25 0.3 0.05  0.3 0.35 0  0.3 0.35 0.05  0.05 0.4 0  0.05 0.4 0.05  0 0.4 0  0 0.4 0.05  0.1 0.4 0  0.1 0.4 0.05  0.15 0.4 0  0.15 0.4 0.05  0.2 0.4 0  0.2 0.4 0.05  0.25 0.4 0  0.25 0.4 0.05  0.3 0.4 0  0.3 0.4 0.05  0.05 0.45 0  0.05 0.45 0.05  0 0.45 0  0 0.45 0.05  0.1 0.45 0  0.1 0.45 0.05  0.15 0.45 0  0.15 0.45 0.05  0.2 0.45 0  0.2 0.45 0.05  0.25 0.45 0  0.25 0.45 0.05  0.3 0.45 0  0.3 0.45 0.05  0.35 0.45 0  0.35 0.45 0.05  0.05 0.5 0  0.05 0.5 0.05  0 0.5 0  0 0.5 0.05  0.1 0.5 0  0.1 0.5 0.05  0.15 0.5 0  0.15 0.5 0.05  0.2 0.5 0  0.2 0.5 0.05  0.25 0.5 0  0.25 0.5 0.05  0.3 0.5 0  0.3 0.5 0.05  0.35 0.5 0  0.35 0.5 0.05  0.05 0.55 0  0.05 0.55 0.05  0 0.55 0  0 0.55 0.05  0.1 0.55 0  0.1 0.55 0.05  0.15 0.55 0  0.15 0.55 0.05  0.2 0.55 0  0.2 0.55 0.05  0.25 0.55 0  0.25 0.55 0.05  0.3 0.55 0  0.3 0.55 0.05  0.35 0.55 0  0.35 0.55 0.05  0.05 0.6 0  0.05 0.6 0.05  0 0.6 0  0 0.6 0.05  0.1 0.6 0  0.1 0.6 0.05  0.15 0.6 0  0.15 0.6 0.05  0.2 0.6 0  0.2 0.6 0.05  0.25 0.6 0  0.25 0.6 0.05  0.3 0.6 0  0.3 0.6 0.05  0.35 0.6 0  0.35 0.6 0.05  0.05 0.65 0  0.05 0.65 0.05  0 0.65 0  0 0.65 0.05  0.1 0.65 0  0.1 0.65 0.05  0.15 0.65 0  0.15 0.65 0.05  0.2 0.65 0  0.2 0.65 0.05  0.25 0.65 0  0.25 0.65 0.05  0.3 0.65 0  0.3 0.65 0.05  0.35 0.65 0  0.35 0.65 0.05  0.05 0.7 0  0.05 0.7 0.05  0 0.7 0  0 0.7 0.05  0.1 0.7 0  0.1 0.7 0.05  0.15 0.7 0  0.15 0.7 0.05  0.2 0.7 0  0.2 0.7 0.05  0.25 0.7 0  0.25 0.7 0.05  0.3 0.7 0  0.3 0.7 0.05  0.35 0.7 0  0.35 0.7 0.05  0.05 0.75 0  0.05 0.75 0.05  0 0.75 0  0 0.75 0.05  0.1 0.75 0  0.1 0.75 0.05  0.15 0.75 0  0.15 0.75 0.05  0.2 0.75 0  0.2 0.75 0.05  0.25 0.75 0  0.25 0.75 0.05  0.3 0.75 0  0.3 0.75 0.05  0.35 0.75 0  0.35 0.75 0.05  0.4 0.75 0  0.4 0.75 0.05  0.05 0.8 0  0.05 0.8 0.05  0 0.8 0  0 0.8 0.05  0.1 0.8 0  0.1 0.8 0.05  0.15 0.8 0  0.15 0.8 0.05  0.2 0.8 0  0.2 0.8 0.05  0.25 0.8 0  0.25 0.8 0.05  0.3 0.8 0  0.3 0.8 0.05  0.35 0.8 0  0.35 0.8 0.05  0.4 0.8 0  0.4 0.8 0.05  0.45 0.8 0  0.45 0.8 0.05  0.05 0.85 0  0.05 0.85 0.05  0 0.85 0  0 0.85 0.05  0.1 0.85 0  0.1 0.85 0.05  0.15 0.85 0  0.15 0.85 0.05  0.2 0.85 0  0.2 0.85 0.05  0.25 0.85 0  0.25 0.85 0.05  0.3 0.85 0  0.3 0.85 0.05  0.35 0.85 0  0.35 0.85 0.05  0.4 0.85 0  0.4 0.85 0.05  0.45 0.85 0  0.45 0.85 0.05  0.05 0.9 0  0.05 0.9 0.05  0 0.9 0  0 0.9 0.05  0.1 0.9 0  0.1 0.9 0.05  0.15 0.9 0  0.15 0.9 0.05  0.2 0.9 0  0.2 0.9 0.05  0.25 0.9 0  0.25 0.9 0.05  0.3 0.9 0  0.3 0.9 0.05  0.35 0.9 0  0.35 0.9 0.05  0.4 0.9 0  0.4 0.9 0.05  0.45 0.9 0  0.45 0.9 0.05  0.05 0.95 0  0.05 0.95 0.05  0 0.95 0  0 0.95 0.05  0.1 0.95 0  0.1 0.95 0.05  0.15 0.95 0  0.15 0.95 0.05  0.2 0.95 0  0.2 0.95 0.05  0.25 0.95 0  0.25 0.95 0.05  0.3 0.95 0  0.3 0.95 0.05  0.35 0.95 0  0.35 0.95 0.05  0.4 0.95 0  0.4 0.95 0.05  0.45 0.95 0  0.45 0.95 0.05  0.5 0.95 0  0.5 0.95 0.05  0.05 1 0  0.05 1 0.05  0 1 0  0 1 0.05  0.1 1 0  0.1 1 0.05  0.15 1 0  0.15 1 0.05  0.2 1 0  0.2 1 0.05  0.25 1 0  0.25 1 0.05  0.3 1 0  0.3 1 0.05  0.35 1 0  0.35 1 0.05  0.4 1 0  0.4 1 0.05  0.45 1 0  0.45 1 0.05  0.5 1 0  0.5 1 0.05  0.55 1 0  0.55 1 0.05  0.05 0.35 0.1  0.05 0.3 0.1  0 0.3 0.1  0 0.35 0.1  0.1 0.35 0.1  0.1 0.3 0.1  0.15 0.35 0.1  0.2 0.35 0.1  0.25 0.35 0.1  0.3 0.35 0.1  0.05 0.4 0.1  0 0.4 0.1  0.1 0.4 0.1  0.15 0.4 0.1  0.2 0.4 0.1  0.25 0.4 0.1  0.3 0.4 0.1  0.05 0.45 0.1  0 0.45 0.1  0.1 0.45 0.1  0.15 0.45 0.1  0.2 0.45 0.1  0.25 0.45 0.1  0.3 0.45 0.1  0.35 0.45 0.1  0.05 0.5 0.1  0 0.5 0.1  0.1 0.5 0.1  0.15 0.5 0.1  0.2 0.5 0.1  0.25 0.5 0.1  0.3 0.5 0.1  0.35 0.5 0.1  0.05 0.55 0.1  0 0.55 0.1  0.1 0.55 0.1  0.15 0.55 0.1  0.2 0.55 0.1  0.25 0.55 0.1  0.3 0.55 0.1  0.35 0.55 0.1  0.4 0.55 0.1  0.05 0.6 0.1  0 0.6 0.1  0.1 0.6 0.1  0.15 0.6 0.1  0.2 0.6 0.1  0.25 0.6 0.1  0.3 0.6 0.1  0.35 0.6 0.1  0.4 0.6 0.1  0.05 0.65 0.1  0 0.65 0.1  0.1 0.65 0.1  0.15 0.65 0.1  0.2 0.65 0.1  0.25 0.65 0.1  0.3 0.65 0.1  0.35 0.65 0.1  0.4 0.65 0.1  0.05 0.7 0.1  0 0.7 0.1  0.1 0.7 0.1  0.15 0.7 0.1  0.2 0.7 0.1  0.25 0.7 0.1  0.3 0.7 0.1  0.35 0.7 0.1  0.4 0.7 0.1  0.05 0.75 0.1  0 0.75 0.1  0.1 0.75 0.1  0.15 0.75 0.1  0.2 0.75 0.1  0.25 0.75 0.1  0.3 0.75 0.1  0.35 0.75 0.1  0.4 0.75 0.1  0.05 0.8 0.1  0 0.8 0.1  0.1 0.8 0.1  0.15 0.8 0.1  0.2 0.8 0.1  0.25 0.8 0.1  0.3 0.8 0.1  0.35 0.8 0.1  0.4 0.8 0.1  0.45 0.8 0.1  0.05 0.85 0.1  0 0.85 0.1  0.1 0.85 0.1  0.15 0.85 0.1  0.2 0.85 0.1  0.25 0.85 0.1  0.3 0.85 0.1  0.35 0.85 0.1  0.4 0.85 0.1  0.45 0.85 0.1  0.05 0.9 0.1  0 0.9 0.1  0.1 0.9 0.1  0.15 0.9 0.1  0.2 0.9 0.1  0.25 0.9 0.1  0.3 0.9 0.1  0.35 0.9 0.1  0.4 0.9 0.1  0.45 0.9 0.1  0.5 0.9 0.1  0.05 0.95 0.1  0 0.95 0.1  0.1 0.95 0.1  0.15 0.95 0.1  0.2 0.95 0.1  0.25 0.95 0.1  0.3 0.95 0.1  0.35 0.95 0.1  0.4 0.95 0.1  0.45 0.95 0.1  0.5 0.95 0.1  0.05 1 0.1  0 1 0.1  0.1 1 0.1  0.15 1 0.1  0.2 1 0.1  0.25 1 0.1  0.3 1 0.1  0.35 1 0.1  0.4 1 0.1  0.45 1 0.1  0.5 1 0.1  0.55 0.95 0.1  0.55 1 0.1  0.05 0.35 0.15  0 0.35 0.15  0.1 0.35 0.15  0.15 0.35 0.15  0.05 0.4 0.15  0 0.4 0.15  0.1 0.4 0.15  0.15 0.4 0.15  0.2 0.4 0.15  0.2 0.35 0.15  0.25 0.4 0.15  0.25 0.35 0.15  0.3 0.4 0.15  0.05 0.45 0.15  0 0.45 0.15  0.1 0.45 0.15  0.15 0.45 0.15  0.2 0.45 0.15  0.25 0.45 0.15  0.3 0.45 0.15  0.35 0.45 0.15  0.05 0.5 0.15  0 0.5 0.15  0.1 0.5 0.15  0.15 0.5 0.15  0.2 0.5 0.15  0.25 0.5 0.15  0.3 0.5 0.15  0.35 0.5 0.15  0.05 0.55 0.15  0 0.55 0.15  0.1 0.55 0.15  0.15 0.55 0.15  0.2 0.55 0.15  0.25 0.55 0.15  0.3 0.55 0.15  0.35 0.55 0.15  0.4 0.55 0.15  0.05 0.6 0.15  0 0.6 0.15  0.1 0.6 0.15  0.15 0.6 0.15  0.2 0.6 0.15  0.25 0.6 0.15  0.3 0.6 0.15  0.35 0.6 0.15  0.4 0.6 0.15  0.05 0.65 0.15  0 0.65 0.15  0.1 0.65 0.15  0.15 0.65 0.15  0.2 0.65 0.15  0.25 0.65 0.15  0.3 0.65 0.15  0.35 0.65 0.15  0.4 0.65 0.15  0.05 0.7 0.15  0 0.7 0.15  0.1 0.7 0.15  0.15 0.7 0.15  0.2 0.7 0.15  0.25 0.7 0.15  0.3 0.7 0.15  0.35 0.7 0.15  0.4 0.7 0.15  0.45 0.7 0.15  0.05 0.75 0.15  0 0.75 0.15  0.1 0.75 0.15  0.15 0.75 0.15  0.2 0.75 0.15  0.25 0.75 0.15  0.3 0.75 0.15  0.35 0.75 0.15  0.4 0.75 0.15  0.45 0.75 0.15  0.05 0.8 0.15  0 0.8 0.15  0.1 0.8 0.15  0.15 0.8 0.15  0.2 0.8 0.15  0.25 0.8 0.15  0.3 0.8 0.15  0.35 0.8 0.15  0.4 0.8 0.15  0.45 0.8 0.15  0.05 0.85 0.15  0 0.85 0.15  0.1 0.85 0.15  0.15 0.85 0.15  0.2 0.85 0.15  0.25 0.85 0.15  0.3 0.85 0.15  0.35 0.85 0.15  0.4 0.85 0.15  0.45 0.85 0.15  0.05 0.9 0.15  0 0.9 0.15  0.1 0.9 0.15  0.15 0.9 0.15  0.2 0.9 0.15  0.25 0.9 0.15  0.3 0.9 0.15  0.35 0.9 0.15  0.4 0.9 0.15  0.45 0.9 0.15  0.5 0.9 0.15  0.05 0.95 0.15  0 0.95 0.15  0.1 0.95 0.15  0.15 0.95 0.15  0.2 0.95 0.15  0.25 0.95 0.15  0.3 0.95 0.15  0.35 0.95 0.15  0.4 0.95 0.15  0.45 0.95 0.15  0.5 0.95 0.15  0.55 0.95 0.15  0.05 1 0.15  0 1 0.15  0.1 1 0.15  0.15 1 0.15  0.2 1 0.15  0.25 1 0.15  0.3 1 0.15  0.35 1 0.15  0.4 1 0.15  0.45 1 0.15  0.5 1 0.15  0.55 1 0.15  0.6 1 0.15  0.05 0.4 0.2  0 0.4 0.2  0.1 0.4 0.2  0.1 0.35 0.2  0.05 0.35 0.2  0.15 0.4 0.2  0.2 0.4 0.2  0.25 0.4 0.2  0.3 0.4 0.2  0.05 0.45 0.2  0 0.45 0.2  0.1 0.45 0.2  0.15 0.45 0.2  0.2 0.45 0.2  0.25 0.45 0.2  0.3 0.45 0.2  0.35 0.45 0.2  0.05 0.5 0.2  0 0.5 0.2  0.1 0.5 0.2  0.15 0.5 0.2  0.2 0.5 0.2  0.25 0.5 0.2  0.3 0.5 0.2  0.35 0.5 0.2  0.05 0.55 0.2  0 0.55 0.2  0.1 0.55 0.2  0.15 0.55 0.2  0.2 0.55 0.2  0.25 0.55 0.2  0.3 0.55 0.2  0.35 0.55 0.2  0.4 0.55 0.2  0.05 0.6 0.2  0 0.6 0.2  0.1 0.6 0.2  0.15 0.6 0.2  0.2 0.6 0.2  0.25 0.6 0.2  0.3 0.6 0.2  0.35 0.6 0.2  0.4 0.6 0.2  0.45 0.6 0.2  0.05 0.65 0.2  0 0.65 0.2  0.1 0.65 0.2  0.15 0.65 0.2  0.2 0.65 0.2  0.25 0.65 0.2  0.3 0.65 0.2  0.35 0.65 0.2  0.4 0.65 0.2  0.45 0.65 0.2  0.05 0.7 0.2  0 0.7 0.2  0.1 0.7 0.2  0.15 0.7 0.2  0.2 0.7 0.2  0.25 0.7 0.2  0.3 0.7 0.2  0.35 0.7 0.2  0.4 0.7 0.2  0.45 0.7 0.2  0.05 0.75 0.2  0 0.75 0.2  0.1 0.75 0.2  0.15 0.75 0.2  0.2 0.75 0.2  0.25 0.75 0.2  0.3 0.75 0.2  0.35 0.75 0.2  0.4 0.75 0.2  0.45 0.75 0.2  0.05 0.8 0.2  0 0.8 0.2  0.1 0.8 0.2  0.15 0.8 0.2  0.2 0.8 0.2  0.25 0.8 0.2  0.3 0.8 0.2  0.35 0.8 0.2  0.4 0.8 0.2  0.45 0.8 0.2  0.05 0.85 0.2  0 0.85 0.2  0.1 0.85 0.2  0.15 0.85 0.2  0.2 0.85 0.2  0.25 0.85 0.2  0.3 0.85 0.2  0.35 0.85 0.2  0.4 0.85 0.2  0.45 0.85 0.2  0.05 0.9 0.2  0 0.9 0.2  0.1 0.9 0.2  0.15 0.9 0.2  0.2 0.9 0.2  0.25 0.9 0.2  0.3 0.9 0.2  0.35 0.9 0.2  0.4 0.9 0.2  0.45 0.9 0.2  0.5 0.9 0.2  0.05 0.95 0.2  0 0.95 0.2  0.1 0.95 0.2  0.15 0.95 0.2  0.2 0.95 0.2  0.25 0.95 0.2  0.3 0.95 0.2  0.35 0.95 0.2  0.4 0.95 0.2  0.45 0.95 0.2  0.5 0.95 0.2  0.05 1 0.2  0 1 0.2  0.1 1 0.2  0.15 1 0.2  0.2 1 0.2  0.25 1 0.2  0.3 1 0.2  0.35 1 0.2  0.4 1 0.2  0.45 1 0.2  0.5 1 0.2  0.55 1 0.2  0.6 1 0.2  0.1 0.4 0.25  0.15 0.4 0.25  0.05 0.45 0.25  0.05 0.4 0.25  0 0.4 0.25  0 0.45 0.25  0.1 0.45 0.25  0.15 0.45 0.25  0.2 0.45 0.25  0.25 0.45 0.25  0.3 0.45 0.25  0.35 0.45 0.25  0.05 0.5 0.25  0 0.5 0.25  0.1 0.5 0.25  0.15 0.5 0.25  0.2 0.5 0.25  0.25 0.5 0.25  0.3 0.5 0.25  0.35 0.5 0.25  0.4 0.5 0.25  0.05 0.55 0.25  0 0.55 0.25  0.1 0.55 0.25  0.15 0.55 0.25  0.2 0.55 0.25  0.25 0.55 0.25  0.3 0.55 0.25  0.35 0.55 0.25  0.4 0.55 0.25  0.05 0.6 0.25  0 0.6 0.25  0.1 0.6 0.25  0.15 0.6 0.25  0.2 0.6 0.25  0.25 0.6 0.25  0.3 0.6 0.25  0.35 0.6 0.25  0.4 0.6 0.25  0.45 0.6 0.25  0.05 0.65 0.25  0 0.65 0.25  0.1 0.65 0.25  0.15 0.65 0.25  0.2 0.65 0.25  0.25 0.65 0.25  0.3 0.65 0.25  0.35 0.65 0.25  0.4 0.65 0.25  0.45 0.65 0.25  0.05 0.7 0.25  0 0.7 0.25  0.1 0.7 0.25  0.15 0.7 0.25  0.2 0.7 0.25  0.25 0.7 0.25  0.3 0.7 0.25  0.35 0.7 0.25  0.4 0.7 0.25  0.45 0.7 0.25  0.05 0.75 0.25  0 0.75 0.25  0.1 0.75 0
[...]
<PointData  Vectors="f_8-0"> 
<DataArray  type="Float64"  Name="f_8-0"  NumberOfComponents="3" format="ascii">1.3498588075760032e-01 0.0000000000000000e+00 0.0000000000000000e+00  1.3498588075760032e-01 0.0000000000000000e+00 0.0000000000000000e+00  1.4190675485932572e-01 0.0000000000000000e+00 0.0000000000000000e+00  1.4918250533221952e-01 -7.9794351668088084e-09 -5.3600997191009950e-09  1.4190678873612708e-01 -7.1193148049578627e-09 -4.7564187740400276e-09  1.4190675485932572e-01 0.0000000000000000e+00 0.0000000000000000e+00  1.4190675485932572e-01 0.0000000000000000e+00 0.0000000000000000e+00  1.4918246976412705e-01 0.0000000000000000e+00 0.0000000000000000e+00  1.3498588075760032e-01 0.0000000000000000e+00 0.0000000000000000e+00  1.4190675485932572e-01 0.0000000000000000e+00 0.0000000000000000e+00  1.4918250412166106e-01 -8.0328332745630063e-09 -7.6869036652632156e-09  1.4190678758273254e-01 -7.1526972465700971e-09 -6.9641682117298671e-09  1.3498588075760032e-01 0.0000000000000000e+00 0.0000000000000000e+00  1.4190675485932572e-01 0.0000000000000000e+00 0.0000000000000000e+00  1.4918250265841224e-01 -7.8623966733418551e-09 -8.4807333613202365e-09  1.4190678619711128e-01 -7.0182621971184580e-09 -7.7149195262497304e-09  1.3498588075760032e-01 0.0000000000000000e+00 0.0000000000000000e+00  1.4190675485932572e-01 0.0000000000000000e+00 0.0000000000000000e+00  1.4918250183055165e-01 -7.8342536486189540e-09 -8.8735790731164436e-09  1.4190678539493282e-01 -7.0357447819037092e-09 -8.0797858499221762e-09  1.3498588075760032e-01 0.0000000000000000e+00 0.0000000000000000e+00  1.4190675485932572e-01 0.0000000000000000e+00 0.0000000000000000e+00  1.4918250143394635e-01 -7.8610988420478902e-09 -9.0857909031688435e-09  1.4190678498643597e-01 -7.1102899652050142e-09 -8.2722530184394994e-09  1.4190675485932572e-01 0.0000000000000000e+00 0.0000000000000000e+00  1.4918250129579216e-01 -7.8922953245656002e-09 -9.2077283788059154e-09  1.4918246976412705e-01 0.0000000000000000e+00 0.0000000000000000e+00  1.5683125589044705e-01 -8.9223204118621422e-09 -6.0425404974313269e-09  1.4918246976412705e-01 0.0000000000000000e+00 0.0000000000000000e+00  1.5683121854901691e-01 0.0000000000000000e+00 0.0000000000000000e+00  1.4918246976412705e-01 0.0000000000000000e+00 0.0000000000000000e+00  1.5683125462917691e-01 -9.0039357414442419e-09 -8.5001358049451722e-09  1.4918246976412705e-01 0.0000000000000000e+00 0.0000000000000000e+00  1.5683125308524540e-01 -8.8060487089657927e-09 -9.3391244293859867e-09  1.4918246976412705e-01 0.0000000000000000e+00 0.0000000000000000e+00  1.5683125222416050e-01 -8.7370684641518297e-09 -9.7596063635732518e-09  1.4918246976412705e-01 0.0000000000000000e+00 0.0000000000000000e+00  1.5683125182999730e-01 -8.7134107006944117e-09 -9.9904079730595693e-09  1.4918246976412705e-01 0.0000000000000000e+00 0.0000000000000000e+00  1.5683125171365769e-01 -8.6883636338607226e-09 -1.0125170628470793e-08  1.5683121854901691e-01 0.0000000000000000e+00 0.0000000000000000e+00  1.6487216626834003e-01 -9.9587313517243023e-09 -6.8092139266290138e-09  1.5683121854901691e-01 0.0000000000000000e+00 0.0000000000000000e+00  1.6487212707001284e-01 0.0000000000000000e+00 0.0000000000000000e+00  1.5683121854901691e-01 0.0000000000000000e+00 0.0000000000000000e+00  1.6487216496299939e-01 -1.0072656934870727e-08 -9.4101302015325354e-09  1.5683121854901691e-01 0.0000000000000000e+00 0.0000000000000000e+00  1.6487216333877533e-01 -9.8482880444706019e-09 -1.0297185522205666e-08  1.5683121854901691e-01 0.0000000000000000e+00 0.0000000000000000e+00  1.6487216244233791e-01 -9.7365127391486898e-09 -1.0745587312424259e-08  1.5683121854901691e-01 0.0000000000000000e+00 0.0000000000000000e+00  1.6487216204562746e-01 -9.6552834591322721e-09 -1.0993980118034641e-08  1.5683121854901691e-01 0.0000000000000000e+00 0.0000000000000000e+00  1.6487216194381643e-01 -9.5622984525854108e-09 -1.1139997443796163e-08  1.5683121854901691e-01 0.0000000000000000e+00 0.0000000000000000e+00  1.6487216200668497e-01 -9.4404233063726919e-09 -1.1225486407848884e-08  1.6487212707001284e-01 0.0000000000000000e+00 0.0000000000000000e+00  1.7332534292771590e-01 -1.1101240209381798e-08 -7.6674694382876817e-09  1.6487212707001284e-01 0.0000000000000000e+00 0.0000000000000000e+00  1.7332530178673955e-01 0.0000000000000000e+00 0.0000000000000000e+00  1.6487212707001284e-01 0.0000000000000000e+00 0.0000000000000000e+00  1.7332534158612012e-01 -1.1249912605966065e-08 -1.0425135432937191e-08  1.6487212707001284e-01 0.0000000000000000e+00 0.0000000000000000e+00  1.7332533988452278e-01 -1.0994326298556365e-08 -1.1363480971301215e-08  1.6487212707001284e-01 0.0000000000000000e+00 0.0000000000000000e+00  1.7332533895382926e-01 -1.0830962270230159e-08 -1.1840133040644500e-08  1.6487212707001284e-01 0.0000000000000000e+00 0.0000000000000000e+00  1.7332533855165833e-01 -1.0679230626351832e-08 -1.2104804102667307e-08  1.6487212707001284e-01 0.0000000000000000e+00 0.0000000000000000e+00  1.7332533845700779e-01 -1.0502952184477816e-08 -1.2259895588405540e-08  1.6487212707001284e-01 0.0000000000000000e+00 0.0000000000000000e+00  1.7332533852962462e-01 -1.0292431018205946e-08 -1.2349626091336368e-08  1.7332530178673955e-01 0.0000000000000000e+00 0.0000000000000000e+00  1.8221192321077653e-01 -1.2365252093049978e-08 -8.6261755239615780e-09  1.7332530178673955e-01 0.0000000000000000e+00 0.0000000000000000e+00  1.8221188003905092e-01 0.0000000000000000e+00 0.0000000000000000e+00  1.7332530178673955e-01 0.0000000000000000e+00 0.0000000000000000e+00  1.8221192184323071e-01 -1.2550814932816923e-08 -1.1555125592883430e-08  1.7332530178673955e-01 0.0000000000000000e+00 0.0000000000000000e+00  1.8221192006987708e-01 -1.2253737116576766e-08 -1.2547937716831887e-08  1.7332530178673955e-01 0.0000000000000000e+00 0.0000000000000000e+00  1.8221191910767465e-01 -1.2022040750363029e-08 -1.3052650447418640e-08  1.7332530178673955e-01 0.0000000000000000e+00 0.0000000000000000e+00  1.8221191869630646e-01 -1.1779419158982079e-08 -1.3331394129408289e-08  1.7332530178673955e-01 0.0000000000000000e+00 0.0000000000000000e+00  1.8221191859798005e-01 -1.1499809837333675e-08 -1.3492293300347811e-08  1.7332530178673955e-01 0.0000000000000000e+00 0.0000000000000000e+00  1.8221191866464428e-01 -1.1184380459757263e-08 -1.3582649829135615e-08  1.8221188003905089e-01 0.0000000000000000e+00 0.0000000000000000e+00  1.9155412819417739e-01 -1.3770580357597527e-08 -9.6957514165927829e-09  1.8221188003905089e-01 0.0000000000000000e+00 0.0000000000000000e+00  1.9155408290138964e-01 0.0000000000000000e+00 0.0000000000000000e+00  1.8221188003905089e-01 0.0000000000000000e+00 0.0000000000000000e+00  1.9155412681537370e-01 -1.3995537520049053e-08 -1.2811901709526483e-08  1.8221188003905089e-01 0.0000000000000000e+00 0.0000000000000000e+00  1.9155412497922800e-01 -1.3639283214793109e-08 -1.3861886791425397e-08  1.8221188003905089e-01 0.0000000000000000e+00 0.0000000000000000e+00  1.9155412398784377e-01 -1.3311632127018176e-08 -1.4393186836390789e-08  1.8221188003905089e-01 0.0000000000000000e+00 0.0000000000000000e+00  1.9155412355835594e-01 -1.2948209890022887e-08 -1.4682078729593955e-08  1.8221188003905089e-01 0.0000000000000000e+00 0.0000000000000000e+00  1.9155412343697828e-01 -1.2540492698710832e-08 -1.4843770605881886e-08  1.8221188003905089e-01 0.0000000000000000e+00 0.0000000000000000e+00  1.9155412347255249e-01 -1.2104875178181490e-08 -1.4929680682003496e-08  1.9155408290138964e-01 0.0000000000000000e+00 0.0000000000000000e+00  2.0137531825327434e-01 -1.5344187313908225e-08 -1.0888421709208056e-08  1.9155408290138964e-01 0.0000000000000000e+00 0.0000000000000000e+00  2.0137527074704767e-01 0.0000000000000000e+00 0.0000000000000000e+00  1.9155408290138964e-01 0.0000000000000000e+00 0.0000000000000000e+00  2.0137531688540480e-01 -1.5610827986190611e-08 -1.4209389581151224e-08  1.9155408290138964e-01 0.0000000000000000e+00 0.0000000000000000e+00  2.0137531499922459e-01 -1.5164953841285000e-08 -1.5317999314442650e-08  1.9155408290138964e-01 0.0000000000000000e+00 0.0000000000000000e+00  2.0137531397606717e-01 -1.4697214443871148e-08 -1.5871805195862005e-08  1.9155408290138964e-01 0.0000000000000000e+00 0.0000000000000000e+00  2.0137531350671461e-01 -1.4171528826220856e-08 -1.6163894070429007e-08  1.9155408290138964e-01 0.0000000000000000e+00 0.0000000000000000e+00  2.0137531332702360e-01 -1.3608569840199078e-08 -1.6318735506334055e-08  1.9155408290138964e-01 0.0000000000000000e+00 0.0000000000000000e+00  2.0137531329218586e-01 -1.3043559689566178e-08 -1.6393351632081432e-08  2.0137527074704767e-01 0.0000000000000000e+00 0.0000000000000000e+00  2.1170005147592696e-01 -1.7125427480172711e-08 -1.2218581937867242e-08  2.0137527074704767e-01 0.0000000000000000e+00 0.0000000000000000e+00  2.1170000166126748e-01 0.0000000000000000e+00 0.0000000000000000e+00  2.0137527074704767e-01 0.0000000000000000e+00 0.0000000000000000e+00  2.1170005015398841e-01 -1.7431723673935539e-08 -1.5763839691343047e-08  2.0137527074704767e-01 0.0000000000000000e+00 0.0000000000000000e+00  2.1170004823234054e-01 -1.6840752703072441e-08 -1.6929358434124209e-08  2.0137527074704767e-01 0.0000000000000000e+00 0.0000000000000000e+00  2.1170004715875854e-01 -1.6163493740734940e-08 -1.7496326532348605e-08  2.0137527074704767e-01 0.0000000000000000e+00 0.0000000000000000e+00  2.1170004660139419e-01 -1.5423529261909918e-08 -1.7779521162101649e-08  2.0137527074704767e-01 0.0000000000000000e+00 0.0000000000000000e+00  2.1170004630308595e-01 -1.4684447207417429e-08 -1.7916298325314305e-08  2.0137527074704767e-01 0.0000000000000000e+00 0.0000000000000000e+00  2.1170004614165935e-01 -1.3997480106646807e-08 -1.7971115536996359e-08  2.1170000166126748e-01 0.0000000000000000e+00 0.0000000000000000e+00  2.2255414507346349e-01 -1.9176414074251105e-08 -1.3702918154602894e-08  2.1170000166126748e-01 0.0000000000000000e+00 0.0000000000000000e+00  2.2255409284924679e-01 0.0000000000000000e+00 0.0000000000000000e+00  2.1170000166126748e-01 0.0000000000000000e+00 0.0000000000000000e+00  2.2255414385319433e-01 -1.9500938739815842e-08 -1.7492681058986168e-08  2.1170000166126748e-01 0.0000000000000000e+00 0.0000000000000000e+00  2.2255414190016784e-01 -1.8658534492904962e-08 -1.8704880199875509e-08  2.1170000166126748e-01 0.0000000000000000e+00 0.0000000000000000e+00  2.2255414071486362e-01 -1.7668777053284592e-08 -1.9264815321461591e-08  2.1170000166126748e-01 0.0000000000000000e+00 0.0000000000000000e+00  2.2255413997403520e-01 -1.6665555479668189e-08 -1.9518887432847287e-08  2.1170000166126748e-01 0.0000000000000000e+00 0.0000000000000000e+00  2.2255413946615216e-01 -1.5757500084639516e-08 -1.9622659134053033e-08  2.1170000166126748e-01 0.0000000000000000e+00 0.0000000000000000e+00  2.2255413911133706e-01 -1.4990105970278340e-08 -1.9648935594196109e-08  2.1170000166126748e-01 0.0000000000000000e+00 0.0000000000000000e+00  2.2255413888157730e-01 -1.4359761725529769e-08 -1.9633618837422488e-08  2.2255409284924679e-01 0.0000000000000000e+00 0.0000000000000000e+00  2.3396473994688166e-01 -2.1601156335684742e-08 -1.5358918857537978e-08  2.2255409284924679e-01 0.0000000000000000e+00 0.0000000000000000e+00  2.3396468519259914e-01 0.0000000000000000e+00 0.0000000000000000e+00  2.2255409284924679e-01 0.0000000000000000e+00 0.0000000000000000e+00  2.3396473890925040e-01 -2.1853568503530885e-08 -1.9406487881877525e-08  2.2255409284924679e-01 0.0000000000000000e+00 0.0000000000000000e+00  2.3396473687060340e-01 -2.0556548793433948e-08 -2.0630756175436954e-08  2.2255409284924679e-01 0.0000000000000000e+00 0.0000000000000000e+00  2.3396473541559112e-01 -1.9132301306699588e-08 -2.1141579350085483e-08  2.2255409284924679e-01 0.0000000000000000e+00 0.0000000000000000e+00  2.3396473433157911e-01 -1.7868710960444038e-08 -2.1336226434754777e-08  2.2255409284924679e-01 0.0000000000000000e+00 0.0000000000000000e+00  2.3396473350938984e-01 -1.6867705691556441e-08 -2.1391518856856457e-08  2.2255409284924679e-01 0.0000000000000000e+00 0.0000000000000000e+00  2.3396473291141412e-01 -1.6114174027285125e-08 -2.1384302192873613e-08  2.2255409284924679e-01 0.0000000000000000e+00 0.0000000000000000e+00  2.3396473251219294e-01 -1.5551644123910539e-08 -2.1348051930391901e-08  2.2255409284924679e-01 0.0000000000000000e+00 0.0000000000000000e+00  2.3396473228876785e-01 -1.5120244895720551e-08 -2.1297986414295013e-08  2.3396468519259908e-01 0.0000000000000000e+00 0.0000000000000000e+00  2.4596036858296746e-01 -2.4570036646690060e-08 -1.7199232377806905e-08  2.3396468519259908e-01 0.0000000000000000e+00 0.0000000000000000e+00  2.4596031111569500e-01 0.0000000000000000e+00 0.0000000000000000e+00  2.3396468519259908e-01 0.0000000000000000e+00 0.0000000000000000e+00  2.4596036778563971e-01 -2.4437220099588416e-08 -2.1472992161845901e-08  2.3396468519259908e-01 0.0000000000000000e+00 0.0000000000000000e+00  2.4596036540612021e-01 -2.2349308125208813e-08 -2.2602244232921125e-08  2.3396468519259908e-01 0.0000000000000000e+00 0.0000000000000000e+00  2.4596036336052199e-01 -2.0468389551037274e-08 -2.2986367158370709e-08  2.3396468519259908e-01 0.0000000000000000e+00 0.0000000000000000e+00  2.4596036175901076e-01 -1.9109811225470658e-08 -2.3089676652484550e-08  2.3396468519259908e-01 0.0000000000000000e+00 0.0000000000000000e+00  2.4596036058207268e-01 -1.8201845641982196e-08 -2.3091144833162357e-08  2.3396468519259908e-01 0.0000000000000000e+00 0.0000000000000000e+00  2.4596035976683489e-01 -1.7605353625212635e-08 -2.3055990834991614e-08  2.3396468519259908e-01 0.0000000000000000e+00 0.0000000000000000e+00  2.4596035924233581e-01 -1.7205972833667184e-08 -2.3007234834245844e-08  2.3396468519259908e-01 0.0000000000000000e+00 0.0000000000000000e+00  2.4596035895073201e-01 -1.6924452173966603e-08 -2.2953226307899762e-08  2.4596031111569500e-01 0.0000000000000000e+00 0.0000000000000000e+00  2.5857102640133334e-01 -2.8249160142396606e-08 -1.9203210175369226e-08  2.4596031111569500e-01 0.0000000000000000e+00 0.0000000000000000e+00  2.5857096593158463e-01 0.0000000000000000e+00 0.0000000000000000e+00  2.4596031111569500e-01 0.0000000000000000e+00 0.0000000000000000e+00  2.5857102561948625e-01 -2.6727768639641054e-08 -2.3405624562401194e-08  2.4596031111569500e-01 0.0000000000000000e+00 0.0000000000000000e+00  2.5857102210597921e-01 -2.3665708705447841e-08 -2.4153239176677111e-08  2.4596031111569500e-01 0.0000000000000000e+00 0.0000000000000000e+00  2.5857101917188702e-01 -2.1775139154498571e-08 -2.4328245537904541e-08  2.4596031111569500e-01 0.0000000000000000e+00 0.0000000000000000e+00  2.5857101712463521e-01 -2.0738771925165282e-08 -2.4340818268553087e-08  2.4596031111569500e-01 0.0000000000000000e+00 0.0000000000000000e+00  2.5857101577283348e-01 -2.0177115819611797e-08 -2.4309303327002512e-08  2.4596031111569500e-01 0.0000000000000000e+00 0.0000000000000000e+00  2.5857101490842888e-01 -1.9864983659837641e-08 -2.4266290712295946e-08  2.4596031111569500e-01 0.0000000000000000e+00 0.0000000000000000e+00  2.5857101438181185e-01 -1.9683960736667585e-08 -2.4220237291159867e-08  2.4596031111569500e-01 0.0000000000000000e+00 0.0000000000000000e+00  2.5857101409898925e-01 -1.9571691708385620e-08 -2.4173268384041651e-08  2.5857096593158463e-01 0.0000000000000000e+00 0.0000000000000000e+00  2.7182824704023428e-01 -3.1783799182576993e-08 -2.2324418022658468e-08  2.5857096593158463e-01 0.0000000000000000e+00 0.0000000000000000e+00  2.7182818284590454e-01 0.0000000000000000e+00 0.0000000000000000e+00  2.5857096593158463e-01 0.0000000000000000e+00 0.0000000000000000e+00  2.7182824324975657e-01 -2.7150612517868540e-08 -2.4720653132939692e-08  2.5857096593158463e-01 0.0000000000000000e+00 0.0000000000000000e+00  2.7182823830781838e-01 -2.4703076476680209e-08 -2.4817657866083583e-08  2.5857096593158463e-01 0.0000000000000000e+00 0.0000000000000000e+00  2.7182823530394534e-01 -2.3814157951797067e-08 -2.4834140421429954e-08  2.5857096593158463e-01 0.0000000000000000e+00 0.0000000000000000e+00  2.7182823357054425e-01 -2.3492319137985319e-08 -2.4823626867738897e-08  2.5857096593158463e-01 0.0000000000000000e+00 0.0000000000000000e+00  2.7182823255250743e-01 -2.3374290117503720e-08 -2.4801799181307453e-08  2.5857096593158463e-01 0.0000000000000000e+00 0.0000000000000000e+00  2.7182823194766831e-01 -2.3334322781957228e-08 -2.4774865807275429e-08  2.5857096593158463e-01 0.0000000000000000e+00 0.0000000000000000e+00  2.7182823159675862e-01 -2.3326728683403172e-08 -2.4745339222906428e-08  2.5857096593158463e-01 0.0000000000000000e+00 0.0000000000000000e+00  2.7182823141598444e-01 -2.3333367608176044e-08 -2.4714188335938318e-08  2.5857096593158463e-01 0.0000000000000000e+00 0.0000000000000000e+00  2.7182823136422202e-01 -2.3345918864729735e-08 -2.4681917526694840e-08  2.7182818284590454e-01 0.0000000000000000e+00 0.0000000000000000e+00  2.8576511180631642e-01 0.0000000000000000e+00 0.0000000000000000e+00  2.7182818284590454e-01 0.0000000000000000e+00 0.0000000000000000e+00  2.8576511180631642e-01 0.0000000000000000e+00 0.0000000000000000e+00  2.7182818284590454e-01 0.0000000000000000e+00 0.0000000000000000e+00  2.8576511180631642e-01 0.0000000000000000e+00 0.0000000000000000e+00  2.7182818284590454e-01 0.0000000000000000e+00 0.0000000000000000e+00  2.8576511180631642e-01 0.0000000000000000e+00 0.0000000000000000e+00  2.7182818284590454e-01 0.0000000000000000e+00 0.0000000000000000e+00  2.8576511180631642e-01 0.0000000000000000e+00 0.0000000000000000e+00  2.7182818284590454e-01 0.0000000000000000e+00 0.0000000000000000e+00  2.8576511180631642e-01 0.0000000000000000e+00 0.0000000000000000e+00  2.7182818284590454e-01 0.0000000000000000e+00 0.0000000000000000e+00  2.8576511180631642e-01 0.0000000000000000e+00 0.0000000000000000e+00  2.7182818284590454e-01 0.0000000000000000e+00 0.0000000000000000e+00  2.8576511180631642e-01 0.0000000000000000e+00 0.0000000000000000e+00  2.7182818284590454e-01 0.0000000000000000e+00 0.0000000000000000e+00  2.8576511180631642e-01 0.0000000000000000e+00 0.0000000000000000e+00  2.7182818284590454e-01 0.0000000000000000e+00 0.0000000000000000e+00  2.8576511180631642e-01 0.0000000000000000e+00 0.0000000000000000e+00  2.7182818284590454e-01 0.0000000000000000e+00 0.0000000000000000e+00  2.8576511180631642e-01 0.0000000000000000e+00 0.0000000000000000e+00  2.7182818284590454e-01 0.0000000000000000e+00 0.0000000000000000e+00  2.8576511180631642e-01 0.0000000000000000e+00 0.0000000000000000e+00  1.5683125608040571e-01 -9.3140382529926200e-09 -6.9512544021687887e-09  1.4918250552915291e-01 -8.2698261315756096e-09 -6.2505036233873123e-09  1.4918246976412705e-01 0.0000000000000000e+00 0.0000000000000000e+00  1.5683121854901688e-01 0.0000000000000000e+00 0.0000000000000000e+00  1.5683125759734062e-01 -9.9693997481659262e-09 -8.2052316789681429e-09  1.4918250693279178e-01 -8.8317158993803918e-09 -7.4500126622933196e-09  1.5683125690989186e-01 -1.0044293770111678e-08 -9.3364864679035042e-09  1.5683125626862318e-01 -1.0148070299620986e-08 -1.0150892672924519e-08  1.5683125593411837e-01 -1.0264852752734369e-08 -1.0698690616361159e-08  1.5683125586173544e-01 -1.0351788894191731e-08 -1.1059682514980323e-08  1.6487216645075484e-01 -1.0452318519432328e-08 -7.7529959965599266e-09  1.6487212707001284e-01 0.0000000000000000e+00 0.0000000000000000e+00  1.6487216809926319e-01 -1.1217316607414596e-08 -9.0735788766029504e-09  1.6487216739578686e-01 -1.1286893407186187e-08 -1.0269911427010519e-08  1.6487216675693592e-01 -1.1342275723331099e-08 -1.1142878870259957e-08  1.6487216645566172e-01 -1.1384827032069131e-08 -1.1738123982301932e-08  1.6487216643504027e-01 -1.1382157514572621e-08 -1.2135078828180129e-08  1.7332534310061179e-01 -1.1699541926139180e-08 -8.6603259058329774e-09  1.7332530178673955e-01 0.0000000000000000e+00 0.0000000000000000e+00  1.7332534490199120e-01 -1.2585327236463572e-08 -1.0060283147489516e-08  1.7332534418659906e-01 -1.2653180770577578e-08 -1.