<?xml version="1.0"?>
<VTKFile type="UnstructuredGrid"  version="0.1"  >
<UnstructuredGrid>
<Piece  NumberOfPoints="1314" NumberOfCells="5809">
<Points>
<DataArray  type="Float64"  NumberOfComponents="3"  format="ascii">0.9 0.4 0.2  0.9 0.4 0.25  0.95 0.4 0.25  0.95 0.45 0.25  0.9 0.45 0.25  0.9 0.45 0.2  0.95 0.5 0.25  0.9 0.5 0.25  0.65 0.35 0.25  0.65 0.4 0.25  0.7 0.4 0.25  0.7 0.4 0.3  0.65 0.4 0.3  0.7 0.45 0.25  0.7 0.45 0.3  0.65 0.45 0.25  0.65 0.45 0.3  0.75 0.4 0.25  0.75 0.45 0.25  0.75 0.45 0.3  0.8 0.4 0.25  0.8 0.45 0.25  0.8 0.45 0.3  0.85 0.4 0.25  0.85 0.45 0.25  0.85 0.45 0.3  0.9 0.45 0.3  0.95 0.45 0.3  1 0.45 0.3  0.7 0.5 0.25  0.7 0.5 0.3  0.65 0.5 0.25  0.65 0.5 0.3  0.75 0.5 0.25  0.75 0.5 0.3  0.8 0.5 0.25  0.8 0.5 0.3  0.85 0.5 0.25  0.85 0.5 0.3  0.9 0.5 0.3  0.95 0.5 0.3  1 0.5 0.3  0.7 0.55 0.25  0.7 0.55 0.3  0.65 0.55 0.25  0.65 0.55 0.3  0.75 0.55 0.25  0.75 0.55 0.3  0.8 0.55 0.25  0.8 0.55 0.3  0.85 0.55 0.25  0.85 0.55 0.3  0.9 0.55 0.25  0.9 0.55 0.3  0.95 0.55 0.3  1 0.55 0.3  0.7 0.6 0.25  0.7 0.6 0.3  0.65 0.6 0.25  0.65 0.6 0.3  0.75 0.6 0.25  0.75 0.6 0.3  0.8 0.6 0.25  0.8 0.6 0.3  0.85 0.6 0.25  0.85 0.6 0.3  0.9 0.6 0.3  0.95 0.6 0.3  0.7 0.65 0.25  0.7 0.65 0.3  0.65 0.65 0.25  0.65 0.65 0.3  0.75 0.65 0.25  0.75 0.65 0.3  0.8 0.65 0.25  0.8 0.65 0.3  0.85 0.65 0.3  0.9 0.65 0.3  0.7 0.7 0.3  0.65 0.7 0.3  0.75 0.7 0.3  0.8 0.7 0.3  0.85 0.7 0.3  0.55 0.35 0.3  0.55 0.35 0.35  0.6 0.35 0.35  0.6 0.4 0.35  0.55 0.4 0.35  0.6 0.4 0.3  0.65 0.45 0.35  0.65 0.4 0.35  0.6 0.45 0.35  0.7 0.45 0.35  0.75 0.45 0.35  0.7 0.5 0.35  0.65 0.5 0.35  0.75 0.5 0.35  0.8 0.5 0.35  0.8 0.45 0.35  0.85 0.5 0.35  0.85 0.45 0.35  0.9 0.5 0.35  0.95 0.5 0.35  1 0.5 0.35  0.7 0.55 0.35  0.65 0.55 0.35  0.75 0.55 0.35  0.8 0.55 0.35  0.85 0.55 0.35  0.9 0.55 0.35  0.95 0.55 0.35  1 0.55 0.35  0.7 0.6 0.35  0.65 0.6 0.35  0.75 0.6 0.35  0.8 0.6 0.35  0.85 0.6 0.35  0.9 0.6 0.35  0.95 0.6 0.35  1 0.6 0.3  1 0.6 0.35  0.7 0.65 0.35  0.65 0.65 0.35  0.75 0.65 0.35  0.8 0.65 0.35  0.85 0.65 0.35  0.9 0.65 0.35  0.95 0.65 0.3  0.95 0.65 0.35  1 0.65 0.3  1 0.65 0.35  0.7 0.7 0.35  0.65 0.7 0.35  0.75 0.7 0.35  0.8 0.7 0.35  0.85 0.7 0.35  0.9 0.7 0.3  0.9 0.7 0.35  0.95 0.7 0.35  1 0.7 0.35  0.7 0.75 0.35  0.65 0.75 0.35  0.75 0.75 0.35  0.8 0.75 0.35  0.85 0.75 0.35  0.9 0.75 0.35  0.95 0.75 0.35  0.5 0.35 0.35  0.55 0.4 0.4  0.55 0.35 0.4  0.5 0.35 0.4  0.5 0.4 0.35  0.5 0.4 0.4  0.6 0.4 0.4  0.6 0.35 0.4  0.65 0.4 0.4  0.55 0.45 0.35  0.55 0.45 0.4  0.5 0.45 0.35  0.5 0.45 0.4  0.6 0.45 0.4  0.65 0.45 0.4  0.7 0.45 0.4  0.45 0.45 0.35  0.5 0.5 0.35  0.5 0.5 0.4  0.45 0.45 0.4  0.45 0.5 0.35  0.45 0.5 0.4  0.55 0.5 0.35  0.55 0.5 0.4  0.6 0.5 0.35  0.6 0.5 0.4  0.65 0.5 0.4  0.7 0.5 0.4  0.75 0.5 0.4  0.75 0.45 0.4  0.8 0.5 0.4  0.8 0.45 0.4  0.85 0.5 0.4  0.85 0.45 0.4  0.9 0.5 0.4  0.5 0.55 0.35  0.5 0.55 0.4  0.45 0.55 0.35  0.45 0.55 0.4  0.55 0.55 0.35  0.55 0.55 0.4  0.6 0.55 0.35  0.6 0.55 0.4  0.65 0.55 0.4  0.7 0.55 0.4  0.75 0.55 0.4  0.8 0.55 0.4  0.85 0.55 0.4  0.9 0.55 0.4  0.95 0.55 0.4  1 0.55 0.4  0.4 0.55 0.35  0.45 0.6 0.35  0.45 0.6 0.4  0.5 0.6 0.35  0.5 0.6 0.4  0.55 0.6 0.35  0.55 0.6 0.4  0.6 0.6 0.35  0.6 0.6 0.4  0.65 0.6 0.4  0.7 0.6 0.4  0.75 0.6 0.4  0.8 0.6 0.4  0.85 0.6 0.4  0.9 0.6 0.4  0.95 0.6 0.4  1 0.6 0.4  0.5 0.65 0.35  0.5 0.65 0.4  0.55 0.65 0.35  0.55 0.65 0.4  0.6 0.65 0.35  0.6 0.65 0.4  0.65 0.65 0.4  0.7 0.65 0.4  0.75 0.65 0.4  0.8 0.65 0.4  0.85 0.65 0.4  0.9 0.65 0.4  0.95 0.65 0.4  1 0.65 0.4  0.55 0.7 0.35  0.55 0.7 0.4  0.5 0.7 0.35  0.5 0.7 0.4  0.6 0.7 0.35  0.6 0.7 0.4  0.65 0.7 0.4  0.7 0.7 0.4  0.75 0.7 0.4  0.8 0.7 0.4  0.85 0.7 0.4  0.9 0.7 0.4  0.95 0.7 0.4  1 0.7 0.4  0.55 0.75 0.35  0.55 0.75 0.4  0.5 0.75 0.35  0.5 0.75 0.4  0.6 0.75 0.35  0.6 0.75 0.4  0.65 0.75 0.4  0.7 0.75 0.4  0.75 0.75 0.4  0.8 0.75 0.4  0.85 0.75 0.4  0.9 0.75 0.4  0.95 0.75 0.4  1 0.75 0.35  1 0.75 0.4  0.55 0.8 0.35  0.55 0.8 0.4  0.5 0.8 0.35  0.5 0.8 0.4  0.6 0.8 0.35  0.6 0.8 0.4  0.65 0.8 0.35  0.65 0.8 0.4  0.7 0.8 0.35  0.7 0.8 0.4  0.75 0.8 0.35  0.75 0.8 0.4  0.8 0.8 0.35  0.8 0.8 0.4  0.85 0.8 0.35  0.85 0.8 0.4  0.9 0.8 0.35  0.9 0.8 0.4  0.95 0.8 0.35  0.95 0.8 0.4  1 0.8 0.35  1 0.8 0.4  0.55 0.85 0.35  0.55 0.85 0.4  0.5 0.85 0.35  0.6 0.85 0.35  0.6 0.85 0.4  0.65 0.85 0.35  0.65 0.85 0.4  0.7 0.85 0.35  0.7 0.85 0.4  0.75 0.85 0.35  0.75 0.85 0.4  0.8 0.85 0.35  0.8 0.85 0.4  0.85 0.85 0.35  0.85 0.85 0.4  0.9 0.85 0.35  0.9 0.85 0.4  0.95 0.85 0.35  0.95 0.85 0.4  1 0.85 0.35  1 0.85 0.4  0.55 0.9 0.35  0.55 0.9 0.4  0.6 0.9 0.35  0.6 0.9 0.4  0.65 0.9 0.35  0.65 0.9 0.4  0.7 0.9 0.35  0.7 0.9 0.4  0.75 0.9 0.35  0.75 0.9 0.4  0.8 0.9 0.35  0.8 0.9 0.4  0.85 0.9 0.35  0.85 0.9 0.4  0.9 0.9 0.35  0.9 0.9 0.4  0.95 0.9 0.35  0.95 0.9 0.4  1 0.9 0.35  1 0.9 0.4  0.6 0.95 0.35  0.6 0.95 0.4  0.55 0.95 0.35  0.55 0.95 0.4  0.65 0.95 0.35  0.65 0.95 0.4  0.7 0.95 0.35  0.7 0.95 0.4  0.75 0.95 0.35  0.75 0.95 0.4  0.8 0.95 0.35  0.8 0.95 0.4  0.85 0.95 0.35  0.85 0.95 0.4  0.9 0.95 0.35  0.9 0.95 0.4  0.95 0.95 0.35  0.95 0.95 0.4  1 0.95 0.35  1 0.95 0.4  0.6 1 0.35  0.6 1 0.4  0.55 1 0.35  0.65 1 0.35  0.65 1 0.4  0.7 1 0.35  0.7 1 0.4  0.75 1 0.35  0.75 1 0.4  0.8 1 0.35  0.8 1 0.4  0.85 1 0.35  0.85 1 0.4  0.9 1 0.35  0.9 1 0.4  0.95 1 0.35  0.95 1 0.4  1 1 0.35  1 1 0.4  0.55 0.4 0.45  0.5 0.35 0.45  0.5 0.4 0.45  0.6 0.4 0.45  0.65 0.4 0.45  0.4 0.4 0.4  0.45 0.4 0.4  0.45 0.45 0.45  0.45 0.4 0.45  0.5 0.45 0.45  0.55 0.45 0.45  0.6 0.45 0.45  0.65 0.45 0.45  0.7 0.45 0.45  0.5 0.5 0.45  0.45 0.5 0.45  0.55 0.5 0.45  0.6 0.5 0.45  0.65 0.5 0.45  0.7 0.5 0.45  0.75 0.5 0.45  0.75 0.45 0.45  0.8 0.5 0.45  0.8 0.45 0.45  0.85 0.5 0.45  0.9 0.5 0.45  0.5 0.55 0.45  0.45 0.55 0.45  0.55 0.55 0.45  0.6 0.55 0.45  0.65 0.55 0.45  0.7 0.55 0.45  0.75 0.55 0.45  0.8 0.55 0.45  0.85 0.55 0.45  0.9 0.55 0.45  0.95 0.55 0.45  0.5 0.6 0.45  0.55 0.6 0.45  0.6 0.6 0.45  0.65 0.6 0.45  0.7 0.6 0.45  0.75 0.6 0.45  0.8 0.6 0.45  0.85 0.6 0.45  0.9 0.6 0.45  0.95 0.6 0.45  1 0.6 0.45  1 0.55 0.45  0.5 0.65 0.45  0.55 0.65 0.45  0.6 0.65 0.45  0.65 0.65 0.45  0.7 0.65 0.45  0.75 0.65 0.45  0.8 0.65 0.45  0.85 0.65 0.45  0.9 0.65 0.45  0.95 0.65 0.45  1 0.65 0.45  0.55 0.7 0.45  0.6 0.7 0.45  0.65 0.7 0.45  0.7 0.7 0.45  0.75 0.7 0.45  0.8 0.7 0.45  0.85 0.7 0.45  0.9 0.7 0.45  0.95 0.7 0.45  1 0.7 0.45  0.55 0.75 0.45  0.6 0.75 0.45  0.65 0.75 0.45  0.7 0.75 0.45  0.75 0.75 0.45  0.8 0.75 0.45  0.85 0.75 0.45  0.9 0.75 0.45  0.95 0.75 0.45  1 0.75 0.45  0.55 0.8 0.45  0.6 0.8 0.45  0.65 0.8 0.45  0.7 0.8 0.45  0.75 0.8 0.45  0.8 0.8 0.45  0.85 0.8 0.45  0.9 0.8 0.45  0.95 0.8 0.45  1 0.8 0.45  0.55 0.85 0.45  0.6 0.85 0.45  0.65 0.85 0.45  0.7 0.85 0.45  0.75 0.85 0.45  0.8 0.85 0.45  0.85 0.85 0.45  0.9 0.85 0.45  0.95 0.85 0.45  1 0.85 0.45  0.6 0.9 0.45  0.65 0.9 0.45  0.7 0.9 0.45  0.75 0.9 0.45  0.8 0.9 0.45  0.85 0.9 0.45  0.9 0.9 0.45  0.95 0.9 0.45  1 0.9 0.45  0.6 0.95 0.45  0.65 0.95 0.45  0.7 0.95 0.45  0.75 0.95 0.45  0.8 0.95 0.45  0.85 0.95 0.45  0.9 0.95 0.45  0.95 0.95 0.45  1 0.95 0.45  0.6 1 0.45  0.65 1 0.45  0.7 1 0.45  0.75 1 0.45  0.8 1 0.45  0.85 1 0.45  0.9 1 0.45  0.95 1 0.45  1 1 0.45  0.45 0.35 0.45  0.5 0.4 0.5  0.45 0.35 0.5  0.45 0.4 0.5  0.55 0.4 0.5  0.5 0.45 0.5  0.55 0.45 0.5  0.6 0.45 0.5  0.65 0.45 0.5  0.7 0.45 0.5  0.5 0.5 0.5  0.55 0.5 0.5  0.6 0.5 0.5  0.65 0.5 0.5  0.7 0.5 0.5  0.75 0.5 0.5  0.75 0.45 0.5  0.8 0.5 0.5  0.8 0.45 0.5  0.85 0.45 0.5  0.85 0.5 0.5  0.5 0.55 0.5  0.55 0.55 0.5  0.6 0.55 0.5  0.65 0.55 0.5  0.7 0.55 0.5  0.75 0.55 0.5  0.8 0.55 0.5  0.85 0.55 0.5  0.9 0.55 0.5  0.9 0.5 0.5  0.95 0.55 0.5  0.5 0.6 0.5  0.55 0.6 0.5  0.6 0.6 0.5  0.65 0.6 0.5  0.7 0.6 0.5  0.75 0.6 0.5  0.8 0.6 0.5  0.85 0.6 0.5  0.9 0.6 0.5  0.95 0.6 0.5  1 0.6 0.5  1 0.55 0.5  0.55 0.65 0.5  0.5 0.65 0.5  0.6 0.65 0.5  0.65 0.65 0.5  0.7 0.65 0.5  0.75 0.65 0.5  0.8 0.65 0.5  0.85 0.65 0.5  0.9 0.65 0.5  0.95 0.65 0.5  1 0.65 0.5  0.55 0.7 0.5  0.6 0.7 0.5  0.65 0.7 0.5  0.7 0.7 0.5  0.75 0.7 0.5  0.8 0.7 0.5  0.85 0.7 0.5  0.9 0.7 0.5  0.95 0.7 0.5  1 0.7 0.5  0.6 0.75 0.5  0.55 0.75 0.5  0.65 0.75 0.5  0.7 0.75 0.5  0.75 0.75 0.5  0.8 0.75 0.5  0.85 0.75 0.5  0.9 0.75 0.5  0.95 0.75 0.5  1 0.75 0.5  0.6 0.8 0.5  0.55 0.8 0.5  0.65 0.8 0.5  0.7 0.8 0.5  0.75 0.8 0.5  0.8 0.8 0.5  0.85 0.8 0.5  0.9 0.8 0.5  0.95 0.8 0.5  1 0.8 0.5  0.6 0.85 0.5  0.55 0.85 0.5  0.65 0.85 0.5  0.7 0.85 0.5  0.75 0.85 0.5  0.8 0.85 0.5  0.85 0.85 0.5  0.9 0.85 0.5  0.95 0.85 0.5  1 0.85 0.5  0.6 0.9 0.5  0.65 0.9 0.5  0.7 0.9 0.5  0.75 0.9 0.5  0.8 0.9 0.5  0.85 0.9 0.5  0.9 0.9 0.5  0.95 0.9 0.5  1 0.9 0.5  0.65 0.95 0.5  0.7 0.95 0.5  0.75 0.95 0.5  0.8 0.95 0.5  0.85 0.95 0.5  0.9 0.95 0.5  0.95 0.95 0.5  1 0.95 0.5  0.65 1 0.5  0.7 1 0.5  0.75 1 0.5  0.8 1 0.5  0.85 1 0.5  0.9 1 0.5  0.95 1 0.5  1 1 0.5  0.5 0.4 0.55  0.5 0.45 0.55  0.55 0.45 0.55  0.55 0.4 0.55  0.6 0.45 0.55  0.55 0.5 0.55  0.5 0.5 0.55  0.6 0.5 0.55  0.65 0.5 0.55  0.65 0.45 0.55  0.7 0.5 0.55  0.75 0.5 0.55  0.75 0.45 0.55  0.8 0.5 0.55  0.8 0.45 0.55  0.85 0.5 0.55  0.85 0.45 0.55  0.9 0.5 0.55  0.55 0.55 0.55  0.5 0.55 0.55  0.6 0.55 0.55  0.65 0.55 0.55  0.7 0.55 0.55  0.75 0.55 0.55  0.8 0.55 0.55  0.85 0.55 0.55  0.9 0.55 0.55  0.95 0.55 0.55  0.55 0.6 0.55  0.5 0.6 0.55  0.6 0.6 0.55  0.65 0.6 0.55  0.7 0.6 0.55  0.75 0.6 0.55  0.8 0.6 0.55  0.85 0.6 0.55  0.9 0.6 0.55  0.95 0.6 0.55  1 0.6 0.55  1 0.55 0.55  0.55 0.65 0.55  0.6 0.65 0.55  0.65 0.65 0.55  0.7 0.65 0.55  0.75 0.65 0.55  0.8 0.65 0.55  0.85 0.65 0.55  0.9 0.65 0.55  0.95 0.65 0.55  1 0.65 0.55  0.55 0.7 0.55  0.6 0.7 0.55  0.65 0.7 0.55  0.7 0.7 0.55  0.75 0.7 0.55  0.8 0.7 0.55  0.85 0.7 0.55  0.9 0.7 0.55  0.95 0.7 0.55  1 0.7 0.55  0.6 0.75 0.55  0.65 0.75 0.55  0.7 0.75 0.55  0.75 0.75 0.55  0.8 0.75 0.55  0.85 0.75 0.55  0.9 0.75 0.55  0.95 0.75 0.55  1 0.75 0.55  0.6 0.8 0.55  0.65 0.8 0.55  0.7 0.8 0.55  0.75 0.8 0.55  0.8 0.8 0.55  0.85 0.8 0.55  0.9 0.8 0.55  0.95 0.8 0.55  1 0.8 0.55  0.6
[...]
<PointData  Vectors="f_8-0"> 
<DataArray  type="Float64"  Name="f_8-0"  NumberOfComponents="3" format="ascii">1.8221192752412141e-01 -1.3376675406888985e-08 -1.8411124227054314e-08  1.9155413283464706e-01 -1.5303723988043843e-08 -1.9344084736640673e-08  1.9155412854633805e-01 -1.4003331363210303e-08 -1.6654793097472256e-08  2.0137531863186436e-01 -1.4688577481684244e-08 -1.8327525919593424e-08  2.0137532328921956e-01 -1.5612586473057951e-08 -2.1241393916867685e-08  1.9155413286848511e-01 -1.3586511791288972e-08 -2.0148865502491513e-08  2.1170005189296390e-01 -1.5420686387244318e-08 -2.0101438348178885e-08  2.1170005695935781e-01 -1.5914784305070097e-08 -2.3218270758014668e-08  1.8221193343018893e-01 -1.6233364500199247e-08 -1.7776370684276855e-08  1.9155413952101263e-01 -1.6906136670423719e-08 -1.9668944870915151e-08  1.9155413897246629e-01 -1.6474749668019998e-08 -1.9757951184060767e-08  2.0137533077737210e-01 -1.8888338131818019e-08 -2.1503478273619459e-08  2.0137533159789517e-01 -1.9384748917595530e-08 -2.1609950235723985e-08  2.0137532996683147e-01 -1.6788096006031492e-08 -2.1728632801720097e-08  2.1170006504823519e-01 -1.9392663635830019e-08 -2.3750752111338562e-08  2.0137533058239776e-01 -1.7426474926780139e-08 -2.1644905439630725e-08  2.1170006595221991e-01 -2.0122601929970247e-08 -2.3880207001466008e-08  1.9155413804709992e-01 -1.6109419850868279e-08 -1.9922201798223328e-08  2.0137532895024385e-01 -1.6253064988631373e-08 -2.1893197690099622e-08  2.1170006365692451e-01 -1.8766584442326698e-08 -2.3663522825591065e-08  1.9155413672900992e-01 -1.5815321486052188e-08 -2.0082279235233616e-08  2.0137532751569062e-01 -1.5864919509634245e-08 -2.2053560580166967e-08  2.1170006180424880e-01 -1.8286756408205164e-08 -2.3537557760136806e-08  1.9155413502257274e-01 -1.5576538087339585e-08 -2.0028357491925277e-08  2.0137532566475716e-01 -1.5662029727582949e-08 -2.1985164596719757e-08  2.1170005956293128e-01 -1.7983772979991892e-08 -2.3193973446668720e-08  2.1170005687899782e-01 -1.7801194940462108e-08 -2.2295741801940212e-08  2.1170005184130855e-01 -1.6579048519850025e-08 -1.9405678294551954e-08  2.1170000166126748e-01 0.0000000000000000e+00 0.0000000000000000e+00  2.1170006405523098e-01 -1.7006452721397118e-08 -2.3742740540987178e-08  2.2255415959956737e-01 -1.9780236838885786e-08 -2.6035277087454094e-08  2.1170006468935376e-01 -1.7850336387888480e-08 -2.3667540987112274e-08  2.2255416053111604e-01 -2.0741682582752023e-08 -2.6190234320149827e-08  2.1170006300019414e-01 -1.6308685534379904e-08 -2.3907611906614161e-08  2.2255415815721552e-01 -1.8968970065705398e-08 -2.5928359019438047e-08  2.1170006149439768e-01 -1.5841230455803182e-08 -2.4072845793233405e-08  2.2255415621851121e-01 -1.8393884359617514e-08 -2.5784215521655723e-08  2.1170005952467408e-01 -1.5699990485145127e-08 -2.4001319244510318e-08  2.2255415384338678e-01 -1.8146408416858047e-08 -2.5413963972486964e-08  2.2255415095320430e-01 -1.8233352350520261e-08 -2.4457556553013386e-08  2.2255414547125893e-01 -1.7446327084833904e-08 -2.1343817175510753e-08  2.2255409284924679e-01 0.0000000000000000e+00 0.0000000000000000e+00  2.2255415839590217e-01 -1.7217595631462710e-08 -2.5745025129562932e-08  2.3396475526053812e-01 -2.0139155072208155e-08 -2.8287682828868140e-08  2.2255415898997477e-01 -1.8256639879499813e-08 -2.5679865506881664e-08  2.3396475615236015e-01 -2.1319942911667976e-08 -2.8468027402986207e-08  2.2255415736825032e-01 -1.6361766839185342e-08 -2.5912885068781486e-08  2.3396475384301124e-01 -1.9149117696468999e-08 -2.8166261057751649e-08  2.2255415585119320e-01 -1.5815402935505964e-08 -2.6091842341514521e-08  2.3396475188823498e-01 -1.8481040468223261e-08 -2.8016401959546342e-08  2.2255415380270921e-01 -1.5738451280466816e-08 -2.6035550970096761e-08  2.3396474942745785e-01 -1.8294486228084970e-08 -2.7643073344090272e-08  2.2255415105569587e-01 -1.6234592258530647e-08 -2.5244870457070960e-08  2.3396474634310135e-01 -1.8673157211358307e-08 -2.6667413178730224e-08  2.3396474037449946e-01 -1.8368102757871691e-08 -2.3376184129641651e-08  2.3396468519259914e-01 0.0000000000000000e+00 0.0000000000000000e+00  2.3396475377735487e-01 -1.7545632458718354e-08 -2.7662752395733903e-08  2.4596038435229245e-01 -2.0594558442331668e-08 -3.0416578354437990e-08  2.3396475425670779e-01 -1.8759085428424279e-08 -2.7605825869021452e-08  2.4596038511917459e-01 -2.1970613517544143e-08 -3.0617470801099588e-08  2.3396475286559118e-01 -1.6533978098401453e-08 -2.7839969834680914e-08  2.4596038306085752e-01 -1.9430055674163244e-08 -3.0291177927182801e-08  2.3396475142475720e-01 -1.5892131391051567e-08 -2.8046398310546326e-08  2.4596038119084457e-01 -1.8653412337383487e-08 -3.0155025510642368e-08  2.3396474936494258e-01 -1.5853078943380177e-08 -2.8031612818998755e-08  2.4596037872334245e-01 -1.8502530789388391e-08 -2.9812843242964780e-08  2.4596037547859773e-01 -1.9161042498782123e-08 -2.8874148573414530e-08  2.4596036898414619e-01 -1.9360087296306462e-08 -2.5477742919190439e-08  2.4596038247517640e-01 -1.8163875587999770e-08 -2.9407613536709960e-08  2.5857104202370490e-01 -2.1322809319486101e-08 -3.2312428721110312e-08  2.4596038274564980e-01 -1.9517048882283194e-08 -2.9352332337385704e-08  2.5857104255874586e-01 -2.2854243119549418e-08 -3.2522365705403161e-08  2.4596038179839289e-01 -1.6998591968095728e-08 -2.9604745269253319e-08  2.5857104099373296e-01 -1.9988704625471872e-08 -3.2199766783362482e-08  2.4596038056227898e-01 -1.6225946931369541e-08 -2.9857080897545227e-08  2.5857103935504433e-01 -1.9068292914219997e-08 -3.2103786400315102e-08  2.5857103700906914e-01 -1.8887567729358380e-08 -3.1837799983943927e-08  2.5857103367504386e-01 -1.9762998380442399e-08 -3.1011511367493522e-08  2.7182826123866005e-01 -2.2559332876364421e-08 -3.3855040941443445e-08  2.7182826141780486e-01 -2.4184070716257700e-08 -3.4054783266495640e-08  2.7182826064142829e-01 -2.1069116350551790e-08 -3.3777663409382414e-08  2.7182825943999395e-01 -1.9953498265459437e-08 -3.3753789488442569e-08  2.7182825741885541e-01 -1.9626983017505209e-08 -3.3617962873997637e-08  1.9155414049422198e-01 -1.9105106058952043e-08 -1.9718159467187722e-08  2.0137533233661478e-01 -2.1534659714213292e-08 -2.1534659713172510e-08  2.0137533233995877e-01 -2.1181542372920691e-08 -2.1181542372910755e-08  2.1170006704998598e-01 -2.2620850558020084e-08 -2.3707476208643420e-08  2.1170006709455449e-01 -2.3219892071668071e-08 -2.4095970649016950e-08  2.0137533197623222e-01 -1.9923799884215936e-08 -2.1766110267834365e-08  2.2255416134228087e-01 -2.3020991548510471e-08 -2.5905381207562934e-08  2.1170006652186688e-01 -2.2020641169975283e-08 -2.3319665900542436e-08  2.2255416193153169e-01 -2.3896239108215058e-08 -2.6338349691407070e-08  2.2255416020448293e-01 -2.2200270440201852e-08 -2.5507246121943337e-08  2.2255415852197416e-01 -2.1481958328720695e-08 -2.5144240829064107e-08  2.3396475607400158e-01 -2.2806348985114125e-08 -2.8092157945553230e-08  2.3396475724372059e-01 -2.3884072345381867e-08 -2.8536519213596680e-08  2.3396475433431557e-01 -2.1879947268228958e-08 -2.7687292686945807e-08  2.3396475207449652e-01 -2.1191490603312907e-08 -2.7267656700963240e-08  2.2255415635551978e-01 -2.0906680728464842e-08 -2.4765164835448425e-08  2.3396474939578074e-01 -2.0827151681632040e-08 -2.6708358826249596e-08  2.2255415381943075e-01 -2.0497048855948701e-08 -2.4252560790590567e-08  2.3396474622647997e-01 -2.0771071426802400e-08 -2.5735884081448831e-08  2.3396474029225872e-01 -1.9661977280456937e-08 -2.2739530197313863e-08  2.3396468519259908e-01 0.0000000000000000e+00 0.0000000000000000e+00  2.4596038545496920e-01 -2.3360098000725395e-08 -3.0639900807110190e-08  2.4596038658119418e-01 -2.4680900654924845e-08 -3.1128260565268228e-08  2.4596038374338081e-01 -2.2233798162950287e-08 -3.0201232774915333e-08  2.4596038146941085e-01 -2.1436426065367936e-08 -2.9757241968343276e-08  2.4596037870346907e-01 -2.1125848878075981e-08 -2.9179592625558663e-08  2.4596037532890941e-01 -2.1365927962075189e-08 -2.8177515211847721e-08  2.4596036886683853e-01 -2.0743134857736352e-08 -2.4981750743441335e-08  2.4596031111569500e-01 0.0000000000000000e+00 0.0000000000000000e+00  2.5857104354900762e-01 -2.3981075558665605e-08 -3.3042492914923025e-08  2.5857104453665958e-01 -2.5517554650277815e-08 -3.3566298152904429e-08  2.5857104197876934e-01 -2.2661505836897823e-08 -3.2585254724177044e-08  2.5857103980388096e-01 -2.1741220700079543e-08 -3.2142250951945645e-08  2.5857103703990036e-01 -2.1461335475241864e-08 -3.1587901541566678e-08  2.5857103349861749e-01 -2.1991106494369280e-08 -3.0621189606950217e-08  2.5857102646472835e-01 -2.1887750644773983e-08 -2.7305519818546900e-08  2.4596031111569494e-01 0.0000000000000000e+00 0.0000000000000000e+00  2.5857096593158463e-01 0.0000000000000000e+00 0.0000000000000000e+00  2.7182826338501165e-01 -2.4842565151859134e-08 -3.5169932752415616e-08  2.7182826411519251e-01 -2.6549550633699138e-08 -3.5711810149807585e-08  2.7182826210684158e-01 -2.3337712530351930e-08 -3.4717803103063932e-08  2.7182826019440059e-01 -2.2260415427937713e-08 -3.4310678052572872e-08  2.7182825757543838e-01 -2.1946467051386696e-08 -3.3835113337313677e-08  2.7182825394624027e-01 -2.2707239245720241e-08 -3.2991731964216460e-08  2.5857102662430814e-01 -2.0446225927573200e-08 -2.7613880467266380e-08  2.7182824630475216e-01 -2.3115360896872800e-08 -2.9671882898548324e-08  2.5857096593158463e-01 0.0000000000000000e+00 0.0000000000000000e+00  2.7182818284590454e-01 0.0000000000000000e+00 0.0000000000000000e+00  2.8576519465073352e-01 -2.6183096301125375e-08 -3.6881028434150106e-08  2.8576519498559405e-01 -2.7990861374377565e-08 -3.7413260950430162e-08  2.8576519385471738e-01 -2.4510880630136796e-08 -3.6466010936731804e-08  2.8576519243285792e-01 -2.3225918319547887e-08 -3.6137672203190860e-08  2.8576519018350266e-01 -2.2760484938712103e-08 -3.5808160628754446e-08  2.7182825413163653e-01 -2.0579120087169451e-08 -3.2998649727661031e-08  2.8576518661519779e-01 -2.3613090397184611e-08 -3.5198780805805537e-08  2.8576517835230264e-01 -2.4452794114804961e-08 -3.2031293593920836e-08  2.8576511180631636e-01 0.0000000000000000e+00 0.0000000000000000e+00  3.0041668655861753e-01 -2.8302310201122051e-08 -3.8041416279848512e-08  3.0041668636479352e-01 -3.0106905252803745e-08 -3.8526663860665711e-08  3.0041668645727854e-01 -2.6509858133997143e-08 -3.7701354264028297e-08  3.0041668582342118e-01 -2.4969233030570996e-08 -3.7498287260051071e-08  3.0041668428664681e-01 -2.4180538725023018e-08 -3.7387640830360779e-08  3.0041668105471875e-01 -2.4865378793874479e-08 -3.7140372626097446e-08  3.0041667221426377e-01 -2.5929971303713737e-08 -3.4323857560025727e-08  2.0137533195246507e-01 -2.1844836451260451e-08 -2.1844836447934596e-08  2.2255416232684710e-01 -2.6132410584612734e-08 -2.6132410580438013e-08  2.1170006709455447e-01 -2.4095970640427245e-08 -2.3219892074577473e-08  2.1170006670232655e-01 -2.4431363641328907e-08 -2.3765323629578306e-08  2.1170006670232652e-01 -2.3765323630057423e-08 -2.4431363642136798e-08  2.2255416192319311e-01 -2.6721871263276899e-08 -2.6721871269357587e-08  2.2255416223174040e-01 -2.5476621538490849e-08 -2.5476621533413809e-08  2.1170006704998601e-01 -2.3707476211691501e-08 -2.2620850562947222e-08  2.2255416159337363e-01 -2.4812877515621830e-08 -2.4812877508159678e-08  2.2255416200183842e-01 -2.4772913734889833e-08 -2.6769401803589996e-08  2.3396475855885129e-01 -2.8039891832798509e-08 -2.9183868196910589e-08  2.2255416159816355e-01 -2.5593096046292515e-08 -2.7139491730647590e-08  2.3396475813881940e-01 -2.8926513567210460e-08 -2.9826625063144264e-08  2.3396475843850115e-01 -2.7082231071671178e-08 -2.8464548588238973e-08  2.3396475773584793e-01 -2.6118103282840265e-08 -2.7732849189523270e-08  2.3396475642866127e-01 -2.5205187909414508e-08 -2.7036145016107289e-08  2.2255416077215878e-01 -2.6294433541927063e-08 -2.7378916891619011e-08  2.3396475750389831e-01 -2.7315886784533266e-08 -2.9920603308565093e-08  2.4596038775496204e-01 -3.1019756079715784e-08 -3.3025568356143693e-08  2.3396475722963642e-01 -2.9671661913819745e-08 -3.0318972831299038e-08  2.3396475664742483e-01 -2.8315293491734449e-08 -3.0197972519051011e-08  2.4596038680588134e-01 -3.2086322197508532e-08 -3.3571798227895723e-08  2.3396475791970336e-01 -2.6202420584962747e-08 -2.9502538687811149e-08  2.4596038819319949e-01 -2.9815059261980642e-08 -3.2316268056955682e-08  2.3396475784776519e-01 -2.5037968353075399e-08 -2.9019856043950635e-08  2.4596038807478462e-01 -2.8544066115778590e-08 -3.1524848811918029e-08  2.4596038735917963e-01 -2.7275523359628106e-08 -3.0720917032583396e-08  2.4596038602072431e-01 -2.6080414697390554e-08 -2.9955237470521917e-08  2.4596038406901827e-01 -2.5037041954590522e-08 -2.9251850343695200e-08  2.3396475453455035e-01 -2.4393194505450220e-08 -2.6397391740564946e-08  2.4596038157307884e-01 -2.4232106995479391e-08 -2.8599686663169544e-08  2.3396475213403389e-01 -2.3720869391599590e-08 -2.5807124348108883e-08  2.4596037865039630e-01 -2.3746534857408258e-08 -2.7938448414831897e-08  2.3396474935947831e-01 -2.3203320411834727e-08 -2.5210781736776127e-08  2.4596037521353331e-01 -2.3541529993305322e-08 -2.7059611076128632e-08  2.4596038676909673e-01 -2.8929518907794237e-08 -3.2688410730063454e-08  2.5857104600547665e-01 -3.2979951533228505e-08 -3.6221346338826733e-08  2.4596038591317135e-01 -3.0230936121660302e-08 -3.3025807843864153e-08  2.5857104504937095e-01 -3.4374257122094935e-08 -3.6844193391415984e-08  2.4596038719346361e-01 -2.7532030380653960e-08 -3.2207553927492289e-08  2.5857104645868995e-01 -3.1465891685278077e-08 -3.5430931794647344e-08  2.4596038714602261e-01 -2.6096054481240616e-08 -3.1664849392457914e-08  2.5857104637124212e-01 -2.9898556680460311e-08 -3.4560115335554120e-08  2.5857104570214334e-01 -2.8344429315227709e-08 -3.3682896017211297e-08  2.5857104441535489e-01 -2.6882711494694314e-08 -3.2852908000954057e-08  2.5857104249995522e-01 -2.5617791416103911e-08 -3.2095893371169712e-08  2.5857103999609826e-01 -2.4686313135748154e-08 -3.1401390977017389e-08  2.5857103698685302e-01 -2.4243999564609390e-08 -3.0707071019273789e-08  2.5857103333306386e-01 -2.4334050585892614e-08 -2.9785548156571024e-08  2.5857102632728646e-01 -2.3360661037610666e-08 -2.6756995837710821e-08  2.5857096593158463e-01 0.0000000000000000e+00 0.0000000000000000e+00  2.4596038466258419e-01 -3.1369976265001214e-08 -3.3135111333591371e-08  2.5857104375139256e-01 -3.2019560948705174e-08 -3.5736566894570711e-08  2.7182826502819951e-01 -3.6490209298384675e-08 -3.9990714972918255e-08  2.5857104456411467e-01 -3.0447509167331744e-08 -3.5316044850191537e-08  2.7182826594494941e-01 -3.4799426993080039e-08 -3.9267726185823196e-08  2.5857104498982242e-01 -2.8810950299475212e-08 -3.4759956240161992e-08  2.7182826640526303e-01 -3.3023199790653016e-08 -3.8384828508168603e-08  2.5857104499683214e-01 -2.7151802057271031e-08 -3.4153353887407089e-08  2.7182826638153679e-01 -3.1211402910998562e-08 -3.7433086861231049e-08  2.7182826583061054e-01 -2.9417658028995634e-08 -3.6488733882936518e-08  2.7182826469974702e-01 -2.7720003269000452e-08 -3.5607173798149499e-08  2.7182826294500584e-01 -2.6242483616346984e-08 -3.4816651671461405e-08  2.7182826055774328e-01 -2.5172136045093462e-08 -3.4110689458950711e-08  2.7182825756007439e-01 -2.4752503053152866e-08 -3.3430921742011087e-08  2.7182825373135194e-01 -2.5137288915034239e-08 -3.2537157039792280e-08  2.7182824610418915e-01 -2.4689614645484013e-08 -2.9355775606159825e-08  2.7182818284590454e-01 0.0000000000000000e+00 0.0000000000000000e+00  2.7182826387573672e-01 -3.1916722364280473e-08 -3.7637313954725873e-08  2.8576519728922661e-01 -3.6503147953027828e-08 -4.1969184811481687e-08  2.7182826429503948e-01 -3.0128731443797124e-08 -3.7001913550486863e-08  2.8576519774741382e-01 -3.4558610748748267e-08 -4.0992598436388925e-08  2.7182826439212426e-01 -2.8331674153371972e-08 -3.6337080511813162e-08  2.8576519782594301e-01 -3.2594724828003108e-08 -3.9970114638595063e-08  2.8576519747902601e-01 -3.0639290943935826e-08 -3.8976568695477326e-08  2.8576519663424560e-01 -2.8756157278232899e-08 -3.8067363996306860e-08  2.8576519520525145e-01 -2.7077276738262151e-08 -3.7274327036255897e-08  2.8576519311348275e-01 -2.5835426554584667e-08 -3.6599922281658974e-08  2.8576519028370539e-01 -2.5375308997329394e-08 -3.5999139612469346e-08  2.8576518636487691e-01 -2.6002044477726510e-08 -3.5230218111019313e-08  2.8576517807376262e-01 -2.6086944310843078e-08 -3.2017124028689034e-08  2.8576511180631642e-01 0.0000000000000000e+00 0.0000000000000000e+00  2.8576519476553225e-01 -3.1630183321029472e-08 -3.8754188951444969e-08  3.0041668975741842e-01 -3.6205711688321132e-08 -4.3039481547021431e-08  2.8576519435592401e-01 -3.3437941647421225e-08 -3.9456984134047936e-08  3.0041668930631371e-01 -3.8175857271623304e-08 -4.4091730242680328e-08  2.8576519499281838e-01 -2.9817726450859407e-08 -3.8051701915519733e-08  3.0041668998151372e-01 -3.4223291232324533e-08 -4.1974633911186471e-08  3.0041668993310389e-01 -3.2219193212538107e-08 -4.0965767124924085e-08  3.0041668952526018e-01 -3.0228016876930976e-08 -4.0066130029371057e-08  3.0041668862981102e-01 -2.8370328971614147e-08 -3.9312677184089319e-08  3.0041668708245295e-01 -2.6907615378271042e-08 -3.8723614772866583e-08  3.0041668466471905e-01 -2.6289230650811811e-08 -3.8281080668043950e-08  3.0041668081533152e-01 -2.7022055707453111e-08 -3.7760779828039579e-08  3.0041667183918774e-01 -2.7574205563004925e-08 -3.4683686612342942e-08  3.0041660239464335e-01 0.0000000000000000e+00 0.0000000000000000e+00  3.0041668563362522e-01 -3.3521917956848986e-08 -3.9840397626572230e-08  3.1581937842155455e-01 -3.8175461693885804e-08 -4.4310277928679906e-08  3.0041668522877429e-01 -3.5185133845663897e-08 -4.0575581233917897e-08  3.1581937797355447e-01 -3.9991586939315128e-08 -4.5392184098764531e-08  3.0041668602686949e-01 -3.1844807385032186e-08 -3.9139313360891233e-08  3.1581937883008415e-01 -3.6339465196590601e-08 -4.3254250215518856e-08  3.1581937916305042e-01 -3.4433107189864201e-08 -4.2281622834977378e-08  3.1581937933831150e-01 -3.2448325235205659e-08 -4.1441691758074926e-08  3.1581937920838832e-01 -3.0465912600330818e-08 -4.0778655019466567e-08  3.1581937852881470e-01 -2.8736214554931943e-08 -4.0334808852260784e-08  3.1581937689452833e-01 -2.7784371288385481e-08 -4.0137699826920036e-08  3.1581937340990512e-01 -2.8360049702184844e-08 -4.0010477105044164e-08  3.1581936378779402e-01 -2.9180705312180084e-08 -3.7285151000527567e-08  3.0041660239464335e-01 0.0000000000000000e+00 0.0000000000000000e+00  3.1581929096897676e-01 0.0000000000000000e+00 0.0000000000000000e+00  3.1581937288036910e-01 -3.6055182400229142e-08 -4.0123954996885306e-08  3.3201177808221072e-01 -4.0748033934138774e-08 -4.4635441145748245e-08  3.1581937247052111e-01 -3.7407084426320516e-08 -4.0831447679536719e-08  3.3201177762752176e-01 -4.2226729050003288e-08 -4.5669912891340999e-08  3.1581937344979355e-01 -3.4669710388789035e-08 -3.9480250878335626e-08  3.3201177868687731e-01 -3.9229734447351044e-08 -4.3661089960097395e-08  3.1581937415894268e-01 -3.3175056957752166e-08 -3.8942929819069201e-08  3.3201177943093529e-01 -3.7589619525568494e-08 -4.2790742114094219e-08  3.1581937495649842e-01 -3.1521439524671960e-08 -3.8547139215407105e-08  3.3201178027237127e-01 -3.5772544099988367e-08 -4.2069107139110943e-08  3.1581937572632224e-01 -2.9720207500916062e-08 -3.8319661352866941e-08  3.3201178110055252e-01 -3.3788091715980457e-08 -4.1549820029074188e-08  3.1581937621701228e-01 -2.7930194425171492e-08 -3.8283144761499857e-08  3.3201178165352435e-01 -3.1802717568982388e-08 -4.1307619383203478e-08  3.1581937588799797e-01 -2.6628761194111099e-08 -3.8457235580468751e-08  3.3201178133695552e-01 -3.0322224294683368e-08 -4.1436700543805925e-08  3.1581937350368494e-01 -2.6724121498980314e-08 -3.8703003436033070e-08  3.3201177876627552e-01 -3.0302082593954718e-08 -4.1850261026608946e-08  3.1581936428270435e-01 -2.7574298404163175e-08 -3.