<?xml version="1.0"?>
<VTKFile type="UnstructuredGrid"  version="0.1"  >
<UnstructuredGrid>
<Piece  NumberOfPoints="12" NumberOfCells="12">
<Points>
<DataArray  type="Float64"  NumberOfComponents="3"  format="ascii">0.5 0 0.5  1 0 0.5  1 0.5 0.5  1 0.5 1  1 0 1  0.5 0 1  0.5 0.5 0.5  0.5 0.5 1  1 1 0.5  1 1 1  0.5 1 0.5  0.5 1 1  </DataArray>
</Points>
<Cells>
<DataArray  type="UInt32"  Name="connectivity"  format="ascii">0 1 2 3  0 1 4 3  0 5 4 3  0 6 2 3  0 5 7 3  0 6 7 3  6 2 8 9  6 2 3 9  6 7 3 9  6 10 8 9  6 7 11 9  6 10 11 9  </DataArray>
<DataArray  type="UInt32"  Name="offsets"  format="ascii">4 8 12 16 20 24 28 32 36 40 44 48 </DataArray>
<DataArray  type="UInt8"  Name="types"  format="ascii">10 10 10 10 10 10 10 10 10 10 10 10 </DataArray>
</Cells>
<PointData  Vectors="f_8-0"> 
<DataArray  type="Float64"  Name="f_8-0"  NumberOfComponents="3" format="ascii">1.6487212707001284e-01 0.0000000000000000e+00 0.0000000000000000e+00  1.6487212707001284e-01 0.0000000000000000e+00 0.0000000000000000e+00  2.7182818284590454e-01 0.0000000000000000e+00 0.0000000000000000e+00  4.4816890703380646e-01 0.0000000000000000e+00 0.0000000000000000e+00  2.7182818284590454e-01 0.0000000000000000e+00 0.0000000000000000e+00  2.7182818284590454e-01 0.0000000000000000e+00 0.0000000000000000e+00  2.7261743502810931e-01 -5.8460048181877466e-04 -5.8460048181876393e-04  4.4816890703380646e-01 0.0000000000000000e+00 0.0000000000000000e+00  4.4816890703380646e-01 0.0000000000000000e+00 0.0000000000000000e+00  7.3890560989306509e-01 0.0000000000000000e+00 0.0000000000000000e+00  4.4816890703380646e-01 0.0000000000000000e+00 0.0000000000000000e+00  7.3890560989306509e-01 0.0000000000000000e+00 0.0000000000000000e+00  </DataArray> 
</PointData> 
</Piece>
</UnstructuredGrid>
</VTKFile>