<?xml version="1.0"?>
<VTKFile type="UnstructuredGrid"  version="0.1"  >
<UnstructuredGrid>
<Piece  NumberOfPoints="1368" NumberOfCells="6202">
<Points>
<DataArray  type="Float64"  NumberOfComponents="3"  format="ascii">0.3 0 0.3  0.35 0 0.3  0.35 0 0.35  0.35 0.05 0.35  0.3 0 0.35  0.3 0.05 0.35  0.4 0 0.35  0.4 0.05 0.35  0.35 0.05 0.4  0.35 0 0.4  0.3 0 0.4  0.3 0.05 0.4  0.4 0.05 0.4  0.4 0 0.4  0.45 0 0.35  0.45 0.05 0.35  0.45 0.05 0.4  0.45 0 0.4  0.5 0 0.4  0.5 0.05 0.4  0.35 0.1 0.35  0.35 0.1 0.4  0.4 0.1 0.35  0.4 0.1 0.4  0.45 0.1 0.4  0.5 0.1 0.4  0.4 0.15 0.35  0.4 0.15 0.4  0.35 0.15 0.35  0.35 0.15 0.4  0.45 0.15 0.4  0.4 0.2 0.4  0.45 0.2 0.4  0.35 0.05 0.45  0.35 0 0.45  0.3 0 0.45  0.3 0.05 0.45  0.4 0.05 0.45  0.4 0 0.45  0.45 0.05 0.45  0.45 0 0.45  0.5 0.05 0.45  0.5 0 0.45  0.55 0 0.45  0.55 0.05 0.45  0.35 0.1 0.45  0.4 0.1 0.45  0.45 0.1 0.45  0.5 0.1 0.45  0.55 0.1 0.45  0.4 0.15 0.45  0.35 0.15 0.45  0.45 0.15 0.45  0.5 0.15 0.4  0.5 0.15 0.45  0.55 0.15 0.45  0.4 0.2 0.45  0.45 0.2 0.45  0.5 0.2 0.4  0.5 0.2 0.45  0.55 0.2 0.45  0.45 0.25 0.4  0.45 0.25 0.45  0.4 0.25 0.4  0.4 0.25 0.45  0.5 0.25 0.4  0.5 0.25 0.45  0.55 0.25 0.45  0.45 0.3 0.4  0.45 0.3 0.45  0.4 0.3 0.4  0.4 0.3 0.45  0.5 0.3 0.4  0.5 0.3 0.45  0.55 0.3 0.45  0.45 0.35 0.45  0.5 0.35 0.4  0.5 0.35 0.45  0.55 0.3 0.4  0.55 0.35 0.4  0.55 0.35 0.45  0.6 0.35 0.45  0.55 0.4 0.45  0.6 0.35 0.4  0.6 0.4 0.45  0.65 0.4 0.45  0.35 0.05 0.5  0.35 0 0.5  0.4 0.05 0.5  0.4 0 0.5  0.45 0.05 0.5  0.45 0 0.5  0.5 0.05 0.5  0.5 0 0.5  0.55 0.05 0.5  0.55 0 0.5  0.6 0 0.45  0.6 0.05 0.45  0.6 0.05 0.5  0.6 0 0.5  0.65 0 0.45  0.65 0.05 0.45  0.65 0.05 0.5  0.65 0 0.5  0.7 0 0.45  0.7 0.05 0.45  0.7 0.05 0.5  0.7 0 0.5  0.75 0 0.45  0.75 0.05 0.45  0.75 0.05 0.5  0.75 0 0.5  0.8 0 0.5  0.8 0.05 0.5  0.35 0.1 0.5  0.4 0.1 0.5  0.45 0.1 0.5  0.5 0.1 0.5  0.55 0.1 0.5  0.6 0.1 0.45  0.6 0.1 0.5  0.65 0.1 0.45  0.65 0.1 0.5  0.7 0.1 0.45  0.7 0.1 0.5  0.75 0.1 0.5  0.8 0.1 0.5  0.4 0.15 0.5  0.45 0.15 0.5  0.5 0.15 0.5  0.55 0.15 0.5  0.6 0.15 0.45  0.6 0.15 0.5  0.65 0.15 0.45  0.65 0.15 0.5  0.7 0.15 0.45  0.7 0.15 0.5  0.75 0.15 0.5  0.4 0.2 0.5  0.45 0.2 0.5  0.5 0.2 0.5  0.55 0.2 0.5  0.6 0.2 0.45  0.6 0.2 0.5  0.65 0.2 0.5  0.7 0.2 0.5  0.75 0.2 0.5  0.45 0.25 0.5  0.4 0.25 0.5  0.5 0.25 0.5  0.55 0.25 0.5  0.6 0.25 0.45  0.6 0.25 0.5  0.65 0.25 0.5  0.45 0.3 0.5  0.5 0.3 0.5  0.55 0.3 0.5  0.6 0.3 0.45  0.6 0.3 0.5  0.65 0.3 0.5  0.45 0.35 0.5  0.5 0.35 0.5  0.55 0.35 0.5  0.6 0.35 0.5  0.65 0.35 0.5  0.5 0.4 0.5  0.55 0.4 0.5  0.6 0.4 0.5  0.65 0.35 0.45  0.65 0.4 0.5  0.7 0.4 0.5  0.6 0.45 0.5  0.65 0.45 0.5  0.7 0.45 0.5  0.4 0.05 0.55  0.4 0 0.55  0.45 0.05 0.55  0.45 0 0.55  0.5 0.05 0.55  0.5 0 0.55  0.55 0.05 0.55  0.55 0 0.55  0.6 0.05 0.55  0.6 0 0.55  0.65 0.05 0.55  0.65 0 0.55  0.7 0.05 0.55  0.7 0 0.55  0.75 0.05 0.55  0.75 0 0.55  0.8 0.05 0.55  0.8 0 0.55  0.85 0 0.55  0.85 0.05 0.55  0.4 0.1 0.55  0.45 0.1 0.55  0.5 0.1 0.55  0.55 0.1 0.55  0.6 0.1 0.55  0.65 0.1 0.55  0.7 0.1 0.55  0.75 0.1 0.55  0.8 0.1 0.55  0.85 0.1 0.55  0.4 0.15 0.55  0.45 0.15 0.55  0.5 0.15 0.55  0.55 0.15 0.55  0.6 0.15 0.55  0.65 0.15 0.55  0.7 0.15 0.55  0.75 0.15 0.55  0.8 0.15 0.55  0.85 0.15 0.55  0.45 0.2 0.55  0.5 0.2 0.55  0.55 0.2 0.55  0.6 0.2 0.55  0.65 0.2 0.55  0.7 0.2 0.55  0.75 0.2 0.55  0.8 0.2 0.55  0.45 0.25 0.55  0.5 0.25 0.55  0.55 0.25 0.55  0.6 0.25 0.55  0.65 0.25 0.55  0.7 0.25 0.5  0.7 0.25 0.55  0.75 0.25 0.5  0.75 0.25 0.55  0.8 0.25 0.55  0.45 0.3 0.55  0.5 0.3 0.55  0.55 0.3 0.55  0.6 0.3 0.55  0.65 0.3 0.55  0.7 0.3 0.5  0.7 0.3 0.55  0.75 0.3 0.5  0.75 0.3 0.55  0.8 0.25 0.5  0.8 0.3 0.5  0.8 0.3 0.55  0.85 0.3 0.55  0.5 0.35 0.55  0.45 0.35 0.55  0.55 0.35 0.55  0.6 0.35 0.55  0.65 0.35 0.55  0.7 0.35 0.5  0.7 0.35 0.55  0.75 0.35 0.5  0.75 0.35 0.55  0.8 0.35 0.5  0.8 0.35 0.55  0.85 0.35 0.55  0.5 0.4 0.55  0.55 0.4 0.55  0.6 0.4 0.55  0.65 0.4 0.55  0.7 0.4 0.55  0.75 0.4 0.5  0.75 0.4 0.55  0.8 0.4 0.5  0.8 0.4 0.55  0.85 0.4 0.55  0.6 0.45 0.55  0.65 0.45 0.55  0.7 0.45 0.55  0.75 0.45 0.55  0.8 0.45 0.55  0.85 0.45 0.55  0.7 0.5 0.55  0.75 0.5 0.55  0.45 0.05 0.6  0.45 0 0.6  0.4 0 0.6  0.4 0.05 0.6  0.5 0.05 0.6  0.5 0 0.6  0.55 0.05 0.6  0.55 0 0.6  0.6 0.05 0.6  0.6 0 0.6  0.65 0.05 0.6  0.65 0 0.6  0.7 0.05 0.6  0.7 0 0.6  0.75 0.05 0.6  0.75 0 0.6  0.8 0.05 0.6  0.8 0 0.6  0.85 0.05 0.6  0.85 0 0.6  0.9 0 0.55  0.9 0 0.6  0.9 0.05 0.6  0.95 0 0.6  0.95 0.05 0.6  0.45 0.1 0.6  0.4 0.1 0.6  0.5 0.1 0.6  0.55 0.1 0.6  0.6 0.1 0.6  0.65 0.1 0.6  0.7 0.1 0.6  0.75 0.1 0.6  0.8 0.1 0.6  0.85 0.1 0.6  0.9 0.1 0.6  0.45 0.15 0.6  0.4 0.15 0.6  0.5 0.15 0.6  0.55 0.15 0.6  0.6 0.15 0.6  0.65 0.15 0.6  0.7 0.15 0.6  0.75 0.15 0.6  0.8 0.15 0.6  0.85 0.15 0.6  0.9 0.15 0.6  0.45 0.2 0.6  0.5 0.2 0.6  0.55 0.2 0.6  0.6 0.2 0.6  0.65 0.2 0.6  0.7 0.2 0.6  0.75 0.2 0.6  0.8 0.2 0.6  0.85 0.2 0.6  0.9 0.2 0.6  0.5 0.25 0.6  0.45 0.25 0.6  0.55 0.25 0.6  0.6 0.25 0.6  0.65 0.25 0.6  0.7 0.25 0.6  0.75 0.25 0.6  0.8 0.25 0.6  0.85 0.25 0.6  0.5 0.3 0.6  0.45 0.3 0.6  0.55 0.3 0.6  0.6 0.3 0.6  0.65 0.3 0.6  0.7 0.3 0.6  0.75 0.3 0.6  0.8 0.3 0.6  0.85 0.25 0.55  0.85 0.3 0.6  0.9 0.25 0.6  0.9 0.3 0.6  0.5 0.35 0.6  0.55 0.35 0.6  0.6 0.35 0.6  0.65 0.35 0.6  0.7 0.35 0.6  0.75 0.35 0.6  0.8 0.35 0.6  0.85 0.35 0.6  0.9 0.35 0.6  0.5 0.4 0.6  0.55 0.4 0.6  0.6 0.4 0.6  0.65 0.4 0.6  0.7 0.4 0.6  0.75 0.4 0.6  0.8 0.4 0.6  0.85 0.4 0.6  0.9 0.4 0.6  0.55 0.45 0.6  0.6 0.45 0.6  0.65 0.45 0.6  0.7 0.45 0.6  0.75 0.45 0.6  0.8 0.45 0.6  0.85 0.45 0.6  0.9 0.45 0.6  0.65 0.5 0.6  0.7 0.5 0.6  0.75 0.5 0.6  0.8 0.5 0.6  0.85 0.5 0.6  0.9 0.5 0.6  0.45 0.05 0.65  0.45 0 0.65  0.4 0 0.65  0.4 0.05 0.65  0.5 0.05 0.65  0.5 0 0.65  0.55 0.05 0.65  0.55 0 0.65  0.6 0.05 0.65  0.6 0 0.65  0.65 0.05 0.65  0.65 0 0.65  0.7 0.05 0.65  0.7 0 0.65  0.75 0.05 0.65  0.75 0 0.65  0.8 0.05 0.65  0.8 0 0.65  0.85 0.05 0.65  0.85 0 0.65  0.9 0.05 0.65  0.9 0 0.65  0.95 0.05 0.65  0.95 0 0.65  1 0 0.6  1 0.05 0.6  1 0.05 0.65  1 0 0.65  0.45 0.1 0.65  0.4 0.1 0.65  0.5 0.1 0.65  0.55 0.1 0.65  0.6 0.1 0.65  0.65 0.1 0.65  0.7 0.1 0.65  0.75 0.1 0.65  0.8 0.1 0.65  0.85 0.1 0.65  0.9 0.1 0.65  0.95 0.1 0.6  0.95 0.1 0.65  1 0.1 0.65  0.45 0.15 0.65  0.5 0.15 0.65  0.55 0.15 0.65  0.6 0.15 0.65  0.65 0.15 0.65  0.7 0.15 0.65  0.75 0.15 0.65  0.8 0.15 0.65  0.85 0.15 0.65  0.9 0.15 0.65  0.95 0.15 0.6  0.95 0.15 0.65  1 0.15 0.65  0.45 0.2 0.65  0.5 0.2 0.65  0.55 0.2 0.65  0.6 0.2 0.65  0.65 0.2 0.65  0.7 0.2 0.65  0.75 0.2 0.65  0.8 0.2 0.65  0.85 0.2 0.65  0.9 0.2 0.65  0.95 0.2 0.6  0.95 0.2 0.65  1 0.2 0.65  0.5 0.25 0.65  0.45 0.25 0.65  0.55 0.25 0.65  0.6 0.25 0.65  0.65 0.25 0.65  0.7 0.25 0.65  0.75 0.25 0.65  0.8 0.25 0.65  0.85 0.25 0.65  0.9 0.25 0.65  0.95 0.25 0.6  0.95 0.25 0.65  1 0.25 0.65  0.5 0.3 0.65  0.45 0.3 0.65  0.55 0.3 0.65  0.6 0.3 0.65  0.65 0.3 0.65  0.7 0.3 0.65  0.75 0.3 0.65  0.8 0.3 0.65  0.85 0.3 0.65  0.9 0.3 0.65  0.95 0.3 0.6  0.95 0.3 0.65  1 0.3 0.65  0.5 0.35 0.65  0.55 0.35 0.65  0.6 0.35 0.65  0.65 0.35 0.65  0.7 0.35 0.65  0.75 0.35 0.65  0.8 0.35 0.65  0.85 0.35 0.65  0.9 0.35 0.65  0.95 0.35 0.6  0.95 0.35 0.65  1 0.35 0.65  0.55 0.4 0.65  0.5 0.4 0.65  0.6 0.4 0.65  0.65 0.4 0.65  0.7 0.4 0.65  0.75 0.4 0.65  0.8 0.4 0.65  0.85 0.4 0.65  0.9 0.4 0.65  0.95 0.4 0.6  0.95 0.4 0.65  1 0.4 0.65  0.55 0.45 0.65  0.6 0.45 0.65  0.65 0.45 0.65  0.7 0.45 0.65  0.75 0.45 0.65  0.8 0.45 0.65  0.85 0.45 0.65  0.9 0.45 0.65  0.95 0.45 0.6  0.95 0.45 0.65  1 0.45 0.65  0.6 0.5 0.65  0.65 0.5 0.65  0.6 0.5 0.6  0.7 0.5 0.65  0.75 0.5 0.65  0.8 0.5 0.65  0.85 0.5 0.65  0.9 0.5 0.65  0.95 0.5 0.65  1 0.5 0.65  0.65 0.55 0.65  0.7 0.55 0.65  0.75 0.55 0.65  0.85 0.55 0.65  0.9 0.55 0.65  0.95 0.55 0.65  0.45 0.05 0.7  0.45 0 0.7  0.5 0.05 0.7  0.5 0 0.7  0.55 0.05 0.7  0.55 0 0.7  0.6 0.05 0.7  0.6 0 0.7  0.65 0.05 0.7  0.65 0 0.7  0.7 0.05 0.7  0.7 0 0.7  0.75 0.05 0.7  0.75 0 0.7  0.8 0.05 0.7  0.8 0 0.7  0.85 0.05 0.7  0.85 0 0.7  0.9 0.05 0.7  0.9 0 0.7  0.95 0.05 0.7  0.95 0 0.7  1 0.05 0.7  1 0 0.7  0.45 0.1 0.7  0.5 0.1 0.7  0.55 0.1 0.7  0.6 0.1 0.7  0.65 0.1 0.7  0.7 0.1 0.7  0.75 0.1 0.7  0.8 0.1 0.7  0.85 0.1 0.7  0.9 0.1 0.7  0.95 0.1 0.7  1 0.1 0.7  0.45 0.15 0.7  0.5 0.15 0.7  0.55 0.15 0.7  0.6 0.15 0.7  0.65 0.15 0.7  0.7 0.15 0.7  0.75 0.15 0.7  0.8 0.15 0.7  0.85 0.15 0.7  0.9 0.15 0.7  0.95 0.15 0.7  1 0.15 0.7  0.5 0.2 0.7  0.55 0.2 0.7  0.6 0.2 0.7  0.65 0.2 0.7  0.7 0.2 0.7  0.75 0.2 0.7  0.8 0.2 0.7  0.85 0.2 0.7  0.9 0.2 0.7  0.95 0.2 0.7  1 0.2 0.7  0.5 0.25 0.7  0.55 0.25 0.7  0.6 0.25 0.7  0.65 0.25 0.7  0.7 0.25 0.7  0.75 0.25 0.7  0.8 0.25 0.7  0.85 0.25 0.7  0.9 0.25 0.7  0.95 0.25 0.7  1 0.25 0.7  0.5 0.3 0.7  0.55 0.3 0.7  0.6 0.3 0.7  0.65 0.3 0.7  0.7 0.3 0.7  0.75 0.3 0.7  0.8 0.3 0.7  0.85 0.3 0.7  0.9 0.3 0.7  0.95 0.3 0.7  1 0.3 0.7  0.5 0.35 0.7  0.55 0.35 0.7  0.6 0.35 0.7  0.65 0.35 0.7  0.7 0.35 0.7  0.75 0.35 0.7  0.8 0.35 0.7  0.85 0.35 0.7  0.9 0.35 0.7  0.95 0.35 0.7  1 0.35 0.7  0.55 0.4 0.7  0.6 0.4 0.7  0.65 0.4 0.7  0.7 0.4 0.7  0.75 0.4 0.7  0.8 0.4 0.7  0.85 0.4 0.7  0.9 0.4 0.7  0.95 0.4 0.7  1 0.4 0.7  0.55 0.45 0.7  0.6 0.45 0.7  0.65 0.45 0.7  0.7 0.45 0.7  0.75 0.45 0.7  0.8 0.45 0.7  0.85 0.45 0.7  0.9 0.45 0.7  0.95 0.45 0.7  1 0.45 0.7  0.6 0.5 0.7  0.65 0.5 0.7  0.7 0.5 0.7  0.75 0.5 0.7  0.8 0.5 0.7  0.85 0.5 0.7  0.9 0.5 0.7  0.95 0.5 0.7  1 0.5 0.7  0.65 0.55 0.7  0.7 0.55 0.7  0.75 0.55 0.7  0.8 0.55 0.7  0.85 0.55 0.7  0.9 0.55 0.7  0.95 0.55 0.7  1 0.55 0.7  0.5 0.05 0.75  0.5 0 0.75  0.45 0 0.75  0.45 0.05 0.75  0.55 0.05 0.75  0.55 0 0.75  0.6 0.05 0.75  0.6 0 0.75  0.65 0.05 0.75  0.65 0 0.75  0.7 0.05 0.75  0.7 0 0.75  0.75 0.05 0.75  0.75 0 0.75  0.8 0.05 0.75  0.8 0 0.75  0.85 0.05 0.75  0.85 0 0.75  0.9 0.05 0.75  0.9 0 0.75  0.95 0.05 0.75  0.95 0 0.75  1 0.05 0.75  1 0 0.75  0.5 0.1 0.75  0.55 0.1 0.75  0.6 0.1 0.75  0.65 0.1 0.75  0.7 0.1 0.75  0.75 0.1 0.75  0.8 0.1 0.75  0.85 0.1 0.75  0.9 0.1 0.75  0.95 0.1 0.75  1 0.1 0.75  0
[...]
<PointData  Vectors="f_8-0"> 
<DataArray  type="Float64"  Name="f_8-0"  NumberOfComponents="3" format="ascii">1.3498588075760032e-01 0.0000000000000000e+00 0.0000000000000000e+00  1.3498588075760032e-01 0.0000000000000000e+00 0.0000000000000000e+00  1.4190675485932572e-01 0.0000000000000000e+00 0.0000000000000000e+00  1.4918250130960781e-01 -9.2778842783926758e-09 -7.9026897674006169e-09  1.4190675485932572e-01 0.0000000000000000e+00 0.0000000000000000e+00  1.4918250129579216e-01 -9.2077283750561667e-09 -7.8922953272429837e-09  1.4190675485932572e-01 0.0000000000000000e+00 0.0000000000000000e+00  1.4918250140830669e-01 -9.3148486676530202e-09 -7.8831872192155962e-09  1.5683125175624002e-01 -1.0203880683754780e-08 -8.6397772504692208e-09  1.4918246976412705e-01 0.0000000000000000e+00 0.0000000000000000e+00  1.4918246976412705e-01 0.0000000000000000e+00 0.0000000000000000e+00  1.5683125171365769e-01 -1.0125170624792885e-08 -8.6883636331321006e-09  1.5683125188247740e-01 -1.0246079823930345e-08 -8.5604173956121238e-09  1.4918246976412705e-01 0.0000000000000000e+00 0.0000000000000000e+00  1.4190675485932572e-01 0.0000000000000000e+00 0.0000000000000000e+00  1.4918250154796148e-01 -9.3295152736058834e-09 -7.8347608086747128e-09  1.5683125204367757e-01 -1.0263476203707313e-08 -8.4521721663188686e-09  1.4918246976412705e-01 0.0000000000000000e+00 0.0000000000000000e+00  1.4918246976412705e-01 0.0000000000000000e+00 0.0000000000000000e+00  1.5683125220889449e-01 -1.0264890260363945e-08 -8.3222002498200834e-09  1.5683125596929279e-01 -1.1291067579482986e-08 -1.0383912676664584e-08  1.6487216659881584e-01 -1.2391996985347007e-08 -1.1316247565264833e-08  1.5683125618367544e-01 -1.1431105085571001e-08 -1.0354072394657124e-08  1.6487216686339920e-01 -1.2548730679409755e-08 -1.1184250703236996e-08  1.6487216716498909e-01 -1.2634965624021533e-08 -1.0994550874874157e-08  1.6487216745855995e-01 -1.2675925841581866e-08 -1.0762535258716899e-08  1.6487216987811401e-01 -1.3397749655061039e-08 -1.2811948373474110e-08  1.7332534715646147e-01 -1.4723506961910866e-08 -1.3867695200697638e-08  1.6487216950024611e-01 -1.3150045116812835e-08 -1.2833209480787032e-08  1.7332534670555455e-01 -1.4446966306376824e-08 -1.4020303325674900e-08  1.7332534760908153e-01 -1.4884742564220231e-08 -1.3625717177187581e-08  1.8221193041905254e-01 -1.7011345245523574e-08 -1.6432318637911057e-08  1.8221193103565700e-01 -1.7215783266605364e-08 -1.6164595942674176e-08  1.6487216200668497e-01 -1.1225486402242314e-08 -9.4404233075768997e-09  1.5683121854901691e-01 0.0000000000000000e+00 0.0000000000000000e+00  1.5683121854901691e-01 0.0000000000000000e+00 0.0000000000000000e+00  1.6487216194381643e-01 -1.1139997439529178e-08 -9.5622984535437839e-09  1.6487216215204598e-01 -1.1271126350150956e-08 -9.2864278976265015e-09  1.5683121854901691e-01 0.0000000000000000e+00 0.0000000000000000e+00  1.6487216232772625e-01 -1.1289526639731341e-08 -9.1046130148940290e-09  1.5683121854901691e-01 0.0000000000000000e+00 0.0000000000000000e+00  1.6487216250161105e-01 -1.1290326616314831e-08 -8.9029790361683204e-09  1.5683121854901691e-01 0.0000000000000000e+00 0.0000000000000000e+00  1.5683121854901691e-01 0.0000000000000000e+00 0.0000000000000000e+00  1.6487216265666710e-01 -1.1282413672704106e-08 -8.6911011786541749e-09  1.7332534349111356e-01 -1.3605659198096892e-08 -1.2310464672987031e-08  1.7332534379072523e-01 -1.3774963382073707e-08 -1.2050884728264695e-08  1.7332534411758169e-01 -1.3866971082594932e-08 -1.1733735552740192e-08  1.7332534442558262e-01 -1.3909074574599503e-08 -1.1376410558130666e-08  1.7332534468765809e-01 -1.3927829462892920e-08 -1.0997952101380346e-08  1.8221192800198871e-01 -1.6166983050328672e-08 -1.4947197838728241e-08  1.8221192749851861e-01 -1.5868513747711440e-08 -1.5264790051022757e-08  1.8221192849116383e-01 -1.6338931620659580e-08 -1.4537874124317186e-08  1.7332534801535765e-01 -1.4969484573493923e-08 -1.3318867560566594e-08  1.8221192891760329e-01 -1.6426519750227412e-08 -1.4064703176499420e-08  1.8221192924788285e-01 -1.6473606694580009e-08 -1.3556478300055548e-08  1.9155413619306430e-01 -1.8709451893979044e-08 -1.7771283548661381e-08  1.9155413685885880e-01 -1.8927410595327564e-08 -1.7306124264412498e-08  1.8221193154531551e-01 -1.7315261597791892e-08 -1.5806877147023553e-08  1.9155413739510985e-01 -1.9029420681461630e-08 -1.6749880434381226e-08  1.9155413776262387e-01 -1.9071384922186378e-08 -1.6141064135038025e-08  1.9155413863184723e-01 -1.9637689618523274e-08 -1.8726052229330701e-08  2.0137532971485458e-01 -2.1647776911811391e-08 -2.0145335242251496e-08  1.9155413784683473e-01 -1.9446310808600171e-08 -1.8999658710502461e-08  2.0137532886694057e-01 -2.1443354403589358e-08 -2.0640040428242181e-08  1.9155413923712314e-01 -1.9698247773998942e-08 -1.8335364032615436e-08  2.0137533035394120e-01 -2.1707238508409597e-08 -1.9529673111591987e-08  2.0137533073864983e-01 -2.1684296992670762e-08 -1.8840910262597843e-08  2.0137533087062878e-01 -2.2125876168750823e-08 -2.1387446079742191e-08  2.1170006525201768e-01 -2.4475703043304098e-08 -2.3126089756676584e-08  2.0137532992230514e-01 -2.2015113892883994e-08 -2.1655290251657794e-08  2.1170006422641915e-01 -2.4356020564822874e-08 -2.3634730077456987e-08  2.0137533156433404e-01 -2.2080988419103244e-08 -2.0974361792170364e-08  2.1170006598757649e-01 -2.4422163686023512e-08 -2.2465106714533453e-08  2.1170006638119104e-01 -2.4261861040336742e-08 -2.1708532782665930e-08  2.2255416077215875e-01 -2.7378916892541827e-08 -2.6294433545047649e-08  2.1170006670232655e-01 -2.4431363641328907e-08 -2.3765323629578306e-08  2.2255416159816355e-01 -2.7139491735626611e-08 -2.5593096043738529e-08  2.0137533194966051e-01 -2.1940697459762817e-08 -2.0469150466091835e-08  2.1170006709455447e-01 -2.4095970640427245e-08 -2.3219892074577473e-08  2.2255416200183845e-01 -2.6769401796421893e-08 -2.4772913740418745e-08  2.2255416193153163e-01 -2.6338349687681389e-08 -2.3896239112181766e-08  2.3396475855885132e-01 -2.9183868191077179e-08 -2.8039891836793252e-08  2.1170006704998601e-01 -2.3707476211691501e-08 -2.2620850562947222e-08  2.3396475843850115e-01 -2.8464548580492033e-08 -2.7082231101635723e-08  2.3396475773584791e-01 -2.7732849200811453e-08 -2.6118103274011872e-08  1.7332533852962462e-01 -1.2349626088523084e-08 -1.0292431021215828e-08  1.6487212707001284e-01 0.0000000000000000e+00 0.0000000000000000e+00  1.7332533868256744e-01 -1.2396138409868213e-08 -1.0050441058234661e-08  1.6487212707001284e-01 0.0000000000000000e+00 0.0000000000000000e+00  1.7332533886250290e-01 -1.2413125530263629e-08 -9.7847272754725302e-09  1.6487212707001284e-01 0.0000000000000000e+00 0.0000000000000000e+00  1.7332533903814698e-01 -1.2411112963686328e-08 -9.5042073544673338e-09  1.6487212707001284e-01 0.0000000000000000e+00 0.0000000000000000e+00  1.7332533919408291e-01 -1.2399758732191773e-08 -9.2175937467053005e-09  1.6487212707001284e-01 0.0000000000000000e+00 0.0000000000000000e+00  1.5683121854901691e-01 0.0000000000000000e+00 0.0000000000000000e+00  1.6487216278952010e-01 -1.1275282247137032e-08 -8.4792292117575564e-09  1.7332533932862551e-01 -1.2389293923141156e-08 -8.9336593506759461e-09  1.6487212707001284e-01 0.0000000000000000e+00 0.0000000000000000e+00  1.5683121854901691e-01 0.0000000000000000e+00 0.0000000000000000e+00  1.6487216291251702e-01 -1.1280626476030131e-08 -8.2782614293372396e-09  1.7332533945564457e-01 -1.2392249020081738e-08 -8.6626885239920407e-09  1.6487212707001284e-01 0.0000000000000000e+00 0.0000000000000000e+00  1.5683121854901691e-01 0.0000000000000000e+00 0.0000000000000000e+00  1.6487216306030789e-01 -1.1315511384984007e-08 -8.1004798941258618e-09  1.7332533961136790e-01 -1.2426892779984709e-08 -8.4190180112955565e-09  1.6487212707001284e-01 0.0000000000000000e+00 0.0000000000000000e+00  1.5683121854901691e-01 0.0000000000000000e+00 0.0000000000000000e+00  1.6487216330288634e-01 -1.1410190897437157e-08 -7.9615173434983269e-09  1.7332533986816881e-01 -1.2525667278929532e-08 -8.2251675187764685e-09  1.6487212707001284e-01 0.0000000000000000e+00 0.0000000000000000e+00  1.6487212707001284e-01 0.0000000000000000e+00 0.0000000000000000e+00  1.7332534035612698e-01 -1.2757083777910779e-08 -8.1196368832759773e-09  1.8221192399827019e-01 -1.4934694304649683e-08 -1.3346932923699397e-08  1.8221192431212435e-01 -1.5110363921150098e-08 -1.2937347996081614e-08  1.8221192464634314e-01 -1.5202351499537471e-08 -1.2475543055048188e-08  1.8221192495714469e-01 -1.5240438155458372e-08 -1.1981005718020289e-08  1.8221192522055921e-01 -1.5253402964837489e-08 -1.1471847486837715e-08  1.7332534489470647e-01 -1.3951779737780908e-08 -1.0618035923807369e-08  1.8221192543029741e-01 -1.5272001691496816e-08 -1.0965890836172910e-08  1.7332534505702971e-01 -1.4014768669109470e-08 -1.0257181771597697e-08  1.8221192559867769e-01 -1.5332576896861678e-08 -1.0483490362438525e-08  1.7332534520797649e-01 -1.4161075014721695e-08 -9.9380656313470619e-09  1.8221192576014800e-01 -1.5482703714246972e-08 -1.0051958644387117e-08  1.8221192597345667e-01 -1.5790198139163005e-08 -9.7119668913879949e-09  1.8221192630569480e-01 -1.6352755054222485e-08 -9.5269628252811488e-09  1.9155413349420833e-01 -1.7721754284619633e-08 -1.6033201329685145e-08  1.9155413399632576e-01 -1.7894737331550283e-08 -1.5434069150987147e-08  1.9155413442814292e-01 -1.7976753197198018e-08 -1.4779100117786181e-08  1.9155413476062022e-01 -1.8015357974874059e-08 -1.4096617819851279e-08  1.8221192946312764e-01 -1.6527245791502111e-08 -1.3041974329070616e-08  1.9155413497825988e-01 -1.8061319159264450e-08 -1.3413768563999268e-08  1.8221192955827589e-01 -1.6639297486875031e-08 -1.2550313229114283e-08  1.9155413507750976e-01 -1.8170457442415522e-08 -1.2760345013124667e-08  1.8221192953982171e-01 -1.6866936997416362e-08 -1.2112377992776633e-08  1.9155413506382246e-01 -1.8404424232014484e-08 -1.2174212577265952e-08  1.9155413494122359e-01 -1.8825310840530601e-08 -1.1708115319908176e-08  2.0137532695769225e-01 -2.0515742815433685e-08 -1.9104001242305280e-08  2.0137532764474714e-01 -2.0733610125548292e-08 -1.8414257951162897e-08  2.0137532819067208e-01 -2.0826572698391266e-08 -1.7640752338501477e-08  2.0137532856161930e-01 -2.0855391157785704e-08 -1.6822282735599275e-08  1.9155413793068157e-01 -1.9112477995279372e-08 -1.5517256688047009e-08  2.0137532873043640e-01 -2.0884040621693980e-08 -1.5995301748368027e-08  2.0137532867349578e-01 -2.0976625546641215e-08 -1.5198277537927901e-08  2.0137532836596150e-01 -2.1189694324897554e-08 -1.4477522107968528e-08  2.0137532777333747e-01 -2.1551821490785408e-08 -1.3893760086117917e-08  2.1170006381028497e-01 -2.3744614160660952e-08 -2.1514487469534040e-08  2.1170006293078608e-01 -2.3544312586172382e-08 -2.2262100291904507e-08  2.1170006446475428e-01 -2.3788658775018907e-08 -2.0651772643211236e-08  2.1170006485465387e-01 -2.3744697981399112e-08 -1.9722989351638645e-08  2.0137533082765127e-01 -2.1643740143489633e-08 -1.8125112653523831e-08  2.1170006494234778e-01 -2.3682956437554612e-08 -1.8773668293122074e-08  2.1170006468935376e-01 -2.3667541000699821e-08 -1.7850336393856443e-08  2.2255415981597401e-01 -2.6909186755430906e-08 -2.4799711225671204e-08  2.2255416057384309e-01 -2.6830590182327500e-08 -2.3865211599389792e-08  2.2255416097537045e-01 -2.6637636716528149e-08 -2.2841164081753835e-08  2.1170006638437355e-01 -2.4061963702592653e-08 -2.0910647738913673e-08  2.2255416097606781e-01 -2.6403362861713714e-08 -2.1781931648058281e-08  2.2255416053111604e-01 -2.6190234327581403e-08 -2.0741682586168795e-08  2.3396475664742483e-01 -3.0197972515829017e-08 -2.8315293490367434e-08  2.3396475750389828e-01 -2.9920603307015843e-08 -2.7315886780113296e-08  2.3396475791970334e-01 -2.9502538686579110e-08 -2.6202420582005096e-08  2.3396475784776519e-01 -2.9019856037633404e-08 -2.5037968365901794e-08  2.3396475724372057e-01 -2.8536519204018412e-08 -2.3884072344127692e-08  2.4596038775496207e-01 -3.3025568346450003e-08 -3.1019756078799036e-08  2.4596038819319949e-01 -3.2316268050769576e-08 -2.9815059264097767e-08  2.4596038807478460e-01 -3.1524848821190783e-08 -2.8544066116418113e-08  2.2255416134228084e-01 -2.5905381200784086e-08 -2.3020991548022447e-08  2.4596038735917963e-01 -3.0720917038222922e-08 -2.7275523360401679e-08  2.4596038602072431e-01 -2.9955237494313703e-08 -2.6080414686581123e-08  2.5857104700853784e-01 -3.3916294610071409e-08 -3.2279953584986533e-08  2.5857104623587790e-01 -3.2763893048628582e-08 -3.0893810799188547e-08  2.5857104480209692e-01 -3.1664706238944810e-08 -2.9580330516397574e-08  1.8221191880811516e-01 -1.3626549606131244e-08 -1.0843717985068371e-08  1.7332530178673955e-01 0.0000000000000000e+00 0.0000000000000000e+00  1.8221191897735184e-01 -1.3639026755015846e-08 -1.0489149362486355e-08  1.7332530178673955e-01 0.0000000000000000e+00 0.0000000000000000e+00  1.8221191914456922e-01 -1.3631561761955340e-08 -1.0129471503245239e-08  1.7332530178673955e-01 0.0000000000000000e+00 0.0000000000000000e+00  1.8221191929761851e-01 -1.3614517583348082e-08 -9.7709059690950484e-09  1.7332530178673955e-01 0.0000000000000000e+00 0.0000000000000000e+00  1.8221191943711579e-01 -1.3598726556963348e-08 -9.4189688416908721e-09  1.7332530178673955e-01 0.0000000000000000e+00 0.0000000000000000e+00  1.8221191957798455e-01 -1.3597423848704398e-08 -9.0816689975775241e-09  1.7332530178673955e-01 0.0000000000000000e+00 0.0000000000000000e+00  1.8221191975635792e-01 -1.3630045274537010e-08 -8.7740635160371296e-09  1.7332530178673955e-01 0.0000000000000000e+00 0.0000000000000000e+00  1.8221192004406486e-01 -1.3731417841906068e-08 -8.5248595216319378e-09  1.7332530178673955e-01 0.0000000000000000e+00 0.0000000000000000e+00  1.8221192057189695e-01 -1.3975427813956011e-08 -8.3872995678560729e-09  1.7332530178673955e-01 0.0000000000000000e+00 0.0000000000000000e+00  1.7332530178673955e-01 0.0000000000000000e+00 0.0000000000000000e+00  1.8221192154409663e-01 -1.4533626630449039e-08 -8.4619704888015168e-09  1.9155412948660158e-01 -1.6550866732120134e-08 -1.3829961060722193e-08  1.9155412980255382e-01 -1.6635186888851800e-08 -1.3216060858681348e-08  1.9155413009939878e-01 -1.6662901517680375e-08 -1.2584700307617459e-08  1.9155413035895186e-01 -1.6664917399513069e-08 -1.1950320566727891e-08  1.9155413057868689e-01 -1.6673938189245912e-08 -1.1325924546184874e-08  1.9155413077207567e-01 -1.6728559748211607e-08 -1.0728962515364092e-08  1.9155413097175403e-01 -1.6879651425186400e-08 -1.0189221653014029e-08  1.9155413123143278e-01 -1.7200455895497593e-08 -9.7592695148132263e-09  1.9155413160918891e-01 -1.7797461510300751e-08 -9.5283184283397702e-09  1.9155413206704985e-01 -1.8787662987397848e-08 -9.6379557341914171e-09  2.0137532398082530e-01 -1.9370534672735761e-08 -1.7111050035958825e-08  2.0137532446246192e-01 -1.9531682557593690e-08 -1.6312795433560649e-08  2.0137532487854354e-01 -1.9597687872809593e-08 -1.5476933132437838e-08  2.0137532520785584e-01 -1.9619677340322022e-08 -1.4627790881421348e-08  2.0137532543946612e-01 -1.9651745667850758e-08 -1.3787063702568462e-08  2.0137532557013360e-01 -1.9753320870159711e-08 -1.2981694623358878e-08  2.0137532560033097e-01 -1.9990542652895874e-08 -1.2253767906259490e-08  2.0137532552250037e-01 -2.0431140832750358e-08 -1.1672245424959942e-08  2.0137532528589469e-01 -2.1114046966760837e-08 -1.1345178943678284e-08  2.0137532470449324e-01 -2.1937896723139762e-08 -1.1425323243984841e-08  2.1170006143267742e-01 -2.2597762788715958e-08 -1.9487927041740340e-08  2.1170006196405056e-01 -2.2667304803890606e-08 -1.8497930593576677e-08  2.1170006233346719e-01 -2.2672189804781842e-08 -1.7478770821074395e-08  2.1170006251874152e-01 -2.2680681623022601e-08 -1.6461266857302520e-08  2.1170006249541010e-01 -2.2761071114059813e-08 -1.5481272297454769e-08  2.1170006223061744e-01 -2.2974127622175689e-08 -1.4590704344244447e-08  2.1170006167339001e-01 -2.3351993027878515e-08 -1.3869636618958848e-08  2.1170006073958084e-01 -2.3846419939924025e-08 -1.3436948191248904e-08  2.2255415806924919e-01 -2.5875381384485047e-08 -2.2828243565115487e-08  2.2255415871237280e-01 -2.5886228196055653e-08 -2.1718322082275294e-08  2.2255415910303494e-01 -2.5808372162557297e-08 -2.0559114183663682e-08  2.2255415920892721e-01 -2.5716837275683064e-08 -1.9390512673003756e-08  2.2255415898997474e-01 -2.5679865521182372e-08 -1.8256639877152734e-08  2.1170006405523095e-01 -2.3742740537046331e-08 -1.7006452730296827e-08  2.2255415839590220e-01 -2.5745025139053450e-08 -1.7217595640406799e-08  2.1170006300019412e-01 -2.3907611903115154e-08 -1.6308685554344570e-08  2.2255415736825032e-01 -2.5912885065466146e-08 -1.6361766843713580e-08  2.2255415585119323e-01 -2.6091842351936957e-08 -1.5815402933925073e-08  2.3396475538408551e-01 -2.9358147149296784e-08 -2.6393428876616265e-08  2.3396475613530926e-01 -2.9234088889807079e-08 -2.5183620053323613e-08  2.3396475654079937e-01 -2.8994238168645919e-08 -2.3901729291579168e-08  2.3396475656198301e-01 -2.8716747397189615e-08 -2.2596539387480300e-08  2.3396475615236018e-01 -2.8468027396325319e-08 -2.1319942897928123e-08  2.2255415959956740e-01 -2.6035277068610364e-08 -1.9780236862587141e-08  2.3396475526053809e-01 -2.8287682844377492e-08 -2.0139155085161085e-08  2.2255415815721555e-01 -2.5928359005999247e-08 -1.8968970080910526e-08  2.3396475384301124e-01 -2.8166261054321893e-08 -1.9149117695167119e-08  2.1170006149439766e-01 -2.4072845787905094e-08 -1.5841230460557125e-08  2.2255415621851121e-01 -2.5784215528164417e-08 -1.8393884372460744e-08  2.3396475188823498e-01 -2.8016401973415940e-08 -1.8481040494409496e-08  2.3396474942745785e-01 -2.7643073342281420e-08 -1.8294486217574423e-08  2.4596038676909673e-01 -3.2688410727619076e-08 -2.8929518897854676e-08  2.4596038591317135e-01 -3.3025807830445291e-08 -3.0230936113562826e-08  2.4596038719346358e-01 -3.2207553928274318e-08 -2.7532030377381866e-08  2.4596038714602261e-01 -3.1664849386362268e-08 -2.6096054486705864e-08  2.4596038658119421e-01 -3.1128260559290948e-08 -2.4680900664855029e-08  2.3396475607400161e-01 -2.8092157950378856e-08 -2.2806348983186682e-08  2.4596038545496920e-01 -3.0639900807214388e-08 -2.3360098018715110e-08  2.3396475433431557e-01 -2.7687292695906142e-08 -2.1879947282183727e-08  2.4596038374338078e-01 -3.0201232777790414e-08 -2.2233798167848003e-08  2.3396475207449646e-01 -2.7267656716868781e-08 -2.1191490611925270e-08  2.4596038146941085e-01 -2.9757241974652510e-08 -2.1436426070519481e-08  2.4596037870346912e-01 -2.9179592624807765e-08 -2.1125848869931948e-08  2.5857104600547659e-01 -3.6221346340511190e-08 -3.2979951526188403e-08  2.5857104645868995e-01 -3.5430931797296135e-08 -3.1465891676436111e-08  2.5857104637124212e-01 -3.4560115334970316e-08 -2.9898556695229416e-08  2.5857104570214334e-01 -3.3682896024501557e-08 -2.8344429312247913e-08  2.5857104441535489e-01 -3.2852908006982536e-08 -2.6882711494598467e-08  2.4596038406901824e-01 -2.9251850356268657e-08 -2.5037041959843311e-08  2.5857104249995522e-01 -3.2095893367015869e-08 -2.5617791439489868e-08  2.4596038157307890e-01 -2.8599686662445794e-08 -2.4232106995296002e-08  2.5857103999609826e-01 -3.1401390971065626e-08 -2.4686313133195015e-08  2.5857103698685308e-01 -3.0707071010503008e-08 -2.4243999580723302e-08  2.7182826748077077e-01 -3.7401774491263618e-08 -3.3996960028497461e-08  2.7182826676556593e-01 -3.6154786895086165e-08 -3.2301592913302445e-08  2.7182826539593125e-01 -3.4970226490484593e-08 -3.0698317274108186e-08  2.7182826336240268e-01 -3.3904111532817224e-08 -2.9295127161012204e-08  2.7182826070401517e-01 -3.2994964646189061e-08 -2.8230460865852414e-08  2.7182825749627731e-01 -3.2244895586944782e-08 -2.7657654112764157e-08  2.8576519832739256e-01 -3.7023810955661773e-08 -3.4774932938610183e-08  2.8576519626788710e-01 -3.5660158356465108e-08 -3.3240051479613452e-08  1.9155412371877989e-01 -1.4970812282231290e-08 -1.1220762520048857e-08  1.8221188003905089e-01 0.0000000000000000e+00 0.0000000000000000e+00  1.8221188003905089e-01 0.00000