<?xml version="1.0"?>
<VTKFile type="UnstructuredGrid"  version="0.1"  >
<UnstructuredGrid>
<Piece  NumberOfPoints="27" NumberOfCells="48">
<Points>
<DataArray  type="Float64"  NumberOfComponents="3"  format="ascii">0 0 0  0.5 0 0  1 0 0  0 0.5 0  0.5 0.5 0  1 0.5 0  0 1 0  0.5 1 0  1 1 0  0 0 0.5  0.5 0 0.5  1 0 0.5  0 0.5 0.5  0.5 0.5 0.5  1 0.5 0.5  0 1 0.5  0.5 1 0.5  1 1 0.5  0 0 1  0.5 0 1  1 0 1  0 0.5 1  0.5 0.5 1  1 0.5 1  0 1 1  0.5 1 1  1 1 1  </DataArray>
</Points>
<Cells>
<DataArray  type="UInt32"  Name="connectivity"  format="ascii">0 1 4 13  0 1 10 13  0 9 10 13  0 3 4 13  0 9 12 13  0 3 12 13  1 2 5 14  1 2 11 14  1 10 11 14  1 4 5 14  1 10 13 14  1 4 13 14  3 4 7 16  3 4 13 16  3 12 13 16  3 6 7 16  3 12 15 16  3 6 15 16  4 5 8 17  4 5 14 17  4 13 14 17  4 7 8 17  4 13 16 17  4 7 16 17  9 10 13 22  9 10 19 22  9 18 19 22  9 12 13 22  9 18 21 22  9 12 21 22  10 11 14 23  10 11 20 23  10 19 20 23  10 13 14 23  10 19 22 23  10 13 22 23  12 13 16 25  12 13 22 25  12 21 22 25  12 15 16 25  12 21 24 25  12 15 24 25  13 14 17 26  13 14 23 26  13 22 23 26  13 16 17 26  13 22 25 26  13 16 25 26  </DataArray>
<DataArray  type="UInt32"  Name="offsets"  format="ascii">4 8 12 16 20 24 28 32 36 40 44 48 52 56 60 64 68 72 76 80 84 88 92 96 100 104 108 112 116 120 124 128 132 136 140 144 148 152 156 160 164 168 172 176 180 184 188 192 </DataArray>
<DataArray  type="UInt8"  Name="types"  format="ascii">10 10 10 10 10 10 10 10 10 10 10 10 10 10 10 10 10 10 10 10 10 10 10 10 10 10 10 10 10 10 10 10 10 10 10 10 10 10 10 10 10 10 10 10 10 10 10 10 </DataArray>
</Cells>
<PointData  Vectors="f_7-0"> 
<DataArray  type="Float64"  Name="f_7-0"  NumberOfComponents="3" format="ascii">1.0000000000000001e-01 0.0000000000000000e+00 0.0000000000000000e+00  1.0000000000000001e-01 0.0000000000000000e+00 0.0000000000000000e+00  1.0000000000000001e-01 0.0000000000000000e+00 0.0000000000000000e+00  1.6487212707001284e-01 0.0000000000000000e+00 0.0000000000000000e+00  1.6487212707001284e-01 0.0000000000000000e+00 0.0000000000000000e+00  1.6487212707001284e-01 0.0000000000000000e+00 0.0000000000000000e+00  2.7182818284590454e-01 0.0000000000000000e+00 0.0000000000000000e+00  2.7182818284590454e-01 0.0000000000000000e+00 0.0000000000000000e+00  2.7182818284590454e-01 0.0000000000000000e+00 0.0000000000000000e+00  1.6487212707001284e-01 0.0000000000000000e+00 0.0000000000000000e+00  1.6487212707001284e-01 0.0000000000000000e+00 0.0000000000000000e+00  1.6487212707001284e-01 0.0000000000000000e+00 0.0000000000000000e+00  2.7182818284590454e-01 0.0000000000000000e+00 0.0000000000000000e+00  2.7261743502810931e-01 -5.8460048181877770e-04 -5.8460048181878518e-04  2.7182818284590454e-01 0.0000000000000000e+00 0.0000000000000000e+00  4.4816890703380646e-01 0.0000000000000000e+00 0.0000000000000000e+00  4.4816890703380646e-01 0.0000000000000000e+00 0.0000000000000000e+00  4.4816890703380646e-01 0.0000000000000000e+00 0.0000000000000000e+00  2.7182818284590454e-01 0.0000000000000000e+00 0.0000000000000000e+00  2.7182818284590454e-01 0.0000000000000000e+00 0.0000000000000000e+00  2.7182818284590454e-01 0.0000000000000000e+00 0.0000000000000000e+00  4.4816890703380646e-01 0.0000000000000000e+00 0.0000000000000000e+00  4.4816890703380646e-01 0.0000000000000000e+00 0.0000000000000000e+00  4.4816890703380646e-01 0.0000000000000000e+00 0.0000000000000000e+00  7.3890560989306509e-01 0.0000000000000000e+00 0.0000000000000000e+00  7.3890560989306509e-01 0.0000000000000000e+00 0.0000000000000000e+00  7.3890560989306509e-01 0.0000000000000000e+00 0.0000000000000000e+00  </DataArray> 
</PointData> 
</Piece>
</UnstructuredGrid>
</VTKFile>