<?xml version="1.0"?>
<VTKFile type="UnstructuredGrid"  version="0.1"  >
<UnstructuredGrid>
<Piece  NumberOfPoints="223" NumberOfCells="770">
<Points>
<DataArray  type="Float64"  NumberOfComponents="3"  format="ascii">0 0 0  0.1 0 0  0.1 0.1 0  0.1 0.1 0.1  0.1 0 0.1  0 0 0.1  0 0.1 0  0 0.1 0.1  0.2 0 0  0.2 0.1 0  0.2 0.1 0.1  0.2 0 0.1  0.3 0 0  0.3 0.1 0  0.3 0.1 0.1  0.3 0 0.1  0.4 0 0  0.4 0.1 0  0.4 0.1 0.1  0.4 0 0.1  0.5 0 0  0.5 0.1 0  0.5 0.1 0.1  0.5 0 0.1  0.1 0.2 0  0.1 0.2 0.1  0 0.2 0  0 0.2 0.1  0.2 0.2 0  0.2 0.2 0.1  0.3 0.2 0  0.3 0.2 0.1  0.4 0.2 0  0.4 0.2 0.1  0.5 0.2 0  0.5 0.2 0.1  0.1 0.3 0  0.1 0.3 0.1  0 0.3 0  0 0.3 0.1  0.2 0.3 0  0.2 0.3 0.1  0.3 0.3 0  0.3 0.3 0.1  0.4 0.3 0  0.4 0.3 0.1  0.5 0.3 0  0.5 0.3 0.1  0.1 0.4 0  0.1 0.4 0.1  0 0.4 0  0 0.4 0.1  0.2 0.4 0  0.2 0.4 0.1  0.3 0.4 0  0.3 0.4 0.1  0.4 0.4 0  0.4 0.4 0.1  0.5 0.4 0  0.5 0.4 0.1  0.1 0.5 0  0.1 0.5 0.1  0 0.5 0.1  0.2 0.5 0  0.2 0.5 0.1  0.3 0.5 0  0.3 0.5 0.1  0.4 0.5 0  0.4 0.5 0.1  0.5 0.5 0  0.5 0.5 0.1  0.5 0.6 0  0.5 0.6 0.1  0.1 0.1 0.2  0.1 0 0.2  0 0 0.2  0 0.1 0.2  0.2 0.1 0.2  0.2 0 0.2  0.3 0.1 0.2  0.3 0 0.2  0.4 0.1 0.2  0.4 0 0.2  0.5 0.1 0.2  0.5 0 0.2  0.1 0.2 0.2  0 0.2 0.2  0.2 0.2 0.2  0.3 0.2 0.2  0.4 0.2 0.2  0.5 0.2 0.2  0.1 0.3 0.2  0 0.3 0.2  0.2 0.3 0.2  0.3 0.3 0.2  0.4 0.3 0.2  0.5 0.3 0.2  0.1 0.4 0.2  0 0.4 0.2  0.2 0.4 0.2  0.3 0.4 0.2  0.4 0.4 0.2  0.5 0.4 0.2  0.1 0.5 0.2  0 0.5 0.2  0.2 0.5 0.2  0.3 0.5 0.2  0.4 0.5 0.2  0.5 0.5 0.2  0.5 0.6 0.2  0.1 0.1 0.3  0.1 0 0.3  0 0 0.3  0 0.1 0.3  0.2 0.1 0.3  0.2 0 0.3  0.3 0.1 0.3  0.3 0 0.3  0.4 0.1 0.3  0.4 0 0.3  0.5 0.1 0.3  0.5 0 0.3  0.1 0.2 0.3  0 0.2 0.3  0.2 0.2 0.3  0.3 0.2 0.3  0.4 0.2 0.3  0.5 0.2 0.3  0.1 0.3 0.3  0 0.3 0.3  0.2 0.3 0.3  0.3 0.3 0.3  0.4 0.3 0.3  0.5 0.3 0.3  0.1 0.4 0.3  0 0.4 0.3  0.2 0.4 0.3  0.3 0.4 0.3  0.4 0.4 0.3  0.5 0.4 0.3  0.1 0.5 0.3  0 0.5 0.3  0.2 0.5 0.3  0.3 0.5 0.3  0.4 0.5 0.3  0.5 0.5 0.3  0.5 0.6 0.3  0.1 0.1 0.4  0.1 0 0.4  0 0 0.4  0 0.1 0.4  0.2 0.1 0.4  0.2 0 0.4  0.3 0.1 0.4  0.3 0 0.4  0.4 0.1 0.4  0.4 0 0.4  0.5 0.1 0.4  0.5 0 0.4  0.1 0.2 0.4  0 0.2 0.4  0.2 0.2 0.4  0.3 0.2 0.4  0.4 0.2 0.4  0.5 0.2 0.4  0.1 0.3 0.4  0 0.3 0.4  0.2 0.3 0.4  0.3 0.3 0.4  0.4 0.3 0.4  0.5 0.3 0.4  0.1 0.4 0.4  0 0.4 0.4  0.2 0.4 0.4  0.3 0.4 0.4  0.4 0.4 0.4  0.5 0.4 0.4  0.1 0.5 0.4  0 0.5 0.4  0.2 0.5 0.4  0.3 0.5 0.4  0.4 0.5 0.4  0.5 0.5 0.4  0.5 0.6 0.4  0.1 0.1 0.5  0.1 0 0.5  0 0.1 0.5  0.2 0.1 0.5  0.2 0 0.5  0.3 0.1 0.5  0.3 0 0.5  0.4 0.1 0.5  0.4 0 0.5  0.5 0.1 0.5  0.5 0 0.5  0.1 0.2 0.5  0 0.2 0.5  0.2 0.2 0.5  0.3 0.2 0.5  0.4 0.2 0.5  0.5 0.2 0.5  0.1 0.3 0.5  0 0.3 0.5  0.2 0.3 0.5  0.3 0.3 0.5  0.4 0.3 0.5  0.5 0.3 0.5  0.1 0.4 0.5  0 0.4 0.5  0.2 0.4 0.5  0.3 0.4 0.5  0.4 0.4 0.5  0.5 0.4 0.5  0.1 0.5 0.5  0 0.5 0.5  0.2 0.5 0.5  0.3 0.5 0.5  0.4 0.5 0.5  0.5 0.5 0.5  0.2 0.6 0.5  0.3 0.6 0.5  0.4 0.6 0.5  0.5 0.6 0.5  </DataArray>
</Points>
<Cells>
<DataArray  type="UInt32"  Name="connectivity"  format="ascii">0 1 2 3  0 1 4 3  0 5 4 3  0 6 2 3  0 5 7 3  0 6 7 3  1 8 9 10  1 8 11 10  1 4 11 10  1 2 9 10  1 4 3 10  1 2 3 10  8 12 13 14  8 12 15 14  8 11 15 14  8 9 13 14  8 11 10 14  8 9 10 14  12 16 17 18  12 16 19 18  12 15 19 18  12 13 17 18  12 15 14 18  12 13 14 18  16 20 21 22  16 20 23 22  16 19 23 22  16 17 21 22  16 19 18 22  16 17 18 22  6 2 24 25  6 2 3 25  6 7 3 25  6 26 24 25  6 7 27 25  6 26 27 25  2 9 28 29  2 9 10 29  2 3 10 29  2 24 28 29  2 3 25 29  2 24 25 29  9 13 30 31  9 13 14 31  9 10 14 31  9 28 30 31  9 10 29 31  9 28 29 31  13 17 32 33  13 17 18 33  13 14 18 33  13 30 32 33  13 14 31 33  13 30 31 33  17 21 34 35  17 21 22 35  17 18 22 35  17 32 34 35  17 18 33 35  17 32 33 35  26 24 36 37  26 24 25 37  26 27 25 37  26 38 36 37  26 27 39 37  26 38 39 37  24 28 40 41  24 28 29 41  24 25 29 41  24 36 40 41  24 25 37 41  24 36 37 41  28 30 42 43  28 30 31 43  28 29 31 43  28 40 42 43  28 29 41 43  28 40 41 43  30 32 44 45  30 32 33 45  30 31 33 45  30 42 44 45  30 31 43 45  30 42 43 45  32 34 46 47  32 34 35 47  32 33 35 47  32 44 46 47  32 33 45 47  32 44 45 47  38 36 48 49  38 36 37 49  38 39 37 49  38 50 48 49  38 39 51 49  38 50 51 49  36 40 52 53  36 40 41 53  36 37 41 53  36 48 52 53  36 37 49 53  36 48 49 53  40 42 54 55  40 42 43 55  40 41 43 55  40 52 54 55  40 41 53 55  40 52 53 55  42 44 56 57  42 44 45 57  42 43 45 57  42 54 56 57  42 43 55 57  42 54 55 57  44 46 58 59  44 46 47 59  44 45 47 59  44 56 58 59  44 45 57 59  44 56 57 59  50 48 60 61  50 48 49 61  50 51 49 61  50 51 62 61  48 52 63 64  48 52 53 64  48 49 53 64  48 60 63 64  48 49 61 64  48 60 61 64  52 54 65 66  52 54 55 66  52 53 55 66  52 63 65 66  52 53 64 66  52 63 64 66  54 56 67 68  54 56 57 68  54 55 57 68  54 65 67 68  54 55 66 68  54 65 66 68  56 58 69 70  56 58 59 70  56 57 59 70  56 67 69 70  56 57 68 70  56 67 68 70  67 69 71 72  67 69 70 72  67 68 70 72  5 4 3 73  5 4 74 73  5 75 74 73  5 7 3 73  5 75 76 73  5 7 76 73  4 11 10 77  4 11 78 77  4 74 78 77  4 3 10 77  4 74 73 77  4 3 73 77  11 15 14 79  11 15 80 79  11 78 80 79  11 10 14 79  11 78 77 79  11 10 77 79  15 19 18 81  15 19 82 81  15 80 82 81  15 14 18 81  15 80 79 81  15 14 79 81  19 23 22 83  19 23 84 83  19 82 84 83  19 18 22 83  19 82 81 83  19 18 81 83  7 3 25 85  7 3 73 85  7 76 73 85  7 27 25 85  7 76 86 85  7 27 86 85  3 10 29 87  3 10 77 87  3 73 77 87  3 25 29 87  3 73 85 87  3 25 85 87  10 14 31 88  10 14 79 88  10 77 79 88  10 29 31 88  10 77 87 88  10 29 87 88  14 18 33 89  14 18 81 89  14 79 81 89  14 31 33 89  14 79 88 89  14 31 88 89  18 22 35 90  18 22 83 90  18 81 83 90  18 33 35 90  18 81 89 90  18 33 89 90  27 25 37 91  27 25 85 91  27 86 85 91  27 39 37 91  27 86 92 91  27 39 92 91  25 29 41 93  25 29 87 93  25 85 87 93  25 37 41 93  25 85 91 93  25 37 91 93  29 31 43 94  29 31 88 94  29 87 88 94  29 41 43 94  29 87 93 94  29 41 93 94  31 33 45 95  31 33 89 95  31 88 89 95  31 43 45 95  31 88 94 95  31 43 94 95  33 35 47 96  33 35 90 96  33 89 90 96  33 45 47 96  33 89 95 96  33 45 95 96  39 37 49 97  39 37 91 97  39 92 91 97  39 51 49 97  39 92 98 97  39 51 98 97  37 41 53 99  37 41 93 99  37 91 93 99  37 49 53 99  37 91 97 99  37 49 97 99  41 43 55 100  41 43 94 100  41 93 94 100  41 53 55 100  41 93 99 100  41 53 99 100  43 45 57 101  43 45 95 101  43 94 95 101  43 55 57 101  43 94 100 101  43 55 100 101  45 47 59 102  45 47 96 102  45 95 96 102  45 57 59 102  45 95 101 102  45 57 101 102  51 49 61 103  51 49 97 103  51 98 97 103  51 62 61 103  51 98 104 103  51 62 104 103  49 53 64 105  49 53 99 105  49 97 99 105  49 61 64 105  49 97 103 105  49 61 103 105  53 55 66 106  53 55 100 106  53 99 100 106  53 64 66 106  53 99 105 106  53 64 105 106  55 57 68 107  55 57 101 107  55 100 101 107  55 66 68 107  55 100 106 107  55 66 106 107  57 59 70 108  57 59 102 108  57 101 102 108  57 68 70 108  57 101 107 108  57 68 107 108  68 70 72 109  68 70 108 109  68 107 108 109  75 74 73 110  75 74 111 110  75 112 111 110  75 76 73 110  75 112 113 110  75 76 113 110  74 78 77 114  74 78 115 114  74 111 115 114  74 73 77 114  74 111 110 114  74 73 110 114  78 80 79 116  78 80 117 116  78 115 117 116  78 77 79 116  78 115 114 116  78 77 114 116  80 82 81 118  80 82 119 118  80 117 119 118  80 79 81 118  80 117 116 118  80 79 116 118  82 84 83 120  82 84 121 120  82 119 121 120  82 81 83 120  82 119 118 120  82 81 118 120  76 73 85 122  76 73 110 122  76 113 110 122  76 86 85 122  76 113 123 122  76 86 123 122  73 77 87 124  73 77 114 124  73 110 114 124  73 85 87 124  73 110 122 124  73 85 122 124  77 79 88 125  77 79 116 125  77 114 116 125  77 87 88 125  77 114 124 125  77 87 124 125  79 81 89 126  79 81 118 126  79 116 118 126  79 88 89 126  79 116 125 126  79 88 125 126  81 83 90 127  81 83 120 127  81 118 120 127  81 89 90 127  81 118 126 127  81 89 126 127  86 85 91 128  86 85 122 128  86 123 122 128  86 92 91 128  86 123 129 128  86 92 129 128  85 87 93 130  85 87 124 130  85 122 124 130  85 91 93 130  85 122 128 130  85 91 128 130  87 88 94 131  87 88 125 131  87 124 125 131  87 93 94 131  87 124 130 131  87 93 130 131  88 89 95 132  88 89 126 132  88 125 126 132  88 94 95 132  88 125 131 132  88 94 131 132  89 90 96 133  89 90 127 133  89 126 127 133  89 95 96 133  89 126 132 133  89 95 132 133  92 91 97 134  92 91 128 134  92 129 128 134  92 98 97 134  92 129 135 134  92 98 135 134  91 93 99 136  91 93 130 136  91 128 130 136  91 97 99 136  91 128 134 136  91 97 134 136  93 94 100 137  93 94 131 137  93 130 131 137  93 99 100 137  93 130 136 137  93 99 136 137  94 95 101 138  94 95 132 138  94 131 132 138  94 100 101 138  94 131 137 138  94 100 137 138  95 96 102 139  95 96 133 139  95 132 133 139  95 101 102 139  95 132 138 139  95 101 138 139  98 97 103 140  98 97 134 140  98 135 134 140  98 104 103 140  98 135 141 140  98 104 141 140  97 99 105 142  97 99 136 142  97 134 136 142  97 103 105 142  97 134 140 142  97 103 140 142  99 100 106 143  99 100 137 143  99 136 137 143  99 105 106 143  99 136 142 143  99 105 142 143  100 101 107 144  100 101 138 144  100 137 138 144  100 106 107 144  100 137 143 144  100 106 143 144  101 102 108 145  101 102 139 145  101 138 139 145  101 107 108 145  101 138 144 145  101 107 144 145  107 108 109 146  107 108 145 146  107 144 145 146  112 111 110 147  112 111 148 147  112 149 148 147  112 113 110 147  112 149 150 147  112 113 150 147  111 115 114 151  111 115 152 151  111 148 152 151  111 110 114 151  111 148 147 151  111 110 147 151  115 117 116 153  115 117 154 153  115 152 154 153  115 114 116 153  115 152 151 153  115 114 151 153  117 119 118 155  117 119 156 155  117 154 156 155  117 116 118 155  117 154 153 155  117 116 153 155  119 121 120 157  119 121 158 157  119 156 158 157  119 118 120 157  119 156 155 157  119 118 155 157  113 110 122 159  113 110 147 159  113 150 147 159  113 123 122 159  113 150 160 159  113 123 160 159  110 114 124 161  110 114 151 161  110 147 151 161  110 122 124 161  110 147 159 161  110 122 159 161  114 116 125 162 
[...]
<PointData  Vectors="f_8-0"> 
<DataArray  type="Float64"  Name="f_8-0"  NumberOfComponents="3" format="ascii">1.0000000000000001e-01 0.0000000000000000e+00 0.0000000000000000e+00  1.0000000000000001e-01 0.0000000000000000e+00 0.0000000000000000e+00  1.1051709180756478e-01 0.0000000000000000e+00 0.0000000000000000e+00  1.2550725587801595e-01 2.8155359899264373e-03 2.8155359899264352e-03  1.1051709180756478e-01 0.0000000000000000e+00 0.0000000000000000e+00  1.1051709180756478e-01 0.0000000000000000e+00 0.0000000000000000e+00  1.1051709180756478e-01 0.0000000000000000e+00 0.0000000000000000e+00  1.2214027581601700e-01 0.0000000000000000e+00 0.0000000000000000e+00  1.0000000000000001e-01 0.0000000000000000e+00 0.0000000000000000e+00  1.1051709180756478e-01 0.0000000000000000e+00 0.0000000000000000e+00  1.2593300124821658e-01 3.3869247826109703e-03 3.3869247826109786e-03  1.1051709180756478e-01 0.0000000000000000e+00 0.0000000000000000e+00  1.0000000000000001e-01 0.0000000000000000e+00 0.0000000000000000e+00  1.1051709180756478e-01 0.0000000000000000e+00 0.0000000000000000e+00  1.2558751751198413e-01 3.6414364309458516e-03 3.6414364309458563e-03  1.1051709180756478e-01 0.0000000000000000e+00 0.0000000000000000e+00  1.0000000000000001e-01 0.0000000000000000e+00 0.0000000000000000e+00  1.1051709180756478e-01 0.0000000000000000e+00 0.0000000000000000e+00  1.2494610740750402e-01 3.7674335013834184e-03 3.7674335013834184e-03  1.1051709180756478e-01 0.0000000000000000e+00 0.0000000000000000e+00  1.0000000000000001e-01 0.0000000000000000e+00 0.0000000000000000e+00  1.1051709180756478e-01 0.0000000000000000e+00 0.0000000000000000e+00  1.2413981289473389e-01 3.8197784352467035e-03 3.8197784352467057e-03  1.1051709180756478e-01 0.0000000000000000e+00 0.0000000000000000e+00  1.2214027581601700e-01 0.0000000000000000e+00 0.0000000000000000e+00  1.3891012567217859e-01 3.4385292388436715e-03 3.2684569162300605e-03  1.2214027581601700e-01 0.0000000000000000e+00 0.0000000000000000e+00  1.3498588075760032e-01 0.0000000000000000e+00 0.0000000000000000e+00  1.2214027581601700e-01 0.0000000000000000e+00 0.0000000000000000e+00  1.3993322056997839e-01 4.7503100688908425e-03 4.0648051868021175e-03  1.2214027581601700e-01 0.0000000000000000e+00 0.0000000000000000e+00  1.3976415430816358e-01 5.3379113517853481e-03 4.4271467127849819e-03  1.2214027581601700e-01 0.0000000000000000e+00 0.0000000000000000e+00  1.3903857896318669e-01 5.6336395243889370e-03 4.6080274877863632e-03  1.2214027581601700e-01 0.0000000000000000e+00 0.0000000000000000e+00  1.3800003026921695e-01 5.7760188949960165e-03 4.6860996714559091e-03  1.3498588075760032e-01 0.0000000000000000e+00 0.0000000000000000e+00  1.5330272284335242e-01 3.5352024218589370e-03 3.4031551112389405e-03  1.3498588075760032e-01 0.0000000000000000e+00 0.0000000000000000e+00  1.4918246976412705e-01 0.0000000000000000e+00 0.0000000000000000e+00  1.3498588075760032e-01 0.0000000000000000e+00 0.0000000000000000e+00  1.5454677693871965e-01 5.2491557494421396e-03 4.3020558702551370e-03  1.3498588075760032e-01 0.0000000000000000e+00 0.0000000000000000e+00  1.5454748552564695e-01 6.1352641842136570e-03 4.7272883131548836e-03  1.3498588075760032e-01 0.0000000000000000e+00 0.0000000000000000e+00  1.5389599233951390e-01 6.6128384096947107e-03 4.9457220360004488e-03  1.3498588075760032e-01 0.0000000000000000e+00 0.0000000000000000e+00  1.5285573503606018e-01 6.8601665420298672e-03 5.0448339385215403e-03  1.4918246976412705e-01 0.0000000000000000e+00 0.0000000000000000e+00  1.6905357660028567e-01 3.4526178315026396e-03 3.4348566104315699e-03  1.4918246976412705e-01 0.0000000000000000e+00 0.0000000000000000e+00  1.6487212707001284e-01 0.0000000000000000e+00 0.0000000000000000e+00  1.4918246976412705e-01 0.0000000000000000e+00 0.0000000000000000e+00  1.7038034786186351e-01 5.3300796349857217e-03 4.3986599921578317e-03  1.4918246976412705e-01 0.0000000000000000e+00 0.0000000000000000e+00  1.7048706281481477e-01 6.3885540408481802e-03 4.8718347744116037e-03  1.4918246976412705e-01 0.0000000000000000e+00 0.0000000000000000e+00  1.6994042554037933e-01 6.9930188908145768e-03 5.1223801845628721e-03  1.4918246976412705e-01 0.0000000000000000e+00 0.0000000000000000e+00  1.6899154102729358e-01 7.3224772377765918e-03 5.2432555292791609e-03  1.6487212707001284e-01 0.0000000000000000e+00 0.0000000000000000e+00  1.8634809769801705e-01 3.2185708289561589e-03 3.4142036702341314e-03  1.8221188003905089e-01 0.0000000000000000e+00 0.0000000000000000e+00  1.6487212707001284e-01 0.0000000000000000e+00 0.0000000000000000e+00  1.8767983637671212e-01 5.0719733458345186e-03 4.4303263554928808e-03  1.6487212707001284e-01 0.0000000000000000e+00 0.0000000000000000e+00  1.8784094524898115e-01 6.1540244200213737e-03 4.9431443911864374e-03  1.6487212707001284e-01 0.0000000000000000e+00 0.0000000000000000e+00  1.8739459184571308e-01 6.7888791601469680e-03 5.2202375619276042e-03  1.6487212707001284e-01 0.0000000000000000e+00 0.0000000000000000e+00  1.8657576578641305e-01 7.1481613224263149e-03 5.3614675355329764e-03  1.8221188003905089e-01 0.0000000000000000e+00 0.0000000000000000e+00  2.0571763434540111e-01 6.2667469806342172e-03 5.3658884751749307e-03  1.3891012567217859e-01 3.2684569162300518e-03 3.4385292388436758e-03  1.2214027581601700e-01 0.0000000000000000e+00 0.0000000000000000e+00  1.2214027581601700e-01 0.0000000000000000e+00 0.0000000000000000e+00  1.3498588075760032e-01 0.0000000000000000e+00 0.0000000000000000e+00  1.3993322056997837e-01 4.0648051868021132e-03 4.7503100688908373e-03  1.2214027581601700e-01 0.0000000000000000e+00 0.0000000000000000e+00  1.3976415430816355e-01 4.4271467127849854e-03 5.3379113517853394e-03  1.2214027581601700e-01 0.0000000000000000e+00 0.0000000000000000e+00  1.3903857896318669e-01 4.6080274877863649e-03 5.6336395243889370e-03  1.2214027581601700e-01 0.0000000000000000e+00 0.0000000000000000e+00  1.3800003026921695e-01 4.6860996714559143e-03 5.7760188949960035e-03  1.2214027581601700e-01 0.0000000000000000e+00 0.0000000000000000e+00  1.5397223725238066e-01 4.5937780523389714e-03 4.5937780523389775e-03  1.4918246976412705e-01 0.0000000000000000e+00 0.0000000000000000e+00  1.5604436920710296e-01 6.6529284861329089e-03 6.6529284861329098e-03  1.5626449343805643e-01 7.6254761369234413e-03 7.6254761369234396e-03  1.5548894208743763e-01 8.1320538387266508e-03 8.1320538387266560e-03  1.5414147749942494e-01 8.3789953214335050e-03 8.3789953214335050e-03  1.6999033515242398e-01 5.1182931082662166e-03 5.0259576429303220e-03  1.6487212707001284e-01 0.0000000000000000e+00 0.0000000000000000e+00  1.7249385075546642e-01 7.9583573212979840e-03 7.4672203517762228e-03  1.7305349505697362e-01 9.4985429847371881e-03 8.6886634863997253e-03  1.7244607687628313e-01 1.0350342083443834e-02 9.3467740981141127e-03  1.7113427374227713e-01 1.0787023489078083e-02 9.6762772302539466e-03  1.8744493444958005e-01 5.2449854285059267e-03 5.2266463871434238e-03  1.8221188003905092e-01 0.0000000000000000e+00 0.0000000000000000e+00  1.9013674980357725e-01 8.4600852935296979e-03 7.9186405182281473e-03  1.9091144673396115e-01 1.0345277935098905e-02 9.3242323990958866e-03  1.9050925367763996e-01 1.1440262688600976e-02 1.0105826569222449e-02  1.8937507951534877e-01 1.2021929912341548e-02 1.0512187635292330e-02  2.0656593300475556e-01 5.0561718696181873e-03 5.3489264033692516e-03  2.0137527074704767e-01 0.0000000000000000e+00 0.0000000000000000e+00  2.0929943890887126e-01 8.3148391550505844e-03 8.2369017996854008e-03  2.1018870455915722e-01 1.0287140793485085e-02 9.7869519792768093e-03  2.0997231479822301e-01 1.1457529101920142e-02 1.0665023922797858e-02  2.0906986541433667e-01 1.2094628269795933e-02 1.1137710947141046e-02  2.3031229057448727e-01 1.0965333827579781e-02 1.1486456102277508e-02  1.5330272284335242e-01 3.4031551112389470e-03 3.5352024218589422e-03  1.3498588075760032e-01 0.0000000000000000e+00 0.0000000000000000e+00  1.3498588075760032e-01 0.0000000000000000e+00 0.0000000000000000e+00  1.4918246976412705e-01 0.0000000000000000e+00 0.0000000000000000e+00  1.5454677693871965e-01 4.3020558702551396e-03 5.2491557494421404e-03  1.3498588075760032e-01 0.0000000000000000e+00 0.0000000000000000e+00  1.5454748552564695e-01 4.7272883131548879e-03 6.1352641842136648e-03  1.3498588075760032e-01 0.0000000000000000e+00 0.0000000000000000e+00  1.5389599233951390e-01 4.9457220360004574e-03 6.6128384096947185e-03  1.3498588075760032e-01 0.0000000000000000e+00 0.0000000000000000e+00  1.5285573503606018e-01 5.0448339385215438e-03 6.8601665420298724e-03  1.3498588075760032e-01 0.0000000000000000e+00 0.0000000000000000e+00  1.6999033515242401e-01 5.0259576429303237e-03 5.1182931082662166e-03  1.6487212707001284e-01 0.0000000000000000e+00 0.0000000000000000e+00  1.7249385075546642e-01 7.4672203517762263e-03 7.9583573212979857e-03  1.7305349505697362e-01 8.6886634863997184e-03 9.4985429847371950e-03  1.7244607687628311e-01 9.3467740981141145e-03 1.0350342083443835e-02  1.7113427374227713e-01 9.6762772302539466e-03 1.0787023489078082e-02  1.8775486978942305e-01 5.8956077198218416e-03 5.8956077198218442e-03  1.8221188003905089e-01 0.0000000000000000e+00 0.0000000000000000e+00  1.9082910515094578e-01 9.4122102621076523e-03 9.4122102621076471e-03  1.9186344675698863e-01 1.1415316176791181e-02 1.1415316176791184e-02  1.9152841803556098e-01 1.2555404586616392e-02 1.2555404586616392e-02  1.9032800598684979e-01 1.3146347447909911e-02 1.3146347447909917e-02  2.0710173031236681e-01 6.2998671497843731e-03 6.3670108389557193e-03  2.0137527074704767e-01 0.0000000000000000e+00 0.0000000000000000e+00  2.1045329945122299e-01 1.0417561058347184e-02 1.0364175647404593e-02  2.1179987655996807e-01 1.2934653425438470e-02 1.2723512265810786e-02  2.1176607535491571e-01 1.4427734408189173e-02 1.4100699014447785e-02  2.1083503631058148e-01 1.5219427670495023e-02 1.4832186998860783e-02  2.2828414478867259e-01 6.2914792983231552e-03 6.7391460111345123e-03  2.2255409284924679e-01 0.0000000000000000e+00 0.0000000000000000e+00  2.3172800049476183e-01 1.0591096308562708e-02 1.1125552286592429e-02  2.3324891316549987e-01 1.3291277463316629e-02 1.3766255732460981e-02  2.3347676073049253e-01 1.4916229851464192e-02 1.5327920193524094e-02  2.3286878499355845e-01 1.5788040328885814e-02 1.6177788601678414e-02  2.5650099620360983e-01 1.4771116212782077e-02 1.7064304564118671e-02  1.6905357660028569e-01 3.4348566104315699e-03 3.4526178315026396e-03  1.4918246976412705e-01 0.0000000000000000e+00 0.0000000000000000e+00  1.4918246976412705e-01 0.0000000000000000e+00 0.0000000000000000e+00  1.6487212707001284e-01 0.0000000000000000e+00 0.0000000000000000e+00  1.7038034786186354e-01 4.3986599921578429e-03 5.3300796349857200e-03  1.4918246976412705e-01 0.0000000000000000e+00 0.0000000000000000e+00  1.7048706281481477e-01 4.8718347744116002e-03 6.3885540408481854e-03  1.4918246976412705e-01 0.0000000000000000e+00 0.0000000000000000e+00  1.6994042554037933e-01 5.1223801845628730e-03 6.9930188908145742e-03  1.4918246976412705e-01 0.0000000000000000e+00 0.0000000000000000e+00  1.6899154102729358e-01 5.2432555292791653e-03 7.3224772377765892e-03  1.4918246976412705e-01 0.0000000000000000e+00 0.0000000000000000e+00  1.8744493444958005e-01 5.2266463871434264e-03 5.2449854285059293e-03  1.8221188003905092e-01 0.0000000000000000e+00 0.0000000000000000e+00  1.9013674980357725e-01 7.9186405182281507e-03 8.4600852935296979e-03  1.9091144673396115e-01 9.3242323990958883e-03 1.0345277935098906e-02  1.9050925367763999e-01 1.0105826569222450e-02 1.1440262688600981e-02  1.8937507951534877e-01 1.0512187635292330e-02 1.2021929912341561e-02  2.0710173031236681e-01 6.3670108389557089e-03 6.2998671497843791e-03  2.0137527074704767e-01 0.0000000000000000e+00 0.0000000000000000e+00  2.1045329945122299e-01 1.0364175647404581e-02 1.0417561058347184e-02  2.1179987655996807e-01 1.2723512265810796e-02 1.2934653425438461e-02  2.1176607535491573e-01 1.4100699014447783e-02 1.4427734408189173e-02  2.1083503631058143e-01 1.4832186998860802e-02 1.5219427670495013e-02  2.2854239793413217e-01 7.0605420894828321e-03 7.0605420894828243e-03  2.2255409284924679e-01 0.0000000000000000e+00 0.0000000000000000e+00  2.3224966456650795e-01 1.1880340189182555e-02 1.1880340189182548e-02  2.3398731303813461e-01 1.4911888138850856e-02 1.4911888138850844e-02  2.3433984693948098e-01 1.6742867266986438e-02 1.6742867266986448e-02  2.3377018732471874e-01 1.7727115698032762e-02 1.7727115698032762e-02  2.5203353076439877e-01 7.3076162217255106e-03 7.7308353652339673e-03  2.4596031111569500e-01 0.0000000000000000e+00 0.0000000000000000e+00  2.5589648984188806e-01 1.2488518545139377e-02 1.3152899879210657e-02  2.5786369984526719e-01 1.5816705909543323e-02 1.6607508546435234e-02  2.5854459877002350e-01 1.7841323732351776e-02 1.8708794134078936e-02  2.5838342751630294e-01 1.8930534021723990e-02 1.9856203632684120e-02  2.8471416162764229e-01 1.8246795087786340e-02 2.1412714144853996e-02  1.8634809769801705e-01 3.4142036702341397e-03 3.2185708289561598e-03  1.6487212707001284e-01 0.0000000000000000e+00 0.0000000000000000e+00  1.8221188003905089e-01 0.0000000000000000e+00 0.0000000000000000e+00  1.8767983637671212e-01 4.4303263554928791e-03 5.0719733458345281e-03  1.6487212707001284e-01 0.0000000000000000e+00 0.0000000000000000e+00  1.8784094524898115e-01 4.9431443911864452e-03 6.1540244200213789e-03  1.6487212707001284e-01 0.0000000000000000e+00 0.0000000000000000e+00  1.8739459184571308e-01 5.2202375619275964e-03 6.7888791601469645e-03  1.6487212707001284e-01 0.0000000000000000e+00 0.0000000000000000e+00  1.8657576578641305e-01 5.3614675355329695e-03 7.1481613224263158e-03  1.6487212707001284e-01 0.0000000000000000e+00 0.0000000000000000e+00  2.0656593300475559e-01 5.3489264033692550e-03 5.0561718696181942e-03  2.0137527074704767e-01 0.0000000000000000e+00 0.0000000000000000e+00  2.0929943890887123e-01 8.2369017996853956e-03 8.3148391550505706e-03  2.1018870455915722e-01 9.7869519792768075e-03 1.0287140793485096e-02  2.0997231479822304e-01 1.0665023922797853e-02 1.1457529101920137e-02  2.0906986541433667e-01 1.1137710947141055e-02 1.2094628269795944e-02  2.2828414478867262e-01 6.7391460111345071e-03 6.2914792983231561e-03  2.2255409284924679e-01 0.0000000000000000e+00 0.0000000000000000e+00  2.3172800049476180e-01 1.1125552286592424e-02 1.0591096308562706e-02  2.3324891316549989e-01 1.3766255732460970e-02 1.3291277463316625e-02  2.3347676073049256e-01 1.5327920193524068e-02 1.4916229851464190e-02  2.3286878499355848e-01 1.6177788601678400e-02 1.5788040328885818e-02  2.5203353076439883e-01 7.7308353652339656e-03 7.3076162217255141e-03  2.4596031111569500e-01 0.0000000000000000e+00 0.0000000000000000e+00  2.5589648984188806e-01 1.3152899879210657e-02 1.2488518545139370e-02  2.5786369984526719e-01 1.6607508546435241e-02 1.5816705909543330e-02  2.5854459877002350e-01 1.8708794134078933e-02 1.7841323732351769e-02  2.5838342751630294e-01 1.9856203632684116e-02 1.8930534021723972e-02  2.7809294009104046e-01 8.2793994792734922e-03 8.2793994792734887e-03  2.7182818284590454e-01 0.0000000000000000e+00 0.0000000000000000e+00  2.8217908679030351e-01 1.4265540306449168e-02 1.4265540306449163e-02  2.8442000938777412e-01 1.8138784347173371e-02 1.8138784347173368e-02  2.8548239060277214e-01 2.0496534271135382e-02 2.0496534271135375e-02  2.8580808750487968e-01 2.1773545006987912e-02 2.1773545006987909e-02  3.1071415583037959e-01 1.4343180881123258e-02 1.5883617193132221e-02  3.1302218019937378e-01 1.8161880711657905e-02 2.0137203464961746e-02  3.1435218945636056e-01 2.0407537576066614e-02 2.2682105620911025e-02  3.1515196263079148e-01 2.1590851590265508e-02 2.4059574793378339e-02  </DataArray> 
</PointData> 
</Piece>
</UnstructuredGrid>
</VTKFile>