<?xml version="1.0"?>
<VTKFile type="UnstructuredGrid"  version="0.1"  >
<UnstructuredGrid>
<Piece  NumberOfPoints="1306" NumberOfCells="5784">
<Points>
<DataArray  type="Float64"  NumberOfComponents="3"  format="ascii">0 0.5 0.45  0.05 0.5 0.45  0.05 0.55 0.45  0.05 0.55 0.5  0.05 0.5 0.5  0 0.5 0.5  0 0.55 0.45  0 0.55 0.5  0.1 0.5 0.45  0.1 0.55 0.45  0.1 0.55 0.5  0.1 0.5 0.5  0.15 0.55 0.5  0.05 0.6 0.45  0.05 0.6 0.5  0 0.6 0.45  0 0.6 0.5  0.1 0.6 0.5  0.15 0.6 0.5  0.05 0.65 0.5  0 0.65 0.5  0 0.65 0.45  0.1 0.65 0.5  0.05 0.7 0.5  0 0.7 0.5  0.05 0.55 0.55  0 0.55 0.55  0.1 0.55 0.55  0.15 0.55 0.55  0.05 0.6 0.55  0 0.6 0.55  0.1 0.6 0.55  0.15 0.6 0.55  0.2 0.55 0.5  0.2 0.6 0.5  0.2 0.6 0.55  0.2 0.55 0.55  0.25 0.6 0.55  0.35 0.55 0.5  0.4 0.55 0.5  0.4 0.6 0.5  0.4 0.6 0.55  0.35 0.6 0.5  0.35 0.6 0.55  0.45 0.55 0.5  0.45 0.6 0.5  0.45 0.6 0.55  0.5 0.6 0.5  0.5 0.6 0.55  0.05 0.65 0.55  0 0.65 0.55  0.1 0.65 0.55  0.15 0.65 0.5  0.15 0.65 0.55  0.2 0.65 0.5  0.2 0.65 0.55  0.25 0.65 0.55  0.25 0.65 0.5  0.4 0.65 0.5  0.4 0.65 0.55  0.35 0.65 0.5  0.35 0.65 0.55  0.45 0.65 0.5  0.45 0.65 0.55  0.5 0.65 0.5  0.5 0.65 0.55  0.55 0.65 0.55  0.05 0.7 0.55  0 0.7 0.55  0.1 0.7 0.5  0.1 0.7 0.55  0.15 0.7 0.5  0.15 0.7 0.55  0.2 0.7 0.5  0.2 0.7 0.55  0.25 0.7 0.5  0.25 0.7 0.55  0.3 0.65 0.5  0.3 0.7 0.5  0.3 0.7 0.55  0.3 0.65 0.55  0.35 0.7 0.5  0.35 0.7 0.55  0.4 0.7 0.5  0.4 0.7 0.55  0.45 0.7 0.5  0.45 0.7 0.55  0.5 0.7 0.5  0.5 0.7 0.55  0.55 0.7 0.55  0.55 0.7 0.5  0.05 0.75 0.5  0.05 0.75 0.55  0 0.75 0.5  0 0.75 0.55  0.1 0.75 0.5  0.1 0.75 0.55  0.15 0.75 0.5  0.15 0.75 0.55  0.2 0.75 0.5  0.2 0.75 0.55  0.25 0.75 0.5  0.25 0.75 0.55  0.3 0.75 0.5  0.3 0.75 0.55  0.35 0.75 0.5  0.35 0.75 0.55  0.4 0.75 0.5  0.4 0.75 0.55  0.45 0.75 0.5  0.45 0.75 0.55  0.5 0.75 0.5  0.5 0.75 0.55  0.55 0.75 0.5  0.55 0.75 0.55  0.6 0.75 0.55  0.05 0.8 0.5  0.05 0.8 0.55  0 0.8 0.5  0 0.8 0.55  0.1 0.8 0.5  0.1 0.8 0.55  0.15 0.8 0.5  0.15 0.8 0.55  0.2 0.8 0.5  0.2 0.8 0.55  0.25 0.8 0.5  0.25 0.8 0.55  0.3 0.8 0.5  0.3 0.8 0.55  0.35 0.8 0.5  0.35 0.8 0.55  0.4 0.8 0.5  0.4 0.8 0.55  0.45 0.8 0.5  0.45 0.8 0.55  0.5 0.8 0.5  0.5 0.8 0.55  0.55 0.8 0.5  0.55 0.8 0.55  0.6 0.8 0.55  0.05 0.85 0.5  0.05 0.85 0.55  0 0.85 0.5  0 0.85 0.55  0.1 0.85 0.5  0.1 0.85 0.55  0.15 0.85 0.5  0.15 0.85 0.55  0.2 0.85 0.5  0.2 0.85 0.55  0.25 0.85 0.5  0.25 0.85 0.55  0.3 0.85 0.5  0.3 0.85 0.55  0.35 0.85 0.5  0.35 0.85 0.55  0.4 0.85 0.5  0.4 0.85 0.55  0.45 0.85 0.5  0.45 0.85 0.55  0.5 0.85 0.5  0.5 0.85 0.55  0.55 0.85 0.5  0.55 0.85 0.55  0.6 0.85 0.55  0.05 0.9 0.5  0.05 0.9 0.55  0 0.9 0.5  0 0.9 0.55  0.1 0.9 0.5  0.1 0.9 0.55  0.15 0.9 0.5  0.15 0.9 0.55  0.2 0.9 0.5  0.2 0.9 0.55  0.25 0.9 0.5  0.25 0.9 0.55  0.3 0.9 0.5  0.3 0.9 0.55  0.35 0.9 0.5  0.35 0.9 0.55  0.4 0.9 0.5  0.4 0.9 0.55  0.45 0.9 0.5  0.45 0.9 0.55  0.5 0.9 0.5  0.5 0.9 0.55  0.55 0.9 0.5  0.55 0.9 0.55  0.6 0.9 0.55  0.6 0.9 0.5  0.05 0.95 0.5  0.05 0.95 0.55  0 0.95 0.5  0 0.95 0.55  0.1 0.95 0.5  0.1 0.95 0.55  0.15 0.95 0.5  0.15 0.95 0.55  0.2 0.95 0.5  0.2 0.95 0.55  0.25 0.95 0.5  0.25 0.95 0.55  0.3 0.95 0.5  0.3 0.95 0.55  0.35 0.95 0.5  0.35 0.95 0.55  0.4 0.95 0.55  0.45 0.95 0.5  0.45 0.95 0.55  0.5 0.95 0.5  0.5 0.95 0.55  0.55 0.95 0.5  0.55 0.95 0.55  0.6 0.95 0.5  0.6 0.95 0.55  0.65 0.95 0.5  0.65 0.95 0.55  0.05 1 0.5  0.05 1 0.55  0 1 0.5  0 1 0.55  0.1 1 0.5  0.1 1 0.55  0.15 1 0.5  0.15 1 0.55  0.2 1 0.5  0.2 1 0.55  0.25 1 0.5  0.25 1 0.55  0.3 1 0.5  0.3 1 0.55  0.35 1 0.5  0.35 1 0.55  0.4 1 0.55  0.5 1 0.5  0.5 1 0.55  0.45 1 0.5  0.45 1 0.55  0.55 1 0.5  0.55 1 0.55  0.6 1 0.5  0.6 1 0.55  0.65 1 0.5  0.65 1 0.55  0.7 1 0.55  0.05 0.6 0.6  0.05 0.55 0.6  0 0.55 0.6  0 0.6 0.6  0.1 0.6 0.6  0.1 0.55 0.6  0.15 0.6 0.6  0.15 0.55 0.6  0.2 0.6 0.6  0.2 0.55 0.6  0.25 0.6 0.6  0.05 0.65 0.6  0 0.65 0.6  0.1 0.65 0.6  0.15 0.65 0.6  0.2 0.65 0.6  0.25 0.65 0.6  0.3 0.6 0.55  0.3 0.65 0.6  0.3 0.6 0.6  0.35 0.65 0.6  0.4 0.65 0.6  0.4 0.6 0.6  0.35 0.6 0.6  0.45 0.65 0.6  0.5 0.65 0.6  0.55 0.65 0.6  0.05 0.7 0.6  0 0.7 0.6  0.1 0.7 0.6  0.15 0.7 0.6  0.2 0.7 0.6  0.25 0.7 0.6  0.3 0.7 0.6  0.35 0.7 0.6  0.4 0.7 0.6  0.45 0.7 0.6  0.5 0.7 0.6  0.55 0.7 0.6  0.6 0.7 0.6  0.05 0.75 0.6  0 0.75 0.6  0.1 0.75 0.6  0.15 0.75 0.6  0.2 0.75 0.6  0.25 0.75 0.6  0.3 0.75 0.6  0.35 0.75 0.6  0.4 0.75 0.6  0.45 0.75 0.6  0.5 0.75 0.6  0.55 0.75 0.6  0.6 0.75 0.6  0.05 0.8 0.6  0 0.8 0.6  0.1 0.8 0.6  0.15 0.8 0.6  0.2 0.8 0.6  0.25 0.8 0.6  0.3 0.8 0.6  0.35 0.8 0.6  0.4 0.8 0.6  0.45 0.8 0.6  0.5 0.8 0.6  0.55 0.8 0.6  0.6 0.8 0.6  0.05 0.85 0.6  0 0.85 0.6  0.1 0.85 0.6  0.15 0.85 0.6  0.2 0.85 0.6  0.25 0.85 0.6  0.3 0.85 0.6  0.35 0.85 0.6  0.4 0.85 0.6  0.45 0.85 0.6  0.5 0.85 0.6  0.55 0.85 0.6  0.6 0.85 0.6  0.05 0.9 0.6  0 0.9 0.6  0.1 0.9 0.6  0.15 0.9 0.6  0.2 0.9 0.6  0.25 0.9 0.6  0.3 0.9 0.6  0.35 0.9 0.6  0.4 0.9 0.6  0.45 0.9 0.6  0.5 0.9 0.6  0.55 0.9 0.6  0.6 0.9 0.6  0.65 0.9 0.6  0.05 0.95 0.6  0 0.95 0.6  0.1 0.95 0.6  0.15 0.95 0.6  0.2 0.95 0.6  0.25 0.95 0.6  0.3 0.95 0.6  0.35 0.95 0.6  0.4 0.95 0.6  0.45 0.95 0.6  0.5 0.95 0.6  0.55 0.95 0.6  0.6 0.95 0.6  0.65 0.95 0.6  0.05 1 0.6  0 1 0.6  0.1 1 0.6  0.15 1 0.6  0.2 1 0.6  0.25 1 0.6  0.3 1 0.6  0.35 1 0.6  0.4 1 0.6  0.45 1 0.6  0.5 1 0.6  0.55 1 0.6  0.6 1 0.6  0.65 1 0.6  0.7 1 0.6  0 0.5 0.6  0.05 0.5 0.6  0.05 0.55 0.65  0.05 0.5 0.65  0 0.5 0.65  0 0.55 0.65  0.1 0.55 0.65  0.05 0.6 0.65  0 0.6 0.65  0.1 0.6 0.65  0.15 0.6 0.65  0.15 0.55 0.65  0.2 0.6 0.65  0.2 0.55 0.65  0.25 0.6 0.65  0.05 0.65 0.65  0 0.65 0.65  0.1 0.65 0.65  0.15 0.65 0.65  0.2 0.65 0.65  0.25 0.65 0.65  0.3 0.65 0.65  0.3 0.6 0.65  0.35 0.65 0.65  0.35 0.6 0.65  0.4 0.65 0.65  0.45 0.65 0.65  0.05 0.7 0.65  0 0.7 0.65  0.1 0.7 0.65  0.15 0.7 0.65  0.2 0.7 0.65  0.25 0.7 0.65  0.3 0.7 0.65  0.35 0.7 0.65  0.4 0.7 0.65  0.45 0.7 0.65  0.5 0.7 0.65  0.5 0.65 0.65  0.55 0.7 0.65  0.55 0.65 0.65  0.6 0.7 0.65  0.05 0.75 0.65  0 0.75 0.65  0.1 0.75 0.65  0.15 0.75 0.65  0.2 0.75 0.65  0.25 0.75 0.65  0.3 0.75 0.65  0.35 0.75 0.65  0.4 0.75 0.65  0.45 0.75 0.65  0.5 0.75 0.65  0.55 0.75 0.65  0.6 0.75 0.65  0.05 0.8 0.65  0 0.8 0.65  0.1 0.8 0.65  0.15 0.8 0.65  0.2 0.8 0.65  0.25 0.8 0.65  0.3 0.8 0.65  0.35 0.8 0.65  0.4 0.8 0.65  0.45 0.8 0.65  0.5 0.8 0.65  0.55 0.8 0.65  0.6 0.8 0.65  0.65 0.8 0.65  0.05 0.85 0.65  0 0.85 0.65  0.1 0.85 0.65  0.15 0.85 0.65  0.2 0.85 0.65  0.25 0.85 0.65  0.3 0.85 0.65  0.35 0.85 0.65  0.4 0.85 0.65  0.45 0.85 0.65  0.5 0.85 0.65  0.55 0.85 0.65  0.6 0.85 0.65  0.65 0.85 0.65  0.05 0.9 0.65  0 0.9 0.65  0.1 0.9 0.65  0.15 0.9 0.65  0.2 0.9 0.65  0.25 0.9 0.65  0.3 0.9 0.65  0.35 0.9 0.65  0.4 0.9 0.65  0.45 0.9 0.65  0.5 0.9 0.65  0.55 0.9 0.65  0.6 0.9 0.65  0.65 0.9 0.65  0.05 0.95 0.65  0 0.95 0.65  0.1 0.95 0.65  0.15 0.95 0.65  0.2 0.95 0.65  0.25 0.95 0.65  0.3 0.95 0.65  0.35 0.95 0.65  0.4 0.95 0.65  0.45 0.95 0.65  0.5 0.95 0.65  0.55 0.95 0.65  0.6 0.95 0.65  0.65 0.95 0.65  0.7 0.9 0.6  0.7 0.95 0.6  0.7 0.95 0.65  0.7 0.9 0.65  0.75 0.95 0.65  0.05 1 0.65  0 1 0.65  0.1 1 0.65  0.15 1 0.65  0.2 1 0.65  0.25 1 0.65  0.3 1 0.65  0.35 1 0.65  0.4 1 0.65  0.45 1 0.65  0.5 1 0.65  0.55 1 0.65  0.6 1 0.65  0.65 1 0.65  0.7 1 0.65  0.75 1 0.65  0.05 0.55 0.7  0 0.55 0.7  0.1 0.55 0.7  0.05 0.6 0.7  0 0.6 0.7  0.1 0.6 0.7  0.15 0.6 0.7  0.15 0.55 0.7  0.2 0.6 0.7  0.2 0.55 0.7  0.25 0.55 0.65  0.25 0.6 0.7  0.25 0.55 0.7  0.3 0.6 0.7  0.05 0.65 0.7  0 0.65 0.7  0.1 0.65 0.7  0.15 0.65 0.7  0.2 0.65 0.7  0.25 0.65 0.7  0.3 0.65 0.7  0.35 0.65 0.7  0.4 0.65 0.7  0.05 0.7 0.7  0 0.7 0.7  0.1 0.7 0.7  0.15 0.7 0.7  0.2 0.7 0.7  0.25 0.7 0.7  0.3 0.7 0.7  0.35 0.7 0.7  0.4 0.7 0.7  0.45 0.7 0.7  0.45 0.65 0.7  0.5 0.7 0.7  0.55 0.7 0.7  0.6 0.7 0.7  0.05 0.75 0.7  0 0.75 0.7  0.1 0.75 0.7  0.15 0.75 0.7  0.2 0.75 0.7  0.25 0.75 0.7  0.3 0.75 0.7  0.35 0.75 0.7  0.4 0.75 0.7  0.45 0.75 0.7  0.5 0.75 0.7  0.55 0.75 0.7  0.6 0.75 0.7  0.65 0.75 0.7  0.05 0.8 0.7  0 0.8 0.7  0.1 0.8 0.7  0.15 0.8 0.7  0.2 0.8 0.7  0.25 0.8 0.7  0.3 0.8 0.7  0.35 0.8 0.7  0.4 0.8 0.7  0.45 0.8 0.7  0.5 0.8 0.7  0.55 0.8 0.7  0.6 0.8 0.7  0.65 0.8 0.7  0.05 0.85 0.7  0 0.85 0.7  0.1 0.85 0.7  0.15 0.85 0.7  0.2 0.85 0.7  0.25 0.85 0.7  0.3 0.85 0.7  0.35 0.85 0.7  0.4 0.85 0.7  0.45 0.85 0.7  0.5 0.85 0.7  0.55 0.85 0.7  0.6 0.85 0.7  0.65 0.85 0.7  0.7 0.85 0.7  0.05 0.9 0.7  0 0.9 0.7  0.1 0.9 0.7  0.15 0.9 0.7  0.2 0.9 0.7  0.25 0.9 0.7  0.3 0.9 0.7  0.35 0.9 0.7  0.4 0.9 0.7  0.45 0.9 0.7  0.5 0.9 0.7  0.55 0.9 0.7  0.6 0.9 0.7  0.65 0.9 0.7  0.7 0.85 0.65  0.7 0.9 0.7  0.75 0.9 0.65  0.75 0.9 0.7  0.05 0.95 0.7  0 0.95 0.7  0.1 0.95 0.7  0.15 0.95 0.7  0.2 0.95 0.7  0.25 0.95 0.7  0.3 0.95 0.7  0.35 0.95 0.7  0.4 0.95 0.7  0.45 0.95 0.7  0.5 0.95 0.7  0.55 0.95 0.7  0.6 0.95 0.7  0.65 0.95 0.7  0.7 0.95 0.7  0.75 0.95 0.7  0.05 1 0.7  0 1 0.7  0.1 1 0.7  0.15 1 0.7  0.2 1 0.7  0.25 1 0.7  0.3 1 0.7  0.35 1 0.7  0.4 1 0.7  0.45 1 0.7  0.5 1 0.7  0.55 1 0.7  0.6 1 0.7  0.65 1 0.7  0.7 1 0.7  0.75 1 0.7  0.05 0.6 0.75  0.05 0.55 0.75  0 0.55 0.75  0 0.6 0.75  0.1 0.6 0.75  0.1 0.55 0.75  0.15 0.6 0.75  0.2 0.6 0.75  0.25 0.6 0.75  0.3 0.6 0.75  0.05 0.65 0.75  0 0.65 0.75  0.1 0.65 0.75  0.15 0.65 0.75  0.2 0.65 0.75  0.25 0.65 0.75  0.3 0.65 0.75  0.35 0.65 0.75  0.05 0.7 0.75  0 0.7 0.75  0.1 0.7 0.75  0.15 0.7 0.75  0.2 0.7 0.75  0.25 0.7 0.75  0.3 0.7 0.75  0.35 0.7 0.75  0.4 0.7 0.75  0.4 0.65 0.75  0.45 0.7 0.75  0.5 0.7 0.75  0.05 0.75 0.75  0 0.75 0.75  0.1 0.75 0.75  0.15 0.75 0.75  0.2 0.75 0.75  0.25 0.75 0.75  0.3 0.75 0.75  0.35 0.75 0.75  0.4 0.75 0.75  0.45 0.75 0.75  0.5 0.75 0.75  0.55 0.75 0.75  0.55 0.7 0.75  0.6 0.75 0.75  0.6 0.7 0.75  0.65 0.75 0.75  0.05 0.8 0.75  0 0.8 0.75  0.1 0.8 0.75  0.15 0.8 0.75  0.2 0.8 0.75  0.25 0.8 0.75  0.3 0.8 0.75  0.35 0.8 0.75  0.4 0.8 0.75  0.45 0.8 0.75  0.5 0.8 0.75  0.55 0.8 0.75  0.6 0.8 0.75  0.65 0.8 0.75  0.7 0.8 0.75  0.05 0.85 0.75  0 0.85 0.75  0.1 0.85 0.75  0.15 0.85 0.75  0.2 0.85 0.75  0.25 0.85
[...]
<PointData  Vectors="f_8-0"> 
<DataArray  type="Float64"  Name="f_8-0"  NumberOfComponents="3" format="ascii">2.5857096593158463e-01 0.0000000000000000e+00 0.0000000000000000e+00  2.5857102450213859e-01 -2.8358358549584357e-08 -2.7958020769860590e-08  2.7182824373061087e-01 -3.1800041760092873e-08 -3.0994243944367953e-08  2.8576517493261344e-01 -3.5285413739694852e-08 -3.4883895132265054e-08  2.7182824370131087e-01 -3.1459632521202858e-08 -3.1459632522569076e-08  2.7182818284590454e-01 0.0000000000000000e+00 0.0000000000000000e+00  2.7182818284590454e-01 0.0000000000000000e+00 0.0000000000000000e+00  2.8576511180631642e-01 0.0000000000000000e+00 0.0000000000000000e+00  2.5857102975665563e-01 -3.2548917891011321e-08 -3.1931170227826516e-08  2.7182824933739669e-01 -3.6639546790407349e-08 -3.5396505944436687e-08  2.8576518085264546e-01 -4.0716563570818060e-08 -4.0098694288756697e-08  2.7182824927681809e-01 -3.6148085004177816e-08 -3.6148085004635207e-08  2.8576518357241804e-01 -4.3434219549296595e-08 -4.2793817713918143e-08  2.8576517500089110e-01 -3.5579536087559764e-08 -3.4326822681289858e-08  3.0041666775775006e-01 -3.9480490234168787e-08 -3.8642001871329273e-08  2.8576511180631642e-01 0.0000000000000000e+00 0.0000000000000000e+00  3.0041660239464335e-01 0.0000000000000000e+00 0.0000000000000000e+00  3.0041667406180989e-01 -4.5670132706186119e-08 -4.4389452932908853e-08  3.0041667695090118e-01 -4.8590746344745209e-08 -4.7296664256356350e-08  3.1581935851278087e-01 -4.4102083988564288e-08 -4.2730364916424437e-08  3.1581929096897676e-01 0.0000000000000000e+00 0.0000000000000000e+00  3.0041660239464335e-01 0.0000000000000000e+00 0.0000000000000000e+00  3.1581936526557941e-01 -5.1045408310004161e-08 -4.8975742426176857e-08  3.3201176191935317e-01 -4.9229393093629804e-08 -4.7122265382572329e-08  3.3201169227365473e-01 0.0000000000000000e+00 0.0000000000000000e+00  3.0041666771476588e-01 -3.9136350865368087e-08 -3.9136350862537587e-08  3.0041660239464335e-01 0.0000000000000000e+00 0.0000000000000000e+00  3.0041667396635541e-01 -4.5200247644869295e-08 -4.5200247645962305e-08  3.0041667682350881e-01 -4.8231479506547812e-08 -4.8231479503651866e-08  3.1581935840859848e-01 -4.3796839083421817e-08 -4.3368145372631371e-08  3.1581929096897676e-01 0.0000000000000000e+00 0.0000000000000000e+00  3.1581936502728969e-01 -5.0731264178298104e-08 -5.0084336913045297e-08  3.1581936803671312e-01 -5.4021481900711863e-08 -5.3392792904146632e-08  2.8576518637326781e-01 -4.5227471972588608e-08 -4.4737071193495841e-08  3.0041667991323606e-01 -5.0282750254652218e-08 -4.9354082738625911e-08  3.1581937117409709e-01 -5.5955161658427571e-08 -5.5553458844082813e-08  3.0041667979944636e-01 -5.0235989206942828e-08 -5.0235989199144031e-08  3.1581937449276298e-01 -5.6734535356977488e-08 -5.6696745364129574e-08  2.8576519492318042e-01 -4.5914849098212854e-08 -4.6395221664711137e-08  2.8576519712191145e-01 -4.4937706565654843e-08 -4.5752178096048734e-08  3.0041669080152161e-01 -4.8334675815234710e-08 -5.0177441232865839e-08  3.1581938268865378e-01 -5.4033531497015930e-08 -5.5146392073646499e-08  3.0041668864745180e-01 -4.9757251082406794e-08 -5.0936659328365605e-08  3.1581938044390540e-01 -5.5557565494536372e-08 -5.6332368282980767e-08  2.8576519879953516e-01 -4.3582354016374417e-08 -4.4693944937147530e-08  3.0041669242672181e-01 -4.6582836836106025e-08 -4.8986245917458960e-08  3.1581938436875057e-01 -5.2143624546229637e-08 -5.3525402381924470e-08  3.0041669351786482e-01 -4.4624879512192421e-08 -4.7497769469225073e-08  3.1581938550316574e-01 -5.0029226119636988e-08 -5.1622481490563296e-08  3.3201176173082902e-01 -4.8920454648728369e-08 -4.7978963429632006e-08  3.3201169227365485e-01 0.0000000000000000e+00 0.0000000000000000e+00  3.3201176878143052e-01 -5.6720063761265307e-08 -5.5323326874686174e-08  3.1581936835389235e-01 -5.4027442271029725e-08 -5.2002672788543867e-08  3.3201177197609472e-01 -6.0117702578089386e-08 -5.8820700412308744e-08  3.1581937144768041e-01 -5.5410189023996459e-08 -5.4064034630353162e-08  3.3201177524833891e-01 -6.1756995637792499e-08 -6.1029961463310123e-08  3.3201177860530334e-01 -6.2004513434733663e-08 -6.2121062719786011e-08  3.1581937458546189e-01 -5.5532139835940652e-08 -5.5256632338008807e-08  3.1581938189365949e-01 -5.1343892877702169e-08 -5.4323119800364718e-08  3.3201178635795808e-01 -5.7627629050055117e-08 -6.0080350089207808e-08  3.1581937994012116e-01 -5.3220019032462993e-08 -5.5261712513934438e-08  3.3201178431104161e-01 -5.9633324357301433e-08 -6.1456020562067503e-08  3.1581938334896859e-01 -4.9246197951131513e-08 -5.2962562901216714e-08  3.3201178786894336e-01 -5.5368978134715856e-08 -5.8276505368493634e-08  3.1581938434596957e-01 -4.7031876623707358e-08 -5.1326213232591738e-08  3.3201178891273725e-01 -5.2981269143633362e-08 -5.6212005997937246e-08  3.3201178955312582e-01 -5.0531141485299599e-08 -5.4016279928436207e-08  3.4903436709291596e-01 -5.4582319675195259e-08 -5.2938034615342912e-08  3.4903429574618416e-01 0.0000000000000000e+00 0.0000000000000000e+00  3.3201176922568881e-01 -5.6879555611934179e-08 -5.3761888510689517e-08  3.4903437468938114e-01 -6.3190360345953185e-08 -6.0808502657656304e-08  3.3201177255008968e-01 -5.9668630041989075e-08 -5.6739898784093269e-08  3.4903437811807275e-01 -6.6417240017181589e-08 -6.4320521176808539e-08  3.3201177569372886e-01 -6.0415772240129523e-08 -5.8621443923733532e-08  3.4903438145111387e-01 -6.7403982416224142e-08 -6.6387983436267406e-08  3.3201177866304243e-01 -5.9737332179493270e-08 -5.9559620711152243e-08  3.4903438465122005e-01 -6.6809640728649206e-08 -6.7243823715633940e-08  3.1581937748041067e-01 -5.4699863097140590e-08 -5.5621344454505766e-08  3.3201178121646185e-01 -5.8156471057298102e-08 -5.9637930839341152e-08  3.4903438740903359e-01 -6.5192303817088499e-08 -6.7045503980413664e-08  3.3201178170182155e-01 -6.1185665602999478e-08 -6.2204849472816479e-08  3.3201178325873504e-01 -5.6096859833751518e-08 -5.8999706263130174e-08  3.4903438959397892e-01 -6.3015546726219176e-08 -6.6012768587034982e-08  3.3201178481638122e-01 -5.3836839242431337e-08 -5.7819310794610901e-08  3.4903439123347013e-01 -6.0593908210884711e-08 -6.4385928946633866e-08  3.3201178596980635e-01 -5.1523577295246826e-08 -5.6268407446847102e-08  3.4903439243300943e-01 -5.8101315925425757e-08 -6.2382554515204938e-08  3.3201178680457855e-01 -4.9211630593886337e-08 -5.4495446904105567e-08  3.4903439331269465e-01 -5.5608349635265220e-08 -6.0174570346503573e-08  3.4903439396621883e-01 -5.3122356901304385e-08 -5.7885926741886634e-08  3.3201178738262388e-01 -4.6901618521634569e-08 -5.2619278522644838e-08  3.4903436739556659e-01 -5.4980783661031945e-08 -5.1752852033183812e-08  3.6692973985156552e-01 -6.0896704840418537e-08 -5.8165699007824916e-08  3.4903429574618416e-01 0.0000000000000000e+00 0.0000000000000000e+00  3.6692966676192446e-01 0.0000000000000000e+00 0.0000000000000000e+00  3.4903437542036098e-01 -6.3192743588982067e-08 -5.8571064395352518e-08  3.6692974818532248e-01 -7.0144989040804909e-08 -6.6328063934115478e-08  3.4903437898855494e-01 -6.5331146696493029e-08 -6.1213936823501777e-08  3.6692975188132976e-01 -7.2697262010237336e-08 -6.9542793862066796e-08  3.4903438196511788e-01 -6.4960838000489138e-08 -6.2626495781454191e-08  3.6692975506694986e-01 -7.2493386024491253e-08 -7.1153891417520279e-08  3.4903438440675172e-01 -6.3180788125847907e-08 -6.3058880023409963e-08  3.6692975773897252e-01 -7.0706962898088871e-08 -7.1500776039519706e-08  3.4903438624881333e-01 -6.0780421442235979e-08 -6.2668656562082871e-08  3.6692975976385461e-01 -6.8190769290106562e-08 -7.0822334634642286e-08  3.4903438757956051e-01 -5.8243668091998394e-08 -6.1649632415447229e-08  3.6692976120517656e-01 -6.5483726105303591e-08 -6.9396486756636278e-08  3.4903438854653634e-01 -5.5794681300835628e-08 -6.0196167755721037e-08  3.6692976222356288e-01 -6.2847630275947958e-08 -6.7488954139588735e-08  3.4903438928961072e-01 -5.3492197526583721e-08 -5.8475995200304772e-08  3.6692976299244179e-01 -6.0361750201082698e-08 -6.5315371570827026e-08  3.4903438991742175e-01 -5.1307733514125252e-08 -5.6620556078975246e-08  3.6692976365919916e-01 -5.8005237134073690e-08 -6.3029923404315760e-08  3.4903439050115476e-01 -4.9174661041026223e-08 -5.4727488926780068e-08  3.6692976432815283e-01 -5.5710575261647467e-08 -6.0733263337699747e-08  3.6692976504897878e-01 -5.3396344981350748e-08 -5.8492178191324522e-08  3.6692974031403003e-01 -6.1537165519838539e-08 -5.6488504930668442e-08  3.8574262776034390e-01 -6.8045064445312820e-08 -6.3495309013214729e-08  3.6692966676192446e-01 0.0000000000000000e+00 0.0000000000000000e+00  3.8574255306969746e-01 0.0000000000000000e+00 0.0000000000000000e+00  3.6692974929166272e-01 -6.9905865380580550e-08 -6.3084566776716679e-08  3.8574263712258000e-01 -7.7484791162194201e-08 -7.1491939300740867e-08  3.6692975294414842e-01 -7.0571737560830047e-08 -6.4923675372745946e-08  3.8574264096513561e-01 -7.8455811826501968e-08 -7.3878450656212557e-08  3.6692975522716204e-01 -6.8479850702724143e-08 -6.5441991707920417e-08  3.8574264347079973e-01 -7.6370748572710212e-08 -7.4549965626691707e-08  3.6692975654757332e-01 -6.5448565888331312e-08 -6.5064823963382743e-08  3.8574264498272443e-01 -7.3190839834951460e-08 -7.4039066231194764e-08  3.6692975723846216e-01 -6.2415869006092320e-08 -6.4051114217324248e-08  3.8574264579209011e-01 -6.9951903397458533e-08 -7.2700625906346085e-08  3.6692975761184460e-01 -5.9730064152973793e-08 -6.2621360139762829e-08  3.8574264621370691e-01 -6.7057824212891925e-08 -7.0846996798105000e-08  3.6692975788469279e-01 -5.7432143483306859e-08 -6.0947107466289666e-08  3.8574264649247453e-01 -6.4572539218086103e-08 -6.8720905379683389e-08  3.6692975819140744e-01 -5.5439674966379712e-08 -5.9153799981595983e-08  3.8574264680037107e-01 -6.2417954538122151e-08 -6.6490831055844888e-08  3.6692975861653604e-01 -5.3634719362898663e-08 -5.7329576217361944e-08  3.8574264725911894e-01 -6.0471485096881946e-08 -6.4261642312693537e-08  3.6692975921616211e-01 -5.1896794098788922e-08 -5.5535647197297927e-08  3.8574264795485563e-01 -5.8603914063025901e-08 -6.2092593157862753e-08  3.8574264893995225e-01 -5.6691604929643298e-08 -6.0020083288285613e-08  3.8574262848703134e-01 -6.9136665997367592e-08 -6.1051738307526706e-08  4.0552007291918241e-01 -7.6277008783705936e-08 -6.8586482334271419e-08  3.8574255306969746e-01 0.0000000000000000e+00 0.0000000000000000e+00  4.0551999668446748e-01 0.0000000000000000e+00 0.0000000000000000e+00  3.8574263859499369e-01 -7.6510680912947642e-08 -6.6692171208282527e-08  4.0552008358772257e-01 -8.4664487427063043e-08 -7.5559462753153325e-08  3.8574264158708954e-01 -7.4355345726199119e-08 -6.6974221570726507e-08  4.0552008685555918e-01 -8.2553570566996736e-08 -7.6239503093404543e-08  3.8574264210007231e-01 -7.0194101884319386e-08 -6.6074703067083404e-08  4.0552008753974328e-01 -7.8149346397748016e-08 -7.5345837254319309e-08  3.8574264160009564e-01 -6.6334485648163365e-08 -6.4681998807367733e-08  4.0552008711695597e-01 -7.3997770371880364e-08 -7.3714794662707357e-08  3.8574264088669807e-01 -6.3305718145434439e-08 -6.3073901755032369e-08  4.0552008641352261e-01 -7.0717044356306485e-08 -7.1733666776057838e-08  3.8574264031222594e-01 -6.1029058863951552e-08 -6.1382714906004237e-08  4.0552008581166471e-01 -6.8245614112682941e-08 -6.9618521813143046e-08  3.8574263999552832e-01 -5.9289395610385322e-08 -5.9677174268184099e-08  4.0552008545932333e-01 -6.6359332448554641e-08 -6.7493041712972511e-08  3.8574263996871727e-01 -5.7885755942142847e-08 -5.7999307252526645e-08  4.0552008541789131e-01 -6.4842714509825162e-08 -6.5426914972263896e-08  3.8574264024815214e-01 -5.6657508675849804e-08 -5.6377676792426546e-08  4.0552008573148762e-01 -6.3521483617500844e-08 -6.3454505897846651e-08  3.8574264085983695e-01 -5.5474927126851878e-08 -5.4833367650829206e-08  4.0552008644901205e-01 -6.2253859038107709e-08 -6.1588892718933840e-08  4.0552008762593622e-01 -6.0914978483876994e-08 -5.9838491005046613e-08  4.0552007400388446e-01 -7.7697397988655356e-08 -6.4710115078181547e-08  4.2631152935867134e-01 -8.5513301603593084e-08 -7.2574480199722130e-08  4.0551999668446748e-01 0.0000000000000000e+00 0.0000000000000000e+00  4.2631145151688188e-01 0.0000000000000000e+00 0.0000000000000000e+00  4.0552008470263079e-01 -8.0724090444811210e-08 -6.7925918357181528e-08  4.2631154093812662e-01 -8.9225602436282127e-08 -7.6803071293360712e-08  4.0552008464973938e-01 -7.4649262191960807e-08 -6.5596483379052517e-08  4.2631154111475245e-01 -8.2751444090911590e-08 -7.4502753603250677e-08  4.0552008216659441e-01 -6.9578152471469694e-08 -6.3103838089308760e-08  4.2631153860039400e-01 -7.7243724227463053e-08 -7.1770894654763946e-08  4.0552007980328392e-01 -6.6272761180761259e-08 -6.1002856553431953e-08  4.2631153614624001e-01 -7.3633474995721991e-08 -6.9330593303035136e-08  4.0552007810451712e-01 -6.4205883147376121e-08 -5.9230200325412885e-08  4.2631153435993402e-01 -7.1376531602952817e-08 -6.7186750466207448e-08  4.0552007704106247e-01 -6.2872416403247236e-08 -5.7671989506943417e-08  4.2631153322566923e-01 -6.9926168802755624e-08 -6.5264565359051092e-08  4.0552007648168897e-01 -6.1950127139193698e-08 -5.6254683921990788e-08  4.2631153261905630e-01 -6.8929135371167940e-08 -6.3513076096809095e-08  4.0552007632639575e-01 -6.1246726711529716e-08 -5.4941898154843556e-08  4.2631153245195280e-01 -6.8173781677053484e-08 -6.1903874823709130e-08  4.0552007652966210e-01 -6.0641381105906739e-08 -5.3718250489554959e-08  4.2631153269422567e-01 -6.7527088359141303e-08 -6.0417573165241323e-08  4.0552007709603011e-01 -6.0047111221876562e-08 -5.2579509129200249e-08  4.2631153336532934e-01 -6.6893416288202738e-08 -5.9038966655291183e-08  4.2631153452568932e-01 -6.6189209720493863e-08 -5.7762652215560999e-08  4.0552007807439600e-01 -5.9387912483629939e-08 -5.1531963742071443e-08  4.2631153142023781e-01 -8.4063958692157775e-08 -6.7519330523768054e-08  4.4816898743512090e-01 -9.2440182677903428e-08 -7.5407579090623914e-08  4.2631145151688171e-01 0.0000000000000000e+00 0.0000000000000000e+00  4.4816890703380646e-01 0.0000000000000000e+00 0.0000000000000000e+00  4.2631153541926542e-01 -7.6858634609026730e-08 -6.4843561686187430e-08  4.4816899232752588e-01 -8.4988717456661058e-08 -7.2841836985606980e-08  4.2631153013404033e-01 -7.0876939489824592e-08 -6.0401826188051523e-08  4.4816898687263096e-01 -7.8464670265579665e-08 -6.7974457173139292e-08  4.2631152604323547e-01 -6.8055838026419016e-08 -5.7768176137442056e-08  4.4816898255099585e-01 -7.5360171918657675e-08 -6.5002839610461133e-08  4.2631152355465818e-01 -6.6769784892862134e-08 -5.6140172998054091e-08  4.4816897991527982e-01 -7.3947255441391442e-08 -6.3100540289452204e-08  4.2631152212455570e-01 -6.6133707156954184e-08 -5.4985959299215603e-08  4.4816897840051140e-01 -7.3254100680649823e-08 -6.1704978078001512e-08  4.2631152133635586e-01 -6.5781435414241570e-08 -5.4061558554375827e-08  4.4816897756300850e-01 -7.2874913343582502e-08 -6.0565536274948508e-08  4.4816897715464132e-01 -7.2640077839358096e-08 -5.9577004387135025e-08  4.2631152085376151e-01 -6.5399777764539047e-08 -5.2540135909826642e-08  4.4816897705738118e-01 -7.2471793878446506e-08 -5.8692804554220995e-08  4.2631152099348602e-01 -6.5261840669598134e-08 -5.1879258848864153e-08  4.4816897723161125e-01 -7.2327790536454953e-08 -5.7888105371004248e-08  4.2631152137426342e-01 -6.5119671573966533e-08 -5.1271673899262894e-08  4.4816897768795982e-01 -7.2178778064189311e-08 -5.7147959961669725e-08  4.2631152203973910e-01 -6.4948420963730551e-08 -5.0720174746266225e-08  4.4816897847741582e-01 -7.1997547764730003e-08 -5.6468243151421573e-08  4.2631152308029779e-01 -6.4717770419539558e-08 -5.0242460649963898e-08  4.4816897969657316e-01 -7.1750713225386808e-08 -5.5864413387630903e-08  4.4816890703380646e-01 0.0000000000000000e+00 0.0000000000000000e+00  4.7114701825907424e-01 0.0000000000000000e+00 0.0000000000000000e+00  4.4816890703380646e-01 0.0000000000000000e+00 0.0000000000000000e+00  4.7114701825907424e-01 0.0000000000000000e+00 0.0000000000000000e+00  4.4816890703380646e-01 0.0000000000000000e+00 0.0000000000000000e+00  4.7114701825907424e-01 0.0000000000000000e+00 0.0000000000000000e+00  4.4816890703380646e-01 0.0000000000000000e+00 0.0000000000000000e+00  4.7114701825907424e-01 0.0000000000000000e+00 0.0000000000000000e+00  4.4816890703380646e-01 0.0000000000000000e+00 0.0000000000000000e+00  4.7114701825907424e-01 0.0000000000000000e+00 0.0000000000000000e+00  4.4816890703380646e-01 0.0000000000000000e+00 0.0000000000000000e+00  4.7114701825907424e-01 0.0000000000000000e+00 0.0000000000000000e+00  4.4816890703380646e-01 0.0000000000000000e+00 0.0000000000000000e+00  4.7114701825907424e-01 0.0000000000000000e+00 0.0000000000000000e+00  4.4816890703380646e-01 0.0000000000000000e+00 0.0000000000000000e+00  4.7114701825907424e-01 0.0000000000000000e+00 0.0000000000000000e+00  4.7114701825907424e-01 0.0000000000000000e+00 0.0000000000000000e+00  4.4816890703380646e-01 0.0000000000000000e+00 0.0000000000000000e+00  4.7114701825907424e-01 0.0000000000000000e+00 0.0000000000000000e+00  4.4816890703380646e-01 0.0000000000000000e+00 0.0000000000000000e+00  4.7114701825907424e-01 0.0000000000000000e+00 0.0000000000000000e+00  4.4816890703380646e-01 0.0000000000000000e+00 0.0000000000000000e+00  4.7114701825907424e-01 0.0000000000000000e+00 0.0000000000000000e+00  4.4816890703380646e-01 0.0000000000000000e+00 0.0000000000000000e+00  4.7114701825907424e-01 0.0000000000000000e+00 0.0000000000000000e+00  4.4816890703380646e-01 0.0000000000000000e+00 0.0000000000000000e+00  4.7114701825907424e-01 0.0000000000000000e+00 0.0000000000000000e+00  4.7114701825907424e-01 0.0000000000000000e+00 0.0000000000000000e+00  3.3201176166130147e-01 -4.8551845535849358e-08 -4.8551845524990839e-08  3.1581935840859848e-01 -4.3368145374923681e-08 -4.3796839076862645e-08  3.1581929096897676e-01 0.0000000000000000e+00 0.0000000000000000e+00  3.3201169227365473e-01 0.0000000000000000e+00 0.0000000000000000e+00  3.3201176862163750e-01 -5.6270922318761119e-08 -5.6270922302557055e-08  3.1581936502728969e-01 -5.0084336911570566e-08 -5.0731264182631623e-08  3.3201177176186164e-01 -5.9908276526225788e-08 -5.9908276504933471e-08  3.1581936803671312e-01 -5.3392792895506208e-08 -5.4021481902427971e-08  3.3201177505991736e-01 -6.2040601262320321e-08 -6.2040601259919552e-08  3.1581937117409709e-01 -5.5553458847212255e-08 -5.5955161648054719e-08  3.3201177853092301e-01 -6.2900692385586427e-08 -6.2900692377541255e-08  3.4903436691647283e-01 -5.4246030955221863e-08 -5.3749785526827272e-08  3.4903429574618416e-01 0.0000000000000000e+00 0.0000000000000000e+00  3.4903437427730361e-01 -6.2969146372392265e-08 -6.2250428212849542e-08  3.4903437758080902e-01 -6.6780089677247057e-08 -6.6159773915823512e-08  3.4903438101524759e-01 -6.8650732006127097e-08 -6.8394220710225692e-08  3.4903438453995700e-01 -6.8985990059311057e-08 -6.9232263868858467e-08  3.1581937766809526e-01 -5.6530197297706674e-08 -5.6907988434920573e-08  3.4903438774926210e-01 -6.8136656274689072e-08 -6.8891672119755907e-08  3.3201178180239166e-01 -6.2676715557595553e-08 -6.2676715562764135e-08  3.4903439039565554e-01 -6.6468656720362883e-08 -6.7647038268536803e-08  3.4903439242234346e-01 -6.4297566398425106e-08 -6.5778547956904867e-08  3.3201178682509008e-01 -5.9939509326865129e-08 -5.9939509320006055e-08  3.3201178460472364e-01 -6.1608112013932488e-08 -6.1608112016622321e-08  3.4903439389653745e-01 -6.1854190757575766e-08 -6.3526091113273830e-08  3.4903439493301081e-01 -5.9283225008375446e-08 -6.1068030823723425e-08  3.4903439563379418e-01 -5.6661780613442844e-08 -5.8523225999673462e-08  3.6692973951709379e-01 -6.0519246488762171e-08 -5.9360126508041167e-08  3.6692966676192440e-01 0.0000000000000000e+00 0.0000000000000000e+00  3.6692974739513451e-01 -7.0184763578145518e-08 -6.8555312013097883e-08  3.6692975091958768e-01 -7.3871861144152011e-08 -7.256821