<?xml version="1.0"?>
<VTKFile type="UnstructuredGrid"  version="0.1"  >
<UnstructuredGrid>
<Piece  NumberOfPoints="212" NumberOfCells="736">
<Points>
<DataArray  type="Float64"  NumberOfComponents="3"  format="ascii">0 0 0.4  0 0 0.5  0.1 0 0.5  0.1 0.1 0.5  0 0.1 0.5  0.1 0.1 0.6  0.1 0 0.6  0 0 0.6  0 0.1 0.6  0.2 0 0.5  0.2 0.1 0.5  0.2 0.1 0.6  0.2 0 0.6  0.3 0 0.5  0.3 0.1 0.5  0.3 0.1 0.6  0.3 0 0.6  0.4 0 0.5  0.4 0.1 0.5  0.4 0.1 0.6  0.4 0 0.6  0.5 0 0.5  0.5 0.1 0.5  0.5 0.1 0.6  0.5 0 0.6  0.1 0.2 0.5  0.1 0.2 0.6  0 0.2 0.5  0 0.2 0.6  0.2 0.2 0.5  0.2 0.2 0.6  0.3 0.2 0.5  0.3 0.2 0.6  0.4 0.2 0.5  0.4 0.2 0.6  0.5 0.2 0.5  0.5 0.2 0.6  0.1 0.3 0.5  0.1 0.3 0.6  0 0.3 0.5  0 0.3 0.6  0.2 0.3 0.5  0.2 0.3 0.6  0.3 0.3 0.5  0.3 0.3 0.6  0.4 0.3 0.5  0.4 0.3 0.6  0.5 0.3 0.5  0.5 0.3 0.6  0.1 0.4 0.5  0.1 0.4 0.6  0 0.4 0.6  0.2 0.4 0.5  0.2 0.4 0.6  0.3 0.4 0.5  0.3 0.4 0.6  0.4 0.4 0.5  0.4 0.4 0.6  0.5 0.4 0.5  0.5 0.4 0.6  0.2 0.5 0.5  0.2 0.5 0.6  0.3 0.5 0.5  0.3 0.5 0.6  0.4 0.5 0.5  0.4 0.5 0.6  0.5 0.5 0.5  0.5 0.5 0.6  0.1 0.1 0.7  0.1 0 0.7  0 0 0.7  0 0.1 0.7  0.2 0.1 0.7  0.2 0 0.7  0.3 0.1 0.7  0.3 0 0.7  0.4 0.1 0.7  0.4 0 0.7  0.5 0.1 0.7  0.5 0 0.7  0.1 0.2 0.7  0 0.2 0.7  0.2 0.2 0.7  0.3 0.2 0.7  0.4 0.2 0.7  0.5 0.2 0.7  0.1 0.3 0.7  0 0.3 0.7  0.2 0.3 0.7  0.3 0.3 0.7  0.4 0.3 0.7  0.5 0.3 0.7  0.1 0.4 0.7  0 0.4 0.7  0.2 0.4 0.7  0.3 0.4 0.7  0.4 0.4 0.7  0.5 0.4 0.7  0.1 0.5 0.7  0 0.5 0.7  0.2 0.5 0.7  0.3 0.5 0.7  0.4 0.5 0.7  0.5 0.5 0.7  0.1 0.1 0.8  0.1 0 0.8  0 0 0.8  0 0.1 0.8  0.2 0.1 0.8  0.2 0 0.8  0.3 0.1 0.8  0.3 0 0.8  0.4 0.1 0.8  0.4 0 0.8  0.5 0.1 0.8  0.5 0 0.8  0.1 0.2 0.8  0 0.2 0.8  0.2 0.2 0.8  0.3 0.2 0.8  0.4 0.2 0.8  0.5 0.2 0.8  0.1 0.3 0.8  0 0.3 0.8  0.2 0.3 0.8  0.3 0.3 0.8  0.4 0.3 0.8  0.5 0.3 0.8  0.1 0.4 0.8  0 0.4 0.8  0.2 0.4 0.8  0.3 0.4 0.8  0.4 0.4 0.8  0.5 0.4 0.8  0.1 0.5 0.8  0 0.5 0.8  0.2 0.5 0.8  0.3 0.5 0.8  0.4 0.5 0.8  0.5 0.5 0.8  0.1 0.1 0.9  0.1 0 0.9  0 0 0.9  0 0.1 0.9  0.2 0.1 0.9  0.2 0 0.9  0.3 0.1 0.9  0.3 0 0.9  0.4 0.1 0.9  0.4 0 0.9  0.5 0.1 0.9  0.5 0 0.9  0.1 0.2 0.9  0 0.2 0.9  0.2 0.2 0.9  0.3 0.2 0.9  0.4 0.2 0.9  0.5 0.2 0.9  0.1 0.3 0.9  0 0.3 0.9  0.2 0.3 0.9  0.3 0.3 0.9  0.4 0.3 0.9  0.5 0.3 0.9  0.1 0.4 0.9  0 0.4 0.9  0.2 0.4 0.9  0.3 0.4 0.9  0.4 0.4 0.9  0.5 0.4 0.9  0.1 0.5 0.9  0 0.5 0.9  0.2 0.5 0.9  0.3 0.5 0.9  0.4 0.5 0.9  0.5 0.5 0.9  0.1 0.1 1  0.1 0 1  0 0 1  0 0.1 1  0.2 0.1 1  0.2 0 1  0.3 0.1 1  0.3 0 1  0.4 0.1 1  0.4 0 1  0.5 0.1 1  0.5 0 1  0.1 0.2 1  0 0.2 1  0.2 0.2 1  0.3 0.2 1  0.4 0.2 1  0.5 0.2 1  0.1 0.3 1  0 0.3 1  0.2 0.3 1  0.3 0.3 1  0.4 0.3 1  0.5 0.3 1  0.1 0.4 1  0 0.4 1  0.2 0.4 1  0.3 0.4 1  0.4 0.4 1  0.5 0.4 1  0.1 0.5 1  0 0.5 1  0.2 0.5 1  0.3 0.5 1  0.4 0.5 1  0.5 0.5 1  </DataArray>
</Points>
<Cells>
<DataArray  type="UInt32"  Name="connectivity"  format="ascii">0 1 2 3  0 1 4 3  1 2 3 5  1 2 6 5  1 7 6 5  1 4 3 5  1 7 8 5  1 4 8 5  2 9 10 11  2 9 12 11  2 6 12 11  2 3 10 11  2 6 5 11  2 3 5 11  9 13 14 15  9 13 16 15  9 12 16 15  9 10 14 15  9 12 11 15  9 10 11 15  13 17 18 19  13 17 20 19  13 16 20 19  13 14 18 19  13 16 15 19  13 14 15 19  17 21 22 23  17 21 24 23  17 20 24 23  17 18 22 23  17 20 19 23  17 18 19 23  4 3 25 26  4 3 5 26  4 8 5 26  4 27 25 26  4 8 28 26  4 27 28 26  3 10 29 30  3 10 11 30  3 5 11 30  3 25 29 30  3 5 26 30  3 25 26 30  10 14 31 32  10 14 15 32  10 11 15 32  10 29 31 32  10 11 30 32  10 29 30 32  14 18 33 34  14 18 19 34  14 15 19 34  14 31 33 34  14 15 32 34  14 31 32 34  18 22 35 36  18 22 23 36  18 19 23 36  18 33 35 36  18 19 34 36  18 33 34 36  27 25 37 38  27 25 26 38  27 28 26 38  27 39 37 38  27 28 40 38  27 39 40 38  25 29 41 42  25 29 30 42  25 26 30 42  25 37 41 42  25 26 38 42  25 37 38 42  29 31 43 44  29 31 32 44  29 30 32 44  29 41 43 44  29 30 42 44  29 41 42 44  31 33 45 46  31 33 34 46  31 32 34 46  31 43 45 46  31 32 44 46  31 43 44 46  33 35 47 48  33 35 36 48  33 34 36 48  33 45 47 48  33 34 46 48  33 45 46 48  39 37 49 50  39 37 38 50  39 40 38 50  39 40 51 50  37 41 52 53  37 41 42 53  37 38 42 53  37 49 52 53  37 38 50 53  37 49 50 53  41 43 54 55  41 43 44 55  41 42 44 55  41 52 54 55  41 42 53 55  41 52 53 55  43 45 56 57  43 45 46 57  43 44 46 57  43 54 56 57  43 44 55 57  43 54 55 57  45 47 58 59  45 47 48 59  45 46 48 59  45 56 58 59  45 46 57 59  45 56 57 59  49 52 60 61  49 52 53 61  49 50 53 61  52 54 62 63  52 54 55 63  52 53 55 63  52 60 62 63  52 53 61 63  52 60 61 63  54 56 64 65  54 56 57 65  54 55 57 65  54 62 64 65  54 55 63 65  54 62 63 65  56 58 66 67  56 58 59 67  56 57 59 67  56 64 66 67  56 57 65 67  56 64 65 67  7 6 5 68  7 6 69 68  7 70 69 68  7 8 5 68  7 70 71 68  7 8 71 68  6 12 11 72  6 12 73 72  6 69 73 72  6 5 11 72  6 69 68 72  6 5 68 72  12 16 15 74  12 16 75 74  12 73 75 74  12 11 15 74  12 73 72 74  12 11 72 74  16 20 19 76  16 20 77 76  16 75 77 76  16 15 19 76  16 75 74 76  16 15 74 76  20 24 23 78  20 24 79 78  20 77 79 78  20 19 23 78  20 77 76 78  20 19 76 78  8 5 26 80  8 5 68 80  8 71 68 80  8 28 26 80  8 71 81 80  8 28 81 80  5 11 30 82  5 11 72 82  5 68 72 82  5 26 30 82  5 68 80 82  5 26 80 82  11 15 32 83  11 15 74 83  11 72 74 83  11 30 32 83  11 72 82 83  11 30 82 83  15 19 34 84  15 19 76 84  15 74 76 84  15 32 34 84  15 74 83 84  15 32 83 84  19 23 36 85  19 23 78 85  19 76 78 85  19 34 36 85  19 76 84 85  19 34 84 85  28 26 38 86  28 26 80 86  28 81 80 86  28 40 38 86  28 81 87 86  28 40 87 86  26 30 42 88  26 30 82 88  26 80 82 88  26 38 42 88  26 80 86 88  26 38 86 88  30 32 44 89  30 32 83 89  30 82 83 89  30 42 44 89  30 82 88 89  30 42 88 89  32 34 46 90  32 34 84 90  32 83 84 90  32 44 46 90  32 83 89 90  32 44 89 90  34 36 48 91  34 36 85 91  34 84 85 91  34 46 48 91  34 84 90 91  34 46 90 91  40 38 50 92  40 38 86 92  40 87 86 92  40 51 50 92  40 87 93 92  40 51 93 92  38 42 53 94  38 42 88 94  38 86 88 94  38 50 53 94  38 86 92 94  38 50 92 94  42 44 55 95  42 44 89 95  42 88 89 95  42 53 55 95  42 88 94 95  42 53 94 95  44 46 57 96  44 46 90 96  44 89 90 96  44 55 57 96  44 89 95 96  44 55 95 96  46 48 59 97  46 48 91 97  46 90 91 97  46 57 59 97  46 90 96 97  46 57 96 97  51 50 92 98  51 93 92 98  51 93 99 98  50 53 61 100  50 53 94 100  50 92 94 100  50 92 98 100  53 55 63 101  53 55 95 101  53 94 95 101  53 61 63 101  53 94 100 101  53 61 100 101  55 57 65 102  55 57 96 102  55 95 96 102  55 63 65 102  55 95 101 102  55 63 101 102  57 59 67 103  57 59 97 103  57 96 97 103  57 65 67 103  57 96 102 103  57 65 102 103  70 69 68 104  70 69 105 104  70 106 105 104  70 71 68 104  70 106 107 104  70 71 107 104  69 73 72 108  69 73 109 108  69 105 109 108  69 68 72 108  69 105 104 108  69 68 104 108  73 75 74 110  73 75 111 110  73 109 111 110  73 72 74 110  73 109 108 110  73 72 108 110  75 77 76 112  75 77 113 112  75 111 113 112  75 74 76 112  75 111 110 112  75 74 110 112  77 79 78 114  77 79 115 114  77 113 115 114  77 76 78 114  77 113 112 114  77 76 112 114  71 68 80 116  71 68 104 116  71 107 104 116  71 81 80 116  71 107 117 116  71 81 117 116  68 72 82 118  68 72 108 118  68 104 108 118  68 80 82 118  68 104 116 118  68 80 116 118  72 74 83 119  72 74 110 119  72 108 110 119  72 82 83 119  72 108 118 119  72 82 118 119  74 76 84 120  74 76 112 120  74 110 112 120  74 83 84 120  74 110 119 120  74 83 119 120  76 78 85 121  76 78 114 121  76 112 114 121  76 84 85 121  76 112 120 121  76 84 120 121  81 80 86 122  81 80 116 122  81 117 116 122  81 87 86 122  81 117 123 122  81 87 123 122  80 82 88 124  80 82 118 124  80 116 118 124  80 86 88 124  80 116 122 124  80 86 122 124  82 83 89 125  82 83 119 125  82 118 119 125  82 88 89 125  82 118 124 125  82 88 124 125  83 84 90 126  83 84 120 126  83 119 120 126  83 89 90 126  83 119 125 126  83 89 125 126  84 85 91 127  84 85 121 127  84 120 121 127  84 90 91 127  84 120 126 127  84 90 126 127  87 86 92 128  87 86 122 128  87 123 122 128  87 93 92 128  87 123 129 128  87 93 129 128  86 88 94 130  86 88 124 130  86 122 124 130  86 92 94 130  86 122 128 130  86 92 128 130  88 89 95 131  88 89 125 131  88 124 125 131  88 94 95 131  88 124 130 131  88 94 130 131  89 90 96 132  89 90 126 132  89 125 126 132  89 95 96 132  89 125 131 132  89 95 131 132  90 91 97 133  90 91 127 133  90 126 127 133  90 96 97 133  90 126 132 133  90 96 132 133  93 92 98 134  93 92 128 134  93 129 128 134  93 99 98 134  93 129 135 134  93 99 135 134  92 94 100 136  92 94 130 136  92 128 130 136  92 98 100 136  92 128 134 136  92 98 134 136  94 95 101 137  94 95 131 137  94 130 131 137  94 100 101 137  94 130 136 137  94 100 136 137  95 96 102 138  95 96 132 138  95 131 132 138  95 101 102 138  95 131 137 138  95 101 137 138  96 97 103 139  96 97 133 139  96 132 133 139  96 102 103 139  96 132 138 139  96 102 138 139  106 105 104 140  106 105 141 140  106 142 141 140  106 107 104 140  106 142 143 140  106 107 143 140  105 109 108 144  105 109 145 144  105 141 145 144  105 104 108 144  105 141 140 144  105 104 140 144  109 111 110 146  109 111 147 146  109 145 147 146  109 108 110 146  109 145 144 146  109 108 144 146  111 113 112 148  111 113 149 148  111 147 149 148  111 110 112 148  111 147 146 148  111 110 146 148  113 115 114 150  113 115 151 150  113 149 151 150  113 112 114 150  113 149 148 150  113 112 148 150  107 104 116 152  107 104 140 152  107 143 140 152  107 117 116 152  107 143 153 152  107 117 153 152  104 108 118 154  104 108 144 154  104 140 144 154  104 116 118 154  104 140 152 154  104 116 152 154  108 110 119 155  108 110 146 155  108 144 146 155  108 118 119 155  108 144 154 155  108 118 154 155  110 112 120 156  110 112 148 156  110 146 148 156  110 119 120 156  110 146 155 156  110 119 155 156  112 114 121 157  112 114 150 157  112 148 150 157  112 120 121 157  112 148 156 157  112 120 156 157  117 116 122 158  117 116 152 158  117 153 152 158  117 123 122 158  117 153 159 158  117 123 159 158  116 118 124 160  116 118 154 160  116 152 154 160  116 122 124 160  116 152 158 160  116 122 158 160  118 119 125 161  118 119 155 161  118 154 155 161  118 124 125 161  118 154 160 161  118 124 160 161  119 120 126 162  119 120 156 162  119 155 156 162  119 125 126 162  119 155 161 162  119 125 161 162  120 121 127 163  120 121 157 163  120 156 157 163  120 126 127 163  120 156 162 163  120 126 162 163  123 122 128 164  123 122 158 164  123 159 158 164  123 129 128 164  123 159 165 164  123 129 165 164  122 124 130 166  122 124 160 166  122 158 160 166  122 128 130 166  122 158 164 166  122 128 164 166  124 125 131 167  124 125 161 167  124 160 161 167  124 130 131 167  124 160 166 167  124 130 166 167  125 126 132 168  125 126 162 168  125 161 162 168  125 131 132 168  125 161 167 168  125 131 167 168  126 127 133 169  126 127 163 169  126 162 163 169  126 132 133 169  126 162 168 169  126 132 168 169  129 128 134 170  129 128 164 170  129 165 164 170  129 135 134 170  129 165 171 170  129 135 171 170  128 130 136 172  128 130 166 172  128 164 166 172  128 134 136 172  128 164 170 172  128 134 170 172  130 131 137 173  130 131 167 173  130 166 167 173  130 136 137 173  130 166 172 173  130 136 172 173  131 132 138 174  131 132 168 174  131 167 168 174  131 137 138 174  131 167 173 174  131 137 173 174  132 133 139 175  132 133 169 175  132 168 169 175  132 138 139 175  132 168 174 175  132 138 174 175  142 141 140 176  142 141 177 176  142 178 177 176  142 143 140 176  142 178 179 176  142 143 179 176  141 145 144 180  141 145 181 180  141 177 181 180  141 140 144 180  141 177 176 180  141 140 176 180  145 147 146 182  145 147 183 182  145 181 183 182  145 144 146 182  145 181 180 182  145 144 180 182  147 149 148 184  147 149 185 184  147 183 185 184  147 146 148 184  147 183 182 184  147 146 182 184  149 151 150 186  149 151 187 186  149 185 187 186  149 148 150 186  149 185 184 186  149 148 184 186  143 140 152 188  143 140 176 188  143 179 176 188  143 153 152 188  143 179 189 188  143 153 189 188  140 144 154 190  140 144 180 190  140 176 180 190  140 152 154 190  140 176 188 190  140 152 188 190  144 146 155 191  144 146 182 191  144 180 182 191  144 154 155 191  144 180 190 191  144 154 190 191  146 148 156 192  146 148 184 192  146 182 184 192  146 155 156 192  146 182 191 192  146 155 191 192  148 150 157 193  148 150 186 193  148 184 186 193  148 156 157 193  148 184 192 193  148 156 192 193  153 152 158 194  153 152 188 194  153 189 188 194  153 159 158 194  153 189 195 194  153 159 195 194  152 154 160 196  152 154 190 196  152 188 190 196  152 158 160 196  152 188 194 196  152 158 194 196  154 155 161 197  154 155 191 197  154 190 191 197  154 160 161 197  154 190 196 197  154 160 196 197  155 156 162 198  155 156 192 198  155 191 192 198  155 161 162 198  155 191 197 198  155 161 197 198  156 157 163 199  156 157 193 199  156 192 193 199  156 162 163 199  156 192 198 199  156 162 198 199  159 158 164 200  159 158 194 200  159 195 194 200  159 165 164 200  159 195 201 200  159 165 201 200  158 160 166 202  158 160 196 202  158 194 196 202  158 164 166 202  158 194 200 202  158 164 200 202  160 161 167 203  160 161 197 203  160 196 197 203  160 166 167 203  160 196 202 203  160 166 202 203  161 162 168 204  161 162 198 204  161 197 198 204  161 167 168 204  161 197 203 204  161 167 203 204  162 163 169 205  162 163 199 205  162 198 199 205  162 168 169 205  162 198 204 205  162 168 204 205  165 164 170 206  165 164 200 206  165 201 200 206  165 171 170 206  165 201 207 206  165 171 207 206  164 166 172 208  164 166 202 208  164 200 202 208  164 170 172 208  164 200 206 208  164 170 206 208  166 167 173 209  166 167 203 209  166 202 203 209  166 172 173 209  166 202 208 209  166 172 208 209  167 168 174 210  167 168 204 210  167 203 204 210  167 173 174 210  167 203 209 210  167 173 209 210  168 169 175 211  168 169 205 211  168 204 205 211  168 174 175 211  168 204 210 211  168 174 210 211  </DataArray>
<DataArray  type="UInt32"  Name="offsets"  format="ascii">4 8 12 16 20 24 28 32 36 40 44 48 52 56 60 64 68 72 76 80 84 88 92 96 100 104 108 112 116 120 124 128 132 136 140 144 148 152 156 160 164 168 172 176 180 184 188 192 196 200 204 208 212 216 220 224 228 232 236 240 244 248 252 256 260 264 268 272 276 280 284 288 292 296 300 304 308 312 316 320 324 328 332 336 340 344 348 352 356 360 364 368 372 376 380 384 388 392 396 400 404 408 412 416 420 424 428 432 436 440 444 448 452 456 460 464 468 472 476 480 484 488 492 496 500 504 508 512 516 520 524 528 532 536 540 544 548 552 556 560 564 568 572 576 580 584 588 592 596 600 604 608 612 616 620 624 628 632 636 640 644 648 652 656 660 664 668 672 676 680 684 688 692 696 700 704 708 712 716 720 724 728 732 736 740 744 748 752 756 760 764 768 772 776 780 784 788 792 796 800 804 808 812 816 820 824 828 832 836 840 844 848 852 856 860 864 868 872 876 880 884 888 892 896 900 904 908 912 916 920 924 928 932 936 940 944 948 952 956 960 964 968 972 976 980 984 988 992 996 1000 1004 1008 1012 1016 1020 1024 1028 1032 1036 1040 1044 1048 1052 1056 1060 1064 1068 1072 1076 1080 1084 1088 1092 1096 1100 1104 1108 1112 1116 1120 1124 1128 1132 1136 1140 1144 1148 1152 1156 1160 1164 1168 1172 1176 1180 1184 1188 1192 1196 1200 1204 1208 1212 1216 1220 1224 1228 1232 1236 1240 1244 1248 1252 1256 1260 1264 1268 1272 1276 1280 1284 1288 1292 1296 1300 1304 1308 1312 1316 1320 1324 1328 1332 1336 1340 1344 1348 1352 1356 1360 1364 1368 1372 1376 1380 1384 1388 1392 1396 1400 1404 1408 1412 1416 1420 1424 1428 1432 1436 1440 1444 1448 1452 1456 1460 1464 1468 1472 1476 1480 1484 1488 1492 1496 1500 1504 1508 1512 1516 1520 1524 1528 1532 1536 1540 1544 1548 1552 1556 1560 1564 1568 1572 1576 1580 1584 1588 1592 1596 1600 1604 1608 1612 1616 1620 1624 1628 1632 1636 1640 1644 1648 1652 1656 1660 1664 1668 1672 1676 1680 1684 1688 1692 1696 1700 1704 1708 1712 1716 1720 1724 1728 1732 1736 1740 1744 1748 1752 1756 1760 1764 1768 1772 1776 1780 1784 1788 1792 1796 1800 1804 1808 1812 1816 1820 1824 1828 1832 1836 1840 1844 1848 1852 1856 1860 1864 1868 1872 1876 1880 1884 1888 1892 1896 1900 1904 1908 1912 1916 1920 1924 1928 1932 1936 1940 1944 1948 1952 1956 1960 1964 1968 1972 1976 1980 1984 1988 1992 1996 2000 2004 2008 2012 2016 2020 2024 2028 2032 2036 2040 2044 2048 2052 2056 2060 2064 2068 2072 2076 2080 2084 2088 2092 2096 2100 2104 2108 2112 2116 2120 2124 2128 2132 2136 2140 2144 2148 2152 2156 2160 2164 2168 2172 2176 2180 2184 2188 2192 2196 2200 2204 2208 2212 2216 2220 2224 2228 2232 2236 2240 2244 2248 2252 2256 2260 2264 2268 2272 2276 2280 2284 2288 2292 2296 2300 2304 2308 2312 2316 2320 2324 2328 2332 2336 2340 2344 2348 2352 2356 2360 2364 2368 2372 2376 2380 2384 2388 2392 2396 2400 2404 2408 2412 2416 2420 2424 2428 2432 2436 2440 2444 2448 2452 2456 2460 2464 2468 2472 2476 2480 2484 2488 2492 2496 2500 2504 2508 2512 2516 2520 2524 2528 2532 2536 2540 2544 2548 2552 2556 2560 2564 2568 2572 2576 2580 2584 2588 2592 2596 2600 2604 2608 2612 2616 2620 2624 2628 2632 2636 2640 2644 2648 2652 2656 2660 2664 2668 2672 2676 2680 2684 2688 2692 2696 2700 2704 2708 2712 2716 2720 2724 2728 2732 2736 2740 2744 2748 2752 2756 2760 2764 2768 2772 2776 2780 2784 2788 2792 2796 2800 2804 2808 2812 2816 2820 2824 2828 2832 2836 2840 2844 2848 2852 2856 2860 2864 2868 2872 2876 2880 2884 2888 2892 2896 2900 2904 2908 2912 2916 2920 2924 2928 2932 2936 2940 2944 </DataArray>
<DataArray  type="UInt8"  Name="types"  format="ascii">10 10 10 10 10 10 10 10 10 10 10 10 10 10 10 10 10 10 10 10 10 10 10 10 10 10 10 10 10 10 10 10 10 10 10 10 10 10 10 10 10 10 10 10 10 10 10 10 10 10 10 10 10 10 10 10 10 10 10 10 10 10 10 10 10 10 10 10 10 10 10 10 10 10 10 10 10 10 10 10 10 10 10 10 10 10 10 10 10 10 10 10 10 10 10 10 10 10 10 10 10 10 10 10 10 10 10 10 10 10 10 10 10 10 10 10 10 10 10 10 10 10 10 10 10 10 10 10 10 10 10 10 10 10 10 10 10 10 10 10 10 10 10 10 10 10 10 10 10 10 10 10 10 10 10 10 10 10 10 10 10 10 10 10 10 10 10 10 10 10 10 10 10 10 10 10 10 10 10 10 10 10 10 10 10 10 10 10 10 10 10 10 10 10 10 10 10 10 10 10 10 10 10 10 10 10 10 10 10 10 10 10 10 10 10 10 10 10 10 10 10 10 10 10 10 10 10 10 10 10 10 10 10 10 10 10 10 10 10 10 10 10 10 10 10 10 10 10 10 10 10 10 10 10 10 10 10 10 10 10 10 10 10 10 10 10 10 10 10 10 10 10 10 10 10 10 10 10 10 10 10 10 10 10 10 10 10 10 10 10 10 10 10 10 10 10 10 10 10 10 10 10 10 10 10 10 10 10 10 10 10 10 10 10 10 10 10 10 10 10 10 10 10 10 10 10 10 10 10 10 10 10 10 10 10 10 10 10 10 10 10 10 10 10 10 10 10 10 10 10 10 10 10 10 10 10 10 10 10 10 10 10 10 10 10 10 10 10 10 10 10 10 10 10 10 10 10 10 10 10 10 10 10 10 10 10 10 10 10 10 10 10 10 10 10 10 10 10 10 10 10 10 10 10 10 10 10 10 10 10 10 10 10 10 10 10 10 10 10 10 10 10 10 10 10 10 10 10 10 10 10 10 10 10 10 10 10 10 10 10 10 10 10 10 10 10 10 10 10 10 10 10 10 10 10 10 10 10 10 10 10 10 10 10 10 10 10 10 10 10 10 10 10 10 10 10 10 10 10 10 10 10 10 10 10 10 10 10 10 10 10 10 10 10 10 10 10 10 10 10 10 10 10 10 10 10 10 10 10 10 10 10 10 10 10 10 10 10 10 10 10 10 10 10 10 10 10 10 10 10 10 10 10 10 10 10 10 10 10 10 10 10 10 10 10 10 10 10 10 10 10 10 10 10 10 10 10 10 10 10 10 10 10 10 10 10 10 10 10 10 10 10 10 10 10 10 10 10 10 10 10 10 10 10 10 10 10 10 10 10 10 10 10 10 10 10 10 10 10 10 10 10 10 10 10 10 10 10 10 10 10 10 10 10 10 10 10 10 10 10 10 10 10 10 10 10 10 10 10 10 10 10 10 10 10 10 10 10 10 10 10 10 10 10 10 10 10 10 10 10 10 10 10 10 10 10 10 10 10 10 10 10 10 10 10 10 10 10 10 10 10 10 10 10 10 10 10 10 10 10 10 10 10 10 10 10 10 10 10 10 10 10 10 10 10 10 10 10 10 10 10 10 10 10 10 10 10 10 10 10 10 10 10 10 10 10 10 10 10 10 10 10 10 10 10 10 10 10 10 10 10 10 10 10 10 10 </DataArray>
</Cells>
<PointData  Vectors="f_8-0"> 