<?xml version="1.0"?>
<VTKFile type="UnstructuredGrid"  version="0.1"  >
<UnstructuredGrid>
<Piece  NumberOfPoints="220" NumberOfCells="773">
<Points>
<DataArray  type="Float64"  NumberOfComponents="3"  format="ascii">0 0.4 0  0 0.5 0  0.1 0.5 0  0.1 0.5 0.1  0 0.5 0.1  0.1 0.6 0  0.1 0.6 0.1  0 0.6 0  0 0.6 0.1  0.2 0.5 0  0.2 0.6 0  0.2 0.6 0.1  0.2 0.5 0.1  0.3 0.5 0  0.3 0.6 0  0.3 0.6 0.1  0.3 0.5 0.1  0.4 0.5 0  0.4 0.6 0  0.4 0.6 0.1  0.4 0.5 0.1  0.5 0.6 0  0.5 0.6 0.1  0.1 0.7 0  0.1 0.7 0.1  0 0.7 0  0 0.7 0.1  0.2 0.7 0  0.2 0.7 0.1  0.3 0.7 0  0.3 0.7 0.1  0.4 0.7 0  0.4 0.7 0.1  0.5 0.7 0  0.5 0.7 0.1  0.1 0.8 0  0.1 0.8 0.1  0 0.8 0  0 0.8 0.1  0.2 0.8 0  0.2 0.8 0.1  0.3 0.8 0  0.3 0.8 0.1  0.4 0.8 0  0.4 0.8 0.1  0.5 0.8 0  0.5 0.8 0.1  0.1 0.9 0  0.1 0.9 0.1  0 0.9 0  0 0.9 0.1  0.2 0.9 0  0.2 0.9 0.1  0.3 0.9 0  0.3 0.9 0.1  0.4 0.9 0  0.4 0.9 0.1  0.5 0.9 0  0.5 0.9 0.1  0.1 1 0  0.1 1 0.1  0 1 0  0 1 0.1  0.2 1 0  0.2 1 0.1  0.3 1 0  0.3 1 0.1  0.4 1 0  0.4 1 0.1  0.5 1 0  0.5 1 0.1  0.1 0.6 0.2  0.1 0.5 0.2  0 0.5 0.2  0 0.6 0.2  0.2 0.6 0.2  0.2 0.5 0.2  0.3 0.6 0.2  0.3 0.5 0.2  0.4 0.6 0.2  0.4 0.5 0.2  0.5 0.6 0.2  0.1 0.7 0.2  0 0.7 0.2  0.2 0.7 0.2  0.3 0.7 0.2  0.4 0.7 0.2  0.5 0.7 0.2  0.1 0.8 0.2  0 0.8 0.2  0.2 0.8 0.2  0.3 0.8 0.2  0.4 0.8 0.2  0.5 0.8 0.2  0.1 0.9 0.2  0 0.9 0.2  0.2 0.9 0.2  0.3 0.9 0.2  0.4 0.9 0.2  0.5 0.9 0.2  0.1 1 0.2  0 1 0.2  0.2 1 0.2  0.3 1 0.2  0.4 1 0.2  0.5 1 0.2  0.1 0.6 0.3  0.1 0.5 0.3  0 0.5 0.3  0 0.6 0.3  0.2 0.6 0.3  0.2 0.5 0.3  0.3 0.6 0.3  0.3 0.5 0.3  0.4 0.6 0.3  0.4 0.5 0.3  0.5 0.6 0.3  0.1 0.7 0.3  0 0.7 0.3  0.2 0.7 0.3  0.3 0.7 0.3  0.4 0.7 0.3  0.5 0.7 0.3  0.1 0.8 0.3  0 0.8 0.3  0.2 0.8 0.3  0.3 0.8 0.3  0.4 0.8 0.3  0.5 0.8 0.3  0.1 0.9 0.3  0 0.9 0.3  0.2 0.9 0.3  0.3 0.9 0.3  0.4 0.9 0.3  0.5 0.9 0.3  0.1 1 0.3  0 1 0.3  0.2 1 0.3  0.3 1 0.3  0.4 1 0.3  0.5 1 0.3  0.1 0.6 0.4  0.1 0.5 0.4  0 0.5 0.4  0 0.6 0.4  0.2 0.6 0.4  0.2 0.5 0.4  0.3 0.6 0.4  0.3 0.5 0.4  0.4 0.6 0.4  0.4 0.5 0.4  0.5 0.6 0.4  0.1 0.7 0.4  0 0.7 0.4  0.2 0.7 0.4  0.3 0.7 0.4  0.4 0.7 0.4  0.5 0.7 0.4  0.1 0.8 0.4  0 0.8 0.4  0.2 0.8 0.4  0.3 0.8 0.4  0.4 0.8 0.4  0.5 0.8 0.4  0.1 0.9 0.4  0 0.9 0.4  0.2 0.9 0.4  0.3 0.9 0.4  0.4 0.9 0.4  0.5 0.9 0.4  0.1 1 0.4  0 1 0.4  0.2 1 0.4  0.3 1 0.4  0.4 1 0.4  0.5 1 0.4  0.1 0.6 0.5  0.1 0.5 0.5  0 0.5 0.5  0 0.6 0.5  0.2 0.6 0.5  0.3 0.6 0.5  0.4 0.6 0.5  0.5 0.6 0.5  0.1 0.7 0.5  0 0.7 0.5  0.2 0.7 0.5  0.3 0.7 0.5  0.4 0.7 0.5  0.5 0.7 0.5  0.1 0.8 0.5  0 0.8 0.5  0.2 0.8 0.5  0.3 0.8 0.5  0.4 0.8 0.5  0.5 0.8 0.5  0.1 0.9 0.5  0 0.9 0.5  0.2 0.9 0.5  0.3 0.9 0.5  0.4 0.9 0.5  0.5 0.9 0.5  0.1 1 0.5  0 1 0.5  0.2 1 0.5  0.3 1 0.5  0.4 1 0.5  0.5 1 0.5  0.1 0.9 0.6  0 0.9 0.6  0.2 0.9 0.6  0.3 0.9 0.6  0.4 0.9 0.6  0.5 0.9 0.6  0.1 1 0.6  0 1 0.6  0.2 1 0.6  0.3 1 0.6  0.4 1 0.6  0.5 1 0.6  </DataArray>
</Points>
<Cells>
<DataArray  type="UInt32"  Name="connectivity"  format="ascii">0 1 2 3  0 1 4 3  1 2 5 6  1 2 3 6  1 4 3 6  1 7 5 6  1 4 8 6  1 7 8 6  2 9 10 11  2 9 12 11  2 3 12 11  2 5 10 11  2 3 6 11  2 5 6 11  9 13 14 15  9 13 16 15  9 12 16 15  9 10 14 15  9 12 11 15  9 10 11 15  13 17 18 19  13 17 20 19  13 16 20 19  13 14 18 19  13 16 15 19  13 14 15 19  17 18 21 22  17 20 19 22  17 18 19 22  7 5 23 24  7 5 6 24  7 8 6 24  7 25 23 24  7 8 26 24  7 25 26 24  5 10 27 28  5 10 11 28  5 6 11 28  5 23 27 28  5 6 24 28  5 23 24 28  10 14 29 30  10 14 15 30  10 11 15 30  10 27 29 30  10 11 28 30  10 27 28 30  14 18 31 32  14 18 19 32  14 15 19 32  14 29 31 32  14 15 30 32  14 29 30 32  18 21 33 34  18 21 22 34  18 19 22 34  18 31 33 34  18 19 32 34  18 31 32 34  25 23 35 36  25 23 24 36  25 26 24 36  25 37 35 36  25 26 38 36  25 37 38 36  23 27 39 40  23 27 28 40  23 24 28 40  23 35 39 40  23 24 36 40  23 35 36 40  27 29 41 42  27 29 30 42  27 28 30 42  27 39 41 42  27 28 40 42  27 39 40 42  29 31 43 44  29 31 32 44  29 30 32 44  29 41 43 44  29 30 42 44  29 41 42 44  31 33 45 46  31 33 34 46  31 32 34 46  31 43 45 46  31 32 44 46  31 43 44 46  37 35 47 48  37 35 36 48  37 38 36 48  37 49 47 48  37 38 50 48  37 49 50 48  35 39 51 52  35 39 40 52  35 36 40 52  35 47 51 52  35 36 48 52  35 47 48 52  39 41 53 54  39 41 42 54  39 40 42 54  39 51 53 54  39 40 52 54  39 51 52 54  41 43 55 56  41 43 44 56  41 42 44 56  41 53 55 56  41 42 54 56  41 53 54 56  43 45 57 58  43 45 46 58  43 44 46 58  43 55 57 58  43 44 56 58  43 55 56 58  49 47 59 60  49 47 48 60  49 50 48 60  49 61 59 60  49 50 62 60  49 61 62 60  47 51 63 64  47 51 52 64  47 48 52 64  47 59 63 64  47 48 60 64  47 59 60 64  51 53 65 66  51 53 54 66  51 52 54 66  51 63 65 66  51 52 64 66  51 63 64 66  53 55 67 68  53 55 56 68  53 54 56 68  53 65 67 68  53 54 66 68  53 65 66 68  55 57 69 70  55 57 58 70  55 56 58 70  55 67 69 70  55 56 68 70  55 67 68 70  4 3 6 71  4 3 72 71  4 73 72 71  4 8 6 71  4 73 74 71  4 8 74 71  3 12 11 75  3 12 76 75  3 72 76 75  3 6 11 75  3 72 71 75  3 6 71 75  12 16 15 77  12 16 78 77  12 76 78 77  12 11 15 77  12 76 75 77  12 11 75 77  16 20 19 79  16 20 80 79  16 78 80 79  16 15 19 79  16 78 77 79  16 15 77 79  20 19 22 81  20 80 79 81  20 19 79 81  8 6 24 82  8 6 71 82  8 74 71 82  8 26 24 82  8 74 83 82  8 26 83 82  6 11 28 84  6 11 75 84  6 71 75 84  6 24 28 84  6 71 82 84  6 24 82 84  11 15 30 85  11 15 77 85  11 75 77 85  11 28 30 85  11 75 84 85  11 28 84 85  15 19 32 86  15 19 79 86  15 77 79 86  15 30 32 86  15 77 85 86  15 30 85 86  19 22 34 87  19 22 81 87  19 79 81 87  19 32 34 87  19 79 86 87  19 32 86 87  26 24 36 88  26 24 82 88  26 83 82 88  26 38 36 88  26 83 89 88  26 38 89 88  24 28 40 90  24 28 84 90  24 82 84 90  24 36 40 90  24 82 88 90  24 36 88 90  28 30 42 91  28 30 85 91  28 84 85 91  28 40 42 91  28 84 90 91  28 40 90 91  30 32 44 92  30 32 86 92  30 85 86 92  30 42 44 92  30 85 91 92  30 42 91 92  32 34 46 93  32 34 87 93  32 86 87 93  32 44 46 93  32 86 92 93  32 44 92 93  38 36 48 94  38 36 88 94  38 89 88 94  38 50 48 94  38 89 95 94  38 50 95 94  36 40 52 96  36 40 90 96  36 88 90 96  36 48 52 96  36 88 94 96  36 48 94 96  40 42 54 97  40 42 91 97  40 90 91 97  40 52 54 97  40 90 96 97  40 52 96 97  42 44 56 98  42 44 92 98  42 91 92 98  42 54 56 98  42 91 97 98  42 54 97 98  44 46 58 99  44 46 93 99  44 92 93 99  44 56 58 99  44 92 98 99  44 56 98 99  50 48 60 100  50 48 94 100  50 95 94 100  50 62 60 100  50 95 101 100  50 62 101 100  48 52 64 102  48 52 96 102  48 94 96 102  48 60 64 102  48 94 100 102  48 60 100 102  52 54 66 103  52 54 97 103  52 96 97 103  52 64 66 103  52 96 102 103  52 64 102 103  54 56 68 104  54 56 98 104  54 97 98 104  54 66 68 104  54 97 103 104  54 66 103 104  56 58 70 105  56 58 99 105  56 98 99 105  56 68 70 105  56 98 104 105  56 68 104 105  73 72 71 106  73 72 107 106  73 108 107 106  73 74 71 106  73 108 109 106  73 74 109 106  72 76 75 110  72 76 111 110  72 107 111 110  72 71 75 110  72 107 106 110  72 71 106 110  76 78 77 112  76 78 113 112  76 111 113 112  76 75 77 112  76 111 110 112  76 75 110 112  78 80 79 114  78 80 115 114  78 113 115 114  78 77 79 114  78 113 112 114  78 77 112 114  80 79 81 116  80 115 114 116  80 79 114 116  74 71 82 117  74 71 106 117  74 109 106 117  74 83 82 117  74 109 118 117  74 83 118 117  71 75 84 119  71 75 110 119  71 106 110 119  71 82 84 119  71 106 117 119  71 82 117 119  75 77 85 120  75 77 112 120  75 110 112 120  75 84 85 120  75 110 119 120  75 84 119 120  77 79 86 121  77 79 114 121  77 112 114 121  77 85 86 121  77 112 120 121  77 85 120 121  79 81 87 122  79 81 116 122  79 114 116 122  79 86 87 122  79 114 121 122  79 86 121 122  83 82 88 123  83 82 117 123  83 118 117 123  83 89 88 123  83 118 124 123  83 89 124 123  82 84 90 125  82 84 119 125  82 117 119 125  82 88 90 125  82 117 123 125  82 88 123 125  84 85 91 126  84 85 120 126  84 119 120 126  84 90 91 126  84 119 125 126  84 90 125 126  85 86 92 127  85 86 121 127  85 120 121 127  85 91 92 127  85 120 126 127  85 91 126 127  86 87 93 128  86 87 122 128  86 121 122 128  86 92 93 128  86 121 127 128  86 92 127 128  89 88 94 129  89 88 123 129  89 124 123 129  89 95 94 129  89 124 130 129  89 95 130 129  88 90 96 131  88 90 125 131  88 123 125 131  88 94 96 131  88 123 129 131  88 94 129 131  90 91 97 132  90 91 126 132  90 125 126 132  90 96 97 132  90 125 131 132  90 96 131 132  91 92 98 133  91 92 127 133  91 126 127 133  91 97 98 133  91 126 132 133  91 97 132 133  92 93 99 134  92 93 128 134  92 127 128 134  92 98 99 134  92 127 133 134  92 98 133 134  95 94 100 135  95 94 129 135  95 130 129 135  95 101 100 135  95 130 136 135  95 101 136 135  94 96 102 137  94 96 131 137  94 129 131 137  94 100 102 137  94 129 135 137  94 100 135 137  96 97 103 138  96 97 132 138  96 131 132 138  96 102 103 138  96 131 137 138  96 102 137 138  97 98 104 139  97 98 133 139  97 132 133 139  97 103 104 139  97 132 138 139  97 103 138 139  98 99 105 140  98 99 134 140  98 133 134 140  98 104 105 140  98 133 139 140  98 104 139 140  108 107 106 141  108 107 142 141  108 143 142 141  108 109 106 141  108 143 144 141  108 109 144 141  107 111 110 145  107 111 146 145  107 142 146 145  107 106 110 145  107 142 141 145  107 106 141 145  111 113 112 147  111 113 148 147  111 146 148 147  111 110 112 147  111 146 145 147  111 110 145 147  113 115 114 149  113 115 150 149  113 148 150 149  113 112 114 149  113 148 147 149  113 112 147 149  115 114 116 151  115 150 149 151  115 114 149 151  109 106 117 152  109 106 141 152  109 144 141 152  109 118 117 152  109 144 153 152  109 118 153 152  106 110 119 154  106 110 145 154  106 141 145 154  106 117 119 154  106 141 152 154  106 117 152 154  110 112 120 155  110 112 147 155  110 145 147 155  110 119 120 155  110 145 154 155  110 119 154 155  112 114 121 156  112 114 149 156  112 147 149 156  112 120 121 156  112 147 155 156  112 120 155 156  114 116 122 157  114 116 151 157  114 149 151 157  114 121 122 157  114 149 156 157  114 121 156 157  118 117 123 158  118 117 152 158  118 153 152 158  118 124 123 158  118 153 159 158  1
[...]
<PointData  Vectors="f_8-0"> 
<DataArray  type="Float64"  Name="f_8-0"  NumberOfComponents="3" format="ascii">1.4918246976412705e-01 0.0000000000000000e+00 0.0000000000000000e+00  1.6487212707001284e-01 0.0000000000000000e+00 0.0000000000000000e+00  1.6487212707001284e-01 0.0000000000000000e+00 0.0000000000000000e+00  1.8634809769801705e-01 3.2185708289561589e-03 3.4142036702341314e-03  1.8221188003905089e-01 0.0000000000000000e+00 0.0000000000000000e+00  1.8221188003905089e-01 0.0000000000000000e+00 0.0000000000000000e+00  2.0532320490074374e-01 2.7875274300660836e-03 3.3411173526999385e-03  1.8221188003905089e-01 0.0000000000000000e+00 0.0000000000000000e+00  2.0137527074704767e-01 0.0000000000000000e+00 0.0000000000000000e+00  1.6487212707001284e-01 0.0000000000000000e+00 0.0000000000000000e+00  1.8221188003905089e-01 0.0000000000000000e+00 0.0000000000000000e+00  2.0657787187075288e-01 4.4363939737440952e-03 4.3940830117112552e-03  1.8767983637671212e-01 5.0719733458345186e-03 4.4303263554928808e-03  1.6487212707001284e-01 0.0000000000000000e+00 0.0000000000000000e+00  1.8221188003905089e-01 0.0000000000000000e+00 0.0000000000000000e+00  2.0674235421067319e-01 5.3889816487313544e-03 4.9277166505085485e-03  1.8784094524898115e-01 6.1540244200213737e-03 4.9431443911864374e-03  1.6487212707001284e-01 0.0000000000000000e+00 0.0000000000000000e+00  1.8221188003905089e-01 0.0000000000000000e+00 0.0000000000000000e+00  2.0638337135315632e-01 5.9432917219420563e-03 5.2144779098330834e-03  1.8739459184571308e-01 6.7888791601469680e-03 5.2202375619276042e-03  1.8221188003905089e-01 0.0000000000000000e+00 0.0000000000000000e+00  2.0571763434540111e-01 6.2667469806342172e-03 5.3658884751749307e-03  2.0137527074704767e-01 0.0000000000000000e+00 0.0000000000000000e+00  2.2609987786796173e-01 2.1097656866640433e-03 3.1864467179602029e-03  2.0137527074704767e-01 0.0000000000000000e+00 0.0000000000000000e+00  2.2255409284924677e-01 0.0000000000000000e+00 0.0000000000000000e+00  2.0137527074704767e-01 0.0000000000000000e+00 0.0000000000000000e+00  2.2716672517899564e-01 3.3767523408843292e-03 4.2297336040353706e-03  2.0137527074704767e-01 0.0000000000000000e+00 0.0000000000000000e+00  2.2727877449707160e-01 4.0606698729208834e-03 4.7337668419832404e-03  2.0137527074704767e-01 0.0000000000000000e+00 0.0000000000000000e+00  2.2699541844477605e-01 4.4381150955658541e-03 4.9909132717679740e-03  2.0137527074704767e-01 0.0000000000000000e+00 0.0000000000000000e+00  2.2650135335067934e-01 4.6682307837386779e-03 5.1292185037163989e-03  2.2255409284924679e-01 0.0000000000000000e+00 0.0000000000000000e+00  2.4879320032497018e-01 1.1795244791565497e-03 2.8728558694396094e-03  2.2255409284924679e-01 0.0000000000000000e+00 0.0000000000000000e+00  2.4596031111569500e-01 0.0000000000000000e+00 0.0000000000000000e+00  2.2255409284924679e-01 0.0000000000000000e+00 0.0000000000000000e+00  2.4953042124263536e-01 1.9317521463553188e-03 3.7748576467038753e-03  2.2255409284924679e-01 0.0000000000000000e+00 0.0000000000000000e+00  2.4954583609140041e-01 2.2682011244223831e-03 4.1434936123680667e-03  2.2255409284924679e-01 0.0000000000000000e+00 0.0000000000000000e+00  2.4933515675441931e-01 2.4327703326423094e-03 4.3091973669175882e-03  2.2255409284924679e-01 0.0000000000000000e+00 0.0000000000000000e+00  2.4901871645643078e-01 2.5485630969143552e-03 4.4021066880295416e-03  2.4596031111569500e-01 0.0000000000000000e+00 0.0000000000000000e+00  2.7349473768066257e-01 1.5106034515382290e-04 2.1286106229821272e-03  2.4596031111569500e-01 0.0000000000000000e+00 0.0000000000000000e+00  2.7182818284590454e-01 0.0000000000000000e+00 0.0000000000000000e+00  2.4596031111569500e-01 0.0000000000000000e+00 0.0000000000000000e+00  2.7376983325297982e-01 4.0153897509313319e-04 2.5605308546665373e-03  2.4596031111569500e-01 0.0000000000000000e+00 0.0000000000000000e+00  2.7370413572763386e-01 4.5587215195361865e-04 2.6692392299542660e-03  2.4596031111569500e-01 0.0000000000000000e+00 0.0000000000000000e+00  2.7357274223327888e-01 4.7747216154461015e-04 2.7016285340653438e-03  2.4596031111569500e-01 0.0000000000000000e+00 0.0000000000000000e+00  2.7341140252289758e-01 5.1024219241386072e-04 2.7278405137916434e-03  2.7182818284590454e-01 0.0000000000000000e+00 0.0000000000000000e+00  3.0041660239464335e-01 0.0000000000000000e+00 0.0000000000000000e+00  2.7182818284590454e-01 0.0000000000000000e+00 0.0000000000000000e+00  3.0041660239464335e-01 0.0000000000000000e+00 0.0000000000000000e+00  2.7182818284590454e-01 0.0000000000000000e+00 0.0000000000000000e+00  3.0041660239464335e-01 0.0000000000000000e+00 0.0000000000000000e+00  2.7182818284590454e-01 0.0000000000000000e+00 0.0000000000000000e+00  3.0041660239464335e-01 0.0000000000000000e+00 0.0000000000000000e+00  2.7182818284590454e-01 0.0000000000000000e+00 0.0000000000000000e+00  3.0041660239464335e-01 0.0000000000000000e+00 0.0000000000000000e+00  2.7182818284590454e-01 0.0000000000000000e+00 0.0000000000000000e+00  3.0041660239464335e-01 0.0000000000000000e+00 0.0000000000000000e+00  2.2750370188018851e-01 4.5282024219737487e-03 5.4158374583531850e-03  2.0656593300475556e-01 5.0561718696181873e-03 5.3489264033692516e-03  2.0137527074704767e-01 0.0000000000000000e+00 0.0000000000000000e+00  2.2255409284924679e-01 0.0000000000000000e+00 0.0000000000000000e+00  2.3012730215124780e-01 7.5234212195350262e-03 8.4387673998160551e-03  2.0929943890887126e-01 8.3148391550505844e-03 8.2369017996854008e-03  2.3102866889028376e-01 9.3233440561581362e-03 1.0065580113090748e-02  2.1018870455915722e-01 1.0287140793485085e-02 9.7869519792768093e-03  2.3096001853831805e-01 1.0381238717556956e-02 1.0982123829394553e-02  2.0997231479822301e-01 1.1457529101920142e-02 1.0665023922797858e-02  2.3031229057448727e-01 1.0965333827579781e-02 1.1486456102277508e-02  2.5037924988148730e-01 3.6324104670491472e-03 5.3648422451094526e-03  2.4596031111569494e-01 0.0000000000000000e+00 0.0000000000000000e+00  2.5269010913772927e-01 6.0719168998766542e-03 8.3700027140777636e-03  2.5348457071973546e-01 7.4589855427284676e-03 9.9192008048428065e-03  2.5351808861350872e-01 8.2364378555625003e-03 1.0756235877077164e-02  2.5313120310910198e-01 8.6712766227717061e-03 1.1222604652325449e-02  2.7529728049900215e-01 2.4099783146906968e-03 4.9947924149944655e-03  2.7182818284590454e-01 0.0000000000000000e+00 0.0000000000000000e+00  2.7702202743617643e-01 4.0417827222596989e-03 7.6035793316085332e-03  2.7759672090767390e-01 4.8433702940887486e-03 8.7847928903366044e-03  2.7768599689267454e-01 5.2550824830742528e-03 9.3705734546077925e-03  2.7753179819428897e-01 5.4965749017139116e-03 9.7090701178888829e-03  3.0226983711630057e-01 1.0246890164543516e-03 3.6811660925528023e-03  3.0041660239464335e-01 0.0000000000000000e+00 0.0000000000000000e+00  3.0316814208101794e-01 1.6894340975404311e-03 5.1236808299180417e-03  3.0347165143116217e-01 1.9315546397258672e-03 5.6179329287947078e-03  3.0355494913006981e-01 2.0475430770417447e-03 5.8349519996691640e-03  3.0353796989333104e-01 2.1283187991378567e-03 5.9882712523771494e-03  3.3201169227365473e-01 0.0000000000000000e+00 0.0000000000000000e+00  3.3201169227365473e-01 0.0000000000000000e+00 0.0000000000000000e+00  3.3201169227365473e-01 0.0000000000000000e+00 0.0000000000000000e+00  3.3201169227365473e-01 0.0000000000000000e+00 0.0000000000000000e+00  3.3201169227365473e-01 0.0000000000000000e+00 0.0000000000000000e+00  3.3201169227365473e-01 0.0000000000000000e+00 0.0000000000000000e+00  2.5146625784080623e-01 5.8478092281885686e-03 7.0488463182181637e-03  2.2828414478867259e-01 6.2914792983231552e-03 6.7391460111345123e-03  2.2255409284924679e-01 0.0000000000000000e+00 0.0000000000000000e+00  2.4596031111569494e-01 0.0000000000000000e+00 0.0000000000000000e+00  2.5480465545761927e-01 9.9297671305228832e-03 1.1717042016110204e-02  2.3172800049476183e-01 1.0591096308562708e-02 1.1125552286592429e-02  2.5635210660114155e-01 1.2466471047374967e-02 1.4516084518446810e-02  2.3324891316549987e-01 1.3291277463316629e-02 1.3766255732460981e-02  2.5677412410643680e-01 1.3967435952560487e-02 1.6157912354673495e-02  2.3347676073049253e-01 1.4916229851464192e-02 1.5327920193524094e-02  2.5650099620360983e-01 1.4771116212782077e-02 1.7064304564118671e-02  2.7676924688709714e-01 4.9495041879263502e-03 7.1915243042487238e-03  2.7182818284590454e-01 0.0000000000000000e+00 0.0000000000000000e+00  2.7972939022659693e-01 8.4138902078610793e-03 1.1883456985849703e-02  2.8112667717458467e-01 1.0439655273100713e-02 1.4577794825787830e-02  2.8166021335614255e-01 1.1572160075668868e-02 1.6098511180219734e-02  2.8170422937497330e-01 1.2171551309150836e-02 1.6943226680523133e-02  3.0427577687418306e-01 3.6364524677463678e-03 6.8406406293309166e-03  3.0041660239464335e-01 0.0000000000000000e+00 0.0000000000000000e+00  3.0648184753611257e-01 6.0668676462442639e-03 1.0953976517879875e-02  3.0756191436692476e-01 7.2835161308508183e-03 1.3069635669560473e-02  3.0811451431699488e-01 7.9022696566382767e-03 1.4183060042778377e-02  3.0839568213618318e-01 8.2315071612049304e-03 1.4816625143565496e-02  3.3392140610909898e-01 1.9555349400485963e-03 5.1147624689616691e-03  3.3201169227365473e-01 0.0000000000000000e+00 0.0000000000000000e+00  3.3510299699056872e-01 2.9511033900034727e-03 7.4852161191253956e-03  3.3576867641803704e-01 3.3366835193906360e-03 8.4946945542409402e-03  3.3618977181951110e-01 3.5195127499115741e-03 8.9897492915054188e-03  3.3649909803329620e-01 3.6252927010735022e-03 9.3097033693084804e-03  3.6692966676192446e-01 0.0000000000000000e+00 0.0000000000000000e+00  3.6692966676192446e-01 0.0000000000000000e+00 0.0000000000000000e+00  3.6692966676192446e-01 0.0000000000000000e+00 0.0000000000000000e+00  3.6692966676192446e-01 0.0000000000000000e+00 0.0000000000000000e+00  3.6692966676192446e-01 0.0000000000000000e+00 0.0000000000000000e+00  3.6692966676192446e-01 0.0000000000000000e+00 0.0000000000000000e+00  2.7774852253211713e-01 7.0606861460536328e-03 8.3405238165771452e-03  2.5203353076439877e-01 7.3076162217255106e-03 7.7308353652339673e-03  2.4596031111569500e-01 0.0000000000000000e+00 0.0000000000000000e+00  2.7182818284590454e-01 0.0000000000000000e+00 0.0000000000000000e+00  2.8153957254260342e-01 1.2135414653645794e-02 1.4231502042388988e-02  2.5589648984188806e-01 1.2488518545139377e-02 1.3152899879210657e-02  2.8355323590572001e-01 1.5340799440910395e-02 1.7949448832359660e-02  2.5786369984526719e-01 1.5816705909543323e-02 1.6607508546435234e-02  2.8446855454096343e-01 1.7240830928631604e-02 2.0183748106174702e-02  2.5854459877002350e-01 1.7841323732351776e-02 1.8708794134078936e-02  2.8471416162764229e-01 1.8246795087786340e-02 2.1412714144853996e-02  3.0580324121620583e-01 6.2813547898481594e-03 8.7425484440990988e-03  3.0041660239464335e-01 0.0000000000000000e+00 0.0000000000000000e+00  3.0919157854015233e-01 1.0742332079443766e-02 1.4767744724801373e-02  3.1102711851917186e-01 1.3364831184541426e-02 1.8402772527442966e-02  3.1206272011025327e-01 1.4814015548271052e-02 2.0502374112069496e-02  3.1267223858805732e-01 1.5557346461659901e-02 2.1656023730920612e-02  3.3624951098021072e-01 4.9713550988609188e-03 8.5034291552340737e-03  3.3201169227365485e-01 0.0000000000000000e+00 0.0000000000000000e+00  3.3876492025860677e-01 8.2077797719597324e-03 1.3877388966619077e-02  3.4021881964486206e-01 9.8031316441679565e-03 1.6795115890891811e-02  3.4124513745037582e-01 1.0590939325318557e-02 1.8371663263401988e-02  3.4208024721248853e-01 1.0985173711081287e-02 1.9249492122967712e-02  3.6892141255861066e-01 3.0245488321036297e-03 6.4999741741676841e-03  3.6692966676192446e-01 0.0000000000000000e+00 0.0000000000000000e+00  3.7028887605342142e-01 4.3436746414420718e-03 9.6727897277100201e-03  3.7124502249253188e-01 4.8422190854325821e-03 1.1133560687860120e-02  3.7202150590438265e-01 5.0666135744324168e-03 1.1880882154210655e-02  3.7273561581690540e-01 5.1824710224159815e-03 1.2339444792253610e-02  4.0551999668446748e-01 0.0000000000000000e+00 0.0000000000000000e+00  4.0551999668446748e-01 0.0000000000000000e+00 0.0000000000000000e+00  4.0551999668446748e-01 0.0000000000000000e+00 0.0000000000000000e+00  4.0551999668446748e-01 0.0000000000000000e+00 0.0000000000000000e+00  4.0551999668446748e-01 0.0000000000000000e+00 0.0000000000000000e+00  4.0551999668446748e-01 0.0000000000000000e+00 0.0000000000000000e+00  3.0664540616436109e-01 8.3036403835550117e-03 9.2185797323509986e-03  2.7809294009104046e-01 8.2793994792734922e-03 8.2793994792734887e-03  2.7182818284590454e-01 0.0000000000000000e+00 0.0000000000000000e+00  3.0041660239464335e-01 0.0000000000000000e+00 0.0000000000000000e+00  3.1071415583037959e-01 1.4343180881123258e-02 1.5883617193132221e-02  3.1302218019937378e-01 1.8161880711657905e-02 2.0137203464961746e-02  3.1435218945636056e-01 2.0407537576066614e-02 2.2682105620911025e-02  3.1515196263079148e-01 2.1590851590265508e-02 2.4059574793378339e-02  3.3780082386283011e-01 7.7259263183168132e-03 9.9438359836980950e-03  3.3201169227365473e-01 0.0000000000000000e+00 0.0000000000000000e+00  3.4147776636722976e-01 1.3211915183234689e-02 1.6921905061799559e-02  3.4359248784523455e-01 1.6406816311058284e-02 2.1168891831026299e-02  3.4505456675807339e-01 1.8133708182949584e-02 2.3598855027945204e-02  3.4626438495967227e-01 1.9001198393700420e-02 2.4901347266077643e-02  3.7157262224171889e-01 6.4836480696085488e-03 9.9303364732779859e-03  3.6692966676192446e-01 0.0000000000000000e+00 0.0000000000000000e+00  3.7429628736085269e-01 1.0588299265640137e-02 1.6305096390222186e-02  3.7599581342874716e-01 1.2549061981785781e-02 1.9788157973611872e-02  3.7743935897889885e-01 1.3475392624206817e-02 2.1640984889731762e-02  3.7886371299503846e-01 1.3919490754535769e-02 2.2637884306808295e-02  4.0764620175104016e-01 4.2764786428768162e-03 7.8094332814635601e-03  4.0551999668446748e-01 0.0000000000000000e+00 0.0000000000000000e+00  4.0914507335503469e-01 5.9437436677968166e-03 1.1654542387261092e-02  4.1032463893504856e-01 6.5380793861444901e-03 1.3432059140644857e-02  4.1142999856404550e-01 6.7857447278780120e-03 1.4325740656641250e-02  4.1257320444615486e-01 6.9036010422451064e-03 1.4851513545122015e-02  4.4816890703380646e-01 0.0000000000000000e+00 0.0000000000000000e+00  4.4816890703380646e-01 0.0000000000000000e+00 0.0000000000000000e+00  4.4816890703380646e-01 0.0000000000000000e+00 0.0000000000000000e+00  4.4816890703380646e-01 0.0000000000000000e+00 0.0000000000000000e+00  4.4816890703380646e-01 0.0000000000000000e+00 0.0000000000000000e+00  4.4816890703380646e-01 0.0000000000000000e+00 0.0000000000000000e+00  4.5048178045898901e-01 5.7389534714626074e-03 9.0147200920390087e-03  4.4816890703380646e-01 0.0000000000000000e+00 0.0000000000000000e+00  4.5203143857446426e-01 7.7858507967390519e-03 1.3377802974096652e-02  4.5334244458287098e-01 8.4570537716403028e-03 1.5281087005967682e-02  4.5472578160179211e-01 8.7086094963615551e-03 1.6161306965773666e-02  4.5629401208576670e-01 8.8210600905597007e-03 1.6655984038776352e-02  4.9530324243951152e-01 0.0000000000000000e+00 0.0000000000000000e+00  4.9530324243951152e-01 0.0000000000000000e+00 0.0000000000000000e+00  4.9530324243951152e-01 0.0000000000000000e+00 0.0000000000000000e+00  4.9530324243951152e-01 0.0000000000000000e+00 0.0000000000000000e+00  4.9530324243951152e-01 0.0000000000000000e+00 0.0000000000000000e+00  4.9530324243951152e-01 0.0000000000000000e+00 0.0000000000000000e+00  </DataArray> 
</PointData> 
</Piece>
</UnstructuredGrid>
</VTKFile>