<?xml version="1.0"?>
<VTKFile type="UnstructuredGrid"  version="0.1"  >
<UnstructuredGrid>
<Piece  NumberOfPoints="882" NumberOfCells="3600">
<Points>
<DataArray  type="Float64"  NumberOfComponents="3"  format="ascii">0 0 0  0.5 0 0  1 0 0  1.5 0 0  2 0 0  2.5 0 0  3 0 0  3.5 0 0  4 0 0  4.5 0 0  5 0 0  5.5 0 0  6 0 0  6.5 0 0  7 0 0  7.5 0 0  8 0 0  8.5 0 0  9 0 0  9.5 0 0  10 0 0  0 0.5 0  0.5 0.5 0  1 0.5 0  1.5 0.5 0  2 0.5 0  2.5 0.5 0  3 0.5 0  3.5 0.5 0  4 0.5 0  4.5 0.5 0  5 0.5 0  5.5 0.5 0  6 0.5 0  6.5 0.5 0  7 0.5 0  7.5 0.5 0  8 0.5 0  8.5 0.5 0  9 0.5 0  9.5 0.5 0  10 0.5 0  0 1 0  0.5 1 0  1 1 0  1.5 1 0  2 1 0  2.5 1 0  3 1 0  3.5 1 0  4 1 0  4.5 1 0  5 1 0  5.5 1 0  6 1 0  6.5 1 0  7 1 0  7.5 1 0  8 1 0  8.5 1 0  9 1 0  9.5 1 0  10 1 0  0 1.5 0  0.5 1.5 0  1 1.5 0  1.5 1.5 0  2 1.5 0  2.5 1.5 0  3 1.5 0  3.5 1.5 0  4 1.5 0  4.5 1.5 0  5 1.5 0  5.5 1.5 0  6 1.5 0  6.5 1.5 0  7 1.5 0  7.5 1.5 0  8 1.5 0  8.5 1.5 0  9 1.5 0  9.5 1.5 0  10 1.5 0  0 2 0  0.5 2 0  1 2 0  1.5 2 0  2 2 0  2.5 2 0  3 2 0  3.5 2 0  4 2 0  4.5 2 0  5 2 0  5.5 2 0  6 2 0  6.5 2 0  7 2 0  7.5 2 0  8 2 0  8.5 2 0  9 2 0  9.5 2 0  10 2 0  0 2.5 0  0.5 2.5 0  1 2.5 0  1.5 2.5 0  2 2.5 0  2.5 2.5 0  3 2.5 0  3.5 2.5 0  4 2.5 0  4.5 2.5 0  5 2.5 0  5.5 2.5 0  6 2.5 0  6.5 2.5 0  7 2.5 0  7.5 2.5 0  8 2.5 0  8.5 2.5 0  9 2.5 0  9.5 2.5 0  10 2.5 0  0 3 0  0.5 3 0  1 3 0  1.5 3 0  2 3 0  2.5 3 0  3 3 0  3.5 3 0  4 3 0  4.5 3 0  5 3 0  5.5 3 0  6 3 0  6.5 3 0  7 3 0  7.5 3 0  8 3 0  8.5 3 0  9 3 0  9.5 3 0  10 3 0  0 0 0.1  0.5 0 0.1  1 0 0.1  1.5 0 0.1  2 0 0.1  2.5 0 0.1  3 0 0.1  3.5 0 0.1  4 0 0.1  4.5 0 0.1  5 0 0.1  5.5 0 0.1  6 0 0.1  6.5 0 0.1  7 0 0.1  7.5 0 0.1  8 0 0.1  8.5 0 0.1  9 0 0.1  9.5 0 0.1  10 0 0.1  0 0.5 0.1  0.5 0.5 0.1  1 0.5 0.1  1.5 0.5 0.1  2 0.5 0.1  2.5 0.5 0.1  3 0.5 0.1  3.5 0.5 0.1  4 0.5 0.1  4.5 0.5 0.1  5 0.5 0.1  5.5 0.5 0.1  6 0.5 0.1  6.5 0.5 0.1  7 0.5 0.1  7.5 0.5 0.1  8 0.5 0.1  8.5 0.5 0.1  9 0.5 0.1  9.5 0.5 0.1  10 0.5 0.1  0 1 0.1  0.5 1 0.1  1 1 0.1  1.5 1 0.1  2 1 0.1  2.5 1 0.1  3 1 0.1  3.5 1 0.1  4 1 0.1  4.5 1 0.1  5 1 0.1  5.5 1 0.1  6 1 0.1  6.5 1 0.1  7 1 0.1  7.5 1 0.1  8 1 0.1  8.5 1 0.1  9 1 0.1  9.5 1 0.1  10 1 0.1  0 1.5 0.1  0.5 1.5 0.1  1 1.5 0.1  1.5 1.5 0.1  2 1.5 0.1  2.5 1.5 0.1  3 1.5 0.1  3.5 1.5 0.1  4 1.5 0.1  4.5 1.5 0.1  5 1.5 0.1  5.5 1.5 0.1  6 1.5 0.1  6.5 1.5 0.1  7 1.5 0.1  7.5 1.5 0.1  8 1.5 0.1  8.5 1.5 0.1  9 1.5 0.1  9.5 1.5 0.1  10 1.5 0.1  0 2 0.1  0.5 2 0.1  1 2 0.1  1.5 2 0.1  2 2 0.1  2.5 2 0.1  3 2 0.1  3.5 2 0.1  4 2 0.1  4.5 2 0.1  5 2 0.1  5.5 2 0.1  6 2 0.1  6.5 2 0.1  7 2 0.1  7.5 2 0.1  8 2 0.1  8.5 2 0.1  9 2 0.1  9.5 2 0.1  10 2 0.1  0 2.5 0.1  0.5 2.5 0.1  1 2.5 0.1  1.5 2.5 0.1  2 2.5 0.1  2.5 2.5 0.1  3 2.5 0.1  3.5 2.5 0.1  4 2.5 0.1  4.5 2.5 0.1  5 2.5 0.1  5.5 2.5 0.1  6 2.5 0.1  6.5 2.5 0.1  7 2.5 0.1  7.5 2.5 0.1  8 2.5 0.1  8.5 2.5 0.1  9 2.5 0.1  9.5 2.5 0.1  10 2.5 0.1  0 3 0.1  0.5 3 0.1  1 3 0.1  1.5 3 0.1  2 3 0.1  2.5 3 0.1  3 3 0.1  3.5 3 0.1  4 3 0.1  4.5 3 0.1  5 3 0.1  5.5 3 0.1  6 3 0.1  6.5 3 0.1  7 3 0.1  7.5 3 0.1  8 3 0.1  8.5 3 0.1  9 3 0.1  9.5 3 0.1  10 3 0.1  0 0 0.2  0.5 0 0.2  1 0 0.2  1.5 0 0.2  2 0 0.2  2.5 0 0.2  3 0 0.2  3.5 0 0.2  4 0 0.2  4.5 0 0.2  5 0 0.2  5.5 0 0.2  6 0 0.2  6.5 0 0.2  7 0 0.2  7.5 0 0.2  8 0 0.2  8.5 0 0.2  9 0 0.2  9.5 0 0.2  10 0 0.2  0 0.5 0.2  0.5 0.5 0.2  1 0.5 0.2  1.5 0.5 0.2  2 0.5 0.2  2.5 0.5 0.2  3 0.5 0.2  3.5 0.5 0.2  4 0.5 0.2  4.5 0.5 0.2  5 0.5 0.2  5.5 0.5 0.2  6 0.5 0.2  6.5 0.5 0.2  7 0.5 0.2  7.5 0.5 0.2  8 0.5 0.2  8.5 0.5 0.2  9 0.5 0.2  9.5 0.5 0.2  10 0.5 0.2  0 1 0.2  0.5 1 0.2  1 1 0.2  1.5 1 0.2  2 1 0.2  2.5 1 0.2  3 1 0.2  3.5 1 0.2  4 1 0.2  4.5 1 0.2  5 1 0.2  5.5 1 0.2  6 1 0.2  6.5 1 0.2  7 1 0.2  7.5 1 0.2  8 1 0.2  8.5 1 0.2  9 1 0.2  9.5 1 0.2  10 1 0.2  0 1.5 0.2  0.5 1.5 0.2  1 1.5 0.2  1.5 1.5 0.2  2 1.5 0.2  2.5 1.5 0.2  3 1.5 0.2  3.5 1.5 0.2  4 1.5 0.2  4.5 1.5 0.2  5 1.5 0.2  5.5 1.5 0.2  6 1.5 0.2  6.5 1.5 0.2  7 1.5 0.2  7.5 1.5 0.2  8 1.5 0.2  8.5 1.5 0.2  9 1.5 0.2  9.5 1.5 0.2  10 1.5 0.2  0 2 0.2  0.5 2 0.2  1 2 0.2  1.5 2 0.2  2 2 0.2  2.5 2 0.2  3 2 0.2  3.5 2 0.2  4 2 0.2  4.5 2 0.2  5 2 0.2  5.5 2 0.2  6 2 0.2  6.5 2 0.2  7 2 0.2  7.5 2 0.2  8 2 0.2  8.5 2 0.2  9 2 0.2  9.5 2 0.2  10 2 0.2  0 2.5 0.2  0.5 2.5 0.2  1 2.5 0.2  1.5 2.5 0.2  2 2.5 0.2  2.5 2.5 0.2  3 2.5 0.2  3.5 2.5 0.2  4 2.5 0.2  4.5 2.5 0.2  5 2.5 0.2  5.5 2.5 0.2  6 2.5 0.2  6.5 2.5 0.2  7 2.5 0.2  7.5 2.5 0.2  8 2.5 0.2  8.5 2.5 0.2  9 2.5 0.2  9.5 2.5 0.2  10 2.5 0.2  0 3 0.2  0.5 3 0.2  1 3 0.2  1.5 3 0.2  2 3 0.2  2.5 3 0.2  3 3 0.2  3.5 3 0.2  4 3 0.2  4.5 3 0.2  5 3 0.2  5.5 3 0.2  6 3 0.2  6.5 3 0.2  7 3 0.2  7.5 3 0.2  8 3 0.2  8.5 3 0.2  9 3 0.2  9.5 3 0.2  10 3 0.2  0 0 0.3  0.5 0 0.3  1 0 0.3  1.5 0 0.3  2 0 0.3  2.5 0 0.3  3 0 0.3  3.5 0 0.3  4 0 0.3  4.5 0 0.3  5 0 0.3  5.5 0 0.3  6 0 0.3  6.5 0 0.3  7 0 0.3  7.5 0 0.3  8 0 0.3  8.5 0 0.3  9 0 0.3  9.5 0 0.3  10 0 0.3  0 0.5 0.3  0.5 0.5 0.3  1 0.5 0.3  1.5 0.5 0.3  2 0.5 0.3  2.5 0.5 0.3  3 0.5 0.3  3.5 0.5 0.3  4 0.5 0.3  4.5 0.5 0.3  5 0.5 0.3  5.5 0.5 0.3  6 0.5 0.3  6.5 0.5 0.3  7 0.5 0.3  7.5 0.5 0.3  8 0.5 0.3  8.5 0.5 0.3  9 0.5 0.3  9.5 0.5 0.3  10 0.5 0.3  0 1 0.3  0.5 1 0.3  1 1 0.3  1.5 1 0.3  2 1 0.3  2.5 1 0.3  3 1 0.3  3.5 1 0.3  4 1 0.3  4.5 1 0.3  5 1 0.3  5.5 1 0.3  6 1 0.3  6.5 1 0.3  7 1 0.3  7.5 1 0.3  8 1 0.3  8.5 1 0.3  9 1 0.3  9.5 1 0.3  10 1 0.3  0 1.5 0.3  0.5 1.5 0.3  1 1.5 0.3  1.5 1.5 0.3  2 1.5 0.3  2.5 1.5 0.3  3 1.5 0.3  3.5 1.5 0.3  4 1.5 0.3  4.5 1.5 0.3  5 1.5 0.3  5.5 1.5 0.3  6 1.5 0.3  6.5 1.5 0.3  7 1.5 0.3  7.5 1.5 0.3  8 1.5 0.3  8.5 1.5 0.3  9 1.5 0.3  9.5 1.5 0.3  10 1.5 0.3  0 2 0.3  0.5 2 0.3  1 2 0.3  1.5 2 0.3  2 2 0.3  2.5 2 0.3  3 2 0.3  3.5 2 0.3  4 2 0.3  4.5 2 0.3  5 2 0.3  5.5 2 0.3  6 2 0.3  6.5 2 0.3  7 2 0.3  7.5 2 0.3  8 2 0.3  8.5 2 0.3  9 2 0.3  9.5 2 0.3  10 2 0.3  0 2.5 0.3  0.5 2.5 0.3  1 2.5 0.3  1.5 2.5 0.3  2 2.5 0.3  2.5 2.5 0.3  3 2.5 0.3  3.5 2.5 0.3  4 2.5 0.3  4.5 2.5 0.3  5 2.5 0.3  5.5 2.5 0.3  6 2.5 0.3  6.5 2.5 0.3  7 2.5 0.3  7.5 2.5 0.3  8 2.5 0.3  8.5 2.5 0.3  9 2.5 0.3  9.5 2.5 0.3  10 2.5 0.3  0 3 0.3  0.5 3 0.3  1 3 0.3  1.5 3 0.3  2 3 0.3  2.5 3 0.3  3 3 0.3  3.5 3 0.3  4 3 0.3  4.5 3 0.3  5 3 0.3  5.5 3 0.3  6 3 0.3  6.5 3 0.3  7 3 0.3  7.5 3 0.3  8 3 0.3  8.5 3 0.3  9 3 0.3  9.5 3 0.3  10 3 0.3  0 0 0.4  0.5 0 0.4  1 0 0.4  1.5 0 0.4  2 0 0.4  2.5 0 0.4  3 0 0.4  3.5 0 0.4  4 0 0.4  4.5 0 0.4  5 0 0.4  5.5 0 0.4  6 0 0.4  6.5 0 0.4  7 0 0.4  7.5 0 0.4  8 0 0.4  8.5 0 0.4  9 0 0.4  9.5 0 0.4  10 0 0.4  0 0.5 0.4  0.5 0.5 0.4  1 0.5 0.4  1.5 0.5 0.4  2 0.5 0.4  2.5 0.5 0.4  3 0.5 0.4  3.5 0.5 0.4  4 0.5 0.4  4.5 0.5 0.4  5 0.5 0.4  5.5 0.5 0.4  6 0.5 0.4  6.5 0.5 0.4  7 0.5 0.4  7.5 0.5 0.4  8 0.5 0.4  8.5 0.5 0.4  9 0.5 0.4  9.5 0.5 0.4  10 0.5 0.4  0 1 0.4  0.5 1 0.4  1 1 0.4  1.5 1 0.4  2 1 0.4  2.5 1 0.4  3 1 0.4  3.5 1 0.4  4 1 0.4  4.5 1 0.4  5 1 0.4  5.5 1 0.4  6 1 0.4  6.5 1 0.4  7 1 0.4  7.5 1 0.4  8 1 0.4  8.5 1 0.4  9 1 0.4  9.5 1 0.4  10 1 0.4  0 1.5 0.4  0.5 1.5 0.4  1 1.5 0.4  1.5 1.5 0.4  2 1.5 0.4  2.5 1.5 0.4  3 1.5 0.4  3.5 1.5 0.4  4 1.5 0.4  4.5 1.5 0.4  5 1.5 0.4  5.5 1.5 0.4  6 1.5 0.4  6.5 1.5 0.4  7 1.5 0.4  7.5 1.5 0.4  8 1.5 0.4  8.5 1.5 0.4  9 1.5 0.4  9.5 1.5 0.4  10 1.5 0.4  0 2 0.4  0.5 2 0.4  1 2 0.4  1.5 2 0.4  2 2 0.4  2.5 2 0.4  3 2 0.4  3.5 2 0.4  4 2 0.4  4.5 2 0.4  5 2 0.4  5.5 2 0.4  6 2 0.4  6.5 2 0.4  7 2 0.4  7.5 2 0.4  8 2 0.4  8.5 2 0.4  9 2 0.4  9.5 2 0.4  10 2 0.4  0 2.5 0.4  0.5 2.5 0.4  1 2.5 0.4  1.5 2.5 0.4  2 2.5 0.4  2.5 2.5 0.4  3 2.5 0.4  3.5 2.5 0.4  4 2.5 0.4  4.5 2.5 0.4  5 2.5 0.4  5.5 2.5 0.4  6 2.5 0.4  6.5 2.5 0.4  7 2.5 0.4  7.5 2.5 0.4  8 2.5 0.4  8.5 2.5 0.4  9 2.5 0.4  9.5 2.5 0.4  10 2.5 0.4  0 3 0.4  0.5 3 0.4  1 3 0.4  1.5 3 0.4  2 3 0.4  2.5 3 0.4  3 3 0.4  3.5 3 0.4  4 3 0.4  4.5 3 0.4  5 3 0.4  5.5 3 0.4  6 3 0.4  6.5 3 0.4  7 3 0.4  7.5 3 0.4  8 3 0.4  8.5 3 0.4  9 3 0.4  9.5 3 0.4  10 3 0.4  0 0 0.5  0.5 0 0.5  1 0 0.5  1.5 0 0.5  2 0 0.5  2.5 0 0.5  3 0 0.5  3.5 0 0.5  4 0 0.5  4.5 0 0.5  5 0 0.5  5.5 0 0.5  6 0 0.5  6.5 0 0.5  7 0 0.5  7.5 0 0.5  8 0 0.5  8.5 0 0.5  9 0 0.5  9.5 0 0.5  10 0 0.5  0 0.5 0.5  0.5 0.5 0.5  1 0.5 0.5  1.5 0.5 0.5  2 0.5 0.5  2.5 0.5 0.5  3 0.5 0.5  3.5 0.5 0.5  4 0.5 0.5  4.5 0.5 0.5  5 0.5 0.5  5.5 0.5 0.5  6 0.5 0.5  6.5 0.5 0.5  7 0.5 0.5  7.5 0.5 0.5  8 0.5 0.5  8.5 0.5 0.5  9 0.5 0.5  9.5 0.5 0.5  10 0.5 0.5  0 1 0.5  0.5 1 0.5  1 1 0.5  1.5 1 0.5  2 1 0.5  2.5 1 0.5  3 1 0.5  3.5 1 0.5  4 1 0.5  4.5 1 0.5  5 1 0.5  5.5 1 0.5  6 1 0.5  6.5 1 0.5  7 1 0.5  7.5 1 0.5  8 1 0.5  8.5 1 0.5  9 1 0.5  9.5 1 0.5  10 1 0.5  0 1.5 0.5  0.5 1.5 0.5  1 1.5 0.5  1.5 1.5 0.5  2 1.5 0.5  2.5 1.5 0.5  3 1.5 0.5  3.5 1.5 0.5  4 1.5 0.5  4.5 1.5 0.5  5 1.5 0.5  5.5 1.5 0.5  6 1.5 0.5  6.5 1.5 0.5  7 1.5 0.5  7.5 1.5 0.5  8 1.5 0.5  8.5 1.5 0.5  9 1.5 0.5  9.5 1.5 0.5  10 1.5 0.5  0 2 0.5  0.5 2 0.5  1 2 0.5  1.5 2 0.5  2 2 0.5  2.5 2 0.5  3 2 0.5  3.5 2 0.5  4 2 0.5  4.5 2 0.5  5 2 0.5  5.5 2 0.5  6 2 0.5  6.5 2 0.5  7 2 0.5  7.5 2 0.5  8 2 0.5  8.5 2 0.5  9 2 0.5  9.5 2 0.5  10 2 0.5  0 2.5 0.5  0.5 2.5 0.5  1 2.5 0.5  1.5 2.5 0.5  2 2.5 0.5  2.5 2.5 0.5  3 2.5 0.5  3.5 2.5 0.5  4 2.5 0.5  4.5 2.5 0.5  5 2.5 0.5  5.5 2.5 0.5  6 2.5 0.5  6.5 2.5 0.5  7 2.5 0.5  7.5 2.5 0.5  8 2.5 0.5  8.5 2.5 0.5  9 2.5 0.5  9.5 2.5 0.5  10 2.5 0.5  0 3 0.5  0.5 3 0.5  1 3 0.5  1.5 3 0.5  2 3 0.5  2.5 3 0.5  3 3 0.5  3.5 3 0.5  4 3 0.5  4.5 3 0.5  5 3 0.5  5.5 3 0.5  6 3 0.5  6.5 3 0.5  7 3 0.5  7.5 3 0.5  8 3 0.5  8.5 3 0.5  9 3 0.5  9.5 3 0.5  10 3 0.5  </DataArray>
</Points>
<Cells>
[...]
<PointData  Scalars="f_7-1"> 
<DataArray  type="Float64"  Name="f_7-1"  format="ascii">8.0700325594820406e+00  4.6890946486439029e+00  7.7900910552666440e+00  4.7771443178903308e+00  -1.5537661543925907e+00  -4.1533385868513282e+00  -3.6559141009270308e+00  -3.0296290089967806e+00  -2.9322546744158080e+00  -3.0194639867992761e+00  -3.0812892142441983e+00  -3.0945182019282456e+00  -3.0898360282502755e+00  -3.0864271663226441e+00  -3.0865965987467656e+00  -3.0876559914553638e+00  -3.0881955447365401e+00  -3.0882667693640804e+00  -3.0882095387509754e+00  -3.0881792514098390e+00  -3.0881514724806438e+00  -1.3719933895925973e+00  6.8469303752154076e+00  6.8732341273163486e+00  1.2220034943809206e+00  -3.6112019421319039e+00  -4.1427145253451814e+00  -3.1614005364719153e+00  -2.9139113325489672e+00  -2.9956687494095755e+00  -3.0733717579355084e+00  -3.0974779619915105e+00  -3.0938101505393405e+00  -3.0881785944775269e+00  -3.0870433456588326e+00  -3.0878657960236184e+00  -3.0884520479325617e+00  -3.0885047724966141e+00  -3.0883759103623958e+00  -3.0882829827609539e+00  -3.0882506465851649e+00  -3.0882460110738914e+00  -4.2479257596950992e+00  7.6847891590679005e+00  2.2149103811442621e+00  -2.1188262712596408e+00  -5.8369181508067500e+00  -3.7325635653483134e+00  -2.7529803265712052e+00  -2.8922681529431062e+00  -3.0667211785622150e+00  -3.1185203293125365e+00  -3.1082640043884950e+00  -3.0924488479035781e+00  -3.0875717114666683e+00  -3.0883351218513373e+00  -3.0892850011919339e+00  -3.0892403401162905e+00  -3.0888297895882482e+00  -3.0885309060256363e+00  -3.0883980487447755e+00  -3.0883505920607344e+00  -3.0883417767666153e+00  -5.7711891503021207e+00  5.2180805444303280e+00  6.4473666931959190e+00  -8.6444722673422820e+00  -6.1657969564877000e+00  -3.2446386135260847e+00  -2.7343258805566100e+00  -2.9034858347772072e+00  -3.1031517220259799e+00  -3.1446136934468969e+00  -3.1156362165870042e+00  -3.0936700082716850e+00  -3.0886371611039745e+00  -3.0897237075074346e+00  -3.0903574730066854e+00  -3.0898377308738336e+00  -3.0891268677233268e+00  -3.0886968685025797e+00  -3.0885113879866237e+00  -3.0884437773851157e+00  -3.0884327773148130e+00  -1.2193450870684750e+01  8.7537151435197895e+00  7.6265202326639283e+00  -9.0586631803670343e+00  -5.1213862113563957e+00  -3.6104987541403109e+00  -2.9472369918527916e+00  -2.9402275758464240e+00  -3.0992746849418786e+00  -3.1466211774287074e+00  -3.1228046223552073e+00  -3.0997276852082427e+00  -3.0919379480211839e+00  -3.0912436943154478e+00  -3.0911457616400382e+00  -3.0903789628992309e+00  -3.0895201956349165e+00  -3.0889605690803390e+00  -3.0886858500144001e+00  -3.0885595650200059e+00  -3.0885177201958030e+00  -4.0767210460194497e-01  1.0017188100464775e+01  4.6763287897771901e+00  1.2996454543966041e+00  -5.9447495597664330e+00  -4.1264252477240113e+00  -3.3145922185341066e+00  -3.0394573348246694e+00  -3.0610511670226130e+00  -3.1238207850893169e+00  -3.1274171239567967e+00  -3.1087689663501816e+00  -3.0965482845823828e+00  -3.0923643888571899e+00  -3.0912684564656865e+00  -3.0905362634552596e+00  -3.0897411594521156e+00  -3.0891156013500729e+00  -3.0887474669451311e+00  -3.0885906657017528e+00  -3.0885825385926129e+00  1.9906492447411345e+01  7.4520732744914964e-01  4.3403631057421510e+00  7.5904043055560431e+00  -4.4658247594979477e+00  -4.9586049218236790e+00  -3.8899143968634995e+00  -3.2060328689352868e+00  -3.0312190713637834e+00  -3.0875662557138566e+00  -3.1298851705512289e+00  -3.1221005478069008e+00  -3.1045144297741172e+00  -3.0949756195133120e+00  -3.0920030895645687e+00  -3.0910883366352060e+00  -3.0903131270124393e+00  -3.0895611117314181e+00  -3.0890383881868817e+00  -3.0887906009330535e+00  -3.0886756543888421e+00  1.2917041945486321e+01  3.7445604070271883e+00  7.7743459636225758e+00  5.0568062163088516e+00  -1.3809485881159529e+00  -4.6983359437804797e+00  -3.8515564110694007e+00  -2.9538279005626706e+00  -2.8872850936220908e+00  -3.0100904423335426e+00  -3.0829564811587100e+00  -3.0962677287558966e+00  -3.0894824100414047e+00  -3.0854685537034610e+00  -3.0860009802532185e+00  -3.0874478973721344e+00  -3.0881424069378554e+00  -3.0882382517558824e+00  -3.0881845652567441e+00  -3.0881569302863716e+00  -3.0882054147374083e+00  -2.2251392449150673e+00  8.4131718651337835e+00  7.0420064229899522e+00  1.8269589486881850e+00  -3.4354465673286620e+00  -4.6110952298606511e+00  -3.1186894400539278e+00  -2.8211765669328237e+00  -2.9734352066826548e+00  -3.0694653126170586e+00  -3.0980624169822324e+00  -3.0922327477801708e+00  -3.0855178634542897e+00  -3.0849693818681496e+00  -3.0866387244011202e+00  -3.0877365750366237e+00  -3.0880114499221554e+00  -3.0879931626751302e+00  -3.0879779729541088e+00  -3.0880023928418101e+00  -3.0879902791344995e+00  -6.6641291871830397e+00  9.1609121398841342e+00  1.4343087918619979e-01  -5.7257764213041451e-01  -7.1606279298468820e+00  -3.9470119875266567e+00  -2.4851120103361048e+00  -2.8612056130839902e+00  -3.0676202037071363e+00  -3.1220062619573818e+00  -3.1079981736521445e+00  -3.0890916364127849e+00  -3.0848138100179412e+00  -3.0868205530064707e+00  -3.0885121034925120e+00  -3.0887379556004548e+00  -3.0884313318794976e+00  -3.0882174156434519e+00  -3.0881590932446827e+00  -3.0881575573509474e+00  -3.0881743459747106e+00  -7.7534930473700632e+00  5.1934320469754622e+00  9.6510587824595166e+00  -1.2236258243304622e+01  -6.9932714899810522e+00  -2.6836332431451457e+00  -2.6457140569016615e+00  -2.8846612154409841e+00  -3.1051456116639309e+00  -3.1498189638598406e+00  -3.1123880378923174e+00  -3.0892381560921356e+00  -3.0858406951300874e+00  -3.0883325659468408e+00  -3.0895960656387462e+00  -3.0892729616694443e+00  -3.0886766621872068e+00  -3.0883588549829759e+00  -3.0882605635893929e+00  -3.0882400223476578e+00  -3.0882321333835718e+00  -2.0402860294839364e+01  1.2324628238042973e+01  9.8025644500264892e+00  -1.5300759655029811e+01  -3.5550472054033366e+00  -3.5536056682656749e+00  -2.9135425973847777e+00  -2.8930845089609609e+00  -3.1022093603199785e+00  -3.1494115948919457e+00  -3.1185703468152237e+00  -3.0951620450309156e+00  -3.0890445518083993e+00  -3.0897553738057320e+00  -3.0902577982732602e+00  -3.0897200244279470e+00  -3.0890125279757870e+00  -3.0885813813068457e+00  -3.0883995506106787e+00  -3.0883366745635339e+00  -3.0883240047806089e+00  -3.5933717406722563e+00  1.3820189804040465e+01  2.7299195686197781e+00  3.1031351458337624e+00  -6.9512371518847909e+00  -3.8872067542517543e+00  -3.2677478456641773e+00  -3.0081712730778243e+00  -3.0544337305565428e+00  -3.1227124709234260e+00  -3.1255470402831680e+00  -3.1057529734358549e+00  -3.0943734884118164e+00  -3.0911075604232612e+00  -3.0905024047619363e+00  -3.0900116532796500e+00  -3.0893548772341064e+00  -3.0888271280564945e+00  -3.0885360426623905e+00  -3.0884125411649199e+00  -3.0883942713359596e+00  3.1623347141023064e+01  4.2443707332517185e-02  3.2105924080226713e+00  8.5182476673795815e+00  -5.4174070091673689e+00  -5.0853929962622413e+00  -3.7130245941779241e+00  -3.1898139429063721e+00  -3.0018831315271455e+00  -3.0819716134995323e+00  -3.1305536341032272e+00  -3.1211411859788387e+00  -3.1030924240370710e+00  -3.0939786438973229e+00  -3.0915271615636697e+00  -3.0908985826480548e+00  -3.0902242677019380e+00  -3.0895081327222136e+00  -3.0890098680914631e+00  -3.0887684189905400e+00  -3.0886402419424535e+00  1.4086669048703834e+01  3.1277266410892750e+00  7.5219388941138750e+00  5.1676956731192991e+00  -1.2902967837492869e+00  -4.8288090373060761e+00  -3.9039641998797889e+00  -2.8718933487728275e+00  -2.8349852415742540e+00  -2.9921159068915455e+00  -3.0752324481359290e+00  -3.0907904933446955e+00  -3.0845485395026730e+00  -3.0815846652710932e+00  -3.0833736904465301e+00  -3.0857578743425167e+00  -3.0870052850437615e+00  -3.0874116909213720e+00  -3.0875485346928344e+00  -3.0876235336342122e+00  -3.0877389243859450e+00  -2.2159922294613659e+00  8.7110414871417330e+00  7.7490035560746309e+00  2.1237690226119099e+00  -3.4046300121230448e+00  -4.9305937491278078e+00  -3.0951831174110538e+00  -2.7575976985941288e+00  -2.9618977834171871e+00  -3.0671971909856186e+00  -3.0989420558327740e+00  -3.0914040182426463e+00  -3.0838268827961013e+00  -3.0836407847944396e+00  -3.0858607609827597e+00  -3.0872919035606032e+00  -3.0877047734634750e+00  -3.0877513610591016e+00  -3.0877830345108408e+00  -3.0878387373785694e+00  -3.0878208295785115e+00  -7.4262237785280139e+00  1.0413187072032967e+01  -1.3948146877264069e+00  2.8376442284563780e-01  -7.9362656000051928e+00  -4.1090631399174393e+00  -2.3011248993643654e+00  -2.8439962400187033e+00  -3.0649755940652881e+00  -3.1224925875485949e+00  -3.1073474988020222e+00  -3.0863280701036135e+00  -3.0826541531314815e+00  -3.0855733378522068e+00  -3.0878373283036376e+00  -3.0883028353542188e+00  -3.0880986590257171e+00  -3.0879604689125366e+00  -3.0879629406968947e+00  -3.0879992879677913e+00  -3.0880379408554020e+00  -8.3927302940354203e+00  5.5411714588513670e+00  1.0867373426699526e+01  -1.4295128450855140e+01  -7.4259589938243078e+00  -2.2664537790550296e+00  -2.6070322974000772e+00  -2.8802760683736932e+00  -3.0999372414179356e+00  -3.1518731648601541e+00  -3.1093159949375875e+00  -3.0859771068536834e+00  -3.0837926186335127e+00  -3.0871923744991423e+00  -3.0889251274505987e+00  -3.0887870330157994e+00  -3.0883050319767138e+00  -3.0880828948825028e+00  -3.0880549558152803e+00  -3.0880729018261350e+00  -3.0880672782841110e+00  -2.1771009231178095e+01  1.4107843791306463e+01  1.0605603465385187e+01  -1.8797412260737030e+01  -2.0241905949213068e+00  -3.6382755102186306e+00  -2.9198930489063546e+00  -2.8546845811574726e+00  -3.1016741084723125e+00  -3.1493742129745308e+00  -3.1145931334641714e+00  -3.0920024370636603e+00  -3.0869391396608532e+00  -3.0885617488820132e+00  -3.0895023648395070e+00  -3.0891693065701928e+00  -3.0886025899928256e+00  -3.0882788245862840e+00  -3.0881689941455672e+00  -3.0881512464813938e+00  -3.0881695819540576e+00  -2.9503025490823047e+00  1.5575603616754453e+01  1.4525188752295519e+00  4.2203053248767359e+00  -7.2545096438843135e+00  -3.8758161462731375e+00  -3.2065227467617547e+00  -2.9902209939237618e+00  -3.0558787403299004e+00  -3.1192272082523806e+00  -3.1235856014644972e+00  -3.1038624322465971e+00  -3.0931403081133979e+00  -3.0904212108562712e+00  -3.0900547012120607e+00  -3.0897008866607090e+00  -3.0891361406379958e+00  -3.0886734369301680e+00  -3.0884288322956119e+00  -3.0883223582903021e+00  -3.0882629553077603e+00  3.4754954875796074e+01  -4.4204132574104443e-01  1.9371427630570952e+00  9.4721036385994601e+00  -6.2813854155123350e+00  -5.0981237873917031e+00  -3.5663822228177633e+00  -3.1700879483164082e+00  -2.9561644145414387e+00  -3.0634728705678858e+00  -3.1225883069640115e+00  -3.1145441074782361e+00  -3.0979664845946147e+00  -3.0902871782561849e+00  -3.0890961694961692e+00  -3.0893207579473816e+00  -3.0891484179604491e+00  -3.0887349034577589e+00  -3.0884247891214991e+00  -3.0882765323430115e+00  -3.0882828286897204e+00  1.3467749271638180e+01  3.3048902144907077e+00  7.3220571491666702e+00  5.0504392374396758e+00  -1.2454371221384195e+00  -4.6424381850788752e+00  -3.8963048255028054e+00  -2.8698407066959200e+00  -2.8140420487871540e+00  -2.9771881206757902e+00  -3.0662014721040269e+00  -3.0847280980560310e+00  -3.0799633209492350e+00  -3.0780415078633641e+00  -3.0807562264980306e+00  -3.0838972787054231e+00  -3.0856777582976020e+00  -3.0864271037460980e+00  -3.0867775511258340e+00  -3.0869786274424982e+00  -3.0869293058503517e+00  -1.7813438387763907e+00  8.4711267423629177e+00  8.0954169385752035e+00  2.4177064606856815e+00  -3.3580824772601749e+00  -5.0964802210909017e+00  -3.1480306531293478e+00  -2.7283180509548819e+00  -2.9460321837574717e+00  -3.0628821416626169e+00  -3.0993374861448388e+00  -3.0915067960107487e+00  -3.0832074608627185e+00  -3.0829869336161888e+00  -3.0854708245337550e+00  -3.0871133699690803e+00  -3.0876105253361739e+00  -3.0876797923104315e+00  -3.0877224401192986e+00  -3.0877721925940227e+00  -3.0878282720001407e+00  -6.9548341000182274e+00  1.0510539788595972e+01  -1.5883083715101829e+00  4.4714515418819645e-01  -8.1876952611966356e+00  -4.2296528823805124e+00  -2.2283513387462435e+00  -2.8166069847988155e+00  -3.0505326002122111e+00  -3.1181876685671233e+00  -3.1056190820722400e+00  -3.0838118457869417e+00  -3.0805217603173767e+00  -3.0840855422591971e+00  -3.0869235004349416e+00  -3.0877266405169244e+00  -3.0876946464519412e+00  -3.0876603802358646e+00  -3.0877328650935256e+00  -3.0878193198773358e+00  -3.0878484533071879e+00  -7.5244988991039170e+00  5.7246397364243933e+00  1.0535218353235544e+01  -1.4393370715434505e+01  -7.6117461458899518e+00  -2.1343523495355678e+00  -2.5978107940677106e+00  -2.8637363937616063e+00  -3.0864215524599197e+00  -3.1504019607151914e+00  -3.1068013925135136e+00  -3.0836755809265206e+00  -3.0820543725979928e+00  -3.0860113659329995e+00  -3.0882036566473912e+00  -3.0883110701644161e+00  -3.0879662075068324e+00  -3.0878325341033661e+00  -3.0878650999111388e+00  -3.0879160670311663e+00  -3.0879298633722980e+00  -1.9497423299131832e+01  1.3915386143026167e+01  1.0511801272922790e+01  -1.9370239649180117e+01  -1.5197174833613429e+00  -3.7296216567784164e+00  -2.9144521484745978e+00  -2.8248878575498391e+00  -3.0947440296129489e+00  -3.1461493365544566e+00  -3.1110581654362246e+00  -3.0897908744837017e+00  -3.0851707141001237e+00  -3.0874117101591869e+00  -3.0887603030755040e+00  -3.0886627385739853e+00  -3.0882462372520640e+00  -3.0880205905154230e+00  -3.0879737724116376e+00  -3.0879890293846972e+00  -3.0880189653736845e+00  -2.2971610395716771e+00  1.5059037620889153e+01  1.2104355507315980e+00  4.5983427852011269e+00  -7.3439209450512717e+00  -3.9676218363657165e+00  -3.1111059391036848e+00  -2.9875613546753566e+00  -3.0538838170404308e+00  -3.1111716149957052e+00  -3.1203764114907666e+00  -3.1017997143889389e+00  -3.0917405144111414e+00  -3.0895427740160066e+00  -3.0894382402593545e+00  -3.0892841297997595e+00  -3.0888568071754952e+00  -3.0884814200243125e+00  -3.0882865149470282e+00  -3.0882131904998693e+00  -3.0881536068974316e+00  3.3763330577609402e+01  -4.0990885310646213e-01  1.8318514412731304e+00  9.5896538168402969e+00  -6.5502728114214657e+00  -5.0058280806949185e+00  -3.5287707429409321e+00  -3.1928314911845144e+00  -2.9191814770271796e+00  -3.0459786655036711e+00  -3.1133732771206239e+00  -3.1073811218729404e+00  -3.0926666885566760e+00  -3.0862210693044134e+00  -3.0861570114299357e+00  -3.0872470169445450e+00  -3.0876598246238300e+00  -3.0876331893113886e+00  -3.0875682468195609e+00  -3.0875603930481761e+00  -3.0876577065026609e+00  1.0550223159613205e+01  4.1508673486617864e+00  7.2690191163465103e+00  5.2008252717924810e+00  -1.1834096452750302e+00  -4.4152946775704960e+00  -3.8761084558771834e+00  -2.9374153807927326e+00  -2.8226451372952552e+00  -2.9733685144775461e+00  -3.0646309082477994e+00  -3.0849521607820942e+00  -3.0807552393880147e+00  -3.0785399060156942e+00  -3.0809607325983861e+00  -3.0839957206654662e+00  -3.0857605710156721e+00  -3.0865035212464349e+00  -3.0868393536238914e+00  -3.0870237604144544e+00  -3.0869177560655148e+00  -6.3036801949495913e-01  7.5526665554081065e+00  7.9941959323344953e+00  2.5615082347530622e+00  -3.2666391678576918e+00  -5.0850159233009187e+00  -3.2716616708231716e+00  -2.7178534957613141e+00  -2.9160098340771659e+00  -3.0526295319750383e+00  -3.0963112902369443e+00  -3.0905266731336511e+00  -3.0820702926669199e+00  -3.0818191312505721e+00  -3.0846216199398460e+00  -3.0866020046919460e+00  -3.0873025098469609e+00  -3.0874662511102358e+00  -3.0875548806455142e+00  -3.0876279568404081e+00  -3.0877523651806595e+00  -4.3947561303231444e+00  9.0452318675576322e+00  -7.0863457577393507e-01  -4.0864718921058731e-03  -7.8369530083691181e+00  -4.3811614600134305e+00  -2.2805670807479479e+00  -2.7664107722258966e+00  -3.0312947964611539e+00  -3.1109894116031542e+00  -3.1033243031932845e+00  -3.0820206186189627e+00  -3.0785527988916721e+00  -3.0824816243633699e+00  -3.0858464446498388e+00  -3.0870521170346241e+00  -3.0872409255683495e+00  -3.0873254974183477e+00  -3.0874724690218840e+00  -3.0876085922445009e+00  -3.0876199515269858e+00  -4.7461143453076220e+00  5.3895671074269140e+00  9.0734170033295243e+00  -1.2598993225881467e+01  -7.6770911198729079e+00  -2.3236843030199541e+00  -2.5674104204611203e+00  -2.8451282673700691e+00  -3.0696568526699739e+00  -3.1431736697645567e+00  -3.1047457080371568e+00  -3.0818842374708946e+00  -3.0803888038205662e+00  -3.0846607495930427e+00  -3.0873121778056110e+00  -3.0877506373791643e+00  -3.0875860815523293e+00  -3.0875524748837195e+00  -3.0876471031782491e+00  -3.0877321524726451e+00  -3.0877779929075118e+00  -1.2888273827849815e+01  1.1405618103074893e+01  9.7245974052319148e+00  -1.7389502078820531e+01  -2.1582487075367975e+00  -3.6273640833160505e+00  -2.9164102815970105e+00  -2.8186968302314388e+00  -3.0792494664351611e+00  -3.1389860492764878e+00  -3.1075502441908904e+00  -3.0879888465530558e+00  -3.0836247784243174e+00  -3.0861724968629338e+00  -3.0879134002145157e+00  -3.0881007253501402e+00  -3.0878664629815429e+00  -3.0877487614267323e+00  -3.0877668129060218e+00  -3.0878178811844723e+00  -3.0878434942405373e+00  -2.0677646870452486e+00  1.3103121267346834e+01  2.0300887460553083e+00  3.8768817386230632e+00  -7.0629860212018087e+00  -3.9915907204102323e+00  -3.0879415622531741e+00  -2.9873843506872917e+00  -3.0474256778798008e+00  -3.0999358755876112e+00  -3.1149382208216161e+00  -3.0990403513796934e+00  -3.0897848660118017e+00  -3.0881351278366083e+00  -3.0883909755491352e+00  -3.0885451338478496e+00  -3.0883480224946780e+00  -3.0881184156247490e+00  -3.0880075088434200e+00  -3.0879803807412265e+00  -3.0879676351111587e+00  2.7961967578486082e+01  1.0985065260755462e+00  2.0009256325946332e+00  9.0819948654960054e+00  -6.1525403093895044e+00  -4.8442490323332867e+00  -3.6046681536613474e+00  -3.2417831163188309e+00  -2.9218173234104232e+00  -3.0432233271845970e+00  -3.1107559808410858e+00  -3.1072469324811598e+00  -3.0933963182777946e+00  -3.0865498150280750e+00  -3.0861597830776151e+00  -3.0871749657039067e+00  -3.0876092217164297e+00  -3.0876071593839840e+00  -3.0875464320496664e+00  -3.0875439630300390e+00  -3.0875562567683477e+00  1.0496934053699880e+01  3.8798433318883880e+00  7.7460935432863955e+00  5.3881433296420349e+00  -4.7313227872905100e-01  -4.2150183544603967e+00  -4.0039822702130285e+00  -2.9811209898857851e+00  -2.8254411760185167e+00  -2.9690222727174729e+00  -3.0642190892645496e+00  -3.0881617656337501e+00  -3.0836331095822556e+00  -3.0803736096252221e+00  -3.0820833758815445e+00  -3.0847933959113920e+00  -3.0863950533402398e+00  -3.0870059359395459e+00  -3.0872308715302172e+00  -3.0873363422384368e+00  -3.0873998843305985e+00  -3.3112016396126491e+00  6.9551059618042617e+00  6.8206798963979800e+00  2.7896094670215548e+00  -2.7431297732383277e+00  -5.2672847536647520e+00  -3.4600938962007310e+00  -2.6983938493952935e+00  -2.8821692742248755e+00  -3.0351493501140885e+00  -3.0923441730732999e+00  -3.0897582948005811e+00  -3.0806420078844883e+00  -3.0801703783261303e+00  -3.0833272037180133e+00  -3.0857909331934583e+00  -3.0868041961343855e+00  -3.0871164455914109e+00  -3.0872787645569919e+00  -3.0874080805834723e+00  -3.0874901890411617e+00  -1.2868381027856892e+00  7.1079923919217149e+00  1.0933272839756205e+00  1.6036113248228487e-01  -7.6838385711297716e+00  -4.7913591891611587e+00  -2.1871731033140267e+00  -2.7349154496268477e+00  -3.0133225521419242e+00  -3.1028251141028731e+00  -3.1017935607971627e+00  -3.0796133806820425e+00  -3.0763701636429857e+00  -3.0807625212543011e+00  -3.0846973680279115e+00  -3.0863327959744606e+00  -3.0867483562792399e+00  -3.0869589448089667e+00  -3.0871882909389767e+00  -3.0873675848984758e+00  -3.0874105767183426e+00  -1.2069915545386956e+00  4.4821554989049295e+00  8.2155793207971470e+0