<?xml version="1.0"?>
<VTKFile type="UnstructuredGrid"  version="0.1"  >
<UnstructuredGrid>
<Piece  NumberOfPoints="2976" NumberOfCells="13500">
<Points>
<DataArray  type="Float64"  NumberOfComponents="3"  format="ascii">0 0 0  0.3333333333333333 0 0  0.6666666666666666 0 0  1 0 0  1.333333333333333 0 0  1.666666666666667 0 0  2 0 0  2.333333333333333 0 0  2.666666666666667 0 0  3 0 0  3.333333333333333 0 0  3.666666666666667 0 0  4 0 0  4.333333333333333 0 0  4.666666666666667 0 0  5 0 0  5.333333333333333 0 0  5.666666666666667 0 0  6 0 0  6.333333333333333 0 0  6.666666666666667 0 0  7 0 0  7.333333333333333 0 0  7.666666666666667 0 0  8 0 0  8.333333333333334 0 0  8.666666666666666 0 0  9 0 0  9.333333333333334 0 0  9.666666666666666 0 0  10 0 0  0 0.2 0  0.3333333333333333 0.2 0  0.6666666666666666 0.2 0  1 0.2 0  1.333333333333333 0.2 0  1.666666666666667 0.2 0  2 0.2 0  2.333333333333333 0.2 0  2.666666666666667 0.2 0  3 0.2 0  3.333333333333333 0.2 0  3.666666666666667 0.2 0  4 0.2 0  4.333333333333333 0.2 0  4.666666666666667 0.2 0  5 0.2 0  5.333333333333333 0.2 0  5.666666666666667 0.2 0  6 0.2 0  6.333333333333333 0.2 0  6.666666666666667 0.2 0  7 0.2 0  7.333333333333333 0.2 0  7.666666666666667 0.2 0  8 0.2 0  8.333333333333334 0.2 0  8.666666666666666 0.2 0  9 0.2 0  9.333333333333334 0.2 0  9.666666666666666 0.2 0  10 0.2 0  0 0.4 0  0.3333333333333333 0.4 0  0.6666666666666666 0.4 0  1 0.4 0  1.333333333333333 0.4 0  1.666666666666667 0.4 0  2 0.4 0  2.333333333333333 0.4 0  2.666666666666667 0.4 0  3 0.4 0  3.333333333333333 0.4 0  3.666666666666667 0.4 0  4 0.4 0  4.333333333333333 0.4 0  4.666666666666667 0.4 0  5 0.4 0  5.333333333333333 0.4 0  5.666666666666667 0.4 0  6 0.4 0  6.333333333333333 0.4 0  6.666666666666667 0.4 0  7 0.4 0  7.333333333333333 0.4 0  7.666666666666667 0.4 0  8 0.4 0  8.333333333333334 0.4 0  8.666666666666666 0.4 0  9 0.4 0  9.333333333333334 0.4 0  9.666666666666666 0.4 0  10 0.4 0  0 0.6 0  0.3333333333333333 0.6 0  0.6666666666666666 0.6 0  1 0.6 0  1.333333333333333 0.6 0  1.666666666666667 0.6 0  2 0.6 0  2.333333333333333 0.6 0  2.666666666666667 0.6 0  3 0.6 0  3.333333333333333 0.6 0  3.666666666666667 0.6 0  4 0.6 0  4.333333333333333 0.6 0  4.666666666666667 0.6 0  5 0.6 0  5.333333333333333 0.6 0  5.666666666666667 0.6 0  6 0.6 0  6.333333333333333 0.6 0  6.666666666666667 0.6 0  7 0.6 0  7.333333333333333 0.6 0  7.666666666666667 0.6 0  8 0.6 0  8.333333333333334 0.6 0  8.666666666666666 0.6 0  9 0.6 0  9.333333333333334 0.6 0  9.666666666666666 0.6 0  10 0.6 0  0 0.8 0  0.3333333333333333 0.8 0  0.6666666666666666 0.8 0  1 0.8 0  1.333333333333333 0.8 0  1.666666666666667 0.8 0  2 0.8 0  2.333333333333333 0.8 0  2.666666666666667 0.8 0  3 0.8 0  3.333333333333333 0.8 0  3.666666666666667 0.8 0  4 0.8 0  4.333333333333333 0.8 0  4.666666666666667 0.8 0  5 0.8 0  5.333333333333333 0.8 0  5.666666666666667 0.8 0  6 0.8 0  6.333333333333333 0.8 0  6.666666666666667 0.8 0  7 0.8 0  7.333333333333333 0.8 0  7.666666666666667 0.8 0  8 0.8 0  8.333333333333334 0.8 0  8.666666666666666 0.8 0  9 0.8 0  9.333333333333334 0.8 0  9.666666666666666 0.8 0  10 0.8 0  0 1 0  0.3333333333333333 1 0  0.6666666666666666 1 0  1 1 0  1.333333333333333 1 0  1.666666666666667 1 0  2 1 0  2.333333333333333 1 0  2.666666666666667 1 0  3 1 0  3.333333333333333 1 0  3.666666666666667 1 0  4 1 0  4.333333333333333 1 0  4.666666666666667 1 0  5 1 0  5.333333333333333 1 0  5.666666666666667 1 0  6 1 0  6.333333333333333 1 0  6.666666666666667 1 0  7 1 0  7.333333333333333 1 0  7.666666666666667 1 0  8 1 0  8.333333333333334 1 0  8.666666666666666 1 0  9 1 0  9.333333333333334 1 0  9.666666666666666 1 0  10 1 0  0 1.2 0  0.3333333333333333 1.2 0  0.6666666666666666 1.2 0  1 1.2 0  1.333333333333333 1.2 0  1.666666666666667 1.2 0  2 1.2 0  2.333333333333333 1.2 0  2.666666666666667 1.2 0  3 1.2 0  3.333333333333333 1.2 0  3.666666666666667 1.2 0  4 1.2 0  4.333333333333333 1.2 0  4.666666666666667 1.2 0  5 1.2 0  5.333333333333333 1.2 0  5.666666666666667 1.2 0  6 1.2 0  6.333333333333333 1.2 0  6.666666666666667 1.2 0  7 1.2 0  7.333333333333333 1.2 0  7.666666666666667 1.2 0  8 1.2 0  8.333333333333334 1.2 0  8.666666666666666 1.2 0  9 1.2 0  9.333333333333334 1.2 0  9.666666666666666 1.2 0  10 1.2 0  0 1.4 0  0.3333333333333333 1.4 0  0.6666666666666666 1.4 0  1 1.4 0  1.333333333333333 1.4 0  1.666666666666667 1.4 0  2 1.4 0  2.333333333333333 1.4 0  2.666666666666667 1.4 0  3 1.4 0  3.333333333333333 1.4 0  3.666666666666667 1.4 0  4 1.4 0  4.333333333333333 1.4 0  4.666666666666667 1.4 0  5 1.4 0  5.333333333333333 1.4 0  5.666666666666667 1.4 0  6 1.4 0  6.333333333333333 1.4 0  6.666666666666667 1.4 0  7 1.4 0  7.333333333333333 1.4 0  7.666666666666667 1.4 0  8 1.4 0  8.333333333333334 1.4 0  8.666666666666666 1.4 0  9 1.4 0  9.333333333333334 1.4 0  9.666666666666666 1.4 0  10 1.4 0  0 1.6 0  0.3333333333333333 1.6 0  0.6666666666666666 1.6 0  1 1.6 0  1.333333333333333 1.6 0  1.666666666666667 1.6 0  2 1.6 0  2.333333333333333 1.6 0  2.666666666666667 1.6 0  3 1.6 0  3.333333333333333 1.6 0  3.666666666666667 1.6 0  4 1.6 0  4.333333333333333 1.6 0  4.666666666666667 1.6 0  5 1.6 0  5.333333333333333 1.6 0  5.666666666666667 1.6 0  6 1.6 0  6.333333333333333 1.6 0  6.666666666666667 1.6 0  7 1.6 0  7.333333333333333 1.6 0  7.666666666666667 1.6 0  8 1.6 0  8.333333333333334 1.6 0  8.666666666666666 1.6 0  9 1.6 0  9.333333333333334 1.6 0  9.666666666666666 1.6 0  10 1.6 0  0 1.8 0  0.3333333333333333 1.8 0  0.6666666666666666 1.8 0  1 1.8 0  1.333333333333333 1.8 0  1.666666666666667 1.8 0  2 1.8 0  2.333333333333333 1.8 0  2.666666666666667 1.8 0  3 1.8 0  3.333333333333333 1.8 0  3.666666666666667 1.8 0  4 1.8 0  4.333333333333333 1.8 0  4.666666666666667 1.8 0  5 1.8 0  5.333333333333333 1.8 0  5.666666666666667 1.8 0  6 1.8 0  6.333333333333333 1.8 0  6.666666666666667 1.8 0  7 1.8 0  7.333333333333333 1.8 0  7.666666666666667 1.8 0  8 1.8 0  8.333333333333334 1.8 0  8.666666666666666 1.8 0  9 1.8 0  9.333333333333334 1.8 0  9.666666666666666 1.8 0  10 1.8 0  0 2 0  0.3333333333333333 2 0  0.6666666666666666 2 0  1 2 0  1.333333333333333 2 0  1.666666666666667 2 0  2 2 0  2.333333333333333 2 0  2.666666666666667 2 0  3 2 0  3.333333333333333 2 0  3.666666666666667 2 0  4 2 0  4.333333333333333 2 0  4.666666666666667 2 0  5 2 0  5.333333333333333 2 0  5.666666666666667 2 0  6 2 0  6.333333333333333 2 0  6.666666666666667 2 0  7 2 0  7.333333333333333 2 0  7.666666666666667 2 0  8 2 0  8.333333333333334 2 0  8.666666666666666 2 0  9 2 0  9.333333333333334 2 0  9.666666666666666 2 0  10 2 0  0 2.2 0  0.3333333333333333 2.2 0  0.6666666666666666 2.2 0  1 2.2 0  1.333333333333333 2.2 0  1.666666666666667 2.2 0  2 2.2 0  2.333333333333333 2.2 0  2.666666666666667 2.2 0  3 2.2 0  3.333333333333333 2.2 0  3.666666666666667 2.2 0  4 2.2 0  4.333333333333333 2.2 0  4.666666666666667 2.2 0  5 2.2 0  5.333333333333333 2.2 0  5.666666666666667 2.2 0  6 2.2 0  6.333333333333333 2.2 0  6.666666666666667 2.2 0  7 2.2 0  7.333333333333333 2.2 0  7.666666666666667 2.2 0  8 2.2 0  8.333333333333334 2.2 0  8.666666666666666 2.2 0  9 2.2 0  9.333333333333334 2.2 0  9.666666666666666 2.2 0  10 2.2 0  0 2.4 0  0.3333333333333333 2.4 0  0.6666666666666666 2.4 0  1 2.4 0  1.333333333333333 2.4 0  1.666666666666667 2.4 0  2 2.4 0  2.333333333333333 2.4 0  2.666666666666667 2.4 0  3 2.4 0  3.333333333333333 2.4 0  3.666666666666667 2.4 0  4 2.4 0  4.333333333333333 2.4 0  4.666666666666667 2.4 0  5 2.4 0  5.333333333333333 2.4 0  5.666666666666667 2.4 0  6 2.4 0  6.333333333333333 2.4 0  6.666666666666667 2.4 0  7 2.4 0  7.333333333333333 2.4 0  7.666666666666667 2.4 0  8 2.4 0  8.333333333333334 2.4 0  8.666666666666666 2.4 0  9 2.4 0  9.333333333333334 2.4 0  9.666666666666666 2.4 0  10 2.4 0  0 2.6 0  0.3333333333333333 2.6 0  0.6666666666666666 2.6 0  1 2.6 0  1.333333333333333 2.6 0  1.666666666666667 2.6 0  2 2.6 0  2.333333333333333 2.6 0  2.666666666666667 2.6 0  3 2.6 0  3.333333333333333 2.6 0  3.666666666666667 2.6 0  4 2.6 0  4.333333333333333 2.6 0  4.666666666666667 2.6 0  5 2.6 0  5.333333333333333 2.6 0  5.666666666666667 2.6 0  6 2.6 0  6.333333333333333 2.6 0  6.666666666666667 2.6 0  7 2.6 0  7.333333333333333 2.6 0  7.666666666666667 2.6 0  8 2.6 0  8.333333333333334 2.6 0  8.666666666666666 2.6 0  9 2.6 0  9.333333333333334 2.6 0  9.666666666666666 2.6 0  10 2.6 0  0 2.8 0  0.3333333333333333 2.8 0  0.6666666666666666 2.8 0  1 2.8 0  1.333333333333333 2.8 0  1.666666666666667 2.8 0  2 2.8 0  2.333333333333333 2.8 0  2.666666666666667 2.8 0  3 2.8 0  3.333333333333333 2.8 0  3.666666666666667 2.8 0  4 2.8 0  4.333333333333333 2.8 0  4.666666666666667 2.8 0  5 2.8 0  5.333333333333333 2.8 0  5.666666666666667 2.8 0  6 2.8 0  6.333333333333333 2.8 0  6.666666666666667 2.8 0  7 2.8 0  7.333333333333333 2.8 0  7.666666666666667 2.8 0  8 2.8 0  8.333333333333334 2.8 0  8.666666666666666 2.8 0  9 2.8 0  9.333333333333334 2.8 0  9.666666666666666 2.8 0  10 2.8 0  0 3 0  0.3333333333333333 3 0  0.6666666666666666 3 0  1 3 0  1.333333333333333 3 0  1.666666666666667 3 0  2 3 0  2.333333333333333 3 0  2.666666666666667 3 0  3 3 0  3.333333333333333 3 0  3.666666666666667 3 0  4 3 0  4.333333333333333 3 0  4.666666666666667 3 0  5 3 0  5.333333333333333 3 0  5.666666666666667 3 0  6 3 0  6.333333333333333 3 0  6.666666666666667 3 0  7 3 0  7.333333333333333 3 0  7.666666666666667 3 0  8 3 0  8.333333333333334 3 0  8.666666666666666 3 0  9 3 0  9.333333333333334 3 0  9.666666666666666 3 0  10 3 0  0 0 0.1  0.3333333333333333 0 0.1  0.6666666666666666 0 0.1  1 0 0.1  1.333333333333333 0 0.1  1.666666666666667 0 0.1  2 0 0.1  2.333333333333333 0 0.1  2.666666666666667 0 0.1  3 0 0.1  3.333333333333333 0 0.1  3.666666666666667 0 0.1  4 0 0.1  4.333333333333333 0 0.1  4.666666666666667 0 0.1  5 0 0.1  5.333333333333333 0 0.1  5.666666666666667 0 0.1  6 0 0.1  6.333333333333333 0 0.1  6.666
[...]
<PointData  Scalars="f_7-1"> 
<DataArray  type="Float64"  Name="f_7-1"  format="ascii">1.3940041290673397e+00  3.1678140744471078e-01  6.8980896665587121e-01  7.1127992958687936e-01  6.9286901892246888e-01  6.9893535691627018e-01  6.8640719704775432e-01  6.5899167877379683e-01  5.4955016804415879e-01  3.8827222033985642e-01  2.7802937640992559e-01  2.4736018521270642e-01  2.6069314875585708e-01  2.8566897316735496e-01  3.0932952426128102e-01  3.2777166977802147e-01  3.3974936642446446e-01  3.4550555809717426e-01  3.4650664670582010e-01  3.4475027543696901e-01  3.4199083456838836e-01  3.3935047514944672e-01  3.3734433988512613e-01  3.3608255185466146e-01  3.3546191536659636e-01  3.3529510197212620e-01  3.3538844495661030e-01  3.3558457621214627e-01  3.3578100992527499e-01  3.3591058080260244e-01  3.3594470450771141e-01  2.9202319490090449e+00  6.7347051703631267e-01  7.6073765353786738e-01  6.7831927886269283e-01  7.1272004896704477e-01  6.9707879940830031e-01  6.8465333058431210e-01  6.1291119024975849e-01  4.6317321401357803e-01  3.2014194008790103e-01  2.5560238612459418e-01  2.5470506906082269e-01  2.7606174076609408e-01  2.9963302886444260e-01  3.1977456810277910e-01  3.3442913771502403e-01  3.4291695654932225e-01  3.4597963974362528e-01  3.4537290868120307e-01  3.4301390023880185e-01  3.4032297329896843e-01  3.3806333871793720e-01  3.3650041354224625e-01  3.3561453131672048e-01  3.3525449985045080e-01  3.3523214671929119e-01  3.3537811684843222e-01  3.3557025084453568e-01  3.3573525229504686e-01  3.3583616729565130e-01  3.3587519122113396e-01  1.8265032428811809e+00  1.5537651728995323e+00  5.5179530657105280e-01  7.8665868451624288e-01  7.1203379831768976e-01  7.1227968182813872e-01  6.8093020462502785e-01  5.3838829118517140e-01  3.4935449491832266e-01  2.4072182431208475e-01  2.3244947859141127e-01  2.6185633811521608e-01  2.9043136379428064e-01  3.1297372276540675e-01  3.3017312492079159e-01  3.4136790114311916e-01  3.4641536018389635e-01  3.4667432831406164e-01  3.4433244604086288e-01  3.4128987168474129e-01  3.3862934601460060e-01  3.3673699535261986e-01  3.3561729286139458e-01  3.3511474731098895e-01  3.3502563777875616e-01  3.3515757798193802e-01  3.3536394124507096e-01  3.3555574037245656e-01  3.3569312469330970e-01  3.3577213782273663e-01  3.3579977531948335e-01  2.3565053945323475e+00  1.2905759740779088e+00  1.2264405546199009e+00  7.4203794670259293e-01  7.4404680640738685e-01  7.4350419802481238e-01  6.4299449650706419e-01  4.2101739702534757e-01  2.2628850844403720e-01  1.7480042602279255e-01  2.1546039620908633e-01  2.6648639349895681e-01  3.0230817277145072e-01  3.2578682832844802e-01  3.4086966314786854e-01  3.4860858154835883e-01  3.5001162977199907e-01  3.4736287258365267e-01  3.4328908684819043e-01  3.3957910537366198e-01  3.3694146249032336e-01  3.3540168604644538e-01  3.3471902859453900e-01  3.3460199925008327e-01  3.3478853660755320e-01  3.3507854268873150e-01  3.3534727493595151e-01  3.3553981681156037e-01  3.3565229323092005e-01  3.3570641052858885e-01  3.3572090833478724e-01  2.1512515666216934e+00  1.1064167386856589e+00  1.6222805322994902e+00  8.6751928461164607e-01  8.2955572679022260e-01  7.5076431300146562e-01  5.5001369921361687e-01  2.6997114455916382e-01  1.2081152847654779e-01  1.3295038728270456e-01  2.0323890906169945e-01  2.6701276856592476e-01  3.1081168952369503e-01  3.3732159153465918e-01  3.5115267211779705e-01  3.5545855774523949e-01  3.5320314245171319e-01  3.4783982822129367e-01  3.4225908381250131e-01  3.3798893386739093e-01  3.3537466168798236e-01  3.3414941952817462e-01  3.3386798516608462e-01  3.3411134413812710e-01  3.3455667047005888e-01  3.3499412139691898e-01  3.3532017134113834e-01  3.3551384395659212e-01  3.3560371627538121e-01  3.3563389808051436e-01  3.3563769896880807e-01  1.9595002458435471e+00  1.1819265847772520e+00  1.4655134856755798e+00  1.3968709817700322e+00  8.7551219407917147e-01  7.3308876704126669e-01  3.9162955513923775e-01  1.1637029984453895e-01  5.2142701381768276e-02  1.1219384057262542e-01  1.9394453239009435e-01  2.6462515588956165e-01  3.1601540776564624e-01  3.4675032053655364e-01  3.6010075138644343e-01  3.6123001551341888e-01  3.5565666130243306e-01  3.4804595708428548e-01  3.4130825733548853e-01  3.3661824549392833e-01  3.3402441396676702e-01  3.3305641948349374e-01  3.3311424371467885e-01  3.3366771887168478e-01  3.3433608634383466e-01  3.3489952149508034e-01  3.3527411699142184e-01  3.3546937608418487e-01  3.3554053255509286e-01  3.3555110859776693e-01  3.3554699131502075e-01  1.9196417340927763e+00  1.1725893930842013e+00  1.3478626447309978e+00  1.6748764495094812e+00  1.1565224765772015e+00  6.2877258213155729e-01  1.9309115395934540e-01  1.9450289050816612e-03  2.1466613583917663e-02  1.0371378501763165e-01  1.8713808905514395e-01  2.6148856587209257e-01  3.1861510651775155e-01  3.5326156962656075e-01  3.6655213665102770e-01  3.6520815268180956e-01  3.5715189334034481e-01  3.4799484435359745e-01  3.4050722756534590e-01  3.3554714797486601e-01  3.3297155030566400e-01  3.3219163509010508e-01  3.3250375727407661e-01  3.3329262767369505e-01  3.3413023614917370e-01  3.3478886815380549e-01  3.3520073633156755e-01  3.3539857933504058e-01  3.3545741827207609e-01  3.3545517655777929e-01  3.3544621803023766e-01  1.9119094317743817e+00  1.1427495414335616e+00  1.3440983356501763e+00  1.6652416729600588e+00  1.5803457307815545e+00  4.5309895628241004e-01  3.1002417152356652e-02  -5.3712847379323282e-02  1.6171318118306688e-02  1.0080102374718497e-01  1.8356523600054581e-01  2.5951631034070327e-01  3.1951928107223732e-01  3.5620150721941002e-01  3.6943401990068225e-01  3.6683754028448040e-01  3.5759633155370046e-01  3.4773629231002978e-01  3.3991129458225777e-01  3.3482975794745945e-01  3.3227445032455388e-01  3.3160752168971575e-01  3.3207139462081470e-01  3.3300100401199401e-01  3.3393989670710678e-01  3.3465637393767872e-01  3.3509312768537480e-01  3.3529574441769733e-01  3.3535093227256985e-01  3.3534416518642229e-01  3.3533380213460162e-01  1.9685946969985226e+00  1.1098771487201522e+00  1.3643941180494883e+00  1.6547952452799946e+00  1.6647209095901945e+00  4.6090971363800165e-01  -5.2623130598054076e-02  -5.2536313917966204e-02  2.2147017582155936e-02  1.0159483134663168e-01  1.8398644515009910e-01  2.5969797332816674e-01  3.1924117464029589e-01  3.5518430452962985e-01  3.6816556770942865e-01  3.6585856420826840e-01  3.5696765774736250e-01  3.4729727339509303e-01  3.3954286846163162e-01  3.3449145939293429e-01  3.3196476393465518e-01  3.3133401091818204e-01  3.3183686081259889e-01  3.3280050869155470e-01  3.3376457932042181e-01  3.3449829800125819e-01  3.3494718481353108e-01  3.3515818800079111e-01  3.3521957174326100e-01  3.3521720569583185e-01  3.3520908300744373e-01  2.1032915731554818e+00  1.0419406918279235e+00  1.4517445438306165e+00  1.6428807687751117e+00  1.3801815473603967e+00  6.2178026405062392e-01  1.1410823972067264e-02  -1.1776144065370508e-02  3.2683859619030350e-02  1.0766888322723399e-01  1.8845000580888263e-01  2.6199440018042103e-01  3.1753560165523353e-01  3.5017690741896962e-01  3.6290491851856049e-01  3.6236794473168582e-01  3.5526922933664917e-01  3.4665611344238617e-01  3.3938949134834634e-01  3.3453010179520243e-01  3.3204517986269405e-01  3.3137437348379450e-01  3.3180166492304836e-01  3.3269080207684160e-01  3.3360329248013137e-01  3.3431392743115756e-01  3.3476249665122604e-01  3.3498649037496464e-01  3.3506383125090317e-01  3.3507457279499642e-01  3.3507229577394304e-01  2.1426161236076799e+00  1.0025484034536052e+00  1.5657071043030324e+00  1.5031654795690392e+00  1.0210151642874237e+00  6.9071768262196309e-01  2.6444125560373544e-01  4.8983524413768548e-02  5.5546534820506678e-02  1.1986463445958112e-01  1.9678284138469279e-01  2.6527029235279798e-01  3.1352142455462090e-01  3.4158409986100308e-01  3.5448248868718113e-01  3.5676932493282498e-01  3.5252926828838371e-01  3.4575147981181398e-01  3.3940629210160522e-01  3.3491537643056002e-01  3.3248858981372614e-01  3.3170461475490071e-01  3.3194906825327836e-01  3.3266404154745843e-01  3.3345512605078653e-01  3.3410591425692804e-01  3.3454297700485264e-01  3.3478356505290180e-01  3.3488642850717898e-01  3.3491780701302193e-01  3.3492446934073350e-01  1.8654655685556578e+00  1.1626284334443635e+00  1.6030441492769298e+00  1.1926498512081480e+00  7.6499720276256067e-01  6.9802838639430165e-01  5.2695978845548297e-01  1.6914190875474663e-01  9.6842030083170091e-02  1.3922411275573168e-01  2.0845440286836067e-01  2.6725170351893851e-01  3.0625051161369476e-01  3.3021061323333917e-01  3.4404240044315404e-01  3.4965522803789884e-01  3.4886405425307826e-01  3.4453951893853885e-01  3.3953650249995981e-01  3.3559493221528119e-01  3.3324141959892373e-01  3.3227600953971659e-01  3.3224521076381913e-01  3.3270433329382681e-01  3.3331775190861246e-01  3.3387895209741902e-01  3.3429514580222341e-01  3.3455491582440694e-01  3.3469251341396045e-01  3.3474934142516111e-01  3.3476733653025359e-01  1.1372400182483526e+00  1.4272275639921999e+00  1.4493632874797795e+00  8.1523550112835119e-01  6.8139973485684280e-01  7.1247404329611430e-01  6.4557318394744712e-01  3.5802618709235012e-01  1.6427127011363646e-01  1.7013095222049607e-01  2.2159881042574786e-01  2.6568574779132226e-01  2.9556736093889180e-01  3.1718035787776727e-01  3.3267980895020416e-01  3.4166984679613893e-01  3.4449619089582101e-01  3.4301217025347608e-01  3.3970275148910434e-01  3.3648136814178209e-01  3.3421937561125770e-01  3.3301877764059090e-01  3.3264502308082999e-01  3.3279207162352892e-01  3.3318967521348841e-01  3.3364040929548561e-01  3.3402861341211609e-01  3.3430981466800941e-01  3.3448519809942984e-01  3.3457363237867110e-01  3.3460415198794086e-01  4.8241069562470507e-01  1.7131598304543245e+00  9.8179037742708331e-01  6.0398955428526024e-01  7.0882000973407056e-01  7.0908958092818308e-01  6.6806209931873717e-01  5.2479968412849920e-01  2.7832290944252652e-01  2.1301874860380549e-01  2.3274404392532380e-01  2.5874005459679689e-01  2.8188674808766506e-01  3.0323956654118794e-01  3.2099823853127263e-01  3.3334987623634782e-01  3.3978693138865895e-01  3.4131430534044582e-01  3.3991199239654307e-01  3.3751902446922455e-01  3.3534573293516018e-01  3.3386120941714653e-01  3.3309693949081148e-01  3.3289907709491762e-01  3.3306122749459038e-01  3.3339180509662930e-01  3.3375003537715386e-01  3.3405386998807002e-01  3.3427100923371489e-01  3.3440035314416500e-01  3.3443602940988870e-01  2.4352916675495733e+00  1.3945520622521490e+00  4.4834476486197483e-01  6.6629782222534450e-01  7.1790021959598915e-01  6.9617601609281299e-01  6.7893233620291071e-01  6.1400185115335171e-01  4.2052977483257997e-01  2.7089948108297746e-01  2.4151401602980913e-01  2.4805597306794369e-01  2.6714985177012890e-01  2.8941590786574123e-01  3.0968791817076696e-01  3.2530205643489962e-01  3.3515059863363739e-01  3.3958339459289305e-01  3.4009537312083687e-01  3.3855955514502539e-01  3.3647797354954700e-01  3.3470022616050599e-01  3.3354113469113905e-01  3.3300024879083090e-01  3.3293028840059480e-01  3.3314331137987524e-01  3.3347291086067143e-01  3.3380070007409540e-01  3.3406298875091323e-01  3.3422124212920018e-01  3.3426788392318935e-01  5.8217348972561220e+00  -7.5031102909454850e-01  5.2007688966765542e-01  7.2796838806632558e-01  7.0432185527746116e-01  6.9044522524988772e-01  6.8670465499973554e-01  6.5094564367188334e-01  5.3205877951730407e-01  3.3584810233133955e-01  2.4461655548263919e-01  2.3441240604208713e-01  2.5163615641394482e-01  2.7544347358442445e-01  2.9858008721887652e-01  3.1762542193764826e-01  3.3087601727449978e-01  3.3810426814079264e-01  3.4040804701011668e-01  3.3963498698644246e-01  3.3758678418075294e-01  3.3549175375120294e-01  3.3393853775122367e-01  3.3306716659612590e-01  3.3277980507963245e-01  3.3288707892162600e-01  3.3319502112258670e-01  3.3355030736447133e-01  3.3385368686865646e-01  3.3404536511306643e-01  3.3413037530822493e-01  2.1659269753970074e+00  -5.4380646903277353e-02  8.0897725482868166e-01  7.2025532462706610e-01  6.9258416872784045e-01  6.9703367460630095e-01  6.7895920286030498e-01  6.6287654256979012e-01  5.6610638175977068e-01  3.9887490764128675e-01  2.7596619400780359e-01  2.4133704964920807e-01  2.5636771498940097e-01  2.8309240403183517e-01  3.0771252510837804e-01  3.2684762658290822e-01  3.3942528962444091e-01  3.4561104888422850e-01  3.4681186902025052e-01  3.4506973795790913e-01  3.4223273556410716e-01  3.3949675858392586e-01  3.3741111345671809e-01  3.3609469006703790e-01  3.3544323977251711e-01  3.3526496844032605e-01  3.3536004358278415e-01  3.3556467088841885e-01  3.3577031641968219e-01  3.3590900785429600e-01  3.3594417637237711e-01  5.0925170231800267e+00  4.3181516884400412e-01  8.7840554547558569e-01  6.1799848990274531e-01  7.1920123578652895e-01  6.9280677684342196e-01  6.9104920036744855e-01  6.3118775124578264e-01  4.7960468670382583e-01  3.2061545420094817e-01  2.4757974058265761e-01  2.5064160998236634e-01  2.7588585853433567e-01  3.0019996184153269e-01  3.2025077864817686e-01  3.3485724159532043e-01  3.4333237025695168e-01  3.4632486541019847e-01  3.4558844648486164e-01  3.4309900366322338e-01  3.4032174958683281e-01  3.3802351223656363e-01  3.3645230244388197e-01  3.3557251254916937e-01  3.3522402016126196e-01  3.3521392853332899e-01  3.3537018574310035e-01  3.3556926442849633e-01  3.3573769189296571e-01  3.3584111999249933e-01  3.3588596534235438e-01  2.7312617617313655e+00  1.8071097319134397e+00  7.4337842992699618e-02  8.8019512520164145e-01  6.8386944764387136e-01  7.1374284192274473e-01  6.9899293303669452e-01  5.6338094983248366e-01  3.5307345445945670e-01  2.2355811662194050e-01  2.2096783293801198e-01  2.6179986492281165e-01  2.9279425331836711e-01  3.1437642664417043e-01  3.3101010774647271e-01  3.4207822309026104e-01  3.4702019503907516e-01  3.4705662301321882e-01  3.4446212266251303e-01  3.4125010369832937e-01  3.3852627519864570e-01  3.3663539568472045e-01  3.3554015328716813e-01  3.3506510337334028e-01  3.3499995146365275e-01  3.3514984209366933e-01  3.3536714529440970e-01  3.3556351852000499e-01  3.3570141743101189e-01  3.3578015522199589e-01  3.3580842629351237e-01  3.5275880625333516e+00  1.1582100934516590e+00  1.5128422731669808e+00  5.1723566404448695e-01  7.5525409163545210e-01  7.5097001817343156e-01  6.7276198619427274e-01  4.4018339672111945e-01  2.0992017081946224e-01  1.5026480943083387e-01  2.0832843253751909e-01  2.6909550841384522e-01  3.0536929545777025e-01  3.2765837365370759e-01  3.4212667841130351e-01  3.4966194277970247e-01  3.5080346283805092e-01  3.4775481187074897e-01  3.4332773817246726e-01  3.3943514078192649e-01  3.3676128157358187e-01  3.3525395935542796e-01  3.3461966460021075e-01  3.3454665338340606e-01  3.3476724360914856e-01  3.3507966653519033e-01  3.3535951936745584e-01  3.3555441055309715e-01  3.3566446440621395e-01  3.3571589582758710e-01  3.3572847485195872e-01  3.1382841422099368e+00  8.2521357666714201e-01  1.9704108755386951e+00  6.7102051166741350e-01  8.3998142175956902e-01  7.6245775888167377e-01  5.8673510184580058e-01  2.6810261618188286e-01  8.7043996994281614e-02  1.1147420370276762e-01  2.0037788456851613e-01  2.6959069269703928e-01  3.1398416179573457e-01  3.3987520364914264e-01  3.5306483539143402e-01  3.5691539675790646e-01  3.5411670982032878e-01  3.4817263222752282e-01  3.4218508978370266e-01  3.3774590870522514e-01  3.3512353273367163e-01  3.3395739749367687e-01  3.3374740899066985e-01  3.3405231898466858e-01  3.3454215712286606e-01  3.3500582057107892e-01  3.3534220956367039e-01  3.3553525146260244e-01  3.3561961450095268e-01  3.3564445699568790e-01  3.3564481919294786e-01  2.8634086917743016e+00  9.9566962683998483e-01  1.5847131599366353e+00  1.5418797130167412e+00  7.1374112047943650e-01  7.9248377528343261e-01  4.0768376013394508e-01  8.4334924463901714e-02  1.3606929606909991e-02  1.0028149793980110e-01  1.9298879175576891e-01  2.6616347145297425e-01  3.1900037956828675e-01  3.4997157328007711e-01  3.6281161156853681e-01  3.6310703390256732e-01  3.5662061053639482e-01  3.4827914412019856e-01  3.4112866496694755e-01  3.3629554572605552e-01  3.3371427844371981e-01  3.3282466031162516e-01  3.3297416612921615e-01  3.3360608031980732e-01  3.3432890430343165e-01  3.3492163565629984e-01  3.3530519842234002e-01  3.3549677861890426e-01  3.3555948500996546e-01  3.3556216662272276e-01  3.3555383490567325e-01  2.7956891901163945e+00  9.8848212944094638e-01  1.4107880221975480e+00  1.8092048876835067e+00  1.1622851775049623e+00  6.1085742810954125e-01  1.7540574136544215e-01  -5.5024359273773124e-02  -5.8566651271234459e-03  9.9520507452463033e-02  1.8573999541636060e-01  2.6205352419413874e-01  3.2127974906642598e-01  3.5702820925743689e-01  3.6999639459265804e-01  3.6741028887588106e-01  3.5809765750853056e-01  3.4812524038105891e-01  3.4025045949255101e-01  3.3517125067938414e-01  3.3261919577295235e-01  3.3192960727452059e-01  3.3234899356068287e-01  3.3323010366853678e-01  3.3412995887283153e-01  3.3481976738073665e-01  3.3523894314725272e-01  3.3543040994638262e-01  3.3547836907857931e-01  3.3546640893006829e-01  3.3545293708507434e-01  2.7668110362593712e+00  9.6044606465525284e-01  1.4169705877494883e+00  1.6831572861099340e+00  1.8449613479628129e+00  2.9530610678339386e-01  -3.1554133506761319e-02  -1.1491117537411827e-01  5.7834260000583565e-03  9.7962915894875408e-02  1.8142286625824369e-01  2.5962347081290887e-01  3.2201545658292829e-01  3.6031574530573823e-01  3.7328176711344546e-01  3.6917691788222279e-01  3.5850226228307014e-01  3.4780897337619199e-01  3.3961957137960952e-01  3.3442842171540466e-01  3.3189923261360782e-01  3.3132844737173561e-01  3.3190891944266371e-01  3.3293914572107586e-01  3.3394460653424440e-01  3.3469281093310571e-01  3.3513551926917268e-01  3.3532989851419248e-01  3.3537274289127161e-01  3.3535539733266007e-01  3.3534049310310493e-01  2.8196462794269408e+00  9.3118486241474807e-01  1.4308469619592585e+00  1.6670426328466357e+00  1.9280853477017728e+00  3.8016813435189656e-01  -2.1776504511721881e-01  -8.3626640506460584e-02  1.7154048898245674e-02  9.6849770354862988e-02  1.8182083297666601e-01  2.5980691467686362e-01  3.2191764343747098e-01  3.5937244661058959e-01  3.7191806034805097e-01  3.6810926151238954e-01  3.5785411023553465e-01  3.4738112153988360e-01  3.3925989075703961e-01  3.3409146510787163e-01  3.3158788212864199e-01  3.3105386667275438e-01  3.3167521302639774e-01  3.3274076376831069e-01  3.3377140407974615e-01  3.3453606768276667e-01  3.3499021703065990e-01  3.3519241044441211e-01  3.3524109245895911e-01  3.3522828416534672e-01  3.3521589716249717e-01  2.9723464403576902e+00  8.4938634239114486e-01  1.5330334041670886e+00  1.6968193034153580e+00  1.5027729079790542e+00  6.4237495733527616e-01  -1.5741587175786145e-01  -2.7436506537141182e-02  2.0613657287024412e-02  1.0217324501335479e-01  1.8633022820648451e-01  2.6267027097183143e-01  3.2069543883613194e-01  3.5408442451083094e-01  3.6608722668555299e-01  3.6434199060070466e-01  3.5616070407293005e-01  3.4680975237576445e-01  3.3915367956585302e-01  3.3415777656604401e-01  3.3168862697142604e-01  3.3110990160837456e-01  3.3164967793380845e-01  3.3263446069352370e-01  3.3360908395863448e-01  3.3434873077719512e-01  3.3480250147822849e-01  3.3501863093100304e-01  3.3508398591085886e-01  3.3508531947252279e-01  3.3507941194120544e-01  3.0422962736230623e+00  7.7461222585305400e-01  1.6919903015902078e+00  1.5852945467650850e+00  1.0259676986675814e+00  6.7462899058454018e-01  2.5312612026682207e-01  -3.2423763015282849e-03  3.8393186109563007e-02  1.1312746340359291e-01  1.9473256141537801e-01  2.6710183543681060e-01  3.1711040913689403e-01  3.4482373113341980e-01  3.5683224566371780e-01  3.5837141463454436e-01  3.5341429507040395e-01  3.4599836664110051e-01  3.3924781880604088e-01  3.3459723380830503e-01  3.3217401183804662e-01  3.3147116283450045e-01  3.3181435034579509e-01  3.