<?xml version="1.0"?>
<VTKFile type="UnstructuredGrid"  version="0.1"  >
<UnstructuredGrid>
<Piece  NumberOfPoints="588" NumberOfCells="2160">
<Points>
<DataArray  type="Float64"  NumberOfComponents="3"  format="ascii">0 0 0  0.5 0 0  1 0 0  1.5 0 0  2 0 0  2.5 0 0  3 0 0  3.5 0 0  4 0 0  4.5 0 0  5 0 0  5.5 0 0  6 0 0  6.5 0 0  7 0 0  7.5 0 0  8 0 0  8.5 0 0  9 0 0  9.5 0 0  10 0 0  0 0.5 0  0.5 0.5 0  1 0.5 0  1.5 0.5 0  2 0.5 0  2.5 0.5 0  3 0.5 0  3.5 0.5 0  4 0.5 0  4.5 0.5 0  5 0.5 0  5.5 0.5 0  6 0.5 0  6.5 0.5 0  7 0.5 0  7.5 0.5 0  8 0.5 0  8.5 0.5 0  9 0.5 0  9.5 0.5 0  10 0.5 0  0 1 0  0.5 1 0  1 1 0  1.5 1 0  2 1 0  2.5 1 0  3 1 0  3.5 1 0  4 1 0  4.5 1 0  5 1 0  5.5 1 0  6 1 0  6.5 1 0  7 1 0  7.5 1 0  8 1 0  8.5 1 0  9 1 0  9.5 1 0  10 1 0  0 1.5 0  0.5 1.5 0  1 1.5 0  1.5 1.5 0  2 1.5 0  2.5 1.5 0  3 1.5 0  3.5 1.5 0  4 1.5 0  4.5 1.5 0  5 1.5 0  5.5 1.5 0  6 1.5 0  6.5 1.5 0  7 1.5 0  7.5 1.5 0  8 1.5 0  8.5 1.5 0  9 1.5 0  9.5 1.5 0  10 1.5 0  0 2 0  0.5 2 0  1 2 0  1.5 2 0  2 2 0  2.5 2 0  3 2 0  3.5 2 0  4 2 0  4.5 2 0  5 2 0  5.5 2 0  6 2 0  6.5 2 0  7 2 0  7.5 2 0  8 2 0  8.5 2 0  9 2 0  9.5 2 0  10 2 0  0 2.5 0  0.5 2.5 0  1 2.5 0  1.5 2.5 0  2 2.5 0  2.5 2.5 0  3 2.5 0  3.5 2.5 0  4 2.5 0  4.5 2.5 0  5 2.5 0  5.5 2.5 0  6 2.5 0  6.5 2.5 0  7 2.5 0  7.5 2.5 0  8 2.5 0  8.5 2.5 0  9 2.5 0  9.5 2.5 0  10 2.5 0  0 3 0  0.5 3 0  1 3 0  1.5 3 0  2 3 0  2.5 3 0  3 3 0  3.5 3 0  4 3 0  4.5 3 0  5 3 0  5.5 3 0  6 3 0  6.5 3 0  7 3 0  7.5 3 0  8 3 0  8.5 3 0  9 3 0  9.5 3 0  10 3 0  0 0 0.1666666666666667  0.5 0 0.1666666666666667  1 0 0.1666666666666667  1.5 0 0.1666666666666667  2 0 0.1666666666666667  2.5 0 0.1666666666666667  3 0 0.1666666666666667  3.5 0 0.1666666666666667  4 0 0.1666666666666667  4.5 0 0.1666666666666667  5 0 0.1666666666666667  5.5 0 0.1666666666666667  6 0 0.1666666666666667  6.5 0 0.1666666666666667  7 0 0.1666666666666667  7.5 0 0.1666666666666667  8 0 0.1666666666666667  8.5 0 0.1666666666666667  9 0 0.1666666666666667  9.5 0 0.1666666666666667  10 0 0.1666666666666667  0 0.5 0.1666666666666667  0.5 0.5 0.1666666666666667  1 0.5 0.1666666666666667  1.5 0.5 0.1666666666666667  2 0.5 0.1666666666666667  2.5 0.5 0.1666666666666667  3 0.5 0.1666666666666667  3.5 0.5 0.1666666666666667  4 0.5 0.1666666666666667  4.5 0.5 0.1666666666666667  5 0.5 0.1666666666666667  5.5 0.5 0.1666666666666667  6 0.5 0.1666666666666667  6.5 0.5 0.1666666666666667  7 0.5 0.1666666666666667  7.5 0.5 0.1666666666666667  8 0.5 0.1666666666666667  8.5 0.5 0.1666666666666667  9 0.5 0.1666666666666667  9.5 0.5 0.1666666666666667  10 0.5 0.1666666666666667  0 1 0.1666666666666667  0.5 1 0.1666666666666667  1 1 0.1666666666666667  1.5 1 0.1666666666666667  2 1 0.1666666666666667  2.5 1 0.1666666666666667  3 1 0.1666666666666667  3.5 1 0.1666666666666667  4 1 0.1666666666666667  4.5 1 0.1666666666666667  5 1 0.1666666666666667  5.5 1 0.1666666666666667  6 1 0.1666666666666667  6.5 1 0.1666666666666667  7 1 0.1666666666666667  7.5 1 0.1666666666666667  8 1 0.1666666666666667  8.5 1 0.1666666666666667  9 1 0.1666666666666667  9.5 1 0.1666666666666667  10 1 0.1666666666666667  0 1.5 0.1666666666666667  0.5 1.5 0.1666666666666667  1 1.5 0.1666666666666667  1.5 1.5 0.1666666666666667  2 1.5 0.1666666666666667  2.5 1.5 0.1666666666666667  3 1.5 0.1666666666666667  3.5 1.5 0.1666666666666667  4 1.5 0.1666666666666667  4.5 1.5 0.1666666666666667  5 1.5 0.1666666666666667  5.5 1.5 0.1666666666666667  6 1.5 0.1666666666666667  6.5 1.5 0.1666666666666667  7 1.5 0.1666666666666667  7.5 1.5 0.1666666666666667  8 1.5 0.1666666666666667  8.5 1.5 0.1666666666666667  9 1.5 0.1666666666666667  9.5 1.5 0.1666666666666667  10 1.5 0.1666666666666667  0 2 0.1666666666666667  0.5 2 0.1666666666666667  1 2 0.1666666666666667  1.5 2 0.1666666666666667  2 2 0.1666666666666667  2.5 2 0.1666666666666667  3 2 0.1666666666666667  3.5 2 0.1666666666666667  4 2 0.1666666666666667  4.5 2 0.1666666666666667  5 2 0.1666666666666667  5.5 2 0.1666666666666667  6 2 0.1666666666666667  6.5 2 0.1666666666666667  7 2 0.1666666666666667  7.5 2 0.1666666666666667  8 2 0.1666666666666667  8.5 2 0.1666666666666667  9 2 0.1666666666666667  9.5 2 0.1666666666666667  10 2 0.1666666666666667  0 2.5 0.1666666666666667  0.5 2.5 0.1666666666666667  1 2.5 0.1666666666666667  1.5 2.5 0.1666666666666667  2 2.5 0.1666666666666667  2.5 2.5 0.1666666666666667  3 2.5 0.1666666666666667  3.5 2.5 0.1666666666666667  4 2.5 0.1666666666666667  4.5 2.5 0.1666666666666667  5 2.5 0.1666666666666667  5.5 2.5 0.1666666666666667  6 2.5 0.1666666666666667  6.5 2.5 0.1666666666666667  7 2.5 0.1666666666666667  7.5 2.5 0.1666666666666667  8 2.5 0.1666666666666667  8.5 2.5 0.1666666666666667  9 2.5 0.1666666666666667  9.5 2.5 0.1666666666666667  10 2.5 0.1666666666666667  0 3 0.1666666666666667  0.5 3 0.1666666666666667  1 3 0.1666666666666667  1.5 3 0.1666666666666667  2 3 0.1666666666666667  2.5 3 0.1666666666666667  3 3 0.1666666666666667  3.5 3 0.1666666666666667  4 3 0.1666666666666667  4.5 3 0.1666666666666667  5 3 0.1666666666666667  5.5 3 0.1666666666666667  6 3 0.1666666666666667  6.5 3 0.1666666666666667  7 3 0.1666666666666667  7.5 3 0.1666666666666667  8 3 0.1666666666666667  8.5 3 0.1666666666666667  9 3 0.1666666666666667  9.5 3 0.1666666666666667  10 3 0.1666666666666667  0 0 0.3333333333333333  0.5 0 0.3333333333333333  1 0 0.3333333333333333  1.5 0 0.3333333333333333  2 0 0.3333333333333333  2.5 0 0.3333333333333333  3 0 0.3333333333333333  3.5 0 0.3333333333333333  4 0 0.3333333333333333  4.5 0 0.3333333333333333  5 0 0.3333333333333333  5.5 0 0.3333333333333333  6 0 0.3333333333333333  6.5 0 0.3333333333333333  7 0 0.3333333333333333  7.5 0 0.3333333333333333  8 0 0.3333333333333333  8.5 0 0.3333333333333333  9 0 0.3333333333333333  9.5 0 0.3333333333333333  10 0 0.3333333333333333  0 0.5 0.3333333333333333  0.5 0.5 0.3333333333333333  1 0.5 0.3333333333333333  1.5 0.5 0.3333333333333333  2 0.5 0.3333333333333333  2.5 0.5 0.3333333333333333  3 0.5 0.3333333333333333  3.5 0.5 0.3333333333333333  4 0.5 0.3333333333333333  4.5 0.5 0.3333333333333333  5 0.5 0.3333333333333333  5.5 0.5 0.3333333333333333  6 0.5 0.3333333333333333  6.5 0.5 0.3333333333333333  7 0.5 0.3333333333333333  7.5 0.5 0.3333333333333333  8 0.5 0.3333333333333333  8.5 0.5 0.3333333333333333  9 0.5 0.3333333333333333  9.5 0.5 0.3333333333333333  10 0.5 0.3333333333333333  0 1 0.3333333333333333  0.5 1 0.3333333333333333  1 1 0.3333333333333333  1.5 1 0.3333333333333333  2 1 0.3333333333333333  2.5 1 0.3333333333333333  3 1 0.3333333333333333  3.5 1 0.3333333333333333  4 1 0.3333333333333333  4.5 1 0.3333333333333333  5 1 0.3333333333333333  5.5 1 0.3333333333333333  6 1 0.3333333333333333  6.5 1 0.3333333333333333  7 1 0.3333333333333333  7.5 1 0.3333333333333333  8 1 0.3333333333333333  8.5 1 0.3333333333333333  9 1 0.3333333333333333  9.5 1 0.3333333333333333  10 1 0.3333333333333333  0 1.5 0.3333333333333333  0.5 1.5 0.3333333333333333  1 1.5 0.3333333333333333  1.5 1.5 0.3333333333333333  2 1.5 0.3333333333333333  2.5 1.5 0.3333333333333333  3 1.5 0.3333333333333333  3.5 1.5 0.3333333333333333  4 1.5 0.3333333333333333  4.5 1.5 0.3333333333333333  5 1.5 0.3333333333333333  5.5 1.5 0.3333333333333333  6 1.5 0.3333333333333333  6.5 1.5 0.3333333333333333  7 1.5 0.3333333333333333  7.5 1.5 0.3333333333333333  8 1.5 0.3333333333333333  8.5 1.5 0.3333333333333333  9 1.5 0.3333333333333333  9.5 1.5 0.3333333333333333  10 1.5 0.3333333333333333  0 2 0.3333333333333333  0.5 2 0.3333333333333333  1 2 0.3333333333333333  1.5 2 0.3333333333333333  2 2 0.3333333333333333  2.5 2 0.3333333333333333  3 2 0.3333333333333333  3.5 2 0.3333333333333333  4 2 0.3333333333333333  4.5 2 0.3333333333333333  5 2 0.3333333333333333  5.5 2 0.3333333333333333  6 2 0.3333333333333333  6.5 2 0.3333333333333333  7 2 0.3333333333333333  7.5 2 0.3333333333333333  8 2 0.3333333333333333  8.5 2 0.3333333333333333  9 2 0.3333333333333333  9.5 2 0.3333333333333333  10 2 0.3333333333333333  0 2.5 0.3333333333333333  0.5 2.5 0.3333333333333333  1 2.5 0.3333333333333333  1.5 2.5 0.3333333333333333  2 2.5 0.3333333333333333  2.5 2.5 0.3333333333333333  3 2.5 0.3333333333333333  3.5 2.5 0.3333333333333333  4 2.5 0.3333333333333333  4.5 2.5 0.3333333333333333  5 2.5 0.3333333333333333  5.5 2.5 0.3333333333333333  6 2.5 0.3333333333333333  6.5 2.5 0.3333333333333333  7 2.5 0.3333333333333333  7.5 2.5 0.3333333333333333  8 2.5 0.3333333333333333  8.5 2.5 0.3333333333333333  9 2.5 0.3333333333333333  9.5 2.5 0.3333333333333333  10 2.5 0.3333333333333333  0 3 0.3333333333333333  0.5 3 0.3333333333333333  1 3 0.3333333333333333  1.5 3 0.3333333333333333  2 3 0.3333333333333333  2.5 3 0.3333333333333333  3 3 0.3333333333333333  3.5 3 0.3333333333333333  4 3 0.3333333333333333  4.5 3 0.3333333333333333  5 3 0.3333333333333333  5.5 3 0.3333333333333333  6 3 0.3333333333333333  6.5 3 0.3333333333333333  7 3 0.3333333333333333  7.5 3 0.3333333333333333  8 3 0.3333333333333333  8.5 3 0.3333333333333333  9 3 0.3333333333333333  9.5 3 0.3333333333333333  10 3 0.3333333333333333  0 0 0.5  0.5 0 0.5  1 0 0.5  1.5 0 0.5  2 0 0.5  2.5 0 0.5  3 0 0.5  3.5 0 0.5  4 0 0.5  4.5 0 0.5  5 0 0.5  5.5 0 0.5  6 0 0.5  6.5 0 0.5  7 0 0.5  7.5 0 0.5  8 0 0.5  8.5 0 0.5  9 0 0.5  9.5 0 0.5  10 0 0.5  0 0.5 0.5  0.5 0.5 0.5  1 0.5 0.5  1.5 0.5 0.5  2 0.5 0.5  2.5 0.5 0.5  3 0.5 0.5  3.5 0.5 0.5  4 0.5 0.5  4.5 0.5 0.5  5 0.5 0.5  5.5 0.5 0.5  6 0.5 0.5  6.5 0.5 0.5  7 0.5 0.5  7.5 0.5 0.5  8 0.5 0.5  8.5 0.5 0.5  9 0.5 0.5  9.5 0.5 0.5  10 0.5 0.5  0 1 0.5  0.5 1 0.5  1 1 0.5  1.5 1 0.5  2 1 0.5  2.5 1 0.5  3 1 0.5  3.5 1 0.5  4 1 0.5  4.5 1 0.5  5 1 0.5  5.5 1 0.5  6 1 0.5  6.5 1 0.5  7 1 0.5  7.5 1 0.5  8 1 0.5  8.5 1 0.5  9 1 0.5  9.5 1 0.5  10 1 0.5  0 1.5 0.5  0.5 1.5 0.5  1 1.5 0.5  1.5 1.5 0.5  2 1.5 0.5  2.5 1.5 0.5  3 1.5 0.5  3.5 1.5 0.5  4 1.5 0.5  4.5 1.5 0.5  5 1.5 0.5  5.5 1.5 0.5  6 1.5 0.5  6.5 1.5 0.5  7 1.5 0.5  7.5 1.5 0.5  8 1.5 0.5  8.
[...]
<PointData  Scalars="f_7-1"> 
<DataArray  type="Float64"  Name="f_7-1"  format="ascii">3.7100884294682373e+01  3.4105321679693446e+01  3.4173514084598104e+01  3.4642808322848204e+01  3.4756502510820205e+01  3.4775639111157176e+01  3.4778875602391871e+01  3.4779158693872866e+01  3.4778798902761558e+01  3.4778435852636633e+01  3.4778196559485025e+01  3.4778056222304201e+01  3.4777976991811556e+01  3.4777933098475465e+01  3.4777909044625417e+01  3.4777895939276384e+01  3.4777888830843786e+01  3.4777885007535339e+01  3.4777883001490160e+01  3.4777882044516922e+01  3.4777881760614719e+01  3.5185205952852641e+01  3.6219941433203687e+01  3.4551637356454286e+01  3.4747362511347198e+01  3.4780992468335391e+01  3.4778949353801259e+01  3.4779634751150851e+01  3.4779273672417233e+01  3.4778729246109975e+01  3.4778361141700366e+01  3.4778147852273179e+01  3.4778027615411219e+01  3.4777960784446869e+01  3.4777924111438544e+01  3.4777904117694511e+01  3.4777893249015740e+01  3.4777887360295246e+01  3.4777884195410309e+01  3.4777882535425746e+01  3.4777881749370920e+01  3.4777881516951652e+01  3.5997722140034995e+01  3.7482947760827400e+01  3.5107969315715572e+01  3.4838848616291941e+01  3.4811607906422466e+01  3.4785604481955460e+01  3.4781134552036328e+01  3.4779315270450340e+01  3.4778516436653469e+01  3.4778190458155805e+01  3.4778041018768057e+01  3.4777965320595918e+01  3.4777925726349864e+01  3.4777904763379816e+01  3.4777893529254534e+01  3.4777887470722490e+01  3.4777884202403150e+01  3.4777882450744471e+01  3.4777881533928912e+01  3.4777881109857454e+01  3.4777880978061368e+01  3.6514440677506393e+01  3.7854435904484021e+01  3.5337616445155930e+01  3.4830028608655894e+01  3.4823726366972991e+01  3.4786862411981637e+01  3.4780361652444839e+01  3.4778638294423608e+01  3.4778049407672526e+01  3.4777918530085039e+01  3.4777887512366704e+01  3.4777879870657245e+01  3.4777878854475830e+01  3.4777879209514460e+01  3.4777879620411696e+01  3.4777879901194261e+01  3.4777880070915913e+01  3.4777880168487748e+01  3.4777880222880349e+01  3.4777880265352060e+01  3.4777880266080338e+01  3.6371084120516713e+01  3.7291904336818440e+01  3.5173695072446115e+01  3.4752394794717517e+01  3.4795429385581045e+01  3.4777137552125410e+01  3.4776872471904355e+01  3.4777185678787212e+01  3.4777367709118032e+01  3.4777593153941645e+01  3.4777719296698280e+01  3.4777790925153170e+01  3.4777831406626177e+01  3.4777853671069423e+01  3.4777865808321678e+01  3.4777872409674636e+01  3.4777875988873582e+01  3.4777877915066938e+01  3.4777878927299867e+01  3.4777879425356240e+01  3.4777879558612497e+01  3.5509486409327472e+01  3.6382052727496017e+01  3.4749242078564194e+01  3.4558398789823279e+01  3.4745869723910211e+01  3.4768623417843450e+01  3.4772443239426337e+01  3.4775553521784857e+01  3.4776774547165985e+01  3.4777318930675861e+01  3.4777584492643335e+01  3.4777722407408504e+01  3.4777795516022429e+01  3.4777834515678833e+01  3.4777855493759468e+01  3.4777866829215128e+01  3.4777872950967406e+01  3.4777876236694794e+01  3.4777877959354711e+01  3.4777878795212736e+01  3.4777879028482637e+01  3.6911137250030627e+01  3.4184146563023639e+01  3.3491402745807768e+01  3.4415198910075070e+01  3.4770446857009169e+01  3.4760572381521037e+01  3.4768650028743281e+01  3.4775092809015895e+01  3.4776512961129555e+01  3.4777183833787191e+01  3.4777523260755792e+01  3.4777691743168745e+01  3.4777779490777498e+01  3.4777825936121062e+01  3.4777850882379092e+01  3.4777864339473147e+01  3.4777871596199226e+01  3.4777875489610622e+01  3.4777877532096575e+01  3.4777878513628394e+01  3.4777878775016845e+01  4.2282022675549236e+01  3.2701250159575594e+01  3.4257760075989964e+01  3.4658418056444503e+01  3.4757565778246558e+01  3.4775642092373744e+01  3.4778830813217617e+01  3.4779177353976323e+01  3.4778804554926623e+01  3.4778434029799676e+01  3.4778195221119155e+01  3.4778055551269055e+01  3.4777976594679252e+01  3.4777932866766363e+01  3.4777908916556612e+01  3.4777895869295392e+01  3.4777888792556986e+01  3.4777884985946308e+01  3.4777882988928674e+01  3.4777882038144405e+01  3.4777881738814209e+01  4.4042754873935550e+01  3.4271847846308667e+01  3.4772453932986522e+01  3.4782171552144611e+01  3.4767257507690914e+01  3.4777450542641418e+01  3.4779611483156877e+01  3.4779274628002895e+01  3.4778720882136028e+01  3.4778362636344184e+01  3.4778151508225925e+01  3.4778029951089287e+01  3.4777962085598809e+01  3.4777924845408911e+01  3.4777904526006139e+01  3.4777893472487072e+01  3.4777887482338464e+01  3.4777884262179668e+01  3.4777882574584979e+01  3.4777881769904248e+01  3.4777881539924984e+01  4.4508216734618209e+01  3.6328573031586110e+01  3.4979652783732874e+01  3.4903238359419639e+01  3.4799268247031804e+01  3.4786975110202476e+01  3.4781592875570929e+01  3.4779314134448398e+01  3.4778520196101887e+01  3.4778198114290163e+01  3.4778044726732318e+01  3.4777966753830789e+01  3.4777926438058437e+01  3.4777905149870278e+01  3.4777893732560699e+01  3.4777887578152963e+01  3.4777884260309186e+01  3.4777882482305593e+01  3.4777881553896783e+01  3.4777881117485308e+01  3.4777880994935323e+01  4.5158137759327474e+01  3.6761268045522122e+01  3.4947729554691186e+01  3.4955001107251270e+01  3.4814806124149221e+01  3.4787380295174756e+01  3.4780935075897411e+01  3.4778615353236496e+01  3.4778065394555860e+01  3.4777928630670267e+01  3.4777889864190236e+01  3.4777880525994817e+01  3.4777879195596924e+01  3.4777879369159891e+01  3.4777879690800923e+01  3.4777879935463048e+01  3.4777880088755651e+01  3.4777880177996330e+01  3.4777880230047934e+01  3.4777880262415259e+01  3.4777880281511521e+01  4.4917978308527729e+01  3.6129582931827059e+01  3.4836956713477626e+01  3.4880439273786862e+01  3.4786293182302003e+01  3.4776761592500414e+01  3.4777632515025601e+01  3.4777094720209682e+01  3.4777391247810073e+01  3.4777598985011821e+01  3.4777718361240737e+01  3.4777790485571359e+01  3.4777831155645686e+01  3.4777853485414745e+01  3.4777865692549582e+01  3.4777872344633316e+01  3.4777875952618487e+01  3.4777877894510937e+01  3.4777878916838368e+01  3.4777879411719759e+01  3.4777879568119445e+01  4.2243541995192913e+01  3.5502425254444780e+01  3.4291845524049776e+01  3.4658462058956985e+01  3.4755653845804481e+01  3.4764966021341394e+01  3.4772490264724432e+01  3.4775573275490487e+01  3.4776775430582347e+01  3.4777311758519566e+01  3.4777580707421727e+01  3.4777720950536754e+01  3.4777794695872693e+01  3.4777834026937654e+01  3.4777855229693671e+01  3.4777866687823014e+01  3.4777872873589480e+01  3.4777876194345190e+01  3.4777877936899159e+01  3.4777878773682247e+01  3.4777879029832640e+01  5.1940303039004334e+01  3.0399170968211010e+01  3.3476202522144661e+01  3.4775018709275820e+01  3.4747667268706728e+01  3.4748242748661013e+01  3.4771419222434744e+01  3.4775227510277780e+01  3.4776447157476753e+01  3.4777192537245085e+01  3.4777525535235149e+01  3.4777692694828318e+01  3.4777779768571207e+01  3.4777826071850733e+01  3.4777850971376765e+01  3.4777864384608904e+01  3.4777871618931357e+01  3.4777875501497604e+01  3.4777877536904633e+01  3.4777878509201749e+01  3.4777878798653376e+01  3.7035390317193347e+01  3.4034313434134582e+01  3.4121608008606870e+01  3.4648222981230397e+01  3.4763616963273080e+01  3.4775013911401054e+01  3.4778644294463085e+01  3.4779220132417429e+01  3.4778812067414357e+01  3.4778433526219679e+01  3.4778195989368847e+01  3.4778056166070776e+01  3.4777976888570414e+01  3.4777933021867781e+01  3.4777909003344185e+01  3.4777895916810898e+01  3.4777888818380752e+01  3.4777884999857172e+01  3.4777882998061855e+01  3.4777882045393213e+01  3.4777881739160840e+01  3.7291784595111977e+01  3.5512802542000159e+01  3.4719944579776701e+01  3.4768438142776958e+01  3.4771315307663826e+01  3.4777180200813440e+01  3.4779864294098545e+01  3.4779333421511346e+01  3.4778717019357209e+01  3.4778363393028194e+01  3.4778152284232775e+01  3.4778029869364531e+01  3.4777961941499179e+01  3.4777924764076857e+01  3.4777904477776502e+01  3.4777893443963620e+01  3.4777887466296001e+01  3.4777884253383363e+01  3.4777882570139177e+01  3.4777881768334382e+01  3.4777881540222452e+01  3.8163190688539196e+01  3.6786661996025181e+01  3.5164457916171607e+01  3.4857309919166063e+01  3.4800876485228628e+01  3.4788749291513057e+01  3.4781777128971463e+01  3.4779289934261257e+01  3.4778521373564061e+01  3.4778203398720080e+01  3.4778045096900243e+01  3.4777966323212155e+01  3.4777926215760544e+01  3.4777905017225329e+01  3.4777893647300402e+01  3.4777887528538329e+01  3.4777884232596975e+01  3.4777882466808137e+01  3.4777881545217895e+01  3.4777881113741842e+01  3.4777880988260264e+01  3.8814109381796946e+01  3.7192087672241563e+01  3.5190814891891414e+01  3.4918764739546269e+01  3.4813036757371421e+01  3.4789055281539419e+01  3.4780683561036064e+01  3.4778546876796426e+01  3.4778081229546103e+01  3.4777931263254430e+01  3.4777888554107797e+01  3.4777880141041848e+01  3.4777879073540674e+01  3.4777879268374221e+01  3.4777879626107215e+01  3.4777879899581613e+01  3.4777880068696859e+01  3.4777880166622666e+01  3.4777880223308586e+01  3.4777880259164021e+01  3.4777880275844034e+01  3.8548029746458688e+01  3.6644423766081985e+01  3.5083104715625169e+01  3.4844918825822958e+01  3.4778770377651107e+01  3.4778379817927387e+01  3.4777345283515160e+01  3.4777045698875284e+01  3.4777412755268458e+01  3.4777594625268094e+01  3.4777716737773225e+01  3.4777790373119224e+01  3.4777831046279644e+01  3.4777853388707733e+01  3.4777865641154868e+01  3.4777872317706283e+01  3.4777875937286588e+01  3.4777877885703766e+01  3.4777878911364986e+01  3.4777879408818656e+01  3.4777879562174967e+01  3.6347086747343226e+01  3.6357813055601312e+01  3.4390051860045311e+01  3.4646055631474418e+01  3.4750082642099201e+01  3.4764056903466816e+01  3.4772837170324188e+01  3.4775563467448812e+01  3.4776766521370142e+01  3.4777310583725892e+01  3.4777580713254977e+01  3.4777721323726453e+01  3.4777794768171518e+01  3.4777834049913515e+01  3.4777855254314900e+01  3.4777866701137839e+01  3.4777872879939665e+01  3.4777876197638093e+01  3.4777877938120689e+01  3.4777878774360289e+01  3.4777879026475183e+01  4.3614533738727332e+01  3.0161654522251347e+01  3.3968398381894119e+01  3.4731488797685955e+01  3.4703928298226238e+01  3.4754862844631560e+01  3.4772808016268833e+01  3.4774701352772553e+01  3.4776486273919851e+01  3.4777199431229349e+01  3.4777525322360127e+01  3.4777693346161492e+01  3.4777779897498284e+01  3.4777826209896972e+01  3.4777851051582701e+01  3.4777864423427147e+01  3.4777871640421807e+01  3.4777875513667404e+01  3.4777877543607623e+01  3.4777878516169622e+01  3.4777878797722366e+01  5.1665853346821081e+01  3.1611231540267031e+01  3.4072396554100216e+01  3.4750855013314052e+01  3.4756376078484266e+01  3.4772686464668091e+01  3.4779191778979090e+01  3.4779311785245277e+01  3.4778788129823255e+01  3.4778428280232845e+01  3.4778194770897926e+01  3.4778054862466028e+01  3.4777976053849088e+01  3.4777932575993781e+01  3.4777908760490952e+01  3.4777895783123917e+01  3.4777888745449232e+01  3.4777884960711631e+01  3.4777882978069364e+01  3.4777882026886743e+01  3.4777881733136518e+01  5.2136373256442681e+01  3.2452375640219138e+01  3.5066475163733010e+01  3.4793922244788028e+01  3.4746767774805647e+01  3.4778307584034096e+01  3.4780452756562433e+01  3.4779143278433096e+01  3.4778677245985911e+01  3.4778365079782844e+01  3.4778151095792275e+01  3.4778028714310437e+01  3.4777961525858814e+01  3.4777924581473378e+01  3.4777904375508285e+01  3.4777893388159676e+01  3.4777887436085742e+01  3.4777884236427440e+01  3.4777882559779968e+01  3.4777881756314052e+01  3.4777881535832428e+01  4.9812133707720449e+01  3.5743949176065648e+01  3.5104640366230178e+01  3.4833325269791494e+01  3.4802121094907591e+01  3.4791953372114754e+01  3.4781198876038452e+01  3.4779099477732203e+01  3.4778544782301132e+01  3.4778206621393700e+01  3.4778041738071337e+01  3.4777965270038287e+01  3.4777925886067038e+01  3.4777904798178682e+01  3.4777893517815052e+01  3.4777887459353011e+01  3.4777884194828843e+01  3.4777882445787441e+01  3.4777881533737094e+01  3.4777881100775495e+01  3.4777880988618215e+01  4.9701527293025073e+01  3.6499733684872524e+01  3.4807810364807096e+01  3.4984125522126689e+01  3.4812905756397484e+01  3.4788899593810029e+01  3.4779577595997296e+01  3.4778644113168234e+01  3.4778120950901851e+01  3.4777924669809437e+01  3.4777887703258664e+01  3.4777881317024452e+01  3.4777879594060231e+01  3.4777879486266713e+01  3.4777879752734755e+01  3.4777879970773100e+01  3.4777880106596527e+01  3.4777880187155368e+01  3.4777880235074143e+01  3.4777880261247780e+01  3.4777880287944186e+01  4.9835477469738890e+01  3.5939290450574269e+01  3.4650369492775148e+01  3.4951368273514127e+01  3.4760335893563820e+01  3.4782481896880661e+01  3.4776814615618676e+01  3.4777292337114289e+01  3.4777439156280785e+01  3.4777589679364226e+01  3.4777721946981416e+01  3.4777792770447718e+01  3.4777831857448845e+01  3.4777853817155027e+01  3.4777865884751719e+01  3.4777872446084331e+01  3.4777876005343671e+01  3.4777877923026601e+01  3.4777878932757353e+01  3.4777879419516651e+01  3.4777879579289767e+01  5.1975426366382258e+01  3.4183983154392621e+01  3.4116978540221311e+01  3.4804072326635463e+01  3.4721395652170813e+01  3.4770564610896415e+01  3.4772620970896639e+01  3.4775568683395470e+01  3.4776807819358147e+01  3.4777312041284723e+01  3.4777587890489798e+01  3.4777723632220258e+01  3.4777795684500759e+01  3.4777834635090962e+01  3.4777855571242966e+01  3.4777866865217483e+01  3.4777872968969312e+01  3.4777876247319234e+01  3.4777877967431650e+01  3.4777878791998155e+01  3.4777879046239825e+01  5.6673517108556844e+01  2.9282195008409321e+01  3.3907710500775131e+01  3.4774381880949733e+01  3.4687918056467915e+01  3.4764353242223841e+01  3.4770619834384121e+01  3.4774703827030919e+01  3.4776558528380527e+01  3.4777180000341446e+01  3.4777526186110592e+01  3.4777692035906000e+01  3.4777779311246455e+01  3.4777825993050527e+01  3.4777850907120708e+01  3.4777864342882502e+01  3.4777871598171444e+01  3.4777875490400120e+01  3.4777877530348334e+01  3.4777878506271534e+01  3.4777878798685535e+01  </DataArray> 
</PointData> 
</Piece>
</UnstructuredGrid>
</VTKFile>