<?xml version="1.0"?>
<VTKFile type="UnstructuredGrid"  version="0.1"  >
<UnstructuredGrid>
<Piece  NumberOfPoints="2976" NumberOfCells="13500">
<Points>
<DataArray  type="Float64"  NumberOfComponents="3"  format="ascii">0 0 0  0.3333333333333333 0 0  0.6666666666666666 0 0  1 0 0  1.333333333333333 0 0  1.666666666666667 0 0  2 0 0  2.333333333333333 0 0  2.666666666666667 0 0  3 0 0  3.333333333333333 0 0  3.666666666666667 0 0  4 0 0  4.333333333333333 0 0  4.666666666666667 0 0  5 0 0  5.333333333333333 0 0  5.666666666666667 0 0  6 0 0  6.333333333333333 0 0  6.666666666666667 0 0  7 0 0  7.333333333333333 0 0  7.666666666666667 0 0  8 0 0  8.333333333333334 0 0  8.666666666666666 0 0  9 0 0  9.333333333333334 0 0  9.666666666666666 0 0  10 0 0  0 0.2 0  0.3333333333333333 0.2 0  0.6666666666666666 0.2 0  1 0.2 0  1.333333333333333 0.2 0  1.666666666666667 0.2 0  2 0.2 0  2.333333333333333 0.2 0  2.666666666666667 0.2 0  3 0.2 0  3.333333333333333 0.2 0  3.666666666666667 0.2 0  4 0.2 0  4.333333333333333 0.2 0  4.666666666666667 0.2 0  5 0.2 0  5.333333333333333 0.2 0  5.666666666666667 0.2 0  6 0.2 0  6.333333333333333 0.2 0  6.666666666666667 0.2 0  7 0.2 0  7.333333333333333 0.2 0  7.666666666666667 0.2 0  8 0.2 0  8.333333333333334 0.2 0  8.666666666666666 0.2 0  9 0.2 0  9.333333333333334 0.2 0  9.666666666666666 0.2 0  10 0.2 0  0 0.4 0  0.3333333333333333 0.4 0  0.6666666666666666 0.4 0  1 0.4 0  1.333333333333333 0.4 0  1.666666666666667 0.4 0  2 0.4 0  2.333333333333333 0.4 0  2.666666666666667 0.4 0  3 0.4 0  3.333333333333333 0.4 0  3.666666666666667 0.4 0  4 0.4 0  4.333333333333333 0.4 0  4.666666666666667 0.4 0  5 0.4 0  5.333333333333333 0.4 0  5.666666666666667 0.4 0  6 0.4 0  6.333333333333333 0.4 0  6.666666666666667 0.4 0  7 0.4 0  7.333333333333333 0.4 0  7.666666666666667 0.4 0  8 0.4 0  8.333333333333334 0.4 0  8.666666666666666 0.4 0  9 0.4 0  9.333333333333334 0.4 0  9.666666666666666 0.4 0  10 0.4 0  0 0.6 0  0.3333333333333333 0.6 0  0.6666666666666666 0.6 0  1 0.6 0  1.333333333333333 0.6 0  1.666666666666667 0.6 0  2 0.6 0  2.333333333333333 0.6 0  2.666666666666667 0.6 0  3 0.6 0  3.333333333333333 0.6 0  3.666666666666667 0.6 0  4 0.6 0  4.333333333333333 0.6 0  4.666666666666667 0.6 0  5 0.6 0  5.333333333333333 0.6 0  5.666666666666667 0.6 0  6 0.6 0  6.333333333333333 0.6 0  6.666666666666667 0.6 0  7 0.6 0  7.333333333333333 0.6 0  7.666666666666667 0.6 0  8 0.6 0  8.333333333333334 0.6 0  8.666666666666666 0.6 0  9 0.6 0  9.333333333333334 0.6 0  9.666666666666666 0.6 0  10 0.6 0  0 0.8 0  0.3333333333333333 0.8 0  0.6666666666666666 0.8 0  1 0.8 0  1.333333333333333 0.8 0  1.666666666666667 0.8 0  2 0.8 0  2.333333333333333 0.8 0  2.666666666666667 0.8 0  3 0.8 0  3.333333333333333 0.8 0  3.666666666666667 0.8 0  4 0.8 0  4.333333333333333 0.8 0  4.666666666666667 0.8 0  5 0.8 0  5.333333333333333 0.8 0  5.666666666666667 0.8 0  6 0.8 0  6.333333333333333 0.8 0  6.666666666666667 0.8 0  7 0.8 0  7.333333333333333 0.8 0  7.666666666666667 0.8 0  8 0.8 0  8.333333333333334 0.8 0  8.666666666666666 0.8 0  9 0.8 0  9.333333333333334 0.8 0  9.666666666666666 0.8 0  10 0.8 0  0 1 0  0.3333333333333333 1 0  0.6666666666666666 1 0  1 1 0  1.333333333333333 1 0  1.666666666666667 1 0  2 1 0  2.333333333333333 1 0  2.666666666666667 1 0  3 1 0  3.333333333333333 1 0  3.666666666666667 1 0  4 1 0  4.333333333333333 1 0  4.666666666666667 1 0  5 1 0  5.333333333333333 1 0  5.666666666666667 1 0  6 1 0  6.333333333333333 1 0  6.666666666666667 1 0  7 1 0  7.333333333333333 1 0  7.666666666666667 1 0  8 1 0  8.333333333333334 1 0  8.666666666666666 1 0  9 1 0  9.333333333333334 1 0  9.666666666666666 1 0  10 1 0  0 1.2 0  0.3333333333333333 1.2 0  0.6666666666666666 1.2 0  1 1.2 0  1.333333333333333 1.2 0  1.666666666666667 1.2 0  2 1.2 0  2.333333333333333 1.2 0  2.666666666666667 1.2 0  3 1.2 0  3.333333333333333 1.2 0  3.666666666666667 1.2 0  4 1.2 0  4.333333333333333 1.2 0  4.666666666666667 1.2 0  5 1.2 0  5.333333333333333 1.2 0  5.666666666666667 1.2 0  6 1.2 0  6.333333333333333 1.2 0  6.666666666666667 1.2 0  7 1.2 0  7.333333333333333 1.2 0  7.666666666666667 1.2 0  8 1.2 0  8.333333333333334 1.2 0  8.666666666666666 1.2 0  9 1.2 0  9.333333333333334 1.2 0  9.666666666666666 1.2 0  10 1.2 0  0 1.4 0  0.3333333333333333 1.4 0  0.6666666666666666 1.4 0  1 1.4 0  1.333333333333333 1.4 0  1.666666666666667 1.4 0  2 1.4 0  2.333333333333333 1.4 0  2.666666666666667 1.4 0  3 1.4 0  3.333333333333333 1.4 0  3.666666666666667 1.4 0  4 1.4 0  4.333333333333333 1.4 0  4.666666666666667 1.4 0  5 1.4 0  5.333333333333333 1.4 0  5.666666666666667 1.4 0  6 1.4 0  6.333333333333333 1.4 0  6.666666666666667 1.4 0  7 1.4 0  7.333333333333333 1.4 0  7.666666666666667 1.4 0  8 1.4 0  8.333333333333334 1.4 0  8.666666666666666 1.4 0  9 1.4 0  9.333333333333334 1.4 0  9.666666666666666 1.4 0  10 1.4 0  0 1.6 0  0.3333333333333333 1.6 0  0.6666666666666666 1.6 0  1 1.6 0  1.333333333333333 1.6 0  1.666666666666667 1.6 0  2 1.6 0  2.333333333333333 1.6 0  2.666666666666667 1.6 0  3 1.6 0  3.333333333333333 1.6 0  3.666666666666667 1.6 0  4 1.6 0  4.333333333333333 1.6 0  4.666666666666667 1.6 0  5 1.6 0  5.333333333333333 1.6 0  5.666666666666667 1.6 0  6 1.6 0  6.333333333333333 1.6 0  6.666666666666667 1.6 0  7 1.6 0  7.333333333333333 1.6 0  7.666666666666667 1.6 0  8 1.6 0  8.333333333333334 1.6 0  8.666666666666666 1.6 0  9 1.6 0  9.333333333333334 1.6 0  9.666666666666666 1.6 0  10 1.6 0  0 1.8 0  0.3333333333333333 1.8 0  0.6666666666666666 1.8 0  1 1.8 0  1.333333333333333 1.8 0  1.666666666666667 1.8 0  2 1.8 0  2.333333333333333 1.8 0  2.666666666666667 1.8 0  3 1.8 0  3.333333333333333 1.8 0  3.666666666666667 1.8 0  4 1.8 0  4.333333333333333 1.8 0  4.666666666666667 1.8 0  5 1.8 0  5.333333333333333 1.8 0  5.666666666666667 1.8 0  6 1.8 0  6.333333333333333 1.8 0  6.666666666666667 1.8 0  7 1.8 0  7.333333333333333 1.8 0  7.666666666666667 1.8 0  8 1.8 0  8.333333333333334 1.8 0  8.666666666666666 1.8 0  9 1.8 0  9.333333333333334 1.8 0  9.666666666666666 1.8 0  10 1.8 0  0 2 0  0.3333333333333333 2 0  0.6666666666666666 2 0  1 2 0  1.333333333333333 2 0  1.666666666666667 2 0  2 2 0  2.333333333333333 2 0  2.666666666666667 2 0  3 2 0  3.333333333333333 2 0  3.666666666666667 2 0  4 2 0  4.333333333333333 2 0  4.666666666666667 2 0  5 2 0  5.333333333333333 2 0  5.666666666666667 2 0  6 2 0  6.333333333333333 2 0  6.666666666666667 2 0  7 2 0  7.333333333333333 2 0  7.666666666666667 2 0  8 2 0  8.333333333333334 2 0  8.666666666666666 2 0  9 2 0  9.333333333333334 2 0  9.666666666666666 2 0  10 2 0  0 2.2 0  0.3333333333333333 2.2 0  0.6666666666666666 2.2 0  1 2.2 0  1.333333333333333 2.2 0  1.666666666666667 2.2 0  2 2.2 0  2.333333333333333 2.2 0  2.666666666666667 2.2 0  3 2.2 0  3.333333333333333 2.2 0  3.666666666666667 2.2 0  4 2.2 0  4.333333333333333 2.2 0  4.666666666666667 2.2 0  5 2.2 0  5.333333333333333 2.2 0  5.666666666666667 2.2 0  6 2.2 0  6.333333333333333 2.2 0  6.666666666666667 2.2 0  7 2.2 0  7.333333333333333 2.2 0  7.666666666666667 2.2 0  8 2.2 0  8.333333333333334 2.2 0  8.666666666666666 2.2 0  9 2.2 0  9.333333333333334 2.2 0  9.666666666666666 2.2 0  10 2.2 0  0 2.4 0  0.3333333333333333 2.4 0  0.6666666666666666 2.4 0  1 2.4 0  1.333333333333333 2.4 0  1.666666666666667 2.4 0  2 2.4 0  2.333333333333333 2.4 0  2.666666666666667 2.4 0  3 2.4 0  3.333333333333333 2.4 0  3.666666666666667 2.4 0  4 2.4 0  4.333333333333333 2.4 0  4.666666666666667 2.4 0  5 2.4 0  5.333333333333333 2.4 0  5.666666666666667 2.4 0  6 2.4 0  6.333333333333333 2.4 0  6.666666666666667 2.4 0  7 2.4 0  7.333333333333333 2.4 0  7.666666666666667 2.4 0  8 2.4 0  8.333333333333334 2.4 0  8.666666666666666 2.4 0  9 2.4 0  9.333333333333334 2.4 0  9.666666666666666 2.4 0  10 2.4 0  0 2.6 0  0.3333333333333333 2.6 0  0.6666666666666666 2.6 0  1 2.6 0  1.333333333333333 2.6 0  1.666666666666667 2.6 0  2 2.6 0  2.333333333333333 2.6 0  2.666666666666667 2.6 0  3 2.6 0  3.333333333333333 2.6 0  3.666666666666667 2.6 0  4 2.6 0  4.333333333333333 2.6 0  4.666666666666667 2.6 0  5 2.6 0  5.333333333333333 2.6 0  5.666666666666667 2.6 0  6 2.6 0  6.333333333333333 2.6 0  6.666666666666667 2.6 0  7 2.6 0  7.333333333333333 2.6 0  7.666666666666667 2.6 0  8 2.6 0  8.333333333333334 2.6 0  8.666666666666666 2.6 0  9 2.6 0  9.333333333333334 2.6 0  9.666666666666666 2.6 0  10 2.6 0  0 2.8 0  0.3333333333333333 2.8 0  0.6666666666666666 2.8 0  1 2.8 0  1.333333333333333 2.8 0  1.666666666666667 2.8 0  2 2.8 0  2.333333333333333 2.8 0  2.666666666666667 2.8 0  3 2.8 0  3.333333333333333 2.8 0  3.666666666666667 2.8 0  4 2.8 0  4.333333333333333 2.8 0  4.666666666666667 2.8 0  5 2.8 0  5.333333333333333 2.8 0  5.666666666666667 2.8 0  6 2.8 0  6.333333333333333 2.8 0  6.666666666666667 2.8 0  7 2.8 0  7.333333333333333 2.8 0  7.666666666666667 2.8 0  8 2.8 0  8.333333333333334 2.8 0  8.666666666666666 2.8 0  9 2.8 0  9.333333333333334 2.8 0  9.666666666666666 2.8 0  10 2.8 0  0 3 0  0.3333333333333333 3 0  0.6666666666666666 3 0  1 3 0  1.333333333333333 3 0  1.666666666666667 3 0  2 3 0  2.333333333333333 3 0  2.666666666666667 3 0  3 3 0  3.333333333333333 3 0  3.666666666666667 3 0  4 3 0  4.333333333333333 3 0  4.666666666666667 3 0  5 3 0  5.333333333333333 3 0  5.666666666666667 3 0  6 3 0  6.333333333333333 3 0  6.666666666666667 3 0  7 3 0  7.333333333333333 3 0  7.666666666666667 3 0  8 3 0  8.333333333333334 3 0  8.666666666666666 3 0  9 3 0  9.333333333333334 3 0  9.666666666666666 3 0  10 3 0  0 0 0.1  0.3333333333333333 0 0.1  0.6666666666666666 0 0.1  1 0 0.1  1.333333333333333 0 0.1  1.666666666666667 0 0.1  2 0 0.1  2.333333333333333 0 0.1  2.666666666666667 0 0.1  3 0 0.1  3.333333333333333 0 0.1  3.666666666666667 0 0.1  4 0 0.1  4.333333333333333 0 0.1  4.666666666666667 0 0.1  5 0 0.1  5.333333333333333 0 0.1  5.666666666666667 0 0.1  6 0 0.1  6.333333333333333 0 0.1  6.666
[...]
<PointData  Scalars="f_7-1"> 
<DataArray  type="Float64"  Name="f_7-1"  format="ascii">-3.8665751586405137e+00  -3.2664105466241273e+00  -1.1910070235558998e+00  -6.5921549643581334e-01  -8.6132055537037999e-01  -6.3759005962283932e-01  -5.9333444045992856e-01  -1.1592097490941431e+00  -3.2122707660384568e+00  -5.9448986708629992e+00  -7.7632625007856646e+00  -8.2873947740362173e+00  -8.1901441089516780e+00  -7.9423880063611243e+00  -7.6776936026714298e+00  -7.4426074132270479e+00  -7.2690590741671359e+00  -7.1706339820838840e+00  -7.1378454800416185e+00  -7.1469530698891965e+00  -7.1741647372817656e+00  -7.2035611320707780e+00  -7.2273345529329402e+00  -7.2430384729783128e+00  -7.2511292027402563e+00  -7.2534289258998141e+00  -7.2521727407207282e+00  -7.2493975413677507e+00  -7.2465462882426062e+00  -7.2445456092578331e+00  -7.2437991852449377e+00  6.1024969070399306e+00  -3.0836810932411289e+00  -4.2728136449961390e-01  -1.3474863848106411e+00  -7.3432663397672249e-01  -6.9761697236519737e-01  -8.5725341494544782e-01  -2.2225263421093420e+00  -4.7575649402378035e+00  -7.1457302600188797e+00  -8.1722509357131621e+00  -8.2051659121020499e+00  -7.9847566580639242e+00  -7.7396139791923222e+00  -7.5066903058176928e+00  -7.3178134171174456e+00  -7.1962753873261773e+00  -7.1431797308620650e+00  -7.1401620268370838e+00  -7.1627982999555666e+00  -7.1922245041001958e+00  -7.2181841662437289e+00  -7.2367760031706485e+00  -7.2476359105921917e+00  -7.2521337960889447e+00  -7.2523222155541793e+00  -7.2502466537214243e+00  -7.2475032528847709e+00  -7.2451064635517390e+00  -7.2436400176077669e+00  -7.2431698463256238e+00  9.6023238826969004e-01  3.2753047162642233e+00  -4.2852647937408310e+00  -4.4605060793335444e-01  -9.5546947621624556e-01  -8.1183035196539033e-01  -1.4744468034678062e+00  -3.5963598321936177e+00  -6.3460186216728927e+00  -8.0872709112136203e+00  -8.3165220159776982e+00  -8.0467944905754170e+00  -7.8023166990292410e+00  -7.5793197020923255e+00  -7.3797934872981132e+00  -7.2351427987330990e+00  -7.1588327170279991e+00  -7.1406710181331343e+00  -7.1567876003422892e+00  -7.1849644508320045e+00  -7.2120597827639568e+00  -7.2326753618247732e+00  -7.2456753288821778e+00  -7.2519645013412903e+00  -7.2533704818530040e+00  -7.2519280945728068e+00  -7.2493607394154349e+00  -7.2468219366770192e+00  -7.2449074988026103e+00  -7.2437730538393845e+00  -7.2434382541291837e+00  4.8230256111346517e+00  1.7008308969012165e+00  4.1262199568665731e-01  -1.8571089614699565e+00  -1.0043480774496973e+00  -9.5999181845164594e-01  -2.5291342797589778e+00  -5.2713246751865350e+00  -7.8727925549204025e+00  -8.6692860486355201e+00  -8.3215504113216578e+00  -7.9161136768949021e+00  -7.6361411303596745e+00  -7.4183982615792825e+00  -7.2543741083254565e+00  -7.1573972575557496e+00  -7.1264949025147084e+00  -7.1405878525738018e+00  -7.1728791824086322e+00  -7.2050957701281542e+00  -7.2296309702074675e+00  -7.2451823508658366e+00  -7.2529792492615677e+00  -7.2551003618446712e+00  -7.2537965957394581e+00  -7.2510383121005182e+00  -7.2481984696498873e+00  -7.2459899760906561e+00  -7.2445768668221318e+00  -7.2438460963450426e+00  -7.2436208816135483e+00  3.8021463035026208e+00  1.0942132770684403e+00  2.7690312605206433e+00  -1.7996436300739020e+00  -6.3508056610147323e-01  -1.7336732241952895e+00  -3.9509670390832281e+00  -7.1728497144295016e+00  -9.0204551095778420e+00  -8.8909206191415571e+00  -8.2952514484668214e+00  -7.8310848016478847e+00  -7.4955519128595789e+00  -7.2746621783540659e+00  -7.1461949030410592e+00  -7.0964452237312097e+00  -7.1067883343800862e+00  -7.1467160209983938e+00  -7.1901640887251954e+00  -7.2240817741807577e+00  -7.2455159437967449e+00  -7.2562010248171713e+00  -7.2592153380798248e+00  -7.2576317190498196e+00  -7.2540319047591977e+00  -7.2502553798427352e+00  -7.2473012078146066e+00  -7.2454491543203066e+00  -7.2445037987429926e+00  -7.2441273191778395e+00  -7.2440544032591720e+00  3.0107762646301421e+00  1.8911048882599393e+00  1.8232312764277088e+00  1.2978635170520325e+00  -1.7449945327752592e+00  -2.4666059920188532e+00  -5.8721078708967225e+00  -8.9954052041174375e+00  -9.5770914688418820e+00  -8.9242759292799221e+00  -8.2966812025025511e+00  -7.7794477836119231e+00  -7.3888482707985581e+00  -7.1571958028352460e+00  -7.0579792009174129e+00  -7.0515106455728711e+00  -7.0961241473181955e+00  -7.1548431325765174e+00  -7.2054441462175323e+00  -7.2399460238704236e+00  -7.2586375764031352e+00  -7.2652529149160534e+00  -7.2642748186879018e+00  -7.2596378675037485e+00  -7.2542117102604431e+00  -7.2496864773354170e+00  -7.2467058820295831e+00  -7.2451708697300612e+00  -7.2446118681667020e+00  -7.2445364887321677e+00  -7.2445737686092064e+00  3.0681191341077492e+00  1.8139918089048728e+00  1.5221196035092859e+00  2.3349042981959349e+00  -5.6944251542398716e-01  -4.0674880222505907e+00  -8.3395945263618465e+00  -1.0136177544668723e+01  -9.6774502148643275e+00  -8.9324810569986859e+00  -8.3124313432902852e+00  -7.7469867518598745e+00  -7.3209323208824388e+00  -7.0762784464626067e+00  -6.9972428310155541e+00  -7.0239261788602336e+00  -7.0924345496880177e+00  -7.1627558795586648e+00  -7.2173400412521920e+00  -7.2518790591373481e+00  -7.2685037112717099e+00  -7.2721125190608991e+00  -7.2681640101142726e+00  -7.2612697864948608e+00  -7.2545301997309641e+00  -7.2494948987195311e+00  -7.2465124712757243e+00  -7.2452029081706861e+00  -7.2449144419328357e+00  -7.2450414693550025e+00  -7.2451519412876948e+00  3.0785723298371255e+00  1.7050151702253908e+00  1.7330468390992573e+00  2.0338151297291547e+00  2.2497637485574860e+00  -7.6949173882089550e+00  -1.0085705405625950e+01  -1.0511254474049446e+01  -9.6236502256228178e+00  -8.9587946445726292e+00  -8.3195313873631491e+00  -7.7310568530699832e+00  -7.2907115190152210e+00  -7.0399345478437461e+00  -6.9710279790300174e+00  -7.0136781678718050e+00  -7.0931810784372509e+00  -7.1685167424798468e+00  -7.2247757110529474e+00  -7.2592201638644074e+00  -7.2746714858789865e+00  -7.2765511385914126e+00  -7.2708618504308173e+00  -7.2626396759833307e+00  -7.2551328910223658e+00  -7.2497939004871821e+00  -7.2467816995884560e+00  -7.2455678406486790e+00  -7.2454010325587879e+00  -7.2456155828436968e+00  -7.2457554741982655e+00  3.5274622212043627e+00  1.5520265875722108e+00  1.9320366537464482e+00  1.6828315257633000e+00  3.1382778221065597e+00  -7.8204731334471660e+00  -1.1349553550313949e+01  -1.0327636529717193e+01  -9.5770564855459952e+00  -8.9845886518103697e+00  -8.3131256629168231e+00  -7.7309857209485262e+00  -7.2961101620475093e+00  -7.0523446642290155e+00  -6.9830411352839779e+00  -7.0207154784117121e+00  -7.0970511857061611e+00  -7.1713010015293346e+00  -7.2273267763576703e+00  -7.2616777098020320e+00  -7.2769142507431077e+00  -7.2784403978462962e+00  -7.2723619048674522e+00  -7.2638245867243443e+00  -7.2561134135869843e+00  -7.2506511502989230e+00  -7.2475532452901712e+00  -7.2462780530060753e+00  -7.2460680092441834e+00  -7.2462469132383793e+00  -7.2463715329265810e+00  4.3223846412436986e+00  1.1138801260329303e+00  2.1182395658653426e+00  2.0089593003379966e+00  1.3878192344090279e+00  -4.3652751965101464e+00  -1.0914958242405495e+01  -9.8664559122529667e+00  -9.6145155316032973e+00  -8.9623946471531664e+00  -8.3057148672798391e+00  -7.7462304245252005e+00  -7.3384209086673584e+00  -7.1123268200432639e+00  -7.0315298799605230e+00  -7.0451140567279715e+00  -7.1045158479697701e+00  -7.1713633175460032e+00  -7.2250580462987903e+00  -7.2592292035285837e+00  -7.2751836446611220e+00  -7.2777464323566248e+00  -7.2726638351732644e+00  -7.2648463501314060e+00  -7.2574936962794707e+00  -7.2520786018195436e+00  -7.2488358671603219e+00  -7.2473331018365172e+00  -7.2469150055394156e+00  -7.2469382164048968e+00  -7.2470039185361141e+00  4.2649924206492678e+00  7.2368784864062474e-01  2.2721897706468326e+00  1.8080320760875555e+00  -9.1407387837675980e-01  -2.3884077275176736e+00  -7.1518686818960253e+00  -9.8198581056465528e+00  -9.4832271839896478e+00  -8.9069568144752331e+00  -8.3070206760952185e+00  -7.7793806943961341e+00  -7.4214025605778771e+00  -7.2132685423974614e+00  -7.1103361860705725e+00  -7.0869640664769227e+00  -7.1177568947023033e+00  -7.1700769070441215e+00  -7.2185882834484270e+00  -7.2521672129984935e+00  -7.2696444756981107e+00  -7.2745583012133928e+00  -7.2717888308795375e+00  -7.2656769334122373e+00  -7.2592288214894731e+00  -7.2540419231600621e+00  -7.2506092316650248e+00  -7.2487365803331922e+00  -7.2479456737909773e+00  -7.2477053632534503e+00  -7.2476743061307811e+00  2.4014895245014620e+00  1.2960127281281635e+00  2.6846437158113057e+00  -1.0220624838635648e-02  -1.9417544178194419e+00  -1.6376934419520683e+00  -3.5085592565063171e+00  -8.7929068953482261e+00  -9.1736998170255397e+00  -8.8593591947605645e+00  -8.2987500745630403e+00  -7.8448124689937249e+00  -7.5451473417941308e+00  -7.3446573819275667e+00  -7.2119074846084201e+00  -7.1456865331901378e+00  -7.1394586675344884e+00  -7.1696308799430115e+00  -7.2090372277756245e+00  -7.2410549828998985e+00  -7.2606211279262753e+00  -7.2690349405909078e+00  -7.2697391434518552e+00  -7.2662131675175949e+00  -7.2611891303506306e+00  -7.2564374252138126e+00  -7.2528094359548998e+00  -7.2504668354669546e+00  -7.2491649038838890e+00  -7.2485840548147644e+00  -7.2484184023686771e+00  -2.6311195366143405e+00  2.2174200519403926e+00  1.5510723562613284e+00  -1.8687013094295495e+00  -1.5776044173062129e+00  -1.1951418333995798e+00  -1.9137907227962867e+00  -5.9356123901852493e+00  -8.8276776730369058e+00  -8.6876711470793389e+00  -8.2996290762030860e+00  -7.9554053566419318e+00  -7.7022671936422880e+00  -7.4962858839144646e+00  -7.3301503314492793e+00  -7.2201173592479968e+00  -7.1720576829705260e+00  -7.1730637053657258e+00  -7.1984306574724899e+00  -7.2270634092617723e+00  -7.2488060169795778e+00  -7.2615339780558301e+00  -7.2666011499031606e+00  -7.2663734466044598e+00  -7.2632440969237013e+00  -7.2591632266145938e+00  -7.2553945096410439e+00  -7.2525186813553795e+00  -7.2506207927551163e+00  -7.2495848864965247e+00  -7.2492904695126947e+00  -5.0762246487149252e+00  4.4468200212254105e+00  -1.3660743915866285e+00  -2.1974560698083958e+00  -8.7105940557882033e-01  -1.0055776591925842e+00  -1.4169325176939507e+00  -3.1951176980845668e+00  -7.5166931062805640e+00  -8.4324517535025834e+00  -8.3266111729185646e+00  -8.1004303406538298e+00  -7.8839158252952775e+00  -7.6624115951380070e+00  -7.4630794441237187e+00  -7.3103504917894950e+00  -7.2179758814457662e+00  -7.1838172329788783e+00  -7.1893943825936768e+00  -7.2117141499521251e+00  -7.2350027385299862e+00  -7.2524025629072746e+00  -7.2624261287618701e+00  -7.2660599966766286e+00  -7.2652680418431714e+00  -7.2621361737401608e+00  -7.2583411348311904e+00  -7.2549307649529764e+00  -7.2524003970779987e+00  -7.2508654658614695e+00  -7.2504088847601107e+00  5.2889335380524205e+00  6.7211487506854750e-01  -3.7751195780648521e+00  -8.8298997116068867e-01  -6.3531529856795199e-01  -8.9968643729507636e-01  -1.0098682909462435e+00  -1.7779158008761251e+00  -5.2209788369968866e+00  -8.0228931788065942e+00  -8.3158246207063424e+00  -8.2745646461078657e+00  -8.0727941968392347e+00  -7.8280828089774808e+00  -7.5970279851222005e+00  -7.4043793133862303e+00  -7.2696483291657472e+00  -7.1992466377582209e+00  -7.1820099674238511e+00  -7.1956557162613084e+00  -7.2195657481589377e+00  -7.2415565695957991e+00  -7.2567729801314655e+00  -7.2646078121529252e+00  -7.2665030812816278e+00  -7.2646130578725385e+00  -7.2609881473999458e+00  -7.2571533838963269e+00  -7.2540037392784038e+00  -7.2521088174888657e+00  -7.2516132711615979e+00  1.8764480389565755e+01  -1.1863116621881076e+01  -1.3598516145058954e+00  -3.3087024054034103e-01  -7.0902817529562401e-01  -7.9542125032627653e-01  -8.1370497878872594e-01  -1.2564606747804969e+00  -3.0229892716193896e+00  -6.8258075401639324e+00  -8.2684580846353679e+00  -8.4654366174629772e+00  -8.2789684235558187e+00  -8.0269949038773909e+00  -7.7681991012442557e+00  -7.5364385869171526e+00  -7.3561651928750527e+00  -7.2416109306762868e+00  -7.1912965617362090e+00  -7.1876807467283390e+00  -7.2072437284611608e+00  -7.2317221756595700e+00  -7.2515577390516057e+00  -7.2637040628088485e+00  -7.2686404960697386e+00  -7.2683459152080205e+00  -7.2651261826412208e+00  -7.2609621225542664e+00  -7.2572427072398549e+00  -7.2548517080099053e+00  -7.2532809906114748e+00  -8.7520110905020143e+00  -4.8866202414916140e+00  -4.5294313904879574e-01  -5.1668613178697986e-01  -1.0086316891189449e+00  -8.3115191299064883e-01  -7.4496392853917248e-01  -7.9486833382244604e-01  -2.3699846379085971e+00  -5.5818943096284572e+00  -8.1175310916846009e+00  -8.6122494674457073e+00  -8.2199115073642162e+00  -7.8574265017666836e+00  -7.5926736724934107e+00  -7.3718234290945652e+00  -7.2054605025251375e+00  -7.1144645700947811e+00  -7.0941385790350315e+00  -7.1177523316047209e+00  -7.1567182056287599e+00  -7.1933840300191907e+00  -7.2209619249825083e+00  -7.2385481856464384e+00  -7.2475503742691076e+00  -7.2502245516477437e+00  -7.2490478730676600e+00  -7.2462275097652853e+00  -7.2433209414287063e+00  -7.2412222934581472e+00  -7.2417197511055740e+00  1.1509286112109629e+01  -5.5462150619673460e+00  9.6780832408839401e-01  -1.7066800030450429e+00  -6.5996740605046122e-01  -6.6810886753095944e-01  -6.8285366244272627e-01  -1.8608498925550636e+00  -4.4353778189431132e+00  -7.2914613164719047e+00  -8.5979374466242895e+00  -8.4021215437594758e+00  -7.9851962278797997e+00  -7.7020845258707045e+00  -7.4681739206242961e+00  -7.2791182620735624e+00  -7.1589038524400257e+00  -7.1123548202019951e+00  -7.1198149430774622e+00  -7.1523755112613054e+00  -7.1882701770519013e+00  -7.2173001748380763e+00  -7.2369213779346566e+00  -7.2478751478002374e+00  -7.2520800513700383e+00  -7.2518437100834410e+00  -7.2493700447587646e+00  -7.2463494673315019e+00  -7.2438161954631788e+00  -7.2423331166569698e+00  -7.2415775669020643e+00  2.1510880402720649e+00  5.7619472452539027e+00  -8.9103027243640138e+00  9.2180606273508792e-01  -1.1396343987693698e+00  -6.8475311486643953e-01  -1.1264508532307180e+00  -3.1569101187677986e+00  -6.3648072298695979e+00  -8.7082858121688673e+00  -8.7355325636614438e+00  -8.0460606902268381e+00  -7.7305054407391980e+00  -7.5433059616886808e+00  -7.3527641618243997e+00  -7.2049908489419447e+00  -7.1301742619958892e+00  -7.1210295537901311e+00  -7.1481560439413263e+00  -7.1838859274656359e+00  -7.2141043247303935e+00  -7.2352148425422262e+00  -7.2477707843891634e+00  -7.2533887846114027e+00  -7.2540948032017720e+00  -7.2520325268551131e+00  -7.2490263048059163e+00  -7.2462658453138120e+00  -7.2442980399939909e+00  -7.2431694605643271e+00  -7.2427958940960462e+00  7.8590658220432479e+00  1.9146738267678907e+00  1.4296542607736249e+00  -3.4826076371383765e+00  -6.9669209929518283e-01  -6.8342426319811356e-01  -2.0107354130852042e+00  -4.9278277671087478e+00  -8.3834898981871522e+00  -9.4240764487888420e+00  -8.5002964340049658e+00  -7.8061102441637198e+00  -7.5481700402524474e+00  -7.3776775046737537e+00  -7.2259388802475906e+00  -7.1268574753394169e+00  -7.1005572678875177e+00  -7.1267502005200569e+00  -7.1702083831121790e+00  -7.2079749060624927e+00  -7.2335246201453076e+00  -7.2482828494509830e+00  -7.2550350437595439e+00  -7.2562372471717316e+00  -7.2541614693874488e+00  -7.2508281985986027e+00  -7.2476704127994971e+00  -7.2453838850866008e+00  -7.2440391604008072e+00  -7.2433971512303712e+00  -7.2431551630458904e+00  6.1885517039009210e+00  2.3554341351675587e-01  4.5721028296484816e+00  -3.2448411896375973e+00  -9.6138975753208025e-02  -1.3356444559466645e+00  -3.2921846962443810e+00  -7.2476786761743694e+00  -9.9695184988810581e+00  -9.4307475393727547e+00  -8.2751558915616137e+00  -7.7223517666638646e+00  -7.4087834719749832e+00  -7.2200618628319493e+00  -7.1089470898483604e+00  -7.0651873657669988e+00  -7.0862043641812136e+00  -7.1400341992938419e+00  -7.1929602021142918e+00  -7.2299468644603087e+00  -7.2506923446344116e+00  -7.2596733552966528e+00  -7.2611557443228554e+00  -7.2584093750687604e+00  -7.2539807471855724e+00  -7.2497114444590789e+00  -7.2465888151656541e+00  -7.2448065232929224e+00  -7.2440344451475980e+00  -7.2438060102165744e+00  -7.2437793666803278e+00  4.9955259532861689e+00  1.5819393944975444e+00  2.1290547164210372e+00  2.5938076319136689e+00  -3.2145759329281622e+00  -1.4752313609379721e+00  -5.5364646468890637e+00  -9.7970769300705616e+00  -1.0562047035824650e+01  -9.0773351473488493e+00  -8.2194398408361060e+00  -7.7088803220553350e+00  -7.3109046991536930e+00  -7.0868827806092964e+00  -7.0050658181961252e+00  -7.0181657677416140e+00  -7.0817034542898041e+00  -7.1545605351045563e+00  -7.2118455287166636e+00  -7.2473298837905329e+00  -7.2644419525338675e+00  -7.2689240473308967e+00  -7.2660683554783061e+00  -7.2600346013708412e+00  -7.2537251760477837e+00  -7.2487989497461376e+00  -7.2457997718552161e+00  -7.2444643038679626e+00  -7.2441624449864186e+00  -7.2442885723927883e+00  -7.2443863325701106e+00  4.9802129298365188e+00  1.4611766303344551e+00  1.4622785024602536e+00  3.7882863378563014e+00  -1.1837010482675855e-01  -5.3012371420201765e+00  -8.9228869471946588e+00  -1.1529064521226124e+01  -1.0185278973133293e+01  -8.8500490384221298e+00  -8.2665471685626830e+00  -7.7041070485287637e+00  -7.2540741785116118e+00  -6.9935278368104727e+00  -6.9290281207807789e+00  -6.9889867480006878e+00  -7.0843412158692631e+00  -7.1677665221225659e+00  -7.2260324267655065e+00  -7.2600638674748446e+00  -7.2747306957740943e+00  -7.2760027464219448e+00  -7.2698928182491125e+00  -7.2613762945726705e+00  -7.2537007469080548e+00  -7.2483490534752173e+00  -7.2454745087476429e+00  -7.2444641230574875e+00  -7.2444909605772612e+00  -7.2448506341682188e+00  -7.2450315213505387e+00  4.8922183380491466e+00  1.3653555204606675e+00  1.6642328050532775e+00  2.9975588573977778e+00  5.6944738073520265e+00  -1.2838070577488510e+01  -1.2302723600955474e+01  -1.1776102659122886e+01  -9.5784826328163977e+00  -8.8724971359810105e+00  -8.3017479919955584e+00  -7.7014796827808327e+00  -7.2297801636143468e+00  -6.9507592170935268e+00  -6.8950320422465925e+00  -6.9779127819294748e+00  -7.0886335354991381e+00  -7.1761787032639157e+00  -7.2343874783539901e+00  -7.2676846291167871e+00  -7.2811204815059449e+00  -7.2805930471983418e+00  -7.2725588299147033e+00  -7.2625584929480320e+00  -7.2540851284911430e+00  -7.2484937208705480e+00  -7.2456693642381111e+00  -7.2448144388089988e+00  -7.2449934277507895e+00  -7.2454520973443346e+00  -7.2456620938293028e+00  5.3947887626232189e+00  1.2000837854292858e+00  1.9124725033118610e+00  2.2911415395097885e+00  7.4597052527999237e+00  -1.1845201845302485e+01  -1.6496056113757959e+01  -1.0576782211943662e+01  -9.4084027836720310e+00  -8.9640290956669375e+00  -8.2976594477843761e+00  -7.7042084730207385e+00  -7.2312365861597439e+00  -6.9645620118464544e+00  -6.9108233224357392e+00  -6.9855283582981400e+00  -7.0915525544477767e+00  -7.1783482618897168e+00  -7.2367544723848312e+00  -7.2701515751794803e+00  -7.2834306661088037e+00  -7.2825263395252069e+00  -7.2740390608833669e+00  -7.2636794912631242e+00  -7.2550049271247126e+00  -7.2493193771979385e+00  -7.2464296242229542e+00  -7.2455238964475264e+00  -7.2456646515786343e+00  -7.2460815324016519e+00  -7.2462709694757956e+00  6.4034752460294300e+00  5.3498982271411344e-01  2.3946687696490874e+00  2.6164609107336489e+00  4.1360147056836096e+00  -4.8725941938478616e+00  -1.5818947017563980e+01  -9.8749606616599284e+00  -9.6544040992256352e+00  -8.9516160616218912e+00  -8.2914142901739734e+00  -7.7071701776057306e+00  -7.2640470507363624e+00  -7.0347504256233337e+00  -6.9727852212990094e+00  -7.0117831828057993e+00  -7.0940244079587904e+00  -7.1746784081685471e+00  -7.2332069560733219e+00  -7.2674218824419858e+00  -7.2815861299566036e+00  -7.2817448961513227e+00  -7.2743280380607356e+00  -7.2647732868276913e+00  -7.25649489975127