<?xml version="1.0"?>
<VTKFile type="UnstructuredGrid"  version="0.1"  >
<UnstructuredGrid>
<Piece  NumberOfPoints="2976" NumberOfCells="13500">
<Points>
<DataArray  type="Float64"  NumberOfComponents="3"  format="ascii">0 0 0  0.3333333333333333 0 0  0.6666666666666666 0 0  1 0 0  1.333333333333333 0 0  1.666666666666667 0 0  2 0 0  2.333333333333333 0 0  2.666666666666667 0 0  3 0 0  3.333333333333333 0 0  3.666666666666667 0 0  4 0 0  4.333333333333333 0 0  4.666666666666667 0 0  5 0 0  5.333333333333333 0 0  5.666666666666667 0 0  6 0 0  6.333333333333333 0 0  6.666666666666667 0 0  7 0 0  7.333333333333333 0 0  7.666666666666667 0 0  8 0 0  8.333333333333334 0 0  8.666666666666666 0 0  9 0 0  9.333333333333334 0 0  9.666666666666666 0 0  10 0 0  0 0.2 0  0.3333333333333333 0.2 0  0.6666666666666666 0.2 0  1 0.2 0  1.333333333333333 0.2 0  1.666666666666667 0.2 0  2 0.2 0  2.333333333333333 0.2 0  2.666666666666667 0.2 0  3 0.2 0  3.333333333333333 0.2 0  3.666666666666667 0.2 0  4 0.2 0  4.333333333333333 0.2 0  4.666666666666667 0.2 0  5 0.2 0  5.333333333333333 0.2 0  5.666666666666667 0.2 0  6 0.2 0  6.333333333333333 0.2 0  6.666666666666667 0.2 0  7 0.2 0  7.333333333333333 0.2 0  7.666666666666667 0.2 0  8 0.2 0  8.333333333333334 0.2 0  8.666666666666666 0.2 0  9 0.2 0  9.333333333333334 0.2 0  9.666666666666666 0.2 0  10 0.2 0  0 0.4 0  0.3333333333333333 0.4 0  0.6666666666666666 0.4 0  1 0.4 0  1.333333333333333 0.4 0  1.666666666666667 0.4 0  2 0.4 0  2.333333333333333 0.4 0  2.666666666666667 0.4 0  3 0.4 0  3.333333333333333 0.4 0  3.666666666666667 0.4 0  4 0.4 0  4.333333333333333 0.4 0  4.666666666666667 0.4 0  5 0.4 0  5.333333333333333 0.4 0  5.666666666666667 0.4 0  6 0.4 0  6.333333333333333 0.4 0  6.666666666666667 0.4 0  7 0.4 0  7.333333333333333 0.4 0  7.666666666666667 0.4 0  8 0.4 0  8.333333333333334 0.4 0  8.666666666666666 0.4 0  9 0.4 0  9.333333333333334 0.4 0  9.666666666666666 0.4 0  10 0.4 0  0 0.6 0  0.3333333333333333 0.6 0  0.6666666666666666 0.6 0  1 0.6 0  1.333333333333333 0.6 0  1.666666666666667 0.6 0  2 0.6 0  2.333333333333333 0.6 0  2.666666666666667 0.6 0  3 0.6 0  3.333333333333333 0.6 0  3.666666666666667 0.6 0  4 0.6 0  4.333333333333333 0.6 0  4.666666666666667 0.6 0  5 0.6 0  5.333333333333333 0.6 0  5.666666666666667 0.6 0  6 0.6 0  6.333333333333333 0.6 0  6.666666666666667 0.6 0  7 0.6 0  7.333333333333333 0.6 0  7.666666666666667 0.6 0  8 0.6 0  8.333333333333334 0.6 0  8.666666666666666 0.6 0  9 0.6 0  9.333333333333334 0.6 0  9.666666666666666 0.6 0  10 0.6 0  0 0.8 0  0.3333333333333333 0.8 0  0.6666666666666666 0.8 0  1 0.8 0  1.333333333333333 0.8 0  1.666666666666667 0.8 0  2 0.8 0  2.333333333333333 0.8 0  2.666666666666667 0.8 0  3 0.8 0  3.333333333333333 0.8 0  3.666666666666667 0.8 0  4 0.8 0  4.333333333333333 0.8 0  4.666666666666667 0.8 0  5 0.8 0  5.333333333333333 0.8 0  5.666666666666667 0.8 0  6 0.8 0  6.333333333333333 0.8 0  6.666666666666667 0.8 0  7 0.8 0  7.333333333333333 0.8 0  7.666666666666667 0.8 0  8 0.8 0  8.333333333333334 0.8 0  8.666666666666666 0.8 0  9 0.8 0  9.333333333333334 0.8 0  9.666666666666666 0.8 0  10 0.8 0  0 1 0  0.3333333333333333 1 0  0.6666666666666666 1 0  1 1 0  1.333333333333333 1 0  1.666666666666667 1 0  2 1 0  2.333333333333333 1 0  2.666666666666667 1 0  3 1 0  3.333333333333333 1 0  3.666666666666667 1 0  4 1 0  4.333333333333333 1 0  4.666666666666667 1 0  5 1 0  5.333333333333333 1 0  5.666666666666667 1 0  6 1 0  6.333333333333333 1 0  6.666666666666667 1 0  7 1 0  7.333333333333333 1 0  7.666666666666667 1 0  8 1 0  8.333333333333334 1 0  8.666666666666666 1 0  9 1 0  9.333333333333334 1 0  9.666666666666666 1 0  10 1 0  0 1.2 0  0.3333333333333333 1.2 0  0.6666666666666666 1.2 0  1 1.2 0  1.333333333333333 1.2 0  1.666666666666667 1.2 0  2 1.2 0  2.333333333333333 1.2 0  2.666666666666667 1.2 0  3 1.2 0  3.333333333333333 1.2 0  3.666666666666667 1.2 0  4 1.2 0  4.333333333333333 1.2 0  4.666666666666667 1.2 0  5 1.2 0  5.333333333333333 1.2 0  5.666666666666667 1.2 0  6 1.2 0  6.333333333333333 1.2 0  6.666666666666667 1.2 0  7 1.2 0  7.333333333333333 1.2 0  7.666666666666667 1.2 0  8 1.2 0  8.333333333333334 1.2 0  8.666666666666666 1.2 0  9 1.2 0  9.333333333333334 1.2 0  9.666666666666666 1.2 0  10 1.2 0  0 1.4 0  0.3333333333333333 1.4 0  0.6666666666666666 1.4 0  1 1.4 0  1.333333333333333 1.4 0  1.666666666666667 1.4 0  2 1.4 0  2.333333333333333 1.4 0  2.666666666666667 1.4 0  3 1.4 0  3.333333333333333 1.4 0  3.666666666666667 1.4 0  4 1.4 0  4.333333333333333 1.4 0  4.666666666666667 1.4 0  5 1.4 0  5.333333333333333 1.4 0  5.666666666666667 1.4 0  6 1.4 0  6.333333333333333 1.4 0  6.666666666666667 1.4 0  7 1.4 0  7.333333333333333 1.4 0  7.666666666666667 1.4 0  8 1.4 0  8.333333333333334 1.4 0  8.666666666666666 1.4 0  9 1.4 0  9.333333333333334 1.4 0  9.666666666666666 1.4 0  10 1.4 0  0 1.6 0  0.3333333333333333 1.6 0  0.6666666666666666 1.6 0  1 1.6 0  1.333333333333333 1.6 0  1.666666666666667 1.6 0  2 1.6 0  2.333333333333333 1.6 0  2.666666666666667 1.6 0  3 1.6 0  3.333333333333333 1.6 0  3.666666666666667 1.6 0  4 1.6 0  4.333333333333333 1.6 0  4.666666666666667 1.6 0  5 1.6 0  5.333333333333333 1.6 0  5.666666666666667 1.6 0  6 1.6 0  6.333333333333333 1.6 0  6.666666666666667 1.6 0  7 1.6 0  7.333333333333333 1.6 0  7.666666666666667 1.6 0  8 1.6 0  8.333333333333334 1.6 0  8.666666666666666 1.6 0  9 1.6 0  9.333333333333334 1.6 0  9.666666666666666 1.6 0  10 1.6 0  0 1.8 0  0.3333333333333333 1.8 0  0.6666666666666666 1.8 0  1 1.8 0  1.333333333333333 1.8 0  1.666666666666667 1.8 0  2 1.8 0  2.333333333333333 1.8 0  2.666666666666667 1.8 0  3 1.8 0  3.333333333333333 1.8 0  3.666666666666667 1.8 0  4 1.8 0  4.333333333333333 1.8 0  4.666666666666667 1.8 0  5 1.8 0  5.333333333333333 1.8 0  5.666666666666667 1.8 0  6 1.8 0  6.333333333333333 1.8 0  6.666666666666667 1.8 0  7 1.8 0  7.333333333333333 1.8 0  7.666666666666667 1.8 0  8 1.8 0  8.333333333333334 1.8 0  8.666666666666666 1.8 0  9 1.8 0  9.333333333333334 1.8 0  9.666666666666666 1.8 0  10 1.8 0  0 2 0  0.3333333333333333 2 0  0.6666666666666666 2 0  1 2 0  1.333333333333333 2 0  1.666666666666667 2 0  2 2 0  2.333333333333333 2 0  2.666666666666667 2 0  3 2 0  3.333333333333333 2 0  3.666666666666667 2 0  4 2 0  4.333333333333333 2 0  4.666666666666667 2 0  5 2 0  5.333333333333333 2 0  5.666666666666667 2 0  6 2 0  6.333333333333333 2 0  6.666666666666667 2 0  7 2 0  7.333333333333333 2 0  7.666666666666667 2 0  8 2 0  8.333333333333334 2 0  8.666666666666666 2 0  9 2 0  9.333333333333334 2 0  9.666666666666666 2 0  10 2 0  0 2.2 0  0.3333333333333333 2.2 0  0.6666666666666666 2.2 0  1 2.2 0  1.333333333333333 2.2 0  1.666666666666667 2.2 0  2 2.2 0  2.333333333333333 2.2 0  2.666666666666667 2.2 0  3 2.2 0  3.333333333333333 2.2 0  3.666666666666667 2.2 0  4 2.2 0  4.333333333333333 2.2 0  4.666666666666667 2.2 0  5 2.2 0  5.333333333333333 2.2 0  5.666666666666667 2.2 0  6 2.2 0  6.333333333333333 2.2 0  6.666666666666667 2.2 0  7 2.2 0  7.333333333333333 2.2 0  7.666666666666667 2.2 0  8 2.2 0  8.333333333333334 2.2 0  8.666666666666666 2.2 0  9 2.2 0  9.333333333333334 2.2 0  9.666666666666666 2.2 0  10 2.2 0  0 2.4 0  0.3333333333333333 2.4 0  0.6666666666666666 2.4 0  1 2.4 0  1.333333333333333 2.4 0  1.666666666666667 2.4 0  2 2.4 0  2.333333333333333 2.4 0  2.666666666666667 2.4 0  3 2.4 0  3.333333333333333 2.4 0  3.666666666666667 2.4 0  4 2.4 0  4.333333333333333 2.4 0  4.666666666666667 2.4 0  5 2.4 0  5.333333333333333 2.4 0  5.666666666666667 2.4 0  6 2.4 0  6.333333333333333 2.4 0  6.666666666666667 2.4 0  7 2.4 0  7.333333333333333 2.4 0  7.666666666666667 2.4 0  8 2.4 0  8.333333333333334 2.4 0  8.666666666666666 2.4 0  9 2.4 0  9.333333333333334 2.4 0  9.666666666666666 2.4 0  10 2.4 0  0 2.6 0  0.3333333333333333 2.6 0  0.6666666666666666 2.6 0  1 2.6 0  1.333333333333333 2.6 0  1.666666666666667 2.6 0  2 2.6 0  2.333333333333333 2.6 0  2.666666666666667 2.6 0  3 2.6 0  3.333333333333333 2.6 0  3.666666666666667 2.6 0  4 2.6 0  4.333333333333333 2.6 0  4.666666666666667 2.6 0  5 2.6 0  5.333333333333333 2.6 0  5.666666666666667 2.6 0  6 2.6 0  6.333333333333333 2.6 0  6.666666666666667 2.6 0  7 2.6 0  7.333333333333333 2.6 0  7.666666666666667 2.6 0  8 2.6 0  8.333333333333334 2.6 0  8.666666666666666 2.6 0  9 2.6 0  9.333333333333334 2.6 0  9.666666666666666 2.6 0  10 2.6 0  0 2.8 0  0.3333333333333333 2.8 0  0.6666666666666666 2.8 0  1 2.8 0  1.333333333333333 2.8 0  1.666666666666667 2.8 0  2 2.8 0  2.333333333333333 2.8 0  2.666666666666667 2.8 0  3 2.8 0  3.333333333333333 2.8 0  3.666666666666667 2.8 0  4 2.8 0  4.333333333333333 2.8 0  4.666666666666667 2.8 0  5 2.8 0  5.333333333333333 2.8 0  5.666666666666667 2.8 0  6 2.8 0  6.333333333333333 2.8 0  6.666666666666667 2.8 0  7 2.8 0  7.333333333333333 2.8 0  7.666666666666667 2.8 0  8 2.8 0  8.333333333333334 2.8 0  8.666666666666666 2.8 0  9 2.8 0  9.333333333333334 2.8 0  9.666666666666666 2.8 0  10 2.8 0  0 3 0  0.3333333333333333 3 0  0.6666666666666666 3 0  1 3 0  1.333333333333333 3 0  1.666666666666667 3 0  2 3 0  2.333333333333333 3 0  2.666666666666667 3 0  3 3 0  3.333333333333333 3 0  3.666666666666667 3 0  4 3 0  4.333333333333333 3 0  4.666666666666667 3 0  5 3 0  5.333333333333333 3 0  5.666666666666667 3 0  6 3 0  6.333333333333333 3 0  6.666666666666667 3 0  7 3 0  7.333333333333333 3 0  7.666666666666667 3 0  8 3 0  8.333333333333334 3 0  8.666666666666666 3 0  9 3 0  9.333333333333334 3 0  9.666666666666666 3 0  10 3 0  0 0 0.1  0.3333333333333333 0 0.1  0.6666666666666666 0 0.1  1 0 0.1  1.333333333333333 0 0.1  1.666666666666667 0 0.1  2 0 0.1  2.333333333333333 0 0.1  2.666666666666667 0 0.1  3 0 0.1  3.333333333333333 0 0.1  3.666666666666667 0 0.1  4 0 0.1  4.333333333333333 0 0.1  4.666666666666667 0 0.1  5 0 0.1  5.333333333333333 0 0.1  5.666666666666667 0 0.1  6 0 0.1  6.333333333333333 0 0.1  6.666
[...]
<PointData  Scalars="f_7-1"> 
<DataArray  type="Float64"  Name="f_7-1"  format="ascii">1.6109547299614875e+00  4.9189185793410306e-01  7.0462057464863459e-01  6.9680380443620449e-01  6.8247591194680668e-01  6.8841181072575541e-01  6.9243870597077617e-01  7.0181633666094911e-01  6.8640751803834466e-01  6.4603005787808743e-01  6.1393218619702306e-01  6.0395403641274648e-01  6.0766069204749440e-01  6.1538220572596414e-01  6.2274792276489321e-01  6.2836058949589890e-01  6.3191325878934212e-01  6.3361054869511468e-01  6.3394091018035725e-01  6.3347572967926435e-01  6.3270201248381941e-01  6.3194012892559204e-01  6.3134718842110660e-01  6.3096379526001301e-01  6.3076492816273722e-01  6.3069853176581192e-01  6.3070981456078601e-01  6.3075419878988559e-01  6.3080278256914490e-01  6.3083454920382542e-01  6.3084316444098432e-01  2.4908532277910909e+00  8.1856042739949053e-01  7.6829720392289913e-01  7.0456277158204605e-01  7.1161006922063441e-01  7.0647132057256123e-01  7.1341463917009329e-01  7.0469479248293543e-01  6.6572791771838868e-01  6.2303278208752533e-01  6.0323429023910735e-01  6.0353867887316981e-01  6.1099370510227569e-01  6.1901392863076521e-01  6.2568430636727368e-01  6.3040122835017465e-01  6.3307441163547751e-01  6.3403036283881198e-01  6.3384788719092922e-01  6.3311974827168471e-01  6.3228143801110359e-01  6.3157119837079978e-01  6.3107499431301639e-01  6.3078861046893753e-01  6.3066551670104642e-01  6.3064766027494557e-01  6.3068325100067613e-01  6.3073527915254890e-01  6.3078120012224592e-01  6.3080946901471580e-01  6.3082177964178421e-01  1.7083199519917800e+00  1.3352692766071581e+00  7.3681564148774159e-01  7.9200851591812449e-01  7.3698524057895420e-01  7.3901295294840708e-01  7.3838747694871865e-01  6.9337065191260627e-01  6.2454266111272128e-01  5.8561041471103292e-01  5.8587068980798185e-01  6.0026654329569817e-01  6.1320258320494136e-01  6.2262361930040355e-01  6.2926317583916536e-01  6.3333236483454491e-01  6.3503659303912630e-01  6.3498470795590178e-01  6.3401137556977438e-01  6.3281976205678792e-01  6.3180642925579311e-01  6.3110547739142564e-01  6.3070529305679113e-01  6.3053598213908102e-01  6.3051508426267611e-01  6.3056980712077548e-01  6.3064742130724660e-01  6.3071732928861046e-01  6.3076650259800437e-01  6.3079484148447007e-01  6.3080479568220005e-01  1.9960457631112987e+00  1.1485811070928058e+00  1.1728976614609889e+00  8.1754562626706107e-01  7.8740763133437131e-01  7.8418671439143295e-01  7.4919128979677985e-01  6.5662755406591700e-01  5.7160836520812375e-01  5.4928114152084195e-01  5.6942811110572300e-01  5.9555883812726262e-01  6.1437428547324135e-01  6.2629635439752218e-01  6.3343962537238518e-01  6.3686831137268107e-01  6.3738943012571836e-01  6.3612006930848009e-01  6.3422531415936978e-01  6.3250212492646174e-01  6.3128146107683214e-01  6.3058081174336444e-01  6.3028368156777859e-01  6.3024639638640467e-01  6.3034330709622688e-01  6.3048269477619778e-01  6.3060967685807101e-01  6.3070100118906369e-01  6.3075530949910374e-01  6.3078232143028101e-01  6.3078940437503905e-01  1.8452601750590616e+00  1.0120458524337199e+00  1.4109147997894445e+00  9.5502239319204096e-01  8.7226821860279646e-01  8.2628882081243649e-01  7.3179523694550497e-01  5.9620831246069994e-01  5.2006324125195313e-01  5.2147333750282832e-01  5.5539145719491578e-01  5.8951584586933159e-01  6.1430493278486920e-01  6.2967890669101867e-01  6.3778436471249089e-01  6.4055330174287006e-01  6.3976226317101548e-01  6.3722672813334436e-01  6.3442445115698698e-01  6.3218568397730068e-01  6.3075776496074409e-01  6.3005150599070836e-01  6.2985443799031515e-01  6.2994990130556960e-01  6.3016658461616659e-01  6.3039209901226467e-01  6.3056913227889255e-01  6.3068245955852908e-01  6.3074209369798040e-01  6.3076733031102661e-01  6.3077250817026831e-01  1.7071096981518732e+00  1.0442580523560980e+00  1.3083575435578476e+00  1.2928463856356254e+00  9.6137455168586361e-01  8.6070761390184536e-01  6.7649282915151698e-01  5.2647742136881781e-01  4.8133839006080464e-01  5.0375151526792561e-01  5.4444618164133185e-01  5.8338079089392614e-01  6.1341644897794712e-01  6.3248525468358607e-01  6.4175729714347196e-01  6.4386930827125588e-01  6.4180115933974413e-01  6.3812925327948877e-01  6.3455706237432830e-01  6.3188619289317516e-01  6.3028080972846945e-01  6.2956891501909285e-01  6.2946091965282336e-01  6.2967612125879735e-01  6.3000089934687653e-01  6.3030361226697595e-01  6.3052512922343229e-01  6.3065795245294631e-01  6.3072209530459700e-01  6.3074580163633009e-01  6.3074970970069133e-01  1.6690527355551916e+00  1.0330350652879805e+00  1.2280365096882335e+00  1.4666234808323373e+00  1.1811107665209803e+00  8.5246255640371671e-01  5.9426963921531073e-01  4.6874469291607102e-01  4.5966719257730815e-01  4.9399620931794774e-01  5.3690175992842704e-01  5.7850879744371864e-01  6.1233805624097304e-01  6.3444707757306529e-01  6.4472673903140187e-01  6.4628930638615589e-01  6.4321858829611789e-01  6.3871487246996628e-01  6.3460094704288972e-01  6.3162608768568262e-01  6.2989390683549007e-01  6.2917995364314083e-01  6.2914161982882211e-01  6.2945005546660160e-01  6.2985851127133585e-01  6.3022049775711309e-01  6.3047598430579466e-01  6.3062366514241774e-01  6.3069140185365313e-01  6.3071429586724448e-01  6.3071756199127726e-01  1.6574721984845540e+00  1.0116479270698846e+00  1.2193858580005645e+00  1.4665378639607272e+00  1.4446238941311129e+00  8.0925836769122761e-01  5.2015874690452124e-01  4.3708438802082283e-01  4.5236575552561242e-01  4.8977267007202219e-01  5.3316527996009022e-01  5.7598848478067921e-01  6.1170895963557936e-01  6.3537422234661800e-01  6.4613987643242488e-01  6.4739866586033135e-01  6.4382777572733374e-01  6.3892388695622937e-01  6.3454831555178859e-01  6.3142330199702812e-01  6.2962928664955586e-01  6.2891980642156831e-01  6.2892524052922227e-01  6.2928977788553586e-01  6.2974771536259533e-01  6.3014447356240455e-01  6.3042008132742333e-01  6.3057682948840943e-01  6.3064740139415554e-01  6.3067051361375093e-01  6.3067387032406275e-01  1.6881631887630342e+00  9.9170124659444403e-01  1.2291172538724850e+00  1.4680681721569717e+00  1.4832709182149035e+00  8.2138977590318729e-01  4.8224844090700725e-01  4.3529682915366319e-01  4.5422489184151610e-01  4.9018392808758421e-01  5.3355473143539467e-01  5.7635743220817548e-01  6.1186638832860329e-01  6.3514356024437835e-01  6.4569283027501045e-01  6.4699276474348799e-01  6.4354699851444996e-01  6.3873121710862391e-01  6.3439566355337396e-01  6.3128727898872861e-01  6.2950471985743606e-01  6.2880818167953623e-01  6.2882773020761307e-01  6.2920503214910839e-01  6.2967274007724083e-01  6.3007627368596963e-01  6.3035649707796582e-01  6.3051624412198926e-01  6.3058900949107999e-01  6.3061352931146231e-01  6.3061778319644601e-01  1.7705657612346248e+00  9.5590807308625658e-01  1.2860256711883005e+00  1.4585762020037010e+00  1.2995780076577941e+00  8.5746647466614712e-01  5.1508591476157095e-01  4.5684020898857031e-01  4.6248504148179992e-01  4.9563958314476292e-01  5.3807688077968696e-01  5.7956967411195282e-01  6.1267758726462485e-01  6.3370557381367354e-01  6.4343988554646403e-01  6.4512706632388583e-01  6.4239473580550532e-01  6.3813588673384181e-01  6.3413974741584478e-01  6.3121726443354254e-01  6.2952142706086089e-01  6.2884684975181371e-01  6.2885038613097755e-01  6.2919641982033314e-01  6.2963380847360995e-01  6.3001608595886294e-01  6.3028550496086966e-01  6.3044256155099276e-01  6.3051682905024109e-01  6.3054389732155414e-01  6.3054985322782142e-01  1.8127105725182484e+00  9.4000480500696448e-01  1.3697231232275202e+00  1.3601829703371735e+00  1.0566916135984172e+00  8.3831626030196138e-01  6.2085094200289381e-01  4.9387485716417390e-01  4.7938406420818225e-01  5.0644256048496350e-01  5.4656639764082815e-01  5.8495976953348561e-01  6.1357552931122727e-01  6.3112465947779606e-01  6.3977248100145401e-01  6.4208983181100898e-01  6.4048256174956641e-01  6.3716339276324419e-01  6.3377978639187926e-01  6.3120322438999910e-01  6.2966441671183593e-01  6.2901973763391905e-01  6.2897993444466815e-01  6.2925555375305142e-01  6.2962728878185525e-01  6.2996363125446486e-01  6.3020870751740332e-01  6.3035786940729954e-01  6.3043322006173763e-01  6.3046369775912436e-01  6.3047199484549155e-01  1.6738489208682670e+00  1.0456422483242844e+00  1.4040227220434327e+00  1.1477607524237599e+00  8.5894198379940478e-01  8.0009695515442936e-01  7.1727107913193844e-01  5.5432422958222782e-01  5.0661119590955195e-01  5.2295504212614308e-01  5.5849222412430999e-01  5.9121712285926586e-01  6.1382207660753862e-01  6.2763014722238808e-01  6.3528821778367628e-01  6.3832787844124772e-01  6.3802160796393381e-01  6.3588653108570825e-01  6.3332841477627055e-01  6.3122981795514899e-01  6.2990410141272990e-01  6.2929396818102590e-01  6.2918918238547195e-01  6.2936519553397663e-01  6.2964545150812756e-01  6.2991785844246895e-01  6.3012857971796898e-01  6.3026588496216041e-01  6.3034251989523760e-01  6.3037627201156832e-01  6.3038730099083928e-01  1.2699195779837382e+00  1.2385464870743828e+00  1.3068776053895927e+00  8.7870925429598223e-01  7.6031631091753904e-01  7.7266768095419902e-01  7.4662058040994295e-01  6.3046703996931541e-01  5.4604626869734652e-01  5.4616002364476546e-01  5.7266123195655139e-01  5.9679100957798181e-01  6.1290922044740481e-01  6.2359867402714353e-01  6.3058166600424093e-01  6.3431628603008927e-01  6.3528700440553665e-01  6.3442260937443917e-01  6.3281309827799992e-01  6.3127888393897147e-01  6.3020110313642608e-01  6.2962612186996214e-01  6.2944259841628591e-01  6.2950275879684947e-01  6.2967786600433107e-01  6.2987680840543614e-01  6.3004779858962257e-01  6.3017135874017427e-01  6.3024824607174745e-01  6.3028631110065281e-01  6.3030037168997599e-01  8.3017115453990409e-01  1.4461512843635285e+00  9.9504518363032923e-01  7.0084857592453809e-01  7.3666366620126178e-01  7.4112377428227338e-01  7.3316798419733309e-01  6.8501383266078442e-01  5.9789137844490259e-01  5.7468723001977018e-01  5.8651539457676816e-01  6.0001189548565281e-01  6.1065151149174302e-01  6.1938841037580050e-01  6.2613029186822045e-01  6.3054231672988126e-01  6.3266076889788414e-01  6.3299366113482636e-01  6.3232095672596755e-01  6.3135222021872994e-01  6.3051450692226207e-01  6.2996320402653028e-01  6.2969381060588170e-01  6.2963646784180816e-01  6.2970770564347001e-01  6.2983514320670897e-01  6.2996825996135497e-01  6.3007897149027536e-01  6.3015697049111585e-01  6.3020261624523766e-01  6.3021507285587897e-01  2.1795191914279446e+00  1.2892659705729212e+00  6.0941987631866579e-01  6.8999895228990005e-01  7.1303627261856362e-01  7.0828067359012414e-01  7.1360963487118412e-01  7.0466558089734799e-01  6.5210916284513376e-01  6.0813702637661282e-01  5.9865644451791378e-01  6.0101668283194143e-01  6.0765537962470506e-01  6.1533703963976472e-01  6.2215666314373186e-01  6.2723881898773493e-01  6.3034931366480418e-01  6.3172191038289671e-01  6.3188637361811750e-01  6.3142973496516785e-01  6.3080405901438064e-01  6.3026582877554638e-01  6.2991319795901302e-01  6.2974807840396108e-01  6.2972630744451275e-01  6.2979090253864356e-01  6.2989149008381651e-01  6.2999203183668717e-01  6.3007308236682502e-01  6.3012161720388837e-01  6.3013493650832653e-01  4.7331941028883753e+00  -1.0823228564834980e-01  5.8396062894277134e-01  6.9944986190697200e-01  6.8490207619906274e-01  6.8398416133124107e-01  6.9572205395282039e-01  7.0135713989936777e-01  6.8082408307242559e-01  6.3167836783645281e-01  6.0373077658813101e-01  5.9877260342766236e-01  6.0372029669867266e-01  6.1144660126156369e-01  6.1892203320549843e-01  6.2488564328382223e-01  6.2889893881217895e-01  6.3104786931820922e-01  6.3175871244390935e-01  6.3159119034314581e-01  6.3104877382708524e-01  6.3047320870921464e-01  6.3003659140906465e-01  6.2978691521086672e-01  6.2970158591709569e-01  6.2972893164572741e-01  6.2981452414099992e-01  6.2991483538119242e-01  6.3000139019679013e-01  6.3005575153372351e-01  6.3008130143175334e-01  2.4565338213429833e+00  1.8398592327898816e-01  7.8795676798875014e-01  7.0175233753780608e-01  6.8605405830754795e-01  6.9027791855910603e-01  6.8988216126487223e-01  7.0126053570190416e-01  6.8929504729357616e-01  6.4770164874458214e-01  6.1245505765903385e-01  6.0150768213284889e-01  6.0590077790478902e-01  6.1442488757702629e-01  6.2229904023532367e-01  6.2821323859739753e-01  6.3194582737967309e-01  6.3373321224289814e-01  6.3408281552923462e-01  6.3359197710000337e-01  6.3277582252892406e-01  6.3197458614963498e-01  6.3135384627491620e-01  6.3095485744664859e-01  6.3074995537424705e-01  6.3068375522639986e-01  6.3069848154853914e-01  6.3074734260071130e-01  6.3079965140748606e-01  6.3083492277761521e-01  6.3084414005598377e-01  4.1933944808975596e+00  6.4487600156721636e-01  8.3335315990116465e-01  6.6010516733562941e-01  7.1222038437681068e-01  7.0097973882127140e-01  7.1446430787629989e-01  7.1324843531153348e-01  6.7568208605821323e-01  6.2708870992455501e-01  6.0294255430271826e-01  6.0321914205899407e-01  6.1117336483030738e-01  6.1911070436973292e-01  6.2561770132915862e-01  6.3027935804991553e-01  6.3297838062422707e-01  6.3398444737809145e-01  6.3384048589776776e-01  6.3313168691545918e-01  6.3229975718729914e-01  6.3158926943594340e-01  6.3108956042642617e-01  6.3079843958008386e-01  6.3067089059865988e-01  6.3064971933351266e-01  6.3068333692775835e-01  6.3073439126300090e-01  6.3077983581593655e-01  6.3080852145968358e-01  6.3082268356295756e-01  2.4841042071197905e+00  1.4690816808616396e+00  4.9118839263324482e-01  8.1910427594546831e-01  7.1784939006404125e-01  7.3555198334301786e-01  7.4585084357212472e-01  7.0681446997981912e-01  6.2959973677602787e-01  5.8133451093200061e-01  5.8265730173839125e-01  6.0061738182686131e-01  6.1419028278376619e-01  6.2309609427392632e-01  6.2940470957991757e-01  6.3339128652915999e-01  6.3509339471749893e-01  6.3502737197138903e-01  6.3402307899409593e-01  6.3280835530727331e-01  6.3178925345759940e-01  6.3109275989415292e-01  6.3069872975664187e-01  6.3053387634636759e-01  6.3051564559631534e-01  6.3057180801722412e-01  6.3064996112265093e-01  6.3071970645598785e-01  6.3076841165321595e-01  6.3079653319021467e-01  6.3080680126504474e-01  2.9191228567818768e+00  1.0250968261360718e+00  1.4067720488880966e+00  6.7042845233786019e-01  7.8706131274753377e-01  7.8297065437971336e-01  7.6385227364763275e-01  6.6821086122333107e-01  5.6692992978236079e-01  5.3998049005670912e-01  5.6648610688701440e-01  5.9653273779121430e-01  6.1565453364092193e-01  6.2705782570068014e-01  6.3387871644989702e-01  6.3719691930307354e-01  6.3763515823840544e-01  6.3624651981492830e-01  6.3424117167008009e-01  6.3245785378294439e-01  6.3122437327353331e-01  6.3053460866807365e-01  6.3025400340317483e-01  6.3023128996544797e-01  6.3033889007207911e-01  6.3048495422645223e-01  6.3061507262938710e-01  6.3070691059388029e-01  6.3076038394307377e-01  6.3078648751269661e-01  6.3079291126752246e-01  2.6403886021749785e+00  7.9708052674285801e-01  1.6573849339613334e+00  8.4802599201352369e-01  8.6477723408945173e-01  8.2833517384623179e-01  7.5112136788504691e-01  5.9788880870152272e-01  5.0627194190680014e-01  5.1156988630254174e-01  5.5312303764254156e-01  5.9013941636862755e-01  6.1555032438410084e-01  6.3078542810797000e-01  6.3863858823323760e-01  6.4120702399686880e-01  6.4018970233616290e-01  6.3741384951774771e-01  6.3443254194900878e-01  6.3210635858605313e-01  6.3066038533191304e-01  6.2997067499408133e-01  6.2980059355764417e-01  6.2992156426162094e-01  6.3015761230921452e-01  6.3039519732472782e-01  6.3057780207238201e-01  6.3069205008550511e-01  6.3075035326104889e-01  6.3077377563805714e-01  6.3077791527143257e-01  2.4435748452398758e+00  8.9175954993099149e-01  1.4040336051505493e+00  1.3919121267555212e+00  8.7749899417446819e-01  8.8506731673794270e-01  6.8623238153486044e-01  5.1308077996525780e-01  4.6353727031285791e-01  4.9653285477181569e-01  5.4256670932920059e-01  5.8339031779070571e-01  6.1451067963151673e-01  6.3392568819443751e-01  6.4307741324353895e-01  6.4484926143404342e-01  6.4236832904902830e-01  6.3834153203860944e-01  6.3454405596224150e-01  6.3177133628847659e-01  6.3014609626144724e-01  6.2945653216148423e-01  6.2938569145316392e-01  6.2963697968349563e-01  6.2998918816469907e-01  6.3030857915572491e-01  6.3053736365507829e-01  6.3067104940309249e-01  6.3073309290616653e-01  6.3075399922230169e-01  6.3075664441321388e-01  2.3830810656956962e+00  8.8450507488007879e-01  1.2860868150814306e+00  1.5490340167998484e+00  1.2018027016643806e+00  8.4518556287151503e-01  5.8630992215306854e-01  4.4179191960381681e-01  4.4486456341067859e-01  4.8957688185201342e-01  5.3479831791549481e-01  5.7796474049096336e-01  6.1322402215225835e-01  6.3614214066583252e-01  6.4645048628966861e-01  6.4752404352871173e-01  6.4386893800987244e-01  6.3892969643034048e-01  6.3456777620523175e-01  6.3148482314097576e-01  6.2973155779372436e-01  6.2904387818160901e-01  6.2905050498114068e-01  6.2940335574553585e-01  6.2984543045729746e-01  6.3022738875053719e-01  6.3049111876051889e-01  6.3063937421137006e-01  6.3070426008412861e-01  6.3072362245957214e-01  6.3072553369012996e-01  2.3557235619590764e+00  8.6528629898126708e-01  1.2824661407607183e+00  1.4749157893010276e+00  1.6031753370433006e+00  7.5356285108688925e-01  4.8720012075713298e-01  4.0579743969819754e-01  4.4378064315224747e-01  4.8610074492036504e-01  5.3078099688503455e-01  5.7518621595853769e-01  6.1248596720188087e-01  6.3722681997605357e-01  6.4808701932600321e-01  6.4875525044041960e-01  6.4450735966276385e-01  6.3913470650792858e-01  6.3450412467678674e-01  6.3126802395095349e-01  6.2945171025356239e-01  6.2877057395549962e-01  6.2882555810433527e-01  6.2923938126769097e-01  6.2973436983946751e-01  6.3015273316607689e-01  6.3043690129447161e-01  6.3059386456781097e-01  6.3066106306753877e-01  6.3068028498628848e-01  6.3068226657995974e-01  2.3831901315760593e+00  8.4796776222313885e-01  1.2877324007717645e+00  1.4758535543491611e+00  1.6349092490968244e+00  8.0519791253709216e-01  4.0681026125096564e-01  4.1442928465732309e-01  4.4801661632461598e-01  4.8596851570593153e-01  5.3120099919661490e-01  5.7559938455329174e-01  6.1272792373643126e-01  6.3703340500682559e-01  6.4760549134479350e-01  6.4830775417740605e-01  6.4421000566670383e-01  6.3894101706000428e-01  6.3435283679103982e-01  6.3113184415759227e-01  6.2932609036689979e-01  6.2865812642096564e-01  6.2872796032376044e-01  6.2915511124762036e-01  6.2965997984763644e-01  6.3008490312933896e-01  6.3037341714614126e-01  6.3053311610397333e-01  6.3060231400068967e-01  6.3062300545306338e-01  6.3062597487985217e-01  2.4768839750508755e+00  8.0449292758334867e-01  1.3523670607788369e+00  1.4952653259676596e+00  1.3794095722284887e+00  8.7169735063804166e-01  4.4462292835974193e-01  4.4281786510750731e-01  4.5388649306171919e-01  4.9113892391375846e-01  5.3589001187339147e-01  5.7918444992811846e-01  6.1380693354462179e-01  6.3548186915888649e-01  6.4506549417098002e-01  6.4625254515848918e-01  6.4299952000624738e-01  6.3834478015689800e-01  6.3410840448979133e-01  6.3107494464011793e-01  6.2935604759313213e-01  6.2870857881108555e-01  6.2875916095738371e-01  6.2915113106112441e-01  6.2962239238080742e-01  6.3002402267114110e-01  6.3030087032698323e-01  6.3045780157883269e-01  6.3052863242674895e-01  6.3055233798261423e-01  6.3055723026915911e-01  2.5412723827822381e+00  7.6722474883102043e-01  1.4678387856631336e+00  1.4155010295213344e+00  1.0686190895791343e+00  8.2415112869955442e-01  6.1881601723871027e-01  4.7141299853641105e-01  4.6861204730155653e-01  5.0159275771790068e-01  5.4466569110358753e-01  5.8526652533206169e-01  6.1500630941234991e-01  6.3261637527245473e-01  6.4094991510227450e-01  6.4293249683925024e-01  6.4098594206380910e-01  6.3735917144480558e-01  6.3376393385744023e-01  6.3108492005710104e-01  6.2952504978336632e-01  6.2890448561456513e-01  6.2890489164598296e-01  6.29218627044895