<?xml version="1.0"?>
<VTKFile type="UnstructuredGrid"  version="0.1"  >
<UnstructuredGrid>
<Piece  NumberOfPoints="2976" NumberOfCells="13500">
<Points>
<DataArray  type="Float64"  NumberOfComponents="3"  format="ascii">0 0 0  0.3333333333333333 0 0  0.6666666666666666 0 0  1 0 0  1.333333333333333 0 0  1.666666666666667 0 0  2 0 0  2.333333333333333 0 0  2.666666666666667 0 0  3 0 0  3.333333333333333 0 0  3.666666666666667 0 0  4 0 0  4.333333333333333 0 0  4.666666666666667 0 0  5 0 0  5.333333333333333 0 0  5.666666666666667 0 0  6 0 0  6.333333333333333 0 0  6.666666666666667 0 0  7 0 0  7.333333333333333 0 0  7.666666666666667 0 0  8 0 0  8.333333333333334 0 0  8.666666666666666 0 0  9 0 0  9.333333333333334 0 0  9.666666666666666 0 0  10 0 0  0 0.2 0  0.3333333333333333 0.2 0  0.6666666666666666 0.2 0  1 0.2 0  1.333333333333333 0.2 0  1.666666666666667 0.2 0  2 0.2 0  2.333333333333333 0.2 0  2.666666666666667 0.2 0  3 0.2 0  3.333333333333333 0.2 0  3.666666666666667 0.2 0  4 0.2 0  4.333333333333333 0.2 0  4.666666666666667 0.2 0  5 0.2 0  5.333333333333333 0.2 0  5.666666666666667 0.2 0  6 0.2 0  6.333333333333333 0.2 0  6.666666666666667 0.2 0  7 0.2 0  7.333333333333333 0.2 0  7.666666666666667 0.2 0  8 0.2 0  8.333333333333334 0.2 0  8.666666666666666 0.2 0  9 0.2 0  9.333333333333334 0.2 0  9.666666666666666 0.2 0  10 0.2 0  0 0.4 0  0.3333333333333333 0.4 0  0.6666666666666666 0.4 0  1 0.4 0  1.333333333333333 0.4 0  1.666666666666667 0.4 0  2 0.4 0  2.333333333333333 0.4 0  2.666666666666667 0.4 0  3 0.4 0  3.333333333333333 0.4 0  3.666666666666667 0.4 0  4 0.4 0  4.333333333333333 0.4 0  4.666666666666667 0.4 0  5 0.4 0  5.333333333333333 0.4 0  5.666666666666667 0.4 0  6 0.4 0  6.333333333333333 0.4 0  6.666666666666667 0.4 0  7 0.4 0  7.333333333333333 0.4 0  7.666666666666667 0.4 0  8 0.4 0  8.333333333333334 0.4 0  8.666666666666666 0.4 0  9 0.4 0  9.333333333333334 0.4 0  9.666666666666666 0.4 0  10 0.4 0  0 0.6 0  0.3333333333333333 0.6 0  0.6666666666666666 0.6 0  1 0.6 0  1.333333333333333 0.6 0  1.666666666666667 0.6 0  2 0.6 0  2.333333333333333 0.6 0  2.666666666666667 0.6 0  3 0.6 0  3.333333333333333 0.6 0  3.666666666666667 0.6 0  4 0.6 0  4.333333333333333 0.6 0  4.666666666666667 0.6 0  5 0.6 0  5.333333333333333 0.6 0  5.666666666666667 0.6 0  6 0.6 0  6.333333333333333 0.6 0  6.666666666666667 0.6 0  7 0.6 0  7.333333333333333 0.6 0  7.666666666666667 0.6 0  8 0.6 0  8.333333333333334 0.6 0  8.666666666666666 0.6 0  9 0.6 0  9.333333333333334 0.6 0  9.666666666666666 0.6 0  10 0.6 0  0 0.8 0  0.3333333333333333 0.8 0  0.6666666666666666 0.8 0  1 0.8 0  1.333333333333333 0.8 0  1.666666666666667 0.8 0  2 0.8 0  2.333333333333333 0.8 0  2.666666666666667 0.8 0  3 0.8 0  3.333333333333333 0.8 0  3.666666666666667 0.8 0  4 0.8 0  4.333333333333333 0.8 0  4.666666666666667 0.8 0  5 0.8 0  5.333333333333333 0.8 0  5.666666666666667 0.8 0  6 0.8 0  6.333333333333333 0.8 0  6.666666666666667 0.8 0  7 0.8 0  7.333333333333333 0.8 0  7.666666666666667 0.8 0  8 0.8 0  8.333333333333334 0.8 0  8.666666666666666 0.8 0  9 0.8 0  9.333333333333334 0.8 0  9.666666666666666 0.8 0  10 0.8 0  0 1 0  0.3333333333333333 1 0  0.6666666666666666 1 0  1 1 0  1.333333333333333 1 0  1.666666666666667 1 0  2 1 0  2.333333333333333 1 0  2.666666666666667 1 0  3 1 0  3.333333333333333 1 0  3.666666666666667 1 0  4 1 0  4.333333333333333 1 0  4.666666666666667 1 0  5 1 0  5.333333333333333 1 0  5.666666666666667 1 0  6 1 0  6.333333333333333 1 0  6.666666666666667 1 0  7 1 0  7.333333333333333 1 0  7.666666666666667 1 0  8 1 0  8.333333333333334 1 0  8.666666666666666 1 0  9 1 0  9.333333333333334 1 0  9.666666666666666 1 0  10 1 0  0 1.2 0  0.3333333333333333 1.2 0  0.6666666666666666 1.2 0  1 1.2 0  1.333333333333333 1.2 0  1.666666666666667 1.2 0  2 1.2 0  2.333333333333333 1.2 0  2.666666666666667 1.2 0  3 1.2 0  3.333333333333333 1.2 0  3.666666666666667 1.2 0  4 1.2 0  4.333333333333333 1.2 0  4.666666666666667 1.2 0  5 1.2 0  5.333333333333333 1.2 0  5.666666666666667 1.2 0  6 1.2 0  6.333333333333333 1.2 0  6.666666666666667 1.2 0  7 1.2 0  7.333333333333333 1.2 0  7.666666666666667 1.2 0  8 1.2 0  8.333333333333334 1.2 0  8.666666666666666 1.2 0  9 1.2 0  9.333333333333334 1.2 0  9.666666666666666 1.2 0  10 1.2 0  0 1.4 0  0.3333333333333333 1.4 0  0.6666666666666666 1.4 0  1 1.4 0  1.333333333333333 1.4 0  1.666666666666667 1.4 0  2 1.4 0  2.333333333333333 1.4 0  2.666666666666667 1.4 0  3 1.4 0  3.333333333333333 1.4 0  3.666666666666667 1.4 0  4 1.4 0  4.333333333333333 1.4 0  4.666666666666667 1.4 0  5 1.4 0  5.333333333333333 1.4 0  5.666666666666667 1.4 0  6 1.4 0  6.333333333333333 1.4 0  6.666666666666667 1.4 0  7 1.4 0  7.333333333333333 1.4 0  7.666666666666667 1.4 0  8 1.4 0  8.333333333333334 1.4 0  8.666666666666666 1.4 0  9 1.4 0  9.333333333333334 1.4 0  9.666666666666666 1.4 0  10 1.4 0  0 1.6 0  0.3333333333333333 1.6 0  0.6666666666666666 1.6 0  1 1.6 0  1.333333333333333 1.6 0  1.666666666666667 1.6 0  2 1.6 0  2.333333333333333 1.6 0  2.666666666666667 1.6 0  3 1.6 0  3.333333333333333 1.6 0  3.666666666666667 1.6 0  4 1.6 0  4.333333333333333 1.6 0  4.666666666666667 1.6 0  5 1.6 0  5.333333333333333 1.6 0  5.666666666666667 1.6 0  6 1.6 0  6.333333333333333 1.6 0  6.666666666666667 1.6 0  7 1.6 0  7.333333333333333 1.6 0  7.666666666666667 1.6 0  8 1.6 0  8.333333333333334 1.6 0  8.666666666666666 1.6 0  9 1.6 0  9.333333333333334 1.6 0  9.666666666666666 1.6 0  10 1.6 0  0 1.8 0  0.3333333333333333 1.8 0  0.6666666666666666 1.8 0  1 1.8 0  1.333333333333333 1.8 0  1.666666666666667 1.8 0  2 1.8 0  2.333333333333333 1.8 0  2.666666666666667 1.8 0  3 1.8 0  3.333333333333333 1.8 0  3.666666666666667 1.8 0  4 1.8 0  4.333333333333333 1.8 0  4.666666666666667 1.8 0  5 1.8 0  5.333333333333333 1.8 0  5.666666666666667 1.8 0  6 1.8 0  6.333333333333333 1.8 0  6.666666666666667 1.8 0  7 1.8 0  7.333333333333333 1.8 0  7.666666666666667 1.8 0  8 1.8 0  8.333333333333334 1.8 0  8.666666666666666 1.8 0  9 1.8 0  9.333333333333334 1.8 0  9.666666666666666 1.8 0  10 1.8 0  0 2 0  0.3333333333333333 2 0  0.6666666666666666 2 0  1 2 0  1.333333333333333 2 0  1.666666666666667 2 0  2 2 0  2.333333333333333 2 0  2.666666666666667 2 0  3 2 0  3.333333333333333 2 0  3.666666666666667 2 0  4 2 0  4.333333333333333 2 0  4.666666666666667 2 0  5 2 0  5.333333333333333 2 0  5.666666666666667 2 0  6 2 0  6.333333333333333 2 0  6.666666666666667 2 0  7 2 0  7.333333333333333 2 0  7.666666666666667 2 0  8 2 0  8.333333333333334 2 0  8.666666666666666 2 0  9 2 0  9.333333333333334 2 0  9.666666666666666 2 0  10 2 0  0 2.2 0  0.3333333333333333 2.2 0  0.6666666666666666 2.2 0  1 2.2 0  1.333333333333333 2.2 0  1.666666666666667 2.2 0  2 2.2 0  2.333333333333333 2.2 0  2.666666666666667 2.2 0  3 2.2 0  3.333333333333333 2.2 0  3.666666666666667 2.2 0  4 2.2 0  4.333333333333333 2.2 0  4.666666666666667 2.2 0  5 2.2 0  5.333333333333333 2.2 0  5.666666666666667 2.2 0  6 2.2 0  6.333333333333333 2.2 0  6.666666666666667 2.2 0  7 2.2 0  7.333333333333333 2.2 0  7.666666666666667 2.2 0  8 2.2 0  8.333333333333334 2.2 0  8.666666666666666 2.2 0  9 2.2 0  9.333333333333334 2.2 0  9.666666666666666 2.2 0  10 2.2 0  0 2.4 0  0.3333333333333333 2.4 0  0.6666666666666666 2.4 0  1 2.4 0  1.333333333333333 2.4 0  1.666666666666667 2.4 0  2 2.4 0  2.333333333333333 2.4 0  2.666666666666667 2.4 0  3 2.4 0  3.333333333333333 2.4 0  3.666666666666667 2.4 0  4 2.4 0  4.333333333333333 2.4 0  4.666666666666667 2.4 0  5 2.4 0  5.333333333333333 2.4 0  5.666666666666667 2.4 0  6 2.4 0  6.333333333333333 2.4 0  6.666666666666667 2.4 0  7 2.4 0  7.333333333333333 2.4 0  7.666666666666667 2.4 0  8 2.4 0  8.333333333333334 2.4 0  8.666666666666666 2.4 0  9 2.4 0  9.333333333333334 2.4 0  9.666666666666666 2.4 0  10 2.4 0  0 2.6 0  0.3333333333333333 2.6 0  0.6666666666666666 2.6 0  1 2.6 0  1.333333333333333 2.6 0  1.666666666666667 2.6 0  2 2.6 0  2.333333333333333 2.6 0  2.666666666666667 2.6 0  3 2.6 0  3.333333333333333 2.6 0  3.666666666666667 2.6 0  4 2.6 0  4.333333333333333 2.6 0  4.666666666666667 2.6 0  5 2.6 0  5.333333333333333 2.6 0  5.666666666666667 2.6 0  6 2.6 0  6.333333333333333 2.6 0  6.666666666666667 2.6 0  7 2.6 0  7.333333333333333 2.6 0  7.666666666666667 2.6 0  8 2.6 0  8.333333333333334 2.6 0  8.666666666666666 2.6 0  9 2.6 0  9.333333333333334 2.6 0  9.666666666666666 2.6 0  10 2.6 0  0 2.8 0  0.3333333333333333 2.8 0  0.6666666666666666 2.8 0  1 2.8 0  1.333333333333333 2.8 0  1.666666666666667 2.8 0  2 2.8 0  2.333333333333333 2.8 0  2.666666666666667 2.8 0  3 2.8 0  3.333333333333333 2.8 0  3.666666666666667 2.8 0  4 2.8 0  4.333333333333333 2.8 0  4.666666666666667 2.8 0  5 2.8 0  5.333333333333333 2.8 0  5.666666666666667 2.8 0  6 2.8 0  6.333333333333333 2.8 0  6.666666666666667 2.8 0  7 2.8 0  7.333333333333333 2.8 0  7.666666666666667 2.8 0  8 2.8 0  8.333333333333334 2.8 0  8.666666666666666 2.8 0  9 2.8 0  9.333333333333334 2.8 0  9.666666666666666 2.8 0  10 2.8 0  0 3 0  0.3333333333333333 3 0  0.6666666666666666 3 0  1 3 0  1.333333333333333 3 0  1.666666666666667 3 0  2 3 0  2.333333333333333 3 0  2.666666666666667 3 0  3 3 0  3.333333333333333 3 0  3.666666666666667 3 0  4 3 0  4.333333333333333 3 0  4.666666666666667 3 0  5 3 0  5.333333333333333 3 0  5.666666666666667 3 0  6 3 0  6.333333333333333 3 0  6.666666666666667 3 0  7 3 0  7.333333333333333 3 0  7.666666666666667 3 0  8 3 0  8.333333333333334 3 0  8.666666666666666 3 0  9 3 0  9.333333333333334 3 0  9.666666666666666 3 0  10 3 0  0 0 0.1  0.3333333333333333 0 0.1  0.6666666666666666 0 0.1  1 0 0.1  1.333333333333333 0 0.1  1.666666666666667 0 0.1  2 0 0.1  2.333333333333333 0 0.1  2.666666666666667 0 0.1  3 0 0.1  3.333333333333333 0 0.1  3.666666666666667 0 0.1  4 0 0.1  4.333333333333333 0 0.1  4.666666666666667 0 0.1  5 0 0.1  5.333333333333333 0 0.1  5.666666666666667 0 0.1  6 0 0.1  6.333333333333333 0 0.1  6.666
[...]
<PointData  Scalars="f_7-1"> 
<DataArray  type="Float64"  Name="f_7-1"  format="ascii">-5.3974500318267948e-01  -1.1627124321342410e+00  -3.3406690390848839e-03  2.2400451004455696e-01  1.6098825175094514e-01  2.3814760988610109e-01  2.1827956619692704e-01  -2.9931123282149471e-02  -8.8689294553809483e-01  -2.0172956415537624e+00  -2.7587821858647632e+00  -2.9669879056003015e+00  -2.9024114890133030e+00  -2.7708338686569749e+00  -2.6415627457059023e+00  -2.5340458601632356e+00  -2.4586255903673302e+00  -2.4188909755054322e+00  -2.4090629423517989e+00  -2.4174884068992406e+00  -2.4329436957613098e+00  -2.4481960979312540e+00  -2.4599731107447460e+00  -2.4675011326657241e+00  -2.4712551430043583e+00  -2.4722375027215295e+00  -2.4715677110585692e+00  -2.4702215701795125e+00  -2.4688738939913657e+00  -2.4679599184637317e+00  -2.4677286145089541e+00  4.5366798069521215e+00  -7.4947687751026770e-01  2.5432731187923630e-01  -5.9356227010873751e-02  1.9336013338253066e-01  1.8087867427202189e-01  9.4711929456705549e-02  -4.7318293192307775e-01  -1.5279104961589440e+00  -2.4915935934368432e+00  -2.9108277325128724e+00  -2.9205813623504042e+00  -2.8069559710679197e+00  -2.6831399048901110e+00  -2.5725642934024742e+00  -2.4869359748570981e+00  -2.4341701794210855e+00  -2.4133263839016728e+00  -2.4151801405267239e+00  -2.4281012309823664e+00  -2.4432932593097392e+00  -2.4561473668938532e+00  -2.4650956635656680e+00  -2.4701899397868901e+00  -2.4722166203426514e+00  -2.4722158927112310e+00  -2.4711813204673407e+00  -2.4698682327555641e+00  -2.4687447842476393e+00  -2.4680608067568945e+00  -2.4678222758313533e+00  1.6316231968366957e+00  2.3450389664701823e+00  -1.2856691365847854e+00  2.9366655182860268e-01  8.0898095680865950e-02  1.2631112324151411e-01  -1.4460273447397831e-01  -1.0630801447047249e+00  -2.2037858755196020e+00  -2.8845724059189082e+00  -2.9714816464570708e+00  -2.8419415398000440e+00  -2.7143292114302087e+00  -2.6054412916906817e+00  -2.5138496343014660e+00  -2.4496906189578356e+00  -2.4180193022980587e+00  -2.4133451989391199e+00  -2.4239387022232477e+00  -2.4391562056521643e+00  -2.4529332305558542e+00  -2.4630356829167890e+00  -2.4692298168339919e+00  -2.4721369909435609e+00  -2.4727198333509546e+00  -2.4719847466615925e+00  -2.4707610037170524e+00  -2.4695873246598192e+00  -2.4687249055239189e+00  -2.4682259921286906e+00  -2.4680535972332298e+00  3.5850827180543483e+00  1.6162129946259831e+00  9.5560980106105153e-01  -2.5913919910460514e-01  5.0393347576745955e-02  7.7028606949509276e-02  -5.8474550059482600e-01  -1.7936042080834733e+00  -2.8453579914299789e+00  -3.1453750492651835e+00  -2.9782209235309298e+00  -2.7737559025167524e+00  -2.6326633373269588e+00  -2.5311314250030650e+00  -2.4578727909485529e+00  -2.4162018236620812e+00  -2.4054767422705066e+00  -2.4155101188000803e+00  -2.4332346399911109e+00  -2.4498465123849384e+00  -2.4619699305574025e+00  -2.4693738754886838e+00  -2.4729364151153606e+00  -2.4737902320464329e+00  -2.4730597836428014e+00  -2.4716988222224727e+00  -2.4703580870492226e+00  -2.4693577689754709e+00  -2.4687501035034813e+00  -2.4684480631786454e+00  -2.4683565058335475e+00  3.0835840680041349e+00  1.2075659484755630e+00  2.2360455189212471e+00  -1.9110192804830037e-01  2.0888659142249985e-01  -2.1799255420694197e-01  -1.2358103284663244e+00  -2.6024541417562856e+00  -3.3288811696433140e+00  -3.2620777453264145e+00  -2.9679874480933548e+00  -2.7280423833681557e+00  -2.5656674641373862e+00  -2.4642129480999118e+00  -2.4079035947313310e+00  -2.3888245016200798e+00  -2.3976088360553223e+00  -2.4196853101524085e+00  -2.4424152245465458e+00  -2.4595411181281803e+00  -2.4699625062727266e+00  -2.4749001793859313e+00  -2.4760901832066882e+00  -2.4751223274191583e+00  -2.4732703017538453e+00  -2.4714186890853123e+00  -2.4700316456501694e+00  -2.4692148576297934e+00  -2.4688429971248640e+00  -2.4687241209112312e+00  -2.4687055106937872e+00  2.6279380080343051e+00  1.5643444441100585e+00  1.7838664527152708e+00  1.4445458037455066e+00  -1.5026014421774214e-01  -6.0322456102737021e-01  -2.1080792091513301e+00  -3.3498776579367968e+00  -3.5831977085469977e+00  -3.2882321313724741e+00  -2.9637692723676916e+00  -2.7024952844162908e+00  -2.5164977512112787e+00  -2.4093173942569641e+00  -2.3665390068089485e+00  -2.3683068238849243e+00  -2.3936442223516328e+00  -2.4245671266996935e+00  -2.4504227299139552e+00  -2.4675892377959818e+00  -2.4765654979412841e+00  -2.4794767171659542e+00  -2.4786921779537945e+00  -2.4762122848550523e+00  -2.4734564552461626e+00  -2.4712375781954585e+00  -2.4698422560487638e+00  -2.4691863818322073e+00  -2.4690095743663547e+00  -2.4690407428838683e+00  -2.4690780704087119e+00  2.6127467516400560e+00  1.5499366219586914e+00  1.5387997286162796e+00  2.1661895454111049e+00  4.0621614524143351e-01  -1.3518315616146097e+00  -3.1284139999721643e+00  -3.8360807454298045e+00  -3.6502909662693126e+00  -3.2860363775799915e+00  -2.9660433328706506e+00  -2.6899779118481262e+00  -2.4859597104611391e+00  -2.3712608381766129e+00  -2.3377023265866042e+00  -2.3554882843658533e+00  -2.3925960700131514e+00  -2.4290402272535316e+00  -2.4565716307117444e+00  -2.4735980220364397e+00  -2.4815276421616419e+00  -2.4829686977179777e+00  -2.4807206673164655e+00  -2.4771167773693241e+00  -2.4737036387331495e+00  -2.4712305476618677e+00  -2.4698364099635972e+00  -2.4692951519329536e+00  -2.4692538529588539e+00  -2.4693857363226512e+00  -2.4694587031382382e+00  2.6248960288519396e+00  1.4836960791268674e+00  1.5874685916709801e+00  2.0813638573152722e+00  1.7446133016155518e+00  -2.6442475184145811e+00  -3.8625973738484758e+00  -4.0298228447766427e+00  -3.6331581787939466e+00  -3.2843208417256333e+00  -2.9678538582052316e+00  -2.6852302871161453e+00  -2.4727746738622138e+00  -2.3541906252900833e+00  -2.3252577471271731e+00  -2.3507986463116421e+00  -2.3933631930616373e+00  -2.4322127241045663e+00  -2.4604230916653749e+00  -2.4773214237522834e+00  -2.4846647376058812e+00  -2.4852640037444180e+00  -2.4821564197809325e+00  -2.4778862559771628e+00  -2.4740845889018734e+00  -2.4714578610372495e+00  -2.4700494222111691e+00  -2.4695572184523353e+00  -2.4695762815219870e+00  -2.4697505055410431e+00  -2.4698373787129251e+00  2.8474859931445571e+00  1.3823332796199157e+00  1.6894670896238719e+00  1.9563184218801772e+00  2.1488217902292228e+00  -2.6762792252428032e+00  -4.3073231184731098e+00  -3.9942450542248369e+00  -3.6042768668515457e+00  -3.2851813995168677e+00  -2.9652899966385076e+00  -2.6854611719181456e+00  -2.4758105036683520e+00  -2.3603745409029564e+00  -2.3312192837417567e+00  -2.3543834843815401e+00  -2.3953427568681991e+00  -2.4336749976441627e+00  -2.4617972984309140e+00  -2.4786468734959253e+00  -2.4858738177933133e+00  -2.4862919258662206e+00  -2.4829861158413458e+00  -2.4785532034523912e+00  -2.4746448319084671e+00  -2.4719542650760320e+00  -2.4705023697961015e+00  -2.4699795731243452e+00  -2.4699761493759942e+00  -2.4701313767098481e+00  -2.4702098709151858e+00  3.2662141593462826e+00  1.1277248051435447e+00  1.8868423168880564e+00  1.9839741274108467e+00  1.3264106242702540e+00  -1.4187789914123579e+00  -4.1094910679506444e+00  -3.8162718267644369e+00  -3.6008053338778305e+00  -3.2747104989524005e+00  -2.9602435178752802e+00  -2.6905584151354835e+00  -2.4957428486586486e+00  -2.3893035027180174e+00  -2.3547330461606526e+00  -2.3661882879660099e+00  -2.3987706384112131e+00  -2.4335679909396997e+00  -2.4607284343506799e+00  -2.4775652100836827e+00  -2.4851336974921931e+00  -2.4860364952364278e+00  -2.4832090581484381e+00  -2.4791284150104356e+00  -2.4753959861095161e+00  -2.4727265057723242e+00  -2.4712000101213274e+00  -2.4705615473011808e+00  -2.4704530059551182e+00  -2.4705296168652962e+00  -2.4705780315114620e+00  3.2226486200631075e+00  9.5382273331650358e-01  2.0612707642372947e+00  1.7066027209355283e+00  2.6974274007329641e-01  -6.1264065306332860e-01  -2.7160563403321740e+00  -3.6902630058449963e+00  -3.5489085964744658e+00  -3.2536771411715963e+00  -2.9555604925194077e+00  -2.7037199751504826e+00  -2.5344101744203438e+00  -2.4375925241947103e+00  -2.3925406621330021e+00  -2.3859654169539271e+00  -2.4046406944276164e+00  -2.4325677427443733e+00  -2.4574807213960641e+00  -2.4741812918424952e+00  -2.4825113421779368e+00  -2.4845420116384243e+00  -2.4828382610736055e+00  -2.4795977420539379e+00  -2.4763126086246681e+00  -2.4737528088847545e+00  -2.4721267622438829e+00  -2.4713005743907641e+00  -2.4710053282282742e+00  -2.4709507004132689e+00  -2.4709502500873954e+00  2.2068588589305662e+00  1.3814475331740466e+00  2.1463158043128718e+00  8.1387668506270183e-01  -2.9756153569667809e-01  -2.9122769517885622e-01  -1.1778157957053317e+00  -3.2221488589738114e+00  -3.4201231741221805e+00  -3.2281048195655235e+00  -2.9494959494078881e+00  -2.7326453251093459e+00  -2.5921825003897596e+00  -2.5000026179587791e+00  -2.4406098266001734e+00  -2.4131779734914631e+00  -2.4141419744883366e+00  -2.4316981965127620e+00  -2.4525428182652851e+00  -2.4687202341805881e+00  -2.4781542461770845e+00  -2.4819025103340384e+00  -2.4818963224140131e+00  -2.4799258013532470e+00  -2.4773391364590700e+00  -2.4749860368585384e+00  -2.4732545752466049e+00  -2.4721872727730911e+00  -2.4716308037540919e+00  -2.4714058208502703e+00  -2.4713399820881330e+00  -3.6806947813496665e-01  1.9324137208535572e+00  1.6083829229864919e+00  -1.6775695820957789e-01  -2.3597988863852790e-01  -6.4921147147774680e-02  -4.0342009956944358e-01  -2.1218884648116134e+00  -3.2187560794582106e+00  -3.1565007643221166e+00  -2.9511721738870209e+00  -2.7835532908480634e+00  -2.6657020859736997e+00  -2.5709268509424410e+00  -2.4953705199788736e+00  -2.4468951494535300e+00  -2.4281597802611126e+00  -2.4322230215052336e+00  -2.4467622398484794e+00  -2.4616540078553619e+00  -2.4723470265935568e+00  -2.4782736839551198e+00  -2.4804163551420477e+00  -2.4800589181856316e+00  -2.4783914627368069e+00  -2.4763536726404389e+00  -2.4745379041563407e+00  -2.4731951117832680e+00  -2.4723439054351610e+00  -2.4719001819482718e+00  -2.4717629161485797e+00  -1.8019645101624207e+00  2.8154417775256930e+00  1.9318059278943661e-01  -4.9545935792986323e-01  8.3554403392717747e-02  4.9704312107563160e-02  -1.5498935483668355e-01  -9.9211497589488307e-01  -2.6647052235606643e+00  -3.0384703383861531e+00  -2.9689958159683245e+00  -2.8553070862231142e+00  -2.7506938871929916e+00  -2.6474355134040755e+00  -2.5556524512442871e+00  -2.4868176896835106e+00  -2.4473547052139426e+00  -2.4352766132884622e+00  -2.4410119522655433e+00  -2.4534515177865797e+00  -2.4653118225541948e+00  -2.4737310275065263e+00  -2.4783714295646360e+00  -2.4799142618000349e+00  -2.4793790483990441e+00  -2.4777876994753929e+00  -2.4759390717927676e+00  -2.4743248904503639e+00  -2.4731506114295336e+00  -2.4724406224815025e+00  -2.4722519800472273e+00  3.5923561349733104e+00  1.2706296337832417e+00  -1.1649634380418963e+00  6.0580445369026653e-02  2.2788621240153722e-01  1.1605251416202253e-01  3.1381205102318545e-02  -3.5000905314056074e-01  -1.7691247300373802e+00  -2.8465247425625657e+00  -2.9819540717725337e+00  -2.9394749053701759e+00  -2.8379711711276920e+00  -2.7235477544799345e+00  -2.6165020965141297e+00  -2.5287914447723070e+00  -2.4694597832908203e+00  -2.4407098235057929e+00  -2.4363088789917651e+00  -2.4452794082855949e+00  -2.4579278101117068e+00  -2.4688084806951851e+00  -2.4760138436632437e+00  -2.4795471242518485e+00  -2.4802413767974292e+00  -2.4791797424375464e+00  -2.4773538975235256e+00  -2.4754883738548576e+00  -2.4739810795344059e+00  -2.4730720820920657e+00  -2.4727927515203327e+00  1.1241137091440272e+01  -5.1012848816095797e+00  -1.8261093512659393e-01  3.5171180769149774e-01  2.3175036567814528e-01  1.7971641078520187e-01  1.4643300124695710e-01  -7.3917475246284572e-02  -8.8160547058777983e-01  -2.3935748638375487e+00  -2.9801592104836723e+00  -3.0305431387201138e+00  -2.9299409071249305e+00  -2.8067013177828044e+00  -2.6855498434726552e+00  -2.5798127848286803e+00  -2.5001644581057056e+00  -2.4525087177301494e+00  -2.4348186291281229e+00  -2.4377543532067558e+00  -2.4498949910744900e+00  -2.4628881647385490e+00  -2.4727507250894352e+00  -2.4785248448768766e+00  -2.4807305089367069e+00  -2.4804431154667919e+00  -2.4788116783527525e+00  -2.4767869756946088e+00  -2.4750138813534619e+00  -2.4738760260187855e+00  -2.4733579187312817e+00  -1.5418600269456757e+00  -1.9173610604594713e+00  3.4676532458448250e-01  2.7981415058700210e-01  1.1260039501073939e-01  1.7998831048752900e-01  1.6288855254369822e-01  6.1555386070058858e-02  -6.5751590149235817e-01  -1.8931232325369534e+00  -2.8116595642742892e+00  -3.0376692687073841e+00  -2.9236100274843921e+00  -2.7717609387931765e+00  -2.6420576321238154e+00  -2.5347323817763332e+00  -2.4569726754854457e+00  -2.4150170734948695e+00  -2.4048286918334170e+00  -2.4143402962014942e+00  -2.4311533249702300e+00  -2.4473805919480602e+00  -2.4597154361479134e+00  -2.4675436734991396e+00  -2.4714427497503597e+00  -2.4724562397678400e+00  -2.4717383552433319e+00  -2.4703071920255919e+00  -2.4688784987378374e+00  -2.4678969776371558e+00  -2.4676977516970116e+00  8.4777375363347165e+00  -1.5677429712151449e+00  8.0154458038309662e-01  -2.3371970861851205e-01  2.3231319723813237e-01  1.9063793088839642e-01  1.5655792316681172e-01  -3.5560535548337158e-01  -1.4381126440455025e+00  -2.5343625581224152e+00  -3.0226569199875959e+00  -2.9738853414283870e+00  -2.8086917879600093e+00  -2.6749798879489193e+00  -2.5649771597180719e+00  -2.4795325147698128e+00  -2.4268565913177693e+00  -2.4073520272452398e+00  -2.4116043960073394e+00  -2.4268225825823633e+00  -2.4434365752662215e+00  -2.4568556952525578e+00  -2.4658776642735285e+00  -2.4708447217549403e+00  -2.4726799575550542e+00  -2.4724829180993733e+00  -2.4712832304373231e+00  -2.4698568869368853e+00  -2.4686744412128698e+00  -2.4679612807074953e+00  -2.4676744441109899e+00  2.7457923107772908e+00  3.5257967994592905e+00  -3.3160337748637807e+00  8.6809278886970465e-01  -6.8371501365235270e-03  1.7245452476505352e-01  -2.5235869365447715e-02  -9.2462946225501219e-01  -2.2113892528688384e+00  -3.0558875581966940e+00  -3.0866769355384562e+00  -2.8431971658131361e+00  -2.6940471297335868e+00  -2.5950816359325266e+00  -2.5068629970782847e+00  -2.4421898303259106e+00  -2.4109216880533499e+00  -2.4086508115005092e+00  -2.4221976651793784e+00  -2.4394013273329369e+00  -2.4539246136584301e+00  -2.4640543405954363e+00  -2.4700406641832360e+00  -2.4727019261543131e+00  -2.4730503394103773e+00  -2.4721182034424078e+00  -2.4707590639411880e+00  -2.4695180662609686e+00  -2.4686385481969353e+00  -2.4681398764328502e+00  -2.4679594031333294e+00  5.7209168573684890e+00  1.5651559710565539e+00  1.5151824377183847e+00  -1.0114715132114298e+00  1.6794708150632781e-01  1.7216587942153649e-01  -4.1440011575525354e-01  -1.6932420997400406e+00  -2.9896642471202730e+00  -3.3522055261650987e+00  -3.0314209763209257e+00  -2.7461195563324896e+00  -2.6087201091105836e+00  -2.5191807574183067e+00  -2.4494526809483759e+00  -2.4075899046723808e+00  -2.3983350767476441e+00  -2.4118577894422044e+00  -2.4327904552686959e+00  -2.4509879979567546e+00  -2.4633736135531779e+00  -2.4705057319477213e+00  -2.4737190743630788e+00  -2.4742633193519179e+00  -2.4732756086227492e+00  -2.4717261714014298e+00  -2.4702806959340853e+00  -2.4692512372690261e+00  -2.4686599233841418e+00  -2.4683800711124384e+00  -2.4682961725463404e+00  4.7826883787048349e+00  6.4667812867209151e-01  3.1634451766693208e+00  -9.4424393487946801e-01  4.0145251322312409e-01  -9.5260701764426275e-02  -1.0282165144591164e+00  -2.6309790122337788e+00  -3.5909376212214905e+00  -3.4147222577710350e+00  -2.9681343705876566e+00  -2.7004124051105971e+00  -2.5424589191061227e+00  -2.4485530183071202e+00  -2.3966824246973677e+00  -2.3794791797124462e+00  -2.3915276129045071e+00  -2.4177544789687571e+00  -2.4433289210119660e+00  -2.4614105961855799e+00  -2.4716615561493605e+00  -2.4760998157409126e+00  -2.4768159674424379e+00  -2.4754732887476236e+00  -2.4733484326852291e+00  -2.4713317457413999e+00  -2.4698826597031434e+00  -2.4690793603849257e+00  -2.4687548089095621e+00  -2.4686769258203487e+00  -2.4686802827655692e+00  4.1127346169298802e+00  1.2873561409363981e+00  2.0022734678223295e+00  1.8969820274496052e+00  -8.4596479624570720e-01  -2.1545119599260029e-01  -1.9968644960978321e+00  -3.5778681281001270e+00  -3.8574278987683148e+00  -3.3393534449968962e+00  -2.9466277997312722e+00  -2.6851014542308476e+00  -2.4957667857802899e+00  -2.3895417109113137e+00  -2.3508592615438202e+00  -2.3580101582922617e+00  -2.3890186620860980e+00  -2.4243017206318682e+00  -2.4522904291103105e+00  -2.4698643818655190e+00  -2.4784446789279868e+00  -2.4807465496407568e+00  -2.4793907428258239e+00  -2.4764656981381865e+00  -2.4734167626450390e+00  -2.4710546317714588e+00  -2.4696371196246334e+00  -2.4690302970761149e+00  -2.4689243171951500e+00  -2.4690120998010916e+00  -2.4690776483816887e+00  4.0500654207293367e+00  1.2557813901862833e+00  1.5865415528967357e+00  2.6826223522353514e+00  3.8752816833599130e-01  -1.5929518229519035e+00  -3.2127548279775762e+00  -4.2199882946282701e+00  -3.8033351857825339e+00  -3.2707332390902217e+00  -2.9570084222853068e+00  -2.6802871331736409e+00  -2.4680713590593526e+00  -2.3479859425193901e+00  -2.3176808610195274e+00  -2.3445663078435168e+00  -2.3895780207006290e+00  -2.4301581543026267e+00  -2.4590275205279943e+00  -2.4760774239958403e+00  -2.4835245441408071e+00  -2.4843048905580924e+00  -2.4814050721420298e+00  -2.4772901931739062e+00  -2.4735666768320153e+00  -2.4709720252107643e+00  -2.4695903641933565e+00  -2.4691263231788003e+00  -2.4691727301250088e+00  -2.4693711173011073e+00  -2.4694743570755460e+00  4.0101983985949854e+00  1.1933038644598686e+00  1.6555766365065987e+00  2.3056808755213329e+00  2.9475974185980971e+00  -4.1014174432101207e+00  -4.2918810879089300e+00  -4.3921684656506033e+00  -3.6340322796338875e+00  -3.2663764986672903e+00  -2.9676017260227585e+00  -2.6790553863783337e+00  -2.4562611461685120e+00  -2.3287724163885457e+00  -2.3030150572016428e+00  -2.3397447367627975e+00  -2.3913376140121083e+00  -2.4340158942362944e+00  -2.4630968370878290e+00  -2.4798687481095367e+00  -2.4867254992709711e+00  -2.4866453948761227e+00  -2.4828334392098532e+00  -2.4780075068930487e+00  -2.4738859274919465e+00  -2.4711548268145367e+00  -2.4697807088422983e+00  -2.4693829597180601e+00  -2.4694985917410111e+00  -2.4697429888382394e+00  -2.4698596878240937e+00  4.2378203636715286e+00  1.0959275199062133e+00  1.7601783041813592e+00  2.0630218124269697e+00  3.5754598999532416e+00  -3.7235484381236623e+00  -5.6028872132687910e+00  -4.0647428660791221e+00  -3.5650057990778588e+00  -3.2881066685127589e+00  -2.9661806165351967e+00  -2.6800321810315300e+00  -2.4578837437521215e+00  -2.3348532265371187e+00  -2.3100268433082318e+00  -2.3437755573135139e+00  -2.3931975204998643e+00  -2.4353011367477460e+00  -2.4643927309629392e+00  -2.4811842737699221e+00  -2.4879473484319825e+00  -2.4876809680684393e+00  -2.4836541309601570e+00  -2.4786544650961568e+00  -2.4744281203342937e+00  -2.4716422407942646e+00  -2.4702304223289304e+00  -2.4698051450831704e+00  -2.4698999646645334e+00  -2.4701235055476132e+00  -2.4702295389995585e+00  4.7321919319014176e+00  7.6388224253641890e-01  2.0566711705872742e+00  2.1402533968321564e+00  2.0396361180292852e+00  -1.4334967548374009e+00  -5.4598588209968399e+00  -3.7862044052297144e+00  -3.6203331470273405e+00  -3.2812857779507998e+00  -2.9619525509235585e+00  -2.6819122454828577e+00  -2.4746529303467937e+00  -2.3662674460544117e+00  -2.3373954461291011e+00  -2.3564183039441637e+00  -2.3954728102955349e+00  -2.4342336607045345e+00  -2.4629701259296497e+00  -2.4800085002098000e+00  -2.4871594395769829e+00  -2.4873886309072009e+00  -2.4838648661265044e+00  -2.4792448828440277e+00  -2.4752081678124855e+00  -2.4724411855047057e+00  -2.470944