<?xml version="1.0"?>
<VTKFile type="UnstructuredGrid"  version="0.1"  >
<UnstructuredGrid>
<Piece  NumberOfPoints="588" NumberOfCells="2160">
<Points>
<DataArray  type="Float64"  NumberOfComponents="3"  format="ascii">0 0 0  0.5 0 0  1 0 0  1.5 0 0  2 0 0  2.5 0 0  3 0 0  3.5 0 0  4 0 0  4.5 0 0  5 0 0  5.5 0 0  6 0 0  6.5 0 0  7 0 0  7.5 0 0  8 0 0  8.5 0 0  9 0 0  9.5 0 0  10 0 0  0 0.5 0  0.5 0.5 0  1 0.5 0  1.5 0.5 0  2 0.5 0  2.5 0.5 0  3 0.5 0  3.5 0.5 0  4 0.5 0  4.5 0.5 0  5 0.5 0  5.5 0.5 0  6 0.5 0  6.5 0.5 0  7 0.5 0  7.5 0.5 0  8 0.5 0  8.5 0.5 0  9 0.5 0  9.5 0.5 0  10 0.5 0  0 1 0  0.5 1 0  1 1 0  1.5 1 0  2 1 0  2.5 1 0  3 1 0  3.5 1 0  4 1 0  4.5 1 0  5 1 0  5.5 1 0  6 1 0  6.5 1 0  7 1 0  7.5 1 0  8 1 0  8.5 1 0  9 1 0  9.5 1 0  10 1 0  0 1.5 0  0.5 1.5 0  1 1.5 0  1.5 1.5 0  2 1.5 0  2.5 1.5 0  3 1.5 0  3.5 1.5 0  4 1.5 0  4.5 1.5 0  5 1.5 0  5.5 1.5 0  6 1.5 0  6.5 1.5 0  7 1.5 0  7.5 1.5 0  8 1.5 0  8.5 1.5 0  9 1.5 0  9.5 1.5 0  10 1.5 0  0 2 0  0.5 2 0  1 2 0  1.5 2 0  2 2 0  2.5 2 0  3 2 0  3.5 2 0  4 2 0  4.5 2 0  5 2 0  5.5 2 0  6 2 0  6.5 2 0  7 2 0  7.5 2 0  8 2 0  8.5 2 0  9 2 0  9.5 2 0  10 2 0  0 2.5 0  0.5 2.5 0  1 2.5 0  1.5 2.5 0  2 2.5 0  2.5 2.5 0  3 2.5 0  3.5 2.5 0  4 2.5 0  4.5 2.5 0  5 2.5 0  5.5 2.5 0  6 2.5 0  6.5 2.5 0  7 2.5 0  7.5 2.5 0  8 2.5 0  8.5 2.5 0  9 2.5 0  9.5 2.5 0  10 2.5 0  0 3 0  0.5 3 0  1 3 0  1.5 3 0  2 3 0  2.5 3 0  3 3 0  3.5 3 0  4 3 0  4.5 3 0  5 3 0  5.5 3 0  6 3 0  6.5 3 0  7 3 0  7.5 3 0  8 3 0  8.5 3 0  9 3 0  9.5 3 0  10 3 0  0 0 0.1666666666666667  0.5 0 0.1666666666666667  1 0 0.1666666666666667  1.5 0 0.1666666666666667  2 0 0.1666666666666667  2.5 0 0.1666666666666667  3 0 0.1666666666666667  3.5 0 0.1666666666666667  4 0 0.1666666666666667  4.5 0 0.1666666666666667  5 0 0.1666666666666667  5.5 0 0.1666666666666667  6 0 0.1666666666666667  6.5 0 0.1666666666666667  7 0 0.1666666666666667  7.5 0 0.1666666666666667  8 0 0.1666666666666667  8.5 0 0.1666666666666667  9 0 0.1666666666666667  9.5 0 0.1666666666666667  10 0 0.1666666666666667  0 0.5 0.1666666666666667  0.5 0.5 0.1666666666666667  1 0.5 0.1666666666666667  1.5 0.5 0.1666666666666667  2 0.5 0.1666666666666667  2.5 0.5 0.1666666666666667  3 0.5 0.1666666666666667  3.5 0.5 0.1666666666666667  4 0.5 0.1666666666666667  4.5 0.5 0.1666666666666667  5 0.5 0.1666666666666667  5.5 0.5 0.1666666666666667  6 0.5 0.1666666666666667  6.5 0.5 0.1666666666666667  7 0.5 0.1666666666666667  7.5 0.5 0.1666666666666667  8 0.5 0.1666666666666667  8.5 0.5 0.1666666666666667  9 0.5 0.1666666666666667  9.5 0.5 0.1666666666666667  10 0.5 0.1666666666666667  0 1 0.1666666666666667  0.5 1 0.1666666666666667  1 1 0.1666666666666667  1.5 1 0.1666666666666667  2 1 0.1666666666666667  2.5 1 0.1666666666666667  3 1 0.1666666666666667  3.5 1 0.1666666666666667  4 1 0.1666666666666667  4.5 1 0.1666666666666667  5 1 0.1666666666666667  5.5 1 0.1666666666666667  6 1 0.1666666666666667  6.5 1 0.1666666666666667  7 1 0.1666666666666667  7.5 1 0.1666666666666667  8 1 0.1666666666666667  8.5 1 0.1666666666666667  9 1 0.1666666666666667  9.5 1 0.1666666666666667  10 1 0.1666666666666667  0 1.5 0.1666666666666667  0.5 1.5 0.1666666666666667  1 1.5 0.1666666666666667  1.5 1.5 0.1666666666666667  2 1.5 0.1666666666666667  2.5 1.5 0.1666666666666667  3 1.5 0.1666666666666667  3.5 1.5 0.1666666666666667  4 1.5 0.1666666666666667  4.5 1.5 0.1666666666666667  5 1.5 0.1666666666666667  5.5 1.5 0.1666666666666667  6 1.5 0.1666666666666667  6.5 1.5 0.1666666666666667  7 1.5 0.1666666666666667  7.5 1.5 0.1666666666666667  8 1.5 0.1666666666666667  8.5 1.5 0.1666666666666667  9 1.5 0.1666666666666667  9.5 1.5 0.1666666666666667  10 1.5 0.1666666666666667  0 2 0.1666666666666667  0.5 2 0.1666666666666667  1 2 0.1666666666666667  1.5 2 0.1666666666666667  2 2 0.1666666666666667  2.5 2 0.1666666666666667  3 2 0.1666666666666667  3.5 2 0.1666666666666667  4 2 0.1666666666666667  4.5 2 0.1666666666666667  5 2 0.1666666666666667  5.5 2 0.1666666666666667  6 2 0.1666666666666667  6.5 2 0.1666666666666667  7 2 0.1666666666666667  7.5 2 0.1666666666666667  8 2 0.1666666666666667  8.5 2 0.1666666666666667  9 2 0.1666666666666667  9.5 2 0.1666666666666667  10 2 0.1666666666666667  0 2.5 0.1666666666666667  0.5 2.5 0.1666666666666667  1 2.5 0.1666666666666667  1.5 2.5 0.1666666666666667  2 2.5 0.1666666666666667  2.5 2.5 0.1666666666666667  3 2.5 0.1666666666666667  3.5 2.5 0.1666666666666667  4 2.5 0.1666666666666667  4.5 2.5 0.1666666666666667  5 2.5 0.1666666666666667  5.5 2.5 0.1666666666666667  6 2.5 0.1666666666666667  6.5 2.5 0.1666666666666667  7 2.5 0.1666666666666667  7.5 2.5 0.1666666666666667  8 2.5 0.1666666666666667  8.5 2.5 0.1666666666666667  9 2.5 0.1666666666666667  9.5 2.5 0.1666666666666667  10 2.5 0.1666666666666667  0 3 0.1666666666666667  0.5 3 0.1666666666666667  1 3 0.1666666666666667  1.5 3 0.1666666666666667  2 3 0.1666666666666667  2.5 3 0.1666666666666667  3 3 0.1666666666666667  3.5 3 0.1666666666666667  4 3 0.1666666666666667  4.5 3 0.1666666666666667  5 3 0.1666666666666667  5.5 3 0.1666666666666667  6 3 0.1666666666666667  6.5 3 0.1666666666666667  7 3 0.1666666666666667  7.5 3 0.1666666666666667  8 3 0.1666666666666667  8.5 3 0.1666666666666667  9 3 0.1666666666666667  9.5 3 0.1666666666666667  10 3 0.1666666666666667  0 0 0.3333333333333333  0.5 0 0.3333333333333333  1 0 0.3333333333333333  1.5 0 0.3333333333333333  2 0 0.3333333333333333  2.5 0 0.3333333333333333  3 0 0.3333333333333333  3.5 0 0.3333333333333333  4 0 0.3333333333333333  4.5 0 0.3333333333333333  5 0 0.3333333333333333  5.5 0 0.3333333333333333  6 0 0.3333333333333333  6.5 0 0.3333333333333333  7 0 0.3333333333333333  7.5 0 0.3333333333333333  8 0 0.3333333333333333  8.5 0 0.3333333333333333  9 0 0.3333333333333333  9.5 0 0.3333333333333333  10 0 0.3333333333333333  0 0.5 0.3333333333333333  0.5 0.5 0.3333333333333333  1 0.5 0.3333333333333333  1.5 0.5 0.3333333333333333  2 0.5 0.3333333333333333  2.5 0.5 0.3333333333333333  3 0.5 0.3333333333333333  3.5 0.5 0.3333333333333333  4 0.5 0.3333333333333333  4.5 0.5 0.3333333333333333  5 0.5 0.3333333333333333  5.5 0.5 0.3333333333333333  6 0.5 0.3333333333333333  6.5 0.5 0.3333333333333333  7 0.5 0.3333333333333333  7.5 0.5 0.3333333333333333  8 0.5 0.3333333333333333  8.5 0.5 0.3333333333333333  9 0.5 0.3333333333333333  9.5 0.5 0.3333333333333333  10 0.5 0.3333333333333333  0 1 0.3333333333333333  0.5 1 0.3333333333333333  1 1 0.3333333333333333  1.5 1 0.3333333333333333  2 1 0.3333333333333333  2.5 1 0.3333333333333333  3 1 0.3333333333333333  3.5 1 0.3333333333333333  4 1 0.3333333333333333  4.5 1 0.3333333333333333  5 1 0.3333333333333333  5.5 1 0.3333333333333333  6 1 0.3333333333333333  6.5 1 0.3333333333333333  7 1 0.3333333333333333  7.5 1 0.3333333333333333  8 1 0.3333333333333333  8.5 1 0.3333333333333333  9 1 0.3333333333333333  9.5 1 0.3333333333333333  10 1 0.3333333333333333  0 1.5 0.3333333333333333  0.5 1.5 0.3333333333333333  1 1.5 0.3333333333333333  1.5 1.5 0.3333333333333333  2 1.5 0.3333333333333333  2.5 1.5 0.3333333333333333  3 1.5 0.3333333333333333  3.5 1.5 0.3333333333333333  4 1.5 0.3333333333333333  4.5 1.5 0.3333333333333333  5 1.5 0.3333333333333333  5.5 1.5 0.3333333333333333  6 1.5 0.3333333333333333  6.5 1.5 0.3333333333333333  7 1.5 0.3333333333333333  7.5 1.5 0.3333333333333333  8 1.5 0.3333333333333333  8.5 1.5 0.3333333333333333  9 1.5 0.3333333333333333  9.5 1.5 0.3333333333333333  10 1.5 0.3333333333333333  0 2 0.3333333333333333  0.5 2 0.3333333333333333  1 2 0.3333333333333333  1.5 2 0.3333333333333333  2 2 0.3333333333333333  2.5 2 0.3333333333333333  3 2 0.3333333333333333  3.5 2 0.3333333333333333  4 2 0.3333333333333333  4.5 2 0.3333333333333333  5 2 0.3333333333333333  5.5 2 0.3333333333333333  6 2 0.3333333333333333  6.5 2 0.3333333333333333  7 2 0.3333333333333333  7.5 2 0.3333333333333333  8 2 0.3333333333333333  8.5 2 0.3333333333333333  9 2 0.3333333333333333  9.5 2 0.3333333333333333  10 2 0.3333333333333333  0 2.5 0.3333333333333333  0.5 2.5 0.3333333333333333  1 2.5 0.3333333333333333  1.5 2.5 0.3333333333333333  2 2.5 0.3333333333333333  2.5 2.5 0.3333333333333333  3 2.5 0.3333333333333333  3.5 2.5 0.3333333333333333  4 2.5 0.3333333333333333  4.5 2.5 0.3333333333333333  5 2.5 0.3333333333333333  5.5 2.5 0.3333333333333333  6 2.5 0.3333333333333333  6.5 2.5 0.3333333333333333  7 2.5 0.3333333333333333  7.5 2.5 0.3333333333333333  8 2.5 0.3333333333333333  8.5 2.5 0.3333333333333333  9 2.5 0.3333333333333333  9.5 2.5 0.3333333333333333  10 2.5 0.3333333333333333  0 3 0.3333333333333333  0.5 3 0.3333333333333333  1 3 0.3333333333333333  1.5 3 0.3333333333333333  2 3 0.3333333333333333  2.5 3 0.3333333333333333  3 3 0.3333333333333333  3.5 3 0.3333333333333333  4 3 0.3333333333333333  4.5 3 0.3333333333333333  5 3 0.3333333333333333  5.5 3 0.3333333333333333  6 3 0.3333333333333333  6.5 3 0.3333333333333333  7 3 0.3333333333333333  7.5 3 0.3333333333333333  8 3 0.3333333333333333  8.5 3 0.3333333333333333  9 3 0.3333333333333333  9.5 3 0.3333333333333333  10 3 0.3333333333333333  0 0 0.5  0.5 0 0.5  1 0 0.5  1.5 0 0.5  2 0 0.5  2.5 0 0.5  3 0 0.5  3.5 0 0.5  4 0 0.5  4.5 0 0.5  5 0 0.5  5.5 0 0.5  6 0 0.5  6.5 0 0.5  7 0 0.5  7.5 0 0.5  8 0 0.5  8.5 0 0.5  9 0 0.5  9.5 0 0.5  10 0 0.5  0 0.5 0.5  0.5 0.5 0.5  1 0.5 0.5  1.5 0.5 0.5  2 0.5 0.5  2.5 0.5 0.5  3 0.5 0.5  3.5 0.5 0.5  4 0.5 0.5  4.5 0.5 0.5  5 0.5 0.5  5.5 0.5 0.5  6 0.5 0.5  6.5 0.5 0.5  7 0.5 0.5  7.5 0.5 0.5  8 0.5 0.5  8.5 0.5 0.5  9 0.5 0.5  9.5 0.5 0.5  10 0.5 0.5  0 1 0.5  0.5 1 0.5  1 1 0.5  1.5 1 0.5  2 1 0.5  2.5 1 0.5  3 1 0.5  3.5 1 0.5  4 1 0.5  4.5 1 0.5  5 1 0.5  5.5 1 0.5  6 1 0.5  6.5 1 0.5  7 1 0.5  7.5 1 0.5  8 1 0.5  8.5 1 0.5  9 1 0.5  9.5 1 0.5  10 1 0.5  0 1.5 0.5  0.5 1.5 0.5  1 1.5 0.5  1.5 1.5 0.5  2 1.5 0.5  2.5 1.5 0.5  3 1.5 0.5  3.5 1.5 0.5  4 1.5 0.5  4.5 1.5 0.5  5 1.5 0.5  5.5 1.5 0.5  6 1.5 0.5  6.5 1.5 0.5  7 1.5 0.5  7.5 1.5 0.5  8 1.5 0.5  8.
[...]
<PointData  Scalars="f_7-1"> 
<DataArray  type="Float64"  Name="f_7-1"  format="ascii">4.1338981942975778e+01  4.0405189845309728e+01  4.0433275874103067e+01  4.0747652321604185e+01  4.0832213658923976e+01  4.0846795706827770e+01  4.0848213263684571e+01  4.0847659818123475e+01  4.0846976907371463e+01  4.0846489471619158e+01  4.0846195940156690e+01  4.0846030779666528e+01  4.0845940232327713e+01  4.0845891190199602e+01  4.0845864806687850e+01  4.0845850669004825e+01  4.0845843119688624e+01  4.0845839118347243e+01  4.0845837046206938e+01  4.0845836067810325e+01  4.0845835779052834e+01  3.9784966460179199e+01  4.2273646743593623e+01  4.0757927234625832e+01  4.0797836693043436e+01  4.0852099921126438e+01  4.0849530464958022e+01  4.0848555984141498e+01  4.0847599364018897e+01  4.0846854584517104e+01  4.0846397214011176e+01  4.0846140029885170e+01  4.0845999238359973e+01  4.0845922898614916e+01  4.0845881788573010e+01  4.0845859744421460e+01  4.0845847950747228e+01  4.0845841658036498e+01  4.0845838324593494e+01  4.0845836598790186e+01  4.0845835789938768e+01  4.0845835552221054e+01  4.0550811011113332e+01  4.3557769445768983e+01  4.1270627514054809e+01  4.0848188892732175e+01  4.0878859410484935e+01  4.0854214002191760e+01  4.0848975447740678e+01  4.0847308573620431e+01  4.0846532343599769e+01  4.0846180408661517e+01  4.0846012999039679e+01  4.0845928337043482e+01  4.0845884115248765e+01  4.0845860820114233e+01  4.0845848472348656e+01  4.0845841901630415e+01  4.0845838405754208e+01  4.0845836557605672e+01  4.0845835602397649e+01  4.0845835165050872e+01  4.0845835029558657e+01  4.1040542283421409e+01  4.3956917995023638e+01  4.1484616706529245e+01  4.0826557477739726e+01  4.0889312984832998e+01  4.0853857578206750e+01  4.0847317489034715e+01  4.0846414279501303e+01  4.0845959000319851e+01  4.0845854858754322e+01  4.0845835734045366e+01  4.0845832144768742e+01  4.0845832299458436e+01  4.0845833036771666e+01  4.0845833592995668e+01  4.0845833931169295e+01  4.0845834123944265e+01  4.0845834231075536e+01  4.0845834289384619e+01  4.0845834333815176e+01  4.0845834334363147e+01  4.0994141075367786e+01  4.3402958283264198e+01  4.1313173635412355e+01  4.0758726038545966e+01  4.0864177801949630e+01  4.0844125150207724e+01  4.0843800699138818e+01  4.0844929696181943e+01  4.0845209819319180e+01  4.0845492078140808e+01  4.0845648929287698e+01  4.0845733820001065e+01  4.0845780324604554e+01  4.0845805407596714e+01  4.0845818858708661e+01  4.0845826055919012e+01  4.0845829897911010e+01  4.0845831935798280e+01  4.0845832992802585e+01  4.0845833507307141e+01  4.0845833643981891e+01  4.0158221611700505e+01  4.2441999572019121e+01  4.0947116204813987e+01  4.0592117343323089e+01  4.0817266527934009e+01  4.0837914787362827e+01  4.0839693820457420e+01  4.0843310341604059e+01  4.0844610381686330e+01  4.0845200245880200e+01  4.0845503759965567e+01  4.0845659754369983e+01  4.0845741597203840e+01  4.0845784947421599e+01  4.0845807981780283e+01  4.0845820251151814e+01  4.0845826784624414e+01  4.0845830243351287e+01  4.0845832033638473e+01  4.0845832892845422e+01  4.0845833131437089e+01  3.9945048339120675e+01  4.0536462866944248e+01  3.9759638070506853e+01  4.0445246218080811e+01  4.0855865634335935e+01  4.0830091915634029e+01  4.0835625241454110e+01  4.0843038007955357e+01  4.0844344490103339e+01  4.0845058327912376e+01  4.0845442406359176e+01  4.0845627771974584e+01  4.0845724944007515e+01  4.0845776182695758e+01  4.0845803319928841e+01  4.0845817766172679e+01  4.0845825453133827e+01  4.0845829520897937e+01  4.0845831627595871e+01  4.0845832629475538e+01  4.0845832896057551e+01  4.6676962263610214e+01  3.9112074919845988e+01  4.0478694917731218e+01  4.0757543343763864e+01  4.0833171859433378e+01  4.0846935193424493e+01  4.0848199654451456e+01  4.0847659470878703e+01  4.0846978125932573e+01  4.0846487585261613e+01  4.0846194431433211e+01  4.0846029959403765e+01  4.0845939781930738e+01  4.0845890939985708e+01  4.0845864670693310e+01  4.0845850595893552e+01  4.0845843080437959e+01  4.0845839096637384e+01  4.0845837033906854e+01  4.0845836061796973e+01  4.0845835758368175e+01  4.9530782972223967e+01  4.0634179146135658e+01  4.0674980242563748e+01  4.0855942462841348e+01  4.0843064101378317e+01  4.0848398082031807e+01  4.0848487788220318e+01  4.0847608731958047e+01  4.0846860594523612e+01  4.0846402437075696e+01  4.0846144362090456e+01  4.0846001885070983e+01  4.0845924350019480e+01  4.0845882577458489e+01  4.0845860171927484e+01  4.0845848180787179e+01  4.0845841781673286e+01  4.0845838391105914e+01  4.0845836637209587e+01  4.0845835809557741e+01  4.0845835574019439e+01  5.0380310952673121e+01  4.2584563984822992e+01  4.0855358799929903e+01  4.0967201531154842e+01  4.0869360889357353e+01  4.0854080948033427e+01  4.0849387386706447e+01  4.0847351719386779e+01  4.0846544315576750e+01  4.0846186843235877e+01  4.0846016609785224e+01  4.0845929933065321e+01  4.0845884872383316e+01  4.0845861216606920e+01  4.0845848680493503e+01  4.0845842011068761e+01  4.0845838464040881e+01  4.0845836588934894e+01  4.0845835622058573e+01  4.0845835172038129e+01  4.0845835046220394e+01  5.1119966422819168e+01  4.3036460563733158e+01  4.0795047162493510e+01  4.1009411280068655e+01  4.0881949653771912e+01  4.0851872286445612e+01  4.0848185754984499e+01  4.0846444500685358e+01  4.0845965684621625e+01  4.0845862696139569e+01  4.0845838387353602e+01  4.0845832878134722e+01  4.0845832620381863e+01  4.0845833192333970e+01  4.0845833665632682e+01  4.0845833966964904e+01  4.0845834142560591e+01  4.0845834241004667e+01  4.0845834296841296e+01  4.0845834330762294e+01  4.0845834350303669e+01  5.0893046904975620e+01  4.2368248700850245e+01  4.0691265056880148e+01  4.0948254308126941e+01  4.0854630019531115e+01  4.0841268885568120e+01  4.0845102250052555e+01  4.0844834602035704e+01  4.0845214571717719e+01  4.0845498557424825e+01  4.0845648269159149e+01  4.0845733280725227e+01  4.0845780005705045e+01  4.0845805210792193e+01  4.0845818742484241e+01  4.0845825991371257e+01  4.0845829862731620e+01  4.0845831916338774e+01  4.0845832983218358e+01  4.0845833494156572e+01  4.0845833654497248e+01  4.7914713247945770e+01  4.1681346380433958e+01  4.0262715034680468e+01  4.0733135241420342e+01  4.0830178237716211e+01  4.0831895925318371e+01  4.0840093987622005e+01  4.0843367852808377e+01  4.0844588526815720e+01  4.0845194994540975e+01  4.0845500686957052e+01  4.0845657967867382e+01  4.0845740688825337e+01  4.0845784451621519e+01  4.0845807710560287e+01  4.0845820106820540e+01  4.0845826707375551e+01  4.0845830201820640e+01  4.0845832012007662e+01  4.0845832872236407e+01  4.0845833133809322e+01  5.5758267400162872e+01  3.6874661448251366e+01  3.9425547205054627e+01  4.0879203847659795e+01  4.0831814689151038e+01  4.0812731628169857e+01  4.0839525575346158e+01  4.0843136878128938e+01  4.0844224983321510e+01  4.0845079658713566e+01  4.0845443776950134e+01  4.0845628019664929e+01  4.0845725303625876e+01  4.0845776307840318e+01  4.0845803388563731e+01  4.0845817804295791e+01  4.0845825472318737e+01  4.0845829530486519e+01  4.0845831631067313e+01  4.0845832624409326e+01  4.0845832918185394e+01  4.1161984139987993e+01  4.0355019553969221e+01  4.0411549804512774e+01  4.0739690019611409e+01  4.0837381365703614e+01  4.0847003491480521e+01  4.0848035310060830e+01  4.0847675065534759e+01  4.0846987328041614e+01  4.0846488733930762e+01  4.0846195273162330e+01  4.0846030574213941e+01  4.0845940101721105e+01  4.0845891105914021e+01  4.0845864760283646e+01  4.0845850644134636e+01  4.0845843106296535e+01  4.0845839110322430e+01  4.0845837042764039e+01  4.0845836068761066e+01  4.0845835758411681e+01  4.2213876183064059e+01  4.1698482852068388e+01  4.0734539725661442e+01  4.0831771809123715e+01  4.0848598449616539e+01  4.0848174817585345e+01  4.0848579776343556e+01  4.0847669549312826e+01  4.0846863429905248e+01  4.0846402178930482e+01  4.0846144594986335e+01  4.0846001769048350e+01  4.0845924195785294e+01  4.0845882484923813e+01  4.0845860119937669e+01  4.0845848151567921e+01  4.0845841765642184e+01  4.0845838382476849e+01  4.0845836632958573e+01  4.0845835808089873e+01  4.0845835574222804e+01  4.3444345637579062e+01  4.2776271944610421e+01  4.1158181477894651e+01  4.0928966220353360e+01  4.0869887469279540e+01  4.0855049765856471e+01  4.0849626051231631e+01  4.0847386095830736e+01  4.0846542406856805e+01  4.0846189197525796e+01  4.0846016975086975e+01  4.0845929514709212e+01  4.0845884587946948e+01  4.0845861055458435e+01  4.0845848585952005e+01  4.0845841957856862e+01  4.0845838434955709e+01  4.0845836573055145e+01  4.0845835613386576e+01  4.0845835168363351e+01  4.0845835039694954e+01  4.4175876524092310e+01  4.3160186385078617e+01  4.1185275296324640e+01  4.0976254595999130e+01  4.0875375245294535e+01  4.0853353909120479e+01  4.0848384622858447e+01  4.0846388927019213e+01  4.0845966446873469e+01  4.0845866576195185e+01  4.0845837942628414e+01  4.0845832431249306e+01  4.0845832434320741e+01  4.0845833076842453e+01  4.0845833595139865e+01  4.0845833927920800e+01  4.0845834121294033e+01  4.0845834229316857e+01  4.0845834290110453e+01  4.0845834327610973e+01  4.0845834344718909e+01  4.3874410034725656e+01  4.2607872158204778e+01  4.1085020539106452e+01  4.0913426722751147e+01  4.0841864482652511e+01  4.0843612456981326e+01  4.0845218813909980e+01  4.0844716035960893e+01  4.0845230745418647e+01  4.0845499089206562e+01  4.0845647064318911e+01  4.0845732958850945e+01  4.0845779863414613e+01  4.0845805112976294e+01  4.0845818685501669e+01  4.0845825961179564e+01  4.0845829846300362e+01  4.0845831907191197e+01  4.0845832977678462e+01  4.0845833491332009e+01  4.0845833648624037e+01  4.1522523307813252e+01  4.2323346095352001e+01  4.0478717263976030e+01  4.0720584205932987e+01  4.0821361920256976e+01  4.0830914285327090e+01  4.0840804316390617e+01  4.0843296715080534e+01  4.0844571313745021e+01  4.0845200915373844e+01  4.0845500305858991e+01  4.0845658025235942e+01  4.0845740825140723e+01  4.0845784485292278e+01  4.0845807730200569e+01  4.0845820118979454e+01  4.0845826713456802e+01  4.0845830204864733e+01  4.0845832013093883e+01  4.0845832872883271e+01  4.0845833130578129e+01  4.7305921964353622e+01  3.6314442591022257e+01  4.0036555106473813e+01  4.0864110899754166e+01  4.0771433908624147e+01  4.0821223116846525e+01  4.0841663435379481e+01  4.0842307801413668e+01  4.0844299360993865e+01  4.0845094920417971e+01  4.0845439817319857e+01  4.0845629043702168e+01  4.0845725576483012e+01  4.0845776419086462e+01  4.0845803466925744e+01  4.0845817844820367e+01  4.0845825493541383e+01  4.0845829542189975e+01  4.0845831637442870e+01  4.0845832631003233e+01  4.0845832917275345e+01  5.5642246458971258e+01  3.8308514971070394e+01  4.0246380091393348e+01  4.0809596321089003e+01  4.0839012035712877e+01  4.0844999689007601e+01  4.0848189475676087e+01  4.0847756485357117e+01  4.0846974052038853e+01  4.0846481568544142e+01  4.0846192737297777e+01  4.0846028966605047e+01  4.0845939141530387e+01  4.0845890588017603e+01  4.0845864483082856e+01  4.0845850495021686e+01  4.0845843026281230e+01  4.0845839067924572e+01  4.0845837021283891e+01  4.0845836049716404e+01  4.0845835751653013e+01  5.6645746895459453e+01  3.9185672472123024e+01  4.0732241918230621e+01  4.0907000134454208e+01  4.0831473857897073e+01  4.0846947285210561e+01  4.0849109003736054e+01  4.0847603185415089e+01  4.0846827857335171e+01  4.0846399965446494e+01  4.0846143749794805e+01  4.0846000892037168e+01  4.0845923796738965e+01  4.0845882303934076e+01  4.0845860023949285e+01  4.0845848099861477e+01  4.0845841737841575e+01  4.0845838367128110e+01  4.0845836623744553e+01  4.0845835796786183e+01  4.0845835570600549e+01  5.3699406897088174e+01  4.2489643439726926e+01  4.0779198112962419e+01  4.1002486781199146e+01  4.0855756763081665e+01  4.0857390656719488e+01  4.0849777272027886e+01  4.0847232348452657e+01  4.0846538355779842e+01  4.0846192723437007e+01  4.0846015170462898e+01  4.0845928438555418e+01  4.0845884176384715e+01  4.0845860827499749e+01  4.0845848455113718e+01  4.0845841887566259e+01  4.0845838397237173e+01  4.0845836552567853e+01  4.0845835602490865e+01  4.0845835155794617e+01  4.0845835040684534e+01  5.3236562759672736e+01  4.3357572851776901e+01  4.0483248151576731e+01  4.1116042899326381e+01  4.0853562397696123e+01  4.0857245146827985e+01  4.0847858721687118e+01  4.0846296407768463e+01  4.0846005210610102e+01  4.0845871141252893e+01  4.0845837920322502e+01  4.0845833400718959e+01  4.0845833018766285e+01  4.0845833339964692e+01  4.0845833733328739e+01  4.0845834003357751e+01  4.0845834161443015e+01  4.0845834250861607e+01  4.0845834302290839e+01  4.0845834329692046e+01  4.0845834357126094e+01  5.3685683119840000e+01  4.2731597476801667e+01  4.0342171441284869e+01  4.1090405564246154e+01  4.0807451401710416e+01  4.0852065284680215e+01  4.0844491260857801e+01  4.0844709533203797e+01  4.0845312889452437e+01  4.0845500027733408e+01  4.0845650137728327e+01  4.0845735295854460e+01  4.0845780833651425e+01  4.0845805573669068e+01  4.0845818935127205e+01  4.0845826093982936e+01  4.0845829916364139e+01  4.0845831944987779e+01  4.0845832998995931e+01  4.0845833501679465e+01  4.0845833665661011e+01  5.6965356695625623e+01  4.0714233193437188e+01  3.9941480604601374e+01  4.0944811379362577e+01  4.0774582714631165e+01  4.0840744004377854e+01  4.0840478427631105e+01  4.0843072048109569e+01  4.0844689751659999e+01  4.0845198860785743e+01  4.0845504191386105e+01  4.0845660978865489e+01  4.0845741911263573e+01  4.0845785063615999e+01  4.0845808052309280e+01  4.0845820287844255e+01  4.0845826803181460e+01  4.0845830253986364e+01  4.0845832041614713e+01  4.0845832889764324e+01  4.0845833149635233e+01  6.0655898472321191e+01  3.5667549982707200e+01  3.9872068351894470e+01  4.0925616004022665e+01  4.0742654113539835e+01  4.0836370968085859e+01  4.0838505144737745e+01  4.0842224289150700e+01  4.0844462654872103e+01  4.0845055312322927e+01  4.0845440282589827e+01  4.0845628877439680e+01  4.0845724867242744e+01  4.0845776177162612e+01  4.0845803338058623e+01  4.0845817770601037e+01  4.0845825454224027e+01  4.0845829521025649e+01  4.0845831625571769e+01  4.0845832622076017e+01  4.0845832918506225e+01  </DataArray> 
</PointData> 
</Piece>
</UnstructuredGrid>
</VTKFile>