<?xml version="1.0"?>
<VTKFile type="UnstructuredGrid"  version="0.1"  >
<UnstructuredGrid>
<Piece  NumberOfPoints="588" NumberOfCells="2160">
<Points>
<DataArray  type="Float64"  NumberOfComponents="3"  format="ascii">0 0 0  0.5 0 0  1 0 0  1.5 0 0  2 0 0  2.5 0 0  3 0 0  3.5 0 0  4 0 0  4.5 0 0  5 0 0  5.5 0 0  6 0 0  6.5 0 0  7 0 0  7.5 0 0  8 0 0  8.5 0 0  9 0 0  9.5 0 0  10 0 0  0 0.5 0  0.5 0.5 0  1 0.5 0  1.5 0.5 0  2 0.5 0  2.5 0.5 0  3 0.5 0  3.5 0.5 0  4 0.5 0  4.5 0.5 0  5 0.5 0  5.5 0.5 0  6 0.5 0  6.5 0.5 0  7 0.5 0  7.5 0.5 0  8 0.5 0  8.5 0.5 0  9 0.5 0  9.5 0.5 0  10 0.5 0  0 1 0  0.5 1 0  1 1 0  1.5 1 0  2 1 0  2.5 1 0  3 1 0  3.5 1 0  4 1 0  4.5 1 0  5 1 0  5.5 1 0  6 1 0  6.5 1 0  7 1 0  7.5 1 0  8 1 0  8.5 1 0  9 1 0  9.5 1 0  10 1 0  0 1.5 0  0.5 1.5 0  1 1.5 0  1.5 1.5 0  2 1.5 0  2.5 1.5 0  3 1.5 0  3.5 1.5 0  4 1.5 0  4.5 1.5 0  5 1.5 0  5.5 1.5 0  6 1.5 0  6.5 1.5 0  7 1.5 0  7.5 1.5 0  8 1.5 0  8.5 1.5 0  9 1.5 0  9.5 1.5 0  10 1.5 0  0 2 0  0.5 2 0  1 2 0  1.5 2 0  2 2 0  2.5 2 0  3 2 0  3.5 2 0  4 2 0  4.5 2 0  5 2 0  5.5 2 0  6 2 0  6.5 2 0  7 2 0  7.5 2 0  8 2 0  8.5 2 0  9 2 0  9.5 2 0  10 2 0  0 2.5 0  0.5 2.5 0  1 2.5 0  1.5 2.5 0  2 2.5 0  2.5 2.5 0  3 2.5 0  3.5 2.5 0  4 2.5 0  4.5 2.5 0  5 2.5 0  5.5 2.5 0  6 2.5 0  6.5 2.5 0  7 2.5 0  7.5 2.5 0  8 2.5 0  8.5 2.5 0  9 2.5 0  9.5 2.5 0  10 2.5 0  0 3 0  0.5 3 0  1 3 0  1.5 3 0  2 3 0  2.5 3 0  3 3 0  3.5 3 0  4 3 0  4.5 3 0  5 3 0  5.5 3 0  6 3 0  6.5 3 0  7 3 0  7.5 3 0  8 3 0  8.5 3 0  9 3 0  9.5 3 0  10 3 0  0 0 0.1666666666666667  0.5 0 0.1666666666666667  1 0 0.1666666666666667  1.5 0 0.1666666666666667  2 0 0.1666666666666667  2.5 0 0.1666666666666667  3 0 0.1666666666666667  3.5 0 0.1666666666666667  4 0 0.1666666666666667  4.5 0 0.1666666666666667  5 0 0.1666666666666667  5.5 0 0.1666666666666667  6 0 0.1666666666666667  6.5 0 0.1666666666666667  7 0 0.1666666666666667  7.5 0 0.1666666666666667  8 0 0.1666666666666667  8.5 0 0.1666666666666667  9 0 0.1666666666666667  9.5 0 0.1666666666666667  10 0 0.1666666666666667  0 0.5 0.1666666666666667  0.5 0.5 0.1666666666666667  1 0.5 0.1666666666666667  1.5 0.5 0.1666666666666667  2 0.5 0.1666666666666667  2.5 0.5 0.1666666666666667  3 0.5 0.1666666666666667  3.5 0.5 0.1666666666666667  4 0.5 0.1666666666666667  4.5 0.5 0.1666666666666667  5 0.5 0.1666666666666667  5.5 0.5 0.1666666666666667  6 0.5 0.1666666666666667  6.5 0.5 0.1666666666666667  7 0.5 0.1666666666666667  7.5 0.5 0.1666666666666667  8 0.5 0.1666666666666667  8.5 0.5 0.1666666666666667  9 0.5 0.1666666666666667  9.5 0.5 0.1666666666666667  10 0.5 0.1666666666666667  0 1 0.1666666666666667  0.5 1 0.1666666666666667  1 1 0.1666666666666667  1.5 1 0.1666666666666667  2 1 0.1666666666666667  2.5 1 0.1666666666666667  3 1 0.1666666666666667  3.5 1 0.1666666666666667  4 1 0.1666666666666667  4.5 1 0.1666666666666667  5 1 0.1666666666666667  5.5 1 0.1666666666666667  6 1 0.1666666666666667  6.5 1 0.1666666666666667  7 1 0.1666666666666667  7.5 1 0.1666666666666667  8 1 0.1666666666666667  8.5 1 0.1666666666666667  9 1 0.1666666666666667  9.5 1 0.1666666666666667  10 1 0.1666666666666667  0 1.5 0.1666666666666667  0.5 1.5 0.1666666666666667  1 1.5 0.1666666666666667  1.5 1.5 0.1666666666666667  2 1.5 0.1666666666666667  2.5 1.5 0.1666666666666667  3 1.5 0.1666666666666667  3.5 1.5 0.1666666666666667  4 1.5 0.1666666666666667  4.5 1.5 0.1666666666666667  5 1.5 0.1666666666666667  5.5 1.5 0.1666666666666667  6 1.5 0.1666666666666667  6.5 1.5 0.1666666666666667  7 1.5 0.1666666666666667  7.5 1.5 0.1666666666666667  8 1.5 0.1666666666666667  8.5 1.5 0.1666666666666667  9 1.5 0.1666666666666667  9.5 1.5 0.1666666666666667  10 1.5 0.1666666666666667  0 2 0.1666666666666667  0.5 2 0.1666666666666667  1 2 0.1666666666666667  1.5 2 0.1666666666666667  2 2 0.1666666666666667  2.5 2 0.1666666666666667  3 2 0.1666666666666667  3.5 2 0.1666666666666667  4 2 0.1666666666666667  4.5 2 0.1666666666666667  5 2 0.1666666666666667  5.5 2 0.1666666666666667  6 2 0.1666666666666667  6.5 2 0.1666666666666667  7 2 0.1666666666666667  7.5 2 0.1666666666666667  8 2 0.1666666666666667  8.5 2 0.1666666666666667  9 2 0.1666666666666667  9.5 2 0.1666666666666667  10 2 0.1666666666666667  0 2.5 0.1666666666666667  0.5 2.5 0.1666666666666667  1 2.5 0.1666666666666667  1.5 2.5 0.1666666666666667  2 2.5 0.1666666666666667  2.5 2.5 0.1666666666666667  3 2.5 0.1666666666666667  3.5 2.5 0.1666666666666667  4 2.5 0.1666666666666667  4.5 2.5 0.1666666666666667  5 2.5 0.1666666666666667  5.5 2.5 0.1666666666666667  6 2.5 0.1666666666666667  6.5 2.5 0.1666666666666667  7 2.5 0.1666666666666667  7.5 2.5 0.1666666666666667  8 2.5 0.1666666666666667  8.5 2.5 0.1666666666666667  9 2.5 0.1666666666666667  9.5 2.5 0.1666666666666667  10 2.5 0.1666666666666667  0 3 0.1666666666666667  0.5 3 0.1666666666666667  1 3 0.1666666666666667  1.5 3 0.1666666666666667  2 3 0.1666666666666667  2.5 3 0.1666666666666667  3 3 0.1666666666666667  3.5 3 0.1666666666666667  4 3 0.1666666666666667  4.5 3 0.1666666666666667  5 3 0.1666666666666667  5.5 3 0.1666666666666667  6 3 0.1666666666666667  6.5 3 0.1666666666666667  7 3 0.1666666666666667  7.5 3 0.1666666666666667  8 3 0.1666666666666667  8.5 3 0.1666666666666667  9 3 0.1666666666666667  9.5 3 0.1666666666666667  10 3 0.1666666666666667  0 0 0.3333333333333333  0.5 0 0.3333333333333333  1 0 0.3333333333333333  1.5 0 0.3333333333333333  2 0 0.3333333333333333  2.5 0 0.3333333333333333  3 0 0.3333333333333333  3.5 0 0.3333333333333333  4 0 0.3333333333333333  4.5 0 0.3333333333333333  5 0 0.3333333333333333  5.5 0 0.3333333333333333  6 0 0.3333333333333333  6.5 0 0.3333333333333333  7 0 0.3333333333333333  7.5 0 0.3333333333333333  8 0 0.3333333333333333  8.5 0 0.3333333333333333  9 0 0.3333333333333333  9.5 0 0.3333333333333333  10 0 0.3333333333333333  0 0.5 0.3333333333333333  0.5 0.5 0.3333333333333333  1 0.5 0.3333333333333333  1.5 0.5 0.3333333333333333  2 0.5 0.3333333333333333  2.5 0.5 0.3333333333333333  3 0.5 0.3333333333333333  3.5 0.5 0.3333333333333333  4 0.5 0.3333333333333333  4.5 0.5 0.3333333333333333  5 0.5 0.3333333333333333  5.5 0.5 0.3333333333333333  6 0.5 0.3333333333333333  6.5 0.5 0.3333333333333333  7 0.5 0.3333333333333333  7.5 0.5 0.3333333333333333  8 0.5 0.3333333333333333  8.5 0.5 0.3333333333333333  9 0.5 0.3333333333333333  9.5 0.5 0.3333333333333333  10 0.5 0.3333333333333333  0 1 0.3333333333333333  0.5 1 0.3333333333333333  1 1 0.3333333333333333  1.5 1 0.3333333333333333  2 1 0.3333333333333333  2.5 1 0.3333333333333333  3 1 0.3333333333333333  3.5 1 0.3333333333333333  4 1 0.3333333333333333  4.5 1 0.3333333333333333  5 1 0.3333333333333333  5.5 1 0.3333333333333333  6 1 0.3333333333333333  6.5 1 0.3333333333333333  7 1 0.3333333333333333  7.5 1 0.3333333333333333  8 1 0.3333333333333333  8.5 1 0.3333333333333333  9 1 0.3333333333333333  9.5 1 0.3333333333333333  10 1 0.3333333333333333  0 1.5 0.3333333333333333  0.5 1.5 0.3333333333333333  1 1.5 0.3333333333333333  1.5 1.5 0.3333333333333333  2 1.5 0.3333333333333333  2.5 1.5 0.3333333333333333  3 1.5 0.3333333333333333  3.5 1.5 0.3333333333333333  4 1.5 0.3333333333333333  4.5 1.5 0.3333333333333333  5 1.5 0.3333333333333333  5.5 1.5 0.3333333333333333  6 1.5 0.3333333333333333  6.5 1.5 0.3333333333333333  7 1.5 0.3333333333333333  7.5 1.5 0.3333333333333333  8 1.5 0.3333333333333333  8.5 1.5 0.3333333333333333  9 1.5 0.3333333333333333  9.5 1.5 0.3333333333333333  10 1.5 0.3333333333333333  0 2 0.3333333333333333  0.5 2 0.3333333333333333  1 2 0.3333333333333333  1.5 2 0.3333333333333333  2 2 0.3333333333333333  2.5 2 0.3333333333333333  3 2 0.3333333333333333  3.5 2 0.3333333333333333  4 2 0.3333333333333333  4.5 2 0.3333333333333333  5 2 0.3333333333333333  5.5 2 0.3333333333333333  6 2 0.3333333333333333  6.5 2 0.3333333333333333  7 2 0.3333333333333333  7.5 2 0.3333333333333333  8 2 0.3333333333333333  8.5 2 0.3333333333333333  9 2 0.3333333333333333  9.5 2 0.3333333333333333  10 2 0.3333333333333333  0 2.5 0.3333333333333333  0.5 2.5 0.3333333333333333  1 2.5 0.3333333333333333  1.5 2.5 0.3333333333333333  2 2.5 0.3333333333333333  2.5 2.5 0.3333333333333333  3 2.5 0.3333333333333333  3.5 2.5 0.3333333333333333  4 2.5 0.3333333333333333  4.5 2.5 0.3333333333333333  5 2.5 0.3333333333333333  5.5 2.5 0.3333333333333333  6 2.5 0.3333333333333333  6.5 2.5 0.3333333333333333  7 2.5 0.3333333333333333  7.5 2.5 0.3333333333333333  8 2.5 0.3333333333333333  8.5 2.5 0.3333333333333333  9 2.5 0.3333333333333333  9.5 2.5 0.3333333333333333  10 2.5 0.3333333333333333  0 3 0.3333333333333333  0.5 3 0.3333333333333333  1 3 0.3333333333333333  1.5 3 0.3333333333333333  2 3 0.3333333333333333  2.5 3 0.3333333333333333  3 3 0.3333333333333333  3.5 3 0.3333333333333333  4 3 0.3333333333333333  4.5 3 0.3333333333333333  5 3 0.3333333333333333  5.5 3 0.3333333333333333  6 3 0.3333333333333333  6.5 3 0.3333333333333333  7 3 0.3333333333333333  7.5 3 0.3333333333333333  8 3 0.3333333333333333  8.5 3 0.3333333333333333  9 3 0.3333333333333333  9.5 3 0.3333333333333333  10 3 0.3333333333333333  0 0 0.5  0.5 0 0.5  1 0 0.5  1.5 0 0.5  2 0 0.5  2.5 0 0.5  3 0 0.5  3.5 0 0.5  4 0 0.5  4.5 0 0.5  5 0 0.5  5.5 0 0.5  6 0 0.5  6.5 0 0.5  7 0 0.5  7.5 0 0.5  8 0 0.5  8.5 0 0.5  9 0 0.5  9.5 0 0.5  10 0 0.5  0 0.5 0.5  0.5 0.5 0.5  1 0.5 0.5  1.5 0.5 0.5  2 0.5 0.5  2.5 0.5 0.5  3 0.5 0.5  3.5 0.5 0.5  4 0.5 0.5  4.5 0.5 0.5  5 0.5 0.5  5.5 0.5 0.5  6 0.5 0.5  6.5 0.5 0.5  7 0.5 0.5  7.5 0.5 0.5  8 0.5 0.5  8.5 0.5 0.5  9 0.5 0.5  9.5 0.5 0.5  10 0.5 0.5  0 1 0.5  0.5 1 0.5  1 1 0.5  1.5 1 0.5  2 1 0.5  2.5 1 0.5  3 1 0.5  3.5 1 0.5  4 1 0.5  4.5 1 0.5  5 1 0.5  5.5 1 0.5  6 1 0.5  6.5 1 0.5  7 1 0.5  7.5 1 0.5  8 1 0.5  8.5 1 0.5  9 1 0.5  9.5 1 0.5  10 1 0.5  0 1.5 0.5  0.5 1.5 0.5  1 1.5 0.5  1.5 1.5 0.5  2 1.5 0.5  2.5 1.5 0.5  3 1.5 0.5  3.5 1.5 0.5  4 1.5 0.5  4.5 1.5 0.5  5 1.5 0.5  5.5 1.5 0.5  6 1.5 0.5  6.5 1.5 0.5  7 1.5 0.5  7.5 1.5 0.5  8 1.5 0.5  8.
[...]
<PointData  Scalars="f_7-1"> 
<DataArray  type="Float64"  Name="f_7-1"  format="ascii">3.9556576066425684e+01  3.7695183188636172e+01  3.7745450133567040e+01  3.8127808309019727e+01  3.8224281369419970e+01  3.8240521732197585e+01  3.8242651806667908e+01  3.8242440756521155e+01  3.8241890596650819e+01  3.8241454145157441e+01  3.8241182946245459e+01  3.8241028038182627e+01  3.8240942161515292e+01  3.8240895240475119e+01  3.8240869814931159e+01  3.8240856101010550e+01  3.8240848732445855e+01  3.8240844804094301e+01  3.8240842759115722e+01  3.8240841789574347e+01  3.8240841502832808e+01  3.7830161216806246e+01  3.9675915993458268e+01  3.8090068133724266e+01  3.8200826328703180e+01  3.8245875773649139e+01  3.8243429403784361e+01  3.8243159606916571e+01  3.8242451506473145e+01  3.8241789189957103e+01  3.8241368816310228e+01  3.8241129927094299e+01  3.8240997686557506e+01  3.8240925287223199e+01  3.8240886009817835e+01  3.8240864809829461e+01  3.8240853395733275e+01  3.8240847268321062e+01  3.8240844003696900e+01  3.8240842304735644e+01  3.8240841505188399e+01  3.8240841269620368e+01  3.8620119110547606e+01  4.0954642988163727e+01  3.8622135550440888e+01  3.8268127328270523e+01  3.8273983276283381e+01  3.8248867510126587e+01  3.8244020180288494e+01  3.8242293602163322e+01  3.8241510252437116e+01  3.8241170576016522e+01  3.8241011102575563e+01  3.8240930287417399e+01  3.8240888022059046e+01  3.8240865702965330e+01  3.8240853817287629e+01  3.8240847457654837e+01  3.8240844055074213e+01  3.8240842246324675e+01  3.8240841306744592e+01  3.8240840874798323e+01  3.8240840740785572e+01  3.9124405439172392e+01  4.1342372677412079e+01  3.8843740424122721e+01  3.8251430606017664e+01  3.8285073670948691e+01  3.8249176240827104e+01  3.8242729144349127e+01  3.8241486093773844e+01  3.8240980305546067e+01  3.8240867168368794e+01  3.8240843614061617e+01  3.8240838505638010e+01  3.8240838234413545e+01  3.8240838832697726e+01  3.8240839334636973e+01  3.8240839650919732e+01  3.8240839834769375e+01  3.8240839938148525e+01  3.8240839994904611e+01  3.8240840038559121e+01  3.8240840039159849e+01  3.9032968099583528e+01  4.0782226323566171e+01  3.8676152210252191e+01  3.8179274895353679e+01  3.8258714001087945e+01  3.8239499219773215e+01  3.8239235198937479e+01  3.8240018176248519e+01  3.8240260754625716e+01  3.8240520407051193e+01  3.8240664620940542e+01  3.8240744089023742e+01  3.8240788134933588e+01  3.8240812065124857e+01  3.8240824978871125e+01  3.8240831932862491e+01  3.8240835667816569e+01  3.8240837660291213e+01  3.8240838699122357e+01  3.8240839206963514e+01  3.8240839342230579e+01  3.8184179942543516e+01  3.9839426881858550e+01  3.8285438505389351e+01  3.8001319949313277e+01  3.8210952718730894e+01  3.8232411465448031e+01  3.8235011189502004e+01  3.8238399609517742e+01  3.8239666163902008e+01  3.8240236609189196e+01  3.8240523924214550e+01  3.8240672374156347e+01  3.8240750597779822e+01  3.8240792147482843e+01  3.8240814334755797e+01  3.8240826221060985e+01  3.8240832586105583e+01  3.8240835974195114e+01  3.8240837736899522e+01  3.8240838586575364e+01  3.8240838822974418e+01  3.8684109000112677e+01  3.7798771074957131e+01  3.7068538199322681e+01  3.7857466876635108e+01  3.8244010090546460e+01  3.8224526641850147e+01  3.8231056620303221e+01  3.8238051889841472e+01  3.8239403933683484e+01  3.8240097765962787e+01  3.8240462669901262e+01  3.8240640990388115e+01  3.8240734220399801e+01  3.8240783464403464e+01  3.8240809697185696e+01  3.8240823736336957e+01  3.8240831246474734e+01  3.8240835242622062e+01  3.8240837322880971e+01  3.8240838316314694e+01  3.8240838580735712e+01  4.4838822517182415e+01  3.6347232609194172e+01  3.7808875028249716e+01  3.8140293697179871e+01  3.8225260334839867e+01  3.8240593309587396e+01  3.8242623272493532e+01  3.8242448842557856e+01  3.8241893708908215e+01  3.8241452252385663e+01  3.8241181506989591e+01  3.8241027282000431e+01  3.8240941733657316e+01  3.8240894998039302e+01  3.8240869682298047e+01  3.8240856029242764e+01  3.8240848693623256e+01  3.8240844782455575e+01  3.8240842746727203e+01  3.8240841783427939e+01  3.8240841481719947e+01  4.7207823162097220e+01  3.7892452318149729e+01  3.8141770331065040e+01  3.8248685310062577e+01  3.8234726138784730e+01  3.8242159306131413e+01  3.8243119606933433e+01  3.8242459261279400e+01  3.8241789475974983e+01  3.8241372645382256e+01  3.8241134056083958e+01  3.8241000228954221e+01  3.8240926684653161e+01  3.8240886779379458e+01  3.8240865230830494e+01  3.8240853623659270e+01  3.8240847391559122e+01  3.8240844070428238e+01  3.8240842343509740e+01  3.8240841525201233e+01  3.8240841291920546e+01  4.7883812883929487e+01  3.9899852611484334e+01  3.8330898214646609e+01  3.8363675164988109e+01  3.8263175363008479e+01  3.8249421973658627e+01  3.8244455456378375e+01  3.8242318320438308e+01  3.8241519381348994e+01  3.8241177844546037e+01  3.8241014851762230e+01  3.8240931845232190e+01  3.8240888771529427e+01  3.8240866099446322e+01  3.8240854024857690e+01  3.8240847566774519e+01  3.8240844113399149e+01  3.8240842277826687e+01  3.8240841326565373e+01  3.8240840882055338e+01  3.8240840757559646e+01  4.8583792866251216e+01  4.0346450243975745e+01  3.8281786723788215e+01  3.8409851236866032e+01  3.8276985895463447e+01  3.8248306042049002e+01  3.8243469698151380e+01  3.8241494519867935e+01  3.8240992144939355e+01  3.8240876295570700e+01  3.8240846228040134e+01  3.8240839240225839e+01  3.8240838576595145e+01  3.8240838993925919e+01  3.8240839407513967e+01  3.8240839686449746e+01  3.8240839853178180e+01  3.8240839947937950e+01  3.8240840002254480e+01  3.8240840035548601e+01  3.8240840054913448e+01  4.8348914303379239e+01  3.9692217777490050e+01  3.8174948569776653e+01  3.8343049957486201e+01  3.8249309258911786e+01  3.8237725997652305e+01  3.8240303223679589e+01  3.8239926057020881e+01  3.8240274674659112e+01  3.8240526753689288e+01  3.8240663896134954e+01  3.8240743618716955e+01  3.8240787852721738e+01  3.8240811874782651e+01  3.8240824863233328e+01  3.8240831868179718e+01  3.8240835632174381e+01  3.8240837640356233e+01  3.8240838689163311e+01  3.8240839193597566e+01  3.8240839352345624e+01  4.5507259851510518e+01  3.9025926762891828e+01  3.7696417179175100e+01  3.8125485271552876e+01  3.8222584271111771e+01  3.8227390820652460e+01  3.8235255953959353e+01  3.8238443138028067e+01  3.8239654827307199e+01  3.8240230446198645e+01  3.8240520565885838e+01  3.8240670745513356e+01  3.8240749727193936e+01  3.8240791653768468e+01  3.8240814066238769e+01  3.8240826077748984e+01  3.8240832508663779e+01  3.8240835932255443e+01  3.8240837714894170e+01  3.8240838565568481e+01  3.8240838824930933e+01  5.4187798812525727e+01  3.4073505494380235e+01  3.6873909852080985e+01  3.8260793384791910e+01  3.8220232834127216e+01  3.8209231707221733e+01  3.8234485040119480e+01  3.8238168631502084e+01  3.8239306561717022e+01  3.8240113435920819e+01  3.8240464476578275e+01  3.8240641539723441e+01  3.8240734537679465e+01  3.8240783593406100e+01  3.8240809774373034e+01  3.8240823777209812e+01  3.8240831267039084e+01  3.8240835253116842e+01  3.8240837326872892e+01  3.8240838311491991e+01  3.8240838603458137e+01  3.9427109997516730e+01  3.7633204541042957e+01  3.7710581834701308e+01  3.8126000776471365e+01  3.8230285317981902e+01  3.8240345884060311e+01  3.8242451400477698e+01  3.8242476813170924e+01  3.8241902140458734e+01  3.8241452696950908e+01  3.8241182328506312e+01  3.8241027899962212e+01  3.8240942043312039e+01  3.8240895159784792e+01  3.8240869770884004e+01  3.8240856077247358e+01  3.8240848719491524e+01  3.8240844796242158e+01  3.8240842755700015e+01  3.8240841790508426e+01  3.8240841481881162e+01  4.0131078939250315e+01  3.9035351599880471e+01  3.8152684548472756e+01  3.8229043349355898e+01  3.8239601064880290e+01  3.8241917425709502e+01  3.8243284603893024e+01  3.8242519244703701e+01  3.8241789538039995e+01  3.8241372935265474e+01  3.8241134555800059e+01  3.8241000136679531e+01  3.8240926537942705e+01  3.8240886692672959e+01  3.8240865180727383e+01  3.8240853594807888e+01  3.8240847375541307e+01  3.8240844061733732e+01  3.8240842339179999e+01  3.8240841523692744e+01  3.8240841292160574e+01  4.1200551756400458e+01  4.0206953834073218e+01  3.8583764451774613e+01  3.8321551474187345e+01  3.8264256474708240e+01  3.8250768114799584e+01  3.8244671029810746e+01  3.8242328504353033e+01  3.8241519757134704e+01  3.8241181751677630e+01  3.8241015297231520e+01  3.8240931450153056e+01  3.8240888523584253e+01  3.8240865953314170e+01  3.8240853935033179e+01  3.8240847515286788e+01  3.8240844084936228e+01  3.8240842262112821e+01  3.8240841317890698e+01  3.8240840878352913e+01  3.8240840750969802e+01  4.1897632081635585e+01  4.0603395204556890e+01  3.8609270754381747e+01  3.8374976672800180e+01  3.8272579232551188e+01  3.8249894727664689e+01  3.8243474210349504e+01  3.8241437067299536e+01  3.8241000760120649e+01  3.8240879943915381e+01  3.8240845519192568e+01  3.8240838863241443e+01  3.8240838431202995e+01  3.8240838888436102e+01  3.8240839340602108e+01  3.8240839649067560e+01  3.8240839832502516e+01  3.8240839936400988e+01  3.8240839995524638e+01  3.8240840032359358e+01  3.8240840049291954e+01  4.1610264750193053e+01  4.0051250767531933e+01  3.8505659749162277e+01  3.8307635221130262e+01  3.8238844146353159e+01  3.8239773882914740e+01  3.8240247742751272e+01  3.8239841332608151e+01  3.8240293994206091e+01  3.8240525347864896e+01  3.8240662613464252e+01  3.8240743422869720e+01  3.8240787733643607e+01  3.8240811780119017e+01  3.8240824809519879e+01  3.8240831839618977e+01  3.8240835616263766e+01  3.8240837631364442e+01  3.8240838683653841e+01  3.8240839190743650e+01  3.8240839346439294e+01  3.9326650030353363e+01  3.9760038232795452e+01  3.7862031313989313e+01  3.8112875041038919e+01  3.8215177420378303e+01  3.8226432553866111e+01  3.8235814122227445e+01  3.8238400915358341e+01  3.8239641061244967e+01  3.8240233336101014e+01  3.8240520422588943e+01  3.8240670951664114e+01  3.8240749837479683e+01  3.8240791684089963e+01  3.8240814088489017e+01  3.8240826090495780e+01  3.8240832514881902e+01  3.8240835935412250e+01  3.8240837716038904e+01  3.8240838566230337e+01  3.8240838821646093e+01  4.5780806856361423e+01  3.3651271936979256e+01  3.7435308794610606e+01  3.8233180568612134e+01  3.8166815842614675e+01  3.8216958252625432e+01  3.8236312846753961e+01  3.8237466866672975e+01  3.8239365235412755e+01  3.8240125227474465e+01  3.8240462168300553e+01  3.8240642387077514e+01  3.8240734747672192e+01  3.8240783717330231e+01  3.8240809853520922e+01  3.8240823816969737e+01  3.8240831288383035e+01  3.8240835265016791e+01  3.8240837333381172e+01  3.8240838318236698e+01  3.8240838602541125e+01  5.4001812336978880e+01  3.5410673860643151e+01  3.7598377586718783e+01  3.8210464165060166e+01  3.8227836559444114e+01  3.8238210833175607e+01  3.8242781437979772e+01  3.8242561796774957e+01  3.8241884047846604e+01  3.8241446365767196e+01  3.8241180354161351e+01  3.8241026416635286e+01  3.8240941133941810e+01  3.8240894671222328e+01  3.8240869507545753e+01  3.8240855934283339e+01  3.8240848642268894e+01  3.8240844755111397e+01  3.8240842734789055e+01  3.8240841771658317e+01  3.8240841475402924e+01  5.4765671125949218e+01  3.6276682658351717e+01  3.8305861708668736e+01  3.8281763878435235e+01  3.8219222678035635e+01  3.8241773492083219e+01  3.8243838958152779e+01  3.8242398903291246e+01  3.8241752809820241e+01  3.8241372570053784e+01  3.8241133590294645e+01  3.8240999150445866e+01  3.8240926135087427e+01  3.8240886511549661e+01  3.8240865082034269e+01  3.8240853541273609e+01  3.8240847346658214e+01  3.8240844045674208e+01  3.8240842329469231e+01  3.8240841512076024e+01  3.8240841288218554e+01  5.2102852636536596e+01  3.9587923851721207e+01  3.8343946962856947e+01  3.8351944052037751e+01  3.8257109740704706e+01  3.8253497618505556e+01  3.8244496668248203e+01  3.8242162528905368e+01  3.8241528950672581e+01  3.8241185341951521e+01  3.8241012899991162e+01  3.8240930418467627e+01  3.8240888156856826e+01  3.8240865731516010e+01  3.8240853805375011e+01  3.8240847445585175e+01  3.8240844047195367e+01  3.8240842241386531e+01  3.8240841306740286e+01  3.8240840865606138e+01  3.8240840751706401e+01  5.1803289130484011e+01  4.0410889135979616e+01  3.8044090596974712e+01  3.8482777054958710e+01  3.8260354026288837e+01  3.8252009954259464e+01  3.8242699792388947e+01  3.8241434218258526e+01  3.8241040846131156e+01  3.8240879905028834e+01  3.8240845297245095e+01  3.8240839973684885e+01  3.8240839001901385e+01  3.8240839136824718e+01  3.8240839475519550e+01  3.8240839723239887e+01  3.8240839871875316e+01  3.8240839957581187e+01  3.8240840007554183e+01  3.8240840034442002e+01  3.8240840061590177e+01  5.2106763240506226e+01  3.9811239946795233e+01  3.7895220470069368e+01  3.8455018906122234e+01  3.8211268492406234e+01  3.8246355688905005e+01  3.8239609368529841e+01  3.8239948940304259e+01  3.8240351755825451e+01  3.8240523968618675e+01  3.8240666759016669e+01  3.8240745814949349e+01  3.8240788644701965e+01  3.8240812231456111e+01  3.8240825058216949e+01  3.8240831971103304e+01  3.8240835685696034e+01  3.8240837669050435e+01  3.8240838705038847e+01  3.8240839201247432e+01  3.8240839363529801e+01  5.4877402852974292e+01  3.7901818483607329e+01  3.7438081519561756e+01  3.8309739378199282e+01  3.8175916132815537e+01  3.8234852456041253e+01  3.8235540757109973e+01  3.8238275449238671e+01  3.8239725692836075e+01  3.8240233047853692e+01  3.8240525804433311e+01  3.8240673626667373e+01  3.8240750856475245e+01  3.8240792269036952e+01  3.8240814409557267e+01  3.8240826257795732e+01  3.8240832604538888e+01  3.8240835984867935e+01  3.8240837744929927e+01  3.8240838583444138e+01  3.8240838841013456e+01  5.8994270878121014e+01  3.2901636119428488e+01  3.7316396316392527e+01  3.8287060400018035e+01  3.8143371942955071e+01  3.8229740125051194e+01  3.8233562248751817e+01  3.8237419237823786e+01  3.8239489610859543e+01  3.8240094480858318e+01  3.8240462779707592e+01  3.8240641713953963e+01  3.8240734096400146e+01  3.8240783486967459e+01  3.8240809718015718e+01  3.8240823740267942e+01  3.8240831247975372e+01  3.8240835243052210e+01  3.8240837320981470e+01  3.8240838308940937e+01  3.8240838603677332e+01  </DataArray> 
</PointData> 
</Piece>
</UnstructuredGrid>
</VTKFile>