<?xml version="1.0"?>
<VTKFile type="UnstructuredGrid"  version="0.1"  >
<UnstructuredGrid>
<Piece  NumberOfPoints="216" NumberOfCells="750">
<Points>
<DataArray  type="Float64"  NumberOfComponents="3"  format="ascii">0 0 0  2 0 0  4 0 0  6 0 0  8 0 0  10 0 0  0 0.6 0  2 0.6 0  4 0.6 0  6 0.6 0  8 0.6 0  10 0.6 0  0 1.2 0  2 1.2 0  4 1.2 0  6 1.2 0  8 1.2 0  10 1.2 0  0 1.8 0  2 1.8 0  4 1.8 0  6 1.8 0  8 1.8 0  10 1.8 0  0 2.4 0  2 2.4 0  4 2.4 0  6 2.4 0  8 2.4 0  10 2.4 0  0 3 0  2 3 0  4 3 0  6 3 0  8 3 0  10 3 0  0 0 0.1  2 0 0.1  4 0 0.1  6 0 0.1  8 0 0.1  10 0 0.1  0 0.6 0.1  2 0.6 0.1  4 0.6 0.1  6 0.6 0.1  8 0.6 0.1  10 0.6 0.1  0 1.2 0.1  2 1.2 0.1  4 1.2 0.1  6 1.2 0.1  8 1.2 0.1  10 1.2 0.1  0 1.8 0.1  2 1.8 0.1  4 1.8 0.1  6 1.8 0.1  8 1.8 0.1  10 1.8 0.1  0 2.4 0.1  2 2.4 0.1  4 2.4 0.1  6 2.4 0.1  8 2.4 0.1  10 2.4 0.1  0 3 0.1  2 3 0.1  4 3 0.1  6 3 0.1  8 3 0.1  10 3 0.1  0 0 0.2  2 0 0.2  4 0 0.2  6 0 0.2  8 0 0.2  10 0 0.2  0 0.6 0.2  2 0.6 0.2  4 0.6 0.2  6 0.6 0.2  8 0.6 0.2  10 0.6 0.2  0 1.2 0.2  2 1.2 0.2  4 1.2 0.2  6 1.2 0.2  8 1.2 0.2  10 1.2 0.2  0 1.8 0.2  2 1.8 0.2  4 1.8 0.2  6 1.8 0.2  8 1.8 0.2  10 1.8 0.2  0 2.4 0.2  2 2.4 0.2  4 2.4 0.2  6 2.4 0.2  8 2.4 0.2  10 2.4 0.2  0 3 0.2  2 3 0.2  4 3 0.2  6 3 0.2  8 3 0.2  10 3 0.2  0 0 0.3  2 0 0.3  4 0 0.3  6 0 0.3  8 0 0.3  10 0 0.3  0 0.6 0.3  2 0.6 0.3  4 0.6 0.3  6 0.6 0.3  8 0.6 0.3  10 0.6 0.3  0 1.2 0.3  2 1.2 0.3  4 1.2 0.3  6 1.2 0.3  8 1.2 0.3  10 1.2 0.3  0 1.8 0.3  2 1.8 0.3  4 1.8 0.3  6 1.8 0.3  8 1.8 0.3  10 1.8 0.3  0 2.4 0.3  2 2.4 0.3  4 2.4 0.3  6 2.4 0.3  8 2.4 0.3  10 2.4 0.3  0 3 0.3  2 3 0.3  4 3 0.3  6 3 0.3  8 3 0.3  10 3 0.3  0 0 0.4  2 0 0.4  4 0 0.4  6 0 0.4  8 0 0.4  10 0 0.4  0 0.6 0.4  2 0.6 0.4  4 0.6 0.4  6 0.6 0.4  8 0.6 0.4  10 0.6 0.4  0 1.2 0.4  2 1.2 0.4  4 1.2 0.4  6 1.2 0.4  8 1.2 0.4  10 1.2 0.4  0 1.8 0.4  2 1.8 0.4  4 1.8 0.4  6 1.8 0.4  8 1.8 0.4  10 1.8 0.4  0 2.4 0.4  2 2.4 0.4  4 2.4 0.4  6 2.4 0.4  8 2.4 0.4  10 2.4 0.4  0 3 0.4  2 3 0.4  4 3 0.4  6 3 0.4  8 3 0.4  10 3 0.4  0 0 0.5  2 0 0.5  4 0 0.5  6 0 0.5  8 0 0.5  10 0 0.5  0 0.6 0.5  2 0.6 0.5  4 0.6 0.5  6 0.6 0.5  8 0.6 0.5  10 0.6 0.5  0 1.2 0.5  2 1.2 0.5  4 1.2 0.5  6 1.2 0.5  8 1.2 0.5  10 1.2 0.5  0 1.8 0.5  2 1.8 0.5  4 1.8 0.5  6 1.8 0.5  8 1.8 0.5  10 1.8 0.5  0 2.4 0.5  2 2.4 0.5  4 2.4 0.5  6 2.4 0.5  8 2.4 0.5  10 2.4 0.5  0 3 0.5  2 3 0.5  4 3 0.5  6 3 0.5  8 3 0.5  10 3 0.5  </DataArray>
</Points>
<Cells>
<DataArray  type="UInt32"  Name="connectivity"  format="ascii">0 1 7 43  0 1 37 43  0 36 37 43  0 6 7 43  0 36 42 43  0 6 42 43  1 2 8 44  1 2 38 44  1 37 38 44  1 7 8 44  1 37 43 44  1 7 43 44  2 3 9 45  2 3 39 45  2 38 39 45  2 8 9 45  2 38 44 45  2 8 44 45  3 4 10 46  3 4 40 46  3 39 40 46  3 9 10 46  3 39 45 46  3 9 45 46  4 5 11 47  4 5 41 47  4 40 41 47  4 10 11 47  4 40 46 47  4 10 46 47  6 7 13 49  6 7 43 49  6 42 43 49  6 12 13 49  6 42 48 49  6 12 48 49  7 8 14 50  7 8 44 50  7 43 44 50  7 13 14 50  7 43 49 50  7 13 49 50  8 9 15 51  8 9 45 51  8 44 45 51  8 14 15 51  8 44 50 51  8 14 50 51  9 10 16 52  9 10 46 52  9 45 46 52  9 15 16 52  9 45 51 52  9 15 51 52  10 11 17 53  10 11 47 53  10 46 47 53  10 16 17 53  10 46 52 53  10 16 52 53  12 13 19 55  12 13 49 55  12 48 49 55  12 18 19 55  12 48 54 55  12 18 54 55  13 14 20 56  13 14 50 56  13 49 50 56  13 19 20 56  13 49 55 56  13 19 55 56  14 15 21 57  14 15 51 57  14 50 51 57  14 20 21 57  14 50 56 57  14 20 56 57  15 16 22 58  15 16 52 58  15 51 52 58  15 21 22 58  15 51 57 58  15 21 57 58  16 17 23 59  16 17 53 59  16 52 53 59  16 22 23 59  16 52 58 59  16 22 58 59  18 19 25 61  18 19 55 61  18 54 55 61  18 24 25 61  18 54 60 61  18 24 60 61  19 20 26 62  19 20 56 62  19 55 56 62  19 25 26 62  19 55 61 62  19 25 61 62  20 21 27 63  20 21 57 63  20 56 57 63  20 26 27 63  20 56 62 63  20 26 62 63  21 22 28 64  21 22 58 64  21 57 58 64  21 27 28 64  21 57 63 64  21 27 63 64  22 23 29 65  22 23 59 65  22 58 59 65  22 28 29 65  22 58 64 65  22 28 64 65  24 25 31 67  24 25 61 67  24 60 61 67  24 30 31 67  24 60 66 67  24 30 66 67  25 26 32 68  25 26 62 68  25 61 62 68  25 31 32 68  25 61 67 68  25 31 67 68  26 27 33 69  26 27 63 69  26 62 63 69  26 32 33 69  26 62 68 69  26 32 68 69  27 28 34 70  27 28 64 70  27 63 64 70  27 33 34 70  27 63 69 70  27 33 69 70  28 29 35 71  28 29 65 71  28 64 65 71  28 34 35 71  28 64 70 71  28 34 70 71  36 37 43 79  36 37 73 79  36 72 73 79  36 42 43 79  36 72 78 79  36 42 78 79  37 38 44 80  37 38 74 80  37 73 74 80  37 43 44 80  37 73 79 80  37 43 79 80  38 39 45 81  38 39 75 81  38 74 75 81  38 44 45 81  38 74 80 81  38 44 80 81  39 40 46 82  39 40 76 82  39 75 76 82  39 45 46 82  39 75 81 82  39 45 81 82  40 41 47 83  40 41 77 83  40 76 77 83  40 46 47 83  40 76 82 83  40 46 82 83  42 43 49 85  42 43 79 85  42 78 79 85  42 48 49 85  42 78 84 85  42 48 84 85  43 44 50 86  43 44 80 86  43 79 80 86  43 49 50 86  43 79 85 86  43 49 85 86  44 45 51 87  44 45 81 87  44 80 81 87  44 50 51 87  44 80 86 87  44 50 86 87  45 46 52 88  45 46 82 88  45 81 82 88  45 51 52 88  45 81 87 88  45 51 87 88  46 47 53 89  46 47 83 89  46 82 83 89  46 52 53 89  46 82 88 89  46 52 88 89  48 49 55 91  48 49 85 91  48 84 85 91  48 54 55 91  48 84 90 91  48 54 90 91  49 50 56 92  49 50 86 92  49 85 86 92  49 55 56 92  49 85 91 92  49 55 91 92  50 51 57 93  50 51 87 93  50 86 87 93  50 56 57 93  50 86 92 93  50 56 92 93  51 52 58 94  51 52 88 94  51 87 88 94  51 57 58 94  51 87 93 94  51 57 93 94  52 53 59 95  52 53 89 95  52 88 89 95  52 58 59 95  52 88 94 95  52 58 94 95  54 55 61 97  54 55 91 97  54 90 91 97  54 60 61 97  54 90 96 97  54 60 96 97  55 56 62 98  55 56 92 98  55 91 92 98  55 61 62 98  55 91 97 98  55 61 97 98  56 57 63 99  56 57 93 99  56 92 93 99  56 62 63 99  56 92 98 99  56 62 98 99  57 58 64 100  57 58 94 100  57 93 94 100  57 63 64 100  57 93 99 100  57 63 99 100  58 59 65 101  58 59 95 101  58 94 95 101  58 64 65 101  58 94 100 101  58 64 100 101  60 61 67 103  60 61 97 103  60 96 97 103  60 66 67 103  60 96 102 103  60 66 102 103  61 62 68 104  61 62 98 104  61 97 98 104  61 67 68 104  61 97 103 104  61 67 103 104  62 63 69 105  62 63 99 105  62 98 99 105  62 68 69 105  62 98 104 105  62 68 104 105  63 64 70 106  63 64 100 106  63 99 100 106  63 69 70 106  63 99 105 106  63 69 105 106  64 65 71 107  64 65 101 107  64 100 101 107  64 70 71 107  64 100 106 107  64 70 106 107  72 73 79 115  72 73 109 115  72 108 109 115  72 78 79 115  72 108 114 115  72 78 114 115  73 74 80 116  73 74 110 116  73 109 110 116  73 79 80 116  73 109 115 116  73 79 115 116  74 75 81 117  74 75 111 117  74 110 111 117  74 80 81 117  74 110 116 117  74 80 116 117  75 76 82 118  75 76 112 118  75 111 112 118  75 81 82 118  75 111 117 118  75 81 117 118  76 77 83 119  76 77 113 119  76 112 113 119  76 82 83 119  76 112 118 119  76 82 118 119  78 79 85 121  78 79 115 121  78 114 115 121  78 84 85 121  78 114 120 121  78 84 120 121  79 80 86 122  79 80 116 122  79 115 116 122  79 85 86 122  79 115 121 122  79 85 121 122  80 81 87 123  80 81 117 123  80 116 117 123  80 86 87 123  80 116 122 123  80 86 122 123  81 82 88 124  81 82 118 124  81 117 118 124  81 87 88 124  81 117 123 124  81 87 123 124  82 83 89 125  82 83 119 125  82 118 119 125  82 88 89 125  82 118 124 125  82 88 124 125  84 85 91 127  84 85 121 127  84 120 121 127  84 90 91 127  84 120 126 127  84 90 126 127  85 86 92 128  85 86 122 128  85 121 122 128  85 91 92 128  85 121 127 128  85 91 127 128  86 87 93 129  86 87 123 129  86 122 123 129  86 92 93 129  86 122 128 129  86 92 128 129  87 88 94 130  87 88 124 130  87 123 124 130  87 93 94 130  87 123 129 130  87 93 129 130  88 89 95 131  88 89 125 131  88 124 125 131  88 94 95 131  88 124 130 131  88 94 130 131  90 91 97 133  90 91 127 133  90 126 127 133  90 96 97 133  90 126 132 133  90 96 132 133  91 92 98 134  91 92 128 134  91 127 128 134  91 97 98 134  91 127 133 134  91 97 133 134  92 93 99 135  92 93 129 135  92 128 129 135  92 98 99 135  92 128 134 135  92 98 134 135  93 94 100 136  93 94 130 136  93 129 130 136  93 99 100 136  93 129 135 136  93 99 135 136  94 95 101 137  94 95 131 137  94 130 131 137  94 100 101 137  94 130 136 137  94 100 136 137  96 97 103 139  96 97 133 139  96 132 133 139  96 102 103 139  96 132 138 139  96 102 138 139  97 98 104 140  97 98 134 140  97 133 134 140  97 103 104 140  97 133 139 140  97 103 139 140  98 99 105 141  98 99 135 141  98 134 135 141  98 104 105 141  98 134 140 141  98 104 140 141  99 100 106 142  99 100 136 142  99 135 136 142  99 105 106 142  99 135 141 142  99 105 141 142  100 101 107 143  100 101 137 143  100 136 137 143  100 106 107 143  100 136 142 143  100 106 142 143  108 109 115 151  108 109 145 151  108 144 145 151  108 114 115 151  108 144 150 151  108 114 150 151  109 110 116 152  109 110 146 152  109 145 146 152  109 115 116 152  109 145 151 152  109 115 151 152  110 111 117 153  110 111 147 153  110 146 147 153  110 116 117 153  110 146 152 153  110 116 152 153  111 112 118 154  111 112 148 154  111 147 148 154  111 117 118 154  111 147 153 154  111 117 153 154  112 113 119 155  112 113 149 155  112 148 149 155  112 118 119 155  112 148 154 155  112 118 154 155  114 115 121 157  114 115 151 157  114 150 151 157  114 120 121 157  114 150 156 157  114 120 156 157  115 116 122 158  115 116 152 158  115 151 152 158  115 121 122 158  115 151 157 158  115 121 157 158  116 117 123 159  116 117 153 159  116 152 153 159  116 122 123 159  116 152 158 159  116 122 158 159  117 118 124 160  117 118 154 160  117 153 154 160  117 123 124 160  117 153 159 160  117 123 159 160  118 119 125 161  118 119 155 161  118 154 155 161  118 124 125 161  118 154 160 161  118 124 160 161  120 121 127 163  120 121 157 163  120 156 157 163  120 126 127 163  120 156 162 163  120 126 162 163  121 122 128 164  121 122 158 164  121 157 158 164  121 127 128 164  121 157 163 164  121 127 163 164  122 123 129 165  122 123 159 165  122 158 159 165  122 128 129 165  122 158 164 165  122 128 164 165  123 124 130 166  123 124 160 166  123 159 160 166  123 129 130 166  123 159 165 166  123 129 165 166  124 125 131 167  124 125 161 167  124 160 161 167  124 130 131 167  124 160 166 167  124 130 166 167  126 127 133 169  126 127 163 169  126 162 163 169  126 132 133 169  126 162 168 169  126 132 168 169  127 128 134 170  127 128 164 170  127 163 164 170  127 133 134 170  127 163 169 170  127 133 169 170  128 129 135 171  128 129 165 171  128 164 165 171  128 134 135 171  128 164 170 171  128 134 170 171  129 130 136 172  129 130 166 172  129 165 166 172  129 135 136 172  129 165 171 172  129 135 171 172  130 131 137 173  130 131 167 173  130 166 167 173  130 136 137 173  130 166 172 173  130 136 172 173  132 133 139 175  132 133 169 175  132 168 169 175  132 138 139 175  132 168 174 175  132 138 174 175  133 134 140 176  133 134 170 176  133 169 170 176  133 139 140 176  133 169 175 176  133 139 175 176  134 135 141 177  134 135 171 177  134 170 171 177  134 140 141 177  134 170 176 177  134 140 176 177  135 136 142 178  135 136 172 178  135 171 172 178  135 141 142 178  135 171 177 178  135 141 177 178  136 137 143 179  136 137 173 179  136 172 173 179  136 142 143 179  136 172 178 179  136 142 178 179  144 145 151 187  144 145 181 187  144 180 181 187  144 150 151 187  144 180 186 187  144 150 186 187  145 146 152 188  145 146 182 188  145 181 182 188  145 151 152 188  145 181 187 188  145 151 187 188  146 147 153 189  146 147 183 189  146 182 183 189  146 152 153 189  146 182 188 189  146 152 188 189  147 148 154 190  147 148 184 190  147 183 184 190  147 153 154 190  147 183 189 190  147 153 189 190  148 149 155 191  148 149 185 191  148 184 185 191  148 154 155 191  148 184 190 191  148 154 190 191  150 151 157 193  150 151 187 193  150 186 187 193  150 156 157 193  150 186 192 193  150 156 192 193  151 152 158 194  151 152 188 194  151 187 188 194  151 157 158 194  151 187 193 194  151 157 193 194  152 153 159 195  152 153 189 195  152 188 189 195  152 158 159 195  152 188 194 195  152 158 194 195  153 154 160 196  153 154 190 196  153 189 190 196  153 159 160 196  153 189 195 196  153 159 195 196  154 155 161 197  154 155 191 197  154 190 191 197  154 160 161 197  154 190 196 197  154 160 196 197  156 157 163 199  156 157 193 199  156 192 193 199  156 162 163 199  156 192 198 199  156 162 198 199  157 158 164 200  157 158 194 200  157 193 194 200  157 163 164 200  157 193 199 200  157 163 199 200  158 159 165 201  158 159 195 201  158 194 195 201  158 164 165 201  158 194 200 201  158 164 200 201  159 160 166 202  159 160 196 202  159 195 196 202  159 165 166 202  159 195 201 202  159 165 201 202  160 161 167 203  160 161 197 203  160 196 197 203  160 166 167 203  160 196 202 203  160 166 202 203  162 163 169 205  162 163 199 205  162 198 199 205  162 168 169 205  162 198 204 205  162 168 204 205  163 164 170 206  163 164 200 206  163 199 200 206  163 169 170 206  163 199 205 206  163 169 205 206  164 165 171 207  164 165 201 207  164 200 201 207  164 170 171 207  164 200 206 207  164 170 206 207  165 166 172 208  165 166 202 208  165 201 202 208  165 171 172 208  165 201 207 208  165 171 207 208  166 167 173 209  166 167 203 209  166 202 203 209  166 172 173 209  166 202 208 209  166 172 208 209  168 169 175 211  168 169 205 211  168 204 205 211  168 174 175 211  168 204 210 211  168 174 210 211  169 170 176 212  169 170 206 212  169 205 206 212  169 175 176 212  169 205 211 212  169 175 211 212  170 171 177 213  170 171 207 213  170 206 207 213  170 176 177 213  170 206 212 213  170 176 212 213  171 172 178 214  171 172 208 214  171 207 208 214  171 177 178 214  171 207 213 214  171 177 213 214  172 173 179 215  172 173 209 215  172 208 209 215  172 178 179 215  172 208 214 215  172 178 214 215  </DataArray>
<DataArray  type="UInt32"  Name="offsets"  format="ascii">4 8 12 16 20 24 28 32 36 40 44 48 52 56 60 64 68 72 76 80 84 88 92 96 100 104 108 112 116 120 124 128 132 136 140 144 148 152 156 160 164 168 172 176 180 184 188 192 196 200 204 208 212 216 220 224 228 232 236 240 244 248 252 256 260 264 268 272 276 280 284 288 292 296 300 304 308 312 316 320 324 328 332 336 340 344 348 352 356 360 364 368 372 376 380 384 388 392 396 400 404 408 412 416 420 424 428 432 436 440 444 448 452 456 460 464 468 472 476 480 484 488 492 496 500 504 508 512 516 520 524 528 532 536 540 544 548 552 556 560 564 568 572 576 580 584 588 592 596 600 604 608 612 616 620 624 628 632 636 640 644 648 652 656 660 664 668 672 676 680 684 688 692 696 700 704 708 712 716 720 724 728 732 736 740 744 748 752 756 760 764 768 772 776 780 784 788 792 796 800 804 808 812 816 820 824 828 832 836 840 844 848 852 856 860 864 868 872 876 880 884 888 892 896 900 904 908 912 916 920 924 928 932 936 940 944 948 952 956 960 964 968 972 976 980 984 988 992 996 1000 1004 1008 1012 1016 1020 1024 1028 1032 1036 1040 1044 1048 1052 1056 1060 1064 1068 1072 1076 1080 1084 1088 1092 1096 1100 1104 1108 1112 1116 1120 1124 1128 1132 1136 1140 1144 1148 1152 1156 1160 1164 1168 1172 1176 1180 1184 1188 1192 1196 1200 1204 1208 1212 1216 1220 1224 1228 1232 1236 1240 1244 1248 1252 1256 1260 1264 1268 1272 1276 1280 1284 1288 1292 1296 1300 1304 1308 1312 1316 1320 1324 1328 1332 1336 1340 1344 1348 1352 1356 1360 1364 1368 1372 1376 1380 1384 1388 1392 1396 1400 1404 1408 1412 1416 1420 1424 1428 1432 1436 1440 1444 1448 1452 1456 1460 1464 1468 1472 1476 1480 1484 1488 1492 1496 1500 1504 1508 1512 1516 1520 1524 1528 1532 1536 1540 1544 1548 1552 1556 1560 1564 1568 1572 1576 1580 1584 1588 1592 1596 1600 1604 1608 1612 1616 1620 1624 1628 1632 1636 1640 1644 1648 1652 1656 1660 1664 1668 1672 1676 1680 1684 1688 1692 1696 1700 1704 1708 1712 1716 1720 1724 1728 1732 1736 1740 1744 1748 1752 1756 1760 1764 1768 1772 1776 1780 1784 1788 1792 1796 1800 1804 1808 1812 1816 1820 1824 1828 1832 1836 1840 1844 1848 1852 1856 1860 1864 1868 1872 1876 1880 1884 1888 1892 1896 1900 1904 1908 1912 1916 1920 1924 1928 1932 1936 1940 1944 1948 1952 1956 1960 1964 1968 1972 1976 1980 1984 1988 1992 1996 2000 2004 2008 2012 2016 2020 2024 2028 2032 2036 2040 2044 2048 2052 2056 2060 2064 2068 2072 2076 2080 2084 2088 2092 2096 2100 2104 2108 2112 2116 2120 2124 2128 2132 2136 2140 2144 2148 2152 2156 2160 2164 2168 2172 2176 2180 2184 2188 2192 2196 2200 2204 2208 2212 2216 2220 2224 2228 2232 2236 2240 2244 2248 2252 2256 2260 2264 2268 2272 2276 2280 2284 2288 2292 2296 2300 2304 2308 2312 2316 2320 2324 2328 2332 2336 2340 2344 2348 2352 2356 2360 2364 2368 2372 2376 2380 2384 2388 2392 2396 2400 2404 2408 2412 2416 2420 2424 2428 2432 2436 2440 2444 2448 2452 2456 2460 2464 2468 2472 2476 2480 2484 2488 2492 2496 2500 2504 2508 2512 2516 2520 2524 2528 2532 2536 2540 2544 2548 2552 2556 2560 2564 2568 2572 2576 2580 2584 2588 2592 2596 2600 2604 2608 2612 2616 2620 2624 2628 2632 2636 2640 2644 2648 2652 2656 2660 2664 2668 2672 2676 2680 2684 2688 2692 2696 2700 2704 2708 2712 2716 2720 2724 2728 2732 2736 2740 2744 2748 2752 2756 2760 2764 2768 2772 2776 2780 2784 2788 2792 2796 2800 2804 2808 2812 2816 2820 2824 2828 2832 2836 2840 2844 2848 2852 2856 2860 2864 2868 2872 2876 2880 2884 2888 2892 2896 2900 2904 2908 2912 2916 2920 2924 2928 2932 2936 2940 2944 2948 2952 2956 2960 2964 2968 2972 2976 2980 2984 2988 2992 2996 3000 </DataArray>
<DataArray  type="UInt8"  Name="types"  format="ascii">10 10 10 10 10 10 10 10 10 10 10 10 10 10 10 10 10 10 10 10 10 10 10 10 10 10 10 10 10 10 10 10 10 10 10 10 10 10 10 10 10 10 10 10 10 10 10 10 10 10 10 10 10 10 10 10 10 10 10 10 10 10 10 10 10 10 10 10 10 10 10 10 10 10 10 10 10 10 10 10 10 10 10 10 10 10 10 10 10 10 10 10 10 10 10 10 10 10 10 10 10 10 10 10 10 10 10 10 10 10 10 10 10 10 10 10 10 10 10 10 10 10 10 10 10 10 10 10 10 10 10 10 10 10 10 10 10 10 10 10 10 10 10 10 10 10 10 10 10 10 10 10 10 10 10 10 10 10 10 10 10 10 10 10 10 10 10 10 10 10 10 10 10 10 10 10 10 10 10 10 10 10 10 10 10 10 10 10 10 10 10 10 10 10 10 10 10 10 10 10 10 10 10 10 10 10 10 10 10 10 10 10 10 10 10 10 10 10 10 10 10 10 10 10 10 10 10 10 10 10 10 10 10 10 10 10 10 10 10 10 10 10 10 10 10 10 10 10 10 10 10 10 10 10 10 10 10 10 10 10 10 10 10 10 10 10 10 10 10 10 10 10 10 10 10 10 10 10 10 10 10 10 10 10 10 10 10 10 10 10 10 10 10 10 10 10 10 10 10 10 10 10 10 10 10 10 10 10 10 10 10 10 10 10 10 10 10 10 10 10 10 10 10 10 10 10 10 10 10 10 10 10 10 10 10 10 10 10 10 10 10 10 10 10 10 10 10 10 10 10 10 10 10 10 10 10 10 10 10 10 10 10 10 10 10 10 10 10 10 10 10 10 10 10 10 10 10 10 10 10 10 10 10 10 10 10 10 10 10 10 10 10 10 10 10 10 10 10 10 10 10 10 10 10 10 10 10 10 10 10 10 10 10 10 10 10 10 10 10 10 10 10 10 10 10 10 10 10 10 10 10 10 10 10 10 10 10 10 10 10 10 10 10 10 10 10 10 10 10 10 10 10 10 10 10 10 10 10 10 10 10 10 10 10 10 10 10 10 10 10 10 10 10 10 10 10 10 10 10 10 10 10 10 10 10 10 10 10 10 10 10 10 10 10 10 10 10 10 10 10 10 10 10 10 10 10 10 10 10 10 10 10 10 10 10 10 10 10 10 10 10 10 10 10 10 10 10 10 10 10 10 10 10 10 10 10 10 10 10 10 10 10 10 10 10 10 10 10 10 10 10 10 10 10 10 10 10 10 10 10 10 10 10 10 10 10 10 10 10 10 10 10 10 10 10 10 10 10 10 10 10 10 10 10 10 10 10 10 10 10 10 10 10 10 10 10 10 10 10 10 10 10 10 10 10 10 10 10 10 10 10 10 10 10 10 10 10 10 10 10 10 10 10 10 10 10 10 10 10 10 10 10 10 10 10 10 10 10 10 10 10 10 10 10 10 10 10 10 10 10 10 10 10 10 10 10 10 10 10 10 10 10 10 10 10 10 10 10 10 10 10 10 10 10 10 10 10 10 10 10 10 10 10 10 10 10 10 10 10 10 10 10 10 10 10 10 10 10 10 10 10 10 10 10 10 10 10 10 10 10 10 10 10 10 10 10 10 10 10 10 10 10 10 10 10 10 10 10 10 10 10 10 10 10 10 10 10 10 10 10 10 10 10 10 10 10 10 10 10 10 </DataArray>
</Cells>
<PointData  Scalars="f_7-1"> 
<DataArray  type="Float64"  Name="f_7-1"  format="ascii">5.6292589425824990e-01  2.9323248098141652e-01  3.3574467047313372e-01  3.3635185538206669e-01  3.3538738534923113e-01  3.3568244939446557e-01  6.1952690984580605e-01  3.2277178120929279e-01  3.2757963896191694e-01  3.3778020974875977e-01  3.3594485112274597e-01  3.3582003168285679e-01  5.8032604514605191e-01  3.8103479439834986e-01  3.2000670708453460e-01  3.3965595049346126e-01  3.3596703766800190e-01  3.3627466034413112e-01  5.4972346681850981e-01  3.8770214955020277e-01  3.1994941112105141e-01  3.3907844348907884e-01  3.3643529721898369e-01  3.3677504360753496e-01  6.2294749493232382e-01  3.6449665984739260e-01  3.2845370392048356e-01  3.3661927462922414e-01  3.3762245127438467e-01  3.3673079808052814e-01  7.7521247024206541e-01  2.2677216156304597e-01  3.2108369123652619e-01  3.4287645796904082e-01  3.3784310039347476e-01  3.3629353951440993e-01  6.5125015487952631e-01  2.5569676346957004e-01  3.3615740600408939e-01  3.3817376563250690e-01  3.3489977720289049e-01  3.3576156725135503e-01  8.3717752892977626e-01  2.2594611258170585e-01  3.5452624757550438e-01  3.3524365055695460e-01  3.3549390224615466e-01  3.3619861151699598e-01  6.8274342319929504e-01  3.3074490011959501e-01  3.3161877898648068e-01  3.3602187138697709e-01  3.3662711501190790e-01  3.3622654448513956e-01  6.5687241595451318e-01  3.5578920148091048e-01  3.1685492134391102e-01  3.4051521212536551e-01  3.3659900689853800e-01  3.3652497117685243e-01  7.1116740671440304e-01  3.4092923772649952e-01  3.0959846459076279e-01  3.4560977796657000e-01  3.3595893797331133e-01  3.3688982755632735e-01  1.3237576676964198e+00  5.6309315809720800e-03  3.7014996040474352e-01  3.4589020996357250e-01  3.3378579825037108e-01  3.3800255680312136e-01  6.4537703414275227e-01  2.5742626433641891e-01  3.3714175413310782e-01  3.3885424804624625e-01  3.3446526952075906e-01  3.3595883999620391e-01  8.1178465665339372e-01  2.1038419551273518e-01  3.6605416999523582e-01  3.3188241587748701e-01  3.3569168171961256e-01  3.3648121663204356e-01  6.6112895801445470e-01  3.2253710970281174e-01  3.4525211573703357e-01  3.2980326702539470e-01  3.3821878580125964e-01  3.3592176046780342e-01  6.4104704898850029e-01  3.4984599109270220e-01  3.2512918771087446e-01  3.3739750448212091e-01  3.3779182943983088e-01  3.3586024643968626e-01  6.9410349561649698e-01  3.4918680193862911e-01  3.0975157612895421e-01  3.4769450335039304e-01  3.3490889989064992e-01  3.3707636061125507e-01  1.2478266840098240e+00  -5.5933582173934106e-02  4.1009969186212247e-01  3.3651466567957306e-01  3.3309170262172333e-01  3.3942748452658289e-01  6.0597177991718465e-01  2.5598463093326035e-01  3.4013939665482812e-01  3.3789403450121142e-01  3.3452496556692757e-01  3.3608740938610543e-01  7.7882805456679416e-01  2.1848421173096391e-01  3.6596618257350894e-01  3.3021210955567165e-01  3.3623915311527930e-01  3.3641337401562665e-01  6.3928555993720126e-01  3.3485049488829000e-01  3.4474956279152980e-01  3.2775417625002640e-01  3.3943747482945086e-01  3.3528918085732651e-01  6.1642278099355274e-01  3.5797851205005810e-01  3.2417360054425287e-01  3.3556767858277153e-01  3.3896735010745377e-01  3.3495554322923288e-01  6.6004704519609647e-01  3.5509345428429956e-01  3.1013546144027521e-01  3.4638335576635987e-01  3.3521205023294348e-01  3.3691783320855817e-01  1.2181115681966539e+00  -4.0350264847176909e-02  4.1042519848749248e-01  3.3184690900059821e-01  3.3478635117863620e-01  3.3937361235179575e-01  5.9222150484494163e-01  2.9864352446387255e-01  3.2966671686171040e-01  3.3873589707945034e-01  3.3478270589954279e-01  3.3580789296264951e-01  7.2837365044353741e-01  2.6201631447490070e-01  3.4765959191472828e-01  3.3430453531799037e-01  3.3581035306056556e-01  3.3636829021774561e-01  6.3320440997004357e-01  3.5928030443406161e-01  3.3368331037297655e-01  3.3188352778618174e-01  3.3837609659003315e-01  3.3553361085051531e-01  6.0214010572063914e-01  3.8358577200407296e-01  3.1547868923012096e-01  3.3718488008395997e-01  3.3861750672939478e-01  3.3499283273345681e-01  6.5165424301252006e-01  3.8280869777146520e-01  3.0226532759777663e-01  3.4663482882634677e-01  3.3586043423276457e-01  3.3648408135083263e-01  1.0416532160584693e+00  2.6689768873495574e-02  3.8279728324905343e-01  3.3872274640150429e-01  3.3452800485638329e-01  3.3877939796956796e-01  1.0646604345970996e+00  1.8508109707553558e-01  3.3619583813482995e-01  3.4294323322154741e-01  3.3315335043742600e-01  3.3635560829521322e-01  1.4395776447561077e+00  5.8669482712670480e-02  3.9522250250693397e-01  3.2724476662089402e-01  3.3602339658851132e-01  3.3654161233699631e-01  1.0132123433515772e+00  2.1414166907637686e-01  3.7393638560541642e-01  3.1976856189835712e-01  3.4131343126335845e-01  3.3488619239068407e-01  9.9532343692325231e-01  2.8491090255692364e-01  3.2531686219657896e-01  3.3589525188396963e-01  3.4005647831107128e-01  3.3421610528686491e-01  1.2451848886633232e+00  2.0561660796262041e-01  3.2446349831533766e-01  3.5057895542921325e-01  3.3360397673809405e-01  3.3690726708905139e-01  2.0782797790258685e+00  -1.8971675391571535e-01  4.1791065223971974e-01  3.3962880498465831e-01  3.3158245125289110e-01  3.3981058370236306e-01  </DataArray> 
</PointData> 
</Piece>
</UnstructuredGrid>
</VTKFile>