<?xml version="1.0"?>
<VTKFile type="UnstructuredGrid"  version="0.1"  >
<UnstructuredGrid>
<Piece  NumberOfPoints="2976" NumberOfCells="13500">
<Points>
<DataArray  type="Float64"  NumberOfComponents="3"  format="ascii">0 0 0  0.3333333333333333 0 0  0.6666666666666666 0 0  1 0 0  1.333333333333333 0 0  1.666666666666667 0 0  2 0 0  2.333333333333333 0 0  2.666666666666667 0 0  3 0 0  3.333333333333333 0 0  3.666666666666667 0 0  4 0 0  4.333333333333333 0 0  4.666666666666667 0 0  5 0 0  5.333333333333333 0 0  5.666666666666667 0 0  6 0 0  6.333333333333333 0 0  6.666666666666667 0 0  7 0 0  7.333333333333333 0 0  7.666666666666667 0 0  8 0 0  8.333333333333334 0 0  8.666666666666666 0 0  9 0 0  9.333333333333334 0 0  9.666666666666666 0 0  10 0 0  0 0.2 0  0.3333333333333333 0.2 0  0.6666666666666666 0.2 0  1 0.2 0  1.333333333333333 0.2 0  1.666666666666667 0.2 0  2 0.2 0  2.333333333333333 0.2 0  2.666666666666667 0.2 0  3 0.2 0  3.333333333333333 0.2 0  3.666666666666667 0.2 0  4 0.2 0  4.333333333333333 0.2 0  4.666666666666667 0.2 0  5 0.2 0  5.333333333333333 0.2 0  5.666666666666667 0.2 0  6 0.2 0  6.333333333333333 0.2 0  6.666666666666667 0.2 0  7 0.2 0  7.333333333333333 0.2 0  7.666666666666667 0.2 0  8 0.2 0  8.333333333333334 0.2 0  8.666666666666666 0.2 0  9 0.2 0  9.333333333333334 0.2 0  9.666666666666666 0.2 0  10 0.2 0  0 0.4 0  0.3333333333333333 0.4 0  0.6666666666666666 0.4 0  1 0.4 0  1.333333333333333 0.4 0  1.666666666666667 0.4 0  2 0.4 0  2.333333333333333 0.4 0  2.666666666666667 0.4 0  3 0.4 0  3.333333333333333 0.4 0  3.666666666666667 0.4 0  4 0.4 0  4.333333333333333 0.4 0  4.666666666666667 0.4 0  5 0.4 0  5.333333333333333 0.4 0  5.666666666666667 0.4 0  6 0.4 0  6.333333333333333 0.4 0  6.666666666666667 0.4 0  7 0.4 0  7.333333333333333 0.4 0  7.666666666666667 0.4 0  8 0.4 0  8.333333333333334 0.4 0  8.666666666666666 0.4 0  9 0.4 0  9.333333333333334 0.4 0  9.666666666666666 0.4 0  10 0.4 0  0 0.6 0  0.3333333333333333 0.6 0  0.6666666666666666 0.6 0  1 0.6 0  1.333333333333333 0.6 0  1.666666666666667 0.6 0  2 0.6 0  2.333333333333333 0.6 0  2.666666666666667 0.6 0  3 0.6 0  3.333333333333333 0.6 0  3.666666666666667 0.6 0  4 0.6 0  4.333333333333333 0.6 0  4.666666666666667 0.6 0  5 0.6 0  5.333333333333333 0.6 0  5.666666666666667 0.6 0  6 0.6 0  6.333333333333333 0.6 0  6.666666666666667 0.6 0  7 0.6 0  7.333333333333333 0.6 0  7.666666666666667 0.6 0  8 0.6 0  8.333333333333334 0.6 0  8.666666666666666 0.6 0  9 0.6 0  9.333333333333334 0.6 0  9.666666666666666 0.6 0  10 0.6 0  0 0.8 0  0.3333333333333333 0.8 0  0.6666666666666666 0.8 0  1 0.8 0  1.333333333333333 0.8 0  1.666666666666667 0.8 0  2 0.8 0  2.333333333333333 0.8 0  2.666666666666667 0.8 0  3 0.8 0  3.333333333333333 0.8 0  3.666666666666667 0.8 0  4 0.8 0  4.333333333333333 0.8 0  4.666666666666667 0.8 0  5 0.8 0  5.333333333333333 0.8 0  5.666666666666667 0.8 0  6 0.8 0  6.333333333333333 0.8 0  6.666666666666667 0.8 0  7 0.8 0  7.333333333333333 0.8 0  7.666666666666667 0.8 0  8 0.8 0  8.333333333333334 0.8 0  8.666666666666666 0.8 0  9 0.8 0  9.333333333333334 0.8 0  9.666666666666666 0.8 0  10 0.8 0  0 1 0  0.3333333333333333 1 0  0.6666666666666666 1 0  1 1 0  1.333333333333333 1 0  1.666666666666667 1 0  2 1 0  2.333333333333333 1 0  2.666666666666667 1 0  3 1 0  3.333333333333333 1 0  3.666666666666667 1 0  4 1 0  4.333333333333333 1 0  4.666666666666667 1 0  5 1 0  5.333333333333333 1 0  5.666666666666667 1 0  6 1 0  6.333333333333333 1 0  6.666666666666667 1 0  7 1 0  7.333333333333333 1 0  7.666666666666667 1 0  8 1 0  8.333333333333334 1 0  8.666666666666666 1 0  9 1 0  9.333333333333334 1 0  9.666666666666666 1 0  10 1 0  0 1.2 0  0.3333333333333333 1.2 0  0.6666666666666666 1.2 0  1 1.2 0  1.333333333333333 1.2 0  1.666666666666667 1.2 0  2 1.2 0  2.333333333333333 1.2 0  2.666666666666667 1.2 0  3 1.2 0  3.333333333333333 1.2 0  3.666666666666667 1.2 0  4 1.2 0  4.333333333333333 1.2 0  4.666666666666667 1.2 0  5 1.2 0  5.333333333333333 1.2 0  5.666666666666667 1.2 0  6 1.2 0  6.333333333333333 1.2 0  6.666666666666667 1.2 0  7 1.2 0  7.333333333333333 1.2 0  7.666666666666667 1.2 0  8 1.2 0  8.333333333333334 1.2 0  8.666666666666666 1.2 0  9 1.2 0  9.333333333333334 1.2 0  9.666666666666666 1.2 0  10 1.2 0  0 1.4 0  0.3333333333333333 1.4 0  0.6666666666666666 1.4 0  1 1.4 0  1.333333333333333 1.4 0  1.666666666666667 1.4 0  2 1.4 0  2.333333333333333 1.4 0  2.666666666666667 1.4 0  3 1.4 0  3.333333333333333 1.4 0  3.666666666666667 1.4 0  4 1.4 0  4.333333333333333 1.4 0  4.666666666666667 1.4 0  5 1.4 0  5.333333333333333 1.4 0  5.666666666666667 1.4 0  6 1.4 0  6.333333333333333 1.4 0  6.666666666666667 1.4 0  7 1.4 0  7.333333333333333 1.4 0  7.666666666666667 1.4 0  8 1.4 0  8.333333333333334 1.4 0  8.666666666666666 1.4 0  9 1.4 0  9.333333333333334 1.4 0  9.666666666666666 1.4 0  10 1.4 0  0 1.6 0  0.3333333333333333 1.6 0  0.6666666666666666 1.6 0  1 1.6 0  1.333333333333333 1.6 0  1.666666666666667 1.6 0  2 1.6 0  2.333333333333333 1.6 0  2.666666666666667 1.6 0  3 1.6 0  3.333333333333333 1.6 0  3.666666666666667 1.6 0  4 1.6 0  4.333333333333333 1.6 0  4.666666666666667 1.6 0  5 1.6 0  5.333333333333333 1.6 0  5.666666666666667 1.6 0  6 1.6 0  6.333333333333333 1.6 0  6.666666666666667 1.6 0  7 1.6 0  7.333333333333333 1.6 0  7.666666666666667 1.6 0  8 1.6 0  8.333333333333334 1.6 0  8.666666666666666 1.6 0  9 1.6 0  9.333333333333334 1.6 0  9.666666666666666 1.6 0  10 1.6 0  0 1.8 0  0.3333333333333333 1.8 0  0.6666666666666666 1.8 0  1 1.8 0  1.333333333333333 1.8 0  1.666666666666667 1.8 0  2 1.8 0  2.333333333333333 1.8 0  2.666666666666667 1.8 0  3 1.8 0  3.333333333333333 1.8 0  3.666666666666667 1.8 0  4 1.8 0  4.333333333333333 1.8 0  4.666666666666667 1.8 0  5 1.8 0  5.333333333333333 1.8 0  5.666666666666667 1.8 0  6 1.8 0  6.333333333333333 1.8 0  6.666666666666667 1.8 0  7 1.8 0  7.333333333333333 1.8 0  7.666666666666667 1.8 0  8 1.8 0  8.333333333333334 1.8 0  8.666666666666666 1.8 0  9 1.8 0  9.333333333333334 1.8 0  9.666666666666666 1.8 0  10 1.8 0  0 2 0  0.3333333333333333 2 0  0.6666666666666666 2 0  1 2 0  1.333333333333333 2 0  1.666666666666667 2 0  2 2 0  2.333333333333333 2 0  2.666666666666667 2 0  3 2 0  3.333333333333333 2 0  3.666666666666667 2 0  4 2 0  4.333333333333333 2 0  4.666666666666667 2 0  5 2 0  5.333333333333333 2 0  5.666666666666667 2 0  6 2 0  6.333333333333333 2 0  6.666666666666667 2 0  7 2 0  7.333333333333333 2 0  7.666666666666667 2 0  8 2 0  8.333333333333334 2 0  8.666666666666666 2 0  9 2 0  9.333333333333334 2 0  9.666666666666666 2 0  10 2 0  0 2.2 0  0.3333333333333333 2.2 0  0.6666666666666666 2.2 0  1 2.2 0  1.333333333333333 2.2 0  1.666666666666667 2.2 0  2 2.2 0  2.333333333333333 2.2 0  2.666666666666667 2.2 0  3 2.2 0  3.333333333333333 2.2 0  3.666666666666667 2.2 0  4 2.2 0  4.333333333333333 2.2 0  4.666666666666667 2.2 0  5 2.2 0  5.333333333333333 2.2 0  5.666666666666667 2.2 0  6 2.2 0  6.333333333333333 2.2 0  6.666666666666667 2.2 0  7 2.2 0  7.333333333333333 2.2 0  7.666666666666667 2.2 0  8 2.2 0  8.333333333333334 2.2 0  8.666666666666666 2.2 0  9 2.2 0  9.333333333333334 2.2 0  9.666666666666666 2.2 0  10 2.2 0  0 2.4 0  0.3333333333333333 2.4 0  0.6666666666666666 2.4 0  1 2.4 0  1.333333333333333 2.4 0  1.666666666666667 2.4 0  2 2.4 0  2.333333333333333 2.4 0  2.666666666666667 2.4 0  3 2.4 0  3.333333333333333 2.4 0  3.666666666666667 2.4 0  4 2.4 0  4.333333333333333 2.4 0  4.666666666666667 2.4 0  5 2.4 0  5.333333333333333 2.4 0  5.666666666666667 2.4 0  6 2.4 0  6.333333333333333 2.4 0  6.666666666666667 2.4 0  7 2.4 0  7.333333333333333 2.4 0  7.666666666666667 2.4 0  8 2.4 0  8.333333333333334 2.4 0  8.666666666666666 2.4 0  9 2.4 0  9.333333333333334 2.4 0  9.666666666666666 2.4 0  10 2.4 0  0 2.6 0  0.3333333333333333 2.6 0  0.6666666666666666 2.6 0  1 2.6 0  1.333333333333333 2.6 0  1.666666666666667 2.6 0  2 2.6 0  2.333333333333333 2.6 0  2.666666666666667 2.6 0  3 2.6 0  3.333333333333333 2.6 0  3.666666666666667 2.6 0  4 2.6 0  4.333333333333333 2.6 0  4.666666666666667 2.6 0  5 2.6 0  5.333333333333333 2.6 0  5.666666666666667 2.6 0  6 2.6 0  6.333333333333333 2.6 0  6.666666666666667 2.6 0  7 2.6 0  7.333333333333333 2.6 0  7.666666666666667 2.6 0  8 2.6 0  8.333333333333334 2.6 0  8.666666666666666 2.6 0  9 2.6 0  9.333333333333334 2.6 0  9.666666666666666 2.6 0  10 2.6 0  0 2.8 0  0.3333333333333333 2.8 0  0.6666666666666666 2.8 0  1 2.8 0  1.333333333333333 2.8 0  1.666666666666667 2.8 0  2 2.8 0  2.333333333333333 2.8 0  2.666666666666667 2.8 0  3 2.8 0  3.333333333333333 2.8 0  3.666666666666667 2.8 0  4 2.8 0  4.333333333333333 2.8 0  4.666666666666667 2.8 0  5 2.8 0  5.333333333333333 2.8 0  5.666666666666667 2.8 0  6 2.8 0  6.333333333333333 2.8 0  6.666666666666667 2.8 0  7 2.8 0  7.333333333333333 2.8 0  7.666666666666667 2.8 0  8 2.8 0  8.333333333333334 2.8 0  8.666666666666666 2.8 0  9 2.8 0  9.333333333333334 2.8 0  9.666666666666666 2.8 0  10 2.8 0  0 3 0  0.3333333333333333 3 0  0.6666666666666666 3 0  1 3 0  1.333333333333333 3 0  1.666666666666667 3 0  2 3 0  2.333333333333333 3 0  2.666666666666667 3 0  3 3 0  3.333333333333333 3 0  3.666666666666667 3 0  4 3 0  4.333333333333333 3 0  4.666666666666667 3 0  5 3 0  5.333333333333333 3 0  5.666666666666667 3 0  6 3 0  6.333333333333333 3 0  6.666666666666667 3 0  7 3 0  7.333333333333333 3 0  7.666666666666667 3 0  8 3 0  8.333333333333334 3 0  8.666666666666666 3 0  9 3 0  9.333333333333334 3 0  9.666666666666666 3 0  10 3 0  0 0 0.1  0.3333333333333333 0 0.1  0.6666666666666666 0 0.1  1 0 0.1  1.333333333333333 0 0.1  1.666666666666667 0 0.1  2 0 0.1  2.333333333333333 0 0.1  2.666666666666667 0 0.1  3 0 0.1  3.333333333333333 0 0.1  3.666666666666667 0 0.1  4 0 0.1  4.333333333333333 0 0.1  4.666666666666667 0 0.1  5 0 0.1  5.333333333333333 0 0.1  5.666666666666667 0 0.1  6 0 0.1  6.333333333333333 0 0.1  6.666
[...]
<PointData  Scalars="f_7-1"> 
<DataArray  type="Float64"  Name="f_7-1"  format="ascii">3.8549863857715061e-01  -4.9125236138290035e-01  3.5098620750849907e-01  4.8494892150079821e-01  4.4777991314211479e-01  4.8536668629039770e-01  4.5666831891348231e-01  3.0532020330772908e-01  -2.0426151100652784e-01  -8.8410327116125520e-01  -1.3308715450945434e+00  -1.4542812212604905e+00  -1.4087502049236873e+00  -1.3216362640443085e+00  -1.2380318765903151e+00  -1.1701588819612845e+00  -1.1236886376302515e+00  -1.1000099911251795e+00  -1.0949554744124430e+00  -1.1010453050438733e+00  -1.1112571327922263e+00  -1.1211125007480729e+00  -1.1286190007562595e+00  -1.1333529408444665e+00  -1.1356695598585096e+00  -1.1362402424110039e+00  -1.1357893181454515e+00  -1.1349327040727701e+00  -1.1340876924423575e+00  -1.1335217544789020e+00  -1.1333785044281655e+00  3.9244338585019345e+00  -8.2951535606799742e-02  5.0218532570386065e-01  3.1447191608680974e-01  4.6450512573442204e-01  4.4229939209133556e-01  3.8278189883280067e-01  4.6204302118517740e-02  -5.8544856583273952e-01  -1.1638124334998432e+00  -1.4176931997785442e+00  -1.4226339323096964e+00  -1.3482373590959185e+00  -1.2672430009813194e+00  -1.1962838204613329e+00  -1.1424536830670058e+00  -1.1099573659922799e+00  -1.0976219329052637e+00  -1.0994074755895262e+00  -1.1079794367604721e+00  -1.1178326959687614e+00  -1.1260893615486052e+00  -1.1317898760207705e+00  -1.1350040501215819e+00  -1.1362635990581667e+00  -1.1362480496970033e+00  -1.1355923958622889e+00  -1.1347708487894934e+00  -1.1340728087900844e+00  -1.1336483542337688e+00  -1.1334969512868405e+00  1.7922649433412401e+00  2.0383643917348779e+00  -4.1564167532068497e-01  5.3982671428589257e-01  3.9412155493662610e-01  4.1273300929228307e-01  2.5350767794536927e-01  -3.0551629812843151e-01  -1.0019760395382911e+00  -1.4110447555947014e+00  -1.4597863384645673e+00  -1.3740756366707889e+00  -1.2886962422178434e+00  -1.2175079842577214e+00  -1.1592157376815990e+00  -1.1191243819555090e+00  -1.0998788425562618e+00  -1.0976964632968189e+00  -1.1050248674334013e+00  -1.1150913566949008e+00  -1.1240613883456643e+00  -1.1305585652599630e+00  -1.1344907376969526e+00  -1.1363028114272946e+00  -1.1366393075857566e+00  -1.1361542683586414e+00  -1.1353755825623073e+00  -1.1346395196416121e+00  -1.1341043832249145e+00  -1.1337962913677524e+00  -1.1336889939534445e+00  3.1287017472933316e+00  1.5229804883340172e+00  1.1149627797600616e+00  2.2235012149326033e-01  3.8239889710241681e-01  3.9720337613051043e-01  2.0646398421900208e-04  -7.5504386151438685e-01  -1.4039507257320609e+00  -1.5834972138601364e+00  -1.4707600764884483e+00  -1.3322313295394328e+00  -1.2368241036256515e+00  -1.1703575712678247e+00  -1.1236799226511369e+00  -1.0977428507609546e+00  -1.0917283111110605e+00  -1.0989478815383458e+00  -1.1109357770404373e+00  -1.1219888259926103e+00  -1.1299471172541897e+00  -1.1347256948801607e+00  -1.1369651835019636e+00  -1.1374504064522049e+00  -1.1369334966757292e+00  -1.1360355074583448e+00  -1.1351709046847094e+00  -1.1345369950209623e+00  -1.1341591362888643e+00  -1.1339747234143533e+00  -1.1339202343271024e+00  2.7597932979976418e+00  1.2040046899818504e+00  2.0235246181080755e+00  3.0544107424099459e-01  4.9628990674362033e-01  2.4468447643740146e-01  -3.9916147955213527e-01  -1.2615719124043823e+00  -1.7131523790899197e+00  -1.6676744484996706e+00  -1.4697553748608307e+00  -1.3050644451579450e+00  -1.1951966124653126e+00  -1.1279066033737113e+00  -1.0914045195794928e+00  -1.0796875668241133e+00  -1.0861969441116572e+00  -1.1013151945568531e+00  -1.1167137538614265e+00  -1.1282400086701998e+00  -1.1351831967702755e+00  -1.1384070249467360e+00  -1.1391216035476595e+00  -1.1384201077249860e+00  -1.1371605929089534e+00  -1.1359257972086656e+00  -1.1350138220158550e+00  -1.1344856520544691e+00  -1.1342526891997802e+00  -1.1341836779605270e+00  -1.1341755765412611e+00  2.4144291749596318e+00  1.4339365499027639e+00  1.7013577583724162e+00  1.4644672068136189e+00  3.3242784490067478e-01  1.5697051701845280e-02  -9.5051741216380503e-01  -1.7335262990653313e+00  -1.8838609945448557e+00  -1.6915374194402255e+00  -1.4700537786598833e+00  -1.2912955009596028e+00  -1.1654323830795357e+00  -1.0930964042512075e+00  -1.0643853127535443e+00  -1.0658053499125950e+00  -1.0831005855834874e+00  -1.1041569081180505e+00  -1.1217664954094639e+00  -1.1334480094122985e+00  -1.1395356646740111e+00  -1.1414880956215008e+00  -1.1409333034568998e+00  -1.1392407530414097e+00  -1.1373740354490243e+00  -1.1358784555022927e+00  -1.1349423896981476e+00  -1.1345060411589665e+00  -1.1343928745225744e+00  -1.1344179981756777e+00  -1.1344451030412177e+00  2.3843113037146457e+00  1.4258063336143656e+00  1.4984447185686338e+00  2.0240918368617975e+00  7.6222090768215600e-01  -4.5147613355682681e-01  -1.5916219168536188e+00  -2.0495775274429526e+00  -1.9360439470371598e+00  -1.6923135413620618e+00  -1.4731973696733338e+00  -1.2858926615168456e+00  -1.1473819592201648e+00  -1.0689599682643354e+00  -1.0454096888863542e+00  -1.0569490897908371e+00  -1.0820051645403002e+00  -1.1068376097852828e+00  -1.1256737010899256e+00  -1.1373569024434640e+00  -1.1428276095108707e+00  -1.1438607558625200e+00  -1.1423652428057254e+00  -1.1399329167994823e+00  -1.1376196105977054e+00  -1.1359384153053163e+00  -1.1349870928498640e+00  -1.1346151828780195e+00  -1.1345846900128993e+00  -1.1346726029652017e+00  -1.1347219593561206e+00  2.3896288224264652e+00  1.3742182455276712e+00  1.5191152437989341e+00  1.9790174923386423e+00  1.6925149942290396e+00  -1.2009416695057651e+00  -2.0672247329387621e+00  -2.1828301488332524e+00  -1.9283708957768486e+00  -1.6904655470874834e+00  -1.4755343164447139e+00  -1.2844938285581160e+00  -1.1397594440455912e+00  -1.0581364045010857e+00  -1.0372027445629504e+00  -1.0536843958585076e+00  -1.0823493559516724e+00  -1.1088289485931109e+00  -1.1281655616881974e+00  -1.1398090265215157e+00  -1.1449311183270645e+00  -1.1454367755614985e+00  -1.1433881085273589e+00  -1.1405160982928852e+00  -1.1379370131882560e+00  -1.1361422954240912e+00  -1.1351714563509856e+00  -1.1348251442985273e+00  -1.1348303047089037e+00  -1.1349439583192769e+00  -1.1350016565139431e+00  2.5388412492866728e+00  1.3006366627653814e+00  1.5830574835279216e+00  1.9088556623148079e+00  1.9552732773157637e+00  -1.2159930864322650e+00  -2.3363584523324272e+00  -2.1668587152184124e+00  -1.9077645305009414e+00  -1.6892665183201527e+00  -1.4742852038655978e+00  -1.2847458990015117e+00  -1.1416722637160364e+00  -1.0621023622328296e+00  -1.0411975373473674e+00  -1.0562352901686509e+00  -1.0838069056355453e+00  -1.1098856297613944e+00  -1.1291332029177432e+00  -1.1407328168344697e+00  -1.1457749150753498e+00  -1.1461617722161292e+00  -1.1439836389505789e+00  -1.1410036776820438e+00  -1.1383515900506276e+00  -1.1365115735524702e+00  -1.1355095628355656e+00  -1.1351413296884185e+00  -1.1351302257837121e+00  -1.1352306500555811e+00  -1.1352823591780976e+00  2.8371599631234909e+00  1.1231104637677602e+00  1.7456126584742615e+00  1.9038580943893986e+00  1.3710750174779989e+00  -4.9025832424048543e-01  -2.1936555057127549e+00  -2.0557023385646285e+00  -1.8978458618499512e+00  -1.6811391994878484e+00  -1.4698682458532013e+00  -1.2866098812160942e+00  -1.1536612256635683e+00  -1.0806291622098538e+00  -1.0568357326755458e+00  -1.0644940509271592e+00  -1.0865046702119949e+00  -1.1101040158873952e+00  -1.1286057305730364e+00  -1.1401254261437133e+00  -1.1453463794833665e+00  -1.1460254060037605e+00  -1.1441504932734583e+00  -1.1414015620721512e+00  -1.1388702456977648e+00  -1.1370504812294822e+00  -1.1360043740876129e+00  -1.1355631597765481e+00  -1.1354840434668250e+00  -1.1355333662620146e+00  -1.1355650851207704e+00  2.8299686265138542e+00  1.0071973866829189e+00  1.9087778480812407e+00  1.6656809000558259e+00  6.3253970142853533e-01  -2.5582109023893351e-02  -1.3494549707441046e+00  -1.9465048051705589e+00  -1.8606118767538879e+00  -1.6651357046707724e+00  -1.4634974042989555e+00  -1.2926243044267327e+00  -1.1772268053507395e+00  -1.1116460635353200e+00  -1.0818477903908492e+00  -1.0780676422520554e+00  -1.0909722998776601e+00  -1.1099018948656700e+00  -1.1267568138388415e+00  -1.1380600481205478e+00  -1.1436961380684816e+00  -1.1450648134099026e+00  -1.1439048249222363e+00  -1.1417059902421884e+00  -1.1394790878832621e+00  -1.1377451564478747e+00  -1.1366449149405131e+00  -1.1360874782110602e+00  -1.1358895405834730e+00  -1.1358544203029914e+00  -1.1358540210284520e+00  2.1176913314062098e+00  1.3327084966438050e+00  1.9593780960487588e+00  1.0334569462437877e+00  2.0260236137151924e-01  1.5638036041975725e-01  -4.0183090531259513e-01  -1.6317623194154669e+00  -1.7750695696807715e+00  -1.6422671679638157e+00  -1.4552016830621888e+00  -1.3082678375950945e+00  -1.2131460857850254e+00  -1.1518761798837447e+00  -1.1134074581419922e+00  -1.0963466265049970e+00  -1.0978058183626609e+00  -1.1098737432119679e+00  -1.1238875880945027e+00  -1.1346853916865325e+00  -1.1409308935014140e+00  -1.1433565580489369e+00  -1.1432773296325738e+00  -1.1419065051537416e+00  -1.1401490810665995e+00  -1.1385672899090407e+00  -1.1374124897873277e+00  -1.1367066246419573e+00  -1.1363429677990746e+00  -1.1361986870007739e+00  -1.1361558084852894e+00  3.4284384256499467e-01  1.7719454085543398e+00  1.5978572439258418e+00  3.1512004941624644e-01  1.9315394801377803e-01  2.9902019536143737e-01  8.1161630030704104e-02  -9.6657549885680050e-01  -1.6292951743584776e+00  -1.5907571988038891e+00  -1.4507747313250483e+00  -1.3379445183193990e+00  -1.2595656929616150e+00  -1.1975122165673577e+00  -1.1489180055859756e+00  -1.1184590734465096e+00  -1.1073460417124483e+00  -1.1107000694819398e+00  -1.1205017593311641e+00  -1.1303077997486155e+00  -1.1372523948049038e+00  -1.1410239383446026e+00  -1.1423105839722507e+00  -1.1419836366430340e+00  -1.1408335319327925e+00  -1.1394714716083021e+00  -1.1382753827365322e+00  -1.1373997809422671e+00  -1.1368497749019013e+00  -1.1365669073128695e+00  -1.1364773692023373e+00  -7.9473367237667003e-01  2.3569785253097142e+00  6.0555284495799644e-01  2.4680293617335397e-02  3.8858039682089307e-01  3.7305679608094955e-01  2.3358504423532866e-01  -2.9188972277059577e-01  -1.2774734507258891e+00  -1.5073282610933099e+00  -1.4568291420232367e+00  -1.3823800197105975e+00  -1.3138081221948548e+00  -1.2465981586522594e+00  -1.1875353843937715e+00  -1.1440287193441248e+00  -1.1197606376703402e+00  -1.1128895933218155e+00  -1.1170469250061126e+00  -1.1251983586685301e+00  -1.1328133158401288e+00  -1.1381409150473893e+00  -1.1410153027302312e+00  -1.1419073009520582e+00  -1.1414892745995497e+00  -1.1404210899837377e+00  -1.1392106627655652e+00  -1.1381655487705695e+00  -1.1374110284400525e+00  -1.1369569445279435e+00  -1.1368354313533258e+00  3.1049171649659035e+00  1.3935295919547275e+00  -4.0341050399602768e-01  3.5807181065287136e-01  4.8502777332993974e-01  4.1292388901835936e-01  3.4704888583220700e-01  9.7642548603012830e-02  -7.4215289070338497e-01  -1.3748259825551228e+00  -1.4637746502047144e+00  -1.4352982873188600e+00  -1.3697070890080492e+00  -1.2955154899219821e+00  -1.2264130861729035e+00  -1.1706559895766639e+00  -1.1337139365790849e+00  -1.1163447948294760e+00  -1.1141396008651474e+00  -1.1200872121712986e+00  -1.1281769071232921e+00  -1.1350559053132372e+00  -1.1395602645880456e+00  -1.1417196173389117e+00  -1.1420835081577694e+00  -1.1413512944217286e+00  -1.1401543829270147e+00  -1.1389487508078644e+00  -1.1379813053286632e+00  -1.1373984201544389e+00  -1.1372204669680008e+00  8.9360544127438057e+00  -3.1334876504144735e+00  1.4628387074032165e-01  5.6053520982715921e-01  4.9256248103815109e-01  4.5333212057919420e-01  4.2429903337896763e-01  2.7455420240430600e-01  -2.2521934736300175e-01  -1.1108497537703050e+00  -1.4660490095168317e+00  -1.4922432105105548e+00  -1.4272729472113883e+00  -1.3470725081131645e+00  -1.2686262483814035e+00  -1.2011345722695508e+00  -1.1513923420435006e+00  -1.1225503828475174e+00  -1.1125792256304192e+00  -1.1151899209185601e+00  -1.1231960781842270e+00  -1.1314874865603552e+00  -1.1376729948506474e+00  -1.1412184272120467e+00  -1.1424965492205368e+00  -1.1422154499271895e+00  -1.1411139413368954e+00  -1.1397922386541934e+00  -1.1386494741633073e+00  -1.1379210611129151e+00  -1.1375962606109493e+00  3.4588769379326256e-01  -1.0638616006692965e+00  5.9656878864075547e-01  5.1645171339655993e-01  4.2377845973787914e-01  4.5693344950476000e-01  4.2462592883304701e-01  3.4654234284997737e-01  -9.2230992035548021e-02  -8.1778720018617779e-01  -1.3474305186391451e+00  -1.4861176462983317e+00  -1.4233355819315285e+00  -1.3276376114133503e+00  -1.2426560513909741e+00  -1.1736046612030171e+00  -1.1249933566640795e+00  -1.0994019917851390e+00  -1.0934972156813902e+00  -1.0996542522727601e+00  -1.1102952551274803e+00  -1.1205655754779233e+00  -1.1283717851051771e+00  -1.1333051891291013e+00  -1.1357404176167338e+00  -1.1363591629567058e+00  -1.1359022240878465e+00  -1.1350096266139569e+00  -1.1341239802330869e+00  -1.1335203557178639e+00  -1.1333835991316341e+00  7.2226323127017844e+00  -5.9624739373168567e-01  8.3947974024802929e-01  1.9317525435231325e-01  4.9025272334424169e-01  4.4541757611991145e-01  4.1700249353882390e-01  1.1276413226111279e-01  -5.3594251536501003e-01  -1.1845737016122719e+00  -1.4728185303657639e+00  -1.4492058917171764e+00  -1.3495068802964161e+00  -1.2634270769599669e+00  -1.1927202957270016e+00  -1.1389917992458620e+00  -1.1065503626109483e+00  -1.0948625592675856e+00  -1.0977888531810467e+00  -1.1074451323052967e+00  -1.1179644639068091e+00  -1.1264793507785835e+00  -1.1322033688493545e+00  -1.1353447364385922e+00  -1.1365020217760851e+00  -1.1363848832058048e+00  -1.1356459589629901e+00  -1.1347685665484279e+00  -1.1340422660224336e+00  -1.1336032851150539e+00  -1.1334257147406508e+00  2.8640604060066122e+00  2.7858842486959716e+00  -1.7341905510058757e+00  8.9163785013736541e-01  3.3375704187946431e-01  4.3744224778531815e-01  3.2194311194002939e-01  -2.2630170047258388e-01  -1.0051388174690719e+00  -1.4994247924162971e+00  -1.5186567625039018e+00  -1.3752137915032017e+00  -1.2782007833878659e+00  -1.2117172116201329e+00  -1.1553199667748679e+00  -1.1151736555813276e+00  -1.0962608241426741e+00  -1.0953507921913921e+00  -1.1041893800992004e+00  -1.1152639935612001e+00  -1.1246101798798915e+00  -1.1311137076584592e+00  -1.1349279243525230e+00  -1.1366018933642916e+00  -1.1368096193709591e+00  -1.1362198144428097e+00  -1.1353715515756890e+00  -1.1346023000626386e+00  -1.1340596944575945e+00  -1.1337521942430997e+00  -1.1336412511064498e+00  4.8983508829230722e+00  1.4204527225946422e+00  1.5514218030529880e+00  -2.8572227016701995e-01  4.4854817709748196e-01  4.4854180890392792e-01  9.8714764323338200e-02  -6.9894890944560606e-01  -1.4805497531566447e+00  -1.6913875757752848e+00  -1.4997788516260533e+00  -1.3190355941346938e+00  -1.2243070559892577e+00  -1.1635795288754005e+00  -1.1188632664730804e+00  -1.0930846199866386e+00  -1.0879808575320236e+00  -1.0970620181059620e+00  -1.1107356104756874e+00  -1.1226284806991973e+00  -1.1307313325985875e+00  -1.1353628204705244e+00  -1.1374047246802474e+00  -1.1377119266629117e+00  -1.1370495070445192e+00  -1.1360480631975107e+00  -1.1351276970486708e+00  -1.1344790684179606e+00  -1.1341105343706976e+00  -1.1339379700225580e+00  -1.1338893630577007e+00  4.1903861385507053e+00  7.5387389241213121e-01  2.6967329891777569e+00  -2.0472981051272571e-01  6.0036310344427934e-01  3.0889844374229847e-01  -2.8148102815436188e-01  -1.2784695403165049e+00  -1.8519237015855237e+00  -1.7497765855550562e+00  -1.4726420889747378e+00  -1.2915032704349361e+00  -1.1828082991519100e+00  -1.1190422810713472e+00  -1.0849041464387479e+00  -1.0744156086137846e+00  -1.0828213901165562e+00  -1.1002220497483544e+00  -1.1171853965402101e+00  -1.1292646944808129e+00  -1.1361419751563580e+00  -1.1390996392329409e+00  -1.1395458857938379e+00  -1.1386263819562132e+00  -1.1372085787061290e+00  -1.1358792052149416e+00  -1.1349315838958327e+00  -1.1344100095188601e+00  -1.1342024162493738e+00  -1.1341555649379549e+00  -1.1341609143176692e+00  3.6875196729615825e+00  1.1843211185960338e+00  1.8822146052704765e+00  1.7647196509322516e+00  -1.2005673994871738e-01  2.4120250578282187e-01  -8.9428501238836366e-01  -1.8577965214528644e+00  -2.0305391375323958e+00  -1.7231770719216928e+00  -1.4635987358272571e+00  -1.2825673056295539e+00  -1.1541477816718191e+00  -1.0820170503602025e+00  -1.0554374990951796e+00  -1.0598418436249049e+00  -1.0803389261369682e+00  -1.1038771234195848e+00  -1.1227401159761670e+00  -1.1347098435030298e+00  -1.1406131461846687e+00  -1.1422349185636820e+00  -1.1413544528115840e+00  -1.1394022825575398e+00  -1.1373628607644932e+00  -1.1357812656543624e+00  -1.1348287421119951e+00  -1.1344172056689645e+00  -1.1343420688376353e+00  -1.1343982587011556e+00  -1.1344422754636445e+00  3.6175205099373580e+00  1.1684112099201187e+00  1.5604086798440462e+00  2.3523233960841359e+00  7.2783986176129700e-01  -5.5194774282416348e-01  -1.6400834496414882e+00  -2.2575531017470261e+00  -2.0229474040197903e+00  -1.6893810587782097e+00  -1.4702245804222112e+00  -1.2810404162888775e+00  -1.1374454149888751e+00  -1.0559667705387661e+00  -1.0340916738305777e+00  -1.0505048552945184e+00  -1.0799669780541010e+00  -1.1072418901845884e+00  -1.1269639304988632e+00  -1.1387471160264770e+00  -1.1439842809476528e+00  -1.1446537490071529e+00  -1.1427862906994133e+00  -1.1400569603412682e+00  -1.1375591360212476e+00  -1.1358009299120508e+00  -1.1348500375713797e+00  -1.1345175428954639e+00  -1.1345344537011772e+00  -1.1346593075077298e+00  -1.1347266725785639e+00  3.5848380714151045e+00  1.1188132316086941e+00  1.6003901980793822e+00  2.0814863051009653e+00  2.4145606225898781e+00  -1.9436047403614056e+00  -2.2783858970242159e+00  -2.3861945363665029e+00  -1.9374351161741630e+00  -1.6850402129865345e+00  -1.4768672155124971e+00  -1.2814201533320098e+00  -1.1304617209954073e+00  -1.0439145406556751e+00  -1.0246465872967336e+00  -1.0471244597906075e+00  -1.0807885188628696e+00  -1.1095752737348434e+00  -1.1295765348981663e+00  -1.1412476710410284e+00  -1.1461306735372330e+00  -1.1462588240350684e+00  -1.1438085966295035e+00  -1.1406149250674731e+00  -1.1378449026176916e+00  -1.1359807692967421e+00  -1.1350211520189886e+00  -1.1347233597723256e+00  -1.1347809949983352e+00  -1.1349339609234146e+00  -1.1350094542828288e+00  3.7324678259624555e+00  1.0501500329644320e+00  1.6597069817899517e+00  1.9553109941797231e+00  2.7662810352176490e+00  -1.7161442170952617e+00  -2.9973523193300768e+00  -2.2215723713439441e+00  -1.8951640693276706e+00  -1.6944457282657515e+00  -1.4761760559619044e+00  -1.2820113786241414e+00  -1.1316038311225420e+00  -1.0477122876580316e+00  -1.0291558896575681e+00  -1.0499706799743687e+00  -1.0822268889552560e+00  -1.1105435041331984e+00  -1.1304988953890078e+00  -1.1421644324633269e+00  -1.1469804054172135e+00  -1.1469870157900162e+00  -1.1443988277714376e+00  -1.1410918129759984e+00  -1.1382498449764806e+00  -1.1363449914052397e+00  -1.1353571838270020e+00  -1.1350392582670703e+00  -1.1350816175620924e+00  -1.1352204870489520e+00  -1.1352886924145817e+00  4.0767941440714095e+00  8.2871827819927646e-01  1.8768366859924444e+00  2.0087382866752588e+00  1.7417824967022391e+00  -4.6621750067885032e-01  -2.9002383669695719e+00  -2.0511796583385529e+00  -1.9163931565152932e+00  -1.6886901588196290e+00  -1.4722419693516833e+00  -1.2821705726020318e+00  -1.1418565285206541e+00  -1.0674640355651970e+00  -1.0468553570507240e+00  -1.0588042061552490e+00  -1.0844325345330192e+00  -1.1102908010441541e+00  -1.1297757565959070e+00  -1.1414919661399068e+00  -1.1465159696597103e+00  -1.1468244908920562e+00  -1.1445548175010554e+00  -1.1414949032402490e+00  -1.1387824129210669e+00  -1.1368978866529227e+00  -1.1358613880377153e+00  -1.1354640431357