<?xml version="1.0"?>
<VTKFile type="UnstructuredGrid"  version="0.1"  >
<UnstructuredGrid>
<Piece  NumberOfPoints="882" NumberOfCells="3600">
<Points>
<DataArray  type="Float64"  NumberOfComponents="3"  format="ascii">0 0 0  0.5 0 0  1 0 0  1.5 0 0  2 0 0  2.5 0 0  3 0 0  3.5 0 0  4 0 0  4.5 0 0  5 0 0  5.5 0 0  6 0 0  6.5 0 0  7 0 0  7.5 0 0  8 0 0  8.5 0 0  9 0 0  9.5 0 0  10 0 0  0 0.5 0  0.5 0.5 0  1 0.5 0  1.5 0.5 0  2 0.5 0  2.5 0.5 0  3 0.5 0  3.5 0.5 0  4 0.5 0  4.5 0.5 0  5 0.5 0  5.5 0.5 0  6 0.5 0  6.5 0.5 0  7 0.5 0  7.5 0.5 0  8 0.5 0  8.5 0.5 0  9 0.5 0  9.5 0.5 0  10 0.5 0  0 1 0  0.5 1 0  1 1 0  1.5 1 0  2 1 0  2.5 1 0  3 1 0  3.5 1 0  4 1 0  4.5 1 0  5 1 0  5.5 1 0  6 1 0  6.5 1 0  7 1 0  7.5 1 0  8 1 0  8.5 1 0  9 1 0  9.5 1 0  10 1 0  0 1.5 0  0.5 1.5 0  1 1.5 0  1.5 1.5 0  2 1.5 0  2.5 1.5 0  3 1.5 0  3.5 1.5 0  4 1.5 0  4.5 1.5 0  5 1.5 0  5.5 1.5 0  6 1.5 0  6.5 1.5 0  7 1.5 0  7.5 1.5 0  8 1.5 0  8.5 1.5 0  9 1.5 0  9.5 1.5 0  10 1.5 0  0 2 0  0.5 2 0  1 2 0  1.5 2 0  2 2 0  2.5 2 0  3 2 0  3.5 2 0  4 2 0  4.5 2 0  5 2 0  5.5 2 0  6 2 0  6.5 2 0  7 2 0  7.5 2 0  8 2 0  8.5 2 0  9 2 0  9.5 2 0  10 2 0  0 2.5 0  0.5 2.5 0  1 2.5 0  1.5 2.5 0  2 2.5 0  2.5 2.5 0  3 2.5 0  3.5 2.5 0  4 2.5 0  4.5 2.5 0  5 2.5 0  5.5 2.5 0  6 2.5 0  6.5 2.5 0  7 2.5 0  7.5 2.5 0  8 2.5 0  8.5 2.5 0  9 2.5 0  9.5 2.5 0  10 2.5 0  0 3 0  0.5 3 0  1 3 0  1.5 3 0  2 3 0  2.5 3 0  3 3 0  3.5 3 0  4 3 0  4.5 3 0  5 3 0  5.5 3 0  6 3 0  6.5 3 0  7 3 0  7.5 3 0  8 3 0  8.5 3 0  9 3 0  9.5 3 0  10 3 0  0 0 0.1  0.5 0 0.1  1 0 0.1  1.5 0 0.1  2 0 0.1  2.5 0 0.1  3 0 0.1  3.5 0 0.1  4 0 0.1  4.5 0 0.1  5 0 0.1  5.5 0 0.1  6 0 0.1  6.5 0 0.1  7 0 0.1  7.5 0 0.1  8 0 0.1  8.5 0 0.1  9 0 0.1  9.5 0 0.1  10 0 0.1  0 0.5 0.1  0.5 0.5 0.1  1 0.5 0.1  1.5 0.5 0.1  2 0.5 0.1  2.5 0.5 0.1  3 0.5 0.1  3.5 0.5 0.1  4 0.5 0.1  4.5 0.5 0.1  5 0.5 0.1  5.5 0.5 0.1  6 0.5 0.1  6.5 0.5 0.1  7 0.5 0.1  7.5 0.5 0.1  8 0.5 0.1  8.5 0.5 0.1  9 0.5 0.1  9.5 0.5 0.1  10 0.5 0.1  0 1 0.1  0.5 1 0.1  1 1 0.1  1.5 1 0.1  2 1 0.1  2.5 1 0.1  3 1 0.1  3.5 1 0.1  4 1 0.1  4.5 1 0.1  5 1 0.1  5.5 1 0.1  6 1 0.1  6.5 1 0.1  7 1 0.1  7.5 1 0.1  8 1 0.1  8.5 1 0.1  9 1 0.1  9.5 1 0.1  10 1 0.1  0 1.5 0.1  0.5 1.5 0.1  1 1.5 0.1  1.5 1.5 0.1  2 1.5 0.1  2.5 1.5 0.1  3 1.5 0.1  3.5 1.5 0.1  4 1.5 0.1  4.5 1.5 0.1  5 1.5 0.1  5.5 1.5 0.1  6 1.5 0.1  6.5 1.5 0.1  7 1.5 0.1  7.5 1.5 0.1  8 1.5 0.1  8.5 1.5 0.1  9 1.5 0.1  9.5 1.5 0.1  10 1.5 0.1  0 2 0.1  0.5 2 0.1  1 2 0.1  1.5 2 0.1  2 2 0.1  2.5 2 0.1  3 2 0.1  3.5 2 0.1  4 2 0.1  4.5 2 0.1  5 2 0.1  5.5 2 0.1  6 2 0.1  6.5 2 0.1  7 2 0.1  7.5 2 0.1  8 2 0.1  8.5 2 0.1  9 2 0.1  9.5 2 0.1  10 2 0.1  0 2.5 0.1  0.5 2.5 0.1  1 2.5 0.1  1.5 2.5 0.1  2 2.5 0.1  2.5 2.5 0.1  3 2.5 0.1  3.5 2.5 0.1  4 2.5 0.1  4.5 2.5 0.1  5 2.5 0.1  5.5 2.5 0.1  6 2.5 0.1  6.5 2.5 0.1  7 2.5 0.1  7.5 2.5 0.1  8 2.5 0.1  8.5 2.5 0.1  9 2.5 0.1  9.5 2.5 0.1  10 2.5 0.1  0 3 0.1  0.5 3 0.1  1 3 0.1  1.5 3 0.1  2 3 0.1  2.5 3 0.1  3 3 0.1  3.5 3 0.1  4 3 0.1  4.5 3 0.1  5 3 0.1  5.5 3 0.1  6 3 0.1  6.5 3 0.1  7 3 0.1  7.5 3 0.1  8 3 0.1  8.5 3 0.1  9 3 0.1  9.5 3 0.1  10 3 0.1  0 0 0.2  0.5 0 0.2  1 0 0.2  1.5 0 0.2  2 0 0.2  2.5 0 0.2  3 0 0.2  3.5 0 0.2  4 0 0.2  4.5 0 0.2  5 0 0.2  5.5 0 0.2  6 0 0.2  6.5 0 0.2  7 0 0.2  7.5 0 0.2  8 0 0.2  8.5 0 0.2  9 0 0.2  9.5 0 0.2  10 0 0.2  0 0.5 0.2  0.5 0.5 0.2  1 0.5 0.2  1.5 0.5 0.2  2 0.5 0.2  2.5 0.5 0.2  3 0.5 0.2  3.5 0.5 0.2  4 0.5 0.2  4.5 0.5 0.2  5 0.5 0.2  5.5 0.5 0.2  6 0.5 0.2  6.5 0.5 0.2  7 0.5 0.2  7.5 0.5 0.2  8 0.5 0.2  8.5 0.5 0.2  9 0.5 0.2  9.5 0.5 0.2  10 0.5 0.2  0 1 0.2  0.5 1 0.2  1 1 0.2  1.5 1 0.2  2 1 0.2  2.5 1 0.2  3 1 0.2  3.5 1 0.2  4 1 0.2  4.5 1 0.2  5 1 0.2  5.5 1 0.2  6 1 0.2  6.5 1 0.2  7 1 0.2  7.5 1 0.2  8 1 0.2  8.5 1 0.2  9 1 0.2  9.5 1 0.2  10 1 0.2  0 1.5 0.2  0.5 1.5 0.2  1 1.5 0.2  1.5 1.5 0.2  2 1.5 0.2  2.5 1.5 0.2  3 1.5 0.2  3.5 1.5 0.2  4 1.5 0.2  4.5 1.5 0.2  5 1.5 0.2  5.5 1.5 0.2  6 1.5 0.2  6.5 1.5 0.2  7 1.5 0.2  7.5 1.5 0.2  8 1.5 0.2  8.5 1.5 0.2  9 1.5 0.2  9.5 1.5 0.2  10 1.5 0.2  0 2 0.2  0.5 2 0.2  1 2 0.2  1.5 2 0.2  2 2 0.2  2.5 2 0.2  3 2 0.2  3.5 2 0.2  4 2 0.2  4.5 2 0.2  5 2 0.2  5.5 2 0.2  6 2 0.2  6.5 2 0.2  7 2 0.2  7.5 2 0.2  8 2 0.2  8.5 2 0.2  9 2 0.2  9.5 2 0.2  10 2 0.2  0 2.5 0.2  0.5 2.5 0.2  1 2.5 0.2  1.5 2.5 0.2  2 2.5 0.2  2.5 2.5 0.2  3 2.5 0.2  3.5 2.5 0.2  4 2.5 0.2  4.5 2.5 0.2  5 2.5 0.2  5.5 2.5 0.2  6 2.5 0.2  6.5 2.5 0.2  7 2.5 0.2  7.5 2.5 0.2  8 2.5 0.2  8.5 2.5 0.2  9 2.5 0.2  9.5 2.5 0.2  10 2.5 0.2  0 3 0.2  0.5 3 0.2  1 3 0.2  1.5 3 0.2  2 3 0.2  2.5 3 0.2  3 3 0.2  3.5 3 0.2  4 3 0.2  4.5 3 0.2  5 3 0.2  5.5 3 0.2  6 3 0.2  6.5 3 0.2  7 3 0.2  7.5 3 0.2  8 3 0.2  8.5 3 0.2  9 3 0.2  9.5 3 0.2  10 3 0.2  0 0 0.3  0.5 0 0.3  1 0 0.3  1.5 0 0.3  2 0 0.3  2.5 0 0.3  3 0 0.3  3.5 0 0.3  4 0 0.3  4.5 0 0.3  5 0 0.3  5.5 0 0.3  6 0 0.3  6.5 0 0.3  7 0 0.3  7.5 0 0.3  8 0 0.3  8.5 0 0.3  9 0 0.3  9.5 0 0.3  10 0 0.3  0 0.5 0.3  0.5 0.5 0.3  1 0.5 0.3  1.5 0.5 0.3  2 0.5 0.3  2.5 0.5 0.3  3 0.5 0.3  3.5 0.5 0.3  4 0.5 0.3  4.5 0.5 0.3  5 0.5 0.3  5.5 0.5 0.3  6 0.5 0.3  6.5 0.5 0.3  7 0.5 0.3  7.5 0.5 0.3  8 0.5 0.3  8.5 0.5 0.3  9 0.5 0.3  9.5 0.5 0.3  10 0.5 0.3  0 1 0.3  0.5 1 0.3  1 1 0.3  1.5 1 0.3  2 1 0.3  2.5 1 0.3  3 1 0.3  3.5 1 0.3  4 1 0.3  4.5 1 0.3  5 1 0.3  5.5 1 0.3  6 1 0.3  6.5 1 0.3  7 1 0.3  7.5 1 0.3  8 1 0.3  8.5 1 0.3  9 1 0.3  9.5 1 0.3  10 1 0.3  0 1.5 0.3  0.5 1.5 0.3  1 1.5 0.3  1.5 1.5 0.3  2 1.5 0.3  2.5 1.5 0.3  3 1.5 0.3  3.5 1.5 0.3  4 1.5 0.3  4.5 1.5 0.3  5 1.5 0.3  5.5 1.5 0.3  6 1.5 0.3  6.5 1.5 0.3  7 1.5 0.3  7.5 1.5 0.3  8 1.5 0.3  8.5 1.5 0.3  9 1.5 0.3  9.5 1.5 0.3  10 1.5 0.3  0 2 0.3  0.5 2 0.3  1 2 0.3  1.5 2 0.3  2 2 0.3  2.5 2 0.3  3 2 0.3  3.5 2 0.3  4 2 0.3  4.5 2 0.3  5 2 0.3  5.5 2 0.3  6 2 0.3  6.5 2 0.3  7 2 0.3  7.5 2 0.3  8 2 0.3  8.5 2 0.3  9 2 0.3  9.5 2 0.3  10 2 0.3  0 2.5 0.3  0.5 2.5 0.3  1 2.5 0.3  1.5 2.5 0.3  2 2.5 0.3  2.5 2.5 0.3  3 2.5 0.3  3.5 2.5 0.3  4 2.5 0.3  4.5 2.5 0.3  5 2.5 0.3  5.5 2.5 0.3  6 2.5 0.3  6.5 2.5 0.3  7 2.5 0.3  7.5 2.5 0.3  8 2.5 0.3  8.5 2.5 0.3  9 2.5 0.3  9.5 2.5 0.3  10 2.5 0.3  0 3 0.3  0.5 3 0.3  1 3 0.3  1.5 3 0.3  2 3 0.3  2.5 3 0.3  3 3 0.3  3.5 3 0.3  4 3 0.3  4.5 3 0.3  5 3 0.3  5.5 3 0.3  6 3 0.3  6.5 3 0.3  7 3 0.3  7.5 3 0.3  8 3 0.3  8.5 3 0.3  9 3 0.3  9.5 3 0.3  10 3 0.3  0 0 0.4  0.5 0 0.4  1 0 0.4  1.5 0 0.4  2 0 0.4  2.5 0 0.4  3 0 0.4  3.5 0 0.4  4 0 0.4  4.5 0 0.4  5 0 0.4  5.5 0 0.4  6 0 0.4  6.5 0 0.4  7 0 0.4  7.5 0 0.4  8 0 0.4  8.5 0 0.4  9 0 0.4  9.5 0 0.4  10 0 0.4  0 0.5 0.4  0.5 0.5 0.4  1 0.5 0.4  1.5 0.5 0.4  2 0.5 0.4  2.5 0.5 0.4  3 0.5 0.4  3.5 0.5 0.4  4 0.5 0.4  4.5 0.5 0.4  5 0.5 0.4  5.5 0.5 0.4  6 0.5 0.4  6.5 0.5 0.4  7 0.5 0.4  7.5 0.5 0.4  8 0.5 0.4  8.5 0.5 0.4  9 0.5 0.4  9.5 0.5 0.4  10 0.5 0.4  0 1 0.4  0.5 1 0.4  1 1 0.4  1.5 1 0.4  2 1 0.4  2.5 1 0.4  3 1 0.4  3.5 1 0.4  4 1 0.4  4.5 1 0.4  5 1 0.4  5.5 1 0.4  6 1 0.4  6.5 1 0.4  7 1 0.4  7.5 1 0.4  8 1 0.4  8.5 1 0.4  9 1 0.4  9.5 1 0.4  10 1 0.4  0 1.5 0.4  0.5 1.5 0.4  1 1.5 0.4  1.5 1.5 0.4  2 1.5 0.4  2.5 1.5 0.4  3 1.5 0.4  3.5 1.5 0.4  4 1.5 0.4  4.5 1.5 0.4  5 1.5 0.4  5.5 1.5 0.4  6 1.5 0.4  6.5 1.5 0.4  7 1.5 0.4  7.5 1.5 0.4  8 1.5 0.4  8.5 1.5 0.4  9 1.5 0.4  9.5 1.5 0.4  10 1.5 0.4  0 2 0.4  0.5 2 0.4  1 2 0.4  1.5 2 0.4  2 2 0.4  2.5 2 0.4  3 2 0.4  3.5 2 0.4  4 2 0.4  4.5 2 0.4  5 2 0.4  5.5 2 0.4  6 2 0.4  6.5 2 0.4  7 2 0.4  7.5 2 0.4  8 2 0.4  8.5 2 0.4  9 2 0.4  9.5 2 0.4  10 2 0.4  0 2.5 0.4  0.5 2.5 0.4  1 2.5 0.4  1.5 2.5 0.4  2 2.5 0.4  2.5 2.5 0.4  3 2.5 0.4  3.5 2.5 0.4  4 2.5 0.4  4.5 2.5 0.4  5 2.5 0.4  5.5 2.5 0.4  6 2.5 0.4  6.5 2.5 0.4  7 2.5 0.4  7.5 2.5 0.4  8 2.5 0.4  8.5 2.5 0.4  9 2.5 0.4  9.5 2.5 0.4  10 2.5 0.4  0 3 0.4  0.5 3 0.4  1 3 0.4  1.5 3 0.4  2 3 0.4  2.5 3 0.4  3 3 0.4  3.5 3 0.4  4 3 0.4  4.5 3 0.4  5 3 0.4  5.5 3 0.4  6 3 0.4  6.5 3 0.4  7 3 0.4  7.5 3 0.4  8 3 0.4  8.5 3 0.4  9 3 0.4  9.5 3 0.4  10 3 0.4  0 0 0.5  0.5 0 0.5  1 0 0.5  1.5 0 0.5  2 0 0.5  2.5 0 0.5  3 0 0.5  3.5 0 0.5  4 0 0.5  4.5 0 0.5  5 0 0.5  5.5 0 0.5  6 0 0.5  6.5 0 0.5  7 0 0.5  7.5 0 0.5  8 0 0.5  8.5 0 0.5  9 0 0.5  9.5 0 0.5  10 0 0.5  0 0.5 0.5  0.5 0.5 0.5  1 0.5 0.5  1.5 0.5 0.5  2 0.5 0.5  2.5 0.5 0.5  3 0.5 0.5  3.5 0.5 0.5  4 0.5 0.5  4.5 0.5 0.5  5 0.5 0.5  5.5 0.5 0.5  6 0.5 0.5  6.5 0.5 0.5  7 0.5 0.5  7.5 0.5 0.5  8 0.5 0.5  8.5 0.5 0.5  9 0.5 0.5  9.5 0.5 0.5  10 0.5 0.5  0 1 0.5  0.5 1 0.5  1 1 0.5  1.5 1 0.5  2 1 0.5  2.5 1 0.5  3 1 0.5  3.5 1 0.5  4 1 0.5  4.5 1 0.5  5 1 0.5  5.5 1 0.5  6 1 0.5  6.5 1 0.5  7 1 0.5  7.5 1 0.5  8 1 0.5  8.5 1 0.5  9 1 0.5  9.5 1 0.5  10 1 0.5  0 1.5 0.5  0.5 1.5 0.5  1 1.5 0.5  1.5 1.5 0.5  2 1.5 0.5  2.5 1.5 0.5  3 1.5 0.5  3.5 1.5 0.5  4 1.5 0.5  4.5 1.5 0.5  5 1.5 0.5  5.5 1.5 0.5  6 1.5 0.5  6.5 1.5 0.5  7 1.5 0.5  7.5 1.5 0.5  8 1.5 0.5  8.5 1.5 0.5  9 1.5 0.5  9.5 1.5 0.5  10 1.5 0.5  0 2 0.5  0.5 2 0.5  1 2 0.5  1.5 2 0.5  2 2 0.5  2.5 2 0.5  3 2 0.5  3.5 2 0.5  4 2 0.5  4.5 2 0.5  5 2 0.5  5.5 2 0.5  6 2 0.5  6.5 2 0.5  7 2 0.5  7.5 2 0.5  8 2 0.5  8.5 2 0.5  9 2 0.5  9.5 2 0.5  10 2 0.5  0 2.5 0.5  0.5 2.5 0.5  1 2.5 0.5  1.5 2.5 0.5  2 2.5 0.5  2.5 2.5 0.5  3 2.5 0.5  3.5 2.5 0.5  4 2.5 0.5  4.5 2.5 0.5  5 2.5 0.5  5.5 2.5 0.5  6 2.5 0.5  6.5 2.5 0.5  7 2.5 0.5  7.5 2.5 0.5  8 2.5 0.5  8.5 2.5 0.5  9 2.5 0.5  9.5 2.5 0.5  10 2.5 0.5  0 3 0.5  0.5 3 0.5  1 3 0.5  1.5 3 0.5  2 3 0.5  2.5 3 0.5  3 3 0.5  3.5 3 0.5  4 3 0.5  4.5 3 0.5  5 3 0.5  5.5 3 0.5  6 3 0.5  6.5 3 0.5  7 3 0.5  7.5 3 0.5  8 3 0.5  8.5 3 0.5  9 3 0.5  9.5 3 0.5  10 3 0.5  </DataArray>
</Points>
<Cells>
[...]
<PointData  Scalars="f_7-1"> 
<DataArray  type="Float64"  Name="f_7-1"  format="ascii">5.6937047172982442e+00  4.1456728993126832e+00  4.0088723163776905e+00  4.4876644300595734e+00  5.2034803956387385e+00  5.4471290254164657e+00  5.4429932544184032e+00  5.4073517323550293e+00  5.3933543324336872e+00  5.3936891006902439e+00  5.3970782056359319e+00  5.3993737352232793e+00  5.4003831991705891e+00  5.4007677667864664e+00  5.4009537323046022e+00  5.4010839911560966e+00  5.4011816368193726e+00  5.4012478164183690e+00  5.4012874854155868e+00  5.4013078067223104e+00  5.4013132461157607e+00  3.4508565617554474e+00  4.6953623433230067e+00  4.6651571832953733e+00  5.0101497116497420e+00  5.3400699785689349e+00  5.4068844980229676e+00  5.4005026768274202e+00  5.3956082758357296e+00  5.3961379903781532e+00  5.3979785827159565e+00  5.3994566188191229e+00  5.4002998933257800e+00  5.4007243364523871e+00  5.4009535181023756e+00  5.4010970436431354e+00  5.4011933266858456e+00  5.4012567822931077e+00  5.4012965476617971e+00  5.4013199583148079e+00  5.4013318925654161e+00  5.4013355166469452e+00  3.1661186413780804e+00  3.8799544191128219e+00  5.6909522223123616e+00  5.5966585758434890e+00  5.4382702505113629e+00  5.3514123160729943e+00  5.3669891928526825e+00  5.3908365241808314e+00  5.4006961427365505e+00  5.4019134594844003e+00  5.4013055203923059e+00  5.4009595631136813e+00  5.4009844076859945e+00  5.4011225021702227e+00  5.4012325638402343e+00  5.4012932304404409e+00  5.4013230781650678e+00  5.4013387822136654e+00  5.4013480043215303e+00  5.4013528931983803e+00  5.4013547476686865e+00  2.8102285695680136e+00  3.1292427496638608e+00  6.4829129476222995e+00  5.7938168140110022e+00  5.4123090128126234e+00  5.3340620430707650e+00  5.3593553888457457e+00  5.3930641197677138e+00  5.4041156100866603e+00  5.4041814998053121e+00  5.4024211509809996e+00  5.4014724806163494e+00  5.4012677621965741e+00  5.4013134347294267e+00  5.4013660411607249e+00  5.4013824947191020e+00  5.4013805175150740e+00  5.4013757912664868e+00  5.4013731366823787e+00  5.4013719868938779e+00  5.4013720396846097e+00  1.6053148773629944e+00  4.0442210008350790e+00  5.9488474520131582e+00  5.6371496756707833e+00  5.3869759423167096e+00  5.3612887700113641e+00  5.3848199422624159e+00  5.4007116120019854e+00  5.4051769880104645e+00  5.4044083199276498e+00  5.4028462225546967e+00  5.4019669972637212e+00  5.4016542251313915e+00  5.4015583510898182e+00  5.4015090419269152e+00  5.4014672341818875e+00  5.4014338621911717e+00  5.4014113672463990e+00  5.4013981726157745e+00  5.4013913077068336e+00  5.4013893731498150e+00  3.0921696772931329e+00  4.9489206401528216e+00  4.7747785567980250e+00  5.0160948943544090e+00  5.3534505992374317e+00  5.4294790808941951e+00  5.4291651618582071e+00  5.4132647503069302e+00  5.4058141637375057e+00  5.4034970058365008e+00  5.4028167616129599e+00  5.4024565546142753e+00  5.4021310427512459e+00  5.4018608687155387e+00  5.4016737350571704e+00  5.4015582447653507e+00  5.4014898557021169e+00  5.4014492442113289e+00  5.4014253000084649e+00  5.4014124522261850e+00  5.4014082575859348e+00  7.0460028718036813e+00  4.3307106942143507e+00  3.7861539314357078e+00  4.4369216157630982e+00  5.2604465857283920e+00  5.5052650669901553e+00  5.4757645593910063e+00  5.4328142087304814e+00  5.4098350177579642e+00  5.4030739867163975e+00  5.4025845998815543e+00  5.4028410471647543e+00  5.4026296831137310e+00  5.4022175773694396e+00  5.4018790357289461e+00  5.4016715859104494e+00  5.4015573094247493e+00  5.4014937627775943e+00  5.4014571353643133e+00  5.4014374364230031e+00  5.4014308694430975e+00  7.4273327100705702e+00  3.9437781106837382e+00  4.0564730352242329e+00  4.4390971754598070e+00  5.2089433711449153e+00  5.4487607110734766e+00  5.4451194496578150e+00  5.4076437733489424e+00  5.3933208299633062e+00  5.3935832620100506e+00  5.3970212577842425e+00  5.3993575353459660e+00  5.4003808568831131e+00  5.4007673308656132e+00  5.4009526351863997e+00  5.4010827204458494e+00  5.4011807078960423e+00  5.4012472998134582e+00  5.4012872767375981e+00  5.4013077418893447e+00  5.4013135094003610e+00  4.0909342556506720e+00  4.6493809871831449e+00  4.7046815817201875e+00  4.9889444894253003e+00  5.3542887685253726e+00  5.4212562871503991e+00  5.3978813785953106e+00  5.3942121669316050e+00  5.3956982634480921e+00  5.3979661749802377e+00  5.3995467196458842e+00  5.4003562547498323e+00  5.4007445459465995e+00  5.4009583862721344e+00  5.4010986646281181e+00  5.4011950112065250e+00  5.4012584577828910e+00  5.4012978551028974e+00  5.4013208368058514e+00  5.4013325573479047e+00  5.4013360048551746e+00  3.9873650089901016e+00  3.6014873749366236e+00  5.9323264191255412e+00  5.5567363235157545e+00  5.4669199461364331e+00  5.3412773808574805e+00  5.3599216082941252e+00  5.3913752467157057e+00  5.4012995133147177e+00  5.4022070841198850e+00  5.4013488459192764e+00  5.4009309673198400e+00  5.4009605063271220e+00  5.4011138705037975e+00  5.4012317459582606e+00  5.4012940693207891e+00  5.4013235596494695e+00  5.4013388759161787e+00  5.4013479585444593e+00  5.4013529660434250e+00  5.4013545640665539e+00  3.6914266501246815e+00  2.5752427004782725e+00  6.9440521697838511e+00  5.7604584614040633e+00  5.4144286338167928e+00  5.3131209314204728e+00  5.3582904382523768e+00  5.3941945360316303e+00  5.4047333874378340e+00  5.4043398256833184e+00  5.4023832349014747e+00  5.4014172015767556e+00  5.4012398336329994e+00  5.4013055882360161e+00  5.4013650200400445e+00  5.4013822763860722e+00  5.4013799957948283e+00  5.4013752254522851e+00  5.4013726930365911e+00  5.4013717669387997e+00  5.4013717269770503e+00  1.7345122501751404e+00  3.8741623917665615e+00  6.2466909397622610e+00  5.6399586041728753e+00  5.3479880264238524e+00  5.3595074718883922e+00  5.3851023249780479e+00  5.4009905666867537e+00  5.4053614285604992e+00  5.4044458236509421e+00  5.4028087128091888e+00  5.4019247615980746e+00  5.4016324610945556e+00  5.4015500068127986e+00  5.4015056031226862e+00  5.4014651916183283e+00  5.4014323671494875e+00  5.4014102883755770e+00  5.4013973981490375e+00  5.4013908117191951e+00  5.4013888706701261e+00  3.4037411451973432e+00  5.0715219918795382e+00  4.8853513376779620e+00  4.9433105944170022e+00  5.3560045040736304e+00  5.4381019555651653e+00  5.4301500555768429e+00  5.4124718034857100e+00  5.4053901225109939e+00  5.4033730824507913e+00  5.4027785167214093e+00  5.4024475385540516e+00  5.4021254526492406e+00  5.4018540279424583e+00  5.4016678381031991e+00  5.4015543312951211e+00  5.4014875351976190e+00  5.4014478557400425e+00  5.4014243877093406e+00  5.4014118114251808e+00  5.4014076548660679e+00  9.9258062089566312e+00  4.1786766225056784e+00  3.7389193066149073e+00  4.2765020962000930e+00  5.3535035114854574e+00  5.5243004253295007e+00  5.4741669331373952e+00  5.4316781350759502e+00  5.4089228813843144e+00  5.4026041885361131e+00  5.4025288110331102e+00  5.4028846739028547e+00  5.4026513988943039e+00  5.4022166557646285e+00  5.4018722817011566e+00  5.4016665108059456e+00  5.4015546784217721e+00  5.4014924986891426e+00  5.4014564044419249e+00  5.4014368496606595e+00  5.4014302549705384e+00  7.5683177413887686e+00  3.8808465245314023e+00  4.0578294159685742e+00  4.4303256632344929e+00  5.2213963968342592e+00  5.4535289565319944e+00  5.4458497376327664e+00  5.4069870571105998e+00  5.3930098654356904e+00  5.3935159411526588e+00  5.3970442854226910e+00  5.3993847650978992e+00  5.4003930589517930e+00  5.4007705881425370e+00  5.4009531703986813e+00  5.4010830262021061e+00  5.4011811435363954e+00  5.4012476966042815e+00  5.4012875594929515e+00  5.4013079149324490e+00  5.4013136229137588e+00  3.9922152442419052e+00  4.8228014301968498e+00  4.6794500669896317e+00  4.9765400057089133e+00  5.3765883565074892e+00  5.4213349673380842e+00  5.3957531069525482e+00  5.3935633106389833e+00  5.3956254031921578e+00  5.3980127864148830e+00  5.3996043162622804e+00  5.4003793269716125e+00  5.4007497747974424e+00  5.4009590463212973e+00  5.4010993170639310e+00  5.4011960560135117e+00  5.4012594211613374e+00  5.4012985325215368e+00  5.4013212894224365e+00  5.4013328545482358e+00  5.4013363108268804e+00  3.9422835795331559e+00  3.6031160435690546e+00  5.9809684390264684e+00  5.5578030372223814e+00  5.4806153955389805e+00  5.3299029883448936e+00  5.3579472106300594e+00  5.3922263798616648e+00  5.4014375440618165e+00  5.4022833032263549e+00  5.4013383224069651e+00  5.4009063982788721e+00  5.4009471307338339e+00  5.4011092956640772e+00  5.4012307840560672e+00  5.4012938563591550e+00  5.4013233476004032e+00  5.4013386628362525e+00  5.4013478262089762e+00  5.4013528719751287e+00  5.4013545196944719e+00  3.6465069720215433e+00  2.4294058014167175e+00  7.1562496240825872e+00  5.7046120563030849e+00  5.4198994610624966e+00  5.3031828159570562e+00  5.3605058684617779e+00  5.3944802026264167e+00  5.4046033890783969e+00  5.4043389224878187e+00  5.4023435182306994e+00  5.4013952679510435e+00  5.4012300459019844e+00  5.4013018453424815e+00  5.4013633149920244e+00  5.4013811992444198e+00  5.4013792699933907e+00  5.4013747649058450e+00  5.4013724225748003e+00  5.4013715586131426e+00  5.4013716029240646e+00  1.5851555756004727e+00  3.9331631181565436e+00  6.3566257988711961e+00  5.6015081958197763e+00  5.3525821618273062e+00  5.3588715593593594e+00  5.3864399438089867e+00  5.4000626582104303e+00  5.4053066250391568e+00  5.4044433390641284e+00  5.4027920160810643e+00  5.4019113668531880e+00  5.4016228818769036e+00  5.4015442276471477e+00  5.4015022954166341e+00  5.4014633491066188e+00  5.4014313097122333e+00  5.4014096423861755e+00  5.4013969810803966e+00  5.4013905068432191e+00  5.4013885793049656e+00  3.4499330161534685e+00  5.2984704182318891e+00  4.8619043907953952e+00  4.9009020683579951e+00  5.3801429168404002e+00  5.4442252694456785e+00  5.4282446082386242e+00  5.4118535735830733e+00  5.4051341548006606e+00  5.4032737248516858e+00  5.4027671012793963e+00  5.4024529665502490e+00  5.4021242115434065e+00  5.4018491968140747e+00  5.4016636429687521e+00  5.4015517994344444e+00  5.4014861718632972e+00  5.4014470829671959e+00  5.4014238750026955e+00  5.4014114197085830e+00  5.4014072197778384e+00  9.8865517547198003e+00  4.1762040558811648e+00  3.6031761874809800e+00  4.2891195968530065e+00  5.4189228065813531e+00  5.5063519932842011e+00  5.4730286576908425e+00  5.4316763437822546e+00  5.4087558727939875e+00  5.4026039552302931e+00  5.4025793677213754e+00  5.4029032152923886e+00  5.4026506480636263e+00  5.4022131165905654e+00  5.4018704130287647e+00  5.4016659534443177e+00  5.4015545868415025e+00  5.4014924807440154e+00  5.4014563778093603e+00  5.4014368273510573e+00  5.4014302919198087e+00  7.3067546284532767e+00  3.8911021377409067e+00  4.0691675874979234e+00  4.4256123934053306e+00  5.2231146256411156e+00  5.4530770737575667e+00  5.4454279118043161e+00  5.4069338894777754e+00  5.3930419663199238e+00  5.3935392782328764e+00  5.3970544635327515e+00  5.3993868298687264e+00  5.4003928494786750e+00  5.4007704414757134e+00  5.4009532939287901e+00  5.4010832178908812e+00  5.4011812803627475e+00  5.4012477743898364e+00  5.4012876175983271e+00  5.4013079240138406e+00  5.4013136491085980e+00  3.8083180015161826e+00  4.9065279289257386e+00  4.6638990982912034e+00  4.9752456404217638e+00  5.3793749962034338e+00  5.4171867619161107e+00  5.3952840454310618e+00  5.3936497396643475e+00  5.3957253995788967e+00  5.3980352045360132e+00  5.3995985423512032e+00  5.4003663903156021e+00  5.4007421593426468e+00  5.4009559353982368e+00  5.4010981955601975e+00  5.4011955442724329e+00  5.4012590703885675e+00  5.4012982776612075e+00  5.4013211206912466e+00  5.4013327210224364e+00  5.4013362467864496e+00  3.7536119776119712e+00  3.6589618566516346e+00  5.9447797318645614e+00  5.5579848490980632e+00  5.4804911902350177e+00  5.3254956635155786e+00  5.3593526614176721e+00  5.3921647776532557e+00  5.4013007115795473e+00  5.4022406116759303e+00  5.4013102835480504e+00  5.4008918203766383e+00  5.4009406450038933e+00  5.4011057640214428e+00  5.4012286672326493e+00  5.4012925372408773e+00  5.4013225457984113e+00  5.4013381903662676e+00  5.4013475396793433e+00  5.4013526646333849e+00  5.4013543638371484e+00  3.4680872481541125e+00  2.4927008904692958e+00  7.1592820204091341e+00  5.6879925949742614e+00  5.4221324539271221e+00  5.3015231913542964e+00  5.3621966535773371e+00  5.3937050134714983e+00  5.4044343264557249e+00  5.4043232245725576e+00  5.4023178952306274e+00  5.4013868100124327e+00  5.4012237933778904e+00  5.4012974941157559e+00  5.4013606142654798e+00  5.4013796782994508e+00  5.4013784522475055e+00  5.4013743127439797e+00  5.4013721485302852e+00  5.4013713638573515e+00  5.4013714456300699e+00  1.5867225426239555e+00  4.0013777618970572e+00  6.3349032632042501e+00  5.5845362770810771e+00  5.3640085249048814e+00  5.3562353034976047e+00  5.3868446004928936e+00  5.3992097309128368e+00  5.4054429016632719e+00  5.4044234190631419e+00  5.4027712441330769e+00  5.4019018699714048e+00  5.4016153281396582e+00  5.4015400023883355e+00  5.4015000242038553e+00  5.4014621528974658e+00  5.4014306360909758e+00  5.4014092343478977e+00  5.4013967132285430e+00  5.4013903262854255e+00  5.4013884105996643e+00  3.3831686559451555e+00  5.3048222264554346e+00  4.8304913967145584e+00  4.8998322683890159e+00  5.3885296905494702e+00  5.4392979422486674e+00  5.4278156125499093e+00  5.4120380921841909e+00  5.4052788928489370e+00  5.4032296205137040e+00  5.4027596373948121e+00  5.4024473636955568e+00  5.4021209134120394e+00  5.4018481107756013e+00  5.4016632621550595e+00  5.4015516036221944e+00  5.4014860218939162e+00  5.4014469747833980e+00  5.4014237979137034e+00  5.4014113748782151e+00  5.4014071507704768e+00  9.7282986640568208e+00  4.2525754853312892e+00  3.5559149213857624e+00  4.3147696795069939e+00  5.4227946419421089e+00  5.4936956808093296e+00  5.4766341531138423e+00  5.4317873574135778e+00  5.4087539697214488e+00  5.4026270959146911e+00  5.4025927848238462e+00  5.4028969553377983e+00  5.4026490073261693e+00  5.4022137127205809e+00  5.4018712928685675e+00  5.4016664799670719e+00  5.4015548243613232e+00  5.4014925886825313e+00  5.4014564401349263e+00  5.4014368730336457e+00  5.4014303412540512e+00  6.5395316442463374e+00  4.2078268751040477e+00  3.9905568712357611e+00  4.4528434696123327e+00  5.2125837155511370e+00  5.4512429149933643e+00  5.4448714107081537e+00  5.4070699288881334e+00  5.3931357914197520e+00  5.3936045068658443e+00  5.3970670208900939e+00  5.3993859432397047e+00  5.4003915252643564e+00  5.4007706431412537e+00  5.4009541651004538e+00  5.4010839466864002e+00  5.4011817028229414e+00  5.4012480009979571e+00  5.4012877256066476e+00  5.4013079491515068e+00  5.4013136961227399e+00  3.6461645480699687e+00  4.9193292594279709e+00  4.6063458604364156e+00  4.9945763998834609e+00  5.3638917932304073e+00  5.4146129884071614e+00  5.3962923990148477e+00  5.3939312994325226e+00  5.3958236083582367e+00  5.3980017721895468e+00  5.3995450335665476e+00  5.4003368119167767e+00  5.4007298265417214e+00  5.4009511788145730e+00  5.4010956737392082e+00  5.4011937110954955e+00  5.4012577211207651e+00  5.4012973638518824e+00  5.4013204985659380e+00  5.4013322797825891e+00  5.4013359421106841e+00  3.4494731223027650e+00  3.8228650061067366e+00  5.7875088302981235e+00  5.5705429831305020e+00  5.4654434983452500e+00  5.3333181038661186e+00  5.3603233074691454e+00  5.3914022437965876e+00  5.4010205173988712e+00  5.4020936617666644e+00  5.4012837267591616e+00  5.4008911568047431e+00  5.4009404113272685e+00  5.4011028983183387e+00  5.4012255383989949e+00  5.4012904430078317e+00  5.4013214137130889e+00  5.4013376064592054e+00  5.4013471800732828e+00  5.4013524029761095e+00  5.4013541731492278e+00  3.2370273804019658e+00  2.7796534537346198e+00  6.9166580513828455e+00  5.7303159691807393e+00  5.4157229775545517e+00  5.3097311000675100e+00  5.3608402057275528e+00  5.3932747983044553e+00  5.4042087599594026e+00  5.4042141301755215e+00  5.4022985058712063e+00  5.4013850297162627e+00  5.4012219600178009e+00  5.4012938136318756e+00  5.4013575832034526e+00  5.4013778793120117e+00  5.4013775384250939e+00  5.4013738565048586e+00  5.4013718785994982e+00  5.4013711847718229e+00  5.4013712830950071e+00  1.8734723081994300e+00  4.0468350629310335e+00  6.1798318248671729e+00  5.6070964514053472e+00  5.3640032247997178e+00  5.3567018004461904e+00  5.3864162140269025e+00  5.3994567750476081e+00  5.4053370507812843e+00  5.4043457407617526e+00  5.4027434650898636e+00  5.4019001173685002e+00  5.4016153886901082e+00  5.4015395047246777e+00  5.4014993830495719e+00  5.4014616606216208e+00  5.4014303931275549e+00  5.4014091483590843e+00  5.4013966929648838e+00  5.4013903225267539e+00  5.4013883975609049e+00  3.2447889613093830e+00  5.2131034984081879e+00  4.7982051763981044e+00  4.9424848900719534e+00  5.3629236947541123e+00  5.4363803764984793e+00  5.4286332760327705e+00  5.4125652794745402e+00  5.4054808665754788e+00  5.4032651742927653e+00  5.4027503320472254e+00  5.4024396381467099e+00  5.4021189903329025e+00  5.4018507026655964e+00  5.4016657565509831e+00  5.4015530833263758e+00  5.4014868126573070e+00  5.4014474361280493e+00  5.4014241336962030e+00  5.4014116755869317e+00  5.4014073868739736e+00  8.4830333417045267e+00  4.4328727935855232e+00  3.5208820868290251e+00  4.3394502036631319e+00  5.3884990338294836e+00  5.4981334843780409e+00  5.4778729873497776e+00  5.4313015639454063e+00  5.4088663904214807e+00  5.4026652676859603e+00  5.4026006991389099e+00  5.4028887480215344e+00  5.4026467521701464e+00  5.4022138749799575e+00  5.4018716690438211e+00  5.4016667427589518e+00  5.4015549367651881e+00  5.4014926363596549e+00  5.4014564866220551e+00  5.4014369371614732e+00  5.4014304155272432e+00  8.7612187984687271e+00  3.6824768624809834e+00  4.0989028164537968e+00  4.4317749850188806e+00  5.1898317727323837e+00  5.4410770226281286e+00  5.4442219296237431e+00  5.4078936550896106e+00  5.3938828493910833e+00  5.3937332631050543e+00  5.3970060531791209e+00  5.3993239959982917e+00  5.4003622158469238e+00  5.4007619887619791e+00  5.4009519285964886e+00  5.4010825599706154e+00  5.4011802879803126e+00  5.4012468049331046e+00  5.4012868340603895e+00  5.4013072876821875e+00  5.4013133300186613e+00  5.8831879984989159e+00  3.7038452370092112e+00  4.8136265774140661e+00  4.9890349926679383e+00  5.3537443797345095e+00  5.4142490919589541e+00  5.3937990516096770e+00  5.3940517595756932e+00  5.3960041583965488e+00  5.3980222758313836e+00  5.3995180628589603e+00  5.4003034652261910e+00  5.4007097809906659e+00  5.4009415553205411e+00  5.4010909135288054e+00  5.4011909349394545e+00  5.4012558514439517e+00  5.4012960587843386e+00  5.4013195534854264e+00  5.4013316534973059e+00  5.4013351230220072e+00  6.3051308463264899e+00  3.0225128667551484e+00  5.9366800313833190e+00  5.4756193215741460e+00  5.4736945490167859e+00  5.3314674700990246e+00  5.3588243784782641e+00  5.3920402690880609e+00  5.4009178008528860e+00  5.4020382452710320e+00  5.4012290920414214e+00  5.4008583089369777e+00  5.4009245572768618e+00  5.4010945359957629e+00  5.4012207520772213e+00  5.4012874079988347e+00  5.4013194277322949e+00  5.4013363217524022e+00  5.4013463185845465e+00  5.4013518640271396e+00  5.4013535290043526e+00  5.7402654197363390e+00  2.1010587350048797e+00  6.8841084719473322e+00  5.6857921882136502e+00  5.4346907117688188e+00  5.3032336917218741e+00  5.3671232202405088e+00  5.3930215643921269e+00  5.4036852747461639e+00  5.4039385129356470e+00  5.4022099270689008e+00  5.4013858095647178e+00  5.4012291717065191e+00  5.4012949137773161e+00  5.4013554438498632e+00  5.4013756267940627e+00  5.4013762086512642e+00  5.4013732311080798e+00  5.4013715577810153e+00  5.4013710499102272e+00  5.4013709898345184e+00  4.1179215026720888e+00  3.2414049081645477e+00  6.3109877679725939e+00  5.5036742116948760e+00  5.3595024703141512e+00  5.3612188056332757e+00  5.3905977698853986e+00  5.3987443086436731e+00  5.4053440668898700e+00  5.4041029692843372e+00  5.402690843088084