<?xml version="1.0"?>
<VTKFile type="UnstructuredGrid"  version="0.1"  >
<UnstructuredGrid>
<Piece  NumberOfPoints="882" NumberOfCells="3600">
<Points>
<DataArray  type="Float64"  NumberOfComponents="3"  format="ascii">0 0 0  0.5 0 0  1 0 0  1.5 0 0  2 0 0  2.5 0 0  3 0 0  3.5 0 0  4 0 0  4.5 0 0  5 0 0  5.5 0 0  6 0 0  6.5 0 0  7 0 0  7.5 0 0  8 0 0  8.5 0 0  9 0 0  9.5 0 0  10 0 0  0 0.5 0  0.5 0.5 0  1 0.5 0  1.5 0.5 0  2 0.5 0  2.5 0.5 0  3 0.5 0  3.5 0.5 0  4 0.5 0  4.5 0.5 0  5 0.5 0  5.5 0.5 0  6 0.5 0  6.5 0.5 0  7 0.5 0  7.5 0.5 0  8 0.5 0  8.5 0.5 0  9 0.5 0  9.5 0.5 0  10 0.5 0  0 1 0  0.5 1 0  1 1 0  1.5 1 0  2 1 0  2.5 1 0  3 1 0  3.5 1 0  4 1 0  4.5 1 0  5 1 0  5.5 1 0  6 1 0  6.5 1 0  7 1 0  7.5 1 0  8 1 0  8.5 1 0  9 1 0  9.5 1 0  10 1 0  0 1.5 0  0.5 1.5 0  1 1.5 0  1.5 1.5 0  2 1.5 0  2.5 1.5 0  3 1.5 0  3.5 1.5 0  4 1.5 0  4.5 1.5 0  5 1.5 0  5.5 1.5 0  6 1.5 0  6.5 1.5 0  7 1.5 0  7.5 1.5 0  8 1.5 0  8.5 1.5 0  9 1.5 0  9.5 1.5 0  10 1.5 0  0 2 0  0.5 2 0  1 2 0  1.5 2 0  2 2 0  2.5 2 0  3 2 0  3.5 2 0  4 2 0  4.5 2 0  5 2 0  5.5 2 0  6 2 0  6.5 2 0  7 2 0  7.5 2 0  8 2 0  8.5 2 0  9 2 0  9.5 2 0  10 2 0  0 2.5 0  0.5 2.5 0  1 2.5 0  1.5 2.5 0  2 2.5 0  2.5 2.5 0  3 2.5 0  3.5 2.5 0  4 2.5 0  4.5 2.5 0  5 2.5 0  5.5 2.5 0  6 2.5 0  6.5 2.5 0  7 2.5 0  7.5 2.5 0  8 2.5 0  8.5 2.5 0  9 2.5 0  9.5 2.5 0  10 2.5 0  0 3 0  0.5 3 0  1 3 0  1.5 3 0  2 3 0  2.5 3 0  3 3 0  3.5 3 0  4 3 0  4.5 3 0  5 3 0  5.5 3 0  6 3 0  6.5 3 0  7 3 0  7.5 3 0  8 3 0  8.5 3 0  9 3 0  9.5 3 0  10 3 0  0 0 0.1  0.5 0 0.1  1 0 0.1  1.5 0 0.1  2 0 0.1  2.5 0 0.1  3 0 0.1  3.5 0 0.1  4 0 0.1  4.5 0 0.1  5 0 0.1  5.5 0 0.1  6 0 0.1  6.5 0 0.1  7 0 0.1  7.5 0 0.1  8 0 0.1  8.5 0 0.1  9 0 0.1  9.5 0 0.1  10 0 0.1  0 0.5 0.1  0.5 0.5 0.1  1 0.5 0.1  1.5 0.5 0.1  2 0.5 0.1  2.5 0.5 0.1  3 0.5 0.1  3.5 0.5 0.1  4 0.5 0.1  4.5 0.5 0.1  5 0.5 0.1  5.5 0.5 0.1  6 0.5 0.1  6.5 0.5 0.1  7 0.5 0.1  7.5 0.5 0.1  8 0.5 0.1  8.5 0.5 0.1  9 0.5 0.1  9.5 0.5 0.1  10 0.5 0.1  0 1 0.1  0.5 1 0.1  1 1 0.1  1.5 1 0.1  2 1 0.1  2.5 1 0.1  3 1 0.1  3.5 1 0.1  4 1 0.1  4.5 1 0.1  5 1 0.1  5.5 1 0.1  6 1 0.1  6.5 1 0.1  7 1 0.1  7.5 1 0.1  8 1 0.1  8.5 1 0.1  9 1 0.1  9.5 1 0.1  10 1 0.1  0 1.5 0.1  0.5 1.5 0.1  1 1.5 0.1  1.5 1.5 0.1  2 1.5 0.1  2.5 1.5 0.1  3 1.5 0.1  3.5 1.5 0.1  4 1.5 0.1  4.5 1.5 0.1  5 1.5 0.1  5.5 1.5 0.1  6 1.5 0.1  6.5 1.5 0.1  7 1.5 0.1  7.5 1.5 0.1  8 1.5 0.1  8.5 1.5 0.1  9 1.5 0.1  9.5 1.5 0.1  10 1.5 0.1  0 2 0.1  0.5 2 0.1  1 2 0.1  1.5 2 0.1  2 2 0.1  2.5 2 0.1  3 2 0.1  3.5 2 0.1  4 2 0.1  4.5 2 0.1  5 2 0.1  5.5 2 0.1  6 2 0.1  6.5 2 0.1  7 2 0.1  7.5 2 0.1  8 2 0.1  8.5 2 0.1  9 2 0.1  9.5 2 0.1  10 2 0.1  0 2.5 0.1  0.5 2.5 0.1  1 2.5 0.1  1.5 2.5 0.1  2 2.5 0.1  2.5 2.5 0.1  3 2.5 0.1  3.5 2.5 0.1  4 2.5 0.1  4.5 2.5 0.1  5 2.5 0.1  5.5 2.5 0.1  6 2.5 0.1  6.5 2.5 0.1  7 2.5 0.1  7.5 2.5 0.1  8 2.5 0.1  8.5 2.5 0.1  9 2.5 0.1  9.5 2.5 0.1  10 2.5 0.1  0 3 0.1  0.5 3 0.1  1 3 0.1  1.5 3 0.1  2 3 0.1  2.5 3 0.1  3 3 0.1  3.5 3 0.1  4 3 0.1  4.5 3 0.1  5 3 0.1  5.5 3 0.1  6 3 0.1  6.5 3 0.1  7 3 0.1  7.5 3 0.1  8 3 0.1  8.5 3 0.1  9 3 0.1  9.5 3 0.1  10 3 0.1  0 0 0.2  0.5 0 0.2  1 0 0.2  1.5 0 0.2  2 0 0.2  2.5 0 0.2  3 0 0.2  3.5 0 0.2  4 0 0.2  4.5 0 0.2  5 0 0.2  5.5 0 0.2  6 0 0.2  6.5 0 0.2  7 0 0.2  7.5 0 0.2  8 0 0.2  8.5 0 0.2  9 0 0.2  9.5 0 0.2  10 0 0.2  0 0.5 0.2  0.5 0.5 0.2  1 0.5 0.2  1.5 0.5 0.2  2 0.5 0.2  2.5 0.5 0.2  3 0.5 0.2  3.5 0.5 0.2  4 0.5 0.2  4.5 0.5 0.2  5 0.5 0.2  5.5 0.5 0.2  6 0.5 0.2  6.5 0.5 0.2  7 0.5 0.2  7.5 0.5 0.2  8 0.5 0.2  8.5 0.5 0.2  9 0.5 0.2  9.5 0.5 0.2  10 0.5 0.2  0 1 0.2  0.5 1 0.2  1 1 0.2  1.5 1 0.2  2 1 0.2  2.5 1 0.2  3 1 0.2  3.5 1 0.2  4 1 0.2  4.5 1 0.2  5 1 0.2  5.5 1 0.2  6 1 0.2  6.5 1 0.2  7 1 0.2  7.5 1 0.2  8 1 0.2  8.5 1 0.2  9 1 0.2  9.5 1 0.2  10 1 0.2  0 1.5 0.2  0.5 1.5 0.2  1 1.5 0.2  1.5 1.5 0.2  2 1.5 0.2  2.5 1.5 0.2  3 1.5 0.2  3.5 1.5 0.2  4 1.5 0.2  4.5 1.5 0.2  5 1.5 0.2  5.5 1.5 0.2  6 1.5 0.2  6.5 1.5 0.2  7 1.5 0.2  7.5 1.5 0.2  8 1.5 0.2  8.5 1.5 0.2  9 1.5 0.2  9.5 1.5 0.2  10 1.5 0.2  0 2 0.2  0.5 2 0.2  1 2 0.2  1.5 2 0.2  2 2 0.2  2.5 2 0.2  3 2 0.2  3.5 2 0.2  4 2 0.2  4.5 2 0.2  5 2 0.2  5.5 2 0.2  6 2 0.2  6.5 2 0.2  7 2 0.2  7.5 2 0.2  8 2 0.2  8.5 2 0.2  9 2 0.2  9.5 2 0.2  10 2 0.2  0 2.5 0.2  0.5 2.5 0.2  1 2.5 0.2  1.5 2.5 0.2  2 2.5 0.2  2.5 2.5 0.2  3 2.5 0.2  3.5 2.5 0.2  4 2.5 0.2  4.5 2.5 0.2  5 2.5 0.2  5.5 2.5 0.2  6 2.5 0.2  6.5 2.5 0.2  7 2.5 0.2  7.5 2.5 0.2  8 2.5 0.2  8.5 2.5 0.2  9 2.5 0.2  9.5 2.5 0.2  10 2.5 0.2  0 3 0.2  0.5 3 0.2  1 3 0.2  1.5 3 0.2  2 3 0.2  2.5 3 0.2  3 3 0.2  3.5 3 0.2  4 3 0.2  4.5 3 0.2  5 3 0.2  5.5 3 0.2  6 3 0.2  6.5 3 0.2  7 3 0.2  7.5 3 0.2  8 3 0.2  8.5 3 0.2  9 3 0.2  9.5 3 0.2  10 3 0.2  0 0 0.3  0.5 0 0.3  1 0 0.3  1.5 0 0.3  2 0 0.3  2.5 0 0.3  3 0 0.3  3.5 0 0.3  4 0 0.3  4.5 0 0.3  5 0 0.3  5.5 0 0.3  6 0 0.3  6.5 0 0.3  7 0 0.3  7.5 0 0.3  8 0 0.3  8.5 0 0.3  9 0 0.3  9.5 0 0.3  10 0 0.3  0 0.5 0.3  0.5 0.5 0.3  1 0.5 0.3  1.5 0.5 0.3  2 0.5 0.3  2.5 0.5 0.3  3 0.5 0.3  3.5 0.5 0.3  4 0.5 0.3  4.5 0.5 0.3  5 0.5 0.3  5.5 0.5 0.3  6 0.5 0.3  6.5 0.5 0.3  7 0.5 0.3  7.5 0.5 0.3  8 0.5 0.3  8.5 0.5 0.3  9 0.5 0.3  9.5 0.5 0.3  10 0.5 0.3  0 1 0.3  0.5 1 0.3  1 1 0.3  1.5 1 0.3  2 1 0.3  2.5 1 0.3  3 1 0.3  3.5 1 0.3  4 1 0.3  4.5 1 0.3  5 1 0.3  5.5 1 0.3  6 1 0.3  6.5 1 0.3  7 1 0.3  7.5 1 0.3  8 1 0.3  8.5 1 0.3  9 1 0.3  9.5 1 0.3  10 1 0.3  0 1.5 0.3  0.5 1.5 0.3  1 1.5 0.3  1.5 1.5 0.3  2 1.5 0.3  2.5 1.5 0.3  3 1.5 0.3  3.5 1.5 0.3  4 1.5 0.3  4.5 1.5 0.3  5 1.5 0.3  5.5 1.5 0.3  6 1.5 0.3  6.5 1.5 0.3  7 1.5 0.3  7.5 1.5 0.3  8 1.5 0.3  8.5 1.5 0.3  9 1.5 0.3  9.5 1.5 0.3  10 1.5 0.3  0 2 0.3  0.5 2 0.3  1 2 0.3  1.5 2 0.3  2 2 0.3  2.5 2 0.3  3 2 0.3  3.5 2 0.3  4 2 0.3  4.5 2 0.3  5 2 0.3  5.5 2 0.3  6 2 0.3  6.5 2 0.3  7 2 0.3  7.5 2 0.3  8 2 0.3  8.5 2 0.3  9 2 0.3  9.5 2 0.3  10 2 0.3  0 2.5 0.3  0.5 2.5 0.3  1 2.5 0.3  1.5 2.5 0.3  2 2.5 0.3  2.5 2.5 0.3  3 2.5 0.3  3.5 2.5 0.3  4 2.5 0.3  4.5 2.5 0.3  5 2.5 0.3  5.5 2.5 0.3  6 2.5 0.3  6.5 2.5 0.3  7 2.5 0.3  7.5 2.5 0.3  8 2.5 0.3  8.5 2.5 0.3  9 2.5 0.3  9.5 2.5 0.3  10 2.5 0.3  0 3 0.3  0.5 3 0.3  1 3 0.3  1.5 3 0.3  2 3 0.3  2.5 3 0.3  3 3 0.3  3.5 3 0.3  4 3 0.3  4.5 3 0.3  5 3 0.3  5.5 3 0.3  6 3 0.3  6.5 3 0.3  7 3 0.3  7.5 3 0.3  8 3 0.3  8.5 3 0.3  9 3 0.3  9.5 3 0.3  10 3 0.3  0 0 0.4  0.5 0 0.4  1 0 0.4  1.5 0 0.4  2 0 0.4  2.5 0 0.4  3 0 0.4  3.5 0 0.4  4 0 0.4  4.5 0 0.4  5 0 0.4  5.5 0 0.4  6 0 0.4  6.5 0 0.4  7 0 0.4  7.5 0 0.4  8 0 0.4  8.5 0 0.4  9 0 0.4  9.5 0 0.4  10 0 0.4  0 0.5 0.4  0.5 0.5 0.4  1 0.5 0.4  1.5 0.5 0.4  2 0.5 0.4  2.5 0.5 0.4  3 0.5 0.4  3.5 0.5 0.4  4 0.5 0.4  4.5 0.5 0.4  5 0.5 0.4  5.5 0.5 0.4  6 0.5 0.4  6.5 0.5 0.4  7 0.5 0.4  7.5 0.5 0.4  8 0.5 0.4  8.5 0.5 0.4  9 0.5 0.4  9.5 0.5 0.4  10 0.5 0.4  0 1 0.4  0.5 1 0.4  1 1 0.4  1.5 1 0.4  2 1 0.4  2.5 1 0.4  3 1 0.4  3.5 1 0.4  4 1 0.4  4.5 1 0.4  5 1 0.4  5.5 1 0.4  6 1 0.4  6.5 1 0.4  7 1 0.4  7.5 1 0.4  8 1 0.4  8.5 1 0.4  9 1 0.4  9.5 1 0.4  10 1 0.4  0 1.5 0.4  0.5 1.5 0.4  1 1.5 0.4  1.5 1.5 0.4  2 1.5 0.4  2.5 1.5 0.4  3 1.5 0.4  3.5 1.5 0.4  4 1.5 0.4  4.5 1.5 0.4  5 1.5 0.4  5.5 1.5 0.4  6 1.5 0.4  6.5 1.5 0.4  7 1.5 0.4  7.5 1.5 0.4  8 1.5 0.4  8.5 1.5 0.4  9 1.5 0.4  9.5 1.5 0.4  10 1.5 0.4  0 2 0.4  0.5 2 0.4  1 2 0.4  1.5 2 0.4  2 2 0.4  2.5 2 0.4  3 2 0.4  3.5 2 0.4  4 2 0.4  4.5 2 0.4  5 2 0.4  5.5 2 0.4  6 2 0.4  6.5 2 0.4  7 2 0.4  7.5 2 0.4  8 2 0.4  8.5 2 0.4  9 2 0.4  9.5 2 0.4  10 2 0.4  0 2.5 0.4  0.5 2.5 0.4  1 2.5 0.4  1.5 2.5 0.4  2 2.5 0.4  2.5 2.5 0.4  3 2.5 0.4  3.5 2.5 0.4  4 2.5 0.4  4.5 2.5 0.4  5 2.5 0.4  5.5 2.5 0.4  6 2.5 0.4  6.5 2.5 0.4  7 2.5 0.4  7.5 2.5 0.4  8 2.5 0.4  8.5 2.5 0.4  9 2.5 0.4  9.5 2.5 0.4  10 2.5 0.4  0 3 0.4  0.5 3 0.4  1 3 0.4  1.5 3 0.4  2 3 0.4  2.5 3 0.4  3 3 0.4  3.5 3 0.4  4 3 0.4  4.5 3 0.4  5 3 0.4  5.5 3 0.4  6 3 0.4  6.5 3 0.4  7 3 0.4  7.5 3 0.4  8 3 0.4  8.5 3 0.4  9 3 0.4  9.5 3 0.4  10 3 0.4  0 0 0.5  0.5 0 0.5  1 0 0.5  1.5 0 0.5  2 0 0.5  2.5 0 0.5  3 0 0.5  3.5 0 0.5  4 0 0.5  4.5 0 0.5  5 0 0.5  5.5 0 0.5  6 0 0.5  6.5 0 0.5  7 0 0.5  7.5 0 0.5  8 0 0.5  8.5 0 0.5  9 0 0.5  9.5 0 0.5  10 0 0.5  0 0.5 0.5  0.5 0.5 0.5  1 0.5 0.5  1.5 0.5 0.5  2 0.5 0.5  2.5 0.5 0.5  3 0.5 0.5  3.5 0.5 0.5  4 0.5 0.5  4.5 0.5 0.5  5 0.5 0.5  5.5 0.5 0.5  6 0.5 0.5  6.5 0.5 0.5  7 0.5 0.5  7.5 0.5 0.5  8 0.5 0.5  8.5 0.5 0.5  9 0.5 0.5  9.5 0.5 0.5  10 0.5 0.5  0 1 0.5  0.5 1 0.5  1 1 0.5  1.5 1 0.5  2 1 0.5  2.5 1 0.5  3 1 0.5  3.5 1 0.5  4 1 0.5  4.5 1 0.5  5 1 0.5  5.5 1 0.5  6 1 0.5  6.5 1 0.5  7 1 0.5  7.5 1 0.5  8 1 0.5  8.5 1 0.5  9 1 0.5  9.5 1 0.5  10 1 0.5  0 1.5 0.5  0.5 1.5 0.5  1 1.5 0.5  1.5 1.5 0.5  2 1.5 0.5  2.5 1.5 0.5  3 1.5 0.5  3.5 1.5 0.5  4 1.5 0.5  4.5 1.5 0.5  5 1.5 0.5  5.5 1.5 0.5  6 1.5 0.5  6.5 1.5 0.5  7 1.5 0.5  7.5 1.5 0.5  8 1.5 0.5  8.5 1.5 0.5  9 1.5 0.5  9.5 1.5 0.5  10 1.5 0.5  0 2 0.5  0.5 2 0.5  1 2 0.5  1.5 2 0.5  2 2 0.5  2.5 2 0.5  3 2 0.5  3.5 2 0.5  4 2 0.5  4.5 2 0.5  5 2 0.5  5.5 2 0.5  6 2 0.5  6.5 2 0.5  7 2 0.5  7.5 2 0.5  8 2 0.5  8.5 2 0.5  9 2 0.5  9.5 2 0.5  10 2 0.5  0 2.5 0.5  0.5 2.5 0.5  1 2.5 0.5  1.5 2.5 0.5  2 2.5 0.5  2.5 2.5 0.5  3 2.5 0.5  3.5 2.5 0.5  4 2.5 0.5  4.5 2.5 0.5  5 2.5 0.5  5.5 2.5 0.5  6 2.5 0.5  6.5 2.5 0.5  7 2.5 0.5  7.5 2.5 0.5  8 2.5 0.5  8.5 2.5 0.5  9 2.5 0.5  9.5 2.5 0.5  10 2.5 0.5  0 3 0.5  0.5 3 0.5  1 3 0.5  1.5 3 0.5  2 3 0.5  2.5 3 0.5  3 3 0.5  3.5 3 0.5  4 3 0.5  4.5 3 0.5  5 3 0.5  5.5 3 0.5  6 3 0.5  6.5 3 0.5  7 3 0.5  7.5 3 0.5  8 3 0.5  8.5 3 0.5  9 3 0.5  9.5 3 0.5  10 3 0.5  </DataArray>
</Points>
<Cells>
[...]
<PointData  Scalars="f_7-1"> 
<DataArray  type="Float64"  Name="f_7-1"  format="ascii">8.5445849813853858e+00  4.9853503529193217e+00  7.4478485382698070e+00  5.6217625241516398e+00  6.7618733294124689e-01  -1.3688065380459269e+00  -9.8027399701975282e-01  -4.6902059416160452e-01  -3.8750464847325122e-01  -4.5909723904110578e-01  -5.1017295386660244e-01  -5.2159671477258018e-01  -5.1822298645615295e-01  -5.1575033156618399e-01  -5.1617012529401896e-01  -5.1729363230976233e-01  -5.1793766850258949e-01  -5.1813575906291587e-01  -5.1817878328258948e-01  -5.1820063026402452e-01  -5.1820284323067978e-01  -5.5940069100360412e-01  6.7949733497802924e+00  7.0315399623859731e+00  2.8886474741979167e+00  -9.4757473212547183e-01  -1.3771253057701622e+00  -5.8631212549760192e-01  -3.7399298674437925e-01  -4.3862441078033454e-01  -5.0299773837063966e-01  -5.2357544173376647e-01  -5.2121481433938899e-01  -5.1695870082452045e-01  -5.1630291061703826e-01  -5.1726268035206524e-01  -5.1799897683540841e-01  -5.1823238131597016e-01  -5.1825486188163783e-01  -5.1826015854511032e-01  -5.1827760415802204e-01  -5.1828704716012963e-01  -3.1377343758716103e+00  7.1477196169905151e+00  3.6108791697572884e+00  1.9021702662800702e-01  -2.7147774169532539e+00  -1.0529966512737219e+00  -2.4730148096725268e-01  -3.5163051272789664e-01  -4.9657230759129506e-01  -5.3998654194709961e-01  -5.3235282752526403e-01  -5.1996120735618845e-01  -5.1630039895571833e-01  -5.1727025098756763e-01  -5.1839278333120120e-01  -5.1863139338629860e-01  -5.1848718856120457e-01  -5.1837090698856980e-01  -5.1834588093088352e-01  -5.1835613661250934e-01  -5.1836318788344282e-01  -4.4147124238479662e+00  4.9136123887949763e+00  7.0038829692541436e+00  -4.9449819798582348e+00  -2.9746294336106645e+00  -6.5506482155613721e-01  -2.2116309896087663e-01  -3.6128733949594749e-01  -5.2645633032859374e-01  -5.6112631480972308e-01  -5.3824581007858896e-01  -5.2075597893870063e-01  -5.1704518986771475e-01  -5.1836408240887233e-01  -5.1926008719623062e-01  -5.1911466276294116e-01  -5.1872506947034935e-01  -5.1850332335547178e-01  -5.1843779625309672e-01  -5.1843103595839291e-01  -5.1843358128661410e-01  -9.9855066823346501e+00  8.1028602631981830e+00  7.9244799262802781e+00  -5.2895678008637930e+00  -2.1802190559062118e+00  -9.1045371707703993e-01  -3.9126075365073959e-01  -3.9311383847713866e-01  -5.2254739120048821e-01  -5.6245729465795613e-01  -5.4369548313845195e-01  -5.2532538756235492e-01  -5.1953646245024065e-01  -5.1949593480551626e-01  -5.1982588341056690e-01  -5.1949379958390285e-01  -5.1899789303352262e-01  -5.1868263265138304e-01  -5.1855157019348874e-01  -5.1850720172034015e-01  -5.1849757369938765e-01  1.0556549732701885e-02  9.5998115856664157e+00  5.1091624883876765e+00  2.7013551599910297e+00  -2.8181482036208041e+00  -1.3035967899673717e+00  -6.8664885510339047e-01  -4.7151769832560003e-01  -4.9163840248848251e-01  -5.4386053365319775e-01  -5.4729983850573838e-01  -5.3265783043909787e-01  -5.2336242245575026e-01  -5.2050748378192868e-01  -5.2000979652357981e-01  -5.1968931394843887e-01  -5.1923613302704608e-01  -5.1886111941480328e-01  -5.1865191597169014e-01  -5.1856838107536662e-01  -5.1855614362690627e-01  1.7976027984441831e+01  2.0428402451582919e+00  4.6742063172767887e+00  7.5995154586515543e+00  -1.6310298359653830e+00  -1.9945801386888999e+00  -1.1308416431915016e+00  -6.0028640530689337e-01  -4.6608841376662591e-01  -5.1317725850747931e-01  -5.4825219869931752e-01  -5.4271818084805201e-01  -5.2929437975368532e-01  -5.2226642570671022e-01  -5.2035481682658757e-01  -5.1995884059710762e-01  -5.1957368195404408e-01  -5.1913230183731363e-01  -5.1881810323352529e-01  -5.1867083191992835e-01  -5.1861956114086416e-01  1.3268929697726108e+01  4.0881779502488547e+00  7.4615904990259851e+00  5.8009504917337615e+00  8.0789511664969438e-01  -1.7164232465164428e+00  -1.1264804415438641e+00  -4.2549245918663881e-01  -3.5975540382661475e-01  -4.5397085366377166e-01  -5.1199660999236574e-01  -5.2339876912299188e-01  -5.1845445399704582e-01  -5.1540173994541005e-01  -5.1594420508937211e-01  -5.1725766675951268e-01  -5.1796512829598640e-01  -5.1815465356996604e-01  -5.1818370534963543e-01  -5.1820156654876437e-01  -5.1821634586736953e-01  -1.1985494284257627e+00  8.0909775122521008e+00  7.1447601213165468e+00  3.3005640129374139e+00  -7.7399283884782644e-01  -1.7143920626609577e+00  -5.6724850564134621e-01  -3.0498932343330665e-01  -4.2257650493866639e-01  -5.0098426175998378e-01  -5.2492762212781963e-01  -5.2091623029866241e-01  -5.1569210980192626e-01  -5.1531577512284377e-01  -5.1677655165721015e-01  -5.1779326629131339e-01  -5.1811549508666177e-01  -5.1816384640490420e-01  -5.1818934335064404e-01  -5.1822528345655949e-01  -5.1823714073397531e-01  -4.8554228988649699e+00  8.0875632173877960e+00  2.1199503773384460e+00  1.4333345958196047e+00  -3.6829789545561553e+00  -1.2372229067053642e+00  -5.2160966348585899e-02  -3.2758106838488255e-01  -4.9758840912852875e-01  -5.4298404223455465e-01  -5.3290459708180760e-01  -5.1819198204256822e-01  -5.1481592975182733e-01  -5.1656880302747099e-01  -5.1814169304918634e-01  -5.1850720986438703e-01  -5.1838239435518707e-01  -5.1828635534333811e-01  -5.1828740862194511e-01  -5.1831564965738675e-01  -5.1833142223330897e-01  -5.7749646200524527e+00  4.6527573253828489e+00  9.7051539720926012e+00  -7.4485389025588669e+00  -3.6174978397890625e+00  -2.4506364102142475e-01  -1.5884711553950498e-01  -3.4991728565033381e-01  -5.2753480338759096e-01  -5.6507746658117908e-01  -5.3662573042702322e-01  -5.1827574031942336e-01  -5.1559311865929192e-01  -5.1778298414966761e-01  -5.1903377154460806e-01  -5.1895652237953827e-01  -5.1859243477746042e-01  -5.1840850495345436e-01  -5.1837655929090776e-01  -5.1838849790271702e-01  -5.1839464002479019e-01  -1.6658020133947417e+01  1.0707740548697920e+01  9.5923390619035178e+00  -9.6909791677699957e+00  -1.0592315696583581e+00  -8.7131592531800250e-01  -3.7239469649534440e-01  -3.6121291862203664e-01  -5.2443089984919056e-01  -5.6484284645168925e-01  -5.4140637917753620e-01  -5.2282559144296525e-01  -5.1808749834119994e-01  -5.1890241908987533e-01  -5.1954754978524464e-01  -5.1929634709141481e-01  -5.1884701055180316e-01  -5.1857813971421773e-01  -5.1848271021848036e-01  -5.1846021022470490e-01  -5.1845890850425358e-01  -2.6715917364872190e+00  1.2746059614410866e+01  3.5851932158419038e+00  4.0192509385476285e+00  -3.5220501844711767e+00  -1.1283811067539893e+00  -6.6034884643517622e-01  -4.5025637450463746e-01  -4.8773452755838692e-01  -5.4308446889607243e-01  -5.4626555495214568e-01  -5.3098998091047545e-01  -5.2227699316560916e-01  -5.1997566447560439e-01  -5.1973195817230489e-01  -5.1951846144444047e-01  -5.1911855180154565e-01  -5.1878036054878285e-01  -5.1859929366266566e-01  -5.1852917359309569e-01  -5.1851767878302790e-01  2.9125501440799987e+01  1.6815776608609372e+00  3.6838404793315096e+00  8.2709721201141857e+00  -2.2282454010351707e+00  -2.0933773172267358e+00  -1.0201503552225171e+00  -5.9780602108824510e-01  -4.4961573053267984e-01  -5.1074481648228431e-01  -5.4947597455762776e-01  -5.4270572122478478e-01  -5.2883522233058111e-01  -5.2191409785997234e-01  -5.2021856499213026e-01  -5.1993338493500252e-01  -5.1957089419269287e-01  -5.1912798299676233e-01  -5.1881401449807563e-01  -5.1866718668610401e-01  -5.1861053972042204e-01  1.4386246715710818e+01  3.5161337763471714e+00  7.2818192818948981e+00  5.9107447258888097e+00  8.6209659657879345e-01  -1.8104533807504481e+00  -1.1705691009485160e+00  -3.7587033457294383e-01  -3.2876822711083137e-01  -4.4526514251615490e-01  -5.0942005654075495e-01  -5.2180878592931623e-01  -5.1674462524380604e-01  -5.1400893234104095e-01  -5.1509088320767571e-01  -5.1679751569160481e-01  -5.1770241600806277e-01  -5.1797997077520808e-01  -5.1805720625090212e-01  -5.1810200749763025e-01  -5.1813416058958284e-01  -1.1908947513726209e+00  8.3847942638430251e+00  7.7019121831291200e+00  3.4885306035293726e+00  -7.3888834798407355e-01  -1.9429260518780527e+00  -5.5537971743900916e-01  -2.5777578279416863e-01  -4.1449404941709833e-01  -4.9965416315465361e-01  -5.2598169549996399e-01  -5.2075221017275120e-01  -5.1484107351595709e-01  -5.1467036823243018e-01  -5.1646489166836562e-01  -5.1766544422468841e-01  -5.1804332947641551e-01  -5.1810632393779532e-01  -5.1814421597345173e-01  -5.1819126381124880e-01  -5.1820380083513673e-01  -5.3872705303202117e+00  8.9554686474616911e+00  9.8464313653181945e-01  2.0908671273527486e+00  -4.2539522526310618e+00  -1.3601419342087977e+00  8.0132565385625090e-02  -3.1686529258514817e-01  -4.9683099060054831e-01  -5.4392918247784516e-01  -5.3315824559851055e-01  -5.1680969664430232e-01  -5.1376212672765709e-01  -5.1606028612232302e-01  -5.1794379582745032e-01  -5.1840698966667331e-01  -5.1830259260113121e-01  -5.1822396150715400e-01  -5.1824429793672044e-01  -5.1828575747965289e-01  -5.1830768590125897e-01  -6.2140590908191840e+00  4.8102816596890774e+00  1.0724870079664750e+01  -8.9104662446336782e+00  -3.9297626451439136e+00  6.4844254744463897e-02  -1.3854931908558524e-01  -3.4964822574984000e-01  -5.2348937543762764e-01  -5.6679128412352819e-01  -5.3506978410609851e-01  -5.1658391837040096e-01  -5.1465885853517634e-01  -5.1735308983197925e-01  -5.1883669784545638e-01  -5.1882293475231389e-01  -5.1849102047680384e-01  -5.1833874433799743e-01  -5.1833125711657801e-01  -5.1835652376639130e-01  -5.1836418299230358e-01  -1.7784935936985597e+01  1.2051740244252864e+01  1.0121895236008793e+01  -1.2153552710999271e+01  5.9018260297651691e-02  -9.4433179325001959e-01  -3.8329047451096387e-01  -3.3497421974272656e-01  -5.2422737108205009e-01  -5.6523202574382692e-01  -5.3918353350590187e-01  -5.2126907354918006e-01  -5.1715250977413529e-01  -5.1846493285615924e-01  -5.1931389017124452e-01  -5.1913521135765262e-01  -5.1873378987508900e-01  -5.1850244653762956e-01  -5.1843213262631271e-01  -5.1842392233163215e-01  -5.1843026718504892e-01  -2.1144822705959618e+00  1.4215294601375748e+01  2.5590962232508505e+00  4.8484766464950235e+00  -3.7374052327102962e+00  -1.1220629812393659e+00  -6.2105861887973468e-01  -4.3886391631570837e-01  -4.9020986150270013e-01  -5.4069726478368907e-01  -5.4508753516332664e-01  -5.3003918052552423e-01  -5.2175831931517247e-01  -5.1975025245416484e-01  -5.1959348834252805e-01  -5.1942616108335382e-01  -5.1905883635191152e-01  -5.1874356710743319e-01  -5.1857768494739809e-01  -5.1851329283055170e-01  -5.1849307299087355e-01  3.2275799825070102e+01  1.2513507551590561e+00  2.6501465298427838e+00  9.0197595055094499e+00  -2.8505135627239753e+00  -2.0804048112596427e+00  -9.2651385253183705e-01  -5.9217705573259027e-01  -4.2346804784341718e-01  -5.0130155653698061e-01  -5.4663079154554217e-01  -5.4033224595122653e-01  -5.2700790035529110e-01  -5.2061627097855812e-01  -5.1943999927235462e-01  -5.1949459847994994e-01  -5.1930610968351176e-01  -5.1895402539095903e-01  -5.1869208482142348e-01  -5.1857162917114896e-01  -5.1854515838447757e-01  1.3768780127785762e+01  3.6644954973902015e+00  7.1610813615939470e+00  5.8403469579341625e+00  8.8881428982420652e-01  -1.6831700112281598e+00  -1.1574953720052608e+00  -3.6970553769248771e-01  -3.1334146562142062e-01  -4.3574697701218545e-01  -5.0431951608170811e-01  -5.1872612436445587e-01  -5.1459596136207197e-01  -5.1248827127920227e-01  -5.1408055056614588e-01  -5.1616293171542371e-01  -5.1730518108911416e-01  -5.1771952062511561e-01  -5.1787483836320769e-01  -5.1796251793692694e-01  -5.1796209802042925e-01  -9.2460261874379523e-01  8.2532214916621847e+00  7.9520248743139401e+00  3.6871870843944259e+00  -7.0766904710602752e-01  -2.0664008968444310e+00  -5.9532575858278114e-01  -2.3701984359126943e-01  -4.0360578615280185e-01  -4.9708027481964023e-01  -5.2676347174301197e-01  -5.2117616805423128e-01  -5.1464832222886114e-01  -5.1439630062837949e-01  -5.1632434146527650e-01  -5.1763298187870821e-01  -5.1804228671831809e-01  -5.1810311177897073e-01  -5.1813763687062986e-01  -5.1818207563344432e-01  -5.1821086582559539e-01  -5.0264908219023585e+00  9.0189947857228816e+00  8.2864071665928274e-01  2.2044675273761585e+00  -4.4331989895339694e+00  -1.4496188399627636e+00  1.3022333582382992e-01  -2.9804718558106025e-01  -4.8747623457474110e-01  -5.4185938043280524e-01  -5.3290462468945587e-01  -5.1576775784821127e-01  -5.1284673786209467e-01  -5.1546672986440345e-01  -5.1763985164169379e-01  -5.1825437668544660e-01  -5.1820709241438956e-01  -5.1815603300231572e-01  -5.1819603615208476e-01  -5.1825218832255293e-01  -5.1827390957636499e-01  -5.5728075615721595e+00  4.9459930585502514e+00  1.0505746036007780e+01  -9.0028485539603729e+00  -4.0600292428827833e+00  1.5827895881404916e-01  -1.3616168151333960e-01  -3.3894432078965947e-01  -5.1417764143979583e-01  -5.6641751302821819e-01  -5.3401187259126526e-01  -5.1560119984828601e-01  -5.1395880164797647e-01  -5.1690403842592592e-01  -5.1860976368558021e-01  -5.1869766005823692e-01  -5.1841060594299027e-01  -5.1828370932305323e-01  -5.1829343430671782e-01  -5.1832842231335441e-01  -5.1834108431143444e-01  -1.5948367274738455e+01  1.1927710683608110e+01  1.0028190385155495e+01  -1.2565418624285147e+01  4.2309772917108435e-01  -1.0150826399294792e+00  -3.8108376460036469e-01  -3.1405307960783252e-01  -5.2034459799027699e-01  -5.6358009992110969e-01  -5.3731796974501356e-01  -5.2035822847444180e-01  -5.1643528618192469e-01  -5.1804553886452853e-01  -5.1907998872459660e-01  -5.1899324861338147e-01  -5.1864487524073066e-01  -5.1844459495432726e-01  -5.1839312886214295e-01  -5.1839456994883615e-01  -5.1840447386047273e-01  -1.5893424501838231e+00  1.3790967454876016e+01  2.3657466064572517e+00  5.1325428860898681e+00  -3.8108387257825278e+00  -1.1873328887586057e+00  -5.5332645025159766e-01  -4.3966067948884602e-01  -4.9048302630865764e-01  -5.3573938103668017e-01  -5.4348953812812673e-01  -5.2921526912885564e-01  -5.2126406244636014e-01  -5.1949087217694789e-01  -5.1941243113554458e-01  -5.1931210027340846e-01  -5.1899198987497908e-01  -5.1870428500844701e-01  -5.1855246797591381e-01  -5.1849583749349737e-01  -5.1847455906705653e-01  3.1382226960196281e+01  1.2575419162593793e+00  2.5461058533824281e+00  9.1278268933995452e+00  -3.0331928974268925e+00  -1.9960993632324417e+00  -9.0070211987034976e-01  -6.0762681834577936e-01  -3.9871346561640697e-01  -4.8958715135470182e-01  -5.4139700560182968e-01  -5.3678104444741859e-01  -5.2471234507638476e-01  -5.1895410996276770e-01  -5.1832910538938803e-01  -5.1879525253123715e-01  -5.1886391049163627e-01  -5.1866572974022696e-01  -5.1849199952848624e-01  -5.1841847199428226e-01  -5.1841943816415537e-01  1.0962701146616824e+01  4.4707505464619111e+00  7.0986612602726256e+00  5.9148752723481506e+00  9.4711277241950220e-01  -1.5392951733589875e+00  -1.1383777535402333e+00  -4.0944113930628601e-01  -3.1565950996224013e-01  -4.3164088563847031e-01  -5.0255433630483415e-01  -5.1827994430116919e-01  -5.1468688950314145e-01  -5.1254698476517313e-01  -5.1405209996769219e-01  -5.1612505997900859e-01  -5.1729095168610262e-01  -5.1772118375942833e-01  -5.1787965768879785e-01  -5.1796566710776848e-01  -5.1795237716903764e-01  -4.8996749846758163e-02  7.5613020432309792e+00  7.8090625760548624e+00  3.8023910343927634e+00  -6.5537374153080852e-01  -2.0626303313405692e+00  -6.8325800717940377e-01  -2.3191571840945560e-01  -3.8302189583358398e-01  -4.9111705635162312e-01  -5.2560417357627265e-01  -5.2113369251308972e-01  -5.1434504353609123e-01  -5.1395616573144787e-01  -5.1600891766423751e-01  -5.1747623733762238e-01  -5.1797209083337059e-01  -5.1806159264638330e-01  -5.1810504838981930e-01  -5.1815433489764529e-01  -5.1819871404473550e-01  -3.0720242736855439e+00  7.9786501348880368e+00  1.4282265892489932e+00  1.8517338786473032e+00  -4.1684585046649412e+00  -1.5594663916227234e+00  8.9074332152126692e-02  -2.6064202014524185e-01  -4.7407458055389867e-01  -5.3778937919204339e-01  -5.3203716185738170e-01  -5.1514686234429663e-01  -5.1199599002191987e-01  -5.1476879852372437e-01  -5.1721812159870018e-01  -5.1803759966171714e-01  -5.1808503349823531e-01  -5.1807319612628544e-01  -5.1813564021707814e-01  -5.1820730981614671e-01  -5.1822743621114964e-01  -3.5036689238044469e+00  4.8024945955510665e+00  9.3267231223258467e+00  -7.7609989322074533e+00  -4.1069760737831906e+00  8.9339988085769505e-03  -1.0942208784637404e-01  -3.2540989811914789e-01  -5.0402106607855657e-01  -5.6212737933950441e-01  -5.3318337370910074e-01  -5.1493284044410959e-01  -5.1329105242175255e-01  -5.1635246037467530e-01  -5.1828283596613234e-01  -5.1852795869256674e-01  -5.1831284183526671e-01  -5.1821808783146861e-01  -5.1824589936375232e-01  -5.1829121385217169e-01  -5.1831216980428807e-01  -1.0580851193179901e+01  1.0025018241643266e+01  9.4704197524538376e+00  -1.1207287991389212e+01  -5.8346680228031092e-02  -9.2888006632145848e-01  -3.7896992784898792e-01  -3.1211250620592007e-01  -5.1078575691206862e-01  -5.5904974896089721e-01  -5.3543702341401056e-01  -5.1965484716488508e-01  -5.1585124944651972e-01  -5.1756583126834466e-01  -5.1877662081152387e-01  -5.1881536899759839e-01  -5.1854185134849662e-01  -5.1838010380856658e-01  -5.1834860201574706e-01  -5.1836054173357948e-01  -5.1837048712538603e-01  -1.3856298906028643e+00  1.2159765487094591e+01  3.0383556069509816e+00  4.5903566127652526e+00  -3.6165662987444436e+00  -1.1942544611239596e+00  -5.3783858397244755e-01  -4.4221238860217110e-01  -4.8638678896042503e-01  -5.2882550057361233e-01  -5.4045418080742780e-01  -5.2800971942920383e-01  -5.2051034973825272e-01  -5.1898573488395128e-01  -5.1904579264312589e-01  -5.1907139135014591e-01  -5.1884702588162157e-01  -5.1861490248671560e-01  -5.1849136508147309e-01  -5.1844810890773940e-01  -5.1843811300919329e-01  2.5560820855643460e+01  2.5292168341853181e+00  2.6622360388073281e+00  8.7469846631853265e+00  -2.7375043967193453e+00  -1.9050640142735356e+00  -9.4917684069862318e-01  -6.3595588582632800e-01  -3.9866632355660797e-01  -4.8589789789967680e-01  -5.3855902298388769e-01  -5.3609817561661743e-01  -5.2492454856732040e-01  -5.1904691954056126e-01  -5.1826275172458824e-01  -5.1871395078198268e-01  -5.1881969367084779e-01  -5.1865062990782296e-01  -5.1848621828113262e-01  -5.1841497510640944e-01  -5.1839743691461704e-01  1.1188411562061599e+01  4.1942993406326936e+00  7.5176951613883096e+00  5.9538754456957328e+00  1.4584802854829522e+00  -1.3972266745991500e+00  -1.2368907483203651e+00  -4.3656459495726363e-01  -3.1386057087910063e-01  -4.2742857457595818e-01  -5.0161033868449711e-01  -5.1977803984470461e-01  -5.1598212257523346e-01  -5.1323861843149587e-01  -5.1437504833055714e-01  -5.1632314234503363e-01  -5.1745132402669658e-01  -5.1784493167119150e-01  -5.1796660114846571e-01  -5.1802689015591585e-01  -5.1805194331465987e-01  -2.1652787574470000e+00  6.8889064326372056e+00  6.8811212506196577e+00  4.0002777400893725e+00  -2.8068155946025430e-01  -2.2140923612312036e+00  -8.2548948898305052e-01  -2.1474971744670315e-01  -3.5780599602676444e-01  -4.7994983709574651e-01  -5.2396893171995107e-01  -5.2135543563898279e-01  -5.1388353841496937e-01  -5.1322339723551813e-01  -5.1544647616841011e-01  -5.1718106859786528e-01  -5.1783216431927637e-01  -5.1797705456366083e-01  -5.1803999510903287e-01  -5.1810431338820029e-01  -5.1814076953212895e-01  -7.3858463295003923e-02  6.4824359533260543e+00  2.7605780225342729e+00  1.9528761777603125e+00  -4.0748391791594987e+00  -1.8777333334641118e+00  1.6427797698986074e-01  -2.3178583141340200e-01  -4.6343152517238256e-01  -5.3335682387672545e-01  -5.3164674905701692e-01  -5.1396779215715616e-01  -5.1092626845527445e-01  -5.1397981800504322e-01  -5.1675684558740664e-01  -5.1780037370840393e-01  -5.1794329351735302e-01  -5.1797492997382788e-01  -5.1806526848867218e-01  -5.1815313431088672e-01  -5.1818275507500688e-01  -3.1915677779361201e-01  4.0300639951115915e+00  8.6652553496484401e+00  -5.8143790989537116e+