<?xml version="1.0"?>
<VTKFile type="UnstructuredGrid"  version="0.1"  >
<UnstructuredGrid>
<Piece  NumberOfPoints="588" NumberOfCells="2160">
<Points>
<DataArray  type="Float64"  NumberOfComponents="3"  format="ascii">0 0 0  0.5 0 0  1 0 0  1.5 0 0  2 0 0  2.5 0 0  3 0 0  3.5 0 0  4 0 0  4.5 0 0  5 0 0  5.5 0 0  6 0 0  6.5 0 0  7 0 0  7.5 0 0  8 0 0  8.5 0 0  9 0 0  9.5 0 0  10 0 0  0 0.5 0  0.5 0.5 0  1 0.5 0  1.5 0.5 0  2 0.5 0  2.5 0.5 0  3 0.5 0  3.5 0.5 0  4 0.5 0  4.5 0.5 0  5 0.5 0  5.5 0.5 0  6 0.5 0  6.5 0.5 0  7 0.5 0  7.5 0.5 0  8 0.5 0  8.5 0.5 0  9 0.5 0  9.5 0.5 0  10 0.5 0  0 1 0  0.5 1 0  1 1 0  1.5 1 0  2 1 0  2.5 1 0  3 1 0  3.5 1 0  4 1 0  4.5 1 0  5 1 0  5.5 1 0  6 1 0  6.5 1 0  7 1 0  7.5 1 0  8 1 0  8.5 1 0  9 1 0  9.5 1 0  10 1 0  0 1.5 0  0.5 1.5 0  1 1.5 0  1.5 1.5 0  2 1.5 0  2.5 1.5 0  3 1.5 0  3.5 1.5 0  4 1.5 0  4.5 1.5 0  5 1.5 0  5.5 1.5 0  6 1.5 0  6.5 1.5 0  7 1.5 0  7.5 1.5 0  8 1.5 0  8.5 1.5 0  9 1.5 0  9.5 1.5 0  10 1.5 0  0 2 0  0.5 2 0  1 2 0  1.5 2 0  2 2 0  2.5 2 0  3 2 0  3.5 2 0  4 2 0  4.5 2 0  5 2 0  5.5 2 0  6 2 0  6.5 2 0  7 2 0  7.5 2 0  8 2 0  8.5 2 0  9 2 0  9.5 2 0  10 2 0  0 2.5 0  0.5 2.5 0  1 2.5 0  1.5 2.5 0  2 2.5 0  2.5 2.5 0  3 2.5 0  3.5 2.5 0  4 2.5 0  4.5 2.5 0  5 2.5 0  5.5 2.5 0  6 2.5 0  6.5 2.5 0  7 2.5 0  7.5 2.5 0  8 2.5 0  8.5 2.5 0  9 2.5 0  9.5 2.5 0  10 2.5 0  0 3 0  0.5 3 0  1 3 0  1.5 3 0  2 3 0  2.5 3 0  3 3 0  3.5 3 0  4 3 0  4.5 3 0  5 3 0  5.5 3 0  6 3 0  6.5 3 0  7 3 0  7.5 3 0  8 3 0  8.5 3 0  9 3 0  9.5 3 0  10 3 0  0 0 0.1666666666666667  0.5 0 0.1666666666666667  1 0 0.1666666666666667  1.5 0 0.1666666666666667  2 0 0.1666666666666667  2.5 0 0.1666666666666667  3 0 0.1666666666666667  3.5 0 0.1666666666666667  4 0 0.1666666666666667  4.5 0 0.1666666666666667  5 0 0.1666666666666667  5.5 0 0.1666666666666667  6 0 0.1666666666666667  6.5 0 0.1666666666666667  7 0 0.1666666666666667  7.5 0 0.1666666666666667  8 0 0.1666666666666667  8.5 0 0.1666666666666667  9 0 0.1666666666666667  9.5 0 0.1666666666666667  10 0 0.1666666666666667  0 0.5 0.1666666666666667  0.5 0.5 0.1666666666666667  1 0.5 0.1666666666666667  1.5 0.5 0.1666666666666667  2 0.5 0.1666666666666667  2.5 0.5 0.1666666666666667  3 0.5 0.1666666666666667  3.5 0.5 0.1666666666666667  4 0.5 0.1666666666666667  4.5 0.5 0.1666666666666667  5 0.5 0.1666666666666667  5.5 0.5 0.1666666666666667  6 0.5 0.1666666666666667  6.5 0.5 0.1666666666666667  7 0.5 0.1666666666666667  7.5 0.5 0.1666666666666667  8 0.5 0.1666666666666667  8.5 0.5 0.1666666666666667  9 0.5 0.1666666666666667  9.5 0.5 0.1666666666666667  10 0.5 0.1666666666666667  0 1 0.1666666666666667  0.5 1 0.1666666666666667  1 1 0.1666666666666667  1.5 1 0.1666666666666667  2 1 0.1666666666666667  2.5 1 0.1666666666666667  3 1 0.1666666666666667  3.5 1 0.1666666666666667  4 1 0.1666666666666667  4.5 1 0.1666666666666667  5 1 0.1666666666666667  5.5 1 0.1666666666666667  6 1 0.1666666666666667  6.5 1 0.1666666666666667  7 1 0.1666666666666667  7.5 1 0.1666666666666667  8 1 0.1666666666666667  8.5 1 0.1666666666666667  9 1 0.1666666666666667  9.5 1 0.1666666666666667  10 1 0.1666666666666667  0 1.5 0.1666666666666667  0.5 1.5 0.1666666666666667  1 1.5 0.1666666666666667  1.5 1.5 0.1666666666666667  2 1.5 0.1666666666666667  2.5 1.5 0.1666666666666667  3 1.5 0.1666666666666667  3.5 1.5 0.1666666666666667  4 1.5 0.1666666666666667  4.5 1.5 0.1666666666666667  5 1.5 0.1666666666666667  5.5 1.5 0.1666666666666667  6 1.5 0.1666666666666667  6.5 1.5 0.1666666666666667  7 1.5 0.1666666666666667  7.5 1.5 0.1666666666666667  8 1.5 0.1666666666666667  8.5 1.5 0.1666666666666667  9 1.5 0.1666666666666667  9.5 1.5 0.1666666666666667  10 1.5 0.1666666666666667  0 2 0.1666666666666667  0.5 2 0.1666666666666667  1 2 0.1666666666666667  1.5 2 0.1666666666666667  2 2 0.1666666666666667  2.5 2 0.1666666666666667  3 2 0.1666666666666667  3.5 2 0.1666666666666667  4 2 0.1666666666666667  4.5 2 0.1666666666666667  5 2 0.1666666666666667  5.5 2 0.1666666666666667  6 2 0.1666666666666667  6.5 2 0.1666666666666667  7 2 0.1666666666666667  7.5 2 0.1666666666666667  8 2 0.1666666666666667  8.5 2 0.1666666666666667  9 2 0.1666666666666667  9.5 2 0.1666666666666667  10 2 0.1666666666666667  0 2.5 0.1666666666666667  0.5 2.5 0.1666666666666667  1 2.5 0.1666666666666667  1.5 2.5 0.1666666666666667  2 2.5 0.1666666666666667  2.5 2.5 0.1666666666666667  3 2.5 0.1666666666666667  3.5 2.5 0.1666666666666667  4 2.5 0.1666666666666667  4.5 2.5 0.1666666666666667  5 2.5 0.1666666666666667  5.5 2.5 0.1666666666666667  6 2.5 0.1666666666666667  6.5 2.5 0.1666666666666667  7 2.5 0.1666666666666667  7.5 2.5 0.1666666666666667  8 2.5 0.1666666666666667  8.5 2.5 0.1666666666666667  9 2.5 0.1666666666666667  9.5 2.5 0.1666666666666667  10 2.5 0.1666666666666667  0 3 0.1666666666666667  0.5 3 0.1666666666666667  1 3 0.1666666666666667  1.5 3 0.1666666666666667  2 3 0.1666666666666667  2.5 3 0.1666666666666667  3 3 0.1666666666666667  3.5 3 0.1666666666666667  4 3 0.1666666666666667  4.5 3 0.1666666666666667  5 3 0.1666666666666667  5.5 3 0.1666666666666667  6 3 0.1666666666666667  6.5 3 0.1666666666666667  7 3 0.1666666666666667  7.5 3 0.1666666666666667  8 3 0.1666666666666667  8.5 3 0.1666666666666667  9 3 0.1666666666666667  9.5 3 0.1666666666666667  10 3 0.1666666666666667  0 0 0.3333333333333333  0.5 0 0.3333333333333333  1 0 0.3333333333333333  1.5 0 0.3333333333333333  2 0 0.3333333333333333  2.5 0 0.3333333333333333  3 0 0.3333333333333333  3.5 0 0.3333333333333333  4 0 0.3333333333333333  4.5 0 0.3333333333333333  5 0 0.3333333333333333  5.5 0 0.3333333333333333  6 0 0.3333333333333333  6.5 0 0.3333333333333333  7 0 0.3333333333333333  7.5 0 0.3333333333333333  8 0 0.3333333333333333  8.5 0 0.3333333333333333  9 0 0.3333333333333333  9.5 0 0.3333333333333333  10 0 0.3333333333333333  0 0.5 0.3333333333333333  0.5 0.5 0.3333333333333333  1 0.5 0.3333333333333333  1.5 0.5 0.3333333333333333  2 0.5 0.3333333333333333  2.5 0.5 0.3333333333333333  3 0.5 0.3333333333333333  3.5 0.5 0.3333333333333333  4 0.5 0.3333333333333333  4.5 0.5 0.3333333333333333  5 0.5 0.3333333333333333  5.5 0.5 0.3333333333333333  6 0.5 0.3333333333333333  6.5 0.5 0.3333333333333333  7 0.5 0.3333333333333333  7.5 0.5 0.3333333333333333  8 0.5 0.3333333333333333  8.5 0.5 0.3333333333333333  9 0.5 0.3333333333333333  9.5 0.5 0.3333333333333333  10 0.5 0.3333333333333333  0 1 0.3333333333333333  0.5 1 0.3333333333333333  1 1 0.3333333333333333  1.5 1 0.3333333333333333  2 1 0.3333333333333333  2.5 1 0.3333333333333333  3 1 0.3333333333333333  3.5 1 0.3333333333333333  4 1 0.3333333333333333  4.5 1 0.3333333333333333  5 1 0.3333333333333333  5.5 1 0.3333333333333333  6 1 0.3333333333333333  6.5 1 0.3333333333333333  7 1 0.3333333333333333  7.5 1 0.3333333333333333  8 1 0.3333333333333333  8.5 1 0.3333333333333333  9 1 0.3333333333333333  9.5 1 0.3333333333333333  10 1 0.3333333333333333  0 1.5 0.3333333333333333  0.5 1.5 0.3333333333333333  1 1.5 0.3333333333333333  1.5 1.5 0.3333333333333333  2 1.5 0.3333333333333333  2.5 1.5 0.3333333333333333  3 1.5 0.3333333333333333  3.5 1.5 0.3333333333333333  4 1.5 0.3333333333333333  4.5 1.5 0.3333333333333333  5 1.5 0.3333333333333333  5.5 1.5 0.3333333333333333  6 1.5 0.3333333333333333  6.5 1.5 0.3333333333333333  7 1.5 0.3333333333333333  7.5 1.5 0.3333333333333333  8 1.5 0.3333333333333333  8.5 1.5 0.3333333333333333  9 1.5 0.3333333333333333  9.5 1.5 0.3333333333333333  10 1.5 0.3333333333333333  0 2 0.3333333333333333  0.5 2 0.3333333333333333  1 2 0.3333333333333333  1.5 2 0.3333333333333333  2 2 0.3333333333333333  2.5 2 0.3333333333333333  3 2 0.3333333333333333  3.5 2 0.3333333333333333  4 2 0.3333333333333333  4.5 2 0.3333333333333333  5 2 0.3333333333333333  5.5 2 0.3333333333333333  6 2 0.3333333333333333  6.5 2 0.3333333333333333  7 2 0.3333333333333333  7.5 2 0.3333333333333333  8 2 0.3333333333333333  8.5 2 0.3333333333333333  9 2 0.3333333333333333  9.5 2 0.3333333333333333  10 2 0.3333333333333333  0 2.5 0.3333333333333333  0.5 2.5 0.3333333333333333  1 2.5 0.3333333333333333  1.5 2.5 0.3333333333333333  2 2.5 0.3333333333333333  2.5 2.5 0.3333333333333333  3 2.5 0.3333333333333333  3.5 2.5 0.3333333333333333  4 2.5 0.3333333333333333  4.5 2.5 0.3333333333333333  5 2.5 0.3333333333333333  5.5 2.5 0.3333333333333333  6 2.5 0.3333333333333333  6.5 2.5 0.3333333333333333  7 2.5 0.3333333333333333  7.5 2.5 0.3333333333333333  8 2.5 0.3333333333333333  8.5 2.5 0.3333333333333333  9 2.5 0.3333333333333333  9.5 2.5 0.3333333333333333  10 2.5 0.3333333333333333  0 3 0.3333333333333333  0.5 3 0.3333333333333333  1 3 0.3333333333333333  1.5 3 0.3333333333333333  2 3 0.3333333333333333  2.5 3 0.3333333333333333  3 3 0.3333333333333333  3.5 3 0.3333333333333333  4 3 0.3333333333333333  4.5 3 0.3333333333333333  5 3 0.3333333333333333  5.5 3 0.3333333333333333  6 3 0.3333333333333333  6.5 3 0.3333333333333333  7 3 0.3333333333333333  7.5 3 0.3333333333333333  8 3 0.3333333333333333  8.5 3 0.3333333333333333  9 3 0.3333333333333333  9.5 3 0.3333333333333333  10 3 0.3333333333333333  0 0 0.5  0.5 0 0.5  1 0 0.5  1.5 0 0.5  2 0 0.5  2.5 0 0.5  3 0 0.5  3.5 0 0.5  4 0 0.5  4.5 0 0.5  5 0 0.5  5.5 0 0.5  6 0 0.5  6.5 0 0.5  7 0 0.5  7.5 0 0.5  8 0 0.5  8.5 0 0.5  9 0 0.5  9.5 0 0.5  10 0 0.5  0 0.5 0.5  0.5 0.5 0.5  1 0.5 0.5  1.5 0.5 0.5  2 0.5 0.5  2.5 0.5 0.5  3 0.5 0.5  3.5 0.5 0.5  4 0.5 0.5  4.5 0.5 0.5  5 0.5 0.5  5.5 0.5 0.5  6 0.5 0.5  6.5 0.5 0.5  7 0.5 0.5  7.5 0.5 0.5  8 0.5 0.5  8.5 0.5 0.5  9 0.5 0.5  9.5 0.5 0.5  10 0.5 0.5  0 1 0.5  0.5 1 0.5  1 1 0.5  1.5 1 0.5  2 1 0.5  2.5 1 0.5  3 1 0.5  3.5 1 0.5  4 1 0.5  4.5 1 0.5  5 1 0.5  5.5 1 0.5  6 1 0.5  6.5 1 0.5  7 1 0.5  7.5 1 0.5  8 1 0.5  8.5 1 0.5  9 1 0.5  9.5 1 0.5  10 1 0.5  0 1.5 0.5  0.5 1.5 0.5  1 1.5 0.5  1.5 1.5 0.5  2 1.5 0.5  2.5 1.5 0.5  3 1.5 0.5  3.5 1.5 0.5  4 1.5 0.5  4.5 1.5 0.5  5 1.5 0.5  5.5 1.5 0.5  6 1.5 0.5  6.5 1.5 0.5  7 1.5 0.5  7.5 1.5 0.5  8 1.5 0.5  8.
[...]
<PointData  Scalars="f_7-2"> 
<DataArray  type="Float64"  Name="f_7-2"  format="ascii">1.1716612022297748e+00  1.1560526687673931e+00  1.1563967820076007e+00  1.1588395787603381e+00  1.1594314409001312e+00  1.1595311153674421e+00  1.1595479716078483e+00  1.1595494458428435e+00  1.1595475720260893e+00  1.1595456811934255e+00  1.1595444349174764e+00  1.1595437040199001e+00  1.1595432913754657e+00  1.1595430627723953e+00  1.1595429374963582e+00  1.1595428692417515e+00  1.1595428322199794e+00  1.1595428123076219e+00  1.1595428018598413e+00  1.1595427968757828e+00  1.1595427953971782e+00  1.1616045616248400e+00  1.1670885931022299e+00  1.1583595852477377e+00  1.1593844614806377e+00  1.1595589242729134e+00  1.1595483622230334e+00  1.1595519247480615e+00  1.1595500447313154e+00  1.1595472092398762e+00  1.1595452920855878e+00  1.1595441812430938e+00  1.1595435550308091e+00  1.1595432069650662e+00  1.1595430159665669e+00  1.1595429118361682e+00  1.1595428552304745e+00  1.1595428245611445e+00  1.1595428080779544e+00  1.1595427994325087e+00  1.1595427953386186e+00  1.1595427941281446e+00  1.1658649902940290e+00  1.1737207437832713e+00  1.1612572714520217e+00  1.1598609979691858e+00  1.1597184028475718e+00  1.1595830208405060e+00  1.1595597361474606e+00  1.1595502614471724e+00  1.1595461008688233e+00  1.1595444031421753e+00  1.1595436248377735e+00  1.1595432305898978e+00  1.1595430243772704e+00  1.1595429151989933e+00  1.1595428566899988e+00  1.1595428251362658e+00  1.1595428081143742e+00  1.1595427989914762e+00  1.1595427942165648e+00  1.1595427920079378e+00  1.1595427913215244e+00  1.1685835442782815e+00  1.1756767599166222e+00  1.1624539611103635e+00  1.1598149471843830e+00  1.1597815864202956e+00  1.1595895569477299e+00  1.1595557133340497e+00  1.1595467353049138e+00  1.1595436685279070e+00  1.1595429869026552e+00  1.1595428253522195e+00  1.1595427855540164e+00  1.1595427802615892e+00  1.1595427821106647e+00  1.1595427842506834e+00  1.1595427857130407e+00  1.1595427865969763e+00  1.1595427871051449e+00  1.1595427873884294e+00  1.1595427876096285e+00  1.1595427876134217e+00  1.1678568183400655e+00  1.1727087636751274e+00  1.1615982240338429e+00  1.1594106605936829e+00  1.1596341789515432e+00  1.1595389093228310e+00  1.1595375408986210e+00  1.1595391698116622e+00  1.1595401181870246e+00  1.1595412922845034e+00  1.1595419492623529e+00  1.1595423223126251e+00  1.1595425331461815e+00  1.1595426491026704e+00  1.1595427123152755e+00  1.1595427466960972e+00  1.1595427653370951e+00  1.1595427753689955e+00  1.1595427806408547e+00  1.1595427832348058e+00  1.1595427839288244e+00  1.1632876963495482e+00  1.1679261457609471e+00  1.1593872290114662e+00  1.1584005018720567e+00  1.1593761762527470e+00  1.1594945435901030e+00  1.1595144753294093e+00  1.1595306697110450e+00  1.1595370287740301e+00  1.1595398641116292e+00  1.1595412471842890e+00  1.1595419654615065e+00  1.1595423462228018e+00  1.1595425493385649e+00  1.1595426585955109e+00  1.1595427176322390e+00  1.1595427495152302e+00  1.1595427666277849e+00  1.1595427755996528e+00  1.1595427799529252e+00  1.1595427811678294e+00  1.1705480843270384e+00  1.1565103696321728e+00  1.1528379168477891e+00  1.1576579747152367e+00  1.1595037551742760e+00  1.1594526315127891e+00  1.1594947282042376e+00  1.1595282683156942e+00  1.1595356665486223e+00  1.1595391605362770e+00  1.1595409282712852e+00  1.1595418057584077e+00  1.1595422627611562e+00  1.1595425046549019e+00  1.1595426345787725e+00  1.1595427046652942e+00  1.1595427424593971e+00  1.1595427627368600e+00  1.1595427733744290e+00  1.1595427784863923e+00  1.1595427798477422e+00  1.1990502485883943e+00  1.1487246626481613e+00  1.1568390497630383e+00  1.1589205202605943e+00  1.1594370012139401e+00  1.1595311300755531e+00  1.1595477381482464e+00  1.1595495431114251e+00  1.1595476014476227e+00  1.1595456717009081e+00  1.1595444279472258e+00  1.1595437005250036e+00  1.1595432893071393e+00  1.1595430615656215e+00  1.1595429368293564e+00  1.1595428688772802e+00  1.1595428320205763e+00  1.1595428121951832e+00  1.1595428017944192e+00  1.1595427968425938e+00  1.1595427952836379e+00  1.2085041182273732e+00  1.1568595850865524e+00  1.1595190245397484e+00  1.1595647312085595e+00  1.1594874735498795e+00  1.1595405508168874e+00  1.1595518039514805e+00  1.1595500496957887e+00  1.1595471656694361e+00  1.1595452998721563e+00  1.1595442002838690e+00  1.1595435671952756e+00  1.1595432137416817e+00  1.1595430197891936e+00  1.1595429139627156e+00  1.1595428563943464e+00  1.1595428251967637e+00  1.1595428084256991e+00  1.1595427996364558e+00  1.1595427954455593e+00  1.1595427942477934e+00  1.2110457820082976e+00  1.1676183935869440e+00  1.1605943927763567e+00  1.1601963230864276e+00  1.1596540629412648e+00  1.1595901733396010e+00  1.1595621218032179e+00  1.1595502555703665e+00  1.1595461204495499e+00  1.1595444430193698e+00  1.1595436441485674e+00  1.1595432380544550e+00  1.1595430280839771e+00  1.1595429172118865e+00  1.1595428577488480e+00  1.1595428256957798e+00  1.1595428084159574e+00  1.1595427991558511e+00  1.1595427943205605e+00  1.1595427920476649e+00  1.1595427914094063e+00  1.2145301458596305e+00  1.1698906554686916e+00  1.1604228655862416e+00  1.1604671820634340e+00  1.1597348224113866e+00  1.1595923012965275e+00  1.1595586952744750e+00  1.1595466159400918e+00  1.1595437518396310e+00  1.1595430394999005e+00  1.1595428376006682e+00  1.1595427889673968e+00  1.1595427820381494e+00  1.1595427829421232e+00  1.1595427846172817e+00  1.1595427858915175e+00  1.1595427866898882e+00  1.1595427871546669e+00  1.1595427874257596e+00  1.1595427875943332e+00  1.1595427876937896e+00  1.2132216996171146e+00  1.1665625918236855e+00  1.1598478547179047e+00  1.1600785814460717e+00  1.1595862579862131e+00  1.1595370074237690e+00  1.1595414932256771e+00  1.1595386964588061e+00  1.1595402407846698e+00  1.1595413226497806e+00  1.1595419443903989e+00  1.1595423200234010e+00  1.1595425318389792e+00  1.1595426481357634e+00  1.1595427117123165e+00  1.1595427463573524e+00  1.1595427651482733e+00  1.1595427752619369e+00  1.1595427805863696e+00  1.1595427831637850e+00  1.1595427839783379e+00  1.1987883751378610e+00  1.1633042752831679e+00  1.1570083191431413e+00  1.1589226217368911e+00  1.1594267440135713e+00  1.1594755473288698e+00  1.1595147198376796e+00  1.1595307715014396e+00  1.1595370335396955e+00  1.1595398267664019e+00  1.1595412274624368e+00  1.1595419578755768e+00  1.1595423419511466e+00  1.1595425467931384e+00  1.1595426572202181e+00  1.1595427168958479e+00  1.1595427491122345e+00  1.1595427664072218e+00  1.1595427754827010e+00  1.1595427798407911e+00  1.1595427811748604e+00  1.2506547533611079e+00  1.1367005227858158e+00  1.1527841340402809e+00  1.1595294656634418e+00  1.1593847073839258e+00  1.1593885645714423e+00  1.1595091322639033e+00  1.1595289694307915e+00  1.1595353244085718e+00  1.1595392057707810e+00  1.1595409401178802e+00  1.1595418107176376e+00  1.1595422642072721e+00  1.1595425053618791e+00  1.1595426350422844e+00  1.1595427049003666e+00  1.1595427425777896e+00  1.1595427627987691e+00  1.1595427733994703e+00  1.1595427784633376e+00  1.1595427799708444e+00  1.1712450736787601e+00  1.1556944516808356e+00  1.1561260590714351e+00  1.1588678802537662e+00  1.1594684888681936e+00  1.1595278547358183e+00  1.1595467682254998e+00  1.1595497656909761e+00  1.1595476405778633e+00  1.1595456690826864e+00  1.1595444319476012e+00  1.1595437037269967e+00  1.1595432908377847e+00  1.1595430623734109e+00  1.1595429372813588e+00  1.1595428691247480e+00  1.1595428321550700e+00  1.1595428122676328e+00  1.1595428018419862e+00  1.1595427968803467e+00  1.1595427952854431e+00  1.1726398981618584e+00  1.1633764543253218e+00  1.1592424027796313e+00  1.1594932551600257e+00  1.1595086083686741e+00  1.1595391434180202e+00  1.1595531211327621e+00  1.1595503556505504e+00  1.1595471455963104e+00  1.1595453038118193e+00  1.1595442043244173e+00  1.1595435667698297e+00  1.1595432129911893e+00  1.1595430193655989e+00  1.1595429137115292e+00  1.1595428562457921e+00  1.1595428251132121e+00  1.1595428083798867e+00  1.1595427996133014e+00  1.1595427954373831e+00  1.1595427942493426e+00  1.1772652222060043e+00  1.1700461686948345e+00  1.1615610093209010e+00  1.1599558029125685e+00  1.1596625994822662e+00  1.1595994104219045e+00  1.1595630790786942e+00  1.1595501299115334e+00  1.1595461265761353e+00  1.1595444705367814e+00  1.1595436460763109e+00  1.1595432358120370e+00  1.1595430269261564e+00  1.1595429165210536e+00  1.1595428573048010e+00  1.1595428254373790e+00  1.1595428082716279e+00  1.1595427990751381e+00  1.1595427942753596e+00  1.1595427920281682e+00  1.1595427913746417e+00  1.1807113085910439e+00  1.1721754980823675e+00  1.1616959491803718e+00  1.1602768409142983e+00  1.1597257203319045e+00  1.1596010493029421e+00  1.1595573752776249e+00  1.1595462611780427e+00  1.1595438341192610e+00  1.1595430532110840e+00  1.1595428307808704e+00  1.1595427869620611e+00  1.1595427814024504e+00  1.1595427824172273e+00  1.1595427842803465e+00  1.1595427857046416e+00  1.1595427865854191e+00  1.1595427870954311e+00  1.1595427873906601e+00  1.1595427875774003e+00  1.1595427876642723e+00  1.1792920368574902e+00  1.1692876047387981e+00  1.1611364932282733e+00  1.1598919245526864e+00  1.1595471635902304e+00  1.1595454745807958e+00  1.1595399834859017e+00  1.1595384437762331e+00  1.1595403524669068e+00  1.1595412999627706e+00  1.1595419359383767e+00  1.1595423194365775e+00  1.1595425312695586e+00  1.1595426476320869e+00  1.1595427114446450e+00  1.1595427462171124e+00  1.1595427650684227e+00  1.1595427752160679e+00  1.1595427805578633e+00  1.1595427831486758e+00  1.1595427839473782e+00  1.1675881746468282e+00  1.1678109157006633e+00  1.1575180906734570e+00  1.1588578358769055e+00  1.1593975659607410e+00  1.1594708926959796e+00  1.1595165112602352e+00  1.1595307213202828e+00  1.1595369874461874e+00  1.1595398205403626e+00  1.1595412275117387e+00  1.1595419598170482e+00  1.1595423423278284e+00  1.1595425469128040e+00  1.1595426573484466e+00  1.1595427169651940e+00  1.1595427491453072e+00  1.1595427664243716e+00  1.1595427754890628e+00  1.1595427798443225e+00  1.1595427811573742e+00  1.2060656670207939e+00  1.1355081889318606e+00  1.1553514853827815e+00  1.1593001658356377e+00  1.1591571864089616e+00  1.1594231457027064e+00  1.1595163205624770e+00  1.1595262372809230e+00  1.1595355276100037e+00  1.1595392415391645e+00  1.1595409390592049e+00  1.1595418141013212e+00  1.1595422648795812e+00  1.1595425060808271e+00  1.1595426354599989e+00  1.1595427051025395e+00  1.1595427426897149e+00  1.1595427628621513e+00  1.1595427734343802e+00  1.1595427784996275e+00  1.1595427799659956e+00  1.2492555142667203e+00  1.1430426278657326e+00  1.1558719302516385e+00  1.1594029054236057e+00  1.1594305930772091e+00  1.1595157631887871e+00  1.1595496172837267e+00  1.1595502428499482e+00  1.1595475159864010e+00  1.1595456417522130e+00  1.1595444256011536e+00  1.1595436969378690e+00  1.1595432864904047e+00  1.1595430600512309e+00  1.1595429360165435e+00  1.1595428684284863e+00  1.1595428317752319e+00  1.1595428120637572e+00  1.1595428017378626e+00  1.1595427967839622e+00  1.1595427952540676e+00  1.2519882011839691e+00  1.1473115771042215e+00  1.1610616444745114e+00  1.1596245761426787e+00  1.1593808409052522e+00  1.1595450302185895e+00  1.1595561808336299e+00  1.1595493659836678e+00  1.1595469384588861e+00  1.1595453125808470e+00  1.1595441981369066e+00  1.1595435607542328e+00  1.1595432108264059e+00  1.1595430184145801e+00  1.1595429131789017e+00  1.1595428559551568e+00  1.1595428249558728e+00  1.1595428082915777e+00  1.1595427995593490e+00  1.1595427953747797e+00  1.1595427942264787e+00  1.2395828099356887e+00  1.1645142158024797e+00  1.1612594455134555e+00  1.1598281053820889e+00  1.1596697587005331e+00  1.1596159837942830e+00  1.1595600797478114e+00  1.1595491373349018e+00  1.1595462484934556e+00  1.1595444873117442e+00  1.1595436285868794e+00  1.1595432303264523e+00  1.1595430252090373e+00  1.1595429153802432e+00  1.1595428566304202e+00  1.1595428250770516e+00  1.1595428080749259e+00  1.1595427989656593e+00  1.1595427942155658e+00  1.1595427919606376e+00  1.1595427913765062e+00  1.2390095300428534e+00  1.1684917022085168e+00  1.1596996342993022e+00  1.1606156988023395e+00  1.1597258019961481e+00  1.1596000634227031e+00  1.1595516405047936e+00  1.1595467656971488e+00  1.1595440409087159e+00  1.1595430189113058e+00  1.1595428263467955e+00  1.1595427930861721e+00  1.1595427841135317e+00  1.1595427835520402e+00  1.1595427849398390e+00  1.1595427860754177e+00  1.1595427867828063e+00  1.1595427872023687e+00  1.1595427874519368e+00  1.1595427875882531e+00  1.1595427877272917e+00  1.2397018877239145e+00  1.1655401576639282e+00  1.1588804555524170e+00  1.1604456896594724e+00  1.1594516319393444e+00  1.1595667392350331e+00  1.1595372278685780e+00  1.1595397300520711e+00  1.1595404890796037e+00  1.1595412744156075e+00  1.1595419630346491e+00  1.1595423319258278e+00  1.1595425354940625e+00  1.1595426498634966e+00  1.1595427127133338e+00  1.1595427468857247e+00  1.1595427654228738e+00  1.1595427754104506e+00  1.1595427806692780e+00  1.1595427832043925e+00  1.1595427840365147e+00  1.2510060418431614e+00  1.1563538945505851e+00  1.1561054815898879e+00  1.1596791162347500e+00  1.1592484911704433e+00  1.1595047886787337e+00  1.1595153610127682e+00  1.1595307570462614e+00  1.1595372006581330e+00  1.1595398284380303e+00  1.1595412648518708e+00  1.1595419718440994e+00  1.1595423470999326e+00  1.1595425499604941e+00  1.1595426589990565e+00  1.1595427178197453e+00  1.1595427496089867e+00  1.1595427666831186e+00  1.1595427756417185e+00  1.1595427799361833e+00  1.1595427812603116e+00  1.2763986108024683e+00  1.1308168592317551e+00  1.1550601464635668e+00  1.1595183748207962e+00  1.1590749291922928e+00  1.1594724364683564e+00  1.1595049008704219e+00  1.1595262665795028e+00  1.1595358994144889e+00  1.1595391411462597e+00  1.1595409434596744e+00  1.1595418072839720e+00  1.1595422618265523e+00  1.1595425049513086e+00  1.1595426347076438e+00  1.1595427046830489e+00  1.1595427424696687e+00  1.1595427627409718e+00  1.1595427733653243e+00  1.1595427784480767e+00  1.1595427799710123e+00  </DataArray> 
</PointData> 
</Piece>
</UnstructuredGrid>
</VTKFile>