<?xml version="1.0"?>
<VTKFile type="UnstructuredGrid"  version="0.1"  >
<UnstructuredGrid>
<Piece  NumberOfPoints="882" NumberOfCells="3600">
<Points>
<DataArray  type="Float64"  NumberOfComponents="3"  format="ascii">0 0 0  0.5 0 0  1 0 0  1.5 0 0  2 0 0  2.5 0 0  3 0 0  3.5 0 0  4 0 0  4.5 0 0  5 0 0  5.5 0 0  6 0 0  6.5 0 0  7 0 0  7.5 0 0  8 0 0  8.5 0 0  9 0 0  9.5 0 0  10 0 0  0 0.5 0  0.5 0.5 0  1 0.5 0  1.5 0.5 0  2 0.5 0  2.5 0.5 0  3 0.5 0  3.5 0.5 0  4 0.5 0  4.5 0.5 0  5 0.5 0  5.5 0.5 0  6 0.5 0  6.5 0.5 0  7 0.5 0  7.5 0.5 0  8 0.5 0  8.5 0.5 0  9 0.5 0  9.5 0.5 0  10 0.5 0  0 1 0  0.5 1 0  1 1 0  1.5 1 0  2 1 0  2.5 1 0  3 1 0  3.5 1 0  4 1 0  4.5 1 0  5 1 0  5.5 1 0  6 1 0  6.5 1 0  7 1 0  7.5 1 0  8 1 0  8.5 1 0  9 1 0  9.5 1 0  10 1 0  0 1.5 0  0.5 1.5 0  1 1.5 0  1.5 1.5 0  2 1.5 0  2.5 1.5 0  3 1.5 0  3.5 1.5 0  4 1.5 0  4.5 1.5 0  5 1.5 0  5.5 1.5 0  6 1.5 0  6.5 1.5 0  7 1.5 0  7.5 1.5 0  8 1.5 0  8.5 1.5 0  9 1.5 0  9.5 1.5 0  10 1.5 0  0 2 0  0.5 2 0  1 2 0  1.5 2 0  2 2 0  2.5 2 0  3 2 0  3.5 2 0  4 2 0  4.5 2 0  5 2 0  5.5 2 0  6 2 0  6.5 2 0  7 2 0  7.5 2 0  8 2 0  8.5 2 0  9 2 0  9.5 2 0  10 2 0  0 2.5 0  0.5 2.5 0  1 2.5 0  1.5 2.5 0  2 2.5 0  2.5 2.5 0  3 2.5 0  3.5 2.5 0  4 2.5 0  4.5 2.5 0  5 2.5 0  5.5 2.5 0  6 2.5 0  6.5 2.5 0  7 2.5 0  7.5 2.5 0  8 2.5 0  8.5 2.5 0  9 2.5 0  9.5 2.5 0  10 2.5 0  0 3 0  0.5 3 0  1 3 0  1.5 3 0  2 3 0  2.5 3 0  3 3 0  3.5 3 0  4 3 0  4.5 3 0  5 3 0  5.5 3 0  6 3 0  6.5 3 0  7 3 0  7.5 3 0  8 3 0  8.5 3 0  9 3 0  9.5 3 0  10 3 0  0 0 0.1  0.5 0 0.1  1 0 0.1  1.5 0 0.1  2 0 0.1  2.5 0 0.1  3 0 0.1  3.5 0 0.1  4 0 0.1  4.5 0 0.1  5 0 0.1  5.5 0 0.1  6 0 0.1  6.5 0 0.1  7 0 0.1  7.5 0 0.1  8 0 0.1  8.5 0 0.1  9 0 0.1  9.5 0 0.1  10 0 0.1  0 0.5 0.1  0.5 0.5 0.1  1 0.5 0.1  1.5 0.5 0.1  2 0.5 0.1  2.5 0.5 0.1  3 0.5 0.1  3.5 0.5 0.1  4 0.5 0.1  4.5 0.5 0.1  5 0.5 0.1  5.5 0.5 0.1  6 0.5 0.1  6.5 0.5 0.1  7 0.5 0.1  7.5 0.5 0.1  8 0.5 0.1  8.5 0.5 0.1  9 0.5 0.1  9.5 0.5 0.1  10 0.5 0.1  0 1 0.1  0.5 1 0.1  1 1 0.1  1.5 1 0.1  2 1 0.1  2.5 1 0.1  3 1 0.1  3.5 1 0.1  4 1 0.1  4.5 1 0.1  5 1 0.1  5.5 1 0.1  6 1 0.1  6.5 1 0.1  7 1 0.1  7.5 1 0.1  8 1 0.1  8.5 1 0.1  9 1 0.1  9.5 1 0.1  10 1 0.1  0 1.5 0.1  0.5 1.5 0.1  1 1.5 0.1  1.5 1.5 0.1  2 1.5 0.1  2.5 1.5 0.1  3 1.5 0.1  3.5 1.5 0.1  4 1.5 0.1  4.5 1.5 0.1  5 1.5 0.1  5.5 1.5 0.1  6 1.5 0.1  6.5 1.5 0.1  7 1.5 0.1  7.5 1.5 0.1  8 1.5 0.1  8.5 1.5 0.1  9 1.5 0.1  9.5 1.5 0.1  10 1.5 0.1  0 2 0.1  0.5 2 0.1  1 2 0.1  1.5 2 0.1  2 2 0.1  2.5 2 0.1  3 2 0.1  3.5 2 0.1  4 2 0.1  4.5 2 0.1  5 2 0.1  5.5 2 0.1  6 2 0.1  6.5 2 0.1  7 2 0.1  7.5 2 0.1  8 2 0.1  8.5 2 0.1  9 2 0.1  9.5 2 0.1  10 2 0.1  0 2.5 0.1  0.5 2.5 0.1  1 2.5 0.1  1.5 2.5 0.1  2 2.5 0.1  2.5 2.5 0.1  3 2.5 0.1  3.5 2.5 0.1  4 2.5 0.1  4.5 2.5 0.1  5 2.5 0.1  5.5 2.5 0.1  6 2.5 0.1  6.5 2.5 0.1  7 2.5 0.1  7.5 2.5 0.1  8 2.5 0.1  8.5 2.5 0.1  9 2.5 0.1  9.5 2.5 0.1  10 2.5 0.1  0 3 0.1  0.5 3 0.1  1 3 0.1  1.5 3 0.1  2 3 0.1  2.5 3 0.1  3 3 0.1  3.5 3 0.1  4 3 0.1  4.5 3 0.1  5 3 0.1  5.5 3 0.1  6 3 0.1  6.5 3 0.1  7 3 0.1  7.5 3 0.1  8 3 0.1  8.5 3 0.1  9 3 0.1  9.5 3 0.1  10 3 0.1  0 0 0.2  0.5 0 0.2  1 0 0.2  1.5 0 0.2  2 0 0.2  2.5 0 0.2  3 0 0.2  3.5 0 0.2  4 0 0.2  4.5 0 0.2  5 0 0.2  5.5 0 0.2  6 0 0.2  6.5 0 0.2  7 0 0.2  7.5 0 0.2  8 0 0.2  8.5 0 0.2  9 0 0.2  9.5 0 0.2  10 0 0.2  0 0.5 0.2  0.5 0.5 0.2  1 0.5 0.2  1.5 0.5 0.2  2 0.5 0.2  2.5 0.5 0.2  3 0.5 0.2  3.5 0.5 0.2  4 0.5 0.2  4.5 0.5 0.2  5 0.5 0.2  5.5 0.5 0.2  6 0.5 0.2  6.5 0.5 0.2  7 0.5 0.2  7.5 0.5 0.2  8 0.5 0.2  8.5 0.5 0.2  9 0.5 0.2  9.5 0.5 0.2  10 0.5 0.2  0 1 0.2  0.5 1 0.2  1 1 0.2  1.5 1 0.2  2 1 0.2  2.5 1 0.2  3 1 0.2  3.5 1 0.2  4 1 0.2  4.5 1 0.2  5 1 0.2  5.5 1 0.2  6 1 0.2  6.5 1 0.2  7 1 0.2  7.5 1 0.2  8 1 0.2  8.5 1 0.2  9 1 0.2  9.5 1 0.2  10 1 0.2  0 1.5 0.2  0.5 1.5 0.2  1 1.5 0.2  1.5 1.5 0.2  2 1.5 0.2  2.5 1.5 0.2  3 1.5 0.2  3.5 1.5 0.2  4 1.5 0.2  4.5 1.5 0.2  5 1.5 0.2  5.5 1.5 0.2  6 1.5 0.2  6.5 1.5 0.2  7 1.5 0.2  7.5 1.5 0.2  8 1.5 0.2  8.5 1.5 0.2  9 1.5 0.2  9.5 1.5 0.2  10 1.5 0.2  0 2 0.2  0.5 2 0.2  1 2 0.2  1.5 2 0.2  2 2 0.2  2.5 2 0.2  3 2 0.2  3.5 2 0.2  4 2 0.2  4.5 2 0.2  5 2 0.2  5.5 2 0.2  6 2 0.2  6.5 2 0.2  7 2 0.2  7.5 2 0.2  8 2 0.2  8.5 2 0.2  9 2 0.2  9.5 2 0.2  10 2 0.2  0 2.5 0.2  0.5 2.5 0.2  1 2.5 0.2  1.5 2.5 0.2  2 2.5 0.2  2.5 2.5 0.2  3 2.5 0.2  3.5 2.5 0.2  4 2.5 0.2  4.5 2.5 0.2  5 2.5 0.2  5.5 2.5 0.2  6 2.5 0.2  6.5 2.5 0.2  7 2.5 0.2  7.5 2.5 0.2  8 2.5 0.2  8.5 2.5 0.2  9 2.5 0.2  9.5 2.5 0.2  10 2.5 0.2  0 3 0.2  0.5 3 0.2  1 3 0.2  1.5 3 0.2  2 3 0.2  2.5 3 0.2  3 3 0.2  3.5 3 0.2  4 3 0.2  4.5 3 0.2  5 3 0.2  5.5 3 0.2  6 3 0.2  6.5 3 0.2  7 3 0.2  7.5 3 0.2  8 3 0.2  8.5 3 0.2  9 3 0.2  9.5 3 0.2  10 3 0.2  0 0 0.3  0.5 0 0.3  1 0 0.3  1.5 0 0.3  2 0 0.3  2.5 0 0.3  3 0 0.3  3.5 0 0.3  4 0 0.3  4.5 0 0.3  5 0 0.3  5.5 0 0.3  6 0 0.3  6.5 0 0.3  7 0 0.3  7.5 0 0.3  8 0 0.3  8.5 0 0.3  9 0 0.3  9.5 0 0.3  10 0 0.3  0 0.5 0.3  0.5 0.5 0.3  1 0.5 0.3  1.5 0.5 0.3  2 0.5 0.3  2.5 0.5 0.3  3 0.5 0.3  3.5 0.5 0.3  4 0.5 0.3  4.5 0.5 0.3  5 0.5 0.3  5.5 0.5 0.3  6 0.5 0.3  6.5 0.5 0.3  7 0.5 0.3  7.5 0.5 0.3  8 0.5 0.3  8.5 0.5 0.3  9 0.5 0.3  9.5 0.5 0.3  10 0.5 0.3  0 1 0.3  0.5 1 0.3  1 1 0.3  1.5 1 0.3  2 1 0.3  2.5 1 0.3  3 1 0.3  3.5 1 0.3  4 1 0.3  4.5 1 0.3  5 1 0.3  5.5 1 0.3  6 1 0.3  6.5 1 0.3  7 1 0.3  7.5 1 0.3  8 1 0.3  8.5 1 0.3  9 1 0.3  9.5 1 0.3  10 1 0.3  0 1.5 0.3  0.5 1.5 0.3  1 1.5 0.3  1.5 1.5 0.3  2 1.5 0.3  2.5 1.5 0.3  3 1.5 0.3  3.5 1.5 0.3  4 1.5 0.3  4.5 1.5 0.3  5 1.5 0.3  5.5 1.5 0.3  6 1.5 0.3  6.5 1.5 0.3  7 1.5 0.3  7.5 1.5 0.3  8 1.5 0.3  8.5 1.5 0.3  9 1.5 0.3  9.5 1.5 0.3  10 1.5 0.3  0 2 0.3  0.5 2 0.3  1 2 0.3  1.5 2 0.3  2 2 0.3  2.5 2 0.3  3 2 0.3  3.5 2 0.3  4 2 0.3  4.5 2 0.3  5 2 0.3  5.5 2 0.3  6 2 0.3  6.5 2 0.3  7 2 0.3  7.5 2 0.3  8 2 0.3  8.5 2 0.3  9 2 0.3  9.5 2 0.3  10 2 0.3  0 2.5 0.3  0.5 2.5 0.3  1 2.5 0.3  1.5 2.5 0.3  2 2.5 0.3  2.5 2.5 0.3  3 2.5 0.3  3.5 2.5 0.3  4 2.5 0.3  4.5 2.5 0.3  5 2.5 0.3  5.5 2.5 0.3  6 2.5 0.3  6.5 2.5 0.3  7 2.5 0.3  7.5 2.5 0.3  8 2.5 0.3  8.5 2.5 0.3  9 2.5 0.3  9.5 2.5 0.3  10 2.5 0.3  0 3 0.3  0.5 3 0.3  1 3 0.3  1.5 3 0.3  2 3 0.3  2.5 3 0.3  3 3 0.3  3.5 3 0.3  4 3 0.3  4.5 3 0.3  5 3 0.3  5.5 3 0.3  6 3 0.3  6.5 3 0.3  7 3 0.3  7.5 3 0.3  8 3 0.3  8.5 3 0.3  9 3 0.3  9.5 3 0.3  10 3 0.3  0 0 0.4  0.5 0 0.4  1 0 0.4  1.5 0 0.4  2 0 0.4  2.5 0 0.4  3 0 0.4  3.5 0 0.4  4 0 0.4  4.5 0 0.4  5 0 0.4  5.5 0 0.4  6 0 0.4  6.5 0 0.4  7 0 0.4  7.5 0 0.4  8 0 0.4  8.5 0 0.4  9 0 0.4  9.5 0 0.4  10 0 0.4  0 0.5 0.4  0.5 0.5 0.4  1 0.5 0.4  1.5 0.5 0.4  2 0.5 0.4  2.5 0.5 0.4  3 0.5 0.4  3.5 0.5 0.4  4 0.5 0.4  4.5 0.5 0.4  5 0.5 0.4  5.5 0.5 0.4  6 0.5 0.4  6.5 0.5 0.4  7 0.5 0.4  7.5 0.5 0.4  8 0.5 0.4  8.5 0.5 0.4  9 0.5 0.4  9.5 0.5 0.4  10 0.5 0.4  0 1 0.4  0.5 1 0.4  1 1 0.4  1.5 1 0.4  2 1 0.4  2.5 1 0.4  3 1 0.4  3.5 1 0.4  4 1 0.4  4.5 1 0.4  5 1 0.4  5.5 1 0.4  6 1 0.4  6.5 1 0.4  7 1 0.4  7.5 1 0.4  8 1 0.4  8.5 1 0.4  9 1 0.4  9.5 1 0.4  10 1 0.4  0 1.5 0.4  0.5 1.5 0.4  1 1.5 0.4  1.5 1.5 0.4  2 1.5 0.4  2.5 1.5 0.4  3 1.5 0.4  3.5 1.5 0.4  4 1.5 0.4  4.5 1.5 0.4  5 1.5 0.4  5.5 1.5 0.4  6 1.5 0.4  6.5 1.5 0.4  7 1.5 0.4  7.5 1.5 0.4  8 1.5 0.4  8.5 1.5 0.4  9 1.5 0.4  9.5 1.5 0.4  10 1.5 0.4  0 2 0.4  0.5 2 0.4  1 2 0.4  1.5 2 0.4  2 2 0.4  2.5 2 0.4  3 2 0.4  3.5 2 0.4  4 2 0.4  4.5 2 0.4  5 2 0.4  5.5 2 0.4  6 2 0.4  6.5 2 0.4  7 2 0.4  7.5 2 0.4  8 2 0.4  8.5 2 0.4  9 2 0.4  9.5 2 0.4  10 2 0.4  0 2.5 0.4  0.5 2.5 0.4  1 2.5 0.4  1.5 2.5 0.4  2 2.5 0.4  2.5 2.5 0.4  3 2.5 0.4  3.5 2.5 0.4  4 2.5 0.4  4.5 2.5 0.4  5 2.5 0.4  5.5 2.5 0.4  6 2.5 0.4  6.5 2.5 0.4  7 2.5 0.4  7.5 2.5 0.4  8 2.5 0.4  8.5 2.5 0.4  9 2.5 0.4  9.5 2.5 0.4  10 2.5 0.4  0 3 0.4  0.5 3 0.4  1 3 0.4  1.5 3 0.4  2 3 0.4  2.5 3 0.4  3 3 0.4  3.5 3 0.4  4 3 0.4  4.5 3 0.4  5 3 0.4  5.5 3 0.4  6 3 0.4  6.5 3 0.4  7 3 0.4  7.5 3 0.4  8 3 0.4  8.5 3 0.4  9 3 0.4  9.5 3 0.4  10 3 0.4  0 0 0.5  0.5 0 0.5  1 0 0.5  1.5 0 0.5  2 0 0.5  2.5 0 0.5  3 0 0.5  3.5 0 0.5  4 0 0.5  4.5 0 0.5  5 0 0.5  5.5 0 0.5  6 0 0.5  6.5 0 0.5  7 0 0.5  7.5 0 0.5  8 0 0.5  8.5 0 0.5  9 0 0.5  9.5 0 0.5  10 0 0.5  0 0.5 0.5  0.5 0.5 0.5  1 0.5 0.5  1.5 0.5 0.5  2 0.5 0.5  2.5 0.5 0.5  3 0.5 0.5  3.5 0.5 0.5  4 0.5 0.5  4.5 0.5 0.5  5 0.5 0.5  5.5 0.5 0.5  6 0.5 0.5  6.5 0.5 0.5  7 0.5 0.5  7.5 0.5 0.5  8 0.5 0.5  8.5 0.5 0.5  9 0.5 0.5  9.5 0.5 0.5  10 0.5 0.5  0 1 0.5  0.5 1 0.5  1 1 0.5  1.5 1 0.5  2 1 0.5  2.5 1 0.5  3 1 0.5  3.5 1 0.5  4 1 0.5  4.5 1 0.5  5 1 0.5  5.5 1 0.5  6 1 0.5  6.5 1 0.5  7 1 0.5  7.5 1 0.5  8 1 0.5  8.5 1 0.5  9 1 0.5  9.5 1 0.5  10 1 0.5  0 1.5 0.5  0.5 1.5 0.5  1 1.5 0.5  1.5 1.5 0.5  2 1.5 0.5  2.5 1.5 0.5  3 1.5 0.5  3.5 1.5 0.5  4 1.5 0.5  4.5 1.5 0.5  5 1.5 0.5  5.5 1.5 0.5  6 1.5 0.5  6.5 1.5 0.5  7 1.5 0.5  7.5 1.5 0.5  8 1.5 0.5  8.5 1.5 0.5  9 1.5 0.5  9.5 1.5 0.5  10 1.5 0.5  0 2 0.5  0.5 2 0.5  1 2 0.5  1.5 2 0.5  2 2 0.5  2.5 2 0.5  3 2 0.5  3.5 2 0.5  4 2 0.5  4.5 2 0.5  5 2 0.5  5.5 2 0.5  6 2 0.5  6.5 2 0.5  7 2 0.5  7.5 2 0.5  8 2 0.5  8.5 2 0.5  9 2 0.5  9.5 2 0.5  10 2 0.5  0 2.5 0.5  0.5 2.5 0.5  1 2.5 0.5  1.5 2.5 0.5  2 2.5 0.5  2.5 2.5 0.5  3 2.5 0.5  3.5 2.5 0.5  4 2.5 0.5  4.5 2.5 0.5  5 2.5 0.5  5.5 2.5 0.5  6 2.5 0.5  6.5 2.5 0.5  7 2.5 0.5  7.5 2.5 0.5  8 2.5 0.5  8.5 2.5 0.5  9 2.5 0.5  9.5 2.5 0.5  10 2.5 0.5  0 3 0.5  0.5 3 0.5  1 3 0.5  1.5 3 0.5  2 3 0.5  2.5 3 0.5  3 3 0.5  3.5 3 0.5  4 3 0.5  4.5 3 0.5  5 3 0.5  5.5 3 0.5  6 3 0.5  6.5 3 0.5  7 3 0.5  7.5 3 0.5  8 3 0.5  8.5 3 0.5  9 3 0.5  9.5 3 0.5  10 3 0.5  </DataArray>
</Points>
<Cells>
[...]
<PointData  Scalars="f_7-2"> 
<DataArray  type="Float64"  Name="f_7-2"  format="ascii">1.0195892784739455e+00  1.0140938455894608e+00  1.0135589783150694e+00  1.0148183651248772e+00  1.0168806160156947e+00  1.0180643729780690e+00  1.0182584306004767e+00  1.0181983579293010e+00  1.0181484549909645e+00  1.0181320517373995e+00  1.0181358170299362e+00  1.0181440543085500e+00  1.0181500676230968e+00  1.0181533441250088e+00  1.0181550291211736e+00  1.0181560094749109e+00  1.0181566734190006e+00  1.0181571393771967e+00  1.0181574446708044e+00  1.0181576141438207e+00  1.0181576613665191e+00  1.0134707934663048e+00  1.0161052609110182e+00  1.0159172872634561e+00  1.0166925147707646e+00  1.0172537456733137e+00  1.0178246080820104e+00  1.0181102070409465e+00  1.0181419153760942e+00  1.0181386528432361e+00  1.0181411660413036e+00  1.0181463241784123e+00  1.0181506885612597e+00  1.0181534805692580e+00  1.0181551358271659e+00  1.0181561514403377e+00  1.0181568216509198e+00  1.0181572795396348e+00  1.0181575865023067e+00  1.0181577799733363e+00  1.0181578835053571e+00  1.0181579158325973e+00  1.0120481121966509e+00  1.0140302254028597e+00  1.0192451945126240e+00  1.0183899677294794e+00  1.0178192784031657e+00  1.0178804899249803e+00  1.0180176319151686e+00  1.0180958225485486e+00  1.0181370843727864e+00  1.0181523307566813e+00  1.0181561815551794e+00  1.0181563723710059e+00  1.0181563575810060e+00  1.0181567156297617e+00  1.0181571970044210e+00  1.0181575900445825e+00  1.0181578469857417e+00  1.0181579995031285e+00  1.0181580869089735e+00  1.0181581306038774e+00  1.0181581463580966e+00  1.0111218829049362e+00  1.0117779653162828e+00  1.0217766008899050e+00  1.0196808261650410e+00  1.0182741044865873e+00  1.0180306211279071e+00  1.0180482268779676e+00  1.0180967876398750e+00  1.0181438275809171e+00  1.0181619036994203e+00  1.0181632016800404e+00  1.0181605580843758e+00  1.0181588068198106e+00  1.0181582660069910e+00  1.0181582623318082e+00  1.0181583449944240e+00  1.0181583826391616e+00  1.0181583826788634e+00  1.0181583722110370e+00  1.0181583622899752e+00  1.0181583614144416e+00  1.0078080528853353e+00  1.0143977493956968e+00  1.0201467898292702e+00  1.0187825977641780e+00  1.0178430971797960e+00  1.0179216078988076e+00  1.0181082522081064e+00  1.0181496614340053e+00  1.0181619698412681e+00  1.0181681032795213e+00  1.0181666689296611e+00  1.0181632771042000e+00  1.0181610668365608e+00  1.0181599733695181e+00  1.0181594459308048e+00  1.0181591348897310e+00  1.0181589152571380e+00  1.0181587575375590e+00  1.0181586534454163e+00  1.0181585936208937e+00  1.0181585761026584e+00  1.0123951888507567e+00  1.0169387719425271e+00  1.0163265332994067e+00  1.0166123853759450e+00  1.0173558056482686e+00  1.0180174199556957e+00  1.0182399052736442e+00  1.0182252401188310e+00  1.0181906034126627e+00  1.0181742859010416e+00  1.0181680253682759e+00  1.0181650734369703e+00  1.0181632716854851e+00  1.0181618647884338e+00  1.0181607739210710e+00  1.0181599954191636e+00  1.0181594776648104e+00  1.0181591478940146e+00  1.0181589466190821e+00  1.0181588368797421e+00  1.0181588014799623e+00  1.0251079419171418e+00  1.0145593383927722e+00  1.0129813440659803e+00  1.0147093333040824e+00  1.0170352488386043e+00  1.0182861357490534e+00  1.0184112974808432e+00  1.0183043424575342e+00  1.0182275797457798e+00  1.0181864933545208e+00  1.0181702103953072e+00  1.0181666411146628e+00  1.0181653994710460e+00  1.0181638631183429e+00  1.0181622485411845e+00  1.0181609702660943e+00  1.0181601135665879e+00  1.0181595844944022e+00  1.0181592725746549e+00  1.0181591069507556e+00  1.0181590522946249e+00  1.0258097132945851e+00  1.0132590317109513e+00  1.0137577583774700e+00  1.0146424670628758e+00  1.0168742766556556e+00  1.0181102072625416e+00  1.0182672064069012e+00  1.0181981574326722e+00  1.0181493095904435e+00  1.0181317735333542e+00  1.0181355722407390e+00  1.0181439466194460e+00  1.0181500362291298e+00  1.0181533374329255e+00  1.0181550257449301e+00  1.0181560050843996e+00  1.0181566693670732e+00  1.0181571368383044e+00  1.0181574438225554e+00  1.0181576143151740e+00  1.0181576645518118e+00  1.0163808583699292e+00  1.0156328987936056e+00  1.0162350047252995e+00  1.0165573700342958e+00  1.0172785796546493e+00  1.0178289285935320e+00  1.0181030575609684e+00  1.0181434173036574e+00  1.0181371597927178e+00  1.0181403238761606e+00  1.0181463418658889e+00  1.0181508620457449e+00  1.0181536023976103e+00  1.0181551935810287e+00  1.0181561749784092e+00  1.0181568338241520e+00  1.0181572889888060e+00  1.0181575946718366e+00  1.0181577864600386e+00  1.0181578892174599e+00  1.0181579205720428e+00  1.0152445522449571e+00  1.0129887497412566e+00  1.0201591090507474e+00  1.0182473430789896e+00  1.0178575099333147e+00  1.0178556208092131e+00  1.0180074538633166e+00  1.0180954070331105e+00  1.0181363250986613e+00  1.0181531003111401e+00  1.0181566791546270e+00  1.0181564620883254e+00  1.0181563224966590e+00  1.0181566748922932e+00  1.0181571787155241e+00  1.0181575873276998e+00  1.0181578491430778e+00  1.0181580016815315e+00  1.0181580880147256e+00  1.0181581321495663e+00  1.0181581454157005e+00  1.0145920520261786e+00  1.0098329726593829e+00  1.0233816992059448e+00  1.0195518158451913e+00  1.0182643820404549e+00  1.0180066724731245e+00  1.0180521919482588e+00  1.0180950592197795e+00  1.0181425659831336e+00  1.0181633172790201e+00  1.0181634575041694e+00  1.0181605120880515e+00  1.0181587099232310e+00  1.0181582023792384e+00  1.0181582369979902e+00  1.0181583378427033e+00  1.0181583802729071e+00  1.0181583808812036e+00  1.0181583702079380e+00  1.0181583612320582e+00  1.0181583589326850e+00  1.0091538546537919e+00  1.0135101090422285e+00  1.0213111514696716e+00  1.0187396696731248e+00  1.0177735324430066e+00  1.0179268033332052e+00  1.0181184269622170e+00  1.0181475394999584e+00  1.0181609115382004e+00  1.0181687856266179e+00  1.0181666536151803e+00  1.0181632144115147e+00  1.0181609747738616e+00  1.0181599136649953e+00  1.0181594166980681e+00  1.0181591201508962e+00  1.0181589063329342e+00  1.0181587511695909e+00  1.0181586483055640e+00  1.0181585900580790e+00  1.0181585717851556e+00  1.0141817532195154e+00  1.0170719016188741e+00  1.0168227372772147e+00  1.0163489435140181e+00  1.0172686948426117e+00  1.0180143118197258e+00  1.0182538185065044e+00  1.0182239877715569e+00  1.0181893184225259e+00  1.0181735992270031e+00  1.0181677296025029e+00  1.0181649770936692e+00  1.0181632205380420e+00  1.0181618345807983e+00  1.0181607477977106e+00  1.0181599742082614e+00  1.0181594626234451e+00  1.0181591376587287e+00  1.0181589394077877e+00  1.0181588316210346e+00  1.0181587960606975e+00  1.0350570691870156e+00  1.0136249287615806e+00  1.0130071288786031e+00  1.0142529764718138e+00  1.0171972912855116e+00  1.0184291950459832e+00  1.0184271986578974e+00  1.0182899760751170e+00  1.0182281846545520e+00  1.0181847860786455e+00  1.0181692844227674e+00  1.0181664558425707e+00  1.0181654552540822e+00  1.0181638913090791e+00  1.0181622377166735e+00  1.0181609489887664e+00  1.0181600960669901e+00  1.0181595731767845e+00  1.0181592654854812e+00  1.0181591016168852e+00  1.0181590470451498e+00  1.0262971080056464e+00  1.0131052433368712e+00  1.0137324949699331e+00  1.0146214193689935e+00  1.0169229906351038e+00  1.0181369178296391e+00  1.0182662573234578e+00  1.0181970160538774e+00  1.0181488053087708e+00  1.0181312481999880e+00  1.0181354758119987e+00  1.0181439982246396e+00  1.0181500919789896e+00  1.0181533675165653e+00  1.0181550374776958e+00  1.0181560094630560e+00  1.0181566720024238e+00  1.0181571390501740e+00  1.0181574457340692e+00  1.0181576157883314e+00  1.0181576655877840e+00  1.0159015665661910e+00  1.0162118829360380e+00  1.0161887179432849e+00  1.0165172415412018e+00  1.0173138619220123e+00  1.0178148557456834e+00  1.0181004536669078e+00  1.0181443134478199e+00  1.0181362205784270e+00  1.0181400112404393e+00  1.0181464760172991e+00  1.0181509643624629e+00  1.0181536548909580e+00  1.0181552137324206e+00  1.0181561828120416e+00  1.0181568392967157e+00  1.0181572941405412e+00  1.0181575990725888e+00  1.0181577900407164e+00  1.0181578918695453e+00  1.0181579233105496e+00  1.0149805805016163e+00  1.0130637236505557e+00  1.0203698081924280e+00  1.0181486922612841e+00  1.0178758067735554e+00  1.0178333421155445e+00  1.0180064248292164e+00  1.0180949851907100e+00  1.0181356142738724e+00  1.0181535616089334e+00  1.0181568212339762e+00  1.0181564289737566e+00  1.0181562793707906e+00  1.0181566456416262e+00  1.0181571663685618e+00  1.0181575839090518e+00  1.0181578484638798e+00  1.0181580014044125e+00  1.0181580879267145e+00  1.0181581319160948e+00  1.0181581453977118e+00  1.0143447335036555e+00  1.0094264106876396e+00  1.0240737848119321e+00  1.0194137852660909e+00  1.0183194254901224e+00  1.0180055444066909e+00  1.0180569842587770e+00  1.0180918846150002e+00  1.0181421203105188e+00  1.0181638069040340e+00  1.0181633298056105e+00  1.0181604429047417e+00  1.0181586594546945e+00  1.0181581726416975e+00  1.0181582239768283e+00  1.0181583319629195e+00  1.0181583770003524e+00  1.0181583787355657e+00  1.0181583688277491e+00  1.0181583599332804e+00  1.0181583582425935e+00  1.0085853172805612e+00  1.0137168687313849e+00  1.0217364037034737e+00  1.0185784324177700e+00  1.0177956533154375e+00  1.0179147881170971e+00  1.0181204444804044e+00  1.0181443722433383e+00  1.0181608603778207e+00  1.0181688425007518e+00  1.0181664680914611e+00  1.0181631942062559e+00  1.0181609288545876e+00  1.0181598837854449e+00  1.0181593990395421e+00  1.0181591094759399e+00  1.0181588998822266e+00  1.0181587471051075e+00  1.0181586455647680e+00  1.0181585878554062e+00  1.0181585697361450e+00  1.0142426640484115e+00  1.0178155627568610e+00  1.0167773247079512e+00  1.0161696368137181e+00  1.0173064910641776e+00  1.0180271650355350e+00  1.0182541389909119e+00  1.0182223660836986e+00  1.0181888350966068e+00  1.0181730522367427e+00  1.0181674353939056e+00  1.0181649647669844e+00  1.0181632025557017e+00  1.0181618231820797e+00  1.0181607321259747e+00  1.0181599607856315e+00  1.0181594535535290e+00  1.0181591317967031e+00  1.0181589353667864e+00  1.0181588284794363e+00  1.0181587927297839e+00  1.0341712261657197e+00  1.0136682042865452e+00  1.0126524969143804e+00  1.0142381527444251e+00  1.0174365820894071e+00  1.0184230944045523e+00  1.0184144217109676e+00  1.0182867203125880e+00  1.0182298233215570e+00  1.0181837763515145e+00  1.0181693298748766e+00  1.0181665270315934e+00  1.0181654865248051e+00  1.0181638915448388e+00  1.0181622278188784e+00  1.0181609424981599e+00  1.0181600926856904e+00  1.0181595716019107e+00  1.0181592646854389e+00  1.0181591011709687e+00  1.0181590470846211e+00  1.0252692803741599e+00  1.0131474218543179e+00  1.0137735944648860e+00  1.0146130612214956e+00  1.0169292581666101e+00  1.0181300337429620e+00  1.0182647062168739e+00  1.0181973040866836e+00  1.0181487213875680e+00  1.0181312691172928e+00  1.0181355287216132e+00  1.0181440178836370e+00  1.0181500970998723e+00  1.0181533680639405e+00  1.0181550375263353e+00  1.0181560098873430e+00  1.0181566725361264e+00  1.0181571394988300e+00  1.0181574461807554e+00  1.0181576158338224e+00  1.0181576657474070e+00  1.0151237265624324e+00  1.0165478220353017e+00  1.0161164942632899e+00  1.0165087656840623e+00  1.0173123574544312e+00  1.0178014058529012e+00  1.0181002448705587e+00  1.0181446184544600e+00  1.0181360377506594e+00  1.0181401217142798e+00  1.0181465144623247e+00  1.0181509337702164e+00  1.0181536274124185e+00  1.0181551962630226e+00  1.0181561741958163e+00  1.0181568353893102e+00  1.0181572921032767e+00  1.0181575977793216e+00  1.0181577891572071e+00  1.0181578910165237e+00  1.0181579229791327e+00  1.0142045882362529e+00  1.0133256748464594e+00  1.0202275023638263e+00  1.0181400341466109e+00  1.0178813733306498e+00  1.0178271686887386e+00  1.0180098678686735e+00  1.0180935145432286e+00  1.0181352556767835e+00  1.0181535568520068e+00  1.0181566876725314e+00  1.0181563522657235e+00  1.0181562439225624e+00  1.0181566255041086e+00  1.0181571554791895e+00  1.0181575774292220e+00  1.0181578443710397e+00  1.0181579988064335e+00  1.0181580862441617e+00  1.0181581305917740e+00  1.0181581444638288e+00  1.0135811904959404e+00  1.0096950941122096e+00  1.0240515413797433e+00  1.0193780152625982e+00  1.0183352674996493e+00  1.0179981963163265e+00  1.0180580069983387e+00  1.0180900519506075e+00  1.0181421595703690e+00  1.0181636181743010e+00  1.0181631267435882e+00  1.0181603973418432e+00  1.0181586282988904e+00  1.0181581533904611e+00  1.0181582122176971e+00  1.0181583245153223e+00  1.0181583725511589e+00  1.0181583761580806e+00  1.0181583672587877e+00  1.0181583587859062e+00  1.0181583574054460e+00  1.0083578688935431e+00  1.0140111331996826e+00  1.0216447900483072e+00  1.0185306765623345e+00  1.0178197487666365e+00  1.0178996164322609e+00  1.0181210040317994e+00  1.0181431473324487e+00  1.0181612777349651e+00  1.0181685140261389e+00  1.0181663611470240e+00  1.0181631740681099e+00  1.0181608921826162e+00  1.0181598653746271e+00  1.0181593875358412e+00  1.0181591027237999e+00  1.0181588960037284e+00  1.0181587447883214e+00  1.0181586440072412e+00  1.0181585867741056e+00  1.0181585687392734e+00  1.0138526173561564e+00  1.0179104363203588e+00  1.0166503344140607e+00  1.0161658783384264e+00  1.0173446826809742e+00  1.0180159411375214e+00  1.0182550374222206e+00  1.0182224723787556e+00  1.0181892331939046e+00  1.0181728562702979e+00  1.0181674200563360e+00  1.0181649658044287e+00  1.0181631787661982e+00  1.0181618181288146e+00  1.0181607285898089e+00  1.0181599593164554e+00  1.0181594528570890e+00  1.0181591313111464e+00  1.0181589349693210e+00  1.0181588282535274e+00  1.0181587922836699e+00  1.0335493805726093e+00  1.0140367558929024e+00  1.0124688239282160e+00  1.0143237393242588e+00  1.0174560436264215e+00  1.0183832468436054e+00  1.0184209612728701e+00  1.0182872187755068e+00  1.0182302039503150e+00  1.0181835245511002e+00  1.0181695537898063e+00  1.0181665192291478e+00  1.0181654761194163e+00  1.0181638929427332e+00  1.0181622278511671e+00  1.0181609448300022e+00  1.0181600940677993e+00  1.0181595723958188e+00  1.0181592651475233e+00  1.0181591014914300e+00  1.0181590473890636e+00  1.0225357928394561e+00  1.0143494735700307e+00  1.0134650411537192e+00  1.0147201374906059e+00  1.0168911506952998e+00  1.0181044493843729e+00  1.0182649783773183e+00  1.0181970738640755e+00  1.0181486076011366e+00  1.0181316409019383e+00  1.0181356360077813e+00  1.0181440462319302e+00  1.0181500943084443e+00  1.0181533639770584e+00  1.0181550376265851e+00  1.0181560119945559e+00  1.0181566744667523e+00  1.0181571407729346e+00  1.0181574466824619e+00  1.0181576156018104e+00  1.0181576657744900e+00  1.0142759684538061e+00  1.0167577120399203e+00  1.0158150793950167e+00  1.0165766970675467e+00  1.0172830778241870e+00  1.0178111583258325e+00  1.0181002341769323e+00  1.0181427858122707e+00  1.0181367760929709e+00  1.0181403005311405e+00  1.0181463891230087e+00  1.0181508192182895e+00  1.0181535529401105e+00  1.0181551590547870e+00  1.0181561559338563e+00  1.0181568246068373e+00  1.0181572844098077e+00  1.0181575920476602e+00  1.0181577846732814e+00  1.0181578875063493e+00  1.0181579204635280e+00  1.0130187311927850e+00  1.0139675424486652e+00  1.0196172968935244e+00  1.0182616886985802e+00  1.0178575967545589e+00  1.0178455193204581e+00  1.0180076366303756e+00  1.0180935617070277e+00  1.0181352109513007e+00  1.0181528577911945e+00  1.0181564048078937e+00  1.0181562654617897e+00  1.0181562206305237e+00  1.0181566162773321e+00  1.0181571460978007e+00  1.0181575686509476e+00  1.0181578379136134e+00  1.0181579947341666e+00  1.0181580835423831e+00  1.0181581286627237e+00  1.0181581431825950e+00  1.0125548698394082e+00  1.0107282299340636e+00  1.0231756663591873e+00  1.0195160393571969e+00  1.0182778947990681e+00  1.0180022580946593e+00  1.0180507024073107e+00  1.0180920334825665e+00  1.0181419551345208e+00  1.0181627602362604e+00  1.0181629472660407e+00  1.0181603129054964e+00  1.0181586101582720e+00  1.0181581444604757e+00  1.0181582032154124e+00  1.0181583168757604e+00  1.0181583674573795e+00  1.0181583732415938e+00  1.0181583655263473e+00  1.0181583577639264e+00  1.0181583565785972e+00  1.0088181670400722e+00  1.0143494815061267e+00  1.0210133389939724e+00  1.0186641823218943e+00  1.0177977341807196e+00  1.0179067160198840e+00  1.0181164281624044e+00  1.0181450873012121e+00  1.0181610233662441e+00  1.0181681218670922e+00  1.0181662769050672e+00  1.0181630965768609e+00  1.0181608844921046e+00  1.0181598640823313e+00  1.0181593874325068e+00  1.0181591020551344e+00  1.0181588955158511e+00  1.0181587446823053e+00  1.0181586441876724e+00  1.0181585871250916e+00  1.0181585690562340e+00  1.0130791980047633e+00  1.0177961280491816e+00  1.0164369099114088e+00  1.0163566427096564e+00  1.0173107489572857e+00  1.0180116098164032e+00  1.0182517920414251e+00  1.0182237519220831e+00  1.0181893255426111e+00  1.0181733179950454e+00  1.0181675403346819e+00  1.0181649510896127e+00  1.0181631703288316e+00  1.0181618191058346e+00  1.0181607371421999e+00  1.0181599673068791e+00  1.0181594586871656e+00  1.0181591352153374e+00  1.0181589378769553e+00  1.0181588308471925e+00  1.0181587943534141e+00  1.0294431589319959e+00  1.0147062177460875e+00  1.0122704598346566e+00  1.0144267765586765e+00  1.0173298286164532e+00  1.0183692813767629e+00  1.0184234290680896e+00  1.0182877277378597e+00  1.0182295948199660e+00  1.0181839415109237e+00  1.0181696706359704e+00  1.0181665129610842e+00  1.0181654628658119e+00  1.0181638888632512e+00  1.0181622274174076e+00  1.0181609464109533e+00  1.0181600953459509e+00  1.0181595732627851e+00  1.0181592658382850e+00  1.0181591021849441e+00  1.0181590481192089e+00  1.0310716080430602e+00  1.0122517997631664e+00  1.0139034558931845e+00  1.0146369190520896e+00  1.0168336959018109e+00  1.0180778961595669e+00  1.0182547985262922e+00  1.0181963404287346e+00  1.0181510960665545e+00  1.0181324955259550e+00  1.0181358276685164e+00  1.0181439274054747e+00  1.0181499594337056e+00  1.0181532897109238e+00  1.0181550062833558e+00  1.0181559983497881e+00  1.0181566657987742e+00  1.0181571336300734e+00  1.0181574403092100e+00  1.0181576100841756e+00  1.0181576626790660e+00  1.0237417951958205e+00  1.0122134262831219e+00  1.0166016363643409e+00  1.0164924350314326e+00  1.0173339595691919e+00  1.0178119696008634e+00  1.0180786469191441e+00  1.0181423126545495e+00  1.0181371904876930e+00  1.0181403485969480e+00  1.0181463917158993e+00  1.0181507207166283e+00  1.0181534670596541e+00  1.0181551042010057e+00  1.0181561247692528e+00  1.0181568062123858e+00  1.0181572723410477e+00  1.0181575833612324e+00  1.0181577777708934e+00  1.0181578826387190e+00  1.0181579136751293e+00  1.0238146701929354e+00  1.0106962099159733e+00  1.0202308355108960e+00  1.0180834827843435e+00  1.0179173080556763e+00  1.0178216216485065e+00  1.0180155937353073e+00  1.0180954607042765e+00  1.0181338523369980e+00  1.0181527551926199e+00  1.0181561879611352e+00  1.0181561130384582e+00  1.0181561411103499e+00  1.0181565717505583e+00  1.0181571202235615e+00  1.0181575516918924e+00  1.0181578262509201e+00  1.0181579865898758e+00  1.0181580775836709e+00  1.0181581247702298e+00  1.0181581381295541e+00  1.0222458991479852e+00  1.0079440686046597e+00  1.0232662966638879e+00  1.0191848767630751e+00  1.0182697252568356e+00  1.0179544359103021e+00  1.0180635018154811e+00  1.0180949537573849e+00  1.0181409682652027e+00  1.0181621886221348e+00  1.0181622971127851e+00  1.0181601501717048e+00  1.0181585867341232e+00  1.0181581497386620e+00  1.0181582038413919e+00  1.0181583113414718e+00  1.0181583615543288e+00  1.0181583692518030e+00  1.0181583631324467e+00  1.0181583569627348e+00  1.0181583544921233e+00  1.0178862162183506e+00  1.0110863120506133e+00  1.0215939395380365e+00  1.0183366809434591e+00  1.0178345826954835e+00  1.0179253271712738e+00  1.0181245822669820e+00  1.0181445299199248e+00  1.0181618729136697e+00  1.0181679531981311e+00  1.018165753028648