<?xml version="1.0"?>
<VTKFile type="UnstructuredGrid"  version="0.1"  >
<UnstructuredGrid>
<Piece  NumberOfPoints="882" NumberOfCells="3600">
<Points>
<DataArray  type="Float64"  NumberOfComponents="3"  format="ascii">0 0 0  0.5 0 0  1 0 0  1.5 0 0  2 0 0  2.5 0 0  3 0 0  3.5 0 0  4 0 0  4.5 0 0  5 0 0  5.5 0 0  6 0 0  6.5 0 0  7 0 0  7.5 0 0  8 0 0  8.5 0 0  9 0 0  9.5 0 0  10 0 0  0 0.5 0  0.5 0.5 0  1 0.5 0  1.5 0.5 0  2 0.5 0  2.5 0.5 0  3 0.5 0  3.5 0.5 0  4 0.5 0  4.5 0.5 0  5 0.5 0  5.5 0.5 0  6 0.5 0  6.5 0.5 0  7 0.5 0  7.5 0.5 0  8 0.5 0  8.5 0.5 0  9 0.5 0  9.5 0.5 0  10 0.5 0  0 1 0  0.5 1 0  1 1 0  1.5 1 0  2 1 0  2.5 1 0  3 1 0  3.5 1 0  4 1 0  4.5 1 0  5 1 0  5.5 1 0  6 1 0  6.5 1 0  7 1 0  7.5 1 0  8 1 0  8.5 1 0  9 1 0  9.5 1 0  10 1 0  0 1.5 0  0.5 1.5 0  1 1.5 0  1.5 1.5 0  2 1.5 0  2.5 1.5 0  3 1.5 0  3.5 1.5 0  4 1.5 0  4.5 1.5 0  5 1.5 0  5.5 1.5 0  6 1.5 0  6.5 1.5 0  7 1.5 0  7.5 1.5 0  8 1.5 0  8.5 1.5 0  9 1.5 0  9.5 1.5 0  10 1.5 0  0 2 0  0.5 2 0  1 2 0  1.5 2 0  2 2 0  2.5 2 0  3 2 0  3.5 2 0  4 2 0  4.5 2 0  5 2 0  5.5 2 0  6 2 0  6.5 2 0  7 2 0  7.5 2 0  8 2 0  8.5 2 0  9 2 0  9.5 2 0  10 2 0  0 2.5 0  0.5 2.5 0  1 2.5 0  1.5 2.5 0  2 2.5 0  2.5 2.5 0  3 2.5 0  3.5 2.5 0  4 2.5 0  4.5 2.5 0  5 2.5 0  5.5 2.5 0  6 2.5 0  6.5 2.5 0  7 2.5 0  7.5 2.5 0  8 2.5 0  8.5 2.5 0  9 2.5 0  9.5 2.5 0  10 2.5 0  0 3 0  0.5 3 0  1 3 0  1.5 3 0  2 3 0  2.5 3 0  3 3 0  3.5 3 0  4 3 0  4.5 3 0  5 3 0  5.5 3 0  6 3 0  6.5 3 0  7 3 0  7.5 3 0  8 3 0  8.5 3 0  9 3 0  9.5 3 0  10 3 0  0 0 0.1  0.5 0 0.1  1 0 0.1  1.5 0 0.1  2 0 0.1  2.5 0 0.1  3 0 0.1  3.5 0 0.1  4 0 0.1  4.5 0 0.1  5 0 0.1  5.5 0 0.1  6 0 0.1  6.5 0 0.1  7 0 0.1  7.5 0 0.1  8 0 0.1  8.5 0 0.1  9 0 0.1  9.5 0 0.1  10 0 0.1  0 0.5 0.1  0.5 0.5 0.1  1 0.5 0.1  1.5 0.5 0.1  2 0.5 0.1  2.5 0.5 0.1  3 0.5 0.1  3.5 0.5 0.1  4 0.5 0.1  4.5 0.5 0.1  5 0.5 0.1  5.5 0.5 0.1  6 0.5 0.1  6.5 0.5 0.1  7 0.5 0.1  7.5 0.5 0.1  8 0.5 0.1  8.5 0.5 0.1  9 0.5 0.1  9.5 0.5 0.1  10 0.5 0.1  0 1 0.1  0.5 1 0.1  1 1 0.1  1.5 1 0.1  2 1 0.1  2.5 1 0.1  3 1 0.1  3.5 1 0.1  4 1 0.1  4.5 1 0.1  5 1 0.1  5.5 1 0.1  6 1 0.1  6.5 1 0.1  7 1 0.1  7.5 1 0.1  8 1 0.1  8.5 1 0.1  9 1 0.1  9.5 1 0.1  10 1 0.1  0 1.5 0.1  0.5 1.5 0.1  1 1.5 0.1  1.5 1.5 0.1  2 1.5 0.1  2.5 1.5 0.1  3 1.5 0.1  3.5 1.5 0.1  4 1.5 0.1  4.5 1.5 0.1  5 1.5 0.1  5.5 1.5 0.1  6 1.5 0.1  6.5 1.5 0.1  7 1.5 0.1  7.5 1.5 0.1  8 1.5 0.1  8.5 1.5 0.1  9 1.5 0.1  9.5 1.5 0.1  10 1.5 0.1  0 2 0.1  0.5 2 0.1  1 2 0.1  1.5 2 0.1  2 2 0.1  2.5 2 0.1  3 2 0.1  3.5 2 0.1  4 2 0.1  4.5 2 0.1  5 2 0.1  5.5 2 0.1  6 2 0.1  6.5 2 0.1  7 2 0.1  7.5 2 0.1  8 2 0.1  8.5 2 0.1  9 2 0.1  9.5 2 0.1  10 2 0.1  0 2.5 0.1  0.5 2.5 0.1  1 2.5 0.1  1.5 2.5 0.1  2 2.5 0.1  2.5 2.5 0.1  3 2.5 0.1  3.5 2.5 0.1  4 2.5 0.1  4.5 2.5 0.1  5 2.5 0.1  5.5 2.5 0.1  6 2.5 0.1  6.5 2.5 0.1  7 2.5 0.1  7.5 2.5 0.1  8 2.5 0.1  8.5 2.5 0.1  9 2.5 0.1  9.5 2.5 0.1  10 2.5 0.1  0 3 0.1  0.5 3 0.1  1 3 0.1  1.5 3 0.1  2 3 0.1  2.5 3 0.1  3 3 0.1  3.5 3 0.1  4 3 0.1  4.5 3 0.1  5 3 0.1  5.5 3 0.1  6 3 0.1  6.5 3 0.1  7 3 0.1  7.5 3 0.1  8 3 0.1  8.5 3 0.1  9 3 0.1  9.5 3 0.1  10 3 0.1  0 0 0.2  0.5 0 0.2  1 0 0.2  1.5 0 0.2  2 0 0.2  2.5 0 0.2  3 0 0.2  3.5 0 0.2  4 0 0.2  4.5 0 0.2  5 0 0.2  5.5 0 0.2  6 0 0.2  6.5 0 0.2  7 0 0.2  7.5 0 0.2  8 0 0.2  8.5 0 0.2  9 0 0.2  9.5 0 0.2  10 0 0.2  0 0.5 0.2  0.5 0.5 0.2  1 0.5 0.2  1.5 0.5 0.2  2 0.5 0.2  2.5 0.5 0.2  3 0.5 0.2  3.5 0.5 0.2  4 0.5 0.2  4.5 0.5 0.2  5 0.5 0.2  5.5 0.5 0.2  6 0.5 0.2  6.5 0.5 0.2  7 0.5 0.2  7.5 0.5 0.2  8 0.5 0.2  8.5 0.5 0.2  9 0.5 0.2  9.5 0.5 0.2  10 0.5 0.2  0 1 0.2  0.5 1 0.2  1 1 0.2  1.5 1 0.2  2 1 0.2  2.5 1 0.2  3 1 0.2  3.5 1 0.2  4 1 0.2  4.5 1 0.2  5 1 0.2  5.5 1 0.2  6 1 0.2  6.5 1 0.2  7 1 0.2  7.5 1 0.2  8 1 0.2  8.5 1 0.2  9 1 0.2  9.5 1 0.2  10 1 0.2  0 1.5 0.2  0.5 1.5 0.2  1 1.5 0.2  1.5 1.5 0.2  2 1.5 0.2  2.5 1.5 0.2  3 1.5 0.2  3.5 1.5 0.2  4 1.5 0.2  4.5 1.5 0.2  5 1.5 0.2  5.5 1.5 0.2  6 1.5 0.2  6.5 1.5 0.2  7 1.5 0.2  7.5 1.5 0.2  8 1.5 0.2  8.5 1.5 0.2  9 1.5 0.2  9.5 1.5 0.2  10 1.5 0.2  0 2 0.2  0.5 2 0.2  1 2 0.2  1.5 2 0.2  2 2 0.2  2.5 2 0.2  3 2 0.2  3.5 2 0.2  4 2 0.2  4.5 2 0.2  5 2 0.2  5.5 2 0.2  6 2 0.2  6.5 2 0.2  7 2 0.2  7.5 2 0.2  8 2 0.2  8.5 2 0.2  9 2 0.2  9.5 2 0.2  10 2 0.2  0 2.5 0.2  0.5 2.5 0.2  1 2.5 0.2  1.5 2.5 0.2  2 2.5 0.2  2.5 2.5 0.2  3 2.5 0.2  3.5 2.5 0.2  4 2.5 0.2  4.5 2.5 0.2  5 2.5 0.2  5.5 2.5 0.2  6 2.5 0.2  6.5 2.5 0.2  7 2.5 0.2  7.5 2.5 0.2  8 2.5 0.2  8.5 2.5 0.2  9 2.5 0.2  9.5 2.5 0.2  10 2.5 0.2  0 3 0.2  0.5 3 0.2  1 3 0.2  1.5 3 0.2  2 3 0.2  2.5 3 0.2  3 3 0.2  3.5 3 0.2  4 3 0.2  4.5 3 0.2  5 3 0.2  5.5 3 0.2  6 3 0.2  6.5 3 0.2  7 3 0.2  7.5 3 0.2  8 3 0.2  8.5 3 0.2  9 3 0.2  9.5 3 0.2  10 3 0.2  0 0 0.3  0.5 0 0.3  1 0 0.3  1.5 0 0.3  2 0 0.3  2.5 0 0.3  3 0 0.3  3.5 0 0.3  4 0 0.3  4.5 0 0.3  5 0 0.3  5.5 0 0.3  6 0 0.3  6.5 0 0.3  7 0 0.3  7.5 0 0.3  8 0 0.3  8.5 0 0.3  9 0 0.3  9.5 0 0.3  10 0 0.3  0 0.5 0.3  0.5 0.5 0.3  1 0.5 0.3  1.5 0.5 0.3  2 0.5 0.3  2.5 0.5 0.3  3 0.5 0.3  3.5 0.5 0.3  4 0.5 0.3  4.5 0.5 0.3  5 0.5 0.3  5.5 0.5 0.3  6 0.5 0.3  6.5 0.5 0.3  7 0.5 0.3  7.5 0.5 0.3  8 0.5 0.3  8.5 0.5 0.3  9 0.5 0.3  9.5 0.5 0.3  10 0.5 0.3  0 1 0.3  0.5 1 0.3  1 1 0.3  1.5 1 0.3  2 1 0.3  2.5 1 0.3  3 1 0.3  3.5 1 0.3  4 1 0.3  4.5 1 0.3  5 1 0.3  5.5 1 0.3  6 1 0.3  6.5 1 0.3  7 1 0.3  7.5 1 0.3  8 1 0.3  8.5 1 0.3  9 1 0.3  9.5 1 0.3  10 1 0.3  0 1.5 0.3  0.5 1.5 0.3  1 1.5 0.3  1.5 1.5 0.3  2 1.5 0.3  2.5 1.5 0.3  3 1.5 0.3  3.5 1.5 0.3  4 1.5 0.3  4.5 1.5 0.3  5 1.5 0.3  5.5 1.5 0.3  6 1.5 0.3  6.5 1.5 0.3  7 1.5 0.3  7.5 1.5 0.3  8 1.5 0.3  8.5 1.5 0.3  9 1.5 0.3  9.5 1.5 0.3  10 1.5 0.3  0 2 0.3  0.5 2 0.3  1 2 0.3  1.5 2 0.3  2 2 0.3  2.5 2 0.3  3 2 0.3  3.5 2 0.3  4 2 0.3  4.5 2 0.3  5 2 0.3  5.5 2 0.3  6 2 0.3  6.5 2 0.3  7 2 0.3  7.5 2 0.3  8 2 0.3  8.5 2 0.3  9 2 0.3  9.5 2 0.3  10 2 0.3  0 2.5 0.3  0.5 2.5 0.3  1 2.5 0.3  1.5 2.5 0.3  2 2.5 0.3  2.5 2.5 0.3  3 2.5 0.3  3.5 2.5 0.3  4 2.5 0.3  4.5 2.5 0.3  5 2.5 0.3  5.5 2.5 0.3  6 2.5 0.3  6.5 2.5 0.3  7 2.5 0.3  7.5 2.5 0.3  8 2.5 0.3  8.5 2.5 0.3  9 2.5 0.3  9.5 2.5 0.3  10 2.5 0.3  0 3 0.3  0.5 3 0.3  1 3 0.3  1.5 3 0.3  2 3 0.3  2.5 3 0.3  3 3 0.3  3.5 3 0.3  4 3 0.3  4.5 3 0.3  5 3 0.3  5.5 3 0.3  6 3 0.3  6.5 3 0.3  7 3 0.3  7.5 3 0.3  8 3 0.3  8.5 3 0.3  9 3 0.3  9.5 3 0.3  10 3 0.3  0 0 0.4  0.5 0 0.4  1 0 0.4  1.5 0 0.4  2 0 0.4  2.5 0 0.4  3 0 0.4  3.5 0 0.4  4 0 0.4  4.5 0 0.4  5 0 0.4  5.5 0 0.4  6 0 0.4  6.5 0 0.4  7 0 0.4  7.5 0 0.4  8 0 0.4  8.5 0 0.4  9 0 0.4  9.5 0 0.4  10 0 0.4  0 0.5 0.4  0.5 0.5 0.4  1 0.5 0.4  1.5 0.5 0.4  2 0.5 0.4  2.5 0.5 0.4  3 0.5 0.4  3.5 0.5 0.4  4 0.5 0.4  4.5 0.5 0.4  5 0.5 0.4  5.5 0.5 0.4  6 0.5 0.4  6.5 0.5 0.4  7 0.5 0.4  7.5 0.5 0.4  8 0.5 0.4  8.5 0.5 0.4  9 0.5 0.4  9.5 0.5 0.4  10 0.5 0.4  0 1 0.4  0.5 1 0.4  1 1 0.4  1.5 1 0.4  2 1 0.4  2.5 1 0.4  3 1 0.4  3.5 1 0.4  4 1 0.4  4.5 1 0.4  5 1 0.4  5.5 1 0.4  6 1 0.4  6.5 1 0.4  7 1 0.4  7.5 1 0.4  8 1 0.4  8.5 1 0.4  9 1 0.4  9.5 1 0.4  10 1 0.4  0 1.5 0.4  0.5 1.5 0.4  1 1.5 0.4  1.5 1.5 0.4  2 1.5 0.4  2.5 1.5 0.4  3 1.5 0.4  3.5 1.5 0.4  4 1.5 0.4  4.5 1.5 0.4  5 1.5 0.4  5.5 1.5 0.4  6 1.5 0.4  6.5 1.5 0.4  7 1.5 0.4  7.5 1.5 0.4  8 1.5 0.4  8.5 1.5 0.4  9 1.5 0.4  9.5 1.5 0.4  10 1.5 0.4  0 2 0.4  0.5 2 0.4  1 2 0.4  1.5 2 0.4  2 2 0.4  2.5 2 0.4  3 2 0.4  3.5 2 0.4  4 2 0.4  4.5 2 0.4  5 2 0.4  5.5 2 0.4  6 2 0.4  6.5 2 0.4  7 2 0.4  7.5 2 0.4  8 2 0.4  8.5 2 0.4  9 2 0.4  9.5 2 0.4  10 2 0.4  0 2.5 0.4  0.5 2.5 0.4  1 2.5 0.4  1.5 2.5 0.4  2 2.5 0.4  2.5 2.5 0.4  3 2.5 0.4  3.5 2.5 0.4  4 2.5 0.4  4.5 2.5 0.4  5 2.5 0.4  5.5 2.5 0.4  6 2.5 0.4  6.5 2.5 0.4  7 2.5 0.4  7.5 2.5 0.4  8 2.5 0.4  8.5 2.5 0.4  9 2.5 0.4  9.5 2.5 0.4  10 2.5 0.4  0 3 0.4  0.5 3 0.4  1 3 0.4  1.5 3 0.4  2 3 0.4  2.5 3 0.4  3 3 0.4  3.5 3 0.4  4 3 0.4  4.5 3 0.4  5 3 0.4  5.5 3 0.4  6 3 0.4  6.5 3 0.4  7 3 0.4  7.5 3 0.4  8 3 0.4  8.5 3 0.4  9 3 0.4  9.5 3 0.4  10 3 0.4  0 0 0.5  0.5 0 0.5  1 0 0.5  1.5 0 0.5  2 0 0.5  2.5 0 0.5  3 0 0.5  3.5 0 0.5  4 0 0.5  4.5 0 0.5  5 0 0.5  5.5 0 0.5  6 0 0.5  6.5 0 0.5  7 0 0.5  7.5 0 0.5  8 0 0.5  8.5 0 0.5  9 0 0.5  9.5 0 0.5  10 0 0.5  0 0.5 0.5  0.5 0.5 0.5  1 0.5 0.5  1.5 0.5 0.5  2 0.5 0.5  2.5 0.5 0.5  3 0.5 0.5  3.5 0.5 0.5  4 0.5 0.5  4.5 0.5 0.5  5 0.5 0.5  5.5 0.5 0.5  6 0.5 0.5  6.5 0.5 0.5  7 0.5 0.5  7.5 0.5 0.5  8 0.5 0.5  8.5 0.5 0.5  9 0.5 0.5  9.5 0.5 0.5  10 0.5 0.5  0 1 0.5  0.5 1 0.5  1 1 0.5  1.5 1 0.5  2 1 0.5  2.5 1 0.5  3 1 0.5  3.5 1 0.5  4 1 0.5  4.5 1 0.5  5 1 0.5  5.5 1 0.5  6 1 0.5  6.5 1 0.5  7 1 0.5  7.5 1 0.5  8 1 0.5  8.5 1 0.5  9 1 0.5  9.5 1 0.5  10 1 0.5  0 1.5 0.5  0.5 1.5 0.5  1 1.5 0.5  1.5 1.5 0.5  2 1.5 0.5  2.5 1.5 0.5  3 1.5 0.5  3.5 1.5 0.5  4 1.5 0.5  4.5 1.5 0.5  5 1.5 0.5  5.5 1.5 0.5  6 1.5 0.5  6.5 1.5 0.5  7 1.5 0.5  7.5 1.5 0.5  8 1.5 0.5  8.5 1.5 0.5  9 1.5 0.5  9.5 1.5 0.5  10 1.5 0.5  0 2 0.5  0.5 2 0.5  1 2 0.5  1.5 2 0.5  2 2 0.5  2.5 2 0.5  3 2 0.5  3.5 2 0.5  4 2 0.5  4.5 2 0.5  5 2 0.5  5.5 2 0.5  6 2 0.5  6.5 2 0.5  7 2 0.5  7.5 2 0.5  8 2 0.5  8.5 2 0.5  9 2 0.5  9.5 2 0.5  10 2 0.5  0 2.5 0.5  0.5 2.5 0.5  1 2.5 0.5  1.5 2.5 0.5  2 2.5 0.5  2.5 2.5 0.5  3 2.5 0.5  3.5 2.5 0.5  4 2.5 0.5  4.5 2.5 0.5  5 2.5 0.5  5.5 2.5 0.5  6 2.5 0.5  6.5 2.5 0.5  7 2.5 0.5  7.5 2.5 0.5  8 2.5 0.5  8.5 2.5 0.5  9 2.5 0.5  9.5 2.5 0.5  10 2.5 0.5  0 3 0.5  0.5 3 0.5  1 3 0.5  1.5 3 0.5  2 3 0.5  2.5 3 0.5  3 3 0.5  3.5 3 0.5  4 3 0.5  4.5 3 0.5  5 3 0.5  5.5 3 0.5  6 3 0.5  6.5 3 0.5  7 3 0.5  7.5 3 0.5  8 3 0.5  8.5 3 0.5  9 3 0.5  9.5 3 0.5  10 3 0.5  </DataArray>
</Points>
<Cells>
[...]
<PointData  Scalars="f_7-2"> 
<DataArray  type="Float64"  Name="f_7-2"  format="ascii">1.0255734760383535e+00  1.0182872432080616e+00  1.0174727536719352e+00  1.0203188319396190e+00  1.0235980478426232e+00  1.0245315998787266e+00  1.0243767803062640e+00  1.0242109438445641e+00  1.0241745821011652e+00  1.0241879834279333e+00  1.0242026845108034e+00  1.0242093007652868e+00  1.0242112060329360e+00  1.0242117204717609e+00  1.0242120569448567e+00  1.0242123676782791e+00  1.0242125968871334e+00  1.0242127341533933e+00  1.0242128062958085e+00  1.0242128402336199e+00  1.0242128488831068e+00  1.0131577079488998e+00  1.0205734019998194e+00  1.0205871078979938e+00  1.0230708599308291e+00  1.0241697280701807e+00  1.0242312109561369e+00  1.0241935221816656e+00  1.0241893053478859e+00  1.0241971200859765e+00  1.0242045209626160e+00  1.0242088189938545e+00  1.0242107449032989e+00  1.0242115986990656e+00  1.0242120819910618e+00  1.0242124045821996e+00  1.0242126149407060e+00  1.0242127422450442e+00  1.0242128150370449e+00  1.0242128550346734e+00  1.0242128746834429e+00  1.0242128804133810e+00  1.0121173232801706e+00  1.0162560564937382e+00  1.0252221229785334e+00  1.0249726989389019e+00  1.0240840738571433e+00  1.0239099613775633e+00  1.0240782082571207e+00  1.0241987296822472e+00  1.0242229104238154e+00  1.0242174381612232e+00  1.0242124627943541e+00  1.0242113670950439e+00  1.0242118784642948e+00  1.0242124487628774e+00  1.0242127276551856e+00  1.0242128232800660e+00  1.0242128575826686e+00  1.0242128783728939e+00  1.0242128938079862e+00  1.0242129026704054e+00  1.0242129060974152e+00  1.0102157573954871e+00  1.0125724053497507e+00  1.0290205652990931e+00  1.0253100705526248e+00  1.0238768174977217e+00  1.0238130440354742e+00  1.0240675469603013e+00  1.0242144233922159e+00  1.0242360848697563e+00  1.0242236733716972e+00  1.0242145349697693e+00  1.0242121203069203e+00  1.0242123809702603e+00  1.0242128441440317e+00  1.0242129961616204e+00  1.0242129833189864e+00  1.0242129482839624e+00  1.0242129312094836e+00  1.0242129272454616e+00  1.0242129268026037e+00  1.0242129276185039e+00  1.0039383876752808e+00  1.0173144047783365e+00  1.0262508417746425e+00  1.0250248026822937e+00  1.0238155362397878e+00  1.0240004281303805e+00  1.0241581159207624e+00  1.0242241989979535e+00  1.0242321904399760e+00  1.0242229095927127e+00  1.0242158945046325e+00  1.0242136187695075e+00  1.0242133217375105e+00  1.0242133142697563e+00  1.0242132263588628e+00  1.0242131122524127e+00  1.0242130297286351e+00  1.0242129841591761e+00  1.0242129619147282e+00  1.0242129514655516e+00  1.0242129486538163e+00  1.0114400356184612e+00  1.0219360711798882e+00  1.0209050247246372e+00  1.0228389357069634e+00  1.0241331597526901e+00  1.0243500257515366e+00  1.0243031371657112e+00  1.0242420106003400e+00  1.0242218749091871e+00  1.0242176633437809e+00  1.0242166233099925e+00  1.0242156537610123e+00  1.0242146588034007e+00  1.0242139198050186e+00  1.0242134814564332e+00  1.0242132460290054e+00  1.0242131181529632e+00  1.0242130448481896e+00  1.0242130023773002e+00  1.0242129799898281e+00  1.0242129725212950e+00  1.0312665221917623e+00  1.0189628984273122e+00  1.0166006563140415e+00  1.0198672553922170e+00  1.0240549730181963e+00  1.0247109785570692e+00  1.0244684433006896e+00  1.0242987674972319e+00  1.0242237571733241e+00  1.0242122897287798e+00  1.0242159427453339e+00  1.0242174021103305e+00  1.0242162448770942e+00  1.0242147790935525e+00  1.0242138726801238e+00  1.0242134373967593e+00  1.0242132323895010e+00  1.0242131210080285e+00  1.0242130541341217e+00  1.0242130173181683e+00  1.0242130050711953e+00  1.0337031715103377e+00  1.0173420430637834e+00  1.0177188413383265e+00  1.0201500260413441e+00  1.0235466630053198e+00  1.0245507256762931e+00  1.0243831451615879e+00  1.0242125780400608e+00  1.0241745007478844e+00  1.0241875131388691e+00  1.0242024550633542e+00  1.0242092430697243e+00  1.0242112005059929e+00  1.0242117191001032e+00  1.0242120521982010e+00  1.0242123628414384e+00  1.0242125937734847e+00  1.0242127325623502e+00  1.0242128056177715e+00  1.0242128398723267e+00  1.0242128490879581e+00  1.0152724399484512e+00  1.0207013109539218e+00  1.0206392044507440e+00  1.0229454767952302e+00  1.0243953626386313e+00  1.0242665660805059e+00  1.0241744196052209e+00  1.0241838348106498e+00  1.0241959807617889e+00  1.0242049305221756e+00  1.0242092631085473e+00  1.0242109094467775e+00  1.0242116252042988e+00  1.0242120790541396e+00  1.0242124058225319e+00  1.0242126202572710e+00  1.0242127470586166e+00  1.0242128180300416e+00  1.0242128566843192e+00  1.0242128757772417e+00  1.0242128811341729e+00  1.0152801053067881e+00  1.0151571469210579e+00  1.0261523774099257e+00  1.0250237697841569e+00  1.0241651448619102e+00  1.0238027514442904e+00  1.0240617005719364e+00  1.0242049116134218e+00  1.0242259676564449e+00  1.0242182257260923e+00  1.0242122982823145e+00  1.0242111486219796e+00  1.0242117880227617e+00  1.0242124343867332e+00  1.0242127325476840e+00  1.0242128261777492e+00  1.0242128573165687e+00  1.0242128774361732e+00  1.0242128932031938e+00  1.0242129026060172e+00  1.0242129056655473e+00  1.0135806300027765e+00  1.0101674388326254e+00  1.0312269466929773e+00  1.0250158966450251e+00  1.0237956887878708e+00  1.0237434497449323e+00  1.0240774766400964e+00  1.0242205577606807e+00  1.0242382784815252e+00  1.0242235904944494e+00  1.0242140718939030e+00  1.0242118716450215e+00  1.0242123115207347e+00  1.0242128399525492e+00  1.0242129981273003e+00  1.0242129809769918e+00  1.0242129448600732e+00  1.0242129288913171e+00  1.0242129260131099e+00  1.0242129262799589e+00  1.0242129270254483e+00  1.0033645130744275e+00  1.0169172114939100e+00  1.0276241165491549e+00  1.0249002268492684e+00  1.0236674221566644e+00  1.0240086248255718e+00  1.0241603489109956e+00  1.0242257337322753e+00  1.0242328844533626e+00  1.0242226783884225e+00  1.0242155911973094e+00  1.0242134431122873e+00  1.0242132663801216e+00  1.0242132999283413e+00  1.0242132184234942e+00  1.0242131055812336e+00  1.0242130249163810e+00  1.0242129812154399e+00  1.0242129601601819e+00  1.0242129504337101e+00  1.0242129477465536e+00  1.0120120725357495e+00  1.0229433027943033e+00  1.0212338851159626e+00  1.0224799600423611e+00  1.0242302943255543e+00  1.0243734752930396e+00  1.0243016306634873e+00  1.0242391924690142e+00  1.0242200739262510e+00  1.0242173697455919e+00  1.0242165562510934e+00  1.0242156391839319e+00  1.0242146389798106e+00  1.0242138934482143e+00  1.0242134624972015e+00  1.0242132358079812e+00  1.0242131129915435e+00  1.0242130420005759e+00  1.0242130005518062e+00  1.0242129787505314e+00  1.0242129715055148e+00  1.0454107056174711e+00  1.0185780782788623e+00  1.0160087044999164e+00  1.0193369036545807e+00  1.0245770320838432e+00  1.0246940222897007e+00  1.0244749360192571e+00  1.0242910929774334e+00  1.0242202009497348e+00  1.0242110533407938e+00  1.0242160690944724e+00  1.0242176372680680e+00  1.0242162933518622e+00  1.0242147521210454e+00  1.0242138462871675e+00  1.0242134248667250e+00  1.0242132279989919e+00  1.0242131192854627e+00  1.0242130529642186e+00  1.0242130162508027e+00  1.0242130039247677e+00  1.0344345885034898e+00  1.0168614394063786e+00  1.0177349468738102e+00  1.0200836716525374e+00  1.0235947859026979e+00  1.0245831609427392e+00  1.0243827559666117e+00  1.0242089508975243e+00  1.0241732924020006e+00  1.0241874177669652e+00  1.0242026379947258e+00  1.0242093542254971e+00  1.0242112312599287e+00  1.0242117209198154e+00  1.0242120508577035e+00  1.0242123635862446e+00  1.0242125952990802e+00  1.0242127336982270e+00  1.0242128062359834e+00  1.0242128401610835e+00  1.0242128492635563e+00  1.0149462808139962e+00  1.0215298857476984e+00  1.0205322653834796e+00  1.0229965614514822e+00  1.0245191463319268e+00  1.0242564149944333e+00  1.0241600573515419e+00  1.0241825162754803e+00  1.0241959962974305e+00  1.0242053420253852e+00  1.0242094890533393e+00  1.0242109497489980e+00  1.0242116178278087e+00  1.0242120734988021e+00  1.0242124073932908e+00  1.0242126238182283e+00  1.0242127496294469e+00  1.0242128194079967e+00  1.0242128574368010e+00  1.0242128762409832e+00  1.0242128816404426e+00  1.0151653342509916e+00  1.0151350520416449e+00  1.0262825154152215e+00  1.0250629683266250e+00  1.0241705491593645e+00  1.0237413703751350e+00  1.0240645557677646e+00  1.0242083826858661e+00  1.0242262644048274e+00  1.0242183226977202e+00  1.0242121133336046e+00  1.0242110252936889e+00  1.0242117441674099e+00  1.0242124244184954e+00  1.0242127307360587e+00  1.0242128245287927e+00  1.0242128556231660e+00  1.0242128762902600e+00  1.0242128926284346e+00  1.0242129022856099e+00  1.0242129055046516e+00  1.0134308468739692e+00  1.0094682189058499e+00  1.0322604786820575e+00  1.0246910373508340e+00  1.0238095914975198e+00  1.0237196351157831e+00  1.0240937873169338e+00  1.0242185432264392e+00  1.0242376625823804e+00  1.0242233251910944e+00  1.0242138540217529e+00  1.0242117988343884e+00  1.0242122854916005e+00  1.0242128290483175e+00  1.0242129908017028e+00  1.0242129759458836e+00  1.0242129419766521e+00  1.0242129274027763e+00  1.0242129252500705e+00  1.0242129257566606e+00  1.0242129266930313e+00  1.0027176622111034e+00  1.0172475882459331e+00  1.0280449162095675e+00  1.0246720632118369e+00  1.0237215368649566e+00  1.0240084999178689e+00  1.0241607000282413e+00  1.0242213767856063e+00  1.0242330817998124e+00  1.0242225084269896e+00  1.0242155178109982e+00  1.0242133846661587e+00  1.0242132302100344e+00  1.0242132795228829e+00  1.0242132072458854e+00  1.0242130998825971e+00  1.0242130219061110e+00  1.0242129794932262e+00  1.0242129591194695e+00  1.0242129497505110e+00  1.0242129471019412e+00  1.0123775997228843e+00  1.0240703250113261e+00  1.0210250033616934e+00  1.0224069553060176e+00  1.0243395452467750e+00  1.0243860276334265e+00  1.0242910842321791e+00  1.0242382691405159e+00  1.0242186853030675e+00  1.0242171657822616e+00  1.0242165938316716e+00  1.0242156623619028e+00  1.0242146241215087e+00  1.0242138704508064e+00  1.0242134483640370e+00  1.0242132293590722e+00  1.0242131100568377e+00  1.0242130403865901e+00  1.0242129994622760e+00  1.0242129779573321e+00  1.0242129705922127e+00  1.0462728265437056e+00  1.0183639572013943e+00  1.0153358754225457e+00  1.0194598009120430e+00  1.0248294706430239e+00  1.0245803905080468e+00  1.0244901180294201e+00  1.0242871917233416e+00  1.0242204660922911e+00  1.0242113300429170e+00  1.0242162584899543e+00  1.0242176721324694e+00  1.0242162723229333e+00  1.0242147405466047e+00  1.0242138451450211e+00  1.0242134260873286e+00  1.0242132288716843e+00  1.0242131195913660e+00  1.0242130530427955e+00  1.0242130162986720e+00  1.0242130040980544e+00  1.0332652743840125e+00  1.0168901227212521e+00  1.0178079069531853e+00  1.0200720178081160e+00  1.0236052521394319e+00  1.0245801097517075e+00  1.0243812534834875e+00  1.0242090818049649e+00  1.0241734517400796e+00  1.0241874998491847e+00  1.0242026694681441e+00  1.0242093581945562e+00  1.0242112309181470e+00  1.0242117215618920e+00  1.0242120519568769e+00  1.0242123644218930e+00  1.0242125957411143e+00  1.0242127339057276e+00  1.0242128063721183e+00  1.0242128401984338e+00  1.0242128493551321e+00  1.0142481822619069e+00  1.0218892827919905e+00  1.0204982810190157e+00  1.0229961264237606e+00  1.0245271607774498e+00  1.0242354797036284e+00  1.0241571247601771e+00  1.0241835956733980e+00  1.0241963683203876e+00  1.0242054308887498e+00  1.0242094207399783e+00  1.0242108803857881e+00  1.0242115876757174e+00  1.0242120642404262e+00  1.0242124046840653e+00  1.0242126222802066e+00  1.0242127483580978e+00  1.0242128185257149e+00  1.0242128569228177e+00  1.0242128759056990e+00  1.0242128814547438e+00  1.0144757282868149e+00  1.0153230647635285e+00  1.0261129598160696e+00  1.0250510173574561e+00  1.0241555862541165e+00  1.0237289301425894e+00  1.0240708364377833e+00  1.0242070701850470e+00  1.0242254743904564e+00  1.0242181555531802e+00  1.0242119772930416e+00  1.0242109701500635e+00  1.0242117186880348e+00  1.0242124099182084e+00  1.0242127222951833e+00  1.0242128196772846e+00  1.0242128529791517e+00  1.0242128748801540e+00  1.0242128918335602e+00  1.0242129017526769e+00  1.0242129051022542e+00  1.0128173182676350e+00  1.0097077258301437e+00  1.0322879604552859e+00  1.0246092533305806e+00  1.0238312327386123e+00  1.0237169401010793e+00  1.0240971789620585e+00  1.0242134856353990e+00  1.0242374609089486e+00  1.0242232099110606e+00  1.0242137530635693e+00  1.0242117600239802e+00  1.0242122518279073e+00  1.0242128086647257e+00  1.0242129800032551e+00  1.0242129707053185e+00  1.0242129394087018e+00  1.0242129260199304e+00  1.0242129244300828e+00  1.0242129252145948e+00  1.0242129262522142e+00  1.0030214261233767e+00  1.0174900402825924e+00  1.0279512300354994e+00  1.0245852274220475e+00  1.0237835228288847e+00  1.0239862664485004e+00  1.0241601661367510e+00  1.0242183269947087e+00  1.0242340630083748e+00  1.0242222204508757e+00  1.0242154455721209e+00  1.0242133272729006e+00  1.0242131957027250e+00  1.0242132631043952e+00  1.0242131994420467e+00  1.0242130960257176e+00  1.0242130197380619e+00  1.0242129782106930e+00  1.0242129583454789e+00  1.0242129492723295e+00  1.0242129466669549e+00  1.0122391663257944e+00  1.0240007445189081e+00  1.0209021038679134e+00  1.0224138281611148e+00  1.0243654331420806e+00  1.0243593323448323e+00  1.0242927324861930e+00  1.0242398562610939e+00  1.0242188048386560e+00  1.0242169449339606e+00  1.0242165639764049e+00  1.0242156290701163e+00  1.0242146143833186e+00  1.0242138674377663e+00  1.0242134472215176e+00  1.0242132284675425e+00  1.0242131093628837e+00  1.0242130399796476e+00  1.0242129992326179e+00  1.0242129778326561e+00  1.0242129704247434e+00  1.0455276037160994e+00  1.0185701416736868e+00  1.0151761033396307e+00  1.0195638226381862e+00  1.0248161197010814e+00  1.0245363135959193e+00  1.0245101715351173e+00  1.0242844775779725e+00  1.0242209723174220e+00  1.0242114378178249e+00  1.0242162621748572e+00  1.0242176469424162e+00  1.0242162721454200e+00  1.0242147460240241e+00  1.0242138492721320e+00  1.0242134276293633e+00  1.0242132294248232e+00  1.0242131198503739e+00  1.0242130532168316e+00  1.0242130164240288e+00  1.0242130042234390e+00  1.0295491267277730e+00  1.0183466474979570e+00  1.0175308569822008e+00  1.0201948495827928e+00  1.0235837888128183e+00  1.0245663574972059e+00  1.0243829598086513e+00  1.0242090797236485e+00  1.0241738114171008e+00  1.0241876960821070e+00  1.0242027010859587e+00  1.0242093610673317e+00  1.0242112321718553e+00  1.0242117257860750e+00  1.0242120561190711e+00  1.0242123670065479e+00  1.0242125970762737e+00  1.0242127346034886e+00  1.0242128067602843e+00  1.0242128403907629e+00  1.0242128495692060e+00  1.0138291324710289e+00  1.0217825918110253e+00  1.0202730156627786e+00  1.0230012313547909e+00  1.0244238641801435e+00  1.0242385981281985e+00  1.0241615429447670e+00  1.0241839013812020e+00  1.0241965859828477e+00  1.0242051291986258e+00  1.0242092005958281e+00  1.0242107879513906e+00  1.0242115577537771e+00  1.0242120532205670e+00  1.0242123972147610e+00  1.0242126165480190e+00  1.0242127445736096e+00  1.0242128163148547e+00  1.0242128556094281e+00  1.0242128750422757e+00  1.0242128808843496e+00  1.0133693824333316e+00  1.0159436678998368e+00  1.0254718987040499e+00  1.0250512186415477e+00  1.0241449564820824e+00  1.0237701042261913e+00  1.0240650322937552e+00  1.0242032362697733e+00  1.0242241055574326e+00  1.0242177883827988e+00  1.0242119817741104e+00  1.0242109814750153e+00  1.0242117047734878e+00  1.0242123892634685e+00  1.0242127085422263e+00  1.0242128131578800e+00  1.0242128502173320e+00  1.0242128735529739e+00  1.0242128909789150e+00  1.0242129011274552e+00  1.0242129046418214e+00  1.0121496934787322e+00  1.0108967707179097e+00  1.0311733416498559e+00  1.0248611277767290e+00  1.0238162689372907e+00  1.0237342318692326e+00  1.0240859712758332e+00  1.0242119971900576e+00  1.0242363469736651e+00  1.0242230081830577e+00  1.0242137313403481e+00  1.0242117487487907e+00  1.0242122242869822e+00  1.0242127848603817e+00  1.0242129672980227e+00  1.0242129650858551e+00  1.0242129369393489e+00  1.0242129247483773e+00  1.0242129236340718e+00  1.0242129246888381e+00  1.0242129257740484e+00  1.0049701057688156e+00  1.0174294679582558e+00  1.0273584811700893e+00  1.0246979654447839e+00  1.0237633427045125e+00  1.0239845236247918e+00  1.0241593991275031e+00  1.0242189730213078e+00  1.0242333383648414e+00  1.0242219111012425e+00  1.0242153683781965e+00  1.0242133248976455e+00  1.0242131856277683e+00  1.0242132553750352e+00  1.0242131945632889e+00  1.0242130934311779e+00  1.0242130186140868e+00  1.0242129777458497e+00  1.0242129581284367e+00  1.0242129491185550e+00  1.0242129464881478e+00  1.0118403359016364e+00  1.0233289369434162e+00  1.0209062576933472e+00  1.0224846537249812e+00  1.0242513020142336e+00  1.0243586270246237e+00  1.0242968714992569e+00  1.0242418644761453e+00  1.0242194033683301e+00  1.0242168556844877e+00  1.0242164859630041e+00  1.0242155953804737e+00  1.0242146167078430e+00  1.0242138805586167e+00  1.0242134543278008e+00  1.0242132313327919e+00  1.0242131105886794e+00  1.0242130407404642e+00  1.0242129998450402e+00  1.0242129783772895e+00  1.0242129708275678e+00  1.0389636404541442e+00  1.0194806221223602e+00  1.0150778315759337e+00  1.0196126221602162e+00  1.0246960655742916e+00  1.0245714915001443e+00  1.0245082001738506e+00  1.0242833998604413e+00  1.0242212026412223e+00  1.0242115390898516e+00  1.0242162689242726e+00  1.0242176164127466e+00  1.0242162725429547e+00  1.0242147472204388e+00  1.0242138494910906e+00  1.0242134276264649e+00  1.0242132293220292e+00  1.0242131197745974e+00  1.0242130532150759e+00  1.0242130164907790e+00  1.0242130043215840e+00  1.0392201981639690e+00  1.0161861594437882e+00  1.0180806410870098e+00  1.0201529673973289e+00  1.0234296566343422e+00  1.0245372483668689e+00  1.0243808345556349e+00  1.0242154361069029e+00  1.0241766318415828e+00  1.0241876538303174e+00  1.0242022776832869e+00  1.0242091207646629e+00  1.0242111636750599e+00  1.0242117194268416e+00  1.0242120558386600e+00  1.0242123632561961e+00  1.0242125926388783e+00  1.0242127314882696e+00  1.0242128049471699e+00  1.0242128392229886e+00  1.0242128489261790e+00  1.0219993582073195e+00  1.0166099920907052e+00  1.0210786719817329e+00  1.0227291775686904e+00  1.0244380658484629e+00  1.0242321203081375e+00  1.0241471278148269e+00  1.0241854775214652e+00  1.0241973945487384e+00  1.0242051966747991e+00  1.0242090442879985e+00  1.0242106422175277e+00  1.0242114902206916e+00  1.0242120269007691e+00  1.0242123854888714e+00  1.0242126094740267e+00  1.0242127396753655e+00  1.0242128130805475e+00  1.0242128535191686e+00  1.0242128737494838e+00  1.0242128793626342e+00  1.0253825631571669e+00  1.0128182075071677e+00  1.0261225520522159e+00  1.0247561049273513e+00  1.0242442561721321e+00  1.0236977159796641e+00  1.0240671865376278e+00  1.0242056162150159e+00  1.0242236315308331e+00  1.0242176540125003e+00  1.0242117197275757e+00  1.0242108486490187e+00  1.0242116449173964e+00  1.0242123619292873e+00  1.0242126946474883e+00  1.0242128045883088e+00  1.0242128447740297e+00  1.0242128702634896e+00  1.0242128889792159e+00  1.0242128999550921e+00  1.0242129033110978e+00  1.0224876658034845e+00  1.0082280435117534e+00  1.0308507885181328e+00  1.0247110921530329e+00  1.0238252053121755e+00  1.0237207379359627e+00  1.0241158457988677e+00  1.0242051707974620e+00  1.0242342834783054e+00  1.0242220364901184e+00  1.0242135781856057e+00  1.0242118104197944e+00  1.0242122357289514e+00  1.0242127731060637e+00  1.0242129529584172e+00  1.0242129565563987e+00  1.0242129333477541e+00  1.0242129233422530e+00  1.0242129228759040e+00  1.0242129242658320e+00  1.0242129250176926e+00  1.0135122215314316e+00  1.0142535036445364e+00  1.0279436967154807e+00  1.0241937356934974e+00  1.0238056533514148e+00  1.0240048180488805e+00  1.0241673032493239e+00  1.0242149196684984e+00  1.0242332981743014e+00  1.0242208077034212e+00  1.024215360501993