<?xml version="1.0"?>
<VTKFile type="UnstructuredGrid"  version="0.1"  >
<UnstructuredGrid>
<Piece  NumberOfPoints="882" NumberOfCells="3600">
<Points>
<DataArray  type="Float64"  NumberOfComponents="3"  format="ascii">0 0 0  0.5 0 0  1 0 0  1.5 0 0  2 0 0  2.5 0 0  3 0 0  3.5 0 0  4 0 0  4.5 0 0  5 0 0  5.5 0 0  6 0 0  6.5 0 0  7 0 0  7.5 0 0  8 0 0  8.5 0 0  9 0 0  9.5 0 0  10 0 0  0 0.5 0  0.5 0.5 0  1 0.5 0  1.5 0.5 0  2 0.5 0  2.5 0.5 0  3 0.5 0  3.5 0.5 0  4 0.5 0  4.5 0.5 0  5 0.5 0  5.5 0.5 0  6 0.5 0  6.5 0.5 0  7 0.5 0  7.5 0.5 0  8 0.5 0  8.5 0.5 0  9 0.5 0  9.5 0.5 0  10 0.5 0  0 1 0  0.5 1 0  1 1 0  1.5 1 0  2 1 0  2.5 1 0  3 1 0  3.5 1 0  4 1 0  4.5 1 0  5 1 0  5.5 1 0  6 1 0  6.5 1 0  7 1 0  7.5 1 0  8 1 0  8.5 1 0  9 1 0  9.5 1 0  10 1 0  0 1.5 0  0.5 1.5 0  1 1.5 0  1.5 1.5 0  2 1.5 0  2.5 1.5 0  3 1.5 0  3.5 1.5 0  4 1.5 0  4.5 1.5 0  5 1.5 0  5.5 1.5 0  6 1.5 0  6.5 1.5 0  7 1.5 0  7.5 1.5 0  8 1.5 0  8.5 1.5 0  9 1.5 0  9.5 1.5 0  10 1.5 0  0 2 0  0.5 2 0  1 2 0  1.5 2 0  2 2 0  2.5 2 0  3 2 0  3.5 2 0  4 2 0  4.5 2 0  5 2 0  5.5 2 0  6 2 0  6.5 2 0  7 2 0  7.5 2 0  8 2 0  8.5 2 0  9 2 0  9.5 2 0  10 2 0  0 2.5 0  0.5 2.5 0  1 2.5 0  1.5 2.5 0  2 2.5 0  2.5 2.5 0  3 2.5 0  3.5 2.5 0  4 2.5 0  4.5 2.5 0  5 2.5 0  5.5 2.5 0  6 2.5 0  6.5 2.5 0  7 2.5 0  7.5 2.5 0  8 2.5 0  8.5 2.5 0  9 2.5 0  9.5 2.5 0  10 2.5 0  0 3 0  0.5 3 0  1 3 0  1.5 3 0  2 3 0  2.5 3 0  3 3 0  3.5 3 0  4 3 0  4.5 3 0  5 3 0  5.5 3 0  6 3 0  6.5 3 0  7 3 0  7.5 3 0  8 3 0  8.5 3 0  9 3 0  9.5 3 0  10 3 0  0 0 0.1  0.5 0 0.1  1 0 0.1  1.5 0 0.1  2 0 0.1  2.5 0 0.1  3 0 0.1  3.5 0 0.1  4 0 0.1  4.5 0 0.1  5 0 0.1  5.5 0 0.1  6 0 0.1  6.5 0 0.1  7 0 0.1  7.5 0 0.1  8 0 0.1  8.5 0 0.1  9 0 0.1  9.5 0 0.1  10 0 0.1  0 0.5 0.1  0.5 0.5 0.1  1 0.5 0.1  1.5 0.5 0.1  2 0.5 0.1  2.5 0.5 0.1  3 0.5 0.1  3.5 0.5 0.1  4 0.5 0.1  4.5 0.5 0.1  5 0.5 0.1  5.5 0.5 0.1  6 0.5 0.1  6.5 0.5 0.1  7 0.5 0.1  7.5 0.5 0.1  8 0.5 0.1  8.5 0.5 0.1  9 0.5 0.1  9.5 0.5 0.1  10 0.5 0.1  0 1 0.1  0.5 1 0.1  1 1 0.1  1.5 1 0.1  2 1 0.1  2.5 1 0.1  3 1 0.1  3.5 1 0.1  4 1 0.1  4.5 1 0.1  5 1 0.1  5.5 1 0.1  6 1 0.1  6.5 1 0.1  7 1 0.1  7.5 1 0.1  8 1 0.1  8.5 1 0.1  9 1 0.1  9.5 1 0.1  10 1 0.1  0 1.5 0.1  0.5 1.5 0.1  1 1.5 0.1  1.5 1.5 0.1  2 1.5 0.1  2.5 1.5 0.1  3 1.5 0.1  3.5 1.5 0.1  4 1.5 0.1  4.5 1.5 0.1  5 1.5 0.1  5.5 1.5 0.1  6 1.5 0.1  6.5 1.5 0.1  7 1.5 0.1  7.5 1.5 0.1  8 1.5 0.1  8.5 1.5 0.1  9 1.5 0.1  9.5 1.5 0.1  10 1.5 0.1  0 2 0.1  0.5 2 0.1  1 2 0.1  1.5 2 0.1  2 2 0.1  2.5 2 0.1  3 2 0.1  3.5 2 0.1  4 2 0.1  4.5 2 0.1  5 2 0.1  5.5 2 0.1  6 2 0.1  6.5 2 0.1  7 2 0.1  7.5 2 0.1  8 2 0.1  8.5 2 0.1  9 2 0.1  9.5 2 0.1  10 2 0.1  0 2.5 0.1  0.5 2.5 0.1  1 2.5 0.1  1.5 2.5 0.1  2 2.5 0.1  2.5 2.5 0.1  3 2.5 0.1  3.5 2.5 0.1  4 2.5 0.1  4.5 2.5 0.1  5 2.5 0.1  5.5 2.5 0.1  6 2.5 0.1  6.5 2.5 0.1  7 2.5 0.1  7.5 2.5 0.1  8 2.5 0.1  8.5 2.5 0.1  9 2.5 0.1  9.5 2.5 0.1  10 2.5 0.1  0 3 0.1  0.5 3 0.1  1 3 0.1  1.5 3 0.1  2 3 0.1  2.5 3 0.1  3 3 0.1  3.5 3 0.1  4 3 0.1  4.5 3 0.1  5 3 0.1  5.5 3 0.1  6 3 0.1  6.5 3 0.1  7 3 0.1  7.5 3 0.1  8 3 0.1  8.5 3 0.1  9 3 0.1  9.5 3 0.1  10 3 0.1  0 0 0.2  0.5 0 0.2  1 0 0.2  1.5 0 0.2  2 0 0.2  2.5 0 0.2  3 0 0.2  3.5 0 0.2  4 0 0.2  4.5 0 0.2  5 0 0.2  5.5 0 0.2  6 0 0.2  6.5 0 0.2  7 0 0.2  7.5 0 0.2  8 0 0.2  8.5 0 0.2  9 0 0.2  9.5 0 0.2  10 0 0.2  0 0.5 0.2  0.5 0.5 0.2  1 0.5 0.2  1.5 0.5 0.2  2 0.5 0.2  2.5 0.5 0.2  3 0.5 0.2  3.5 0.5 0.2  4 0.5 0.2  4.5 0.5 0.2  5 0.5 0.2  5.5 0.5 0.2  6 0.5 0.2  6.5 0.5 0.2  7 0.5 0.2  7.5 0.5 0.2  8 0.5 0.2  8.5 0.5 0.2  9 0.5 0.2  9.5 0.5 0.2  10 0.5 0.2  0 1 0.2  0.5 1 0.2  1 1 0.2  1.5 1 0.2  2 1 0.2  2.5 1 0.2  3 1 0.2  3.5 1 0.2  4 1 0.2  4.5 1 0.2  5 1 0.2  5.5 1 0.2  6 1 0.2  6.5 1 0.2  7 1 0.2  7.5 1 0.2  8 1 0.2  8.5 1 0.2  9 1 0.2  9.5 1 0.2  10 1 0.2  0 1.5 0.2  0.5 1.5 0.2  1 1.5 0.2  1.5 1.5 0.2  2 1.5 0.2  2.5 1.5 0.2  3 1.5 0.2  3.5 1.5 0.2  4 1.5 0.2  4.5 1.5 0.2  5 1.5 0.2  5.5 1.5 0.2  6 1.5 0.2  6.5 1.5 0.2  7 1.5 0.2  7.5 1.5 0.2  8 1.5 0.2  8.5 1.5 0.2  9 1.5 0.2  9.5 1.5 0.2  10 1.5 0.2  0 2 0.2  0.5 2 0.2  1 2 0.2  1.5 2 0.2  2 2 0.2  2.5 2 0.2  3 2 0.2  3.5 2 0.2  4 2 0.2  4.5 2 0.2  5 2 0.2  5.5 2 0.2  6 2 0.2  6.5 2 0.2  7 2 0.2  7.5 2 0.2  8 2 0.2  8.5 2 0.2  9 2 0.2  9.5 2 0.2  10 2 0.2  0 2.5 0.2  0.5 2.5 0.2  1 2.5 0.2  1.5 2.5 0.2  2 2.5 0.2  2.5 2.5 0.2  3 2.5 0.2  3.5 2.5 0.2  4 2.5 0.2  4.5 2.5 0.2  5 2.5 0.2  5.5 2.5 0.2  6 2.5 0.2  6.5 2.5 0.2  7 2.5 0.2  7.5 2.5 0.2  8 2.5 0.2  8.5 2.5 0.2  9 2.5 0.2  9.5 2.5 0.2  10 2.5 0.2  0 3 0.2  0.5 3 0.2  1 3 0.2  1.5 3 0.2  2 3 0.2  2.5 3 0.2  3 3 0.2  3.5 3 0.2  4 3 0.2  4.5 3 0.2  5 3 0.2  5.5 3 0.2  6 3 0.2  6.5 3 0.2  7 3 0.2  7.5 3 0.2  8 3 0.2  8.5 3 0.2  9 3 0.2  9.5 3 0.2  10 3 0.2  0 0 0.3  0.5 0 0.3  1 0 0.3  1.5 0 0.3  2 0 0.3  2.5 0 0.3  3 0 0.3  3.5 0 0.3  4 0 0.3  4.5 0 0.3  5 0 0.3  5.5 0 0.3  6 0 0.3  6.5 0 0.3  7 0 0.3  7.5 0 0.3  8 0 0.3  8.5 0 0.3  9 0 0.3  9.5 0 0.3  10 0 0.3  0 0.5 0.3  0.5 0.5 0.3  1 0.5 0.3  1.5 0.5 0.3  2 0.5 0.3  2.5 0.5 0.3  3 0.5 0.3  3.5 0.5 0.3  4 0.5 0.3  4.5 0.5 0.3  5 0.5 0.3  5.5 0.5 0.3  6 0.5 0.3  6.5 0.5 0.3  7 0.5 0.3  7.5 0.5 0.3  8 0.5 0.3  8.5 0.5 0.3  9 0.5 0.3  9.5 0.5 0.3  10 0.5 0.3  0 1 0.3  0.5 1 0.3  1 1 0.3  1.5 1 0.3  2 1 0.3  2.5 1 0.3  3 1 0.3  3.5 1 0.3  4 1 0.3  4.5 1 0.3  5 1 0.3  5.5 1 0.3  6 1 0.3  6.5 1 0.3  7 1 0.3  7.5 1 0.3  8 1 0.3  8.5 1 0.3  9 1 0.3  9.5 1 0.3  10 1 0.3  0 1.5 0.3  0.5 1.5 0.3  1 1.5 0.3  1.5 1.5 0.3  2 1.5 0.3  2.5 1.5 0.3  3 1.5 0.3  3.5 1.5 0.3  4 1.5 0.3  4.5 1.5 0.3  5 1.5 0.3  5.5 1.5 0.3  6 1.5 0.3  6.5 1.5 0.3  7 1.5 0.3  7.5 1.5 0.3  8 1.5 0.3  8.5 1.5 0.3  9 1.5 0.3  9.5 1.5 0.3  10 1.5 0.3  0 2 0.3  0.5 2 0.3  1 2 0.3  1.5 2 0.3  2 2 0.3  2.5 2 0.3  3 2 0.3  3.5 2 0.3  4 2 0.3  4.5 2 0.3  5 2 0.3  5.5 2 0.3  6 2 0.3  6.5 2 0.3  7 2 0.3  7.5 2 0.3  8 2 0.3  8.5 2 0.3  9 2 0.3  9.5 2 0.3  10 2 0.3  0 2.5 0.3  0.5 2.5 0.3  1 2.5 0.3  1.5 2.5 0.3  2 2.5 0.3  2.5 2.5 0.3  3 2.5 0.3  3.5 2.5 0.3  4 2.5 0.3  4.5 2.5 0.3  5 2.5 0.3  5.5 2.5 0.3  6 2.5 0.3  6.5 2.5 0.3  7 2.5 0.3  7.5 2.5 0.3  8 2.5 0.3  8.5 2.5 0.3  9 2.5 0.3  9.5 2.5 0.3  10 2.5 0.3  0 3 0.3  0.5 3 0.3  1 3 0.3  1.5 3 0.3  2 3 0.3  2.5 3 0.3  3 3 0.3  3.5 3 0.3  4 3 0.3  4.5 3 0.3  5 3 0.3  5.5 3 0.3  6 3 0.3  6.5 3 0.3  7 3 0.3  7.5 3 0.3  8 3 0.3  8.5 3 0.3  9 3 0.3  9.5 3 0.3  10 3 0.3  0 0 0.4  0.5 0 0.4  1 0 0.4  1.5 0 0.4  2 0 0.4  2.5 0 0.4  3 0 0.4  3.5 0 0.4  4 0 0.4  4.5 0 0.4  5 0 0.4  5.5 0 0.4  6 0 0.4  6.5 0 0.4  7 0 0.4  7.5 0 0.4  8 0 0.4  8.5 0 0.4  9 0 0.4  9.5 0 0.4  10 0 0.4  0 0.5 0.4  0.5 0.5 0.4  1 0.5 0.4  1.5 0.5 0.4  2 0.5 0.4  2.5 0.5 0.4  3 0.5 0.4  3.5 0.5 0.4  4 0.5 0.4  4.5 0.5 0.4  5 0.5 0.4  5.5 0.5 0.4  6 0.5 0.4  6.5 0.5 0.4  7 0.5 0.4  7.5 0.5 0.4  8 0.5 0.4  8.5 0.5 0.4  9 0.5 0.4  9.5 0.5 0.4  10 0.5 0.4  0 1 0.4  0.5 1 0.4  1 1 0.4  1.5 1 0.4  2 1 0.4  2.5 1 0.4  3 1 0.4  3.5 1 0.4  4 1 0.4  4.5 1 0.4  5 1 0.4  5.5 1 0.4  6 1 0.4  6.5 1 0.4  7 1 0.4  7.5 1 0.4  8 1 0.4  8.5 1 0.4  9 1 0.4  9.5 1 0.4  10 1 0.4  0 1.5 0.4  0.5 1.5 0.4  1 1.5 0.4  1.5 1.5 0.4  2 1.5 0.4  2.5 1.5 0.4  3 1.5 0.4  3.5 1.5 0.4  4 1.5 0.4  4.5 1.5 0.4  5 1.5 0.4  5.5 1.5 0.4  6 1.5 0.4  6.5 1.5 0.4  7 1.5 0.4  7.5 1.5 0.4  8 1.5 0.4  8.5 1.5 0.4  9 1.5 0.4  9.5 1.5 0.4  10 1.5 0.4  0 2 0.4  0.5 2 0.4  1 2 0.4  1.5 2 0.4  2 2 0.4  2.5 2 0.4  3 2 0.4  3.5 2 0.4  4 2 0.4  4.5 2 0.4  5 2 0.4  5.5 2 0.4  6 2 0.4  6.5 2 0.4  7 2 0.4  7.5 2 0.4  8 2 0.4  8.5 2 0.4  9 2 0.4  9.5 2 0.4  10 2 0.4  0 2.5 0.4  0.5 2.5 0.4  1 2.5 0.4  1.5 2.5 0.4  2 2.5 0.4  2.5 2.5 0.4  3 2.5 0.4  3.5 2.5 0.4  4 2.5 0.4  4.5 2.5 0.4  5 2.5 0.4  5.5 2.5 0.4  6 2.5 0.4  6.5 2.5 0.4  7 2.5 0.4  7.5 2.5 0.4  8 2.5 0.4  8.5 2.5 0.4  9 2.5 0.4  9.5 2.5 0.4  10 2.5 0.4  0 3 0.4  0.5 3 0.4  1 3 0.4  1.5 3 0.4  2 3 0.4  2.5 3 0.4  3 3 0.4  3.5 3 0.4  4 3 0.4  4.5 3 0.4  5 3 0.4  5.5 3 0.4  6 3 0.4  6.5 3 0.4  7 3 0.4  7.5 3 0.4  8 3 0.4  8.5 3 0.4  9 3 0.4  9.5 3 0.4  10 3 0.4  0 0 0.5  0.5 0 0.5  1 0 0.5  1.5 0 0.5  2 0 0.5  2.5 0 0.5  3 0 0.5  3.5 0 0.5  4 0 0.5  4.5 0 0.5  5 0 0.5  5.5 0 0.5  6 0 0.5  6.5 0 0.5  7 0 0.5  7.5 0 0.5  8 0 0.5  8.5 0 0.5  9 0 0.5  9.5 0 0.5  10 0 0.5  0 0.5 0.5  0.5 0.5 0.5  1 0.5 0.5  1.5 0.5 0.5  2 0.5 0.5  2.5 0.5 0.5  3 0.5 0.5  3.5 0.5 0.5  4 0.5 0.5  4.5 0.5 0.5  5 0.5 0.5  5.5 0.5 0.5  6 0.5 0.5  6.5 0.5 0.5  7 0.5 0.5  7.5 0.5 0.5  8 0.5 0.5  8.5 0.5 0.5  9 0.5 0.5  9.5 0.5 0.5  10 0.5 0.5  0 1 0.5  0.5 1 0.5  1 1 0.5  1.5 1 0.5  2 1 0.5  2.5 1 0.5  3 1 0.5  3.5 1 0.5  4 1 0.5  4.5 1 0.5  5 1 0.5  5.5 1 0.5  6 1 0.5  6.5 1 0.5  7 1 0.5  7.5 1 0.5  8 1 0.5  8.5 1 0.5  9 1 0.5  9.5 1 0.5  10 1 0.5  0 1.5 0.5  0.5 1.5 0.5  1 1.5 0.5  1.5 1.5 0.5  2 1.5 0.5  2.5 1.5 0.5  3 1.5 0.5  3.5 1.5 0.5  4 1.5 0.5  4.5 1.5 0.5  5 1.5 0.5  5.5 1.5 0.5  6 1.5 0.5  6.5 1.5 0.5  7 1.5 0.5  7.5 1.5 0.5  8 1.5 0.5  8.5 1.5 0.5  9 1.5 0.5  9.5 1.5 0.5  10 1.5 0.5  0 2 0.5  0.5 2 0.5  1 2 0.5  1.5 2 0.5  2 2 0.5  2.5 2 0.5  3 2 0.5  3.5 2 0.5  4 2 0.5  4.5 2 0.5  5 2 0.5  5.5 2 0.5  6 2 0.5  6.5 2 0.5  7 2 0.5  7.5 2 0.5  8 2 0.5  8.5 2 0.5  9 2 0.5  9.5 2 0.5  10 2 0.5  0 2.5 0.5  0.5 2.5 0.5  1 2.5 0.5  1.5 2.5 0.5  2 2.5 0.5  2.5 2.5 0.5  3 2.5 0.5  3.5 2.5 0.5  4 2.5 0.5  4.5 2.5 0.5  5 2.5 0.5  5.5 2.5 0.5  6 2.5 0.5  6.5 2.5 0.5  7 2.5 0.5  7.5 2.5 0.5  8 2.5 0.5  8.5 2.5 0.5  9 2.5 0.5  9.5 2.5 0.5  10 2.5 0.5  0 3 0.5  0.5 3 0.5  1 3 0.5  1.5 3 0.5  2 3 0.5  2.5 3 0.5  3 3 0.5  3.5 3 0.5  4 3 0.5  4.5 3 0.5  5 3 0.5  5.5 3 0.5  6 3 0.5  6.5 3 0.5  7 3 0.5  7.5 3 0.5  8 3 0.5  8.5 3 0.5  9 3 0.5  9.5 3 0.5  10 3 0.5  </DataArray>
</Points>
<Cells>
[...]
<PointData  Scalars="f_7-2"> 
<DataArray  type="Float64"  Name="f_7-2"  format="ascii">1.0241017660491454e+00  1.0173671563395625e+00  1.0167005624644248e+00  1.0190439325225651e+00  1.0222143907444963e+00  1.0231884138785121e+00  1.0230920773168508e+00  1.0229289564235453e+00  1.0228813210215451e+00  1.0228895589049471e+00  1.0229045283170246e+00  1.0229127555363673e+00  1.0229157634686008e+00  1.0229167576699738e+00  1.0229172768156320e+00  1.0229176865397258e+00  1.0229179944063427e+00  1.0229181925597992e+00  1.0229183045567751e+00  1.0229183595983531e+00  1.0229183739969210e+00  1.0134126317730885e+00  1.0196239696899456e+00  1.0195275169756384e+00  1.0216081797365424e+00  1.0228417135766910e+00  1.0229486367673084e+00  1.0229059276237293e+00  1.0228939000609649e+00  1.0228992479465970e+00  1.0229071871905524e+00  1.0229125864480926e+00  1.0229153141382508e+00  1.0229165911615135e+00  1.0229172827637925e+00  1.0229177269788901e+00  1.0229180224265892e+00  1.0229182101396006e+00  1.0229183228045462e+00  1.0229183868302023e+00  1.0229184187853158e+00  1.0229184283212249e+00  1.0123553636864802e+00  1.0157752229311148e+00  1.0240446972261878e+00  1.0237881349064226e+00  1.0229306589273759e+00  1.0226650352881936e+00  1.0227739350638219e+00  1.0228893662252103e+00  1.0229224345274848e+00  1.0229222264802147e+00  1.0229182556105985e+00  1.0229168915152576e+00  1.0229171934678452e+00  1.0229177784692449e+00  1.0229181502450775e+00  1.0229183195103808e+00  1.0229183924611402e+00  1.0229184309890491e+00  1.0229184553428428e+00  1.0229184687803079e+00  1.0229184739594279e+00  1.0106884652920749e+00  1.0124164018210515e+00  1.0275464535046357e+00  1.0243526892123487e+00  1.0227819907128168e+00  1.0225640688922046e+00  1.0227545006918415e+00  1.0229023954547070e+00  1.0229364407121684e+00  1.0229301816288767e+00  1.0229215619777143e+00  1.0229182600881475e+00  1.0229179798591472e+00  1.0229183402233755e+00  1.0229185399231886e+00  1.0229185678818504e+00  1.0229185432725754e+00  1.0229185232955758e+00  1.0229185155661016e+00  1.0229185132215219e+00  1.0229185138108958e+00  1.0051324061835636e+00  1.0166358058103342e+00  1.0250413202484883e+00  1.0239985444984923e+00  1.0226637565953740e+00  1.0227278287785433e+00  1.0228554724291379e+00  1.0229230180360573e+00  1.0229364117876394e+00  1.0229300322029469e+00  1.0229230570415058e+00  1.0229200233087330e+00  1.0229192349934171e+00  1.0229190574289826e+00  1.0229189256951330e+00  1.0229187875386416e+00  1.0229186797949790e+00  1.0229186127561603e+00  1.0229185764116842e+00  1.0229185584335529e+00  1.0229185534785308e+00  1.0118004196139203e+00  1.0207947543216447e+00  1.0199758865437034e+00  1.0214332178060714e+00  1.0228532850387702e+00  1.0230589786520812e+00  1.0230221589690331e+00  1.0229578324663837e+00  1.0229319446386542e+00  1.0229250670046863e+00  1.0229232819430709e+00  1.0229220819570555e+00  1.0229209002572188e+00  1.0229199668583870e+00  1.0229193664247891e+00  1.0229190201789495e+00  1.0229188243392171e+00  1.0229187106536657e+00  1.0229186443936094e+00  1.0229186091526479e+00  1.0229185975569979e+00  1.0296927902632367e+00  1.0181074375550934e+00  1.0157908049338997e+00  1.0186997676026328e+00  1.0226111802675877e+00  1.0234034353759704e+00  1.0232032762214702e+00  1.0230287218431338e+00  1.0229402254669273e+00  1.0229210723119380e+00  1.0229223638969080e+00  1.0229237705823861e+00  1.0229227397896929e+00  1.0229211209342786e+00  1.0229199616862454e+00  1.0229193279631452e+00  1.0229190048549464e+00  1.0229188293779241e+00  1.0229187272455769e+00  1.0229186717774876e+00  1.0229186532620687e+00  1.0317184191353814e+00  1.0164898222232741e+00  1.0169307558138803e+00  1.0188649909368475e+00  1.0221899476756939e+00  1.0232036087587142e+00  1.0230990056938607e+00  1.0229303277562685e+00  1.0228811900936017e+00  1.0228891048497035e+00  1.0229043030948748e+00  1.0229126955675099e+00  1.0229157558440518e+00  1.0229167556428729e+00  1.0229172719737825e+00  1.0229176814662593e+00  1.0229179909494328e+00  1.0229181907073632e+00  1.0229183037734417e+00  1.0229183592549975e+00  1.0229183745315136e+00  1.0157662686243476e+00  1.0195903502946673e+00  1.0196449081880372e+00  1.0214228199426538e+00  1.0230478297840166e+00  1.0229812069391440e+00  1.0228923075766538e+00  1.0228881764632771e+00  1.0228977105480743e+00  1.0229073826203319e+00  1.0229130113355296e+00  1.0229155188653130e+00  1.0229166459179280e+00  1.0229172899833392e+00  1.0229177301354921e+00  1.0229180282785253e+00  1.0229182158992667e+00  1.0229183268855919e+00  1.0229183893343254e+00  1.0229184205546800e+00  1.0229184295491232e+00  1.0156040941817470e+00  1.0146550389159374e+00  1.0250136792094704e+00  1.0237557694267188e+00  1.0230734606564373e+00  1.0225586742360113e+00  1.0227574050259605e+00  1.0228929140955099e+00  1.0229253353225436e+00  1.0229232619049768e+00  1.0229182611441507e+00  1.0229167139132995e+00  1.0229170944333126e+00  1.0229177526122062e+00  1.0229181512074821e+00  1.0229183228199830e+00  1.0229183932186101e+00  1.0229184305400778e+00  1.0229184548175823e+00  1.0229184687951944e+00  1.0229184733413630e+00  1.0141513843367411e+00  1.0100972181901480e+00  1.0295998620041937e+00  1.0241308563405134e+00  1.0227243987604933e+00  1.0224821390833587e+00  1.0227614094108741e+00  1.0229070414564261e+00  1.0229390075166918e+00  1.0229304888919784e+00  1.0229212316130500e+00  1.0229180091861128e+00  1.0229178840487085e+00  1.0229183221430163e+00  1.0229185394065670e+00  1.0229185663652356e+00  1.0229185403014005e+00  1.0229185207919451e+00  1.0229185139508943e+00  1.0229185124597053e+00  1.0229185128890246e+00  1.0051267749362598e+00  1.0160835864776063e+00  1.0263322559688934e+00  1.0239541926612636e+00  1.0225052483402963e+00  1.0227321701907808e+00  1.0228563089393969e+00  1.0229241517504679e+00  1.0229373187959629e+00  1.0229299750756966e+00  1.0229228170768747e+00  1.0229198416259684e+00  1.0229191600497791e+00  1.0229190329963618e+00  1.0229189149539266e+00  1.0229187800353414e+00  1.0229186742345724e+00  1.0229186090170095e+00  1.0229185739524762e+00  1.0229185569213630e+00  1.0229185520631283e+00  1.0127246214852736e+00  1.0215350399346983e+00  1.0203799701945786e+00  1.0210680409801853e+00  1.0229682969699314e+00  1.0230742949057103e+00  1.0230222538160831e+00  1.0229556305346583e+00  1.0229299867655801e+00  1.0229246502482578e+00  1.0229231791911637e+00  1.0229220571298114e+00  1.0229208784308510e+00  1.0229199390494745e+00  1.0229193444527676e+00  1.0229190069621912e+00  1.0229188170888917e+00  1.0229187065097682e+00  1.0229186417250826e+00  1.0229186073113037e+00  1.0229185959251634e+00  1.0427087704106743e+00  1.0176100138658539e+00  1.0153904051958433e+00  1.0181167750582996e+00  1.0230884323959906e+00  1.0233903848927219e+00  1.0232170489580603e+00  1.0230203624862426e+00  1.0229363628070167e+00  1.0229195584598092e+00  1.0229223298516554e+00  1.0229239890595971e+00  1.0229228104284476e+00  1.0229211035683057e+00  1.0229199333326313e+00  1.0229193110770163e+00  1.0229189975085362e+00  1.0229188261880349e+00  1.0229187253349863e+00  1.0229186701582966e+00  1.0229186515369924e+00  1.0323795635394708e+00  1.0161204751219208e+00  1.0169433505261964e+00  1.0188049574626330e+00  1.0222370183650515e+00  1.0232321912175664e+00  1.0230993870915734e+00  1.0229272495905761e+00  1.0228799463391336e+00  1.0228889221320163e+00  1.0229044480829479e+00  1.0229128085528818e+00  1.0229157961839772e+00  1.0229167628274647e+00  1.0229172721558315e+00  1.0229176823803880e+00  1.0229179925849767e+00  1.0229181920738659e+00  1.0229183046353387e+00  1.0229183597230465e+00  1.0229183748262625e+00  1.0153985294627366e+00  1.0203626691015910e+00  1.0195225390677860e+00  1.0214371205752850e+00  1.0231686057222313e+00  1.0229714674427999e+00  1.0228814891885611e+00  1.0228862361443303e+00  1.0228974945256506e+00  1.0229077020331521e+00  1.0229132500447313e+00  1.0229155884295738e+00  1.0229166526107907e+00  1.0229172878705095e+00  1.0229177318930198e+00  1.0229180320780831e+00  1.0229182190993227e+00  1.0229183288913795e+00  1.0229183905540238e+00  1.0229184213205591e+00  1.0229184303541552e+00  1.0154604806466743e+00  1.0146414597125373e+00  1.0251860791380092e+00  1.0237918738600180e+00  1.0230927615753533e+00  1.0224969007865974e+00  1.0227599224873782e+00  1.0228952776897546e+00  1.0229259565562190e+00  1.0229234727351768e+00  1.0229181382121890e+00  1.0229165967772991e+00  1.0229170433810737e+00  1.0229177379997774e+00  1.0229181483127170e+00  1.0229183214481983e+00  1.0229183917712767e+00  1.0229184293938842e+00  1.0229184541694840e+00  1.0229184683914629e+00  1.0229184731261729e+00  1.0139911182321739e+00  1.0094497578260477e+00  1.0305507917904835e+00  1.0238500863046158e+00  1.0227382998662049e+00  1.0224487581296795e+00  1.0227781878367117e+00  1.0229048720964855e+00  1.0229388953795375e+00  1.0229302940878211e+00  1.0229210319869753e+00  1.0229179241694466e+00  1.0229178500266087e+00  1.0229183089833207e+00  1.0229185321313508e+00  1.0229185613987770e+00  1.0229185371488552e+00  1.0229185189693071e+00  1.0229185129438914e+00  1.0229185117380717e+00  1.0229185124317699e+00  1.0045066052277418e+00  1.0163615859995299e+00  1.0267603984384246e+00  1.0237866603443808e+00  1.0225376342619543e+00  1.0227339410861898e+00  1.0228579430383027e+00  1.0229196418162292e+00  1.0229376472226577e+00  1.0229297893149480e+00  1.0229227575612605e+00  1.0229197822738674e+00  1.0229191210059936e+00  1.0229190104457946e+00  1.0229189023192184e+00  1.0229187732229403e+00  1.0229186704544404e+00  1.0229186067795581e+00  1.0229185725552132e+00  1.0229185559525735e+00  1.0229185511414760e+00  1.0129954266260224e+00  1.0225580070712244e+00  1.0202353773722836e+00  1.0209431642519133e+00  1.0230736943575052e+00  1.0230896490840597e+00  1.0230124927614326e+00  1.0229547237624574e+00  1.0229284951141342e+00  1.0229243605458123e+00  1.0229231889331607e+00  1.0229220788457389e+00  1.0229208680829123e+00  1.0229199169285927e+00  1.0229193283308087e+00  1.0229189984583709e+00  1.0229188128763576e+00  1.0229187041852525e+00  1.0229186401831312e+00  1.0229186061570481e+00  1.0229185946240524e+00  1.0430425697802275e+00  1.0175072820904545e+00  1.0147774907595344e+00  1.0182111126172395e+00  1.0233461380910038e+00  1.0232854375851763e+00  1.0232330186525525e+00  1.0230150334730599e+00  1.0229365656766918e+00  1.0229197398946308e+00  1.0229225254767205e+00  1.0229240453044683e+00  1.0229227974157009e+00  1.0229210893889888e+00  1.0229199289039483e+00  1.0229193107882262e+00  1.0229189979472855e+00  1.0229188263931261e+00  1.0229187253565108e+00  1.0229186701558837e+00  1.0229186517090834e+00  1.0312594229280088e+00  1.0161459982248480e+00  1.0170009430960869e+00  1.0187932428350097e+00  1.0222480611223899e+00  1.0232289831768742e+00  1.0230976163616783e+00  1.0229272461375656e+00  1.0228800949342054e+00  1.0228890165781093e+00  1.0229044848574451e+00  1.0229128137896737e+00  1.0229157951682157e+00  1.0229167628178650e+00  1.0229172730385896e+00  1.0229176832453053e+00  1.0229179931057735e+00  1.0229181923392801e+00  1.0229183048177566e+00  1.0229183597643567e+00  1.0229183749273716e+00  1.0146767118182431e+00  1.0207134584384929e+00  1.0194759320369025e+00  1.0214370840332903e+00  1.0231771684106712e+00  1.0229514788543919e+00  1.0228796321858700e+00  1.0228869408151378e+00  1.0228978587750681e+00  1.0229077976134939e+00  1.0229132014775040e+00  1.0229155266532466e+00  1.0229166217058747e+00  1.0229172767103085e+00  1.0229177281371591e+00  1.0229180301907408e+00  1.0229182176972689e+00  1.0229183278962635e+00  1.0229183899321730e+00  1.0229184208740145e+00  1.0229184301173990e+00  1.0147341565131547e+00  1.0148481970138747e+00  1.0250284011003168e+00  1.0237852197329784e+00  1.0230787269214108e+00  1.0224842058629739e+00  1.0227666964701252e+00  1.0228939152921543e+00  1.0229254364131501e+00  1.0229232792294216e+00  1.0229180100936071e+00  1.0229165387077968e+00  1.0229170168837993e+00  1.0229177230514723e+00  1.0229181393784650e+00  1.0229183160650146e+00  1.0229183886566524e+00  1.0229184276397538e+00  1.0229184531408217e+00  1.0229184676762639e+00  1.0229184725792140e+00  1.0133233753510409e+00  1.0096956145205886e+00  1.0305713665953273e+00  1.0237749196743877e+00  1.0227565301323209e+00  1.0224468320823903e+00  1.0227827989675087e+00  1.0229000404300403e+00  1.0229388342959220e+00  1.0229300975353541e+00  1.0229209443897618e+00  1.0229178857681696e+00  1.0229178197881350e+00  1.0229182890969679e+00  1.0229185206515505e+00  1.0229185553395377e+00  1.0229185340159528e+00  1.0229185172564841e+00  1.0229185119137343e+00  1.0229185110280548e+00  1.0229185118487361e+00  1.0046561229612028e+00  1.0166194775592401e+00  1.0266710308964826e+00  1.0237124857988931e+00  1.0225914474363300e+00  1.0227163931629928e+00  1.0228579161023603e+00  1.0229162904473932e+00  1.0229386828132498e+00  1.0229294768571067e+00  1.0229227150751097e+00  1.0229197266517434e+00  1.0229190879301580e+00  1.0229189927392743e+00  1.0229188933952453e+00  1.0229187686338965e+00  1.0229186678770099e+00  1.0229186052313852e+00  1.0229185715750959e+00  1.0229185553132032e+00  1.0229185505523697e+00  1.0127933642654694e+00  1.0225380307401077e+00  1.0201146678392268e+00  1.0209422287140577e+00  1.0230996131873877e+00  1.0230674845169248e+00  1.0230125205399132e+00  1.0229561874906095e+00  1.0229287285487412e+00  1.0229241631701917e+00  1.0229231735361946e+00  1.0229220431626080e+00  1.0229208571774275e+00  1.0229199128682216e+00  1.0229193269232304e+00  1.0229189975616368e+00  1.0229188121753812e+00  1.0229187037236582e+00  1.0229186398886925e+00  1.0229186059875530e+00  1.0229185943912307e+00  1.0423450335924298e+00  1.0177678789180238e+00  1.0145996885287567e+00  1.0183174541429616e+00  1.0233482157181306e+00  1.0232390927415225e+00  1.0232515789686685e+00  1.0230125910744954e+00  1.0229371617684728e+00  1.0229198226132501e+00  1.0229225445341972e+00  1.0229240187446731e+00  1.0229227952808615e+00  1.0229210931111270e+00  1.0229199330425658e+00  1.0229193126789200e+00  1.0229189987172163e+00  1.0229188267389004e+00  1.0229187255703862e+00  1.0229186703123927e+00  1.0229186518740558e+00  1.0278262222718997e+00  1.0175249793910188e+00  1.0167110151587073e+00  1.0189154837899577e+00  1.0222177196482538e+00  1.0232177777888365e+00  1.0230975571801713e+00  1.0229274679589380e+00  1.0228805208382292e+00  1.0228892376211394e+00  1.0229045214017527e+00  1.0229128120045285e+00  1.0229157931966231e+00  1.0229167657994727e+00  1.0229172771175665e+00  1.0229176860766598e+00  1.0229179946307396e+00  1.0229181931422180e+00  1.0229183052382425e+00  1.0229183599345710e+00  1.0229183751440485e+00  1.0141368867214497e+00  1.0206841629966501e+00  1.0192606535837190e+00  1.0214748477919757e+00  1.0230745527074863e+00  1.0229548944501361e+00  1.0228826657119139e+00  1.0228879772993598e+00  1.0228981582897556e+00  1.0229075585112184e+00  1.0229129745333176e+00  1.0229154172611234e+00  1.0229165815967296e+00  1.0229172617274240e+00  1.0229177192668322e+00  1.0229180234985511e+00  1.0229182129984475e+00  1.0229183249303155e+00  1.0229183880472394e+00  1.0229184195915482e+00  1.0229184292461582e+00  1.0135503398260819e+00  1.0154981428958847e+00  1.0243799402023253e+00  1.0237950808814340e+00  1.0230457479910429e+00  1.0225299500555165e+00  1.0227620241227320e+00  1.0228914512883889e+00  1.0229239262335326e+00  1.0229228089722835e+00  1.0229179556565737e+00  1.0229165469272341e+00  1.0229170102231380e+00  1.0229177061621473e+00  1.0229181253704123e+00  1.0229183081316520e+00  1.0229183848320020e+00  1.0229184257532633e+00  1.0229184519717216e+00  1.0229184668213729e+00  1.0229184719397475e+00  1.0125123772990596e+00  1.0108700150158678e+00  1.0295211830986233e+00  1.0239936317600355e+00  1.0227434733076548e+00  1.0224719390865913e+00  1.0227721378995704e+00  1.0228994586913394e+00  1.0229374944914396e+00  1.0229298160778770e+00  1.0229208897345803e+00  1.0229178814752726e+00  1.0229178017395613e+00  1.0229182685788987e+00  1.0229185072240412e+00  1.0229185484300207e+00  1.0229185307561492e+00  1.0229185156170133e+00  1.0229185109153351e+00  1.0229185103539777e+00  1.0229185112324810e+00  1.0061908927410379e+00  1.0166873292827476e+00  1.0260667885598906e+00  1.0237939255245831e+00  1.0225837725965785e+00  1.0227151224136577e+00  1.0228569880269334e+00  1.0229174030349646e+00  1.0229379406028714e+00  1.0229291857943934e+00  1.0229226180089415e+00  1.0229197237466001e+00  1.0229190823836172e+00  1.0229189874335352e+00  1.0229188890956944e+00  1.0229187660230734e+00  1.0229186666557899e+00  1.0229186047268464e+00  1.0229185713573143e+00  1.0229185551702626e+00  1.0229185503824423e+00  1.0123136912313049e+00  1.0220247533581466e+00  1.0200476543549104e+00  1.0210658526469572e+00  1.0229826957799228e+00  1.0230673906891408e+00  1.0230152442576974e+00  1.0229582647164157e+00  1.0229295217049272e+00  1.0229241759951029e+00  1.0229231169631459e+00  1.0229220061143467e+00  1.0229208541258552e+00  1.0229199253356933e+00  1.0229193356799484e+00  1.0229190019844305e+00  1.0229188142745771e+00  1.0229187049365833e+00  1.0229186408001385e+00  1.0229186068061320e+00  1.0229185950178199e+00  1.0364927587348411e+00  1.0185874811276932e+00  1.0144771880305090e+00  1.0183925263592803e+00  1.0232228097955507e+00  1.0232721613046585e+00  1.0232483143877449e+00  1.0230125424890206e+00  1.0229373296539563e+00  1.0229199486423044e+00  1.0229225633501473e+00  1.0229239824104595e+00  1.0229227926923325e+00  1.0229210943022968e+00  1.0229199341514275e+00  1.0229193132063210e+00  1.0229189988464538e+00  1.0229188267693625e+00  1.0229187256476433e+00  1.0229186704618947e+00  1.0229186520599747e+00  1.0372723130772086e+00  1.0154022922861954e+00  1.0171838657014622e+00  1.0188596801575256e+00  1.0220945768185639e+00  1.0231813004504973e+00  1.0230943455281876e+00  1.0229328768656081e+00  1.0228834420742059e+00  1.0228894693052908e+00  1.0229041721700409e+00  1.0229125564644608e+00  1.0229156978682239e+00  1.0229167456763677e+00  1.0229172730552993e+00  1.0229176815848806e+00  1.0229179895494069e+00  1.0229181891702828e+00  1.0229183025940649e+00  1.0229183581063086e+00  1.0229183741406027e+00  1.0228217697960620e+00  1.0156129459103342e+00  1.0201124621403053e+00  1.0212733469687960e+00  1.0230794257999891e+00  1.0229433285494121e+00  1.0228729509498400e+00  1.0228889071083043e+00  1.0228988657476825e+00  1.0229076342400438e+00  1.0229128340782450e+00  1.0229152746203463e+00  1.0229165065585071e+00  1.0229172287694150e+00  1.0229177036620221e+00  1.0229180143079597e+00  1.0229182067820153e+00  1.0229183207223773e+00  1.0229183851643924e+00  1.0229184177412010e+00  1.0229184269403284e+00  1.0253548767138303e+00  1.0123247981134695e+00  1.0249978853926935e+00  1.0234350836840640e+00  1.0231720358999796e+00  1.0224603168867126e+00  1.0227685271878380e+00  1.0228921576322962e+00  1.0229237081174551e+00  1.0229226021389750e+00  1.0229177128314002e+00  1.0229164142592559e+00  1.0229169462534389e+00  1.0229176743070716e+00  1.0229181080288408e+00  1.0229182974105753e+00  1.0229183779893161e+00  1.0229184214802138e+00  1.0229184492346377e+00  1.0229184651507794e+00  1.0229184700184288e+00  1.0227305795243042e+00  1.0081854858181876e+00  1.0292859342986687e+00  1.0238334292473024e+00  1.0227753448079828e+00  1.0224488757724601e+00  1.0228057083640822e+00  1.0228931723268089e+00  1.0229359502649400e+00  1.0229285779391832e+00  1.0229206639570285e+00  1.0229179166106745e+00  1.0229178244084569e+00  1.0229182643293715e+00  1.0229184945836143e+00  1.0229185389541662e+00  1.0229185260260967e+00  1.0229185135788839e+00  1.0229185098567719e+00  1.0229185098238074e+00  1.0229185102431437e+00  1.0149926851895605e+00  1.0134809854313382e+00  1.0266339421468924e+00  1.0232766158103184e+00  1.0226248092235715e+00  1.0227342747671229e+00  1.0228689935834090e+00  1.0229134721734234e+00  1.0229382130844180e+00  1.0229279423004838e+00  1.022922573489885