<?xml version="1.0"?>
<VTKFile type="UnstructuredGrid"  version="0.1"  >
<UnstructuredGrid>
<Piece  NumberOfPoints="2976" NumberOfCells="13500">
<Points>
<DataArray  type="Float64"  NumberOfComponents="3"  format="ascii">0 0 0  0.3333333333333333 0 0  0.6666666666666666 0 0  1 0 0  1.333333333333333 0 0  1.666666666666667 0 0  2 0 0  2.333333333333333 0 0  2.666666666666667 0 0  3 0 0  3.333333333333333 0 0  3.666666666666667 0 0  4 0 0  4.333333333333333 0 0  4.666666666666667 0 0  5 0 0  5.333333333333333 0 0  5.666666666666667 0 0  6 0 0  6.333333333333333 0 0  6.666666666666667 0 0  7 0 0  7.333333333333333 0 0  7.666666666666667 0 0  8 0 0  8.333333333333334 0 0  8.666666666666666 0 0  9 0 0  9.333333333333334 0 0  9.666666666666666 0 0  10 0 0  0 0.2 0  0.3333333333333333 0.2 0  0.6666666666666666 0.2 0  1 0.2 0  1.333333333333333 0.2 0  1.666666666666667 0.2 0  2 0.2 0  2.333333333333333 0.2 0  2.666666666666667 0.2 0  3 0.2 0  3.333333333333333 0.2 0  3.666666666666667 0.2 0  4 0.2 0  4.333333333333333 0.2 0  4.666666666666667 0.2 0  5 0.2 0  5.333333333333333 0.2 0  5.666666666666667 0.2 0  6 0.2 0  6.333333333333333 0.2 0  6.666666666666667 0.2 0  7 0.2 0  7.333333333333333 0.2 0  7.666666666666667 0.2 0  8 0.2 0  8.333333333333334 0.2 0  8.666666666666666 0.2 0  9 0.2 0  9.333333333333334 0.2 0  9.666666666666666 0.2 0  10 0.2 0  0 0.4 0  0.3333333333333333 0.4 0  0.6666666666666666 0.4 0  1 0.4 0  1.333333333333333 0.4 0  1.666666666666667 0.4 0  2 0.4 0  2.333333333333333 0.4 0  2.666666666666667 0.4 0  3 0.4 0  3.333333333333333 0.4 0  3.666666666666667 0.4 0  4 0.4 0  4.333333333333333 0.4 0  4.666666666666667 0.4 0  5 0.4 0  5.333333333333333 0.4 0  5.666666666666667 0.4 0  6 0.4 0  6.333333333333333 0.4 0  6.666666666666667 0.4 0  7 0.4 0  7.333333333333333 0.4 0  7.666666666666667 0.4 0  8 0.4 0  8.333333333333334 0.4 0  8.666666666666666 0.4 0  9 0.4 0  9.333333333333334 0.4 0  9.666666666666666 0.4 0  10 0.4 0  0 0.6 0  0.3333333333333333 0.6 0  0.6666666666666666 0.6 0  1 0.6 0  1.333333333333333 0.6 0  1.666666666666667 0.6 0  2 0.6 0  2.333333333333333 0.6 0  2.666666666666667 0.6 0  3 0.6 0  3.333333333333333 0.6 0  3.666666666666667 0.6 0  4 0.6 0  4.333333333333333 0.6 0  4.666666666666667 0.6 0  5 0.6 0  5.333333333333333 0.6 0  5.666666666666667 0.6 0  6 0.6 0  6.333333333333333 0.6 0  6.666666666666667 0.6 0  7 0.6 0  7.333333333333333 0.6 0  7.666666666666667 0.6 0  8 0.6 0  8.333333333333334 0.6 0  8.666666666666666 0.6 0  9 0.6 0  9.333333333333334 0.6 0  9.666666666666666 0.6 0  10 0.6 0  0 0.8 0  0.3333333333333333 0.8 0  0.6666666666666666 0.8 0  1 0.8 0  1.333333333333333 0.8 0  1.666666666666667 0.8 0  2 0.8 0  2.333333333333333 0.8 0  2.666666666666667 0.8 0  3 0.8 0  3.333333333333333 0.8 0  3.666666666666667 0.8 0  4 0.8 0  4.333333333333333 0.8 0  4.666666666666667 0.8 0  5 0.8 0  5.333333333333333 0.8 0  5.666666666666667 0.8 0  6 0.8 0  6.333333333333333 0.8 0  6.666666666666667 0.8 0  7 0.8 0  7.333333333333333 0.8 0  7.666666666666667 0.8 0  8 0.8 0  8.333333333333334 0.8 0  8.666666666666666 0.8 0  9 0.8 0  9.333333333333334 0.8 0  9.666666666666666 0.8 0  10 0.8 0  0 1 0  0.3333333333333333 1 0  0.6666666666666666 1 0  1 1 0  1.333333333333333 1 0  1.666666666666667 1 0  2 1 0  2.333333333333333 1 0  2.666666666666667 1 0  3 1 0  3.333333333333333 1 0  3.666666666666667 1 0  4 1 0  4.333333333333333 1 0  4.666666666666667 1 0  5 1 0  5.333333333333333 1 0  5.666666666666667 1 0  6 1 0  6.333333333333333 1 0  6.666666666666667 1 0  7 1 0  7.333333333333333 1 0  7.666666666666667 1 0  8 1 0  8.333333333333334 1 0  8.666666666666666 1 0  9 1 0  9.333333333333334 1 0  9.666666666666666 1 0  10 1 0  0 1.2 0  0.3333333333333333 1.2 0  0.6666666666666666 1.2 0  1 1.2 0  1.333333333333333 1.2 0  1.666666666666667 1.2 0  2 1.2 0  2.333333333333333 1.2 0  2.666666666666667 1.2 0  3 1.2 0  3.333333333333333 1.2 0  3.666666666666667 1.2 0  4 1.2 0  4.333333333333333 1.2 0  4.666666666666667 1.2 0  5 1.2 0  5.333333333333333 1.2 0  5.666666666666667 1.2 0  6 1.2 0  6.333333333333333 1.2 0  6.666666666666667 1.2 0  7 1.2 0  7.333333333333333 1.2 0  7.666666666666667 1.2 0  8 1.2 0  8.333333333333334 1.2 0  8.666666666666666 1.2 0  9 1.2 0  9.333333333333334 1.2 0  9.666666666666666 1.2 0  10 1.2 0  0 1.4 0  0.3333333333333333 1.4 0  0.6666666666666666 1.4 0  1 1.4 0  1.333333333333333 1.4 0  1.666666666666667 1.4 0  2 1.4 0  2.333333333333333 1.4 0  2.666666666666667 1.4 0  3 1.4 0  3.333333333333333 1.4 0  3.666666666666667 1.4 0  4 1.4 0  4.333333333333333 1.4 0  4.666666666666667 1.4 0  5 1.4 0  5.333333333333333 1.4 0  5.666666666666667 1.4 0  6 1.4 0  6.333333333333333 1.4 0  6.666666666666667 1.4 0  7 1.4 0  7.333333333333333 1.4 0  7.666666666666667 1.4 0  8 1.4 0  8.333333333333334 1.4 0  8.666666666666666 1.4 0  9 1.4 0  9.333333333333334 1.4 0  9.666666666666666 1.4 0  10 1.4 0  0 1.6 0  0.3333333333333333 1.6 0  0.6666666666666666 1.6 0  1 1.6 0  1.333333333333333 1.6 0  1.666666666666667 1.6 0  2 1.6 0  2.333333333333333 1.6 0  2.666666666666667 1.6 0  3 1.6 0  3.333333333333333 1.6 0  3.666666666666667 1.6 0  4 1.6 0  4.333333333333333 1.6 0  4.666666666666667 1.6 0  5 1.6 0  5.333333333333333 1.6 0  5.666666666666667 1.6 0  6 1.6 0  6.333333333333333 1.6 0  6.666666666666667 1.6 0  7 1.6 0  7.333333333333333 1.6 0  7.666666666666667 1.6 0  8 1.6 0  8.333333333333334 1.6 0  8.666666666666666 1.6 0  9 1.6 0  9.333333333333334 1.6 0  9.666666666666666 1.6 0  10 1.6 0  0 1.8 0  0.3333333333333333 1.8 0  0.6666666666666666 1.8 0  1 1.8 0  1.333333333333333 1.8 0  1.666666666666667 1.8 0  2 1.8 0  2.333333333333333 1.8 0  2.666666666666667 1.8 0  3 1.8 0  3.333333333333333 1.8 0  3.666666666666667 1.8 0  4 1.8 0  4.333333333333333 1.8 0  4.666666666666667 1.8 0  5 1.8 0  5.333333333333333 1.8 0  5.666666666666667 1.8 0  6 1.8 0  6.333333333333333 1.8 0  6.666666666666667 1.8 0  7 1.8 0  7.333333333333333 1.8 0  7.666666666666667 1.8 0  8 1.8 0  8.333333333333334 1.8 0  8.666666666666666 1.8 0  9 1.8 0  9.333333333333334 1.8 0  9.666666666666666 1.8 0  10 1.8 0  0 2 0  0.3333333333333333 2 0  0.6666666666666666 2 0  1 2 0  1.333333333333333 2 0  1.666666666666667 2 0  2 2 0  2.333333333333333 2 0  2.666666666666667 2 0  3 2 0  3.333333333333333 2 0  3.666666666666667 2 0  4 2 0  4.333333333333333 2 0  4.666666666666667 2 0  5 2 0  5.333333333333333 2 0  5.666666666666667 2 0  6 2 0  6.333333333333333 2 0  6.666666666666667 2 0  7 2 0  7.333333333333333 2 0  7.666666666666667 2 0  8 2 0  8.333333333333334 2 0  8.666666666666666 2 0  9 2 0  9.333333333333334 2 0  9.666666666666666 2 0  10 2 0  0 2.2 0  0.3333333333333333 2.2 0  0.6666666666666666 2.2 0  1 2.2 0  1.333333333333333 2.2 0  1.666666666666667 2.2 0  2 2.2 0  2.333333333333333 2.2 0  2.666666666666667 2.2 0  3 2.2 0  3.333333333333333 2.2 0  3.666666666666667 2.2 0  4 2.2 0  4.333333333333333 2.2 0  4.666666666666667 2.2 0  5 2.2 0  5.333333333333333 2.2 0  5.666666666666667 2.2 0  6 2.2 0  6.333333333333333 2.2 0  6.666666666666667 2.2 0  7 2.2 0  7.333333333333333 2.2 0  7.666666666666667 2.2 0  8 2.2 0  8.333333333333334 2.2 0  8.666666666666666 2.2 0  9 2.2 0  9.333333333333334 2.2 0  9.666666666666666 2.2 0  10 2.2 0  0 2.4 0  0.3333333333333333 2.4 0  0.6666666666666666 2.4 0  1 2.4 0  1.333333333333333 2.4 0  1.666666666666667 2.4 0  2 2.4 0  2.333333333333333 2.4 0  2.666666666666667 2.4 0  3 2.4 0  3.333333333333333 2.4 0  3.666666666666667 2.4 0  4 2.4 0  4.333333333333333 2.4 0  4.666666666666667 2.4 0  5 2.4 0  5.333333333333333 2.4 0  5.666666666666667 2.4 0  6 2.4 0  6.333333333333333 2.4 0  6.666666666666667 2.4 0  7 2.4 0  7.333333333333333 2.4 0  7.666666666666667 2.4 0  8 2.4 0  8.333333333333334 2.4 0  8.666666666666666 2.4 0  9 2.4 0  9.333333333333334 2.4 0  9.666666666666666 2.4 0  10 2.4 0  0 2.6 0  0.3333333333333333 2.6 0  0.6666666666666666 2.6 0  1 2.6 0  1.333333333333333 2.6 0  1.666666666666667 2.6 0  2 2.6 0  2.333333333333333 2.6 0  2.666666666666667 2.6 0  3 2.6 0  3.333333333333333 2.6 0  3.666666666666667 2.6 0  4 2.6 0  4.333333333333333 2.6 0  4.666666666666667 2.6 0  5 2.6 0  5.333333333333333 2.6 0  5.666666666666667 2.6 0  6 2.6 0  6.333333333333333 2.6 0  6.666666666666667 2.6 0  7 2.6 0  7.333333333333333 2.6 0  7.666666666666667 2.6 0  8 2.6 0  8.333333333333334 2.6 0  8.666666666666666 2.6 0  9 2.6 0  9.333333333333334 2.6 0  9.666666666666666 2.6 0  10 2.6 0  0 2.8 0  0.3333333333333333 2.8 0  0.6666666666666666 2.8 0  1 2.8 0  1.333333333333333 2.8 0  1.666666666666667 2.8 0  2 2.8 0  2.333333333333333 2.8 0  2.666666666666667 2.8 0  3 2.8 0  3.333333333333333 2.8 0  3.666666666666667 2.8 0  4 2.8 0  4.333333333333333 2.8 0  4.666666666666667 2.8 0  5 2.8 0  5.333333333333333 2.8 0  5.666666666666667 2.8 0  6 2.8 0  6.333333333333333 2.8 0  6.666666666666667 2.8 0  7 2.8 0  7.333333333333333 2.8 0  7.666666666666667 2.8 0  8 2.8 0  8.333333333333334 2.8 0  8.666666666666666 2.8 0  9 2.8 0  9.333333333333334 2.8 0  9.666666666666666 2.8 0  10 2.8 0  0 3 0  0.3333333333333333 3 0  0.6666666666666666 3 0  1 3 0  1.333333333333333 3 0  1.666666666666667 3 0  2 3 0  2.333333333333333 3 0  2.666666666666667 3 0  3 3 0  3.333333333333333 3 0  3.666666666666667 3 0  4 3 0  4.333333333333333 3 0  4.666666666666667 3 0  5 3 0  5.333333333333333 3 0  5.666666666666667 3 0  6 3 0  6.333333333333333 3 0  6.666666666666667 3 0  7 3 0  7.333333333333333 3 0  7.666666666666667 3 0  8 3 0  8.333333333333334 3 0  8.666666666666666 3 0  9 3 0  9.333333333333334 3 0  9.666666666666666 3 0  10 3 0  0 0 0.1  0.3333333333333333 0 0.1  0.6666666666666666 0 0.1  1 0 0.1  1.333333333333333 0 0.1  1.666666666666667 0 0.1  2 0 0.1  2.333333333333333 0 0.1  2.666666666666667 0 0.1  3 0 0.1  3.333333333333333 0 0.1  3.666666666666667 0 0.1  4 0 0.1  4.333333333333333 0 0.1  4.666666666666667 0 0.1  5 0 0.1  5.333333333333333 0 0.1  5.666666666666667 0 0.1  6 0 0.1  6.333333333333333 0 0.1  6.666
[...]
<PointData  Scalars="f_7-2"> 
<DataArray  type="Float64"  Name="f_7-2"  format="ascii">9.8515711043836285e-01  9.8772537765124380e-01  9.9544214867432956e-01  9.9746450705870560e-01  9.9669977058379267e-01  9.9755102836530163e-01  9.9772609147354163e-01  9.9555270771667126e-01  9.8780305283500391e-01  9.7784689310623607e-01  9.7141426222258132e-01  9.6958324592981315e-01  9.6992271878472747e-01  9.7078975642943055e-01  9.7171935238821605e-01  9.7254759808788049e-01  9.7316057963399361e-01  9.7350878098564053e-01  9.7362485978525126e-01  9.7359261799263841e-01  9.7349631043439522e-01  9.7339231014339567e-01  9.7330823133331035e-01  9.7325270490760030e-01  9.7322410131255921e-01  9.7321597135831761e-01  9.7322041210724408e-01  9.7323022312359819e-01  9.7324030340586309e-01  9.7324737680721318e-01  9.7325001584475967e-01  1.0240245043403595e+00  9.8817687605065063e-01  9.9832504074920225e-01  9.9485154503924034e-01  9.9718223994303190e-01  9.9732319492592802e-01  9.9671609674611861e-01  9.9151768681302299e-01  9.8212350373140900e-01  9.7357770326956150e-01  9.6998305768111492e-01  9.6987057855245629e-01  9.7064161771285473e-01  9.7150175598859145e-01  9.7232164843961211e-01  9.7298825753355167e-01  9.7341802647001385e-01  9.7360597065002386e-01  9.7361665890507321e-01  9.7353653374395399e-01  9.7343241192630603e-01  9.7334058949117574e-01  9.7327484623367333e-01  9.7323645086533250e-01  9.7322054987878159e-01  9.7321988379184321e-01  9.7322722134531481e-01  9.7323692018308938e-01  9.7324539392044951e-01  9.7325057859695152e-01  9.7325224092533047e-01  1.0037297411959358e+00  1.0126634669510439e+00  9.8375756018353933e-01  9.9827845455484321e-01  9.9633980567285096e-01  9.9688959931222232e-01  9.9436166668263115e-01  9.8637763907308051e-01  9.7640019451244464e-01  9.7027373198246003e-01  9.6948116047023924e-01  9.7042462803284268e-01  9.7128145481327555e-01  9.7206571512148798e-01  9.7276932981049191e-01  9.7328051474875843e-01  9.7355055417006398e-01  9.7361485947544046e-01  9.7355780832784278e-01  9.7345809645078674e-01  9.7336224845133545e-01  9.7328934473658679e-01  9.7324338187714710e-01  9.7322114825681116e-01  9.7321617801509941e-01  9.7322127707447836e-01  9.7323035332082819e-01  9.7323932893604015e-01  9.7324609737913803e-01  9.7325010825122282e-01  9.7325129195926352e-01  1.0189879982435306e+00  1.0066487103848876e+00  1.0015480222210347e+00  9.9293404053369994e-01  9.9614542272021489e-01  9.9632658865706414e-01  9.9036645688667868e-01  9.8023987029169801e-01  9.7101092874056205e-01  9.6824955706968363e-01  9.6946436502450095e-01  9.7088209943063675e-01  9.7186552681834348e-01  9.7263299947801396e-01  9.7321245295071312e-01  9.7355560186541013e-01  9.7366504155944711e-01  9.7361515055520920e-01  9.7350085744366166e-01  9.7338687873436569e-01  9.7330010854142579e-01  9.7324512408214525e-01  9.7321756071853949e-01  9.7321006268726495e-01  9.7321467163077913e-01  9.7322442263346787e-01  9.7323446233925481e-01  9.7324227029157606e-01  9.7324726633734460e-01  9.7324985000609798e-01  9.7325064626544366e-01  1.0149293016059937e+00  1.0042352848018061e+00  1.0107926639918838e+00  9.9306856747694450e-01  9.9755821492795294e-01  9.9340062292892739e-01  9.8504749747058973e-01  9.7344816148357716e-01  9.6702442237797381e-01  9.6748327666526235e-01  9.6955575451412912e-01  9.7118001980595647e-01  9.7236069381725410e-01  9.7314063055700617e-01  9.7359519626497648e-01  9.7377143967697677e-01  9.7373482443305337e-01  9.7359345209500814e-01  9.7343969738182712e-01  9.7331972970298641e-01  9.7324394341821596e-01  9.7320617099526441e-01  9.7319551623068723e-01  9.7320111430513701e-01  9.7321383974283526e-01  9.7322719048654160e-01  9.7323763450994660e-01  9.7324418235993759e-01  9.7324752467575093e-01  9.7324885573187070e-01  9.7324911352892518e-01  1.0117717971033717e+00  1.0073916102161298e+00  1.0070665170093471e+00  1.0050066764746692e+00  9.9342907871923913e-01  9.9057083793930234e-01  9.7803876976342385e-01  9.6709445285951234e-01  9.6511117258416956e-01  9.6736875288884960e-01  9.6954993195410732e-01  9.7136124228866727e-01  9.7273708748757115e-01  9.7355613099628269e-01  9.7390767115222476e-01  9.7393064710361754e-01  9.7377258625335827e-01  9.7356468003158969e-01  9.7338564287716856e-01  9.7326363389460302e-01  9.7319755686313403e-01  9.7317417457058775e-01  9.7317763212082753e-01  9.7319402267402477e-01  9.7321320406401968e-01  9.7322920171252358e-01  9.7323973924096496e-01  9.7324516623768842e-01  9.7324714259598977e-01  9.7324740910124208e-01  9.7324727729703575e-01  1.0120012319827798e+00  1.0070999506766767e+00  1.0057964666234376e+00  1.0093306630690975e+00  9.9757877044241450e-01  9.8449395140048002e-01  9.6933165388478726e-01  9.6318495756450451e-01  9.6477134759425387e-01  9.6733953370048953e-01  9.6949449502385676e-01  9.7147534376347700e-01  9.7297689211905558e-01  9.7384270838647735e-01  9.7412300060596813e-01  9.7402841460787426e-01  9.7378564549804569e-01  9.7353667135379252e-01  9.7334356799758359e-01  9.7322144624604423e-01  9.7316268372003756e-01  9.7314992961427071e-01  9.7316388537531306e-01  9.7318825402319942e-01  9.7321207813605304e-01  9.7322987899978841e-01  9.7324042303832714e-01  9.7324505296951425e-01  9.7324607284351128e-01  9.7324562373736767e-01  9.7324523316390632e-01  1.0120521269155396e+00  1.0066487767307832e+00  1.0066676877053033e+00  1.0081957750798753e+00  1.0081279943428514e+00  9.7145759289501887e-01  9.6329529407752856e-01  9.6192339878147493e-01  9.6495713964963903e-01  9.6724708749481714e-01  9.6946981082581296e-01  9.7153135521514133e-01  9.7308368278097823e-01  9.7397154338196656e-01  9.7421599192463737e-01  9.7406474000681464e-01  9.7378299556414460e-01  9.7351628303751092e-01  9.7331727244968325e-01  9.7319549602895106e-01  9.7314088503443896e-01  9.7313424252715008e-01  9.7315434992219763e-01  9.7318341171106015e-01  9.7320994755569823e-01  9.7322882194118843e-01  9.7323947120527265e-01  9.7324376275796620e-01  9.7324435250517349e-01  9.7324359396692273e-01  9.7324309938496589e-01  1.0138351448983776e+00  1.0060318863413917e+00  1.0075103206607654e+00  1.0066311562019641e+00  1.0119128795401862e+00  9.7095832123648584e-01  9.5902391429881551e-01  9.6256468256642602e-01  9.6511337635223604e-01  9.6715774087701056e-01  9.6949234242562221e-01  9.7153161432089274e-01  9.7306468397796997e-01  9.7392760027127612e-01  9.7417338715484525e-01  9.7403978974958694e-01  9.7376928817103903e-01  9.7350643170851137e-01  9.7330825227559437e-01  9.7318680966062754e-01  9.7313295893584284e-01  9.7312756569683923e-01  9.7314904815048686e-01  9.7317922336403928e-01  9.7320648136409060e-01  9.7322579133032461e-01  9.7323674347853639e-01  9.7324125182983012e-01  9.7324199442962489e-01  9.7324136192340904e-01  9.7324092133748774e-01  1.0169975803788309e+00  1.0043053021219406e+00  1.0082721707629152e+00  1.0078274681530768e+00  1.0053410569830024e+00  9.8340363199641101e-01  9.6048515600358064e-01  9.6413379383296494e-01  9.6498440019662357e-01  9.6723497371105338e-01  9.6951822981284153e-01  9.7147814199524329e-01  9.7291532980032158e-01  9.7371513548728628e-01  9.7400145935076010e-01  9.7395331096752202e-01  9.7374285638653846e-01  9.7350621455066233e-01  9.7331627650444463e-01  9.7319546512018673e-01  9.7313907526010357e-01  9.7313001823183831e-01  9.7314798105128975e-01  9.7317561179309386e-01  9.7320160208871931e-01  9.7322074496835831e-01  9.7323220894267359e-01  9.7323752178461731e-01  9.7323899992796858e-01  9.7323891786826167e-01  9.7323868558401105e-01  1.0167664097588900e+00  1.0027757058500524e+00  1.0088825866071023e+00  1.0069873036619192e+00  9.9647372801418610e-01  9.9091335141483239e-01  9.7349187695941652e-01  9.6428951636657878e-01  9.6543619681235704e-01  9.6742726789881983e-01  9.6951378981973757e-01  9.7136185212365611e-01  9.7262252241146241e-01  9.7335790309558445e-01  9.7372224182433176e-01  9.7380503337198987e-01  9.7369597486759818e-01  9.7351077130021035e-01  9.7333915818726868e-01  9.7322042971833356e-01  9.7315865240917498e-01  9.7314128560703439e-01  9.7315107367215326e-01  9.7317267604762958e-01  9.7319546857241068e-01  9.7321380432478033e-01  9.7322593956554848e-01  9.7323255996500690e-01  9.7323535610671619e-01  9.7323620569681879e-01  9.7323631549593159e-01  1.0093404442895084e+00  1.0050527316806945e+00  1.0104533829298661e+00  9.9992898661538376e-01  9.9258623230643084e-01  9.9377604568741507e-01  9.8666294098364615e-01  9.6779748101208485e-01  9.6650430307328994e-01  9.6759324190165286e-01  9.6954272877197811e-01  9.7113234475913013e-01  9.7218634488790046e-01  9.7289355495555729e-01  9.7336275342612111e-01  9.7359709410447726e-01  9.7361914656755977e-01  9.7351235466289943e-01  9.7337294040677957e-01  9.7325971635428188e-01  9.7319054650603276e-01  9.7316080708092645e-01  9.7315831816099851e-01  9.7317078075289498e-01  9.7318853921301085e-01  9.7320533608173221e-01  9.7321816137021233e-01  9.7322644298542882e-01  9.7323104570365460e-01  9.7323309920106327e-01  9.7323368484038841e-01  9.8971769588522462e-01  1.0086901682766303e+00  1.0059427423722171e+00  9.9285662769405014e-01  9.9397524226200273e-01  9.9542254770774152e-01  9.9270199442008300e-01  9.7784537575650810e-01  9.6770240499816662e-01  9.6818842532996841e-01  9.6954029545597065e-01  9.7074462443059351e-01  9.7163340312434898e-01  9.7235858408285325e-01  9.7294481080774742e-01  9.7333373227841413e-01  9.7350376765330016e-01  9.7350021013112531e-01  9.7341045997064324e-01  9.7330918996043025e-01  9.7323231350790962e-01  9.7318732002377883e-01  9.7316940941115626e-01  9.7317021427053607e-01  9.7318127541216182e-01  9.7319570049776849e-01  9.7320902283313682e-01  9.7321918924051987e-01  9.7322589870476783e-01  9.7322956093264090e-01  9.7323060179014798e-01  9.8080597313828011e-01  1.0172202928041951e+00  9.9474175500853501e-01  9.9161878071273624e-01  9.9666282123207262e-01  9.9614629621169781e-01  9.9459814833909521e-01  9.8786064992344669e-01  9.7226531639530767e-01  9.6907729945246890e-01  9.6944671396653825e-01  9.7023679014329367e-01  9.7099542349511991e-01  9.7177358851594731e-01  9.7247566631155624e-01  9.7301476566483924e-01  9.7334131603540841e-01  9.7346216096080096e-01  9.7344242956778537e-01  9.7336347482576158e-01  9.7328111675048690e-01  9.7321959931354174e-01  9.7318416668410812e-01  9.7317132222787384e-01  9.7317412145962090e-01  9.7318519164604944e-01  9.7319860653209667e-01  9.7321066221366515e-01  9.7321960740786184e-01  9.7322503373130820e-01  9.7322664786517454e-01  1.0197605784526471e+00  1.0024079709930336e+00  9.8568652026235548e-01  9.9661672430507453e-01  9.9755973403909981e-01  9.9655356815853202e-01  9.9612836687497330e-01  9.9321484937235927e-01  9.8044113662636867e-01  9.7050422627592592e-01  9.6948449502143830e-01  9.6962816177913913e-01  9.7033356817660443e-01  9.7119137767136909e-01  9.7200369828598132e-01  9.7268275553080807e-01  9.7315861213613175e-01  9.7340757184076387e-01  9.7346855609531013e-01  9.7342027748292204e-01  9.7333570522123014e-01  9.7325794388048503e-01  9.7320414964134561e-01  9.7317645514541695e-01  9.7316975613450407e-01  9.7317643661930409e-01  9.7318924970978216e-01  9.7320280521194213e-01  9.7321393936935696e-01  9.7322063821614835e-01  9.7322239006527256e-01  1.0740537589883188e+00  9.5603882618635394e-01  9.9478528766698093e-01  9.9871236995617518e-01  9.9727898379261393e-01  9.9695027790054003e-01  9.9687659741402745e-01  9.9520711333326617e-01  9.8851126694202363e-01  9.7471817214206824e-01  9.6964688837038726e-01  9.6896267751930931e-01  9.6961265895591708e-01  9.7049377099778456e-01  9.7140160343697579e-01  9.7221704276456899e-01  9.7285292486803698e-01  9.7325772114866327e-01  9.7343569299525357e-01  9.7344849099908182e-01  9.7337928671922302e-01  9.7329271674872542e-01  9.7322258584136412e-01  9.7317964946089253e-01  9.7316220127356690e-01  9.7316324243746866e-01  9.7317462277614952e-01  9.7318934160414083e-01  9.7320248938539955e-01  9.7321094165750244e-01  9.7321649435111734e-01  9.6718795508213429e-01  9.8184208688538011e-01  9.9822271594460410e-01  9.9800668114660462e-01  9.9613954692783124e-01  9.9681130065832557e-01  9.9714687945434832e-01  9.9694307181697217e-01  9.9092391427117077e-01  9.7913636825840000e-01  9.7016989377027862e-01  9.6845057612890584e-01  9.6981838024308964e-01  9.7108787292901433e-01  9.7201868416786308e-01  9.7279745287894603e-01  9.7338549073689518e-01  9.7370762200712702e-01  9.7377961952755709e-01  9.7369598833963977e-01  9.7355804588270034e-01  9.7342830867166397e-01  9.7333076628275750e-01  9.7326858069343669e-01  9.7323675345850513e-01  9.7322729946248165e-01  9.7323145933628485e-01  9.7324143040265787e-01  9.7325170663063787e-01  9.7325912667767012e-01  9.7325736786759942e-01  1.0459416637727910e+00  9.7886147416467706e-01  1.0036118708052275e+00  9.9350161903248346e-01  9.9746407405419779e-01  9.9743601593308795e-01  9.9738146497932123e-01  9.9288291688040431e-01  9.8329160041514097e-01  9.7304578639757666e-01  9.6849450634365009e-01  9.6918356029449160e-01  9.7063965886336867e-01  9.7163362874807568e-01  9.7245744410609447e-01  9.7312496786945535e-01  9.7355025259835060e-01  9.7371510438807318e-01  9.7368869367872357e-01  9.7357341866170888e-01  9.7344639872288463e-01  9.7334371432661704e-01  9.7327433157923482e-01  9.7323560487766569e-01  9.7322073986183300e-01  9.7322157543471000e-01  9.7323032044539126e-01  9.7324099931656105e-01  9.7324995570524098e-01  9.7325519926599380e-01  9.7325787061033120e-01  1.0085108902474436e+00  1.0224949678498472e+00  9.6674212366105883e-01  1.0034792827492507e+00  9.9564024209448188e-01  9.9737349867250313e-01  9.9568417433342193e-01  9.8800439385073724e-01  9.7631564432777873e-01  9.6809586480637222e-01  9.6802409749342577e-01  9.7042678291767481e-01  9.7153335989401191e-01  9.7219262131453443e-01  9.7286477167517793e-01  9.7338714910290780e-01  9.7365200476456359e-01  9.7368440026353842e-01  9.7358835628360130e-01  9.7346190870300353e-01  9.7335501543254799e-01  9.7328036470937052e-01  9.7323597346728519e-01  9.7321611317601842e-01  9.7321361745354185e-01  9.7322090788066284e-01  9.7323153564831821e-01  9.7324129495814071e-01  9.7324825213083732e-01  9.7325224229347918e-01  9.7325356306995037e-01  1.0313097481428928e+00  1.0074926149563634e+00  1.0054162433715736e+00  9.8681518339523666e-01  9.9731355253577703e-01  9.9738221903245006e-01  9.9231483923993213e-01  9.8147346885071074e-01  9.6920143612306497e-01  9.6563460144110258e-01  9.6884207827665503e-01  9.7126682077440163e-01  9.7217532196734691e-01  9.7277678559845226e-01  9.7331297427441488e-01  9.7366369732003999e-01  9.7375688819279838e-01  9.7366413677849606e-01  9.7351030494265156e-01  9.7337669326171805e-01  9.7328634015102267e-01  9.7323416262487805e-01  9.7321029333215392e-01  9.7320604378068665e-01  9.7321338176147421e-01  9.7322516542566662e-01  9.7323632920921077e-01  9.7324441310517573e-01  9.7324916741355849e-01  9.7325143727749475e-01  9.7325229284502435e-01  1.0245579056656680e+00  1.0008187438634879e+00  1.0179516489018254e+00  9.8757450229633181e-01  9.9962189019850956e-01  9.9490838184145858e-01  9.8747540115109067e-01  9.7315631951266035e-01  9.6373881324954302e-01  9.6562113184241527e-01  9.6962384470700058e-01  9.7156153965406922e-01  9.7266691470368338e-01  9.7333368471981263e-01  9.7372705716034291e-01  9.7388216998262844e-01  9.7380772994519837e-01  9.7361710071015961e-01  9.7342980205186269e-01  9.7329898821833705e-01  9.7322564288501834e-01  9.7319389652471355e-01  9.7318865719559222e-01  9.7319836532891291e-01  9.7321402057456829e-01  9.7322911344106533e-01  9.7324015311020107e-01  9.7324645437874757e-01  9.7324918409081673e-01  9.7324999173395288e-01  9.7325008593296436e-01  1.0197308991770453e+00  1.0061499438807440e+00  1.0082961523984113e+00  1.0100698355684967e+00  9.8785739111521453e-01  9.9427549702398643e-01  9.7922458655496103e-01  9.6429366172019726e-01  9.6174142544755115e-01  9.6683889132695644e-01  9.6981785460531666e-01  9.7160946783290303e-01  9.7301237561966447e-01  9.7380507202401756e-01  9.7409522018751471e-01  9.7404883602766634e-01  9.7382366199880943e-01  9.7356567453784881e-01  9.7336299852333696e-01  9.7323752759871807e-01  9.7317703971033864e-01  9.7316119879418306e-01  9.7317129261390700e-01  9.7319262024967035e-01  9.7321492399659693e-01  9.7323233939412479e-01  9.7324294274291734e-01  9.7324766430729859e-01  9.7324873154328051e-01  9.7324828561513399e-01  9.7324793998072578e-01  1.0196634502844906e+00  1.0056839111843952e+00  1.0055985411126505e+00  1.0150848351517574e+00  9.9921270015523911e-01  9.8003230894951787e-01  9.6725596994686291e-01  9.5844093070852998e-01  9.6303832871116590e-01  9.6762132491123509e-01  9.6965464850645910e-01  9.7162625585418561e-01  9.7321307371624954e-01  9.7413598618523634e-01  9.7436499124435105e-01  9.7415229191229824e-01  9.7381430373051203e-01  9.7351893386005039e-01  9.7331282629013194e-01  9.7319251275975449e-01  9.7314067539432136e-01  9.7313618054906192e-01  9.7315777490407307e-01  9.7318787748915336e-01  9.7321501031517821e-01  9.7323392993561397e-01  9.7324409271121326e-01  9.7324766495008952e-01  9.7324757006660412e-01  9.7324629843480781e-01  9.7324565890770609e-01  1.0193141715462690e+00  1.0052925956061589e+00  1.0064331492192853e+00  1.0119783227484815e+00  1.0216144989583655e+00  9.5356829161170342e-01  9.5580985227370863e-01  9.5766049223449112e-01  9.6510629902637279e-01  9.6754464725370637e-01  9.6953248871779241e-01  9.7163525082316615e-01  9.7329895543779388e-01  9.7428774247128547e-01  9.7448568534385016e-01  9.7419155404129731e-01  9.7379909012212984e-01  9.7348916649668493e-01  9.7328328342254744e-01  9.7316557672886050e-01  9.7311809374345737e-01  9.7311995812950236e-01  9.7314835210746575e-01  9.7318369860447884e-01  9.7321365146020922e-01  9.7323341849133049e-01  9.7324340381017205e-01  9.7324642640410519e-01  9.7324579358745311e-01  9.7324417196524138e-01  9.7324342952824860e-01  1.0213305434072302e+00  1.0046349212838874e+00  1.0074462467977776e+00  1.0089977575198890e+00  1.0291956628580974e+00  9.5672313647765217e-01  9.4220431714610031e-01  9.6168781108798551e-01  9.6568712645588495e-01  9.6723042215945154e-01  9.6954643479153424e-01  9.7162556720826343e-01  9.7329389480620998e-01  9.7423881868588214e-01  9.7442963022409279e-01  9.7416453992867580e-01  9.7378875135791843e-01  9.7348149202230361e-01  9.7327491528170385e-01  9.7315685798127782e-01  9.7310992999100510e-01  9.7311312599554323e-01  9.7314312048540297e-01  9.7317973615759668e-01  9.7321039989007774e-01  9.7323049952787866e-01  9.7324071594686179e-01  9.7324391812108879e-01  9.7324342048453616e-01  9.7324194661831354e-01  9.7324127687393147e-01  1.0253932294996075e+00  1.0020174271644571e+00  1.0093606662308445e+00  1.0102286204575712e+00  1.0161879792478135e+00  9.8136339719593157e-01  9.4417192361087099e-01  9.6407218617965140e-01  9.6484810710252400e-01  9.6727349948567998e-01  9.6956782851810552e-01  9.7161529778512867e-01  9.7317802350318561e-01  9.7398997028725776e-01  9.7420975744821092e-01  9.7407144833009884e-01  9.7378000538106191e-01  9.7349448080282297e-01  9.7328745996693178e-01  9.7316650634481316e-01  9.7311644844755363e-01  9.7311588754290967e-01  9.7314209918923977e-01  9.7317586997804451e-01  9.7320513279779752e-01  9.7322512032768482e-01  9.7323599197636812e-01  9.7324015228903304e-01  9.7324046721310564e-01  9.7323960959009315e-01  9.7323918595705350e-01  1.0257827148331593e+00  9.9994133723147460e-01  1.0107945753331693e+00  1.0102806526762125e+00  9.9752159743411550e-01  9.9098227384994908e-01  9.7158738741788742e-01  9.5928801592815793e-01  9.6488054760424513e-01  9.6736592239372898e-01  9.6957662260519561e-01  9.7159587852817109e-01  9.7290232236042606e-01  9.7356879477605629e-01  9.7387082460975105e-01  9.7391500683096799e-01  9.7375648558374672e-01  9.7351995359139742e-01  9.7331945972396539e-01  9.7319436339472132e-01  9.7313733367515509e-01  9.7312791313485814e-01  9.7314517644177689e-01  9.731722274091958