<?xml version="1.0"?>
<VTKFile type="UnstructuredGrid"  version="0.1"  >
<UnstructuredGrid>
<Piece  NumberOfPoints="588" NumberOfCells="2160">
<Points>
<DataArray  type="Float64"  NumberOfComponents="3"  format="ascii">0 0 0  0.5 0 0  1 0 0  1.5 0 0  2 0 0  2.5 0 0  3 0 0  3.5 0 0  4 0 0  4.5 0 0  5 0 0  5.5 0 0  6 0 0  6.5 0 0  7 0 0  7.5 0 0  8 0 0  8.5 0 0  9 0 0  9.5 0 0  10 0 0  0 0.5 0  0.5 0.5 0  1 0.5 0  1.5 0.5 0  2 0.5 0  2.5 0.5 0  3 0.5 0  3.5 0.5 0  4 0.5 0  4.5 0.5 0  5 0.5 0  5.5 0.5 0  6 0.5 0  6.5 0.5 0  7 0.5 0  7.5 0.5 0  8 0.5 0  8.5 0.5 0  9 0.5 0  9.5 0.5 0  10 0.5 0  0 1 0  0.5 1 0  1 1 0  1.5 1 0  2 1 0  2.5 1 0  3 1 0  3.5 1 0  4 1 0  4.5 1 0  5 1 0  5.5 1 0  6 1 0  6.5 1 0  7 1 0  7.5 1 0  8 1 0  8.5 1 0  9 1 0  9.5 1 0  10 1 0  0 1.5 0  0.5 1.5 0  1 1.5 0  1.5 1.5 0  2 1.5 0  2.5 1.5 0  3 1.5 0  3.5 1.5 0  4 1.5 0  4.5 1.5 0  5 1.5 0  5.5 1.5 0  6 1.5 0  6.5 1.5 0  7 1.5 0  7.5 1.5 0  8 1.5 0  8.5 1.5 0  9 1.5 0  9.5 1.5 0  10 1.5 0  0 2 0  0.5 2 0  1 2 0  1.5 2 0  2 2 0  2.5 2 0  3 2 0  3.5 2 0  4 2 0  4.5 2 0  5 2 0  5.5 2 0  6 2 0  6.5 2 0  7 2 0  7.5 2 0  8 2 0  8.5 2 0  9 2 0  9.5 2 0  10 2 0  0 2.5 0  0.5 2.5 0  1 2.5 0  1.5 2.5 0  2 2.5 0  2.5 2.5 0  3 2.5 0  3.5 2.5 0  4 2.5 0  4.5 2.5 0  5 2.5 0  5.5 2.5 0  6 2.5 0  6.5 2.5 0  7 2.5 0  7.5 2.5 0  8 2.5 0  8.5 2.5 0  9 2.5 0  9.5 2.5 0  10 2.5 0  0 3 0  0.5 3 0  1 3 0  1.5 3 0  2 3 0  2.5 3 0  3 3 0  3.5 3 0  4 3 0  4.5 3 0  5 3 0  5.5 3 0  6 3 0  6.5 3 0  7 3 0  7.5 3 0  8 3 0  8.5 3 0  9 3 0  9.5 3 0  10 3 0  0 0 0.1666666666666667  0.5 0 0.1666666666666667  1 0 0.1666666666666667  1.5 0 0.1666666666666667  2 0 0.1666666666666667  2.5 0 0.1666666666666667  3 0 0.1666666666666667  3.5 0 0.1666666666666667  4 0 0.1666666666666667  4.5 0 0.1666666666666667  5 0 0.1666666666666667  5.5 0 0.1666666666666667  6 0 0.1666666666666667  6.5 0 0.1666666666666667  7 0 0.1666666666666667  7.5 0 0.1666666666666667  8 0 0.1666666666666667  8.5 0 0.1666666666666667  9 0 0.1666666666666667  9.5 0 0.1666666666666667  10 0 0.1666666666666667  0 0.5 0.1666666666666667  0.5 0.5 0.1666666666666667  1 0.5 0.1666666666666667  1.5 0.5 0.1666666666666667  2 0.5 0.1666666666666667  2.5 0.5 0.1666666666666667  3 0.5 0.1666666666666667  3.5 0.5 0.1666666666666667  4 0.5 0.1666666666666667  4.5 0.5 0.1666666666666667  5 0.5 0.1666666666666667  5.5 0.5 0.1666666666666667  6 0.5 0.1666666666666667  6.5 0.5 0.1666666666666667  7 0.5 0.1666666666666667  7.5 0.5 0.1666666666666667  8 0.5 0.1666666666666667  8.5 0.5 0.1666666666666667  9 0.5 0.1666666666666667  9.5 0.5 0.1666666666666667  10 0.5 0.1666666666666667  0 1 0.1666666666666667  0.5 1 0.1666666666666667  1 1 0.1666666666666667  1.5 1 0.1666666666666667  2 1 0.1666666666666667  2.5 1 0.1666666666666667  3 1 0.1666666666666667  3.5 1 0.1666666666666667  4 1 0.1666666666666667  4.5 1 0.1666666666666667  5 1 0.1666666666666667  5.5 1 0.1666666666666667  6 1 0.1666666666666667  6.5 1 0.1666666666666667  7 1 0.1666666666666667  7.5 1 0.1666666666666667  8 1 0.1666666666666667  8.5 1 0.1666666666666667  9 1 0.1666666666666667  9.5 1 0.1666666666666667  10 1 0.1666666666666667  0 1.5 0.1666666666666667  0.5 1.5 0.1666666666666667  1 1.5 0.1666666666666667  1.5 1.5 0.1666666666666667  2 1.5 0.1666666666666667  2.5 1.5 0.1666666666666667  3 1.5 0.1666666666666667  3.5 1.5 0.1666666666666667  4 1.5 0.1666666666666667  4.5 1.5 0.1666666666666667  5 1.5 0.1666666666666667  5.5 1.5 0.1666666666666667  6 1.5 0.1666666666666667  6.5 1.5 0.1666666666666667  7 1.5 0.1666666666666667  7.5 1.5 0.1666666666666667  8 1.5 0.1666666666666667  8.5 1.5 0.1666666666666667  9 1.5 0.1666666666666667  9.5 1.5 0.1666666666666667  10 1.5 0.1666666666666667  0 2 0.1666666666666667  0.5 2 0.1666666666666667  1 2 0.1666666666666667  1.5 2 0.1666666666666667  2 2 0.1666666666666667  2.5 2 0.1666666666666667  3 2 0.1666666666666667  3.5 2 0.1666666666666667  4 2 0.1666666666666667  4.5 2 0.1666666666666667  5 2 0.1666666666666667  5.5 2 0.1666666666666667  6 2 0.1666666666666667  6.5 2 0.1666666666666667  7 2 0.1666666666666667  7.5 2 0.1666666666666667  8 2 0.1666666666666667  8.5 2 0.1666666666666667  9 2 0.1666666666666667  9.5 2 0.1666666666666667  10 2 0.1666666666666667  0 2.5 0.1666666666666667  0.5 2.5 0.1666666666666667  1 2.5 0.1666666666666667  1.5 2.5 0.1666666666666667  2 2.5 0.1666666666666667  2.5 2.5 0.1666666666666667  3 2.5 0.1666666666666667  3.5 2.5 0.1666666666666667  4 2.5 0.1666666666666667  4.5 2.5 0.1666666666666667  5 2.5 0.1666666666666667  5.5 2.5 0.1666666666666667  6 2.5 0.1666666666666667  6.5 2.5 0.1666666666666667  7 2.5 0.1666666666666667  7.5 2.5 0.1666666666666667  8 2.5 0.1666666666666667  8.5 2.5 0.1666666666666667  9 2.5 0.1666666666666667  9.5 2.5 0.1666666666666667  10 2.5 0.1666666666666667  0 3 0.1666666666666667  0.5 3 0.1666666666666667  1 3 0.1666666666666667  1.5 3 0.1666666666666667  2 3 0.1666666666666667  2.5 3 0.1666666666666667  3 3 0.1666666666666667  3.5 3 0.1666666666666667  4 3 0.1666666666666667  4.5 3 0.1666666666666667  5 3 0.1666666666666667  5.5 3 0.1666666666666667  6 3 0.1666666666666667  6.5 3 0.1666666666666667  7 3 0.1666666666666667  7.5 3 0.1666666666666667  8 3 0.1666666666666667  8.5 3 0.1666666666666667  9 3 0.1666666666666667  9.5 3 0.1666666666666667  10 3 0.1666666666666667  0 0 0.3333333333333333  0.5 0 0.3333333333333333  1 0 0.3333333333333333  1.5 0 0.3333333333333333  2 0 0.3333333333333333  2.5 0 0.3333333333333333  3 0 0.3333333333333333  3.5 0 0.3333333333333333  4 0 0.3333333333333333  4.5 0 0.3333333333333333  5 0 0.3333333333333333  5.5 0 0.3333333333333333  6 0 0.3333333333333333  6.5 0 0.3333333333333333  7 0 0.3333333333333333  7.5 0 0.3333333333333333  8 0 0.3333333333333333  8.5 0 0.3333333333333333  9 0 0.3333333333333333  9.5 0 0.3333333333333333  10 0 0.3333333333333333  0 0.5 0.3333333333333333  0.5 0.5 0.3333333333333333  1 0.5 0.3333333333333333  1.5 0.5 0.3333333333333333  2 0.5 0.3333333333333333  2.5 0.5 0.3333333333333333  3 0.5 0.3333333333333333  3.5 0.5 0.3333333333333333  4 0.5 0.3333333333333333  4.5 0.5 0.3333333333333333  5 0.5 0.3333333333333333  5.5 0.5 0.3333333333333333  6 0.5 0.3333333333333333  6.5 0.5 0.3333333333333333  7 0.5 0.3333333333333333  7.5 0.5 0.3333333333333333  8 0.5 0.3333333333333333  8.5 0.5 0.3333333333333333  9 0.5 0.3333333333333333  9.5 0.5 0.3333333333333333  10 0.5 0.3333333333333333  0 1 0.3333333333333333  0.5 1 0.3333333333333333  1 1 0.3333333333333333  1.5 1 0.3333333333333333  2 1 0.3333333333333333  2.5 1 0.3333333333333333  3 1 0.3333333333333333  3.5 1 0.3333333333333333  4 1 0.3333333333333333  4.5 1 0.3333333333333333  5 1 0.3333333333333333  5.5 1 0.3333333333333333  6 1 0.3333333333333333  6.5 1 0.3333333333333333  7 1 0.3333333333333333  7.5 1 0.3333333333333333  8 1 0.3333333333333333  8.5 1 0.3333333333333333  9 1 0.3333333333333333  9.5 1 0.3333333333333333  10 1 0.3333333333333333  0 1.5 0.3333333333333333  0.5 1.5 0.3333333333333333  1 1.5 0.3333333333333333  1.5 1.5 0.3333333333333333  2 1.5 0.3333333333333333  2.5 1.5 0.3333333333333333  3 1.5 0.3333333333333333  3.5 1.5 0.3333333333333333  4 1.5 0.3333333333333333  4.5 1.5 0.3333333333333333  5 1.5 0.3333333333333333  5.5 1.5 0.3333333333333333  6 1.5 0.3333333333333333  6.5 1.5 0.3333333333333333  7 1.5 0.3333333333333333  7.5 1.5 0.3333333333333333  8 1.5 0.3333333333333333  8.5 1.5 0.3333333333333333  9 1.5 0.3333333333333333  9.5 1.5 0.3333333333333333  10 1.5 0.3333333333333333  0 2 0.3333333333333333  0.5 2 0.3333333333333333  1 2 0.3333333333333333  1.5 2 0.3333333333333333  2 2 0.3333333333333333  2.5 2 0.3333333333333333  3 2 0.3333333333333333  3.5 2 0.3333333333333333  4 2 0.3333333333333333  4.5 2 0.3333333333333333  5 2 0.3333333333333333  5.5 2 0.3333333333333333  6 2 0.3333333333333333  6.5 2 0.3333333333333333  7 2 0.3333333333333333  7.5 2 0.3333333333333333  8 2 0.3333333333333333  8.5 2 0.3333333333333333  9 2 0.3333333333333333  9.5 2 0.3333333333333333  10 2 0.3333333333333333  0 2.5 0.3333333333333333  0.5 2.5 0.3333333333333333  1 2.5 0.3333333333333333  1.5 2.5 0.3333333333333333  2 2.5 0.3333333333333333  2.5 2.5 0.3333333333333333  3 2.5 0.3333333333333333  3.5 2.5 0.3333333333333333  4 2.5 0.3333333333333333  4.5 2.5 0.3333333333333333  5 2.5 0.3333333333333333  5.5 2.5 0.3333333333333333  6 2.5 0.3333333333333333  6.5 2.5 0.3333333333333333  7 2.5 0.3333333333333333  7.5 2.5 0.3333333333333333  8 2.5 0.3333333333333333  8.5 2.5 0.3333333333333333  9 2.5 0.3333333333333333  9.5 2.5 0.3333333333333333  10 2.5 0.3333333333333333  0 3 0.3333333333333333  0.5 3 0.3333333333333333  1 3 0.3333333333333333  1.5 3 0.3333333333333333  2 3 0.3333333333333333  2.5 3 0.3333333333333333  3 3 0.3333333333333333  3.5 3 0.3333333333333333  4 3 0.3333333333333333  4.5 3 0.3333333333333333  5 3 0.3333333333333333  5.5 3 0.3333333333333333  6 3 0.3333333333333333  6.5 3 0.3333333333333333  7 3 0.3333333333333333  7.5 3 0.3333333333333333  8 3 0.3333333333333333  8.5 3 0.3333333333333333  9 3 0.3333333333333333  9.5 3 0.3333333333333333  10 3 0.3333333333333333  0 0 0.5  0.5 0 0.5  1 0 0.5  1.5 0 0.5  2 0 0.5  2.5 0 0.5  3 0 0.5  3.5 0 0.5  4 0 0.5  4.5 0 0.5  5 0 0.5  5.5 0 0.5  6 0 0.5  6.5 0 0.5  7 0 0.5  7.5 0 0.5  8 0 0.5  8.5 0 0.5  9 0 0.5  9.5 0 0.5  10 0 0.5  0 0.5 0.5  0.5 0.5 0.5  1 0.5 0.5  1.5 0.5 0.5  2 0.5 0.5  2.5 0.5 0.5  3 0.5 0.5  3.5 0.5 0.5  4 0.5 0.5  4.5 0.5 0.5  5 0.5 0.5  5.5 0.5 0.5  6 0.5 0.5  6.5 0.5 0.5  7 0.5 0.5  7.5 0.5 0.5  8 0.5 0.5  8.5 0.5 0.5  9 0.5 0.5  9.5 0.5 0.5  10 0.5 0.5  0 1 0.5  0.5 1 0.5  1 1 0.5  1.5 1 0.5  2 1 0.5  2.5 1 0.5  3 1 0.5  3.5 1 0.5  4 1 0.5  4.5 1 0.5  5 1 0.5  5.5 1 0.5  6 1 0.5  6.5 1 0.5  7 1 0.5  7.5 1 0.5  8 1 0.5  8.5 1 0.5  9 1 0.5  9.5 1 0.5  10 1 0.5  0 1.5 0.5  0.5 1.5 0.5  1 1.5 0.5  1.5 1.5 0.5  2 1.5 0.5  2.5 1.5 0.5  3 1.5 0.5  3.5 1.5 0.5  4 1.5 0.5  4.5 1.5 0.5  5 1.5 0.5  5.5 1.5 0.5  6 1.5 0.5  6.5 1.5 0.5  7 1.5 0.5  7.5 1.5 0.5  8 1.5 0.5  8.
[...]
<PointData  Scalars="f_7-2"> 
<DataArray  type="Float64"  Name="f_7-2"  format="ascii">1.1683517124386316e+00  1.1514305283332873e+00  1.1517845703589606e+00  1.1543244257959875e+00  1.1549372241642750e+00  1.1550409760004914e+00  1.1550593754552265e+00  1.1550615260694439e+00  1.1550599213158050e+00  1.1550581396080046e+00  1.1550569423994423e+00  1.1550562345420847e+00  1.1550558327656297e+00  1.1550556093047357e+00  1.1550554864599401e+00  1.1550554193425480e+00  1.1550553828425296e+00  1.1550553631630338e+00  1.1550553528150935e+00  1.1550553478703312e+00  1.1550553464021553e+00  1.1581254645987658e+00  1.1625750072896737e+00  1.1537884422647307e+00  1.1549089949666798e+00  1.1550685591972747e+00  1.1550588664351333e+00  1.1550636730088328e+00  1.1550622671620250e+00  1.1550596054433842e+00  1.1550577675725784e+00  1.1550566959893240e+00  1.1550560886727648e+00  1.1550557496652691e+00  1.1550555630449064e+00  1.1550554610194341e+00  1.1550554054113862e+00  1.1550553752063151e+00  1.1550553589339145e+00  1.1550553503807715e+00  1.1550553463237410e+00  1.1550553451230365e+00  1.1623909434727964e+00  1.1691516973011702e+00  1.1567034088758203e+00  1.1554161947812636e+00  1.1552313724939360e+00  1.1550951866651955e+00  1.1550723346991911e+00  1.1550627653156453e+00  1.1550585970146627e+00  1.1550569214921775e+00  1.1550561587919632e+00  1.1550557727853574e+00  1.1550555709596317e+00  1.1550554640562818e+00  1.1550554066784393e+00  1.1550553756717603e+00  1.1550553589084165e+00  1.1550553499043470e+00  1.1550553451820340e+00  1.1550553429941013e+00  1.1550553423138650e+00  1.1651093999202102e+00  1.1710777130802363e+00  1.1579033722450551e+00  1.1553817129319572e+00  1.1552958397954320e+00  1.1551029895963285e+00  1.1550690300685216e+00  1.1550594399141827e+00  1.1550562625538692e+00  1.1550555544171515e+00  1.1550553819747731e+00  1.1550553384117388e+00  1.1550553319330215e+00  1.1550553333712523e+00  1.1550553353530031e+00  1.1550553367517118e+00  1.1550553376092745e+00  1.1550553381061084e+00  1.1550553383844915e+00  1.1550553386029234e+00  1.1550553386069051e+00  1.1643252923325762e+00  1.1681236358988500e+00  1.1570548156758655e+00  1.1549722892338372e+00  1.1551462722693508e+00  1.1550523709897440e+00  1.1550509127401662e+00  1.1550519196791760e+00  1.1550527746955286e+00  1.1550538947851097e+00  1.1550545240107080e+00  1.1550548845475923e+00  1.1550550894931331e+00  1.1550552026250012e+00  1.1550552644806455e+00  1.1550552982189513e+00  1.1550553165602264e+00  1.1550553264550205e+00  1.1550553316662173e+00  1.1550553342348973e+00  1.1550553349230490e+00  1.1597544225000418e+00  1.1634132309815677e+00  1.1548085946003324e+00  1.1539448645690855e+00  1.1548863820000694e+00  1.1550060787565872e+00  1.1550276237666683e+00  1.1550434224367800e+00  1.1550496949979427e+00  1.1550524838082568e+00  1.1550538324598187e+00  1.1550545334326825e+00  1.1550549055721180e+00  1.1550551043230284e+00  1.1550552114432053e+00  1.1550552694609308e+00  1.1550553008667372e+00  1.1550553177616574e+00  1.1550553266381354e+00  1.1550553309528884e+00  1.1550553321581005e+00  1.1681066245167235e+00  1.1518674758602705e+00  1.1482338138265984e+00  1.1532032823800393e+00  1.1550012284938835e+00  1.1549640101337597e+00  1.1550081766322655e+00  1.1550408745630221e+00  1.1550483349375118e+00  1.1550517875686483e+00  1.1550535148352501e+00  1.1550543752646749e+00  1.1550548229064554e+00  1.1550550599610270e+00  1.1550551875585182e+00  1.1550552565384624e+00  1.1550552938176184e+00  1.1550553138640922e+00  1.1550553244026860e+00  1.1550553294757724e+00  1.1550553308269784e+00  1.1954997631492110e+00  1.1440764922505557e+00  1.1522492359119487e+00  1.1544085512262763e+00  1.1549429291961246e+00  1.1550409269278754e+00  1.1550591270244375e+00  1.1550616360565296e+00  1.1550599538675526e+00  1.1550581303246605e+00  1.1550569355991238e+00  1.1550562311705233e+00  1.1550558307456880e+00  1.1550556081170793e+00  1.1550554858016950e+00  1.1550554189819178e+00  1.1550553826446339e+00  1.1550553630510942e+00  1.1550553527496725e+00  1.1550553478369392e+00  1.1550553462880939e+00  1.2041661413873923e+00  1.1521991468060064e+00  1.1551515887248971e+00  1.1550719307248360e+00  1.1549943786604755e+00  1.1550507552780038e+00  1.1550635509895180e+00  1.1550622575170231e+00  1.1550595495457137e+00  1.1550577717006998e+00  1.1550567140620018e+00  1.1550561004163138e+00  1.1550557562498773e+00  1.1550555667892701e+00  1.1550554631138168e+00  1.1550554065617344e+00  1.1550553758365014e+00  1.1550553592797390e+00  1.1550553505841517e+00  1.1550553464308397e+00  1.1550553452430015e+00  1.2064400212437087e+00  1.1629521829104075e+00  1.1562512409497463e+00  1.1557100187842915e+00  1.1551655813722284e+00  1.1551032638878143e+00  1.1550747277528479e+00  1.1550627242918186e+00  1.1550586076240779e+00  1.1550569606676071e+00  1.1550561775897086e+00  1.1550557799193009e+00  1.1550555745468660e+00  1.1550554660261436e+00  1.1550554077190363e+00  1.1550553762235416e+00  1.1550553592069412e+00  1.1550553500676197e+00  1.1550553452855843e+00  1.1550553430340984e+00  1.1550553424013974e+00  1.2098501478793220e+00  1.1651908075488946e+00  1.1561043284857881e+00  1.1559873483899799e+00  1.1552483279135159e+00  1.1551074161098174e+00  1.1550717838047757e+00  1.1550592779959898e+00  1.1550563475373075e+00  1.1550556068751408e+00  1.1550553934420653e+00  1.1550553415505989e+00  1.1550553336375893e+00  1.1550553341739980e+00  1.1550553357064670e+00  1.1550553369247252e+00  1.1550553376999237e+00  1.1550553381546400e+00  1.1550553384212652e+00  1.1550553385877602e+00  1.1550553386863831e+00  1.2085431514817973e+00  1.1619087936697752e+00  1.1555271634718305e+00  1.1555900781826891e+00  1.1550989777814804e+00  1.1550522290095224e+00  1.1550544533976956e+00  1.1550514467259678e+00  1.1550529060026480e+00  1.1550539236857735e+00  1.1550545186351155e+00  1.1550548821900568e+00  1.1550550881890569e+00  1.1550552016543132e+00  1.1550552638753429e+00  1.1550552978795623e+00  1.1550553163708897e+00  1.1550553263474408e+00  1.1550553316112488e+00  1.1550553341638321e+00  1.1550553349714641e+00  1.1943554772407967e+00  1.1587287107458089e+00  1.1526135569757878e+00  1.1544323449222262e+00  1.1549341842727152e+00  1.1549889376529430e+00  1.1550276236898078e+00  1.1550434883425400e+00  1.1550497132665951e+00  1.1550524453681015e+00  1.1550538121909102e+00  1.1550545260412426e+00  1.1550549013739877e+00  1.1550551017940036e+00  1.1550552100793710e+00  1.1550552687303839e+00  1.1550553004657831e+00  1.1550553175416378e+00  1.1550553265211592e+00  1.1550553308405858e+00  1.1550553321642563e+00  1.2473461239911108e+00  1.1320805473806654e+00  1.1484076478249352e+00  1.1550074533619594e+00  1.1548845545116171e+00  1.1549042655589854e+00  1.1550216485557676e+00  1.1550415893061836e+00  1.1550480365079416e+00  1.1550518243254282e+00  1.1550535271489355e+00  1.1550543807152525e+00  1.1550548243134642e+00  1.1550550606764842e+00  1.1550551880358835e+00  1.1550552567786927e+00  1.1550552939386853e+00  1.1550553139277413e+00  1.1550553244288078e+00  1.1550553294534183e+00  1.1550553309508413e+00  1.1680163994481474e+00  1.1510688868352643e+00  1.1514938317421395e+00  1.1543609547516738e+00  1.1549755019681800e+00  1.1550372138625558e+00  1.1550581396807156e+00  1.1550618748181585e+00  1.1550599916485602e+00  1.1550581264899591e+00  1.1550569394868944e+00  1.1550562343447808e+00  1.1550558322461655e+00  1.1550556089113895e+00  1.1550554862487890e+00  1.1550554192274234e+00  1.1550553827783892e+00  1.1550553631233602e+00  1.1550553527972376e+00  1.1550553478747505e+00  1.1550553462901672e+00  1.1688455836914176e+00  1.1588110881423608e+00  1.1547956390363463e+00  1.1550082860432132e+00  1.1550144178822641e+00  1.1550493182943118e+00  1.1550649661807015e+00  1.1550625599777655e+00  1.1550595241353867e+00  1.1550577758643039e+00  1.1550567183016980e+00  1.1550560999588977e+00  1.1550557554878857e+00  1.1550555663676072e+00  1.1550554628637029e+00  1.1550554064133913e+00  1.1550553757529751e+00  1.1550553592338832e+00  1.1550553505609029e+00  1.1550553464225939e+00  1.1550553452446191e+00  1.1732120961197066e+00  1.1655649816195559e+00  1.1571245770399667e+00  1.1554669043555639e+00  1.1551746030221215e+00  1.1551129319234117e+00  1.1550756369455482e+00  1.1550625524424802e+00  1.1550586120431188e+00  1.1550569888110334e+00  1.1550561790790053e+00  1.1550557775114112e+00  1.1550555733770296e+00  1.1550554653379090e+00  1.1550554072766364e+00  1.1550553759665416e+00  1.1550553590634780e+00  1.1550553499872889e+00  1.1550553452404828e+00  1.1550553430145900e+00  1.1550553423666547e+00  1.1765853087355320e+00  1.1676907918087023e+00  1.1572623048037276e+00  1.1557969403789237e+00  1.1552424562887829e+00  1.1551161767407496e+00  1.1550701396289289e+00  1.1550589018336141e+00  1.1550564346030414e+00  1.1550556180673270e+00  1.1550553854518608e+00  1.1550553393640886e+00  1.1550553329694322e+00  1.1550553336348912e+00  1.1550553353658495e+00  1.1550553367377645e+00  1.1550553375957233e+00  1.1550553380955328e+00  1.1550553383861766e+00  1.1550553385707631e+00  1.1550553386569091e+00  1.1752007351412692e+00  1.1648235414249466e+00  1.1567006047006498e+00  1.1554047531959106e+00  1.1550637507687913e+00  1.1550600683265171e+00  1.1550526468774287e+00  1.1550512313599492e+00  1.1550530171804423e+00  1.1550538966046713e+00  1.1550545094192082e+00  1.1550548815669239e+00  1.1550550875869481e+00  1.1550552011336344e+00  1.1550552636057270e+00  1.1550552977399058e+00  1.1550553162914114e+00  1.1550553263017593e+00  1.1550553315828236e+00  1.1550553341486849e+00  1.1550553349405777e+00  1.1636334505639896e+00  1.1633743678733632e+00  1.1530334976844678e+00  1.1543685380549229e+00  1.1549074366658423e+00  1.1549843846166765e+00  1.1550291269052735e+00  1.1550434738087085e+00  1.1550496734473308e+00  1.1550524338175074e+00  1.1550538122286405e+00  1.1550545281312286e+00  1.1550549016867804e+00  1.1550551018972846e+00  1.1550552102074649e+00  1.1550552687993247e+00  1.1550553004986022e+00  1.1550553175587908e+00  1.1550553265275574e+00  1.1550553308441023e+00  1.1550553321467487e+00  1.2029805029906377e+00  1.1311331455606650e+00  1.1508720946209157e+00  1.1547593622486925e+00  1.1546708808976527e+00  1.1549371950739202e+00  1.1550282147758533e+00  1.1550390998314424e+00  1.1550482151023560e+00  1.1550518534815921e+00  1.1550535286799319e+00  1.1550543838677223e+00  1.1550548248842827e+00  1.1550550614082664e+00  1.1550551884531330e+00  1.1550552569788954e+00  1.1550552940503178e+00  1.1550553139912101e+00  1.1550553244638380e+00  1.1550553294898627e+00  1.1550553309459961e+00  1.2458298603480311e+00  1.1382435719445085e+00  1.1513153979477786e+00  1.1549154680327454e+00  1.1549322159619744e+00  1.1550249391438354e+00  1.1550612377788039e+00  1.1550623593784739e+00  1.1550598607451668e+00  1.1550581006812128e+00  1.1550569341382575e+00  1.1550562278270196e+00  1.1550558280205150e+00  1.1550556066579185e+00  1.1550554850179322e+00  1.1550554185473094e+00  1.1550553824063687e+00  1.1550553629232738e+00  1.1550553526949408e+00  1.1550553477793384e+00  1.1550553462596123e+00  1.2482066831885679e+00  1.1424435449239183e+00  1.1568440106520212e+00  1.1551061896002150e+00  1.1548821468593817e+00  1.1550566435692782e+00  1.1550680485723077e+00  1.1550614869684395e+00  1.1550593125238573e+00  1.1550577866589946e+00  1.1550567117215773e+00  1.1550560937069310e+00  1.1550557532990442e+00  1.1550555654135055e+00  1.1550554623273162e+00  1.1550554061207323e+00  1.1550553755945474e+00  1.1550553591447987e+00  1.1550553505063441e+00  1.1550553463597613e+00  1.1550553452212535e+00  1.2362432940020047e+00  1.1595183156393327e+00  1.1570520737617607e+00  1.1552725003964677e+00  1.1551918010712900e+00  1.1551299483419968e+00  1.1550721624310212e+00  1.1550615255519232e+00  1.1550587475538028e+00  1.1550570041729700e+00  1.1550561601249609e+00  1.1550557718828496e+00  1.1550555716650190e+00  1.1550554641891748e+00  1.1550554065998291e+00  1.1550553756065804e+00  1.1550553588669992e+00  1.1550553498777172e+00  1.1550553451804566e+00  1.1550553429470678e+00  1.1550553423679588e+00  1.2358997665669773e+00  1.1633846390505702e+00  1.1555094873984839e+00  1.1560799415093828e+00  1.1552574943146914e+00  1.1551123208558416e+00  1.1550640130619325e+00  1.1550595122749614e+00  1.1550566364515666e+00  1.1550555746871716e+00  1.1550553797109187e+00  1.1550553453390870e+00  1.1550553355362454e+00  1.1550553347007513e+00  1.1550553360023146e+00  1.1550553370995720e+00  1.1550553377890544e+00  1.1550553382006772e+00  1.1550553384466593e+00  1.1550553385815174e+00  1.1550553387193039e+00  1.2363853001312020e+00  1.1604997679926636e+00  1.1546847494992138e+00  1.1559022220142541e+00  1.1549803801201473e+00  1.1550780476889912e+00  1.1550500382269251e+00  1.1550526758967237e+00  1.1550531129753314e+00  1.1550538659863379e+00  1.1550545372640875e+00  1.1550548938684002e+00  1.1550550916169990e+00  1.1550552033048798e+00  1.1550552648539372e+00  1.1550552983984304e+00  1.1550553166412991e+00  1.1550553264943273e+00  1.1550553316935648e+00  1.1550553342043437e+00  1.1550553350292618e+00  1.2468579257107426e+00  1.1515643866476164e+00  1.1518223595961474e+00  1.1551339833251884e+00  1.1547730597385766e+00  1.1550156505432596e+00  1.1550280476965686e+00  1.1550436742650982e+00  1.1550498313081894e+00  1.1550524433917013e+00  1.1550538514306112e+00  1.1550545396064194e+00  1.1550549062844435e+00  1.1550551049189071e+00  1.1550552118406230e+00  1.1550552696440191e+00  1.1550553009585611e+00  1.1550553178163181e+00  1.1550553266799441e+00  1.1550553309360567e+00  1.1550553322496999e+00  1.2730064653318141e+00  1.1262924729328614e+00  1.1506572945364761e+00  1.1549611485791489e+00  1.1545988244931571e+00  1.1549819153111500e+00  1.1550175859152467e+00  1.1550391946674907e+00  1.1550485181633992e+00  1.1550517676658163e+00  1.1550535333967897e+00  1.1550543763048240e+00  1.1550548219191512e+00  1.1550550602988432e+00  1.1550551876924404e+00  1.1550552565558190e+00  1.1550552938284651e+00  1.1550553138686264e+00  1.1550553243938046e+00  1.1550553294376344e+00  1.1550553309507041e+00  </DataArray> 
</PointData> 
</Piece>
</UnstructuredGrid>
</VTKFile>