<?xml version="1.0"?>
<VTKFile type="UnstructuredGrid"  version="0.1"  >
<UnstructuredGrid>
<Piece  NumberOfPoints="588" NumberOfCells="2160">
<Points>
<DataArray  type="Float64"  NumberOfComponents="3"  format="ascii">0 0 0  0.5 0 0  1 0 0  1.5 0 0  2 0 0  2.5 0 0  3 0 0  3.5 0 0  4 0 0  4.5 0 0  5 0 0  5.5 0 0  6 0 0  6.5 0 0  7 0 0  7.5 0 0  8 0 0  8.5 0 0  9 0 0  9.5 0 0  10 0 0  0 0.5 0  0.5 0.5 0  1 0.5 0  1.5 0.5 0  2 0.5 0  2.5 0.5 0  3 0.5 0  3.5 0.5 0  4 0.5 0  4.5 0.5 0  5 0.5 0  5.5 0.5 0  6 0.5 0  6.5 0.5 0  7 0.5 0  7.5 0.5 0  8 0.5 0  8.5 0.5 0  9 0.5 0  9.5 0.5 0  10 0.5 0  0 1 0  0.5 1 0  1 1 0  1.5 1 0  2 1 0  2.5 1 0  3 1 0  3.5 1 0  4 1 0  4.5 1 0  5 1 0  5.5 1 0  6 1 0  6.5 1 0  7 1 0  7.5 1 0  8 1 0  8.5 1 0  9 1 0  9.5 1 0  10 1 0  0 1.5 0  0.5 1.5 0  1 1.5 0  1.5 1.5 0  2 1.5 0  2.5 1.5 0  3 1.5 0  3.5 1.5 0  4 1.5 0  4.5 1.5 0  5 1.5 0  5.5 1.5 0  6 1.5 0  6.5 1.5 0  7 1.5 0  7.5 1.5 0  8 1.5 0  8.5 1.5 0  9 1.5 0  9.5 1.5 0  10 1.5 0  0 2 0  0.5 2 0  1 2 0  1.5 2 0  2 2 0  2.5 2 0  3 2 0  3.5 2 0  4 2 0  4.5 2 0  5 2 0  5.5 2 0  6 2 0  6.5 2 0  7 2 0  7.5 2 0  8 2 0  8.5 2 0  9 2 0  9.5 2 0  10 2 0  0 2.5 0  0.5 2.5 0  1 2.5 0  1.5 2.5 0  2 2.5 0  2.5 2.5 0  3 2.5 0  3.5 2.5 0  4 2.5 0  4.5 2.5 0  5 2.5 0  5.5 2.5 0  6 2.5 0  6.5 2.5 0  7 2.5 0  7.5 2.5 0  8 2.5 0  8.5 2.5 0  9 2.5 0  9.5 2.5 0  10 2.5 0  0 3 0  0.5 3 0  1 3 0  1.5 3 0  2 3 0  2.5 3 0  3 3 0  3.5 3 0  4 3 0  4.5 3 0  5 3 0  5.5 3 0  6 3 0  6.5 3 0  7 3 0  7.5 3 0  8 3 0  8.5 3 0  9 3 0  9.5 3 0  10 3 0  0 0 0.1666666666666667  0.5 0 0.1666666666666667  1 0 0.1666666666666667  1.5 0 0.1666666666666667  2 0 0.1666666666666667  2.5 0 0.1666666666666667  3 0 0.1666666666666667  3.5 0 0.1666666666666667  4 0 0.1666666666666667  4.5 0 0.1666666666666667  5 0 0.1666666666666667  5.5 0 0.1666666666666667  6 0 0.1666666666666667  6.5 0 0.1666666666666667  7 0 0.1666666666666667  7.5 0 0.1666666666666667  8 0 0.1666666666666667  8.5 0 0.1666666666666667  9 0 0.1666666666666667  9.5 0 0.1666666666666667  10 0 0.1666666666666667  0 0.5 0.1666666666666667  0.5 0.5 0.1666666666666667  1 0.5 0.1666666666666667  1.5 0.5 0.1666666666666667  2 0.5 0.1666666666666667  2.5 0.5 0.1666666666666667  3 0.5 0.1666666666666667  3.5 0.5 0.1666666666666667  4 0.5 0.1666666666666667  4.5 0.5 0.1666666666666667  5 0.5 0.1666666666666667  5.5 0.5 0.1666666666666667  6 0.5 0.1666666666666667  6.5 0.5 0.1666666666666667  7 0.5 0.1666666666666667  7.5 0.5 0.1666666666666667  8 0.5 0.1666666666666667  8.5 0.5 0.1666666666666667  9 0.5 0.1666666666666667  9.5 0.5 0.1666666666666667  10 0.5 0.1666666666666667  0 1 0.1666666666666667  0.5 1 0.1666666666666667  1 1 0.1666666666666667  1.5 1 0.1666666666666667  2 1 0.1666666666666667  2.5 1 0.1666666666666667  3 1 0.1666666666666667  3.5 1 0.1666666666666667  4 1 0.1666666666666667  4.5 1 0.1666666666666667  5 1 0.1666666666666667  5.5 1 0.1666666666666667  6 1 0.1666666666666667  6.5 1 0.1666666666666667  7 1 0.1666666666666667  7.5 1 0.1666666666666667  8 1 0.1666666666666667  8.5 1 0.1666666666666667  9 1 0.1666666666666667  9.5 1 0.1666666666666667  10 1 0.1666666666666667  0 1.5 0.1666666666666667  0.5 1.5 0.1666666666666667  1 1.5 0.1666666666666667  1.5 1.5 0.1666666666666667  2 1.5 0.1666666666666667  2.5 1.5 0.1666666666666667  3 1.5 0.1666666666666667  3.5 1.5 0.1666666666666667  4 1.5 0.1666666666666667  4.5 1.5 0.1666666666666667  5 1.5 0.1666666666666667  5.5 1.5 0.1666666666666667  6 1.5 0.1666666666666667  6.5 1.5 0.1666666666666667  7 1.5 0.1666666666666667  7.5 1.5 0.1666666666666667  8 1.5 0.1666666666666667  8.5 1.5 0.1666666666666667  9 1.5 0.1666666666666667  9.5 1.5 0.1666666666666667  10 1.5 0.1666666666666667  0 2 0.1666666666666667  0.5 2 0.1666666666666667  1 2 0.1666666666666667  1.5 2 0.1666666666666667  2 2 0.1666666666666667  2.5 2 0.1666666666666667  3 2 0.1666666666666667  3.5 2 0.1666666666666667  4 2 0.1666666666666667  4.5 2 0.1666666666666667  5 2 0.1666666666666667  5.5 2 0.1666666666666667  6 2 0.1666666666666667  6.5 2 0.1666666666666667  7 2 0.1666666666666667  7.5 2 0.1666666666666667  8 2 0.1666666666666667  8.5 2 0.1666666666666667  9 2 0.1666666666666667  9.5 2 0.1666666666666667  10 2 0.1666666666666667  0 2.5 0.1666666666666667  0.5 2.5 0.1666666666666667  1 2.5 0.1666666666666667  1.5 2.5 0.1666666666666667  2 2.5 0.1666666666666667  2.5 2.5 0.1666666666666667  3 2.5 0.1666666666666667  3.5 2.5 0.1666666666666667  4 2.5 0.1666666666666667  4.5 2.5 0.1666666666666667  5 2.5 0.1666666666666667  5.5 2.5 0.1666666666666667  6 2.5 0.1666666666666667  6.5 2.5 0.1666666666666667  7 2.5 0.1666666666666667  7.5 2.5 0.1666666666666667  8 2.5 0.1666666666666667  8.5 2.5 0.1666666666666667  9 2.5 0.1666666666666667  9.5 2.5 0.1666666666666667  10 2.5 0.1666666666666667  0 3 0.1666666666666667  0.5 3 0.1666666666666667  1 3 0.1666666666666667  1.5 3 0.1666666666666667  2 3 0.1666666666666667  2.5 3 0.1666666666666667  3 3 0.1666666666666667  3.5 3 0.1666666666666667  4 3 0.1666666666666667  4.5 3 0.1666666666666667  5 3 0.1666666666666667  5.5 3 0.1666666666666667  6 3 0.1666666666666667  6.5 3 0.1666666666666667  7 3 0.1666666666666667  7.5 3 0.1666666666666667  8 3 0.1666666666666667  8.5 3 0.1666666666666667  9 3 0.1666666666666667  9.5 3 0.1666666666666667  10 3 0.1666666666666667  0 0 0.3333333333333333  0.5 0 0.3333333333333333  1 0 0.3333333333333333  1.5 0 0.3333333333333333  2 0 0.3333333333333333  2.5 0 0.3333333333333333  3 0 0.3333333333333333  3.5 0 0.3333333333333333  4 0 0.3333333333333333  4.5 0 0.3333333333333333  5 0 0.3333333333333333  5.5 0 0.3333333333333333  6 0 0.3333333333333333  6.5 0 0.3333333333333333  7 0 0.3333333333333333  7.5 0 0.3333333333333333  8 0 0.3333333333333333  8.5 0 0.3333333333333333  9 0 0.3333333333333333  9.5 0 0.3333333333333333  10 0 0.3333333333333333  0 0.5 0.3333333333333333  0.5 0.5 0.3333333333333333  1 0.5 0.3333333333333333  1.5 0.5 0.3333333333333333  2 0.5 0.3333333333333333  2.5 0.5 0.3333333333333333  3 0.5 0.3333333333333333  3.5 0.5 0.3333333333333333  4 0.5 0.3333333333333333  4.5 0.5 0.3333333333333333  5 0.5 0.3333333333333333  5.5 0.5 0.3333333333333333  6 0.5 0.3333333333333333  6.5 0.5 0.3333333333333333  7 0.5 0.3333333333333333  7.5 0.5 0.3333333333333333  8 0.5 0.3333333333333333  8.5 0.5 0.3333333333333333  9 0.5 0.3333333333333333  9.5 0.5 0.3333333333333333  10 0.5 0.3333333333333333  0 1 0.3333333333333333  0.5 1 0.3333333333333333  1 1 0.3333333333333333  1.5 1 0.3333333333333333  2 1 0.3333333333333333  2.5 1 0.3333333333333333  3 1 0.3333333333333333  3.5 1 0.3333333333333333  4 1 0.3333333333333333  4.5 1 0.3333333333333333  5 1 0.3333333333333333  5.5 1 0.3333333333333333  6 1 0.3333333333333333  6.5 1 0.3333333333333333  7 1 0.3333333333333333  7.5 1 0.3333333333333333  8 1 0.3333333333333333  8.5 1 0.3333333333333333  9 1 0.3333333333333333  9.5 1 0.3333333333333333  10 1 0.3333333333333333  0 1.5 0.3333333333333333  0.5 1.5 0.3333333333333333  1 1.5 0.3333333333333333  1.5 1.5 0.3333333333333333  2 1.5 0.3333333333333333  2.5 1.5 0.3333333333333333  3 1.5 0.3333333333333333  3.5 1.5 0.3333333333333333  4 1.5 0.3333333333333333  4.5 1.5 0.3333333333333333  5 1.5 0.3333333333333333  5.5 1.5 0.3333333333333333  6 1.5 0.3333333333333333  6.5 1.5 0.3333333333333333  7 1.5 0.3333333333333333  7.5 1.5 0.3333333333333333  8 1.5 0.3333333333333333  8.5 1.5 0.3333333333333333  9 1.5 0.3333333333333333  9.5 1.5 0.3333333333333333  10 1.5 0.3333333333333333  0 2 0.3333333333333333  0.5 2 0.3333333333333333  1 2 0.3333333333333333  1.5 2 0.3333333333333333  2 2 0.3333333333333333  2.5 2 0.3333333333333333  3 2 0.3333333333333333  3.5 2 0.3333333333333333  4 2 0.3333333333333333  4.5 2 0.3333333333333333  5 2 0.3333333333333333  5.5 2 0.3333333333333333  6 2 0.3333333333333333  6.5 2 0.3333333333333333  7 2 0.3333333333333333  7.5 2 0.3333333333333333  8 2 0.3333333333333333  8.5 2 0.3333333333333333  9 2 0.3333333333333333  9.5 2 0.3333333333333333  10 2 0.3333333333333333  0 2.5 0.3333333333333333  0.5 2.5 0.3333333333333333  1 2.5 0.3333333333333333  1.5 2.5 0.3333333333333333  2 2.5 0.3333333333333333  2.5 2.5 0.3333333333333333  3 2.5 0.3333333333333333  3.5 2.5 0.3333333333333333  4 2.5 0.3333333333333333  4.5 2.5 0.3333333333333333  5 2.5 0.3333333333333333  5.5 2.5 0.3333333333333333  6 2.5 0.3333333333333333  6.5 2.5 0.3333333333333333  7 2.5 0.3333333333333333  7.5 2.5 0.3333333333333333  8 2.5 0.3333333333333333  8.5 2.5 0.3333333333333333  9 2.5 0.3333333333333333  9.5 2.5 0.3333333333333333  10 2.5 0.3333333333333333  0 3 0.3333333333333333  0.5 3 0.3333333333333333  1 3 0.3333333333333333  1.5 3 0.3333333333333333  2 3 0.3333333333333333  2.5 3 0.3333333333333333  3 3 0.3333333333333333  3.5 3 0.3333333333333333  4 3 0.3333333333333333  4.5 3 0.3333333333333333  5 3 0.3333333333333333  5.5 3 0.3333333333333333  6 3 0.3333333333333333  6.5 3 0.3333333333333333  7 3 0.3333333333333333  7.5 3 0.3333333333333333  8 3 0.3333333333333333  8.5 3 0.3333333333333333  9 3 0.3333333333333333  9.5 3 0.3333333333333333  10 3 0.3333333333333333  0 0 0.5  0.5 0 0.5  1 0 0.5  1.5 0 0.5  2 0 0.5  2.5 0 0.5  3 0 0.5  3.5 0 0.5  4 0 0.5  4.5 0 0.5  5 0 0.5  5.5 0 0.5  6 0 0.5  6.5 0 0.5  7 0 0.5  7.5 0 0.5  8 0 0.5  8.5 0 0.5  9 0 0.5  9.5 0 0.5  10 0 0.5  0 0.5 0.5  0.5 0.5 0.5  1 0.5 0.5  1.5 0.5 0.5  2 0.5 0.5  2.5 0.5 0.5  3 0.5 0.5  3.5 0.5 0.5  4 0.5 0.5  4.5 0.5 0.5  5 0.5 0.5  5.5 0.5 0.5  6 0.5 0.5  6.5 0.5 0.5  7 0.5 0.5  7.5 0.5 0.5  8 0.5 0.5  8.5 0.5 0.5  9 0.5 0.5  9.5 0.5 0.5  10 0.5 0.5  0 1 0.5  0.5 1 0.5  1 1 0.5  1.5 1 0.5  2 1 0.5  2.5 1 0.5  3 1 0.5  3.5 1 0.5  4 1 0.5  4.5 1 0.5  5 1 0.5  5.5 1 0.5  6 1 0.5  6.5 1 0.5  7 1 0.5  7.5 1 0.5  8 1 0.5  8.5 1 0.5  9 1 0.5  9.5 1 0.5  10 1 0.5  0 1.5 0.5  0.5 1.5 0.5  1 1.5 0.5  1.5 1.5 0.5  2 1.5 0.5  2.5 1.5 0.5  3 1.5 0.5  3.5 1.5 0.5  4 1.5 0.5  4.5 1.5 0.5  5 1.5 0.5  5.5 1.5 0.5  6 1.5 0.5  6.5 1.5 0.5  7 1.5 0.5  7.5 1.5 0.5  8 1.5 0.5  8.
[...]
<PointData  Scalars="f_7-2"> 
<DataArray  type="Float64"  Name="f_7-2"  format="ascii">1.1548846781479551e+00  1.1332887326809378e+00  1.1336355122801296e+00  1.1365202928928833e+00  1.1372172767760997e+00  1.1373402259763739e+00  1.1373655332840900e+00  1.1373705299408996e+00  1.1373700459483516e+00  1.1373687220032604e+00  1.1373677305723300e+00  1.1373671193475137e+00  1.1373667633883842e+00  1.1373665617669317e+00  1.1373664493301356e+00  1.1373663871236430e+00  1.1373663528989899e+00  1.1373663342463520e+00  1.1373663243442540e+00  1.1373663195772601e+00  1.1373663181567431e+00  1.1441885461423473e+00  1.1447358705131088e+00  1.1358208530114295e+00  1.1372633067232916e+00  1.1373663284774405e+00  1.1373615546704594e+00  1.1373713423674050e+00  1.1373718664728838e+00  1.1373699330806391e+00  1.1373684258112893e+00  1.1373675163786221e+00  1.1373669873396957e+00  1.1373666861637775e+00  1.1373665179787069e+00  1.1373664248937168e+00  1.1373663735645319e+00  1.1373663453719209e+00  1.1373663300238719e+00  1.1373663218805967e+00  1.1373663179892182e+00  1.1373663168330010e+00  1.1484083054114076e+00  1.1510367396057790e+00  1.1387881282860419e+00  1.1378931561296404e+00  1.1375453237485773e+00  1.1374053895640523e+00  1.1373835611525891e+00  1.1373735702942065e+00  1.1373693630694717e+00  1.1373677661897938e+00  1.1373670622805969e+00  1.1373667086356665e+00  1.1373665244288562e+00  1.1373664268054839e+00  1.1373663741136768e+00  1.1373663454072120e+00  1.1373663297463901e+00  1.1373663212561920e+00  1.1373663167645995e+00  1.1373663146685737e+00  1.1373663140162011e+00  1.1510872106684344e+00  1.1528341949650169e+00  1.1399893975537017e+00  1.1379080404003117e+00  1.1376158073805356e+00  1.1374184131588740e+00  1.1373831920346571e+00  1.1373711148449552e+00  1.1373674460439900e+00  1.1373666059653915e+00  1.1373663815787058e+00  1.1373663198346107e+00  1.1373663072815110e+00  1.1373663065271993e+00  1.1373663076548930e+00  1.1373663087086898e+00  1.1373663094231923e+00  1.1373663098589792e+00  1.1373663101111877e+00  1.1373663103154719e+00  1.1373663103200125e+00  1.1501128617148491e+00  1.1499718616212604e+00  1.1391667898451829e+00  1.1374805274330988e+00  1.1374571285479700e+00  1.1373674681039065e+00  1.1373651918914198e+00  1.1373637591761989e+00  1.1373642021893955e+00  1.1373650867956990e+00  1.1373655983253559e+00  1.1373659051390468e+00  1.1373660845804929e+00  1.1373661854369417e+00  1.1373662413742718e+00  1.1373662722928184e+00  1.1373662893087082e+00  1.1373662985919533e+00  1.1373663035298207e+00  1.1373663059833452e+00  1.1373663066447146e+00  1.1455818964537940e+00  1.1456030471317207e+00  1.1367849899831246e+00  1.1363855478166536e+00  1.1371875713402260e+00  1.1373125798782560e+00  1.1373408079170133e+00  1.1373552181969726e+00  1.1373611434235991e+00  1.1373637396727372e+00  1.1373649487011932e+00  1.1373655774708289e+00  1.1373659131119840e+00  1.1373660932992944e+00  1.1373661912562183e+00  1.1373662448607340e+00  1.1373662741801305e+00  1.1373662901135451e+00  1.1373662985635371e+00  1.1373663027038630e+00  1.1373663038650268e+00  1.1579377738226668e+00  1.1336890658707262e+00  1.1301277185991603e+00  1.1356362152228296e+00  1.1372469934702119e+00  1.1372692574711767e+00  1.1373225776991893e+00  1.1373520747130905e+00  1.1373597757488234e+00  1.1373630706789672e+00  1.1373646364350076e+00  1.1373654252978835e+00  1.1373658336457328e+00  1.1373660502785961e+00  1.1373661679258098e+00  1.1373662321250848e+00  1.1373662671585758e+00  1.1373662861860880e+00  1.1373662962822944e+00  1.1373663011792752e+00  1.1373663024844904e+00  1.1809154628358185e+00  1.1259235287534684e+00  1.1341749509197958e+00  1.1366137777452803e+00  1.1372237577337869e+00  1.1373400546346901e+00  1.1373652576054962e+00  1.1373706877963068e+00  1.1373700903252482e+00  1.1373687138915207e+00  1.1373677244967206e+00  1.1373671164454402e+00  1.1373667615531602e+00  1.1373665606537731e+00  1.1373664487062440e+00  1.1373663867781512e+00  1.1373663527070390e+00  1.1373663341363487e+00  1.1373663242787124e+00  1.1373663195429067e+00  1.1373663180404667e+00  1.1866412750829478e+00  1.1339422375852573e+00  1.1379228518727769e+00  1.1373592354452124e+00  1.1372833468206358e+00  1.1373522003549732e+00  1.1373711043077157e+00  1.1373717693372314e+00  1.1373698221232724e+00  1.1373684123818040e+00  1.1373675290217722e+00  1.1373669967564890e+00  1.1373666917165601e+00  1.1373665212935293e+00  1.1373664268071575e+00  1.1373663746373859e+00  1.1373663459698438e+00  1.1373663303572268e+00  1.1373663220794397e+00  1.1373663180959450e+00  1.1373663169533299e+00  1.1879163931605967e+00  1.1445370621723818e+00  1.1391327690296689e+00  1.1380273325332264e+00  1.1374753631075980e+00  1.1374166125177252e+00  1.1373859061991767e+00  1.1373733840874256e+00  1.1373693289253330e+00  1.1373677964208109e+00  1.1373670764634023e+00  1.1373667134221817e+00  1.1373665270938313e+00  1.1373664284118650e+00  1.1373663750011529e+00  1.1373663458946324e+00  1.1373663300186361e+00  1.1373663214091092e+00  1.1373663168637276e+00  1.1373663147086139e+00  1.1373663141010979e+00  1.1910306275062092e+00  1.1466136555721504e+00  1.1390875511391836e+00  1.1383307452139633e+00  1.1375661470144036e+00  1.1374288891626416e+00  1.1373850501565133e+00  1.1373707779806430e+00  1.1373675202084110e+00  1.1373666503488389e+00  1.1373663871455286e+00  1.1373663206683422e+00  1.1373663081642469e+00  1.1373663069944633e+00  1.1373663078665828e+00  1.1373663088235322e+00  1.1373663094900230e+00  1.1373663098975471e+00  1.1373663101431846e+00  1.1373663102999441e+00  1.1373663103946079e+00  1.1897576300935135e+00  1.1435382648675825e+00  1.1385062204531444e+00  1.1378997451933688e+00  1.1374127660656976e+00  1.1373738485079494e+00  1.1373671504168779e+00  1.1373632749423994e+00  1.1373643503179027e+00  1.1373651052066456e+00  1.1373655890746619e+00  1.1373659015993083e+00  1.1373660829048835e+00  1.1373661843028677e+00  1.1373662407017344e+00  1.1373662719280373e+00  1.1373662891085463e+00  1.1373662984789823e+00  1.1373663034716250e+00  1.1373663059118115e+00  1.1373663066877930e+00  1.1765560776240893e+00  1.1407169799816832e+00  1.1353171843839158e+00  1.1367339716565639e+00  1.1372238993197423e+00  1.1373025872572076e+00  1.1373399257280019e+00  1.1373551279370637e+00  1.1373612019276487e+00  1.1373636963526570e+00  1.1373649257614087e+00  1.1373655704357750e+00  1.1373659090851396e+00  1.1373660908041543e+00  1.1373661899265486e+00  1.1373662441502081e+00  1.1373662737870367e+00  1.1373662898960093e+00  1.1373662984467683e+00  1.1373663025912615e+00  1.1373663038673876e+00  1.2333765452640832e+00  1.1141370985716406e+00  1.1311627167865221e+00  1.1371610934002911e+00  1.1371420806791128e+00  1.1372272740699418e+00  1.1373323992526547e+00  1.1373528108196511e+00  1.1373596499322556e+00  1.1373630781784314e+00  1.1373646503025345e+00  1.1373654325667690e+00  1.1373658349788494e+00  1.1373660510437131e+00  1.1373661684594705e+00  1.1373662323880307e+00  1.1373662672916778e+00  1.1373662862573926e+00  1.1373662963132378e+00  1.1373663011601729e+00  1.1373663026114440e+00  1.1548669476030469e+00  1.1329377007063022e+00  1.1332730124135750e+00  1.1365843627673948e+00  1.1372598192723760e+00  1.1373348192057116e+00  1.1373642033888802e+00  1.1373709790101343e+00  1.1373701221525105e+00  1.1373687053676247e+00  1.1373677278277508e+00  1.1373671194475286e+00  1.1373667629131985e+00  1.1373665613854911e+00  1.1373664491292208e+00  1.1373663870136366e+00  1.1373663528368345e+00  1.1373663342074327e+00  1.1373663243260363e+00  1.1373663195808521e+00  1.1373663180437090e+00  1.1535798023854900e+00  1.1408695947790726e+00  1.1372684892656366e+00  1.1373258060196640e+00  1.1372992475515078e+00  1.1373506784018692e+00  1.1373728542831580e+00  1.1373720524156805e+00  1.1373697740151982e+00  1.1373684153201440e+00  1.1373675330335407e+00  1.1373669957841466e+00  1.1373666907485234e+00  1.1373665208116395e+00  1.1373664265338252e+00  1.1373663744790528e+00  1.1373663458821579e+00  1.1373663303095169e+00  1.1373663220551249e+00  1.1373663180871092e+00  1.1373663169550035e+00  1.1569782617461095e+00  1.1478379996970525e+00  1.1396390689725808e+00  1.1377805290225254e+00  1.1374857247299948e+00  1.1374275449321869e+00  1.1373866000469000e+00  1.1373730234786308e+00  1.1373693130445508e+00  1.1373678205632056e+00  1.1373670738503341e+00  1.1373667093729665e+00  1.1373665254493950e+00  1.1373664275598137e+00  1.1373663744963172e+00  1.1373663456159200e+00  1.1373663298678909e+00  1.1373663213261191e+00  1.1373663168173740e+00  1.1373663146882973e+00  1.1373663140660197e+00  1.1600513965416344e+00  1.1499157549396970e+00  1.1397960153548257e+00  1.1381446456078157e+00  1.1375719797589463e+00  1.1374373888022118e+00  1.1373821586304549e+00  1.1373702817960440e+00  1.1373676032560158e+00  1.1373666442686925e+00  1.1373663716868827e+00  1.1373663164515693e+00  1.1373663068185236e+00  1.1373663061820711e+00  1.1373663074247253e+00  1.1373663086015198e+00  1.1373663093731476e+00  1.1373663098335343e+00  1.1373663101059865e+00  1.1373663102816820e+00  1.1373663103647436e+00  1.1588160191000274e+00  1.1471565491200917e+00  1.1392301057741816e+00  1.1377234549806370e+00  1.1373921792856347e+00  1.1373790792314695e+00  1.1373641877670770e+00  1.1373631583943371e+00  1.1373644430416039e+00  1.1373650564470725e+00  1.1373655745640863e+00  1.1373658997660581e+00  1.1373660817627427e+00  1.1373661835547921e+00  1.1373662403589635e+00  1.1373662717644271e+00  1.1373662890202501e+00  1.1373662984300088e+00  1.1373663034419050e+00  1.1373663058957473e+00  1.1373663066568183e+00  1.1478063154637341e+00  1.1458753013278047e+00  1.1353874282295462e+00  1.1366764881545062e+00  1.1372062781155909e+00  1.1372985025761804e+00  1.1373402893983260e+00  1.1373552211666029e+00  1.1373611833802473e+00  1.1373636632821387e+00  1.1373649246231288e+00  1.1373655726545620e+00  1.1373659090123058e+00  1.1373660907836427e+00  1.1373661900272694e+00  1.1373662442070887e+00  1.1373662738147750e+00  1.1373662899115056e+00  1.1373662984526403e+00  1.1373663025943945e+00  1.1373663038496808e+00  1.1900670686028372e+00  1.1141401919435672e+00  1.1332085167505803e+00  1.1368457151364100e+00  1.1369838835274406e+00  1.1372534450364709e+00  1.1373364638641428e+00  1.1373512709858826e+00  1.1373597404150593e+00  1.1373630818419576e+00  1.1373646612725541e+00  1.1373654349609861e+00  1.1373658352008627e+00  1.1373660518180444e+00  1.1373661688742749e+00  1.1373662325811116e+00  1.1373662674021268e+00  1.1373662863211325e+00  1.1373662963487310e+00  1.1373663011971942e+00  1.1373663026066123e+00  1.2313557212095592e+00  1.1196257697701157e+00  1.1333627729301068e+00  1.1372030860527460e+00  1.1371985183535089e+00  1.1373220637120933e+00  1.1373681680166350e+00  1.1373714880299290e+00  1.1373699706488427e+00  1.1373686857238114e+00  1.1373677262483552e+00  1.1373671140085966e+00  1.1373667591922849e+00  1.1373665594169973e+00  1.1373664480410803e+00  1.1373663864028201e+00  1.1373663524990132e+00  1.1373663340242095e+00  1.1373663242320653e+00  1.1373663194900612e+00  1.1373663180168929e+00  1.2324680167011086e+00  1.1235023991482058e+00  1.1401364041525870e+00  1.1373032496022308e+00  1.1371520002517703e+00  1.1373627848639010e+00  1.1373759370748233e+00  1.1373706709869638e+00  1.1373695402878761e+00  1.1373684304656773e+00  1.1373675239390595e+00  1.1373669882875648e+00  1.1373666883251228e+00  1.1373665197897402e+00  1.1373664259629017e+00  1.1373663741715982e+00  1.1373663457171339e+00  1.1373663302166570e+00  1.1373663219979988e+00  1.1373663180235312e+00  1.1373663169295474e+00  1.2220920228406187e+00  1.1399135087578225e+00  1.1404209575208908e+00  1.1373438219620560e+00  1.1375385188093523e+00  1.1374456543259692e+00  1.1373814393477375e+00  1.1373718463775722e+00  1.1373694790678144e+00  1.1373678243257825e+00  1.1373670471557331e+00  1.1373667021903975e+00  1.1373665233302994e+00  1.1373664262160481e+00  1.1373663737464339e+00  1.1373663452325076e+00  1.1373663296627474e+00  1.1373663212125755e+00  1.1373663167550492e+00  1.1373663146204331e+00  1.1373663140644308e+00  1.2225553264726403e+00  1.1433102422796300e+00  1.1389766390577976e+00  1.1382163518071033e+00  1.1376413577496580e+00  1.1374226764862849e+00  1.1373746191860583e+00  1.1373712070461692e+00  1.1373677623990719e+00  1.1373665604650152e+00  1.1373663577134987e+00  1.1373663203462414e+00  1.1373663082466492e+00  1.1373663067498510e+00  1.1373663078755982e+00  1.1373663088888208e+00  1.1373663095345350e+00  1.1373663099250471e+00  1.1373663101605527e+00  1.1373663102909688e+00  1.1373663104234615e+00  1.2223258550943361e+00  1.1407074066998428e+00  1.1381419814196023e+00  1.1380015017076552e+00  1.1373548827353568e+00  1.1373844436963287e+00  1.1373621560479228e+00  1.1373651334284995e+00  1.1373643773925795e+00  1.1373650030499347e+00  1.1373656021850884e+00  1.1373659101942100e+00  1.1373660846150317e+00  1.1373661853032488e+00  1.1373662414450099e+00  1.1373662723493285e+00  1.1373662893379355e+00  1.1373662986093145e+00  1.1373663035473096e+00  1.1373663059500250e+00  1.1373663067425195e+00  1.2297292443855639e+00  1.1328082875881322e+00  1.1349547286701220e+00  1.1372176236664158e+00  1.1371297463951333e+00  1.1373195874926227e+00  1.1373394781992185e+00  1.1373560296551579e+00  1.1373611326679367e+00  1.1373636770821707e+00  1.1373649691251586e+00  1.1373655816189525e+00  1.1373659127596005e+00  1.1373660936001913e+00  1.1373661915475881e+00  1.1373662449943265e+00  1.1373662742514767e+00  1.1373662901602490e+00  1.1373662986021087e+00  1.1373663026857825e+00  1.1373663039518249e+00  1.2588258619017720e+00  1.1087614711339722e+00  1.1332862171636746e+00  1.1369793375420780e+00  1.1369514463582624e+00  1.1372801426470289e+00  1.1373289642404159e+00  1.1373516137461213e+00  1.1373597807456335e+00  1.1373630504537877e+00  1.1373646670599395e+00  1.1373654247712703e+00  1.1373658325643217e+00  1.1373660507791765e+00  1.1373661680842426e+00  1.1373662321443472e+00  1.1373662671725162e+00  1.1373662861924414e+00  1.1373662962743973e+00  1.1373663011419481e+00  1.1373663026098104e+00  </DataArray> 
</PointData> 
</Piece>
</UnstructuredGrid>
</VTKFile>