<?xml version="1.0"?>
<VTKFile type="UnstructuredGrid"  version="0.1"  >
<UnstructuredGrid>
<Piece  NumberOfPoints="588" NumberOfCells="2160">
<Points>
<DataArray  type="Float64"  NumberOfComponents="3"  format="ascii">0 0 0  0.5 0 0  1 0 0  1.5 0 0  2 0 0  2.5 0 0  3 0 0  3.5 0 0  4 0 0  4.5 0 0  5 0 0  5.5 0 0  6 0 0  6.5 0 0  7 0 0  7.5 0 0  8 0 0  8.5 0 0  9 0 0  9.5 0 0  10 0 0  0 0.5 0  0.5 0.5 0  1 0.5 0  1.5 0.5 0  2 0.5 0  2.5 0.5 0  3 0.5 0  3.5 0.5 0  4 0.5 0  4.5 0.5 0  5 0.5 0  5.5 0.5 0  6 0.5 0  6.5 0.5 0  7 0.5 0  7.5 0.5 0  8 0.5 0  8.5 0.5 0  9 0.5 0  9.5 0.5 0  10 0.5 0  0 1 0  0.5 1 0  1 1 0  1.5 1 0  2 1 0  2.5 1 0  3 1 0  3.5 1 0  4 1 0  4.5 1 0  5 1 0  5.5 1 0  6 1 0  6.5 1 0  7 1 0  7.5 1 0  8 1 0  8.5 1 0  9 1 0  9.5 1 0  10 1 0  0 1.5 0  0.5 1.5 0  1 1.5 0  1.5 1.5 0  2 1.5 0  2.5 1.5 0  3 1.5 0  3.5 1.5 0  4 1.5 0  4.5 1.5 0  5 1.5 0  5.5 1.5 0  6 1.5 0  6.5 1.5 0  7 1.5 0  7.5 1.5 0  8 1.5 0  8.5 1.5 0  9 1.5 0  9.5 1.5 0  10 1.5 0  0 2 0  0.5 2 0  1 2 0  1.5 2 0  2 2 0  2.5 2 0  3 2 0  3.5 2 0  4 2 0  4.5 2 0  5 2 0  5.5 2 0  6 2 0  6.5 2 0  7 2 0  7.5 2 0  8 2 0  8.5 2 0  9 2 0  9.5 2 0  10 2 0  0 2.5 0  0.5 2.5 0  1 2.5 0  1.5 2.5 0  2 2.5 0  2.5 2.5 0  3 2.5 0  3.5 2.5 0  4 2.5 0  4.5 2.5 0  5 2.5 0  5.5 2.5 0  6 2.5 0  6.5 2.5 0  7 2.5 0  7.5 2.5 0  8 2.5 0  8.5 2.5 0  9 2.5 0  9.5 2.5 0  10 2.5 0  0 3 0  0.5 3 0  1 3 0  1.5 3 0  2 3 0  2.5 3 0  3 3 0  3.5 3 0  4 3 0  4.5 3 0  5 3 0  5.5 3 0  6 3 0  6.5 3 0  7 3 0  7.5 3 0  8 3 0  8.5 3 0  9 3 0  9.5 3 0  10 3 0  0 0 0.1666666666666667  0.5 0 0.1666666666666667  1 0 0.1666666666666667  1.5 0 0.1666666666666667  2 0 0.1666666666666667  2.5 0 0.1666666666666667  3 0 0.1666666666666667  3.5 0 0.1666666666666667  4 0 0.1666666666666667  4.5 0 0.1666666666666667  5 0 0.1666666666666667  5.5 0 0.1666666666666667  6 0 0.1666666666666667  6.5 0 0.1666666666666667  7 0 0.1666666666666667  7.5 0 0.1666666666666667  8 0 0.1666666666666667  8.5 0 0.1666666666666667  9 0 0.1666666666666667  9.5 0 0.1666666666666667  10 0 0.1666666666666667  0 0.5 0.1666666666666667  0.5 0.5 0.1666666666666667  1 0.5 0.1666666666666667  1.5 0.5 0.1666666666666667  2 0.5 0.1666666666666667  2.5 0.5 0.1666666666666667  3 0.5 0.1666666666666667  3.5 0.5 0.1666666666666667  4 0.5 0.1666666666666667  4.5 0.5 0.1666666666666667  5 0.5 0.1666666666666667  5.5 0.5 0.1666666666666667  6 0.5 0.1666666666666667  6.5 0.5 0.1666666666666667  7 0.5 0.1666666666666667  7.5 0.5 0.1666666666666667  8 0.5 0.1666666666666667  8.5 0.5 0.1666666666666667  9 0.5 0.1666666666666667  9.5 0.5 0.1666666666666667  10 0.5 0.1666666666666667  0 1 0.1666666666666667  0.5 1 0.1666666666666667  1 1 0.1666666666666667  1.5 1 0.1666666666666667  2 1 0.1666666666666667  2.5 1 0.1666666666666667  3 1 0.1666666666666667  3.5 1 0.1666666666666667  4 1 0.1666666666666667  4.5 1 0.1666666666666667  5 1 0.1666666666666667  5.5 1 0.1666666666666667  6 1 0.1666666666666667  6.5 1 0.1666666666666667  7 1 0.1666666666666667  7.5 1 0.1666666666666667  8 1 0.1666666666666667  8.5 1 0.1666666666666667  9 1 0.1666666666666667  9.5 1 0.1666666666666667  10 1 0.1666666666666667  0 1.5 0.1666666666666667  0.5 1.5 0.1666666666666667  1 1.5 0.1666666666666667  1.5 1.5 0.1666666666666667  2 1.5 0.1666666666666667  2.5 1.5 0.1666666666666667  3 1.5 0.1666666666666667  3.5 1.5 0.1666666666666667  4 1.5 0.1666666666666667  4.5 1.5 0.1666666666666667  5 1.5 0.1666666666666667  5.5 1.5 0.1666666666666667  6 1.5 0.1666666666666667  6.5 1.5 0.1666666666666667  7 1.5 0.1666666666666667  7.5 1.5 0.1666666666666667  8 1.5 0.1666666666666667  8.5 1.5 0.1666666666666667  9 1.5 0.1666666666666667  9.5 1.5 0.1666666666666667  10 1.5 0.1666666666666667  0 2 0.1666666666666667  0.5 2 0.1666666666666667  1 2 0.1666666666666667  1.5 2 0.1666666666666667  2 2 0.1666666666666667  2.5 2 0.1666666666666667  3 2 0.1666666666666667  3.5 2 0.1666666666666667  4 2 0.1666666666666667  4.5 2 0.1666666666666667  5 2 0.1666666666666667  5.5 2 0.1666666666666667  6 2 0.1666666666666667  6.5 2 0.1666666666666667  7 2 0.1666666666666667  7.5 2 0.1666666666666667  8 2 0.1666666666666667  8.5 2 0.1666666666666667  9 2 0.1666666666666667  9.5 2 0.1666666666666667  10 2 0.1666666666666667  0 2.5 0.1666666666666667  0.5 2.5 0.1666666666666667  1 2.5 0.1666666666666667  1.5 2.5 0.1666666666666667  2 2.5 0.1666666666666667  2.5 2.5 0.1666666666666667  3 2.5 0.1666666666666667  3.5 2.5 0.1666666666666667  4 2.5 0.1666666666666667  4.5 2.5 0.1666666666666667  5 2.5 0.1666666666666667  5.5 2.5 0.1666666666666667  6 2.5 0.1666666666666667  6.5 2.5 0.1666666666666667  7 2.5 0.1666666666666667  7.5 2.5 0.1666666666666667  8 2.5 0.1666666666666667  8.5 2.5 0.1666666666666667  9 2.5 0.1666666666666667  9.5 2.5 0.1666666666666667  10 2.5 0.1666666666666667  0 3 0.1666666666666667  0.5 3 0.1666666666666667  1 3 0.1666666666666667  1.5 3 0.1666666666666667  2 3 0.1666666666666667  2.5 3 0.1666666666666667  3 3 0.1666666666666667  3.5 3 0.1666666666666667  4 3 0.1666666666666667  4.5 3 0.1666666666666667  5 3 0.1666666666666667  5.5 3 0.1666666666666667  6 3 0.1666666666666667  6.5 3 0.1666666666666667  7 3 0.1666666666666667  7.5 3 0.1666666666666667  8 3 0.1666666666666667  8.5 3 0.1666666666666667  9 3 0.1666666666666667  9.5 3 0.1666666666666667  10 3 0.1666666666666667  0 0 0.3333333333333333  0.5 0 0.3333333333333333  1 0 0.3333333333333333  1.5 0 0.3333333333333333  2 0 0.3333333333333333  2.5 0 0.3333333333333333  3 0 0.3333333333333333  3.5 0 0.3333333333333333  4 0 0.3333333333333333  4.5 0 0.3333333333333333  5 0 0.3333333333333333  5.5 0 0.3333333333333333  6 0 0.3333333333333333  6.5 0 0.3333333333333333  7 0 0.3333333333333333  7.5 0 0.3333333333333333  8 0 0.3333333333333333  8.5 0 0.3333333333333333  9 0 0.3333333333333333  9.5 0 0.3333333333333333  10 0 0.3333333333333333  0 0.5 0.3333333333333333  0.5 0.5 0.3333333333333333  1 0.5 0.3333333333333333  1.5 0.5 0.3333333333333333  2 0.5 0.3333333333333333  2.5 0.5 0.3333333333333333  3 0.5 0.3333333333333333  3.5 0.5 0.3333333333333333  4 0.5 0.3333333333333333  4.5 0.5 0.3333333333333333  5 0.5 0.3333333333333333  5.5 0.5 0.3333333333333333  6 0.5 0.3333333333333333  6.5 0.5 0.3333333333333333  7 0.5 0.3333333333333333  7.5 0.5 0.3333333333333333  8 0.5 0.3333333333333333  8.5 0.5 0.3333333333333333  9 0.5 0.3333333333333333  9.5 0.5 0.3333333333333333  10 0.5 0.3333333333333333  0 1 0.3333333333333333  0.5 1 0.3333333333333333  1 1 0.3333333333333333  1.5 1 0.3333333333333333  2 1 0.3333333333333333  2.5 1 0.3333333333333333  3 1 0.3333333333333333  3.5 1 0.3333333333333333  4 1 0.3333333333333333  4.5 1 0.3333333333333333  5 1 0.3333333333333333  5.5 1 0.3333333333333333  6 1 0.3333333333333333  6.5 1 0.3333333333333333  7 1 0.3333333333333333  7.5 1 0.3333333333333333  8 1 0.3333333333333333  8.5 1 0.3333333333333333  9 1 0.3333333333333333  9.5 1 0.3333333333333333  10 1 0.3333333333333333  0 1.5 0.3333333333333333  0.5 1.5 0.3333333333333333  1 1.5 0.3333333333333333  1.5 1.5 0.3333333333333333  2 1.5 0.3333333333333333  2.5 1.5 0.3333333333333333  3 1.5 0.3333333333333333  3.5 1.5 0.3333333333333333  4 1.5 0.3333333333333333  4.5 1.5 0.3333333333333333  5 1.5 0.3333333333333333  5.5 1.5 0.3333333333333333  6 1.5 0.3333333333333333  6.5 1.5 0.3333333333333333  7 1.5 0.3333333333333333  7.5 1.5 0.3333333333333333  8 1.5 0.3333333333333333  8.5 1.5 0.3333333333333333  9 1.5 0.3333333333333333  9.5 1.5 0.3333333333333333  10 1.5 0.3333333333333333  0 2 0.3333333333333333  0.5 2 0.3333333333333333  1 2 0.3333333333333333  1.5 2 0.3333333333333333  2 2 0.3333333333333333  2.5 2 0.3333333333333333  3 2 0.3333333333333333  3.5 2 0.3333333333333333  4 2 0.3333333333333333  4.5 2 0.3333333333333333  5 2 0.3333333333333333  5.5 2 0.3333333333333333  6 2 0.3333333333333333  6.5 2 0.3333333333333333  7 2 0.3333333333333333  7.5 2 0.3333333333333333  8 2 0.3333333333333333  8.5 2 0.3333333333333333  9 2 0.3333333333333333  9.5 2 0.3333333333333333  10 2 0.3333333333333333  0 2.5 0.3333333333333333  0.5 2.5 0.3333333333333333  1 2.5 0.3333333333333333  1.5 2.5 0.3333333333333333  2 2.5 0.3333333333333333  2.5 2.5 0.3333333333333333  3 2.5 0.3333333333333333  3.5 2.5 0.3333333333333333  4 2.5 0.3333333333333333  4.5 2.5 0.3333333333333333  5 2.5 0.3333333333333333  5.5 2.5 0.3333333333333333  6 2.5 0.3333333333333333  6.5 2.5 0.3333333333333333  7 2.5 0.3333333333333333  7.5 2.5 0.3333333333333333  8 2.5 0.3333333333333333  8.5 2.5 0.3333333333333333  9 2.5 0.3333333333333333  9.5 2.5 0.3333333333333333  10 2.5 0.3333333333333333  0 3 0.3333333333333333  0.5 3 0.3333333333333333  1 3 0.3333333333333333  1.5 3 0.3333333333333333  2 3 0.3333333333333333  2.5 3 0.3333333333333333  3 3 0.3333333333333333  3.5 3 0.3333333333333333  4 3 0.3333333333333333  4.5 3 0.3333333333333333  5 3 0.3333333333333333  5.5 3 0.3333333333333333  6 3 0.3333333333333333  6.5 3 0.3333333333333333  7 3 0.3333333333333333  7.5 3 0.3333333333333333  8 3 0.3333333333333333  8.5 3 0.3333333333333333  9 3 0.3333333333333333  9.5 3 0.3333333333333333  10 3 0.3333333333333333  0 0 0.5  0.5 0 0.5  1 0 0.5  1.5 0 0.5  2 0 0.5  2.5 0 0.5  3 0 0.5  3.5 0 0.5  4 0 0.5  4.5 0 0.5  5 0 0.5  5.5 0 0.5  6 0 0.5  6.5 0 0.5  7 0 0.5  7.5 0 0.5  8 0 0.5  8.5 0 0.5  9 0 0.5  9.5 0 0.5  10 0 0.5  0 0.5 0.5  0.5 0.5 0.5  1 0.5 0.5  1.5 0.5 0.5  2 0.5 0.5  2.5 0.5 0.5  3 0.5 0.5  3.5 0.5 0.5  4 0.5 0.5  4.5 0.5 0.5  5 0.5 0.5  5.5 0.5 0.5  6 0.5 0.5  6.5 0.5 0.5  7 0.5 0.5  7.5 0.5 0.5  8 0.5 0.5  8.5 0.5 0.5  9 0.5 0.5  9.5 0.5 0.5  10 0.5 0.5  0 1 0.5  0.5 1 0.5  1 1 0.5  1.5 1 0.5  2 1 0.5  2.5 1 0.5  3 1 0.5  3.5 1 0.5  4 1 0.5  4.5 1 0.5  5 1 0.5  5.5 1 0.5  6 1 0.5  6.5 1 0.5  7 1 0.5  7.5 1 0.5  8 1 0.5  8.5 1 0.5  9 1 0.5  9.5 1 0.5  10 1 0.5  0 1.5 0.5  0.5 1.5 0.5  1 1.5 0.5  1.5 1.5 0.5  2 1.5 0.5  2.5 1.5 0.5  3 1.5 0.5  3.5 1.5 0.5  4 1.5 0.5  4.5 1.5 0.5  5 1.5 0.5  5.5 1.5 0.5  6 1.5 0.5  6.5 1.5 0.5  7 1.5 0.5  7.5 1.5 0.5  8 1.5 0.5  8.
[...]
<PointData  Scalars="f_7-2"> 
<DataArray  type="Float64"  Name="f_7-2"  format="ascii">1.1814504119862406e+00  1.1701041727819963e+00  1.1703898203454017e+00  1.1725208458693015e+00  1.1730509340708193e+00  1.1731399095749511e+00  1.1731524928674582e+00  1.1731520083814291e+00  1.1731493521812020e+00  1.1731471457938034e+00  1.1731457574972892e+00  1.1731449598835637e+00  1.1731445158709544e+00  1.1731442724941090e+00  1.1731441402667120e+00  1.1731440687777319e+00  1.1731440302807115e+00  1.1731440097141976e+00  1.1731439989879278e+00  1.1731439938950681e+00  1.1731439923877425e+00  1.1720208297717871e+00  1.1807473271412645e+00  1.1722409312249806e+00  1.1729467815048458e+00  1.1731681164462107e+00  1.1731556588267347e+00  1.1731554797535499e+00  1.1731521968007004e+00  1.1731488573007194e+00  1.1731467092794574e+00  1.1731454835044641e+00  1.1731448021434183e+00  1.1731444277956597e+00  1.1731442241639367e+00  1.1731441139939376e+00  1.1731440545434291e+00  1.1731440225589742e+00  1.1731440054828386e+00  1.1731439965796779e+00  1.1731439923836180e+00  1.1731439911462804e+00  1.1762328000037019e+00  1.1875165769373568e+00  1.1750779070314621e+00  1.1733323937097668e+00  1.1733191215907350e+00  1.1731857845920268e+00  1.1731608255235992e+00  1.1731516141161207e+00  1.1731474693790349e+00  1.1731456992187985e+00  1.1731448725096012e+00  1.1731444534414519e+00  1.1731442342226954e+00  1.1731441183734785e+00  1.1731440565821558e+00  1.1731440234562185e+00  1.1731440056977738e+00  1.1731439962392365e+00  1.1731439913170281e+00  1.1731439890508810e+00  1.1731439883474821e+00  1.1789302474638619e+00  1.1895581094422829e+00  1.1762579826422854e+00  1.1732539300988736e+00  1.1733788631923752e+00  1.1731886105746203e+00  1.1731546904061214e+00  1.1731475216852312e+00  1.1731447566658448e+00  1.1731441407267191e+00  1.1731440077905890e+00  1.1731439778729469e+00  1.1731439755833040e+00  1.1731439784566300e+00  1.1731439809954110e+00  1.1731439826200578e+00  1.1731439835719439e+00  1.1731439841096678e+00  1.1731439844058553e+00  1.1731439846344378e+00  1.1731439846377372e+00  1.1783981641563592e+00  1.1865677226711961e+00  1.1753784527053341e+00  1.1728664673866567e+00  1.1732375611236794e+00  1.1731376297849674e+00  1.1731363021131249e+00  1.1731398110939675e+00  1.1731410161039393e+00  1.1731423417138018e+00  1.1731430786104580e+00  1.1731434874132138e+00  1.1731437149940482e+00  1.1731438389790938e+00  1.1731439060418472e+00  1.1731439422385692e+00  1.1731439617226060e+00  1.1731439721380894e+00  1.1731439775785886e+00  1.1731439802423049e+00  1.1731439809525257e+00  1.1738547688459722e+00  1.1815968350727217e+00  1.1732754617955532e+00  1.1719084036821812e+00  1.1729840020036391e+00  1.1730985381492767e+00  1.1731138074394434e+00  1.1731312739408668e+00  1.1731378878746783e+00  1.1731408596735393e+00  1.1731423450649539e+00  1.1731431137043538e+00  1.1731435193338162e+00  1.1731437350073919e+00  1.1731438503767382e+00  1.1731439123094101e+00  1.1731439455404802e+00  1.1731439632639611e+00  1.1731439725016828e+00  1.1731439769614913e+00  1.1731439782031876e+00  1.1776553122437212e+00  1.1706521464764261e+00  1.1668106587853084e+00  1.1711560208151275e+00  1.1731473141241442e+00  1.1730568469756577e+00  1.1730931855788980e+00  1.1731292978796111e+00  1.1731365096785582e+00  1.1731401333007991e+00  1.1731420223872371e+00  1.1731429493312746e+00  1.1731434335113089e+00  1.1731436893931684e+00  1.1731438259780040e+00  1.1731438992131198e+00  1.1731439384641116e+00  1.1731439593906234e+00  1.1731439703042077e+00  1.1731439755237771e+00  1.1731439769132286e+00  1.2094765364201747e+00  1.1629070054863664e+00  1.1707559245469841e+00  1.1725907207205410e+00  1.1730561874982532e+00  1.1731401820180909e+00  1.1731523183972596e+00  1.1731520653556669e+00  1.1731493719226398e+00  1.1731471358670280e+00  1.1731457500414053e+00  1.1731449560118121e+00  1.1731445136567804e+00  1.1731442712306484e+00  1.1731441395738180e+00  1.1731440684019294e+00  1.1731440300768710e+00  1.1731440096002694e+00  1.1731439989224537e+00  1.1731439938624146e+00  1.1731439922756586e+00  1.2214067775833222e+00  1.1710503451948364e+00  1.1727496482837909e+00  1.1731807248336104e+00  1.1731058602277438e+00  1.1731486856525577e+00  1.1731553042584144e+00  1.1731522317490559e+00  1.1731488480799532e+00  1.1731467266938831e+00  1.1731455047751982e+00  1.1731448153155466e+00  1.1731444350498546e+00  1.1731442281792122e+00  1.1731441161985279e+00  1.1731440557397732e+00  1.1731440232072725e+00  1.1731440058347120e+00  1.1731439967845712e+00  1.1731439924897713e+00  1.1731439912646791e+00  1.2247986685976271e+00  1.1817480625746482e+00  1.1737628878612916e+00  1.1737948356387724e+00  1.1732599380782684e+00  1.1731898540115409e+00  1.1731631541667134e+00  1.1731517112347500e+00  1.1731475114306904e+00  1.1731457385403146e+00  1.1731448923813890e+00  1.1731444615446640e+00  1.1731442381446708e+00  1.1731441204579343e+00  1.1731440576733589e+00  1.1731440240301112e+00  1.1731440060049785e+00  1.1731439964054662e+00  1.1731439914217245e+00  1.1731439890896111e+00  1.1731439884360377e+00  1.2285082683252957e+00  1.1841040223695798e+00  1.1735208069935412e+00  1.1740464090304721e+00  1.1733347919767094e+00  1.1731859538959362e+00  1.1731583674848172e+00  1.1731475262618076e+00  1.1731448263264632e+00  1.1731441906504549e+00  1.1731440213873681e+00  1.1731439817055356e+00  1.1731439774100718e+00  1.1731439793126111e+00  1.1731439813789806e+00  1.1731439828065873e+00  1.1731439836685280e+00  1.1731439841609959e+00  1.1731439844443881e+00  1.1731439846186686e+00  1.1731439847203786e+00  1.2272114653861925e+00  1.1806504248667788e+00  1.1729541291013519e+00  1.1736841984429875e+00  1.1731879963303575e+00  1.1731302062484379e+00  1.1731415171271100e+00  1.1731393292394210e+00  1.1731411038272899e+00  1.1731423747619141e+00  1.1731430746186902e+00  1.1731434850253091e+00  1.1731437135644232e+00  1.1731438379868613e+00  1.1731439054336881e+00  1.1731439418976579e+00  1.1731439615340888e+00  1.1731439720322496e+00  1.1731439775254597e+00  1.1731439801715096e+00  1.1731439810050723e+00  1.2120292219664341e+00  1.1771862443856458e+00  1.1703458447009654e+00  1.1725326428307170e+00  1.1730425870510668e+00  1.1730739128008456e+00  1.1731148304968630e+00  1.1731314737900187e+00  1.1731378455825061e+00  1.1731408258017475e+00  1.1731423268335401e+00  1.1731431053784467e+00  1.1731435148151763e+00  1.1731437324118104e+00  1.1731438489674182e+00  1.1731439115565203e+00  1.1731439451323240e+00  1.1731439630423441e+00  1.1731439723851063e+00  1.1731439768501009e+00  1.1731439782127320e+00  1.2601749019977464e+00  1.1508558255348553e+00  1.1660474793061195e+00  1.1732233755672321e+00  1.1730226153848986e+00  1.1729801699664504e+00  1.1731103804085299e+00  1.1731299397529291e+00  1.1731360377261402e+00  1.1731402062206169e+00  1.1731420325821560e+00  1.1731429527611159e+00  1.1731434351201742e+00  1.1731436900805714e+00  1.1731438264000165e+00  1.1731438994337431e+00  1.1731439385751248e+00  1.1731439594476469e+00  1.1731439703262452e+00  1.1731439754988395e+00  1.1731439770340912e+00  1.1807895437960458e+00  1.1697718655706906e+00  1.1701827451942786e+00  1.1725214943824998e+00  1.1730840512252871e+00  1.1731383488630849e+00  1.1731513967278733e+00  1.1731522332156255e+00  1.1731494150996109e+00  1.1731471369663242e+00  1.1731457543150936e+00  1.1731449592688434e+00  1.1731445152692332e+00  1.1731442720748841e+00  1.1731441400385438e+00  1.1731440686543602e+00  1.1731440302131657e+00  1.1731440096730901e+00  1.1731439989699468e+00  1.1731439938999364e+00  1.1731439922767328e+00  1.1839527724447811e+00  1.1772493606009002e+00  1.1727199967036732e+00  1.1730851544538197e+00  1.1731304381346102e+00  1.1731473735427078e+00  1.1731562958121866e+00  1.1731525462566790e+00  1.1731488434291055e+00  1.1731467290187780e+00  1.1731455078341904e+00  1.1731448148622035e+00  1.1731444342871042e+00  1.1731442277318187e+00  1.1731441159377540e+00  1.1731440555884167e+00  1.1731440231229120e+00  1.1731440057887896e+00  1.1731439967616160e+00  1.1731439924817491e+00  1.1731439912660147e+00  1.1893956426883379e+00  1.1835975808073940e+00  1.1750105027778441e+00  1.1735659552628808e+00  1.1732665671768063e+00  1.1731975550277700e+00  1.1731642484723306e+00  1.1731517210861249e+00  1.1731475159236153e+00  1.1731457614404250e+00  1.1731448947743957e+00  1.1731444594706972e+00  1.1731442368918521e+00  1.1731441197120862e+00  1.1731440572080336e+00  1.1731440237618740e+00  1.1731440058561611e+00  1.1731439963229982e+00  1.1731439913760238e+00  1.1731439890700583e+00  1.1731439884012069e+00  1.1930566563033105e+00  1.1857170541371957e+00  1.1751428056856761e+00  1.1738588905630294e+00  1.1733152740085202e+00  1.1731944952104809e+00  1.1731580445753609e+00  1.1731472154310389e+00  1.1731448832887796e+00  1.1731442090651369e+00  1.1731440170523644e+00  1.1731439797869001e+00  1.1731439767009855e+00  1.1731439787711702e+00  1.1731439810319959e+00  1.1731439826124406e+00  1.1731439835606541e+00  1.1731439841004958e+00  1.1731439844089391e+00  1.1731439846017961e+00  1.1731439846906981e+00  1.1915398344410568e+00  1.1827812022651774e+00  1.1745923188662979e+00  1.1734955881323690e+00  1.1731368529464881e+00  1.1731404887526238e+00  1.1731409097120464e+00  1.1731389375146377e+00  1.1731412097013043e+00  1.1731423637675933e+00  1.1731430675833887e+00  1.1731434841673878e+00  1.1731437129686164e+00  1.1731438374913186e+00  1.1731439051557784e+00  1.1731439417499610e+00  1.1731439614511978e+00  1.1731439719851673e+00  1.1731439774964947e+00  1.1731439801564214e+00  1.1731439809738973e+00  1.1794231767347085e+00  1.1812563016514082e+00  1.1711289734892469e+00  1.1724660403656875e+00  1.1730058565248993e+00  1.1730689917570276e+00  1.1731174847457337e+00  1.1731312981400717e+00  1.1731377797891180e+00  1.1731408355985897e+00  1.1731423263982421e+00  1.1731431067089473e+00  1.1731435153504826e+00  1.1731437325643599e+00  1.1731438490887676e+00  1.1731439116246931e+00  1.1731439451653372e+00  1.1731439630591816e+00  1.1731439723912453e+00  1.1731439768536132e+00  1.1731439781953255e+00  1.2150002495128149e+00  1.1489167498813218e+00  1.1689183012556403e+00  1.1730542151539671e+00  1.1727539225044110e+00  1.1730195668138370e+00  1.1731194070517224e+00  1.1731264775458288e+00  1.1731363199286351e+00  1.1731402618631182e+00  1.1731420232968941e+00  1.1731429569379894e+00  1.1731434361178263e+00  1.1731436907537325e+00  1.1731438268184733e+00  1.1731438996419565e+00  1.1731439386877929e+00  1.1731439595106981e+00  1.1731439703607873e+00  1.1731439755346598e+00  1.1731439770292449e+00  1.2591218452095343e+00  1.1577534786439467e+00  1.1696806096600143e+00  1.1729918042807839e+00  1.1730643079169614e+00  1.1731268676878501e+00  1.1731534320553241e+00  1.1731526887882195e+00  1.1731493117361842e+00  1.1731471050404296e+00  1.1731457449071352e+00  1.1731449516826726e+00  1.1731445105719127e+00  1.1731442695546783e+00  1.1731441386767549e+00  1.1731440679126144e+00  1.1731440298115601e+00  1.1731440094587897e+00  1.1731439988608667e+00  1.1731439938010078e+00  1.1731439922431439e+00  1.2630039427687274e+00  1.1622005768986954e+00  1.1738010672982016e+00  1.1733245657562819e+00  1.1730174478370168e+00  1.1731484097752876e+00  1.1731592602135714e+00  1.1731518190580843e+00  1.1731486467739036e+00  1.1731467300784528e+00  1.1731455025080417e+00  1.1731448094616659e+00  1.1731444321541027e+00  1.1731442267771286e+00  1.1731441154132840e+00  1.1731440553033343e+00  1.1731440229689301e+00  1.1731440057029594e+00  1.1731439967095840e+00  1.1731439924199922e+00  1.1731439912446682e+00  1.2491714796453195e+00  1.1796979296596339e+00  1.1739930167636099e+00  1.1736507119573309e+00  1.1732409459106816e+00  1.1732125269159692e+00  1.1731627864415881e+00  1.1731508182892392e+00  1.1731475853870361e+00  1.1731457802387120e+00  1.1731448810101406e+00  1.1731444540674718e+00  1.1731442350280947e+00  1.1731441185526736e+00  1.1731440565267568e+00  1.1731440233957535e+00  1.1731440056573657e+00  1.1731439962134174e+00  1.1731439913168384e+00  1.1731439890025912e+00  1.1731439884046155e+00  1.2478405255964069e+00  1.1839917040018915e+00  1.1724006377882703e+00  1.1743699608074558e+00  1.1732677475746438e+00  1.1732024770360079e+00  1.1731535401541973e+00  1.1731473433404991e+00  1.1731450955858547e+00  1.1731442005785975e+00  1.1731440153036916e+00  1.1731439858169788e+00  1.1731439796692875e+00  1.1731439800492636e+00  1.1731439817354836e+00  1.1731439830005674e+00  1.1731439837666069e+00  1.1731439842114053e+00  1.1731439844720397e+00  1.1731439846127798e+00  1.1731439847552791e+00  1.2492172382287481e+00  1.1808503762099052e+00  1.1716046175298154e+00  1.1742188514723457e+00  1.1730039299358039e+00  1.1731718337922685e+00  1.1731376938886333e+00  1.1731396986541438e+00  1.1731414714637487e+00  1.1731423522717708e+00  1.1731430910559162e+00  1.1731434968395660e+00  1.1731437176558313e+00  1.1731438398478353e+00  1.1731439064627744e+00  1.1731439424398731e+00  1.1731439618157031e+00  1.1731439721834518e+00  1.1731439776092585e+00  1.1731439802120425e+00  1.1731439810640227e+00  1.2631508788365433e+00  1.1709356768589188e+00  1.1691009714578229e+00  1.1734521825526376e+00  1.1728128789114551e+00  1.1731108754458024e+00  1.1731160988093623e+00  1.1731308192924677e+00  1.1731381659727038e+00  1.1731408369600285e+00  1.1731423572399111e+00  1.1731431203283527e+00  1.1731435205938063e+00  1.1731437356530359e+00  1.1731438507772380e+00  1.1731439125028571e+00  1.1731439456373347e+00  1.1731439633202418e+00  1.1731439725440957e+00  1.1731439769448986e+00  1.1731439782979234e+00  1.2862597491965668e+00  1.1447039910791381e+00  1.1683893695094585e+00  1.1733200249154800e+00  1.1726409691867503e+00  1.1730825451220723e+00  1.1731056183201223e+00  1.1731263076057550e+00  1.1731369024612399e+00  1.1731401157441996e+00  1.1731420267583612e+00  1.1731429525284196e+00  1.1731434327788322e+00  1.1731436895588006e+00  1.1731438260927078e+00  1.1731438992330128e+00  1.1731439384726674e+00  1.1731439593933886e+00  1.1731439702944093e+00  1.1731439754849511e+00  1.1731439770350363e+00  </DataArray> 
</PointData> 
</Piece>
</UnstructuredGrid>
</VTKFile>