<?xml version="1.0"?>
<VTKFile type="UnstructuredGrid"  version="0.1"  >
<UnstructuredGrid>
<Piece  NumberOfPoints="588" NumberOfCells="2160">
<Points>
<DataArray  type="Float64"  NumberOfComponents="3"  format="ascii">0 0 0  0.5 0 0  1 0 0  1.5 0 0  2 0 0  2.5 0 0  3 0 0  3.5 0 0  4 0 0  4.5 0 0  5 0 0  5.5 0 0  6 0 0  6.5 0 0  7 0 0  7.5 0 0  8 0 0  8.5 0 0  9 0 0  9.5 0 0  10 0 0  0 0.5 0  0.5 0.5 0  1 0.5 0  1.5 0.5 0  2 0.5 0  2.5 0.5 0  3 0.5 0  3.5 0.5 0  4 0.5 0  4.5 0.5 0  5 0.5 0  5.5 0.5 0  6 0.5 0  6.5 0.5 0  7 0.5 0  7.5 0.5 0  8 0.5 0  8.5 0.5 0  9 0.5 0  9.5 0.5 0  10 0.5 0  0 1 0  0.5 1 0  1 1 0  1.5 1 0  2 1 0  2.5 1 0  3 1 0  3.5 1 0  4 1 0  4.5 1 0  5 1 0  5.5 1 0  6 1 0  6.5 1 0  7 1 0  7.5 1 0  8 1 0  8.5 1 0  9 1 0  9.5 1 0  10 1 0  0 1.5 0  0.5 1.5 0  1 1.5 0  1.5 1.5 0  2 1.5 0  2.5 1.5 0  3 1.5 0  3.5 1.5 0  4 1.5 0  4.5 1.5 0  5 1.5 0  5.5 1.5 0  6 1.5 0  6.5 1.5 0  7 1.5 0  7.5 1.5 0  8 1.5 0  8.5 1.5 0  9 1.5 0  9.5 1.5 0  10 1.5 0  0 2 0  0.5 2 0  1 2 0  1.5 2 0  2 2 0  2.5 2 0  3 2 0  3.5 2 0  4 2 0  4.5 2 0  5 2 0  5.5 2 0  6 2 0  6.5 2 0  7 2 0  7.5 2 0  8 2 0  8.5 2 0  9 2 0  9.5 2 0  10 2 0  0 2.5 0  0.5 2.5 0  1 2.5 0  1.5 2.5 0  2 2.5 0  2.5 2.5 0  3 2.5 0  3.5 2.5 0  4 2.5 0  4.5 2.5 0  5 2.5 0  5.5 2.5 0  6 2.5 0  6.5 2.5 0  7 2.5 0  7.5 2.5 0  8 2.5 0  8.5 2.5 0  9 2.5 0  9.5 2.5 0  10 2.5 0  0 3 0  0.5 3 0  1 3 0  1.5 3 0  2 3 0  2.5 3 0  3 3 0  3.5 3 0  4 3 0  4.5 3 0  5 3 0  5.5 3 0  6 3 0  6.5 3 0  7 3 0  7.5 3 0  8 3 0  8.5 3 0  9 3 0  9.5 3 0  10 3 0  0 0 0.1666666666666667  0.5 0 0.1666666666666667  1 0 0.1666666666666667  1.5 0 0.1666666666666667  2 0 0.1666666666666667  2.5 0 0.1666666666666667  3 0 0.1666666666666667  3.5 0 0.1666666666666667  4 0 0.1666666666666667  4.5 0 0.1666666666666667  5 0 0.1666666666666667  5.5 0 0.1666666666666667  6 0 0.1666666666666667  6.5 0 0.1666666666666667  7 0 0.1666666666666667  7.5 0 0.1666666666666667  8 0 0.1666666666666667  8.5 0 0.1666666666666667  9 0 0.1666666666666667  9.5 0 0.1666666666666667  10 0 0.1666666666666667  0 0.5 0.1666666666666667  0.5 0.5 0.1666666666666667  1 0.5 0.1666666666666667  1.5 0.5 0.1666666666666667  2 0.5 0.1666666666666667  2.5 0.5 0.1666666666666667  3 0.5 0.1666666666666667  3.5 0.5 0.1666666666666667  4 0.5 0.1666666666666667  4.5 0.5 0.1666666666666667  5 0.5 0.1666666666666667  5.5 0.5 0.1666666666666667  6 0.5 0.1666666666666667  6.5 0.5 0.1666666666666667  7 0.5 0.1666666666666667  7.5 0.5 0.1666666666666667  8 0.5 0.1666666666666667  8.5 0.5 0.1666666666666667  9 0.5 0.1666666666666667  9.5 0.5 0.1666666666666667  10 0.5 0.1666666666666667  0 1 0.1666666666666667  0.5 1 0.1666666666666667  1 1 0.1666666666666667  1.5 1 0.1666666666666667  2 1 0.1666666666666667  2.5 1 0.1666666666666667  3 1 0.1666666666666667  3.5 1 0.1666666666666667  4 1 0.1666666666666667  4.5 1 0.1666666666666667  5 1 0.1666666666666667  5.5 1 0.1666666666666667  6 1 0.1666666666666667  6.5 1 0.1666666666666667  7 1 0.1666666666666667  7.5 1 0.1666666666666667  8 1 0.1666666666666667  8.5 1 0.1666666666666667  9 1 0.1666666666666667  9.5 1 0.1666666666666667  10 1 0.1666666666666667  0 1.5 0.1666666666666667  0.5 1.5 0.1666666666666667  1 1.5 0.1666666666666667  1.5 1.5 0.1666666666666667  2 1.5 0.1666666666666667  2.5 1.5 0.1666666666666667  3 1.5 0.1666666666666667  3.5 1.5 0.1666666666666667  4 1.5 0.1666666666666667  4.5 1.5 0.1666666666666667  5 1.5 0.1666666666666667  5.5 1.5 0.1666666666666667  6 1.5 0.1666666666666667  6.5 1.5 0.1666666666666667  7 1.5 0.1666666666666667  7.5 1.5 0.1666666666666667  8 1.5 0.1666666666666667  8.5 1.5 0.1666666666666667  9 1.5 0.1666666666666667  9.5 1.5 0.1666666666666667  10 1.5 0.1666666666666667  0 2 0.1666666666666667  0.5 2 0.1666666666666667  1 2 0.1666666666666667  1.5 2 0.1666666666666667  2 2 0.1666666666666667  2.5 2 0.1666666666666667  3 2 0.1666666666666667  3.5 2 0.1666666666666667  4 2 0.1666666666666667  4.5 2 0.1666666666666667  5 2 0.1666666666666667  5.5 2 0.1666666666666667  6 2 0.1666666666666667  6.5 2 0.1666666666666667  7 2 0.1666666666666667  7.5 2 0.1666666666666667  8 2 0.1666666666666667  8.5 2 0.1666666666666667  9 2 0.1666666666666667  9.5 2 0.1666666666666667  10 2 0.1666666666666667  0 2.5 0.1666666666666667  0.5 2.5 0.1666666666666667  1 2.5 0.1666666666666667  1.5 2.5 0.1666666666666667  2 2.5 0.1666666666666667  2.5 2.5 0.1666666666666667  3 2.5 0.1666666666666667  3.5 2.5 0.1666666666666667  4 2.5 0.1666666666666667  4.5 2.5 0.1666666666666667  5 2.5 0.1666666666666667  5.5 2.5 0.1666666666666667  6 2.5 0.1666666666666667  6.5 2.5 0.1666666666666667  7 2.5 0.1666666666666667  7.5 2.5 0.1666666666666667  8 2.5 0.1666666666666667  8.5 2.5 0.1666666666666667  9 2.5 0.1666666666666667  9.5 2.5 0.1666666666666667  10 2.5 0.1666666666666667  0 3 0.1666666666666667  0.5 3 0.1666666666666667  1 3 0.1666666666666667  1.5 3 0.1666666666666667  2 3 0.1666666666666667  2.5 3 0.1666666666666667  3 3 0.1666666666666667  3.5 3 0.1666666666666667  4 3 0.1666666666666667  4.5 3 0.1666666666666667  5 3 0.1666666666666667  5.5 3 0.1666666666666667  6 3 0.1666666666666667  6.5 3 0.1666666666666667  7 3 0.1666666666666667  7.5 3 0.1666666666666667  8 3 0.1666666666666667  8.5 3 0.1666666666666667  9 3 0.1666666666666667  9.5 3 0.1666666666666667  10 3 0.1666666666666667  0 0 0.3333333333333333  0.5 0 0.3333333333333333  1 0 0.3333333333333333  1.5 0 0.3333333333333333  2 0 0.3333333333333333  2.5 0 0.3333333333333333  3 0 0.3333333333333333  3.5 0 0.3333333333333333  4 0 0.3333333333333333  4.5 0 0.3333333333333333  5 0 0.3333333333333333  5.5 0 0.3333333333333333  6 0 0.3333333333333333  6.5 0 0.3333333333333333  7 0 0.3333333333333333  7.5 0 0.3333333333333333  8 0 0.3333333333333333  8.5 0 0.3333333333333333  9 0 0.3333333333333333  9.5 0 0.3333333333333333  10 0 0.3333333333333333  0 0.5 0.3333333333333333  0.5 0.5 0.3333333333333333  1 0.5 0.3333333333333333  1.5 0.5 0.3333333333333333  2 0.5 0.3333333333333333  2.5 0.5 0.3333333333333333  3 0.5 0.3333333333333333  3.5 0.5 0.3333333333333333  4 0.5 0.3333333333333333  4.5 0.5 0.3333333333333333  5 0.5 0.3333333333333333  5.5 0.5 0.3333333333333333  6 0.5 0.3333333333333333  6.5 0.5 0.3333333333333333  7 0.5 0.3333333333333333  7.5 0.5 0.3333333333333333  8 0.5 0.3333333333333333  8.5 0.5 0.3333333333333333  9 0.5 0.3333333333333333  9.5 0.5 0.3333333333333333  10 0.5 0.3333333333333333  0 1 0.3333333333333333  0.5 1 0.3333333333333333  1 1 0.3333333333333333  1.5 1 0.3333333333333333  2 1 0.3333333333333333  2.5 1 0.3333333333333333  3 1 0.3333333333333333  3.5 1 0.3333333333333333  4 1 0.3333333333333333  4.5 1 0.3333333333333333  5 1 0.3333333333333333  5.5 1 0.3333333333333333  6 1 0.3333333333333333  6.5 1 0.3333333333333333  7 1 0.3333333333333333  7.5 1 0.3333333333333333  8 1 0.3333333333333333  8.5 1 0.3333333333333333  9 1 0.3333333333333333  9.5 1 0.3333333333333333  10 1 0.3333333333333333  0 1.5 0.3333333333333333  0.5 1.5 0.3333333333333333  1 1.5 0.3333333333333333  1.5 1.5 0.3333333333333333  2 1.5 0.3333333333333333  2.5 1.5 0.3333333333333333  3 1.5 0.3333333333333333  3.5 1.5 0.3333333333333333  4 1.5 0.3333333333333333  4.5 1.5 0.3333333333333333  5 1.5 0.3333333333333333  5.5 1.5 0.3333333333333333  6 1.5 0.3333333333333333  6.5 1.5 0.3333333333333333  7 1.5 0.3333333333333333  7.5 1.5 0.3333333333333333  8 1.5 0.3333333333333333  8.5 1.5 0.3333333333333333  9 1.5 0.3333333333333333  9.5 1.5 0.3333333333333333  10 1.5 0.3333333333333333  0 2 0.3333333333333333  0.5 2 0.3333333333333333  1 2 0.3333333333333333  1.5 2 0.3333333333333333  2 2 0.3333333333333333  2.5 2 0.3333333333333333  3 2 0.3333333333333333  3.5 2 0.3333333333333333  4 2 0.3333333333333333  4.5 2 0.3333333333333333  5 2 0.3333333333333333  5.5 2 0.3333333333333333  6 2 0.3333333333333333  6.5 2 0.3333333333333333  7 2 0.3333333333333333  7.5 2 0.3333333333333333  8 2 0.3333333333333333  8.5 2 0.3333333333333333  9 2 0.3333333333333333  9.5 2 0.3333333333333333  10 2 0.3333333333333333  0 2.5 0.3333333333333333  0.5 2.5 0.3333333333333333  1 2.5 0.3333333333333333  1.5 2.5 0.3333333333333333  2 2.5 0.3333333333333333  2.5 2.5 0.3333333333333333  3 2.5 0.3333333333333333  3.5 2.5 0.3333333333333333  4 2.5 0.3333333333333333  4.5 2.5 0.3333333333333333  5 2.5 0.3333333333333333  5.5 2.5 0.3333333333333333  6 2.5 0.3333333333333333  6.5 2.5 0.3333333333333333  7 2.5 0.3333333333333333  7.5 2.5 0.3333333333333333  8 2.5 0.3333333333333333  8.5 2.5 0.3333333333333333  9 2.5 0.3333333333333333  9.5 2.5 0.3333333333333333  10 2.5 0.3333333333333333  0 3 0.3333333333333333  0.5 3 0.3333333333333333  1 3 0.3333333333333333  1.5 3 0.3333333333333333  2 3 0.3333333333333333  2.5 3 0.3333333333333333  3 3 0.3333333333333333  3.5 3 0.3333333333333333  4 3 0.3333333333333333  4.5 3 0.3333333333333333  5 3 0.3333333333333333  5.5 3 0.3333333333333333  6 3 0.3333333333333333  6.5 3 0.3333333333333333  7 3 0.3333333333333333  7.5 3 0.3333333333333333  8 3 0.3333333333333333  8.5 3 0.3333333333333333  9 3 0.3333333333333333  9.5 3 0.3333333333333333  10 3 0.3333333333333333  0 0 0.5  0.5 0 0.5  1 0 0.5  1.5 0 0.5  2 0 0.5  2.5 0 0.5  3 0 0.5  3.5 0 0.5  4 0 0.5  4.5 0 0.5  5 0 0.5  5.5 0 0.5  6 0 0.5  6.5 0 0.5  7 0 0.5  7.5 0 0.5  8 0 0.5  8.5 0 0.5  9 0 0.5  9.5 0 0.5  10 0 0.5  0 0.5 0.5  0.5 0.5 0.5  1 0.5 0.5  1.5 0.5 0.5  2 0.5 0.5  2.5 0.5 0.5  3 0.5 0.5  3.5 0.5 0.5  4 0.5 0.5  4.5 0.5 0.5  5 0.5 0.5  5.5 0.5 0.5  6 0.5 0.5  6.5 0.5 0.5  7 0.5 0.5  7.5 0.5 0.5  8 0.5 0.5  8.5 0.5 0.5  9 0.5 0.5  9.5 0.5 0.5  10 0.5 0.5  0 1 0.5  0.5 1 0.5  1 1 0.5  1.5 1 0.5  2 1 0.5  2.5 1 0.5  3 1 0.5  3.5 1 0.5  4 1 0.5  4.5 1 0.5  5 1 0.5  5.5 1 0.5  6 1 0.5  6.5 1 0.5  7 1 0.5  7.5 1 0.5  8 1 0.5  8.5 1 0.5  9 1 0.5  9.5 1 0.5  10 1 0.5  0 1.5 0.5  0.5 1.5 0.5  1 1.5 0.5  1.5 1.5 0.5  2 1.5 0.5  2.5 1.5 0.5  3 1.5 0.5  3.5 1.5 0.5  4 1.5 0.5  4.5 1.5 0.5  5 1.5 0.5  5.5 1.5 0.5  6 1.5 0.5  6.5 1.5 0.5  7 1.5 0.5  7.5 1.5 0.5  8 1.5 0.5  8.
[...]
<PointData  Scalars="f_7-2"> 
<DataArray  type="Float64"  Name="f_7-2"  format="ascii">1.1375403711019687e+00  1.1114946187877603e+00  1.1117377021035451e+00  1.1149268171551932e+00  1.1157244326969626e+00  1.1158787182678023e+00  1.1159148239450474e+00  1.1159237944449936e+00  1.1159248238536195e+00  1.1159241231837065e+00  1.1159234119985295e+00  1.1159229325933038e+00  1.1159226398955049e+00  1.1159224689534231e+00  1.1159223714125328e+00  1.1159223163788274e+00  1.1159222855543651e+00  1.1159222684765056e+00  1.1159222592783093e+00  1.1159222548003744e+00  1.1159222534593209e+00  1.1267555215505660e+00  1.1229687520014375e+00  1.1141766641406960e+00  1.1158649511767760e+00  1.1159016254372753e+00  1.1159067998146412e+00  1.1159229022125519e+00  1.1159259272553008e+00  1.1159249972452521e+00  1.1159239409887873e+00  1.1159232471898359e+00  1.1159228223277720e+00  1.1159225722281805e+00  1.1159224293379200e+00  1.1159223487429579e+00  1.1159223035173405e+00  1.1159222782629070e+00  1.1159222642992845e+00  1.1159222567870739e+00  1.1159222531576485e+00  1.1159222520736223e+00  1.1307453329395427e+00  1.1287914227930811e+00  1.1171636473173927e+00  1.1166415149714783e+00  1.1161079199880404e+00  1.1159623468204185e+00  1.1159399620474104e+00  1.1159293264911465e+00  1.1159250730139643e+00  1.1159235549478321e+00  1.1159229147621172e+00  1.1159225989803334e+00  1.1159224362390228e+00  1.1159223502268254e+00  1.1159223035688681e+00  1.1159222779135227e+00  1.1159222637585975e+00  1.1159222559913935e+00  1.1159222518343388e+00  1.1159222498750740e+00  1.1159222492653613e+00  1.1332794931415611e+00  1.1304063108710645e+00  1.1183386083262417e+00  1.1167222731537576e+00  1.1161884424879265e+00  1.1159822495906995e+00  1.1159433660502223e+00  1.1159281245605848e+00  1.1159237460789195e+00  1.1159226801640776e+00  1.1159223688622142e+00  1.1159222753234326e+00  1.1159222508405202e+00  1.1159222453117887e+00  1.1159222444457420e+00  1.1159222446461021e+00  1.1159222449885995e+00  1.1159222452601707e+00  1.1159222454402273e+00  1.1159222456090987e+00  1.1159222456110089e+00  1.1321574433516268e+00  1.1277476920573315e+00  1.1175466218499381e+00  1.1162779833106364e+00  1.1160178910861998e+00  1.1159298217875788e+00  1.1159252138320228e+00  1.1159209328222455e+00  1.1159207898233030e+00  1.1159213362332199e+00  1.1159216839103792e+00  1.1159219135700891e+00  1.1159220553995246e+00  1.1159221378646087e+00  1.1159221848142398e+00  1.1159222113776106e+00  1.1159222263069155e+00  1.1159222346069628e+00  1.1159222390948542e+00  1.1159222413543348e+00  1.1159222419694752e+00  1.1278161883237880e+00  1.1239342447656773e+00  1.1150153597092585e+00  1.1151056116063920e+00  1.1157312791420082e+00  1.1158620645134498e+00  1.1158988963597301e+00  1.1159121881946905e+00  1.1159177135133513e+00  1.1159200552363524e+00  1.1159210850829400e+00  1.1159216158765630e+00  1.1159219002998857e+00  1.1159220540869197e+00  1.1159221387757829e+00  1.1159221858515145e+00  1.1159222120171031e+00  1.1159222264624882e+00  1.1159222342346007e+00  1.1159222380897404e+00  1.1159222391778236e+00  1.1441833296957353e+00  1.1119483842496742e+00  1.1083212911107032e+00  1.1143223052245941e+00  1.1157103219806748e+00  1.1158149979967120e+00  1.1158820937265550e+00  1.1159083309596767e+00  1.1159163064193374e+00  1.1159194148902529e+00  1.1159207804774647e+00  1.1159214708284886e+00  1.1159218247328970e+00  1.1159220128081278e+00  1.1159221161736206e+00  1.1159221733592266e+00  1.1159222050272100e+00  1.1159222224877423e+00  1.1159222318830029e+00  1.1159222364922834e+00  1.1159222377221325e+00  1.1618036431932730e+00  1.1043346392585929e+00  1.1123392443442597e+00  1.1150218819997471e+00  1.1157321766744712e+00  1.1158787582648750e+00  1.1159146208121398e+00  1.1159240095830971e+00  1.1159248813225087e+00  1.1159241174029380e+00  1.1159234069551813e+00  1.1159229301770870e+00  1.1159226382365484e+00  1.1159224679117246e+00  1.1159223708216224e+00  1.1159223160476477e+00  1.1159222853677753e+00  1.1159222683679175e+00  1.1159222592119260e+00  1.1159222547643615e+00  1.1159222533398878e+00  1.1643752110555616e+00  1.1120824996934244e+00  1.1170026552887140e+00  1.1158804392300947e+00  1.1158137384486513e+00  1.1158960287693596e+00  1.1159222410936320e+00  1.1159256382031650e+00  1.1159248005205387e+00  1.1159238969328593e+00  1.1159232480455354e+00  1.1159228265415564e+00  1.1159225754614206e+00  1.1159224316304903e+00  1.1159223501997395e+00  1.1159223043848998e+00  1.1159222787695524e+00  1.1159222645930205e+00  1.1159222569685738e+00  1.1159222532581508e+00  1.1159222521893657e+00  1.1645552374186741e+00  1.1221685843813607e+00  1.1183610859262552e+00  1.1165964991925221e+00  1.1160374347515816e+00  1.1159761730341720e+00  1.1159420245371507e+00  1.1159289516004740e+00  1.1159249609380559e+00  1.1159235552528601e+00  1.1159229141113185e+00  1.1159225967420756e+00  1.1159224358062623e+00  1.1159223504620375e+00  1.1159223038438897e+00  1.1159222781289451e+00  1.1159222639109725e+00  1.1159222560917741e+00  1.1159222519093903e+00  1.1159222499061596e+00  1.1159222493388981e+00  1.1672935458971647e+00  1.1239865347544797e+00  1.1184428518740626e+00  1.1169327064127557e+00  1.1161383946985923e+00  1.1159985040330660e+00  1.1159441550480123e+00  1.1159275710679644e+00  1.1159237610479524e+00  1.1159226904506911e+00  1.1159223567544472e+00  1.1159222683451582e+00  1.1159222483017175e+00  1.1159222442541434e+00  1.1159222439806913e+00  1.1159222444630854e+00  1.1159222449245449e+00  1.1159222452409361e+00  1.1159222454453828e+00  1.1159222455831515e+00  1.1159222456702957e+00  1.1661257271039964e+00  1.1212223656133917e+00  1.1178704730363063e+00  1.1164629658371676e+00  1.1159783764754232e+00  1.1159428316702300e+00  1.1159254081661556e+00  1.1159204111545422e+00  1.1159209101979271e+00  1.1159213255695739e+00  1.1159216626024218e+00  1.1159219048144062e+00  1.1159220514791335e+00  1.1159221357323028e+00  1.1159221837044795e+00  1.1159222108233720e+00  1.1159222260235726e+00  1.1159222344566475e+00  1.1159222390188226e+00  1.1159222412759073e+00  1.1159222419993720e+00  1.1542312770706036e+00  1.1189408414701116e+00  1.1144045096321029e+00  1.1152875809710381e+00  1.1157527983224829e+00  1.1158598440471390e+00  1.1158971818924632e+00  1.1159118906999355e+00  1.1159177841758789e+00  1.1159200017833477e+00  1.1159210567286231e+00  1.1159216076669234e+00  1.1159218958359824e+00  1.1159220513898982e+00  1.1159221373813784e+00  1.1159221851200745e+00  1.1159222116157301e+00  1.1159222262410298e+00  1.1159222341153028e+00  1.1159222379760738e+00  1.1159222391734023e+00  1.2140636087579850e+00  1.0930333498510292e+00  1.1103032935573527e+00  1.1154778881714427e+00  1.1156244565845623e+00  1.1157956884409568e+00  1.1158878269384656e+00  1.1159090276849286e+00  1.1159163759263668e+00  1.1159193982289615e+00  1.1159207959053732e+00  1.1159214798480073e+00  1.1159218261571575e+00  1.1159220136844781e+00  1.1159221167820299e+00  1.1159221736566380e+00  1.1159222051795779e+00  1.1159222225708336e+00  1.1159222319214657e+00  1.1159222364785875e+00  1.1159222378527025e+00  1.1379014211238703e+00  1.1112033124617968e+00  1.1113112513450147e+00  1.1150124720935082e+00  1.1157700034584308e+00  1.1158721394126030e+00  1.1159135205901638e+00  1.1159243333098203e+00  1.1159249023671109e+00  1.1159241035749010e+00  1.1159234093683008e+00  1.1159229327815805e+00  1.1159226393587305e+00  1.1159224685385563e+00  1.1159223712000919e+00  1.1159223162632887e+00  1.1159222854890696e+00  1.1159222684358407e+00  1.1159222592580806e+00  1.1159222548020455e+00  1.1159222533448243e+00  1.1343794877798019e+00  1.1192258446451142e+00  1.1160301031687598e+00  1.1158820369076363e+00  1.1158249344838249e+00  1.1158945527512860e+00  1.1159242734554995e+00  1.1159258804826084e+00  1.1159247209349590e+00  1.1159238920679140e+00  1.1159232481170513e+00  1.1159228233149288e+00  1.1159225734933194e+00  1.1159224307233135e+00  1.1159223497378412e+00  1.1159223041428956e+00  1.1159222786450400e+00  1.1159222645289322e+00  1.1159222569365315e+00  1.1159222532453015e+00  1.1159222521887113e+00  1.1367138303258773e+00  1.1261719832959001e+00  1.1184360657265335e+00  1.1163604055279557e+00  1.1160486828067806e+00  1.1159875426574477e+00  1.1159423660324157e+00  1.1159283551368795e+00  1.1159248854609263e+00  1.1159235539488568e+00  1.1159228977357201e+00  1.1159225866531985e+00  1.1159224316484497e+00  1.1159223485210323e+00  1.1159223028645511e+00  1.1159222776461211e+00  1.1159222636724335e+00  1.1159222559705679e+00  1.1159222518457101e+00  1.1159222498768073e+00  1.1159222492978531e+00  1.1393868799534583e+00  1.1281149505605395e+00  1.1186301355810875e+00  1.1167624424617426e+00  1.1161561636818897e+00  1.1160059342712656e+00  1.1159398550762476e+00  1.1159268559535902e+00  1.1159237746600046e+00  1.1159226388934573e+00  1.1159223217450371e+00  1.1159222564113422e+00  1.1159222436648835e+00  1.1159222420034203e+00  1.1159222429202649e+00  1.1159222439764096e+00  1.1159222446934667e+00  1.1159222451270978e+00  1.1159222453857331e+00  1.1159222455531659e+00  1.1159222456328108e+00  1.1383575688401282e+00  1.1255529913440609e+00  1.1180731620955044e+00  1.1163067253120720e+00  1.1159739910008877e+00  1.1159446785772809e+00  1.1159211218157634e+00  1.1159202963534365e+00  1.1159209310849665e+00  1.1159212352173222e+00  1.1159216335556390e+00  1.1159218973042273e+00  1.1159220478064582e+00  1.1159221338806682e+00  1.1159221828979706e+00  1.1159222104622721e+00  1.1159222258499668e+00  1.1159222343706028e+00  1.1159222389725294e+00  1.1159222412509735e+00  1.1159222419629671e+00  1.1281212694281446e+00  1.1246066969333306e+00  1.1140703360286839e+00  1.1152445951058274e+00  1.1157447900711004e+00  1.1158564923469756e+00  1.1158962076085224e+00  1.1159120338559820e+00  1.1159177760038117e+00  1.1159199401034328e+00  1.1159210506335575e+00  1.1159216082395311e+00  1.1159218946309057e+00  1.1159220509146373e+00  1.1159221373017325e+00  1.1159221850968397e+00  1.1159222116085319e+00  1.1159222262416300e+00  1.1159222341146495e+00  1.1159222379756335e+00  1.1159222391535455e+00  1.1725190550818683e+00  1.0941280153280684e+00  1.1118164933787971e+00  1.1151010006250086e+00  1.1155340039228872e+00  1.1158133324439963e+00  1.1158888653978929e+00  1.1159085692903008e+00  1.1159163820396139e+00  1.1159193753240899e+00  1.1159208162422738e+00  1.1159214816598466e+00  1.1159218261508721e+00  1.1159220145123909e+00  1.1159221171984317e+00  1.1159221738464162e+00  1.1159222052903495e+00  1.1159222226354728e+00  1.1159222319578084e+00  1.1159222365162909e+00  1.1159222378480542e+00  1.2112462353406768e+00  1.0977985044605025e+00  1.1116631411317779e+00  1.1156705788090975e+00  1.1156943915007163e+00  1.1158598482875541e+00  1.1159182365506597e+00  1.1159248399182806e+00  1.1159247377193879e+00  1.1159240922363001e+00  1.1159234115980030e+00  1.1159229285187040e+00  1.1159226362600829e+00  1.1159224669245713e+00  1.1159223702939900e+00  1.1159223157449765e+00  1.1159222851989126e+00  1.1159222682770600e+00  1.1159222591767775e+00  1.1159222547189749e+00  1.1159222533237272e+00  1.2111921884286270e+00  1.1011750739812209e+00  1.1196694145210540e+00  1.1157377918131042e+00  1.1156686824047255e+00  1.1159103163225872e+00  1.1159270064952660e+00  1.1159241798918593e+00  1.1159244535749353e+00  1.1159239010727080e+00  1.1159232322321690e+00  1.1159228129784020e+00  1.1159225701277302e+00  1.1159224293123837e+00  1.1159223489935750e+00  1.1159223037614427e+00  1.1159222784479617e+00  1.1159222644212450e+00  1.1159222568719374e+00  1.1159222531793065e+00  1.1159222521590377e+00  1.2023764431002602e+00  1.1164090569771867e+00  1.1201039600751805e+00  1.1156872846922590e+00  1.1161358668251891e+00  1.1160047716144939e+00  1.1159356598146863e+00  1.1159269998310639e+00  1.1159250260835238e+00  1.1159235228551390e+00  1.1159228543040236e+00  1.1159225736504199e+00  1.1159224271022075e+00  1.1159223460847245e+00  1.1159223016477668e+00  1.1159222770655772e+00  1.1159222633822716e+00  1.1159222558194799e+00  1.1159222517659504e+00  1.1159222498018335e+00  1.1159222492867171e+00  1.2035990907612688e+00  1.1191779537887911e+00  1.1188394411080875e+00  1.1166107758467467e+00  1.1162786604851693e+00  1.1159790668774530e+00  1.1159311236622653e+00  1.1159279109917339e+00  1.1159238078859512e+00  1.1159224898193225e+00  1.1159222872928078e+00  1.1159222520316601e+00  1.1159222411762928e+00  1.1159222408449883e+00  1.1159222426314361e+00  1.1159222439395606e+00  1.1159222447113255e+00  1.1159222451550146e+00  1.1159222454114868e+00  1.1159222455502023e+00  1.1159222456781595e+00  1.2027416305805623e+00  1.1169560736874236e+00  1.1180236791483673e+00  1.1163385970842961e+00  1.1159854788134331e+00  1.1159358672737967e+00  1.1159198845927587e+00  1.1159226536204270e+00  1.1159206605183416e+00  1.1159211462372101e+00  1.1159216504726395e+00  1.1159219009174701e+00  1.1159220473564511e+00  1.1159221342234837e+00  1.1159221833645845e+00  1.1159222107659315e+00  1.1159222260418484e+00  1.1159222344942168e+00  1.1159222390529580e+00  1.1159222412943535e+00  1.1159222420371038e+00  1.2069757844536022e+00  1.1103984527032349e+00  1.1145177544528919e+00  1.1155152399206538e+00  1.1157345049503165e+00  1.1158660314277045e+00  1.1158957970112864e+00  1.1159134377637623e+00  1.1159174969669650e+00  1.1159199540288716e+00  1.1159210948112033e+00  1.1159216125617566e+00  1.1159218966408313e+00  1.1159220530540448e+00  1.1159221384835067e+00  1.1159221857239729e+00  1.1159222119743675e+00  1.1159222264593371e+00  1.1159222342507056e+00  1.1159222380610907e+00  1.1159222392501327e+00  1.2394006258531820e+00  1.0882384161396124e+00  1.1122256006653666e+00  1.1151462888713879e+00  1.1155450018704534e+00  1.1158189383559916e+00  1.1158850917742262e+00  1.1159091521730484e+00  1.1159161362997760e+00  1.1159194019394456e+00  1.1159208221488790e+00  1.1159214691874442e+00  1.1159218239254922e+00  1.1159220135390198e+00  1.1159221163867370e+00  1.1159221733983522e+00  1.1159222050515656e+00  1.1159222224987502e+00  1.1159222318774769e+00  1.1159222364566628e+00  1.1159222378485594e+00  </DataArray> 
</PointData> 
</Piece>
</UnstructuredGrid>
</VTKFile>