<?xml version="1.0"?>
<VTKFile type="UnstructuredGrid"  version="0.1"  >
<UnstructuredGrid>
<Piece  NumberOfPoints="588" NumberOfCells="2160">
<Points>
<DataArray  type="Float64"  NumberOfComponents="3"  format="ascii">0 0 0  0.5 0 0  1 0 0  1.5 0 0  2 0 0  2.5 0 0  3 0 0  3.5 0 0  4 0 0  4.5 0 0  5 0 0  5.5 0 0  6 0 0  6.5 0 0  7 0 0  7.5 0 0  8 0 0  8.5 0 0  9 0 0  9.5 0 0  10 0 0  0 0.5 0  0.5 0.5 0  1 0.5 0  1.5 0.5 0  2 0.5 0  2.5 0.5 0  3 0.5 0  3.5 0.5 0  4 0.5 0  4.5 0.5 0  5 0.5 0  5.5 0.5 0  6 0.5 0  6.5 0.5 0  7 0.5 0  7.5 0.5 0  8 0.5 0  8.5 0.5 0  9 0.5 0  9.5 0.5 0  10 0.5 0  0 1 0  0.5 1 0  1 1 0  1.5 1 0  2 1 0  2.5 1 0  3 1 0  3.5 1 0  4 1 0  4.5 1 0  5 1 0  5.5 1 0  6 1 0  6.5 1 0  7 1 0  7.5 1 0  8 1 0  8.5 1 0  9 1 0  9.5 1 0  10 1 0  0 1.5 0  0.5 1.5 0  1 1.5 0  1.5 1.5 0  2 1.5 0  2.5 1.5 0  3 1.5 0  3.5 1.5 0  4 1.5 0  4.5 1.5 0  5 1.5 0  5.5 1.5 0  6 1.5 0  6.5 1.5 0  7 1.5 0  7.5 1.5 0  8 1.5 0  8.5 1.5 0  9 1.5 0  9.5 1.5 0  10 1.5 0  0 2 0  0.5 2 0  1 2 0  1.5 2 0  2 2 0  2.5 2 0  3 2 0  3.5 2 0  4 2 0  4.5 2 0  5 2 0  5.5 2 0  6 2 0  6.5 2 0  7 2 0  7.5 2 0  8 2 0  8.5 2 0  9 2 0  9.5 2 0  10 2 0  0 2.5 0  0.5 2.5 0  1 2.5 0  1.5 2.5 0  2 2.5 0  2.5 2.5 0  3 2.5 0  3.5 2.5 0  4 2.5 0  4.5 2.5 0  5 2.5 0  5.5 2.5 0  6 2.5 0  6.5 2.5 0  7 2.5 0  7.5 2.5 0  8 2.5 0  8.5 2.5 0  9 2.5 0  9.5 2.5 0  10 2.5 0  0 3 0  0.5 3 0  1 3 0  1.5 3 0  2 3 0  2.5 3 0  3 3 0  3.5 3 0  4 3 0  4.5 3 0  5 3 0  5.5 3 0  6 3 0  6.5 3 0  7 3 0  7.5 3 0  8 3 0  8.5 3 0  9 3 0  9.5 3 0  10 3 0  0 0 0.1666666666666667  0.5 0 0.1666666666666667  1 0 0.1666666666666667  1.5 0 0.1666666666666667  2 0 0.1666666666666667  2.5 0 0.1666666666666667  3 0 0.1666666666666667  3.5 0 0.1666666666666667  4 0 0.1666666666666667  4.5 0 0.1666666666666667  5 0 0.1666666666666667  5.5 0 0.1666666666666667  6 0 0.1666666666666667  6.5 0 0.1666666666666667  7 0 0.1666666666666667  7.5 0 0.1666666666666667  8 0 0.1666666666666667  8.5 0 0.1666666666666667  9 0 0.1666666666666667  9.5 0 0.1666666666666667  10 0 0.1666666666666667  0 0.5 0.1666666666666667  0.5 0.5 0.1666666666666667  1 0.5 0.1666666666666667  1.5 0.5 0.1666666666666667  2 0.5 0.1666666666666667  2.5 0.5 0.1666666666666667  3 0.5 0.1666666666666667  3.5 0.5 0.1666666666666667  4 0.5 0.1666666666666667  4.5 0.5 0.1666666666666667  5 0.5 0.1666666666666667  5.5 0.5 0.1666666666666667  6 0.5 0.1666666666666667  6.5 0.5 0.1666666666666667  7 0.5 0.1666666666666667  7.5 0.5 0.1666666666666667  8 0.5 0.1666666666666667  8.5 0.5 0.1666666666666667  9 0.5 0.1666666666666667  9.5 0.5 0.1666666666666667  10 0.5 0.1666666666666667  0 1 0.1666666666666667  0.5 1 0.1666666666666667  1 1 0.1666666666666667  1.5 1 0.1666666666666667  2 1 0.1666666666666667  2.5 1 0.1666666666666667  3 1 0.1666666666666667  3.5 1 0.1666666666666667  4 1 0.1666666666666667  4.5 1 0.1666666666666667  5 1 0.1666666666666667  5.5 1 0.1666666666666667  6 1 0.1666666666666667  6.5 1 0.1666666666666667  7 1 0.1666666666666667  7.5 1 0.1666666666666667  8 1 0.1666666666666667  8.5 1 0.1666666666666667  9 1 0.1666666666666667  9.5 1 0.1666666666666667  10 1 0.1666666666666667  0 1.5 0.1666666666666667  0.5 1.5 0.1666666666666667  1 1.5 0.1666666666666667  1.5 1.5 0.1666666666666667  2 1.5 0.1666666666666667  2.5 1.5 0.1666666666666667  3 1.5 0.1666666666666667  3.5 1.5 0.1666666666666667  4 1.5 0.1666666666666667  4.5 1.5 0.1666666666666667  5 1.5 0.1666666666666667  5.5 1.5 0.1666666666666667  6 1.5 0.1666666666666667  6.5 1.5 0.1666666666666667  7 1.5 0.1666666666666667  7.5 1.5 0.1666666666666667  8 1.5 0.1666666666666667  8.5 1.5 0.1666666666666667  9 1.5 0.1666666666666667  9.5 1.5 0.1666666666666667  10 1.5 0.1666666666666667  0 2 0.1666666666666667  0.5 2 0.1666666666666667  1 2 0.1666666666666667  1.5 2 0.1666666666666667  2 2 0.1666666666666667  2.5 2 0.1666666666666667  3 2 0.1666666666666667  3.5 2 0.1666666666666667  4 2 0.1666666666666667  4.5 2 0.1666666666666667  5 2 0.1666666666666667  5.5 2 0.1666666666666667  6 2 0.1666666666666667  6.5 2 0.1666666666666667  7 2 0.1666666666666667  7.5 2 0.1666666666666667  8 2 0.1666666666666667  8.5 2 0.1666666666666667  9 2 0.1666666666666667  9.5 2 0.1666666666666667  10 2 0.1666666666666667  0 2.5 0.1666666666666667  0.5 2.5 0.1666666666666667  1 2.5 0.1666666666666667  1.5 2.5 0.1666666666666667  2 2.5 0.1666666666666667  2.5 2.5 0.1666666666666667  3 2.5 0.1666666666666667  3.5 2.5 0.1666666666666667  4 2.5 0.1666666666666667  4.5 2.5 0.1666666666666667  5 2.5 0.1666666666666667  5.5 2.5 0.1666666666666667  6 2.5 0.1666666666666667  6.5 2.5 0.1666666666666667  7 2.5 0.1666666666666667  7.5 2.5 0.1666666666666667  8 2.5 0.1666666666666667  8.5 2.5 0.1666666666666667  9 2.5 0.1666666666666667  9.5 2.5 0.1666666666666667  10 2.5 0.1666666666666667  0 3 0.1666666666666667  0.5 3 0.1666666666666667  1 3 0.1666666666666667  1.5 3 0.1666666666666667  2 3 0.1666666666666667  2.5 3 0.1666666666666667  3 3 0.1666666666666667  3.5 3 0.1666666666666667  4 3 0.1666666666666667  4.5 3 0.1666666666666667  5 3 0.1666666666666667  5.5 3 0.1666666666666667  6 3 0.1666666666666667  6.5 3 0.1666666666666667  7 3 0.1666666666666667  7.5 3 0.1666666666666667  8 3 0.1666666666666667  8.5 3 0.1666666666666667  9 3 0.1666666666666667  9.5 3 0.1666666666666667  10 3 0.1666666666666667  0 0 0.3333333333333333  0.5 0 0.3333333333333333  1 0 0.3333333333333333  1.5 0 0.3333333333333333  2 0 0.3333333333333333  2.5 0 0.3333333333333333  3 0 0.3333333333333333  3.5 0 0.3333333333333333  4 0 0.3333333333333333  4.5 0 0.3333333333333333  5 0 0.3333333333333333  5.5 0 0.3333333333333333  6 0 0.3333333333333333  6.5 0 0.3333333333333333  7 0 0.3333333333333333  7.5 0 0.3333333333333333  8 0 0.3333333333333333  8.5 0 0.3333333333333333  9 0 0.3333333333333333  9.5 0 0.3333333333333333  10 0 0.3333333333333333  0 0.5 0.3333333333333333  0.5 0.5 0.3333333333333333  1 0.5 0.3333333333333333  1.5 0.5 0.3333333333333333  2 0.5 0.3333333333333333  2.5 0.5 0.3333333333333333  3 0.5 0.3333333333333333  3.5 0.5 0.3333333333333333  4 0.5 0.3333333333333333  4.5 0.5 0.3333333333333333  5 0.5 0.3333333333333333  5.5 0.5 0.3333333333333333  6 0.5 0.3333333333333333  6.5 0.5 0.3333333333333333  7 0.5 0.3333333333333333  7.5 0.5 0.3333333333333333  8 0.5 0.3333333333333333  8.5 0.5 0.3333333333333333  9 0.5 0.3333333333333333  9.5 0.5 0.3333333333333333  10 0.5 0.3333333333333333  0 1 0.3333333333333333  0.5 1 0.3333333333333333  1 1 0.3333333333333333  1.5 1 0.3333333333333333  2 1 0.3333333333333333  2.5 1 0.3333333333333333  3 1 0.3333333333333333  3.5 1 0.3333333333333333  4 1 0.3333333333333333  4.5 1 0.3333333333333333  5 1 0.3333333333333333  5.5 1 0.3333333333333333  6 1 0.3333333333333333  6.5 1 0.3333333333333333  7 1 0.3333333333333333  7.5 1 0.3333333333333333  8 1 0.3333333333333333  8.5 1 0.3333333333333333  9 1 0.3333333333333333  9.5 1 0.3333333333333333  10 1 0.3333333333333333  0 1.5 0.3333333333333333  0.5 1.5 0.3333333333333333  1 1.5 0.3333333333333333  1.5 1.5 0.3333333333333333  2 1.5 0.3333333333333333  2.5 1.5 0.3333333333333333  3 1.5 0.3333333333333333  3.5 1.5 0.3333333333333333  4 1.5 0.3333333333333333  4.5 1.5 0.3333333333333333  5 1.5 0.3333333333333333  5.5 1.5 0.3333333333333333  6 1.5 0.3333333333333333  6.5 1.5 0.3333333333333333  7 1.5 0.3333333333333333  7.5 1.5 0.3333333333333333  8 1.5 0.3333333333333333  8.5 1.5 0.3333333333333333  9 1.5 0.3333333333333333  9.5 1.5 0.3333333333333333  10 1.5 0.3333333333333333  0 2 0.3333333333333333  0.5 2 0.3333333333333333  1 2 0.3333333333333333  1.5 2 0.3333333333333333  2 2 0.3333333333333333  2.5 2 0.3333333333333333  3 2 0.3333333333333333  3.5 2 0.3333333333333333  4 2 0.3333333333333333  4.5 2 0.3333333333333333  5 2 0.3333333333333333  5.5 2 0.3333333333333333  6 2 0.3333333333333333  6.5 2 0.3333333333333333  7 2 0.3333333333333333  7.5 2 0.3333333333333333  8 2 0.3333333333333333  8.5 2 0.3333333333333333  9 2 0.3333333333333333  9.5 2 0.3333333333333333  10 2 0.3333333333333333  0 2.5 0.3333333333333333  0.5 2.5 0.3333333333333333  1 2.5 0.3333333333333333  1.5 2.5 0.3333333333333333  2 2.5 0.3333333333333333  2.5 2.5 0.3333333333333333  3 2.5 0.3333333333333333  3.5 2.5 0.3333333333333333  4 2.5 0.3333333333333333  4.5 2.5 0.3333333333333333  5 2.5 0.3333333333333333  5.5 2.5 0.3333333333333333  6 2.5 0.3333333333333333  6.5 2.5 0.3333333333333333  7 2.5 0.3333333333333333  7.5 2.5 0.3333333333333333  8 2.5 0.3333333333333333  8.5 2.5 0.3333333333333333  9 2.5 0.3333333333333333  9.5 2.5 0.3333333333333333  10 2.5 0.3333333333333333  0 3 0.3333333333333333  0.5 3 0.3333333333333333  1 3 0.3333333333333333  1.5 3 0.3333333333333333  2 3 0.3333333333333333  2.5 3 0.3333333333333333  3 3 0.3333333333333333  3.5 3 0.3333333333333333  4 3 0.3333333333333333  4.5 3 0.3333333333333333  5 3 0.3333333333333333  5.5 3 0.3333333333333333  6 3 0.3333333333333333  6.5 3 0.3333333333333333  7 3 0.3333333333333333  7.5 3 0.3333333333333333  8 3 0.3333333333333333  8.5 3 0.3333333333333333  9 3 0.3333333333333333  9.5 3 0.3333333333333333  10 3 0.3333333333333333  0 0 0.5  0.5 0 0.5  1 0 0.5  1.5 0 0.5  2 0 0.5  2.5 0 0.5  3 0 0.5  3.5 0 0.5  4 0 0.5  4.5 0 0.5  5 0 0.5  5.5 0 0.5  6 0 0.5  6.5 0 0.5  7 0 0.5  7.5 0 0.5  8 0 0.5  8.5 0 0.5  9 0 0.5  9.5 0 0.5  10 0 0.5  0 0.5 0.5  0.5 0.5 0.5  1 0.5 0.5  1.5 0.5 0.5  2 0.5 0.5  2.5 0.5 0.5  3 0.5 0.5  3.5 0.5 0.5  4 0.5 0.5  4.5 0.5 0.5  5 0.5 0.5  5.5 0.5 0.5  6 0.5 0.5  6.5 0.5 0.5  7 0.5 0.5  7.5 0.5 0.5  8 0.5 0.5  8.5 0.5 0.5  9 0.5 0.5  9.5 0.5 0.5  10 0.5 0.5  0 1 0.5  0.5 1 0.5  1 1 0.5  1.5 1 0.5  2 1 0.5  2.5 1 0.5  3 1 0.5  3.5 1 0.5  4 1 0.5  4.5 1 0.5  5 1 0.5  5.5 1 0.5  6 1 0.5  6.5 1 0.5  7 1 0.5  7.5 1 0.5  8 1 0.5  8.5 1 0.5  9 1 0.5  9.5 1 0.5  10 1 0.5  0 1.5 0.5  0.5 1.5 0.5  1 1.5 0.5  1.5 1.5 0.5  2 1.5 0.5  2.5 1.5 0.5  3 1.5 0.5  3.5 1.5 0.5  4 1.5 0.5  4.5 1.5 0.5  5 1.5 0.5  5.5 1.5 0.5  6 1.5 0.5  6.5 1.5 0.5  7 1.5 0.5  7.5 1.5 0.5  8 1.5 0.5  8.
[...]
<PointData  Scalars="f_7-2"> 
<DataArray  type="Float64"  Name="f_7-2"  format="ascii">1.1782106622589033e+00  1.1653909399749283e+00  1.1657008334031254e+00  1.1679389089283003e+00  1.1684893791418127e+00  1.1685816777647531e+00  1.1685956304351710e+00  1.1685957878137290e+00  1.1685933883814044e+00  1.1685912852720215e+00  1.1685899434869993e+00  1.1685891677293267e+00  1.1685887339774925e+00  1.1685884954230186e+00  1.1685883654596005e+00  1.1685882950214725e+00  1.1685882570024819e+00  1.1685882366473210e+00  1.1685882260107443e+00  1.1685882209528147e+00  1.1685882194546813e+00  1.1685527940517653e+00  1.1761754759203276e+00  1.1675872160482350e+00  1.1684044601755046e+00  1.1686097934047426e+00  1.1685978587255370e+00  1.1685989289844656e+00  1.1685961103898259e+00  1.1685929361432748e+00  1.1685908639706430e+00  1.1685896760450623e+00  1.1685890128164036e+00  1.1685886470853990e+00  1.1685884475848309e+00  1.1685883393846064e+00  1.1685882808592356e+00  1.1685882493011588e+00  1.1685882324166448e+00  1.1685882235964864e+00  1.1685882194332282e+00  1.1685882182044820e+00  1.1727860523185980e+00  1.1829037038723136e+00  1.1704458420842292e+00  1.1688201467054822e+00  1.1687633790613221e+00  1.1686294240626893e+00  1.1686050829185857e+00  1.1685957869033614e+00  1.1685916382118056e+00  1.1685898931282719e+00  1.1685890827818308e+00  1.1685886719887724e+00  1.1685884570745277e+00  1.1685883434216908e+00  1.1685882827057346e+00  1.1685882500925930e+00  1.1685882325734160e+00  1.1685882232234850e+00  1.1685882183487502e+00  1.1685882161010845e+00  1.1685882154031078e+00  1.1754939581850310e+00  1.1849174362769301e+00  1.1716325702321160e+00  1.1687520826106501e+00  1.1688242068899641e+00  1.1686334717977425e+00  1.1685996446817681e+00  1.1685918775244442e+00  1.1685890168828348e+00  1.1685883812325519e+00  1.1685882393741931e+00  1.1685882063724486e+00  1.1685882031618806e+00  1.1685882057226089e+00  1.1685882081385890e+00  1.1685882097128397e+00  1.1685882106434875e+00  1.1685882111719113e+00  1.1685882114640229e+00  1.1685882116902648e+00  1.1685882116937136e+00  1.1748933317764856e+00  1.1819314396972922e+00  1.1707613726896899e+00  1.1683587808224229e+00  1.1686809369246813e+00  1.1685826418342118e+00  1.1685813361361577e+00  1.1685842168235892e+00  1.1685853401450494e+00  1.1685866169116770e+00  1.1685873276804917e+00  1.1685877248392642e+00  1.1685879469764551e+00  1.1685880683521552e+00  1.1685881341645974e+00  1.1685881697727303e+00  1.1685881889841403e+00  1.1685881992758886e+00  1.1685882046621519e+00  1.1685882073035045e+00  1.1685882080085226e+00  1.1703384304238578e+00  1.1770188110178645e+00  1.1686220254160113e+00  1.1673833361028114e+00  1.1684260966103797e+00  1.1685418745021472e+00  1.1685586664596104e+00  1.1685756965026810e+00  1.1685822263944650e+00  1.1685851531664968e+00  1.1685866045941564e+00  1.1685873566899527e+00  1.1685877541842444e+00  1.1685879657543732e+00  1.1685880791319923e+00  1.1685881401239646e+00  1.1685881729183483e+00  1.1685881904445130e+00  1.1685881995966556e+00  1.1685882040222859e+00  1.1685882052553891e+00  1.1753210342043312e+00  1.1659041629158158e+00  1.1621278850080761e+00  1.1666354091675892e+00  1.1685778936529070e+00  1.1685001442753349e+00  1.1685383313402342e+00  1.1685735814324159e+00  1.1685808550499484e+00  1.1685844344937284e+00  1.1685862831555929e+00  1.1685871938832226e+00  1.1685876691435515e+00  1.1685879204447820e+00  1.1685880548584551e+00  1.1685881270702418e+00  1.1685881658489625e+00  1.1685881865657335e+00  1.1685881973904242e+00  1.1685882025754444e+00  1.1685882039558773e+00  1.2060383563649477e+00  1.1581415801523842e+00  1.1660938141717396e+00  1.1680126952800374e+00  1.1684947137143147e+00  1.1685818540008901e+00  1.1685954342501665e+00  1.1685958585839555e+00  1.1685934113886101e+00  1.1685912754581422e+00  1.1685899361891314e+00  1.1685891639839638e+00  1.1685887318118462e+00  1.1685884941782687e+00  1.1685883647752502e+00  1.1685882946494051e+00  1.1685882568001049e+00  1.1685882365338864e+00  1.1685882259452944e+00  1.1685882209199931e+00  1.1685882193421357e+00  1.2171249173074472e+00  1.1662865387515653e+00  1.1683190776012391e+00  1.1686202214582329e+00  1.1685443204445884e+00  1.1685906179449153e+00  1.1685987808972855e+00  1.1685961374398286e+00  1.1685929158638317e+00  1.1685908783775143e+00  1.1685896966710256e+00  1.1685890256886198e+00  1.1685886541939954e+00  1.1685884515416731e+00  1.1685883415657026e+00  1.1685882820458604e+00  1.1685882499457223e+00  1.1685882327673622e+00  1.1685882238011682e+00  1.1685882195396842e+00  1.1685882183233343e+00  1.2202253361531123e+00  1.1770174883890308e+00  1.1693510997259335e+00  1.1692398504830939e+00  1.1687023528894429e+00  1.1686345710773338e+00  1.1686074356342511e+00  1.1685958500593570e+00  1.1685916734530679e+00  1.1685899330202394e+00  1.1685891026005646e+00  1.1685886799253549e+00  1.1685884609430224e+00  1.1685883454894344e+00  1.1685882837888597e+00  1.1685882506627372e+00  1.1685882328791635e+00  1.1685882233892642e+00  1.1685882184532916e+00  1.1685882161401628e+00  1.1685882154914902e+00  1.2238593205604185e+00  1.1793484479379459e+00  1.1691319121968571e+00  1.1694978316089275e+00  1.1687791661028046e+00  1.1686326713400881e+00  1.1686030882159963e+00  1.1685918414192082e+00  1.1685890924123783e+00  1.1685884324828431e+00  1.1685882526531040e+00  1.1685882101174487e+00  1.1685882049925984e+00  1.1685882065777060e+00  1.1685882085190182e+00  1.1685882098975804e+00  1.1685882107391676e+00  1.1685882112227555e+00  1.1685882115022019e+00  1.1685882116746538e+00  1.1685882117756468e+00  1.2225560582682793e+00  1.1759346520369314e+00  1.1685621910747648e+00  1.1691267704476873e+00  1.1686318815830805e+00  1.1685770952062122e+00  1.1685861262103416e+00  1.1685837389590814e+00  1.1685854408232939e+00  1.1685866492918036e+00  1.1685873234760689e+00  1.1685877225234071e+00  1.1685879456012493e+00  1.1685880673723179e+00  1.1685881335593495e+00  1.1685881694328861e+00  1.1685881887955967e+00  1.1685881991696536e+00  1.1685882046085694e+00  1.1685882072326141e+00  1.1685882080601002e+00  1.2076263030565924e+00  1.1725342420283886e+00  1.1658755053836585e+00  1.1679739168824470e+00  1.1684820562243139e+00  1.1685191306210876e+00  1.1685594233324437e+00  1.1685758653475065e+00  1.1685822007742361e+00  1.1685851180804832e+00  1.1685865858847182e+00  1.1685873486321747e+00  1.1685877497502553e+00  1.1685879631749800e+00  1.1685880777337061e+00  1.1685881393763085e+00  1.1685881725117251e+00  1.1685881902231470e+00  1.1685881994799032e+00  1.1685882039106124e+00  1.1685882052641121e+00  1.2570671337378532e+00  1.1460898325104345e+00  1.1616054318787097e+00  1.1686384863143853e+00  1.1684548286165495e+00  1.1684276078853917e+00  1.1685545996960955e+00  1.1685742459497528e+00  1.1685804260091190e+00  1.1685844978448159e+00  1.1685862939459490e+00  1.1685871978302469e+00  1.1685876706909222e+00  1.1685879211379415e+00  1.1685880552943095e+00  1.1685881272955245e+00  1.1685881659623376e+00  1.1685881866243333e+00  1.1685881974134227e+00  1.1685882025511052e+00  1.1685882040774709e+00  1.1776316909017286e+00  1.1650473468781999e+00  1.1654720213969496e+00  1.1679492525511859e+00  1.1685238384120549e+00  1.1685795193120383e+00  1.1685944974708746e+00  1.1685960456384452e+00  1.1685934531998112e+00  1.1685912753092222e+00  1.1685899403823914e+00  1.1685891672268482e+00  1.1685887333983054e+00  1.1685884950109582e+00  1.1685883652360314e+00  1.1685882949003181e+00  1.1685882569358568e+00  1.1685882366066069e+00  1.1685882259928246e+00  1.1685882209575977e+00  1.1685882193434427e+00  1.1801945056974243e+00  1.1725965765427535e+00  1.1682057408895883e+00  1.1685327781704740e+00  1.1685677242150228e+00  1.1685892737114556e+00  1.1685998860567619e+00  1.1685964493326308e+00  1.1685929061541149e+00  1.1685908813787145e+00  1.1685897001091838e+00  1.1685890252600017e+00  1.1685886534409227e+00  1.1685884511042595e+00  1.1685883413087892e+00  1.1685882818956406e+00  1.1685882498616913e+00  1.1685882327214938e+00  1.1685882237781531e+00  1.1685882195316153e+00  1.1685882183247396e+00  1.1853579724671945e+00  1.1790631541218624e+00  1.1705049950048894e+00  1.1690064599779553e+00  1.1687096977253149e+00  1.1686428224532208e+00  1.1686084850796097e+00  1.1685958152614506e+00  1.1685916795279729e+00  1.1685899578503676e+00  1.1685891049513961e+00  1.1685886778374674e+00  1.1685884597380916e+00  1.1685883447673828e+00  1.1685882833323629e+00  1.1685882503983227e+00  1.1685882327320027e+00  1.1685882233074243e+00  1.1685882184077661e+00  1.1685882161206309e+00  1.1685882154566780e+00  1.1889478658809991e+00  1.1811893063282097e+00  1.1706371735028471e+00  1.1693089456467334e+00  1.1687632398559189e+00  1.1686413083533580e+00  1.1686024290839383e+00  1.1685915192483938e+00  1.1685891594604421e+00  1.1685884497246803e+00  1.1685882476280292e+00  1.1685882082303676e+00  1.1685882043293117e+00  1.1685882060486703e+00  1.1685882081776906e+00  1.1685882097066229e+00  1.1685882106326697e+00  1.1685882111627490e+00  1.1685882114668900e+00  1.1685882116577724e+00  1.1685882117460211e+00  1.1874624650600720e+00  1.1782671998138408e+00  1.1700833589860540e+00  1.1689384848988948e+00  1.1685848257472740e+00  1.1685867842456938e+00  1.1685852163215029e+00  1.1685833978748297e+00  1.1685855497041113e+00  1.1685866345957139e+00  1.1685873160905160e+00  1.1685877218066840e+00  1.1685879450295311e+00  1.1685880668790121e+00  1.1685881332866279e+00  1.1685881692882587e+00  1.1685881887138947e+00  1.1685881991230251e+00  1.1685882045797706e+00  1.1685882072175253e+00  1.1685882080289929e+00  1.1754844850899793e+00  1.1767527130740068e+00  1.1665669759085324e+00  1.1679077549830705e+00  1.1684478807908900e+00  1.1685142918331228e+00  1.1685617908048258e+00  1.1685757344442336e+00  1.1685821416153901e+00  1.1685851225197539e+00  1.1685865856892357e+00  1.1685873501883017e+00  1.1685877502362139e+00  1.1685879633185210e+00  1.1685880778582158e+00  1.1685881394451272e+00  1.1685881725448386e+00  1.1685881902401190e+00  1.1685881994861256e+00  1.1685882039141375e+00  1.1685882052466732e+00  1.2120741965678024e+00  1.1444013445138377e+00  1.1643760241741610e+00  1.1684487079872121e+00  1.1681997805109925e+00  1.1684654253125863e+00  1.1685630192182648e+00  1.1685710268469991e+00  1.1685806810850103e+00  1.1685845468846328e+00  1.1685862874730479e+00  1.1685872017262315e+00  1.1685876715773620e+00  1.1685879218276436e+00  1.1685880557126236e+00  1.1685881275017116e+00  1.1685881660747834e+00  1.1685881866875085e+00  1.1685881974480883e+00  1.1685882025870808e+00  1.1685882040726234e+00  1.2558984965736346e+00  1.1527997155716725e+00  1.1650560255473410e+00  1.1684420598580987e+00  1.1684977254281681e+00  1.1685678294276114e+00  1.1685968144003411e+00  1.1685965081096097e+00  1.1685933424094228e+00  1.1685912449241633e+00  1.1685899320028685e+00  1.1685891599025660e+00  1.1685887288149466e+00  1.1685884925553540e+00  1.1685883639057346e+00  1.1685882941732442e+00  1.1685882565412355e+00  1.1685882363956337e+00  1.1685882258853149e+00  1.1685882208594620e+00  1.1685882193105548e+00  1.2593846872700210e+00  1.1571921836628010e+00  1.1695408809804573e+00  1.1687348668387345e+00  1.1684496289255011e+00  1.1685920124606559e+00  1.1686028852824821e+00  1.1685956327333076e+00  1.1685927065095623e+00  1.1685908852449551e+00  1.1685896945359182e+00  1.1685890196661590e+00  1.1685886513021868e+00  1.1685884501521073e+00  1.1685883407817985e+00  1.1685882816086770e+00  1.1685882497065345e+00  1.1685882326348016e+00  1.1685882237254579e+00  1.1685882194695478e+00  1.1685882183028879e+00  1.2460442242472511e+00  1.1746059222209992e+00  1.1697304538469195e+00  1.1690184857589256e+00  1.1686954399656779e+00  1.1686583659197640e+00  1.1686064930371964e+00  1.1685948849772274e+00  1.1685917682529763e+00  1.1685899762687830e+00  1.1685890900337008e+00  1.1685886724529257e+00  1.1685884579394388e+00  1.1685883436189062e+00  1.1685882826548268e+00  1.1685882500345512e+00  1.1685882325339996e+00  1.1685882231978897e+00  1.1685882183483733e+00  1.1685882160531262e+00  1.1685882154595895e+00  1.2449773148232701e+00  1.1787972403292100e+00  1.1681456698041712e+00  1.1697619896669365e+00  1.1687320054545065e+00  1.1686462427297823e+00  1.1685975073717279e+00  1.1685917820455989e+00  1.1685893712150093e+00  1.1685884328165292e+00  1.1685882451609564e+00  1.1685882143649511e+00  1.1685882072338252e+00  1.1685882072866733e+00  1.1685882088694690e+00  1.1685882100900533e+00  1.1685882108361616e+00  1.1685882112724864e+00  1.1685882115294464e+00  1.1685882116687245e+00  1.1685882118101221e+00  1.2461154892283164e+00  1.1757174125971181e+00  1.1673409091443283e+00  1.1696053074949142e+00  1.1684644804913509e+00  1.1686147372982674e+00  1.1685821576663014e+00  1.1685843417704433e+00  1.1685857692107466e+00  1.1685866185914420e+00  1.1685873409712255e+00  1.1685877344669302e+00  1.1685879495773095e+00  1.1685880692007913e+00  1.1685881345837019e+00  1.1685881699721463e+00  1.1685881890754852e+00  1.1685881993201972e+00  1.1685882046921687e+00  1.1685882072732070e+00  1.1685882081188324e+00  1.2591513186996339e+00  1.1660412535436453e+00  1.1647456341148572e+00  1.1688394933510142e+00  1.1682694625592198e+00  1.1685535034083208e+00  1.1685604877322240e+00  1.1685754299275359e+00  1.1685824690399256e+00  1.1685851263106630e+00  1.1685866188287979e+00  1.1685873632818105e+00  1.1685877553294819e+00  1.1685879663987166e+00  1.1685880795359955e+00  1.1685881403162186e+00  1.1685881730144505e+00  1.1685881905005884e+00  1.1685881996389946e+00  1.1685882040056528e+00  1.1685882053494256e+00  1.2830224952978846e+00  1.1400242535822294e+00  1.1639276200092576e+00  1.1686989304130708e+00  1.1680970410198324e+00  1.1685238557445918e+00  1.1685500181293984e+00  1.1685709234531145e+00  1.1685811927885805e+00  1.1685844163185823e+00  1.1685862912392295e+00  1.1685871964880614e+00  1.1685876683378211e+00  1.1685879206553060e+00  1.1685880549777741e+00  1.1685881270893144e+00  1.1685881658581103e+00  1.1685881865689645e+00  1.1685881973808616e+00  1.1685882025367886e+00  1.1685882040781785e+00  </DataArray> 
</PointData> 
</Piece>
</UnstructuredGrid>
</VTKFile>