<?xml version="1.0"?>
<VTKFile type="UnstructuredGrid"  version="0.1"  >
<UnstructuredGrid>
<Piece  NumberOfPoints="2976" NumberOfCells="13500">
<Points>
<DataArray  type="Float64"  NumberOfComponents="3"  format="ascii">0 0 0  0.3333333333333333 0 0  0.6666666666666666 0 0  1 0 0  1.333333333333333 0 0  1.666666666666667 0 0  2 0 0  2.333333333333333 0 0  2.666666666666667 0 0  3 0 0  3.333333333333333 0 0  3.666666666666667 0 0  4 0 0  4.333333333333333 0 0  4.666666666666667 0 0  5 0 0  5.333333333333333 0 0  5.666666666666667 0 0  6 0 0  6.333333333333333 0 0  6.666666666666667 0 0  7 0 0  7.333333333333333 0 0  7.666666666666667 0 0  8 0 0  8.333333333333334 0 0  8.666666666666666 0 0  9 0 0  9.333333333333334 0 0  9.666666666666666 0 0  10 0 0  0 0.2 0  0.3333333333333333 0.2 0  0.6666666666666666 0.2 0  1 0.2 0  1.333333333333333 0.2 0  1.666666666666667 0.2 0  2 0.2 0  2.333333333333333 0.2 0  2.666666666666667 0.2 0  3 0.2 0  3.333333333333333 0.2 0  3.666666666666667 0.2 0  4 0.2 0  4.333333333333333 0.2 0  4.666666666666667 0.2 0  5 0.2 0  5.333333333333333 0.2 0  5.666666666666667 0.2 0  6 0.2 0  6.333333333333333 0.2 0  6.666666666666667 0.2 0  7 0.2 0  7.333333333333333 0.2 0  7.666666666666667 0.2 0  8 0.2 0  8.333333333333334 0.2 0  8.666666666666666 0.2 0  9 0.2 0  9.333333333333334 0.2 0  9.666666666666666 0.2 0  10 0.2 0  0 0.4 0  0.3333333333333333 0.4 0  0.6666666666666666 0.4 0  1 0.4 0  1.333333333333333 0.4 0  1.666666666666667 0.4 0  2 0.4 0  2.333333333333333 0.4 0  2.666666666666667 0.4 0  3 0.4 0  3.333333333333333 0.4 0  3.666666666666667 0.4 0  4 0.4 0  4.333333333333333 0.4 0  4.666666666666667 0.4 0  5 0.4 0  5.333333333333333 0.4 0  5.666666666666667 0.4 0  6 0.4 0  6.333333333333333 0.4 0  6.666666666666667 0.4 0  7 0.4 0  7.333333333333333 0.4 0  7.666666666666667 0.4 0  8 0.4 0  8.333333333333334 0.4 0  8.666666666666666 0.4 0  9 0.4 0  9.333333333333334 0.4 0  9.666666666666666 0.4 0  10 0.4 0  0 0.6 0  0.3333333333333333 0.6 0  0.6666666666666666 0.6 0  1 0.6 0  1.333333333333333 0.6 0  1.666666666666667 0.6 0  2 0.6 0  2.333333333333333 0.6 0  2.666666666666667 0.6 0  3 0.6 0  3.333333333333333 0.6 0  3.666666666666667 0.6 0  4 0.6 0  4.333333333333333 0.6 0  4.666666666666667 0.6 0  5 0.6 0  5.333333333333333 0.6 0  5.666666666666667 0.6 0  6 0.6 0  6.333333333333333 0.6 0  6.666666666666667 0.6 0  7 0.6 0  7.333333333333333 0.6 0  7.666666666666667 0.6 0  8 0.6 0  8.333333333333334 0.6 0  8.666666666666666 0.6 0  9 0.6 0  9.333333333333334 0.6 0  9.666666666666666 0.6 0  10 0.6 0  0 0.8 0  0.3333333333333333 0.8 0  0.6666666666666666 0.8 0  1 0.8 0  1.333333333333333 0.8 0  1.666666666666667 0.8 0  2 0.8 0  2.333333333333333 0.8 0  2.666666666666667 0.8 0  3 0.8 0  3.333333333333333 0.8 0  3.666666666666667 0.8 0  4 0.8 0  4.333333333333333 0.8 0  4.666666666666667 0.8 0  5 0.8 0  5.333333333333333 0.8 0  5.666666666666667 0.8 0  6 0.8 0  6.333333333333333 0.8 0  6.666666666666667 0.8 0  7 0.8 0  7.333333333333333 0.8 0  7.666666666666667 0.8 0  8 0.8 0  8.333333333333334 0.8 0  8.666666666666666 0.8 0  9 0.8 0  9.333333333333334 0.8 0  9.666666666666666 0.8 0  10 0.8 0  0 1 0  0.3333333333333333 1 0  0.6666666666666666 1 0  1 1 0  1.333333333333333 1 0  1.666666666666667 1 0  2 1 0  2.333333333333333 1 0  2.666666666666667 1 0  3 1 0  3.333333333333333 1 0  3.666666666666667 1 0  4 1 0  4.333333333333333 1 0  4.666666666666667 1 0  5 1 0  5.333333333333333 1 0  5.666666666666667 1 0  6 1 0  6.333333333333333 1 0  6.666666666666667 1 0  7 1 0  7.333333333333333 1 0  7.666666666666667 1 0  8 1 0  8.333333333333334 1 0  8.666666666666666 1 0  9 1 0  9.333333333333334 1 0  9.666666666666666 1 0  10 1 0  0 1.2 0  0.3333333333333333 1.2 0  0.6666666666666666 1.2 0  1 1.2 0  1.333333333333333 1.2 0  1.666666666666667 1.2 0  2 1.2 0  2.333333333333333 1.2 0  2.666666666666667 1.2 0  3 1.2 0  3.333333333333333 1.2 0  3.666666666666667 1.2 0  4 1.2 0  4.333333333333333 1.2 0  4.666666666666667 1.2 0  5 1.2 0  5.333333333333333 1.2 0  5.666666666666667 1.2 0  6 1.2 0  6.333333333333333 1.2 0  6.666666666666667 1.2 0  7 1.2 0  7.333333333333333 1.2 0  7.666666666666667 1.2 0  8 1.2 0  8.333333333333334 1.2 0  8.666666666666666 1.2 0  9 1.2 0  9.333333333333334 1.2 0  9.666666666666666 1.2 0  10 1.2 0  0 1.4 0  0.3333333333333333 1.4 0  0.6666666666666666 1.4 0  1 1.4 0  1.333333333333333 1.4 0  1.666666666666667 1.4 0  2 1.4 0  2.333333333333333 1.4 0  2.666666666666667 1.4 0  3 1.4 0  3.333333333333333 1.4 0  3.666666666666667 1.4 0  4 1.4 0  4.333333333333333 1.4 0  4.666666666666667 1.4 0  5 1.4 0  5.333333333333333 1.4 0  5.666666666666667 1.4 0  6 1.4 0  6.333333333333333 1.4 0  6.666666666666667 1.4 0  7 1.4 0  7.333333333333333 1.4 0  7.666666666666667 1.4 0  8 1.4 0  8.333333333333334 1.4 0  8.666666666666666 1.4 0  9 1.4 0  9.333333333333334 1.4 0  9.666666666666666 1.4 0  10 1.4 0  0 1.6 0  0.3333333333333333 1.6 0  0.6666666666666666 1.6 0  1 1.6 0  1.333333333333333 1.6 0  1.666666666666667 1.6 0  2 1.6 0  2.333333333333333 1.6 0  2.666666666666667 1.6 0  3 1.6 0  3.333333333333333 1.6 0  3.666666666666667 1.6 0  4 1.6 0  4.333333333333333 1.6 0  4.666666666666667 1.6 0  5 1.6 0  5.333333333333333 1.6 0  5.666666666666667 1.6 0  6 1.6 0  6.333333333333333 1.6 0  6.666666666666667 1.6 0  7 1.6 0  7.333333333333333 1.6 0  7.666666666666667 1.6 0  8 1.6 0  8.333333333333334 1.6 0  8.666666666666666 1.6 0  9 1.6 0  9.333333333333334 1.6 0  9.666666666666666 1.6 0  10 1.6 0  0 1.8 0  0.3333333333333333 1.8 0  0.6666666666666666 1.8 0  1 1.8 0  1.333333333333333 1.8 0  1.666666666666667 1.8 0  2 1.8 0  2.333333333333333 1.8 0  2.666666666666667 1.8 0  3 1.8 0  3.333333333333333 1.8 0  3.666666666666667 1.8 0  4 1.8 0  4.333333333333333 1.8 0  4.666666666666667 1.8 0  5 1.8 0  5.333333333333333 1.8 0  5.666666666666667 1.8 0  6 1.8 0  6.333333333333333 1.8 0  6.666666666666667 1.8 0  7 1.8 0  7.333333333333333 1.8 0  7.666666666666667 1.8 0  8 1.8 0  8.333333333333334 1.8 0  8.666666666666666 1.8 0  9 1.8 0  9.333333333333334 1.8 0  9.666666666666666 1.8 0  10 1.8 0  0 2 0  0.3333333333333333 2 0  0.6666666666666666 2 0  1 2 0  1.333333333333333 2 0  1.666666666666667 2 0  2 2 0  2.333333333333333 2 0  2.666666666666667 2 0  3 2 0  3.333333333333333 2 0  3.666666666666667 2 0  4 2 0  4.333333333333333 2 0  4.666666666666667 2 0  5 2 0  5.333333333333333 2 0  5.666666666666667 2 0  6 2 0  6.333333333333333 2 0  6.666666666666667 2 0  7 2 0  7.333333333333333 2 0  7.666666666666667 2 0  8 2 0  8.333333333333334 2 0  8.666666666666666 2 0  9 2 0  9.333333333333334 2 0  9.666666666666666 2 0  10 2 0  0 2.2 0  0.3333333333333333 2.2 0  0.6666666666666666 2.2 0  1 2.2 0  1.333333333333333 2.2 0  1.666666666666667 2.2 0  2 2.2 0  2.333333333333333 2.2 0  2.666666666666667 2.2 0  3 2.2 0  3.333333333333333 2.2 0  3.666666666666667 2.2 0  4 2.2 0  4.333333333333333 2.2 0  4.666666666666667 2.2 0  5 2.2 0  5.333333333333333 2.2 0  5.666666666666667 2.2 0  6 2.2 0  6.333333333333333 2.2 0  6.666666666666667 2.2 0  7 2.2 0  7.333333333333333 2.2 0  7.666666666666667 2.2 0  8 2.2 0  8.333333333333334 2.2 0  8.666666666666666 2.2 0  9 2.2 0  9.333333333333334 2.2 0  9.666666666666666 2.2 0  10 2.2 0  0 2.4 0  0.3333333333333333 2.4 0  0.6666666666666666 2.4 0  1 2.4 0  1.333333333333333 2.4 0  1.666666666666667 2.4 0  2 2.4 0  2.333333333333333 2.4 0  2.666666666666667 2.4 0  3 2.4 0  3.333333333333333 2.4 0  3.666666666666667 2.4 0  4 2.4 0  4.333333333333333 2.4 0  4.666666666666667 2.4 0  5 2.4 0  5.333333333333333 2.4 0  5.666666666666667 2.4 0  6 2.4 0  6.333333333333333 2.4 0  6.666666666666667 2.4 0  7 2.4 0  7.333333333333333 2.4 0  7.666666666666667 2.4 0  8 2.4 0  8.333333333333334 2.4 0  8.666666666666666 2.4 0  9 2.4 0  9.333333333333334 2.4 0  9.666666666666666 2.4 0  10 2.4 0  0 2.6 0  0.3333333333333333 2.6 0  0.6666666666666666 2.6 0  1 2.6 0  1.333333333333333 2.6 0  1.666666666666667 2.6 0  2 2.6 0  2.333333333333333 2.6 0  2.666666666666667 2.6 0  3 2.6 0  3.333333333333333 2.6 0  3.666666666666667 2.6 0  4 2.6 0  4.333333333333333 2.6 0  4.666666666666667 2.6 0  5 2.6 0  5.333333333333333 2.6 0  5.666666666666667 2.6 0  6 2.6 0  6.333333333333333 2.6 0  6.666666666666667 2.6 0  7 2.6 0  7.333333333333333 2.6 0  7.666666666666667 2.6 0  8 2.6 0  8.333333333333334 2.6 0  8.666666666666666 2.6 0  9 2.6 0  9.333333333333334 2.6 0  9.666666666666666 2.6 0  10 2.6 0  0 2.8 0  0.3333333333333333 2.8 0  0.6666666666666666 2.8 0  1 2.8 0  1.333333333333333 2.8 0  1.666666666666667 2.8 0  2 2.8 0  2.333333333333333 2.8 0  2.666666666666667 2.8 0  3 2.8 0  3.333333333333333 2.8 0  3.666666666666667 2.8 0  4 2.8 0  4.333333333333333 2.8 0  4.666666666666667 2.8 0  5 2.8 0  5.333333333333333 2.8 0  5.666666666666667 2.8 0  6 2.8 0  6.333333333333333 2.8 0  6.666666666666667 2.8 0  7 2.8 0  7.333333333333333 2.8 0  7.666666666666667 2.8 0  8 2.8 0  8.333333333333334 2.8 0  8.666666666666666 2.8 0  9 2.8 0  9.333333333333334 2.8 0  9.666666666666666 2.8 0  10 2.8 0  0 3 0  0.3333333333333333 3 0  0.6666666666666666 3 0  1 3 0  1.333333333333333 3 0  1.666666666666667 3 0  2 3 0  2.333333333333333 3 0  2.666666666666667 3 0  3 3 0  3.333333333333333 3 0  3.666666666666667 3 0  4 3 0  4.333333333333333 3 0  4.666666666666667 3 0  5 3 0  5.333333333333333 3 0  5.666666666666667 3 0  6 3 0  6.333333333333333 3 0  6.666666666666667 3 0  7 3 0  7.333333333333333 3 0  7.666666666666667 3 0  8 3 0  8.333333333333334 3 0  8.666666666666666 3 0  9 3 0  9.333333333333334 3 0  9.666666666666666 3 0  10 3 0  0 0 0.1  0.3333333333333333 0 0.1  0.6666666666666666 0 0.1  1 0 0.1  1.333333333333333 0 0.1  1.666666666666667 0 0.1  2 0 0.1  2.333333333333333 0 0.1  2.666666666666667 0 0.1  3 0 0.1  3.333333333333333 0 0.1  3.666666666666667 0 0.1  4 0 0.1  4.333333333333333 0 0.1  4.666666666666667 0 0.1  5 0 0.1  5.333333333333333 0 0.1  5.666666666666667 0 0.1  6 0 0.1  6.333333333333333 0 0.1  6.666
[...]
<PointData  Scalars="f_7-2"> 
<DataArray  type="Float64"  Name="f_7-2"  format="ascii">1.0053945190067270e+00  1.0012254205752946e+00  1.0026673763837479e+00  1.0027513319387904e+00  1.0026798203561520e+00  1.0027033616111389e+00  1.0026547417184237e+00  1.0025482680997957e+00  1.0021235784465314e+00  1.0014989885140071e+00  1.0010727533451071e+00  1.0009542607385975e+00  1.0010057708869819e+00  1.0011022885404146e+00  1.0011937505809205e+00  1.0012650579791051e+00  1.0013113783240950e+00  1.0013336409051774e+00  1.0013375128052555e+00  1.0013307196991461e+00  1.0013200473639063e+00  1.0013098359242090e+00  1.0013020775218431e+00  1.0012971978518370e+00  1.0012947977099589e+00  1.0012941526073251e+00  1.0012945135844626e+00  1.0012952720671060e+00  1.0012960317212412e+00  1.0012965328024170e+00  1.0012966647669692e+00  1.0114150880337014e+00  1.0026027064538916e+00  1.0029432871858839e+00  1.0026232633607470e+00  1.0027569230110744e+00  1.0026961555493472e+00  1.0026479488386737e+00  1.0023693649680467e+00  1.0017888633920824e+00  1.0012354796825584e+00  1.0009860958932477e+00  1.0009826371389454e+00  1.0010651589918234e+00  1.0011562645423819e+00  1.0012341346058640e+00  1.0012908028406811e+00  1.0013236290128502e+00  1.0013354745097489e+00  1.0013331278556303e+00  1.0013240041052649e+00  1.0013135969624722e+00  1.0013048581059121e+00  1.0012988138225143e+00  1.0012953879072151e+00  1.0012939955899818e+00  1.0012939091461284e+00  1.0012944736434353e+00  1.0012952166677263e+00  1.0012958547658874e+00  1.0012962450277529e+00  1.0012963959424968e+00  1.0071104374294646e+00  1.0060368224961311e+00  1.0021300081539963e+00  1.0030443625783907e+00  1.0027542428130580e+00  1.0027552210326431e+00  1.0026334483537578e+00  1.0020802188527289e+00  1.0013483414831681e+00  1.0009285721621304e+00  1.0008966584406358e+00  1.0010102665968883e+00  1.0011206954757483e+00  1.0012078389442551e+00  1.0012743436801703e+00  1.0013176376111357e+00  1.0013371596613942e+00  1.0013381613619228e+00  1.0013291037003975e+00  1.0013173363870533e+00  1.0013070470361733e+00  1.0012997287376841e+00  1.0012953985821544e+00  1.0012934551368400e+00  1.0012931105338423e+00  1.0012936207733347e+00  1.0012944188233004e+00  1.0012951605525104e+00  1.0012956918487825e+00  1.0012959974108055e+00  1.0012961042914474e+00  1.0091914196927454e+00  1.0050097703279128e+00  1.0047562169560713e+00  1.0028711600128932e+00  1.0028784549925405e+00  1.0028765981283179e+00  1.0024859808340285e+00  1.0016254523322605e+00  1.0008727319485271e+00  1.0006740377319723e+00  1.0008310407812175e+00  1.0010281536241517e+00  1.0011666043131757e+00  1.0012573812039451e+00  1.0013157099775025e+00  1.0013456422409319e+00  1.0013510693244034e+00  1.0013408244294111e+00  1.0013250683801276e+00  1.0013107200935805e+00  1.0013005194526303e+00  1.0012945647748479e+00  1.0012919248128131e+00  1.0012914722426065e+00  1.0012921936175534e+00  1.0012933151276264e+00  1.0012943543710795e+00  1.0012950989725760e+00  1.0012955339442184e+00  1.0012957432281719e+00  1.0012957992945164e+00  1.0083836188215520e+00  1.0042883032349972e+00  1.0063064323097828e+00  1.0033575844647964e+00  1.0032111849934455e+00  1.0029047091858385e+00  1.0021249940936725e+00  1.0010412835876610e+00  1.0004656510765499e+00  1.0005125432511719e+00  1.0007838399456259e+00  1.0010301833151183e+00  1.0011994775482189e+00  1.0013019868600870e+00  1.0013554818317796e+00  1.0013721378437628e+00  1.0013634138778953e+00  1.0013426691085305e+00  1.0013210847616441e+00  1.0013045703138377e+00  1.0012944602497147e+00  1.0012897220302786e+00  1.0012886336881861e+00  1.0012895747962569e+00  1.0012912969482763e+00  1.0012929886534190e+00  1.0012942495556734e+00  1.0012949985298087e+00  1.0012953460861544e+00  1.0012954628059989e+00  1.0012954775048875e+00  1.0076293920740551e+00  1.0045842386483417e+00  1.0056932968653030e+00  1.0054235776111302e+00  1.0033900117479728e+00  1.0028354068901297e+00  1.0015113837090002e+00  1.0004483662421311e+00  1.0002008969888021e+00  1.0004324702296914e+00  1.0007479463586657e+00  1.0010209540877484e+00  1.0012195952652481e+00  1.0013384526557745e+00  1.0013900944096417e+00  1.0013944633076250e+00  1.0013729041561730e+00  1.0013434662851586e+00  1.0013174074098923e+00  1.0012992694501761e+00  1.0012892385996073e+00  1.0012854952550696e+00  1.0012857188723414e+00  1.0012878592309051e+00  1.0012904439106403e+00  1.0012926228168582e+00  1.0012940714537457e+00  1.0012948265627755e+00  1.0012951017405758e+00  1.0012951426404719e+00  1.0012951267180161e+00  1.0074724959843786e+00  1.0045482865405688e+00  1.0052314784709344e+00  1.0065154753704328e+00  1.0044830146039938e+00  1.0024298776070091e+00  1.0007440497220794e+00  1.0000073775151852e+00  1.0000826961946996e+00  1.0003997555192641e+00  1.0007216641488645e+00  1.0010088323621156e+00  1.0012296455535938e+00  1.0013636374077546e+00  1.0014150516410643e+00  1.0014098525435657e+00  1.0013786878209594e+00  1.0013432685205219e+00  1.0013143094399637e+00  1.0012951272561759e+00  1.0012851670443810e+00  1.0012821510571963e+00  1.0012833580600369e+00  1.0012864087034925e+00  1.0012896478536029e+00  1.0012921948990448e+00  1.0012937876754058e+00  1.0012945527763544e+00  1.0012947803193164e+00  1.0012947716501035e+00  1.0012947370055179e+00  1.0074420320239490e+00  1.0044315842867697e+00  1.0052168468496729e+00  1.0064790572051410e+00  1.0061383958055590e+00  1.0017482402565496e+00  1.0001189571568323e+00  9.9979312731347580e-01  1.0000622935730850e+00  1.0003885143666014e+00  1.0007078699282299e+00  1.0010012105750377e+00  1.0012331409148838e+00  1.0013750095757348e+00  1.0014262008771686e+00  1.0014161559004351e+00  1.0013804069010059e+00  1.0013422684599578e+00  1.0013120047064905e+00  1.0012923529671494e+00  1.0012824712998842e+00  1.0012798922575181e+00  1.0012816860798988e+00  1.0012852809603194e+00  1.0012889117810260e+00  1.0012916825191835e+00  1.0012933715307373e+00  1.0012941550917556e+00  1.0012943685149240e+00  1.0012943423451452e+00  1.0012943022690119e+00  1.0076645334212599e+00  1.0043028926988502e+00  1.0052967379371653e+00  1.0064370087865100e+00  1.0064703309652185e+00  1.0017776021810882e+00  9.9979706280224212e-01  9.9979769252130968e-01  1.0000853100181246e+00  1.0003915735155775e+00  1.0007094958215894e+00  1.0010019121671427e+00  1.0012320661812051e+00  1.0013710753145062e+00  1.0014212936594129e+00  1.0014123685955669e+00  1.0013779750460783e+00  1.0013405704426401e+00  1.0013105798612085e+00  1.0012910447123755e+00  1.0012812737247454e+00  1.0012788345809871e+00  1.0012807791226790e+00  1.0012845056235768e+00  1.0012882338027835e+00  1.0012910712111713e+00  1.0012928071405942e+00  1.0012936231324270e+00  1.0012938605160422e+00  1.0012938513660399e+00  1.0012938199539179e+00  1.0081936395192392e+00  1.0040369438144336e+00  1.0056395047269888e+00  1.0063887262689928e+00  1.0053574148314626e+00  1.0024019125606090e+00  1.0000435755250825e+00  9.9995466704156699e-01  1.0001259133886005e+00  1.0004150009475525e+00  1.0007267275138128e+00  1.0010107866883842e+00  1.0012254732912462e+00  1.0013517071942937e+00  1.0014009424730377e+00  1.0013988651524455e+00  1.0013714053403024e+00  1.0013380906479241e+00  1.0013099867115089e+00  1.0012911941574938e+00  1.0012815847003425e+00  1.0012789906645068e+00  1.0012806430181820e+00  1.0012840813775874e+00  1.0012876100842596e+00  1.0012903582185888e+00  1.0012920929160569e+00  1.0012929591431075e+00  1.0012932582357017e+00  1.0012932997754151e+00  1.0012932909697179e+00  1.0083489958312943e+00  1.0038825161630003e+00  1.0060864119346544e+00  1.0058393288183993e+00  1.0039554765635101e+00  1.0026709948604413e+00  1.0010197796596987e+00  1.0001887766896500e+00  1.0002140303950011e+00  1.0004620462968790e+00  1.0007589005512829e+00  1.0010234480935014e+00  1.0012099551866676e+00  1.0013184732529548e+00  1.0013683622644909e+00  1.0013772080786114e+00  1.0013608071606031e+00  1.0013345918677437e+00  1.0013100517160420e+00  1.0012926840942415e+00  1.0012832994009659e+00  1.0012802677215995e+00  1.0012812130359581e+00  1.0012839778928024e+00  1.0012870371054758e+00  1.0012895537978785e+00  1.0012912439934687e+00  1.0012921743916885e+00  1.0012925721843275e+00  1.0012926935310960e+00  1.0012927192956163e+00  1.0072601078601480e+00  1.0045088395696022e+00  1.0062314388536715e+00  1.0046245355836387e+00  1.0029595267855482e+00  1.0026999242945678e+00  1.0020357713558015e+00  1.0006520921193547e+00  1.0003732624913932e+00  1.0005367395738105e+00  1.0008039720808422e+00  1.0010311089620565e+00  1.0011818469673066e+00  1.0012744894185175e+00  1.0013279816069458e+00  1.0013496906953032e+00  1.0013466305892611e+00  1.0013299045061848e+00  1.0013105553255455e+00  1.0012953120866521e+00  1.0012862106706963e+00  1.0012824773411244e+00  1.0012823582400407e+00  1.0012841337057667e+00  1.0012865058628955e+00  1.0012886761005901e+00  1.0012902855875054e+00  1.0012912901631552e+00  1.0012918222780482e+00  1.0012920420425375e+00  1.0012921116329832e+00  1.0044083866154379e+00  1.0055455645565989e+00  1.0056267559185923e+00  1.0031545504825470e+00  1.0026351289389739e+00  1.0027559794798970e+00  1.0024961103243453e+00  1.0013818264238965e+00  1.0006333982609785e+00  1.0006560205045079e+00  1.0008547419029785e+00  1.0010250618957230e+00  1.0011405503526150e+00  1.0012241053690585e+00  1.0012840383579873e+00  1.0013188058177613e+00  1.0013297369879000e+00  1.0013239974187547e+00  1.0013111983110796e+00  1.0012987401581290e+00  1.0012899925637730e+00  1.0012853496936573e+00  1.0012839043484174e+00  1.0012844729993218e+00  1.0012860105754378e+00  1.0012877536216520e+00  1.0012892548638823e+00  1.0012903423145838e+00  1.0012910205524437e+00  1.0012913625434996e+00  1.0012914805683077e+00  1.0018582260754194e+00  1.0066565653294086e+00  1.0038024603106213e+00  1.0023343457070286e+00  1.0027417658109719e+00  1.0027428197384891e+00  1.0025835211258416e+00  1.0020276203034277e+00  1.0010738226566573e+00  1.0008216121862126e+00  1.0008977970243265e+00  1.0009982267781430e+00  1.0010876733662215e+00  1.0011702088482857e+00  1.0012388674902879e+00  1.0012866298222483e+00  1.0013115238521935e+00  1.0013174309359911e+00  1.0013120075579482e+00  1.0013027530796885e+00  1.0012943483984726e+00  1.0012886074841689e+00  1.0012856519556506e+00  1.0012848868008470e+00  1.0012855138537760e+00  1.0012867922365469e+00  1.0012881775612184e+00  1.0012893525351010e+00  1.0012901922475876e+00  1.0012906924423213e+00  1.0012908304085859e+00  1.0094550754214555e+00  1.0054158987308184e+00  1.0017300047787809e+00  1.0025763536855044e+00  1.0027770879667264e+00  1.0026926652920820e+00  1.0026256950995263e+00  1.0023736533172318e+00  1.0016238177789030e+00  1.0010451963669180e+00  1.0009316779193396e+00  1.0009569490758270e+00  1.0010307225399271e+00  1.0011167735863207e+00  1.0011951378870909e+00  1.0012555091663149e+00  1.0012935936563334e+00  1.0013107367409981e+00  1.0013127167816660e+00  1.0013067771630320e+00  1.0012987270412190e+00  1.0012918520987328e+00  1.0012873697120634e+00  1.0012852780424317e+00  1.0012850074981861e+00  1.0012858312813735e+00  1.0012871058829360e+00  1.0012883734889355e+00  1.0012893877988633e+00  1.0012899997900520e+00  1.0012901801615595e+00  1.0229041308586515e+00  9.9709447495873149e-01  1.0020047312015248e+00  1.0028165379191984e+00  1.0027243520269322e+00  1.0026703855961692e+00  1.0026558716094249e+00  1.0025170671984331e+00  1.0020558285743431e+00  1.0012962373537644e+00  1.0009436578491657e+00  1.0009042443297362e+00  1.0009707804211685e+00  1.0010627719709171e+00  1.0011521966956143e+00  1.0012258264779101e+00  1.0012770632385564e+00  1.0013050163696766e+00  1.0013139260276922e+00  1.0013109362718260e+00  1.0013030151308995e+00  1.0012949130930751e+00  1.0012889065240766e+00  1.0012855368202909e+00  1.0012844255637370e+00  1.0012848404024488e+00  1.0012860312489038e+00  1.0012874051854612e+00  1.0012885783967083e+00  1.0012893196455785e+00  1.0012896483934324e+00  1.0084126330911485e+00  9.9979177284887988e-01  1.0031286607695415e+00  1.0027863793786347e+00  1.0026787049401509e+00  1.0026959790629544e+00  1.0026258213124621e+00  1.0025633590433385e+00  1.0021877687663314e+00  1.0015400000483299e+00  1.0010647722160781e+00  1.0009309915146427e+00  1.0009890573459268e+00  1.0010923295025620e+00  1.0011874988825131e+00  1.0012614846744716e+00  1.0013101249262606e+00  1.0013340488947993e+00  1.0013386933154762e+00  1.0013319552595268e+00  1.0013209829139613e+00  1.0013104016565639e+00  1.0013023357540642e+00  1.0012972447928787e+00  1.0012947254873070e+00  1.0012940360746139e+00  1.0012944037502327e+00  1.0012951950887432e+00  1.0012959903669494e+00  1.0012965267194458e+00  1.0012966627245532e+00  1.0200894204585873e+00  1.0016478947239289e+00  1.0034013246382074e+00  1.0023891971756169e+00  1.0027820684118665e+00  1.0026795696720143e+00  1.0026727712022214e+00  1.0024402953230005e+00  1.0018525049610882e+00  1.0012372713683142e+00  1.0009550931139544e+00  1.0009669408230191e+00  1.0010644785000191e+00  1.0011584555056026e+00  1.0012359756100533e+00  1.0012924582226606e+00  1.0013252355857627e+00  1.0013368097369295e+00  1.0013339614911561e+00  1.0013243332454569e+00  1.0013135922239211e+00  1.0013047040793130e+00  1.0012986277622344e+00  1.0012952254106466e+00  1.0012938777186300e+00  1.0012938386926566e+00  1.0012944429721482e+00  1.0012952128530130e+00  1.0012958642003600e+00  1.0012962641809970e+00  1.0012964376085860e+00  1.0106851358884639e+00  1.0070251114897000e+00  1.0002790324810340e+00  1.0034079333427735e+00  1.0026448007085837e+00  1.0027608965664483e+00  1.0027035827232673e+00  1.0021771314387500e+00  1.0013626663412563e+00  1.0008622325717671e+00  1.0008523190990299e+00  1.0010100485384086e+00  1.0011298272565761e+00  1.0012132621440946e+00  1.0012775802878051e+00  1.0013203847397623e+00  1.0013394989976523e+00  1.0013396399890220e+00  1.0013296052407032e+00  1.0013171825787337e+00  1.0013066484201032e+00  1.0012993358226090e+00  1.0012951002660571e+00  1.0012932631539053e+00  1.0012930111999006e+00  1.0012935908570995e+00  1.0012944312140268e+00  1.0012951906323240e+00  1.0012957239186957e+00  1.0012960284159569e+00  1.0012961377467895e+00  1.0138296036900269e+00  1.0044873316087433e+00  1.0058748358692748e+00  1.0019977827899120e+00  1.0029219224255026e+00  1.0029056036818000e+00  1.0026015538247803e+00  1.0016996238432265e+00  1.0008094124526326e+00  1.0005793359048192e+00  1.0008035061959479e+00  1.0010382313293917e+00  1.0011784377525199e+00  1.0012646183832441e+00  1.0013205713841431e+00  1.0013497163990912e+00  1.0013541320468415e+00  1.0013423403609114e+00  1.0013252178583758e+00  1.0013101633172088e+00  1.0012998226394103e+00  1.0012939934835889e+00  1.0012915405539866e+00  1.0012912582103133e+00  1.0012921112735556e+00  1.0012933194737437e+00  1.0012944017228838e+00  1.0012951554098088e+00  1.0012955810129216e+00  1.0012957799100048e+00  1.0012958285559819e+00  1.0122845005492278e+00  1.0031836189097405e+00  1.0076728577441709e+00  1.0025916723012551e+00  1.0032520113554326e+00  1.0029501164069090e+00  1.0022674325904253e+00  1.0010339197458418e+00  1.0003353310793486e+00  1.0004297156716810e+00  1.0007727868545453e+00  1.0010401414507022e+00  1.0012117433831913e+00  1.0013118626083073e+00  1.0013628778744788e+00  1.0013777730763069e+00  1.0013669475967497e+00  1.0013439563120299e+00  1.0013207985719292e+00  1.0013036304483798e+00  1.0012934890795069e+00  1.0012889794508888e+00  1.0012881674027339e+00  1.0012893465367760e+00  1.0012912408225472e+00  1.0012930338963799e+00  1.0012943347821346e+00  1.0012950813173687e+00  1.0012954075681779e+00  1.0012955036397180e+00  1.0012955050404078e+00  1.0111958005880366e+00  1.0038528224727892e+00  1.0061611457647024e+00  1.0059908876815031e+00  1.0027603789747082e+00  1.0030662934223509e+00  1.0015734305506636e+00  1.0003245928057904e+00  1.0000523933661822e+00  1.0003865339810154e+00  1.0007442460776752e+00  1.0010268976056798e+00  1.0012311364286892e+00  1.0013509115422914e+00  1.0014005809304536e+00  1.0014017243860198e+00  1.0013766328426226e+00  1.0013443681728189e+00  1.0013167128201221e+00  1.0012980214785527e+00  1.0012880392585719e+00  1.0012845990177610e+00  1.0012851771768687e+00  1.0012876208660839e+00  1.0012904161363325e+00  1.0012927083365066e+00  1.0012941916521612e+00  1.0012949325343938e+00  1.0012951750339412e+00  1.0012951854043191e+00  1.0012951531837035e+00  1.0109269639839047e+00  1.0038257127728716e+00  1.0054785118919014e+00  1.0070427735663408e+00  1.0045050155730002e+00  1.0023607719780918e+00  1.0006753950146101e+00  9.9978786500560546e-01  9.9997747514426527e-01  1.0003835684911222e+00  1.0007162626138888e+00  1.0010110154448506e+00  1.0012399476742864e+00  1.0013782066826959e+00  1.0014283763227620e+00  1.0014183717262846e+00  1.0013823461895119e+00  1.0013437728179717e+00  1.0013133163851173e+00  1.0012936735754929e+00  1.0012838044535717e+00  1.0012811377782709e+00  1.0012827595758342e+00  1.0012861669153517e+00  1.0012896467810637e+00  1.0012923143920733e+00  1.0012939354290744e+00  1.0012946758722250e+00  1.0012948613406751e+00  1.0012948150881402e+00  1.0012947629895679e+00  1.0108124165821726e+00  1.0037163120982642e+00  1.0055029382592271e+00  1.0065486995130029e+00  1.0071766908897737e+00  1.0011357728958219e+00  9.9987790154911727e-01  9.9955763463496383e-01  1.0000222716425191e+00  1.0003775549961387e+00  1.0006996005521844e+00  1.0010016237815522e+00  1.0012427912316118e+00  1.0013909238887047e+00  1.0014410871323931e+00  1.0014252061718714e+00  1.0013839111657554e+00  1.0013425495230592e+00  1.0013108764753886e+00  1.0012908009224915e+00  1.0012810203070233e+00  1.0012788130660777e+00  1.0012810577778148e+00  1.0012850417471879e+00  1.0012889299942862e+00  1.0012918234275925e+00  1.0012935354675820e+00  1.0012942871728938e+00  1.0012944528612591e+00  1.0012943857822501e+00  1.0012943281444135e+00  1.0110208312125046e+00  1.0036018909583155e+00  1.0055574646806207e+00  1.0064844434392566e+00  1.0075053906164426e+00  1.0014621075619532e+00  9.9916196658281020e-01  9.9967805495499573e-01  1.0000660403761510e+00  1.0003732728639139e+00  1.0007011360610942e+00  1.0010023313923795e+00  1.0012424134428168e+00  1.0013872754335040e+00  1.0014358112308883e+00  1.0014210756574733e+00  1.0013814039285536e+00  1.0013408947003581e+00  1.0013094854588449e+00  1.0012894978635687e+00  1.0012798163021672e+00  1.0012777512555238e+00  1.0012801540217064e+00  1.0012842745834822e+00  1.0012882601947268e+00  1.0012912172730664e+00  1.0012929735546250e+00  1.0012937554776680e+00  1.0012939437411321e+00  1.0012938942087806e+00  1.0012938463056711e+00  1.0116240577958426e+00  1.0032816570088900e+00  1.0059580373395562e+00  1.0066004503188919e+00  1.0058376947529486e+00  1.0024804068698143e+00  9.9939332599821273e-01  9.9989442547145357e-01  1.0000793728730539e+00  1.0003938080417512e+00  1.0007185422416811e+00  1.0010133960986072e+00  1.0012376894972277e+00  1.0013668211896178e+00  1.0014132533515019e+00  1.0014065016170370e+00  1.0013748536018505e+00  1.0013386848427277e+00  1.0013090747203119e+00  1.0012897543089254e+00  1.0012802058895360e+00  1.0012779679439163e+00  1.0012800552761547e+00  1.0012838634995944e+00  1.0012876324803541e+00  1.0012904928088733e+00  1.0012922476222459e+00  1.0012930834370106e+00  1.0012933361778271e+00  1.0012933413349789e+00  1.0012933184893726e+00  1.0119019947997994e+00  1.0029885544502299e+00  1.0065813577511358e+00  1.0061616032330292e+00  1.0039742013928410e+00  1.0026083471037597e+00  1.0009759751937783e+00  9.9998755778151405e-01  1.0001478912983737e+00  1.0004360603127094e+00  1.0007509813906950e+00  1.0010305229981911e+00  1.0012238306711034e+00  1.0013310028631948e+00  1.0013774514264495e+00  1.0013834052389523e+00  1.0013642304028754e+00  1.0013355467185834e+00  1.0013094388234587e+00  1.0012914537735804e+00  1.0012820829031728e+00  1.0012793649524259e+00  1.0012806920734587e+00  1.001283776750481