<?xml version="1.0"?>
<VTKFile type="UnstructuredGrid"  version="0.1"  >
<UnstructuredGrid>
<Piece  NumberOfPoints="588" NumberOfCells="2160">
<Points>
<DataArray  type="Float64"  NumberOfComponents="3"  format="ascii">0 0 0  0.5 0 0  1 0 0  1.5 0 0  2 0 0  2.5 0 0  3 0 0  3.5 0 0  4 0 0  4.5 0 0  5 0 0  5.5 0 0  6 0 0  6.5 0 0  7 0 0  7.5 0 0  8 0 0  8.5 0 0  9 0 0  9.5 0 0  10 0 0  0 0.5 0  0.5 0.5 0  1 0.5 0  1.5 0.5 0  2 0.5 0  2.5 0.5 0  3 0.5 0  3.5 0.5 0  4 0.5 0  4.5 0.5 0  5 0.5 0  5.5 0.5 0  6 0.5 0  6.5 0.5 0  7 0.5 0  7.5 0.5 0  8 0.5 0  8.5 0.5 0  9 0.5 0  9.5 0.5 0  10 0.5 0  0 1 0  0.5 1 0  1 1 0  1.5 1 0  2 1 0  2.5 1 0  3 1 0  3.5 1 0  4 1 0  4.5 1 0  5 1 0  5.5 1 0  6 1 0  6.5 1 0  7 1 0  7.5 1 0  8 1 0  8.5 1 0  9 1 0  9.5 1 0  10 1 0  0 1.5 0  0.5 1.5 0  1 1.5 0  1.5 1.5 0  2 1.5 0  2.5 1.5 0  3 1.5 0  3.5 1.5 0  4 1.5 0  4.5 1.5 0  5 1.5 0  5.5 1.5 0  6 1.5 0  6.5 1.5 0  7 1.5 0  7.5 1.5 0  8 1.5 0  8.5 1.5 0  9 1.5 0  9.5 1.5 0  10 1.5 0  0 2 0  0.5 2 0  1 2 0  1.5 2 0  2 2 0  2.5 2 0  3 2 0  3.5 2 0  4 2 0  4.5 2 0  5 2 0  5.5 2 0  6 2 0  6.5 2 0  7 2 0  7.5 2 0  8 2 0  8.5 2 0  9 2 0  9.5 2 0  10 2 0  0 2.5 0  0.5 2.5 0  1 2.5 0  1.5 2.5 0  2 2.5 0  2.5 2.5 0  3 2.5 0  3.5 2.5 0  4 2.5 0  4.5 2.5 0  5 2.5 0  5.5 2.5 0  6 2.5 0  6.5 2.5 0  7 2.5 0  7.5 2.5 0  8 2.5 0  8.5 2.5 0  9 2.5 0  9.5 2.5 0  10 2.5 0  0 3 0  0.5 3 0  1 3 0  1.5 3 0  2 3 0  2.5 3 0  3 3 0  3.5 3 0  4 3 0  4.5 3 0  5 3 0  5.5 3 0  6 3 0  6.5 3 0  7 3 0  7.5 3 0  8 3 0  8.5 3 0  9 3 0  9.5 3 0  10 3 0  0 0 0.1666666666666667  0.5 0 0.1666666666666667  1 0 0.1666666666666667  1.5 0 0.1666666666666667  2 0 0.1666666666666667  2.5 0 0.1666666666666667  3 0 0.1666666666666667  3.5 0 0.1666666666666667  4 0 0.1666666666666667  4.5 0 0.1666666666666667  5 0 0.1666666666666667  5.5 0 0.1666666666666667  6 0 0.1666666666666667  6.5 0 0.1666666666666667  7 0 0.1666666666666667  7.5 0 0.1666666666666667  8 0 0.1666666666666667  8.5 0 0.1666666666666667  9 0 0.1666666666666667  9.5 0 0.1666666666666667  10 0 0.1666666666666667  0 0.5 0.1666666666666667  0.5 0.5 0.1666666666666667  1 0.5 0.1666666666666667  1.5 0.5 0.1666666666666667  2 0.5 0.1666666666666667  2.5 0.5 0.1666666666666667  3 0.5 0.1666666666666667  3.5 0.5 0.1666666666666667  4 0.5 0.1666666666666667  4.5 0.5 0.1666666666666667  5 0.5 0.1666666666666667  5.5 0.5 0.1666666666666667  6 0.5 0.1666666666666667  6.5 0.5 0.1666666666666667  7 0.5 0.1666666666666667  7.5 0.5 0.1666666666666667  8 0.5 0.1666666666666667  8.5 0.5 0.1666666666666667  9 0.5 0.1666666666666667  9.5 0.5 0.1666666666666667  10 0.5 0.1666666666666667  0 1 0.1666666666666667  0.5 1 0.1666666666666667  1 1 0.1666666666666667  1.5 1 0.1666666666666667  2 1 0.1666666666666667  2.5 1 0.1666666666666667  3 1 0.1666666666666667  3.5 1 0.1666666666666667  4 1 0.1666666666666667  4.5 1 0.1666666666666667  5 1 0.1666666666666667  5.5 1 0.1666666666666667  6 1 0.1666666666666667  6.5 1 0.1666666666666667  7 1 0.1666666666666667  7.5 1 0.1666666666666667  8 1 0.1666666666666667  8.5 1 0.1666666666666667  9 1 0.1666666666666667  9.5 1 0.1666666666666667  10 1 0.1666666666666667  0 1.5 0.1666666666666667  0.5 1.5 0.1666666666666667  1 1.5 0.1666666666666667  1.5 1.5 0.1666666666666667  2 1.5 0.1666666666666667  2.5 1.5 0.1666666666666667  3 1.5 0.1666666666666667  3.5 1.5 0.1666666666666667  4 1.5 0.1666666666666667  4.5 1.5 0.1666666666666667  5 1.5 0.1666666666666667  5.5 1.5 0.1666666666666667  6 1.5 0.1666666666666667  6.5 1.5 0.1666666666666667  7 1.5 0.1666666666666667  7.5 1.5 0.1666666666666667  8 1.5 0.1666666666666667  8.5 1.5 0.1666666666666667  9 1.5 0.1666666666666667  9.5 1.5 0.1666666666666667  10 1.5 0.1666666666666667  0 2 0.1666666666666667  0.5 2 0.1666666666666667  1 2 0.1666666666666667  1.5 2 0.1666666666666667  2 2 0.1666666666666667  2.5 2 0.1666666666666667  3 2 0.1666666666666667  3.5 2 0.1666666666666667  4 2 0.1666666666666667  4.5 2 0.1666666666666667  5 2 0.1666666666666667  5.5 2 0.1666666666666667  6 2 0.1666666666666667  6.5 2 0.1666666666666667  7 2 0.1666666666666667  7.5 2 0.1666666666666667  8 2 0.1666666666666667  8.5 2 0.1666666666666667  9 2 0.1666666666666667  9.5 2 0.1666666666666667  10 2 0.1666666666666667  0 2.5 0.1666666666666667  0.5 2.5 0.1666666666666667  1 2.5 0.1666666666666667  1.5 2.5 0.1666666666666667  2 2.5 0.1666666666666667  2.5 2.5 0.1666666666666667  3 2.5 0.1666666666666667  3.5 2.5 0.1666666666666667  4 2.5 0.1666666666666667  4.5 2.5 0.1666666666666667  5 2.5 0.1666666666666667  5.5 2.5 0.1666666666666667  6 2.5 0.1666666666666667  6.5 2.5 0.1666666666666667  7 2.5 0.1666666666666667  7.5 2.5 0.1666666666666667  8 2.5 0.1666666666666667  8.5 2.5 0.1666666666666667  9 2.5 0.1666666666666667  9.5 2.5 0.1666666666666667  10 2.5 0.1666666666666667  0 3 0.1666666666666667  0.5 3 0.1666666666666667  1 3 0.1666666666666667  1.5 3 0.1666666666666667  2 3 0.1666666666666667  2.5 3 0.1666666666666667  3 3 0.1666666666666667  3.5 3 0.1666666666666667  4 3 0.1666666666666667  4.5 3 0.1666666666666667  5 3 0.1666666666666667  5.5 3 0.1666666666666667  6 3 0.1666666666666667  6.5 3 0.1666666666666667  7 3 0.1666666666666667  7.5 3 0.1666666666666667  8 3 0.1666666666666667  8.5 3 0.1666666666666667  9 3 0.1666666666666667  9.5 3 0.1666666666666667  10 3 0.1666666666666667  0 0 0.3333333333333333  0.5 0 0.3333333333333333  1 0 0.3333333333333333  1.5 0 0.3333333333333333  2 0 0.3333333333333333  2.5 0 0.3333333333333333  3 0 0.3333333333333333  3.5 0 0.3333333333333333  4 0 0.3333333333333333  4.5 0 0.3333333333333333  5 0 0.3333333333333333  5.5 0 0.3333333333333333  6 0 0.3333333333333333  6.5 0 0.3333333333333333  7 0 0.3333333333333333  7.5 0 0.3333333333333333  8 0 0.3333333333333333  8.5 0 0.3333333333333333  9 0 0.3333333333333333  9.5 0 0.3333333333333333  10 0 0.3333333333333333  0 0.5 0.3333333333333333  0.5 0.5 0.3333333333333333  1 0.5 0.3333333333333333  1.5 0.5 0.3333333333333333  2 0.5 0.3333333333333333  2.5 0.5 0.3333333333333333  3 0.5 0.3333333333333333  3.5 0.5 0.3333333333333333  4 0.5 0.3333333333333333  4.5 0.5 0.3333333333333333  5 0.5 0.3333333333333333  5.5 0.5 0.3333333333333333  6 0.5 0.3333333333333333  6.5 0.5 0.3333333333333333  7 0.5 0.3333333333333333  7.5 0.5 0.3333333333333333  8 0.5 0.3333333333333333  8.5 0.5 0.3333333333333333  9 0.5 0.3333333333333333  9.5 0.5 0.3333333333333333  10 0.5 0.3333333333333333  0 1 0.3333333333333333  0.5 1 0.3333333333333333  1 1 0.3333333333333333  1.5 1 0.3333333333333333  2 1 0.3333333333333333  2.5 1 0.3333333333333333  3 1 0.3333333333333333  3.5 1 0.3333333333333333  4 1 0.3333333333333333  4.5 1 0.3333333333333333  5 1 0.3333333333333333  5.5 1 0.3333333333333333  6 1 0.3333333333333333  6.5 1 0.3333333333333333  7 1 0.3333333333333333  7.5 1 0.3333333333333333  8 1 0.3333333333333333  8.5 1 0.3333333333333333  9 1 0.3333333333333333  9.5 1 0.3333333333333333  10 1 0.3333333333333333  0 1.5 0.3333333333333333  0.5 1.5 0.3333333333333333  1 1.5 0.3333333333333333  1.5 1.5 0.3333333333333333  2 1.5 0.3333333333333333  2.5 1.5 0.3333333333333333  3 1.5 0.3333333333333333  3.5 1.5 0.3333333333333333  4 1.5 0.3333333333333333  4.5 1.5 0.3333333333333333  5 1.5 0.3333333333333333  5.5 1.5 0.3333333333333333  6 1.5 0.3333333333333333  6.5 1.5 0.3333333333333333  7 1.5 0.3333333333333333  7.5 1.5 0.3333333333333333  8 1.5 0.3333333333333333  8.5 1.5 0.3333333333333333  9 1.5 0.3333333333333333  9.5 1.5 0.3333333333333333  10 1.5 0.3333333333333333  0 2 0.3333333333333333  0.5 2 0.3333333333333333  1 2 0.3333333333333333  1.5 2 0.3333333333333333  2 2 0.3333333333333333  2.5 2 0.3333333333333333  3 2 0.3333333333333333  3.5 2 0.3333333333333333  4 2 0.3333333333333333  4.5 2 0.3333333333333333  5 2 0.3333333333333333  5.5 2 0.3333333333333333  6 2 0.3333333333333333  6.5 2 0.3333333333333333  7 2 0.3333333333333333  7.5 2 0.3333333333333333  8 2 0.3333333333333333  8.5 2 0.3333333333333333  9 2 0.3333333333333333  9.5 2 0.3333333333333333  10 2 0.3333333333333333  0 2.5 0.3333333333333333  0.5 2.5 0.3333333333333333  1 2.5 0.3333333333333333  1.5 2.5 0.3333333333333333  2 2.5 0.3333333333333333  2.5 2.5 0.3333333333333333  3 2.5 0.3333333333333333  3.5 2.5 0.3333333333333333  4 2.5 0.3333333333333333  4.5 2.5 0.3333333333333333  5 2.5 0.3333333333333333  5.5 2.5 0.3333333333333333  6 2.5 0.3333333333333333  6.5 2.5 0.3333333333333333  7 2.5 0.3333333333333333  7.5 2.5 0.3333333333333333  8 2.5 0.3333333333333333  8.5 2.5 0.3333333333333333  9 2.5 0.3333333333333333  9.5 2.5 0.3333333333333333  10 2.5 0.3333333333333333  0 3 0.3333333333333333  0.5 3 0.3333333333333333  1 3 0.3333333333333333  1.5 3 0.3333333333333333  2 3 0.3333333333333333  2.5 3 0.3333333333333333  3 3 0.3333333333333333  3.5 3 0.3333333333333333  4 3 0.3333333333333333  4.5 3 0.3333333333333333  5 3 0.3333333333333333  5.5 3 0.3333333333333333  6 3 0.3333333333333333  6.5 3 0.3333333333333333  7 3 0.3333333333333333  7.5 3 0.3333333333333333  8 3 0.3333333333333333  8.5 3 0.3333333333333333  9 3 0.3333333333333333  9.5 3 0.3333333333333333  10 3 0.3333333333333333  0 0 0.5  0.5 0 0.5  1 0 0.5  1.5 0 0.5  2 0 0.5  2.5 0 0.5  3 0 0.5  3.5 0 0.5  4 0 0.5  4.5 0 0.5  5 0 0.5  5.5 0 0.5  6 0 0.5  6.5 0 0.5  7 0 0.5  7.5 0 0.5  8 0 0.5  8.5 0 0.5  9 0 0.5  9.5 0 0.5  10 0 0.5  0 0.5 0.5  0.5 0.5 0.5  1 0.5 0.5  1.5 0.5 0.5  2 0.5 0.5  2.5 0.5 0.5  3 0.5 0.5  3.5 0.5 0.5  4 0.5 0.5  4.5 0.5 0.5  5 0.5 0.5  5.5 0.5 0.5  6 0.5 0.5  6.5 0.5 0.5  7 0.5 0.5  7.5 0.5 0.5  8 0.5 0.5  8.5 0.5 0.5  9 0.5 0.5  9.5 0.5 0.5  10 0.5 0.5  0 1 0.5  0.5 1 0.5  1 1 0.5  1.5 1 0.5  2 1 0.5  2.5 1 0.5  3 1 0.5  3.5 1 0.5  4 1 0.5  4.5 1 0.5  5 1 0.5  5.5 1 0.5  6 1 0.5  6.5 1 0.5  7 1 0.5  7.5 1 0.5  8 1 0.5  8.5 1 0.5  9 1 0.5  9.5 1 0.5  10 1 0.5  0 1.5 0.5  0.5 1.5 0.5  1 1.5 0.5  1.5 1.5 0.5  2 1.5 0.5  2.5 1.5 0.5  3 1.5 0.5  3.5 1.5 0.5  4 1.5 0.5  4.5 1.5 0.5  5 1.5 0.5  5.5 1.5 0.5  6 1.5 0.5  6.5 1.5 0.5  7 1.5 0.5  7.5 1.5 0.5  8 1.5 0.5  8.
[...]
<PointData  Scalars="f_7-2"> 
<DataArray  type="Float64"  Name="f_7-2"  format="ascii">1.1749475568968326e+00  1.1607066220004998e+00  1.1610360160967241e+00  1.1633781145577933e+00  1.1639491874136145e+00  1.1640450482888747e+00  1.1640604238386794e+00  1.1640612339068843e+00  1.1640590952338583e+00  1.1640570972881126e+00  1.1640558028315628e+00  1.1640550493065722e+00  1.1640546260072633e+00  1.1640543923752256e+00  1.1640542647276511e+00  1.1640541953669103e+00  1.1640541578392583e+00  1.1640541377019216e+00  1.1640541271580571e+00  1.1640541221363390e+00  1.1640541206477677e+00  1.1650805222698113e+00  1.1716223214750139e+00  1.1629596400300868e+00  1.1638833194774321e+00  1.1640730330192128e+00  1.1640617269385238e+00  1.1640640442329775e+00  1.1640616932953249e+00  1.1640586870087382e+00  1.1640566917737418e+00  1.1640555421547967e+00  1.1640548973070151e+00  1.1640545403350049e+00  1.1640543450442866e+00  1.1640542388564452e+00  1.1640541812788312e+00  1.1640541501588197e+00  1.1640541334717762e+00  1.1640541247374263e+00  1.1640541206081798e+00  1.1640541193883716e+00  1.1693300741428332e+00  1.1783049176638316e+00  1.1658385235319495e+00  1.1643293318534638e+00  1.1642294394403010e+00  1.1640948019430142e+00  1.1640710198806947e+00  1.1640616362015102e+00  1.1640574821989811e+00  1.1640557612740554e+00  1.1640549670749487e+00  1.1640545645598603e+00  1.1640543539825148e+00  1.1640542425537612e+00  1.1640541829319360e+00  1.1640541508427655e+00  1.1640541335690091e+00  1.1640541243308871e+00  1.1640541195052081e+00  1.1640541172766909e+00  1.1640541165843712e+00  1.1720450643174398e+00  1.1802901586987846e+00  1.1670307956121739e+00  1.1642720790419436e+00  1.1642914122768646e+00  1.1641000863519073e+00  1.1640662857959485e+00  1.1640579154924879e+00  1.1640549542821110e+00  1.1640542967787411e+00  1.1640541454024156e+00  1.1640541091155838e+00  1.1640541049080741e+00  1.1640541071292005e+00  1.1640541094130317e+00  1.1640541109335023e+00  1.1640541118416323e+00  1.1640541123602584e+00  1.1640541126480901e+00  1.1640541128718800e+00  1.1640541128754933e+00  1.1713795261445734e+00  1.1773115732997239e+00  1.1661675212037914e+00  1.1638731678132499e+00  1.1641461056780851e+00  1.1640493678607082e+00  1.1640480494045815e+00  1.1640503031673046e+00  1.1640513409659932e+00  1.1640525672598721e+00  1.1640532514039090e+00  1.1640536366531165e+00  1.1640538532123570e+00  1.1640539719142007e+00  1.1640540364444252e+00  1.1640540714478504e+00  1.1640540903785488e+00  1.1640541005425937e+00  1.1640541058727187e+00  1.1640541084908527e+00  1.1640541091904812e+00  1.1668158878584598e+00  1.1724616224916309e+00  1.1639921634332311e+00  1.1628803473007514e+00  1.1638897852329850e+00  1.1640068431403237e+00  1.1640251898399225e+00  1.1640417952832585e+00  1.1640482401781651e+00  1.1640511214836915e+00  1.1640525388100667e+00  1.1640532741232921e+00  1.1640536633320877e+00  1.1640538707185182e+00  1.1640539820599263e+00  1.1640540420872951e+00  1.1640540744327148e+00  1.1640540917554505e+00  1.1640541008190857e+00  1.1640541052092579e+00  1.1640541064334431e+00  1.1729524091778942e+00  1.1611897495853432e+00  1.1574697955999911e+00  1.1621357058878026e+00  1.1640296761029800e+00  1.1639650414696328e+00  1.1640051464848207e+00  1.1640395383044131e+00  1.1640468741765653e+00  1.1640504104202305e+00  1.1640522186260509e+00  1.1640531128735470e+00  1.1640535790785138e+00  1.1640538257190343e+00  1.1640539579136342e+00  1.1640540290766406e+00  1.1640540673701467e+00  1.1640540878707966e+00  1.1640540986036036e+00  1.1640541037528125e+00  1.1640541051238971e+00  1.2025630220140295e+00  1.1534135767328670e+00  1.1614543878439492e+00  1.1634555995110383e+00  1.1639546242101708e+00  1.1640451383636101e+00  1.1640602078969131e+00  1.1640613181068642e+00  1.1640591214708627e+00  1.1640570876188683e+00  1.1640557956955178e+00  1.1640550456869421e+00  1.1640546238902945e+00  1.1640543911493948e+00  1.1640542640519385e+00  1.1640541949986247e+00  1.1640541576383585e+00  1.1640541375889846e+00  1.1640541270926239e+00  1.1640541221033407e+00  1.1640541205347270e+00  1.2128238705026071e+00  1.1615558335711298e+00  1.1639085287013808e+00  1.1640811931776989e+00  1.1640044901318420e+00  1.1640542062499624e+00  1.1640639145642142e+00  1.1640617104195323e+00  1.1640586552947896e+00  1.1640567029786668e+00  1.1640555620418234e+00  1.1640549098453792e+00  1.1640545472852672e+00  1.1640543489372859e+00  1.1640542410116923e+00  1.1640541824547057e+00  1.1640541507991895e+00  1.1640541338211317e+00  1.1640541249418004e+00  1.1640541207149007e+00  1.1640541195076446e+00  1.2156409664690990e+00  1.1723072162049972e+00  1.1649613034921384e+00  1.1647066407139293e+00  1.1641666912713475e+00  1.1641009771910096e+00  1.1640733918437467e+00  1.1640616650397346e+00  1.1640575099703270e+00  1.1640558013700191e+00  1.1640549867158170e+00  1.1640545722874334e+00  1.1640543577809381e+00  1.1640542445983786e+00  1.1640541840045759e+00  1.1640541514082385e+00  1.1640541338729318e+00  1.1640541244960694e+00  1.1640541196095229e+00  1.1640541173161085e+00  1.1640541166725331e+00  1.2191999105041404e+00  1.1746102677780812e+00  1.1647656584482515e+00  1.1649710502567756e+00  1.1642454729752258e+00  1.1641010872959534e+00  1.1640694976480799e+00  1.1640578380725897e+00  1.1640550344021743e+00  1.1640543489458177e+00  1.1640541582425930e+00  1.1640541127255162e+00  1.1640541067241477e+00  1.1640541079770046e+00  1.1640541097881565e+00  1.1640541111157008e+00  1.1640541119361438e+00  1.1640541124105213e+00  1.1640541126858770e+00  1.1640541128564310e+00  1.1640541129566764e+00  1.2178927355997822e+00  1.1712382961175078e+00  1.1641931446670868e+00  1.1645911893727168e+00  1.1640975980462198e+00  1.1640456630632003e+00  1.1640524184047141e+00  1.1640498281593914e+00  1.1640514533109705e+00  1.1640525987645032e+00  1.1640532469136637e+00  1.1640536343736512e+00  1.1640538518795305e+00  1.1640539709434394e+00  1.1640540358411573e+00  1.1640540711088230e+00  1.1640540901899403e+00  1.1640541004359624e+00  1.1640541058186882e+00  1.1640541084198877e+00  1.1640541092410484e+00  1.2032123387723876e+00  1.1679065189479996e+00  1.1614293148876809e+00  1.1634368623526543e+00  1.1639430723757922e+00  1.1639859773824066e+00  1.1640256869338566e+00  1.1640419314179402e+00  1.1640482302785802e+00  1.1640510852476464e+00  1.1640525196057212e+00  1.1640532663135896e+00  1.1640536589810495e+00  1.1640538681560404e+00  1.1640539806730485e+00  1.1640540413451628e+00  1.1640540740278167e+00  1.1640540915344366e+00  1.1640541007022078e+00  1.1640541050973354e+00  1.1640541064413295e+00  1.2538944028904861e+00  1.1413708410383625e+00  1.1571838603229094e+00  1.1640734979336052e+00  1.1639084961353090e+00  1.1638967093957395e+00  1.1640204836792576e+00  1.1640402226278084e+00  1.1640464884503889e+00  1.1640504645311862e+00  1.1640522299659954e+00  1.1640531173309598e+00  1.1640535805715229e+00  1.1640538264186486e+00  1.1640539583633169e+00  1.1640540293067330e+00  1.1640540674859816e+00  1.1640540879310253e+00  1.1640540986276016e+00  1.1640541037290988e+00  1.1640541052462323e+00  1.1744501865970121e+00  1.1603544046058416e+00  1.1607859625184180e+00  1.1633976818670286e+00  1.1639849596371328e+00  1.1640423226994701e+00  1.1640592549362052e+00  1.1640615234258422e+00  1.1640591619384753e+00  1.1640570862300206e+00  1.1640557997977086e+00  1.1640550489116419e+00  1.1640546254495399e+00  1.1640543919699524e+00  1.1640542645084908e+00  1.1640541952478873e+00  1.1640541577735144e+00  1.1640541376615827e+00  1.1640541271401801e+00  1.1640541221410197e+00  1.1640541205362802e+00  1.1764232154840120e+00  1.1679719430445759e+00  1.1637128243670589e+00  1.1640017828118707e+00  1.1640267463159333e+00  1.1640528300217814e+00  1.1640651283363053e+00  1.1640620194898004e+00  1.1640586404498487e+00  1.1640567065242979e+00  1.1640555658109524e+00  1.1640549094276589e+00  1.1640545465369427e+00  1.1640543485080870e+00  1.1640542407580887e+00  1.1640541823054638e+00  1.1640541507154440e+00  1.1640541337753088e+00  1.1640541249187211e+00  1.1640541207067807e+00  1.1640541195091223e+00  1.1813141775352063e+00  1.1745457875640848e+00  1.1660214878125867e+00  1.1644693658070802e+00  1.1641746705137686e+00  1.1641097413312478e+00  1.1640743957381432e+00  1.1640615850706153e+00  1.1640575166194724e+00  1.1640558277603255e+00  1.1640549889205665e+00  1.1640545701472067e+00  1.1640543566093666e+00  1.1640542438953769e+00  1.1640541835554596e+00  1.1640541511472147e+00  1.1640541337273091e+00  1.1640541244148284e+00  1.1640541195641727e+00  1.1640541172965986e+00  1.1640541166377452e+00  1.1848324596964095e+00  1.1766752289763887e+00  1.1661545609899959e+00  1.1647812196931875e+00  1.1642330190840511e+00  1.1641097936664597e+00  1.1640685060831366e+00  1.1640575012866587e+00  1.1640551099484375e+00  1.1640543646455335e+00  1.1640541523995120e+00  1.1640541108143514e+00  1.1640541060874716e+00  1.1640541074543622e+00  1.1640541094505286e+00  1.1640541109273050e+00  1.1640541118308327e+00  1.1640541123509558e+00  1.1640541126506883e+00  1.1640541128395323e+00  1.1640541129271027e+00  1.1833795760791657e+00  1.1737690790884654e+00  1.1655977455629816e+00  1.1644035500721157e+00  1.1640545596334126e+00  1.1640547469192739e+00  1.1640512076508300e+00  1.1640495334979661e+00  1.1640515641765099e+00  1.1640525801874890e+00  1.1640532390633089e+00  1.1640536337511447e+00  1.1640538513182488e+00  1.1640539704480681e+00  1.1640540355721087e+00  1.1640540709667857e+00  1.1640540901092926e+00  1.1640541003897533e+00  1.1640541057900480e+00  1.1640541084047960e+00  1.1640541092100105e+00  1.1715390096308700e+00  1.1722706373477021e+00  1.1620296326705828e+00  1.1633712986352869e+00  1.1639114163960487e+00  1.1639812274545009e+00  1.1640277666268812e+00  1.1640418423931338e+00  1.1640481777113878e+00  1.1640510843484797e+00  1.1640525195743758e+00  1.1640532680751092e+00  1.1640536594147257e+00  1.1640538682888408e+00  1.1640539807999513e+00  1.1640540414144129e+00  1.1640540740609664e+00  1.1640540915515190e+00  1.1640541007085072e+00  1.1640541051008662e+00  1.1640541064238668e+00  1.2090964427992561e+00  1.1399313696930597e+00  1.1598532788996809e+00  1.1638636548318595e+00  1.1636671776014091e+00  1.1639329207446636e+00  1.1640282901028762e+00  1.1640372470654756e+00  1.1640467171687596e+00  1.1640505069373761e+00  1.1640522262373252e+00  1.1640531209625071e+00  1.1640535813492894e+00  1.1640538271235963e+00  1.1640539587813883e+00  1.1640540295109063e+00  1.1640540675981790e+00  1.1640540879943087e+00  1.1640540986623928e+00  1.1640541037652326e+00  1.1640541052413880e+00  1.2526106987927170e+00  1.1478953844346329e+00  1.1604526433664915e+00  1.1639120987202030e+00  1.1639527918269281e+00  1.1640304278033087e+00  1.1640618433594090e+00  1.1640619931534122e+00  1.1640590440617644e+00  1.1640570573755260e+00  1.1640557924397681e+00  1.1640550418533240e+00  1.1640546209828653e+00  1.1640543895803739e+00  1.1640542632105184e+00  1.1640541945359755e+00  1.1640541573861471e+00  1.1640541374540834e+00  1.1640541270343219e+00  1.1640541220437290e+00  1.1640541205041315e+00  1.2557134630060423e+00  1.1522284898211366e+00  1.1652941703512094e+00  1.1641678360355145e+00  1.1639037150101710e+00  1.1640571868414171e+00  1.1640681598008802e+00  1.1640611153469376e+00  1.1640584373072660e+00  1.1640567129717108e+00  1.1640555599545435e+00  1.1640549036299990e+00  1.1640545443881727e+00  1.1640543475574021e+00  1.1640542402284737e+00  1.1640541820166792e+00  1.1640541505591813e+00  1.1640541336877903e+00  1.1640541248653853e+00  1.1640541206444321e+00  1.1640541194867655e+00  1.2428488745664992e+00  1.1695440575792198e+00  1.1654857454990877e+00  1.1644105265638325e+00  1.1641713422564026e+00  1.1641258210912726e+00  1.1640718909157102e+00  1.1640606247860534e+00  1.1640576228851238e+00  1.1640558455281471e+00  1.1640549727683347e+00  1.1640545647387794e+00  1.1640543548613027e+00  1.1640542427537885e+00  1.1640541828804840e+00  1.1640541507854787e+00  1.1640541335300427e+00  1.1640541243053424e+00  1.1640541195045815e+00  1.1640541172290735e+00  1.1640541166401415e+00  1.2420344939320194e+00  1.1736299140939890e+00  1.1639118413080918e+00  1.1651768105102744e+00  1.1642176652012817e+00  1.1641117383112680e+00  1.1640631736244593e+00  1.1640578897757241e+00  1.1640553199511456e+00  1.1640543391503710e+00  1.1640541490464209e+00  1.1640541169855523e+00  1.1640541089084524e+00  1.1640541086454688e+00  1.1640541101279984e+00  1.1640541113050955e+00  1.1640541120315289e+00  1.1640541124593928e+00  1.1640541127126482e+00  1.1640541128504414e+00  1.1640541129906867e+00  1.2429444740206701e+00  1.1706133647882564e+00  1.1630993412621751e+00  1.1650138216968262e+00  1.1639466903667266e+00  1.1640793380156527e+00  1.1640483022362624e+00  1.1640506526634025e+00  1.1640517419951948e+00  1.1640525595052451e+00  1.1640532651612336e+00  1.1640536463548508e+00  1.1640538557133828e+00  1.1640539727288166e+00  1.1640540368567096e+00  1.1640540716436922e+00  1.1640540904675796e+00  1.1640541005856451e+00  1.1640541059020064e+00  1.1640541084605112e+00  1.1640541092995289e+00  1.2551034234014375e+00  1.1611800920709041e+00  1.1604135180613775e+00  1.1642480484148110e+00  1.1637476463421432e+00  1.1640177742355715e+00  1.1640265419606379e+00  1.1640417095928373e+00  1.1640484474614070e+00  1.1640510903183747e+00  1.1640525548866054e+00  1.1640532806395607e+00  1.1640536643514141e+00  1.1640538713556816e+00  1.1640539824652572e+00  1.1640540422776897e+00  1.1640540745278303e+00  1.1640540918112274e+00  1.1640541008613166e+00  1.1640541051925788e+00  1.1640541065267316e+00  1.2797363255717660e+00  1.1353946643797219e+00  1.1594840709982266e+00  1.1640980105979288e+00  1.1635746809450687e+00  1.1639867851956274e+00  1.1640160791751084e+00  1.1640372101801848e+00  1.1640471585767220e+00  1.1640503916205389e+00  1.1640522303185812e+00  1.1640531149209208e+00  1.1640535782049408e+00  1.1640538259730864e+00  1.1640539580376605e+00  1.1640540290949837e+00  1.1640540673798612e+00  1.1640540878744781e+00  1.1640540985942687e+00  1.1640541037143273e+00  1.1640541052466824e+00  </DataArray> 
</PointData> 
</Piece>
</UnstructuredGrid>
</VTKFile>