<?xml version="1.0"?>
<VTKFile type="UnstructuredGrid"  version="0.1"  >
<UnstructuredGrid>
<Piece  NumberOfPoints="882" NumberOfCells="3600">
<Points>
<DataArray  type="Float64"  NumberOfComponents="3"  format="ascii">0 0 0  0.5 0 0  1 0 0  1.5 0 0  2 0 0  2.5 0 0  3 0 0  3.5 0 0  4 0 0  4.5 0 0  5 0 0  5.5 0 0  6 0 0  6.5 0 0  7 0 0  7.5 0 0  8 0 0  8.5 0 0  9 0 0  9.5 0 0  10 0 0  0 0.5 0  0.5 0.5 0  1 0.5 0  1.5 0.5 0  2 0.5 0  2.5 0.5 0  3 0.5 0  3.5 0.5 0  4 0.5 0  4.5 0.5 0  5 0.5 0  5.5 0.5 0  6 0.5 0  6.5 0.5 0  7 0.5 0  7.5 0.5 0  8 0.5 0  8.5 0.5 0  9 0.5 0  9.5 0.5 0  10 0.5 0  0 1 0  0.5 1 0  1 1 0  1.5 1 0  2 1 0  2.5 1 0  3 1 0  3.5 1 0  4 1 0  4.5 1 0  5 1 0  5.5 1 0  6 1 0  6.5 1 0  7 1 0  7.5 1 0  8 1 0  8.5 1 0  9 1 0  9.5 1 0  10 1 0  0 1.5 0  0.5 1.5 0  1 1.5 0  1.5 1.5 0  2 1.5 0  2.5 1.5 0  3 1.5 0  3.5 1.5 0  4 1.5 0  4.5 1.5 0  5 1.5 0  5.5 1.5 0  6 1.5 0  6.5 1.5 0  7 1.5 0  7.5 1.5 0  8 1.5 0  8.5 1.5 0  9 1.5 0  9.5 1.5 0  10 1.5 0  0 2 0  0.5 2 0  1 2 0  1.5 2 0  2 2 0  2.5 2 0  3 2 0  3.5 2 0  4 2 0  4.5 2 0  5 2 0  5.5 2 0  6 2 0  6.5 2 0  7 2 0  7.5 2 0  8 2 0  8.5 2 0  9 2 0  9.5 2 0  10 2 0  0 2.5 0  0.5 2.5 0  1 2.5 0  1.5 2.5 0  2 2.5 0  2.5 2.5 0  3 2.5 0  3.5 2.5 0  4 2.5 0  4.5 2.5 0  5 2.5 0  5.5 2.5 0  6 2.5 0  6.5 2.5 0  7 2.5 0  7.5 2.5 0  8 2.5 0  8.5 2.5 0  9 2.5 0  9.5 2.5 0  10 2.5 0  0 3 0  0.5 3 0  1 3 0  1.5 3 0  2 3 0  2.5 3 0  3 3 0  3.5 3 0  4 3 0  4.5 3 0  5 3 0  5.5 3 0  6 3 0  6.5 3 0  7 3 0  7.5 3 0  8 3 0  8.5 3 0  9 3 0  9.5 3 0  10 3 0  0 0 0.1  0.5 0 0.1  1 0 0.1  1.5 0 0.1  2 0 0.1  2.5 0 0.1  3 0 0.1  3.5 0 0.1  4 0 0.1  4.5 0 0.1  5 0 0.1  5.5 0 0.1  6 0 0.1  6.5 0 0.1  7 0 0.1  7.5 0 0.1  8 0 0.1  8.5 0 0.1  9 0 0.1  9.5 0 0.1  10 0 0.1  0 0.5 0.1  0.5 0.5 0.1  1 0.5 0.1  1.5 0.5 0.1  2 0.5 0.1  2.5 0.5 0.1  3 0.5 0.1  3.5 0.5 0.1  4 0.5 0.1  4.5 0.5 0.1  5 0.5 0.1  5.5 0.5 0.1  6 0.5 0.1  6.5 0.5 0.1  7 0.5 0.1  7.5 0.5 0.1  8 0.5 0.1  8.5 0.5 0.1  9 0.5 0.1  9.5 0.5 0.1  10 0.5 0.1  0 1 0.1  0.5 1 0.1  1 1 0.1  1.5 1 0.1  2 1 0.1  2.5 1 0.1  3 1 0.1  3.5 1 0.1  4 1 0.1  4.5 1 0.1  5 1 0.1  5.5 1 0.1  6 1 0.1  6.5 1 0.1  7 1 0.1  7.5 1 0.1  8 1 0.1  8.5 1 0.1  9 1 0.1  9.5 1 0.1  10 1 0.1  0 1.5 0.1  0.5 1.5 0.1  1 1.5 0.1  1.5 1.5 0.1  2 1.5 0.1  2.5 1.5 0.1  3 1.5 0.1  3.5 1.5 0.1  4 1.5 0.1  4.5 1.5 0.1  5 1.5 0.1  5.5 1.5 0.1  6 1.5 0.1  6.5 1.5 0.1  7 1.5 0.1  7.5 1.5 0.1  8 1.5 0.1  8.5 1.5 0.1  9 1.5 0.1  9.5 1.5 0.1  10 1.5 0.1  0 2 0.1  0.5 2 0.1  1 2 0.1  1.5 2 0.1  2 2 0.1  2.5 2 0.1  3 2 0.1  3.5 2 0.1  4 2 0.1  4.5 2 0.1  5 2 0.1  5.5 2 0.1  6 2 0.1  6.5 2 0.1  7 2 0.1  7.5 2 0.1  8 2 0.1  8.5 2 0.1  9 2 0.1  9.5 2 0.1  10 2 0.1  0 2.5 0.1  0.5 2.5 0.1  1 2.5 0.1  1.5 2.5 0.1  2 2.5 0.1  2.5 2.5 0.1  3 2.5 0.1  3.5 2.5 0.1  4 2.5 0.1  4.5 2.5 0.1  5 2.5 0.1  5.5 2.5 0.1  6 2.5 0.1  6.5 2.5 0.1  7 2.5 0.1  7.5 2.5 0.1  8 2.5 0.1  8.5 2.5 0.1  9 2.5 0.1  9.5 2.5 0.1  10 2.5 0.1  0 3 0.1  0.5 3 0.1  1 3 0.1  1.5 3 0.1  2 3 0.1  2.5 3 0.1  3 3 0.1  3.5 3 0.1  4 3 0.1  4.5 3 0.1  5 3 0.1  5.5 3 0.1  6 3 0.1  6.5 3 0.1  7 3 0.1  7.5 3 0.1  8 3 0.1  8.5 3 0.1  9 3 0.1  9.5 3 0.1  10 3 0.1  0 0 0.2  0.5 0 0.2  1 0 0.2  1.5 0 0.2  2 0 0.2  2.5 0 0.2  3 0 0.2  3.5 0 0.2  4 0 0.2  4.5 0 0.2  5 0 0.2  5.5 0 0.2  6 0 0.2  6.5 0 0.2  7 0 0.2  7.5 0 0.2  8 0 0.2  8.5 0 0.2  9 0 0.2  9.5 0 0.2  10 0 0.2  0 0.5 0.2  0.5 0.5 0.2  1 0.5 0.2  1.5 0.5 0.2  2 0.5 0.2  2.5 0.5 0.2  3 0.5 0.2  3.5 0.5 0.2  4 0.5 0.2  4.5 0.5 0.2  5 0.5 0.2  5.5 0.5 0.2  6 0.5 0.2  6.5 0.5 0.2  7 0.5 0.2  7.5 0.5 0.2  8 0.5 0.2  8.5 0.5 0.2  9 0.5 0.2  9.5 0.5 0.2  10 0.5 0.2  0 1 0.2  0.5 1 0.2  1 1 0.2  1.5 1 0.2  2 1 0.2  2.5 1 0.2  3 1 0.2  3.5 1 0.2  4 1 0.2  4.5 1 0.2  5 1 0.2  5.5 1 0.2  6 1 0.2  6.5 1 0.2  7 1 0.2  7.5 1 0.2  8 1 0.2  8.5 1 0.2  9 1 0.2  9.5 1 0.2  10 1 0.2  0 1.5 0.2  0.5 1.5 0.2  1 1.5 0.2  1.5 1.5 0.2  2 1.5 0.2  2.5 1.5 0.2  3 1.5 0.2  3.5 1.5 0.2  4 1.5 0.2  4.5 1.5 0.2  5 1.5 0.2  5.5 1.5 0.2  6 1.5 0.2  6.5 1.5 0.2  7 1.5 0.2  7.5 1.5 0.2  8 1.5 0.2  8.5 1.5 0.2  9 1.5 0.2  9.5 1.5 0.2  10 1.5 0.2  0 2 0.2  0.5 2 0.2  1 2 0.2  1.5 2 0.2  2 2 0.2  2.5 2 0.2  3 2 0.2  3.5 2 0.2  4 2 0.2  4.5 2 0.2  5 2 0.2  5.5 2 0.2  6 2 0.2  6.5 2 0.2  7 2 0.2  7.5 2 0.2  8 2 0.2  8.5 2 0.2  9 2 0.2  9.5 2 0.2  10 2 0.2  0 2.5 0.2  0.5 2.5 0.2  1 2.5 0.2  1.5 2.5 0.2  2 2.5 0.2  2.5 2.5 0.2  3 2.5 0.2  3.5 2.5 0.2  4 2.5 0.2  4.5 2.5 0.2  5 2.5 0.2  5.5 2.5 0.2  6 2.5 0.2  6.5 2.5 0.2  7 2.5 0.2  7.5 2.5 0.2  8 2.5 0.2  8.5 2.5 0.2  9 2.5 0.2  9.5 2.5 0.2  10 2.5 0.2  0 3 0.2  0.5 3 0.2  1 3 0.2  1.5 3 0.2  2 3 0.2  2.5 3 0.2  3 3 0.2  3.5 3 0.2  4 3 0.2  4.5 3 0.2  5 3 0.2  5.5 3 0.2  6 3 0.2  6.5 3 0.2  7 3 0.2  7.5 3 0.2  8 3 0.2  8.5 3 0.2  9 3 0.2  9.5 3 0.2  10 3 0.2  0 0 0.3  0.5 0 0.3  1 0 0.3  1.5 0 0.3  2 0 0.3  2.5 0 0.3  3 0 0.3  3.5 0 0.3  4 0 0.3  4.5 0 0.3  5 0 0.3  5.5 0 0.3  6 0 0.3  6.5 0 0.3  7 0 0.3  7.5 0 0.3  8 0 0.3  8.5 0 0.3  9 0 0.3  9.5 0 0.3  10 0 0.3  0 0.5 0.3  0.5 0.5 0.3  1 0.5 0.3  1.5 0.5 0.3  2 0.5 0.3  2.5 0.5 0.3  3 0.5 0.3  3.5 0.5 0.3  4 0.5 0.3  4.5 0.5 0.3  5 0.5 0.3  5.5 0.5 0.3  6 0.5 0.3  6.5 0.5 0.3  7 0.5 0.3  7.5 0.5 0.3  8 0.5 0.3  8.5 0.5 0.3  9 0.5 0.3  9.5 0.5 0.3  10 0.5 0.3  0 1 0.3  0.5 1 0.3  1 1 0.3  1.5 1 0.3  2 1 0.3  2.5 1 0.3  3 1 0.3  3.5 1 0.3  4 1 0.3  4.5 1 0.3  5 1 0.3  5.5 1 0.3  6 1 0.3  6.5 1 0.3  7 1 0.3  7.5 1 0.3  8 1 0.3  8.5 1 0.3  9 1 0.3  9.5 1 0.3  10 1 0.3  0 1.5 0.3  0.5 1.5 0.3  1 1.5 0.3  1.5 1.5 0.3  2 1.5 0.3  2.5 1.5 0.3  3 1.5 0.3  3.5 1.5 0.3  4 1.5 0.3  4.5 1.5 0.3  5 1.5 0.3  5.5 1.5 0.3  6 1.5 0.3  6.5 1.5 0.3  7 1.5 0.3  7.5 1.5 0.3  8 1.5 0.3  8.5 1.5 0.3  9 1.5 0.3  9.5 1.5 0.3  10 1.5 0.3  0 2 0.3  0.5 2 0.3  1 2 0.3  1.5 2 0.3  2 2 0.3  2.5 2 0.3  3 2 0.3  3.5 2 0.3  4 2 0.3  4.5 2 0.3  5 2 0.3  5.5 2 0.3  6 2 0.3  6.5 2 0.3  7 2 0.3  7.5 2 0.3  8 2 0.3  8.5 2 0.3  9 2 0.3  9.5 2 0.3  10 2 0.3  0 2.5 0.3  0.5 2.5 0.3  1 2.5 0.3  1.5 2.5 0.3  2 2.5 0.3  2.5 2.5 0.3  3 2.5 0.3  3.5 2.5 0.3  4 2.5 0.3  4.5 2.5 0.3  5 2.5 0.3  5.5 2.5 0.3  6 2.5 0.3  6.5 2.5 0.3  7 2.5 0.3  7.5 2.5 0.3  8 2.5 0.3  8.5 2.5 0.3  9 2.5 0.3  9.5 2.5 0.3  10 2.5 0.3  0 3 0.3  0.5 3 0.3  1 3 0.3  1.5 3 0.3  2 3 0.3  2.5 3 0.3  3 3 0.3  3.5 3 0.3  4 3 0.3  4.5 3 0.3  5 3 0.3  5.5 3 0.3  6 3 0.3  6.5 3 0.3  7 3 0.3  7.5 3 0.3  8 3 0.3  8.5 3 0.3  9 3 0.3  9.5 3 0.3  10 3 0.3  0 0 0.4  0.5 0 0.4  1 0 0.4  1.5 0 0.4  2 0 0.4  2.5 0 0.4  3 0 0.4  3.5 0 0.4  4 0 0.4  4.5 0 0.4  5 0 0.4  5.5 0 0.4  6 0 0.4  6.5 0 0.4  7 0 0.4  7.5 0 0.4  8 0 0.4  8.5 0 0.4  9 0 0.4  9.5 0 0.4  10 0 0.4  0 0.5 0.4  0.5 0.5 0.4  1 0.5 0.4  1.5 0.5 0.4  2 0.5 0.4  2.5 0.5 0.4  3 0.5 0.4  3.5 0.5 0.4  4 0.5 0.4  4.5 0.5 0.4  5 0.5 0.4  5.5 0.5 0.4  6 0.5 0.4  6.5 0.5 0.4  7 0.5 0.4  7.5 0.5 0.4  8 0.5 0.4  8.5 0.5 0.4  9 0.5 0.4  9.5 0.5 0.4  10 0.5 0.4  0 1 0.4  0.5 1 0.4  1 1 0.4  1.5 1 0.4  2 1 0.4  2.5 1 0.4  3 1 0.4  3.5 1 0.4  4 1 0.4  4.5 1 0.4  5 1 0.4  5.5 1 0.4  6 1 0.4  6.5 1 0.4  7 1 0.4  7.5 1 0.4  8 1 0.4  8.5 1 0.4  9 1 0.4  9.5 1 0.4  10 1 0.4  0 1.5 0.4  0.5 1.5 0.4  1 1.5 0.4  1.5 1.5 0.4  2 1.5 0.4  2.5 1.5 0.4  3 1.5 0.4  3.5 1.5 0.4  4 1.5 0.4  4.5 1.5 0.4  5 1.5 0.4  5.5 1.5 0.4  6 1.5 0.4  6.5 1.5 0.4  7 1.5 0.4  7.5 1.5 0.4  8 1.5 0.4  8.5 1.5 0.4  9 1.5 0.4  9.5 1.5 0.4  10 1.5 0.4  0 2 0.4  0.5 2 0.4  1 2 0.4  1.5 2 0.4  2 2 0.4  2.5 2 0.4  3 2 0.4  3.5 2 0.4  4 2 0.4  4.5 2 0.4  5 2 0.4  5.5 2 0.4  6 2 0.4  6.5 2 0.4  7 2 0.4  7.5 2 0.4  8 2 0.4  8.5 2 0.4  9 2 0.4  9.5 2 0.4  10 2 0.4  0 2.5 0.4  0.5 2.5 0.4  1 2.5 0.4  1.5 2.5 0.4  2 2.5 0.4  2.5 2.5 0.4  3 2.5 0.4  3.5 2.5 0.4  4 2.5 0.4  4.5 2.5 0.4  5 2.5 0.4  5.5 2.5 0.4  6 2.5 0.4  6.5 2.5 0.4  7 2.5 0.4  7.5 2.5 0.4  8 2.5 0.4  8.5 2.5 0.4  9 2.5 0.4  9.5 2.5 0.4  10 2.5 0.4  0 3 0.4  0.5 3 0.4  1 3 0.4  1.5 3 0.4  2 3 0.4  2.5 3 0.4  3 3 0.4  3.5 3 0.4  4 3 0.4  4.5 3 0.4  5 3 0.4  5.5 3 0.4  6 3 0.4  6.5 3 0.4  7 3 0.4  7.5 3 0.4  8 3 0.4  8.5 3 0.4  9 3 0.4  9.5 3 0.4  10 3 0.4  0 0 0.5  0.5 0 0.5  1 0 0.5  1.5 0 0.5  2 0 0.5  2.5 0 0.5  3 0 0.5  3.5 0 0.5  4 0 0.5  4.5 0 0.5  5 0 0.5  5.5 0 0.5  6 0 0.5  6.5 0 0.5  7 0 0.5  7.5 0 0.5  8 0 0.5  8.5 0 0.5  9 0 0.5  9.5 0 0.5  10 0 0.5  0 0.5 0.5  0.5 0.5 0.5  1 0.5 0.5  1.5 0.5 0.5  2 0.5 0.5  2.5 0.5 0.5  3 0.5 0.5  3.5 0.5 0.5  4 0.5 0.5  4.5 0.5 0.5  5 0.5 0.5  5.5 0.5 0.5  6 0.5 0.5  6.5 0.5 0.5  7 0.5 0.5  7.5 0.5 0.5  8 0.5 0.5  8.5 0.5 0.5  9 0.5 0.5  9.5 0.5 0.5  10 0.5 0.5  0 1 0.5  0.5 1 0.5  1 1 0.5  1.5 1 0.5  2 1 0.5  2.5 1 0.5  3 1 0.5  3.5 1 0.5  4 1 0.5  4.5 1 0.5  5 1 0.5  5.5 1 0.5  6 1 0.5  6.5 1 0.5  7 1 0.5  7.5 1 0.5  8 1 0.5  8.5 1 0.5  9 1 0.5  9.5 1 0.5  10 1 0.5  0 1.5 0.5  0.5 1.5 0.5  1 1.5 0.5  1.5 1.5 0.5  2 1.5 0.5  2.5 1.5 0.5  3 1.5 0.5  3.5 1.5 0.5  4 1.5 0.5  4.5 1.5 0.5  5 1.5 0.5  5.5 1.5 0.5  6 1.5 0.5  6.5 1.5 0.5  7 1.5 0.5  7.5 1.5 0.5  8 1.5 0.5  8.5 1.5 0.5  9 1.5 0.5  9.5 1.5 0.5  10 1.5 0.5  0 2 0.5  0.5 2 0.5  1 2 0.5  1.5 2 0.5  2 2 0.5  2.5 2 0.5  3 2 0.5  3.5 2 0.5  4 2 0.5  4.5 2 0.5  5 2 0.5  5.5 2 0.5  6 2 0.5  6.5 2 0.5  7 2 0.5  7.5 2 0.5  8 2 0.5  8.5 2 0.5  9 2 0.5  9.5 2 0.5  10 2 0.5  0 2.5 0.5  0.5 2.5 0.5  1 2.5 0.5  1.5 2.5 0.5  2 2.5 0.5  2.5 2.5 0.5  3 2.5 0.5  3.5 2.5 0.5  4 2.5 0.5  4.5 2.5 0.5  5 2.5 0.5  5.5 2.5 0.5  6 2.5 0.5  6.5 2.5 0.5  7 2.5 0.5  7.5 2.5 0.5  8 2.5 0.5  8.5 2.5 0.5  9 2.5 0.5  9.5 2.5 0.5  10 2.5 0.5  0 3 0.5  0.5 3 0.5  1 3 0.5  1.5 3 0.5  2 3 0.5  2.5 3 0.5  3 3 0.5  3.5 3 0.5  4 3 0.5  4.5 3 0.5  5 3 0.5  5.5 3 0.5  6 3 0.5  6.5 3 0.5  7 3 0.5  7.5 3 0.5  8 3 0.5  8.5 3 0.5  9 3 0.5  9.5 3 0.5  10 3 0.5  </DataArray>
</Points>
<Cells>
[...]
<PointData  Vectors="f_7-0"> 
<DataArray  type="Float64"  Name="f_7-0"  NumberOfComponents="3" format="ascii">0.0000000000000000e+00 0.0000000000000000e+00 0.0000000000000000e+00  2.3348683896978928e-01 2.5225799269396826e-01 2.9512395610808186e-02  4.3948404590237922e-01 4.8360786266615824e-01 3.3708233135959283e-02  6.9166354248134210e-01 6.7897491016200029e-01 2.5392413382582052e-02  1.0668007895914298e+00 7.4973920412782813e-01 1.6608864852282149e-02  1.4850731446804435e+00 7.5046279898651314e-01 8.1715375314361863e-03  1.9101152626278421e+00 7.4180554696086165e-01 5.8054746616475507e-03  2.3320641127583293e+00 7.4066362292565446e-01 6.6671386014038872e-03  2.7521509808834153e+00 7.4269813594451395e-01 7.4294006756958969e-03  3.1722387920965671e+00 7.4422188870145278e-01 7.5674195051759000e-03  3.5927450975625388e+00 7.4474483541176340e-01 7.4863335421982884e-03  4.0134641757942902e+00 7.4482755857157446e-01 7.4322479911319728e-03  4.4342086587398963e+00 7.4485573401833050e-01 7.4336257005853989e-03  4.8549321566661163e+00 7.4490823751314816e-01 7.4519200873320876e-03  5.2756478554920587e+00 7.4495745655254830e-01 7.4648565901781266e-03  5.6963677530704748e+00 7.4498621638649631e-01 7.4706399249828978e-03  6.1170925545206032e+00 7.4499905921386522e-01 7.4732936493789644e-03  6.5378193287762825e+00 7.4500472215692715e-01 7.4751860470221769e-03  6.9585463273359416e+00 7.4500783117155500e-01 7.4767034833736487e-03  7.3792731953684321e+00 7.4500962965165951e-01 7.4776698878423588e-03  7.8000000000000025e+00 7.4501021910769394e-01 7.4780042446252375e-03  0.0000000000000000e+00 0.0000000000000000e+00 0.0000000000000000e+00  1.0486713789482242e-01 9.5195194662890739e-02 3.4693204537971735e-02  3.2501104791333524e-01 3.5638042015287902e-01 3.4183051507433393e-02  6.5779193161452787e-01 4.9650814044408015e-01 2.1087323194199432e-02  1.0642119886292147e+00 5.2880626085739590e-01 7.5552765202720959e-03  1.4884015199574239e+00 5.2066683792197543e-01 3.4466347184790220e-03  1.9109984655746095e+00 5.1498019023488728e-01 5.6965363688471198e-03  2.3314465078050786e+00 5.1601348026349514e-01 6.4935359420486829e-03  2.7515652738009542e+00 5.1824063083660310e-01 6.2902208394043334e-03  3.1720100336670956e+00 5.1937652599059159e-01 6.0675072219766738e-03  3.5927045760935581e+00 5.1966387329545205e-01 5.9624551462372499e-03  4.0134566831247991e+00 5.1970760922318082e-01 5.9416249000616246e-03  4.4341923236869647e+00 5.1975731216284404e-01 5.9408546322822523e-03  4.8549144217794611e+00 5.1982155138847175e-01 5.9362568500653775e-03  5.2756365903779612e+00 5.1986874711514597e-01 5.9292068379314901e-03  5.6963624881629586e+00 5.1989317332838236e-01 5.9238520274473979e-03  6.1170902370251135e+00 5.1990416530502392e-01 5.9209355365566901e-03  6.5378180755468014e+00 5.1990975513578930e-01 5.9194651452505655e-03  6.9585455514303929e+00 5.1991315653039916e-01 5.9186299140470116e-03  7.3792728078928000e+00 5.1991510012961717e-01 5.9181441334290024e-03  7.8000000000000025e+00 5.1991575138671375e-01 5.9180022718820554e-03  0.0000000000000000e+00 0.0000000000000000e+00 0.0000000000000000e+00  2.2560983703831826e-02 1.6496653358241908e-02 2.9900789579782341e-02  2.5499765170409167e-01 2.0572205507383368e-01 2.0781847158283406e-02  6.3863309597788542e-01 2.8571955848453051e-01 1.0123897434904359e-02  1.0649773234440199e+00 2.9722105762552231e-01 -3.0100659912115448e-03  1.4906882530889951e+00 2.9195912925574175e-01 1.9714832039123792e-03  1.9111899131383405e+00 2.9022216754449637e-01 5.8150646389212544e-03  2.3307958203069123e+00 2.9172524347605150e-01 5.5251324752134349e-03  2.7510842566973057e+00 2.9345212020497108e-01 4.8334267463627321e-03  3.1718437083229296e+00 2.9427348621828642e-01 4.4965430535682154e-03  3.5926723673820193e+00 2.9450845991649849e-01 4.4267731619140327e-03  4.0134414511731125e+00 2.9458865311243404e-01 4.4301530347015308e-03  4.4341716702921286e+00 2.9466248487340047e-01 4.4198216774211487e-03  4.8548966228655539e+00 2.9472895200437349e-01 4.3980393496741658e-03  5.2756261262437683e+00 2.9477251715756847e-01 4.3796138014451733e-03  5.6963574562132999e+00 2.9479558992472715e-01 4.3687954783200190e-03  6.1170877515214102e+00 2.9480728458263561e-01 4.3630366832403365e-03  6.5378166231993298e+00 2.9481385440810381e-01 4.3595738108150048e-03  6.9585446716345736e+00 2.9481782190350569e-01 4.3572759406763795e-03  7.3792723888808638e+00 2.9481998607468973e-01 4.3559182893902898e-03  7.8000000000000025e+00 2.9482067601773304e-01 4.3554568699265923e-03  0.0000000000000000e+00 0.0000000000000000e+00 0.0000000000000000e+00  2.3666172885774230e-04 2.1034554453786297e-02 2.7531811329409517e-02  2.1254311203929077e-01 1.3747874810865264e-02 2.7970205620287826e-02  6.3083423824151930e-01 5.2399014544883188e-02 -1.0114264576389771e-02  1.0653295838244288e+00 6.0639315100649731e-02 -6.0622640266315489e-03  1.4907787911987180e+00 6.4579337378288013e-02 2.7487105120588087e-03  1.9109434615346845e+00 6.6522073772064955e-02 4.5250366019693490e-03  2.3303473038557234e+00 6.7571053606204898e-02 4.0406286210074799e-03  2.7507701723649602e+00 6.8411060743230695e-02 3.2418045577823928e-03  3.1717062873901911e+00 6.8982094983940090e-02 2.8949555400868067e-03  3.5926193318459960e+00 6.9296777808479551e-02 2.8668972113950215e-03  4.0134111494493592e+00 6.9465773093505379e-02 2.8813861401749247e-03  4.4341481434859187e+00 6.9566026672353190e-02 2.8660983903730569e-03  4.8548800821138789e+00 6.9629707860224072e-02 2.8383803285362613e-03  5.2756162497723063e+00 6.9669844792689978e-02 2.8172288205300980e-03  5.6963520292585175e+00 6.9694235769149029e-02 2.8055361067226546e-03  6.1170847194611024e+00 6.9708639009098905e-02 2.7992406321757676e-03  6.5378148434212298e+00 6.9717049694460076e-02 2.7952419839873061e-03  6.9585436551540765e+00 6.9721864106444792e-02 2.7925138827075567e-03  7.3792719235768187e+00 6.9724349465841717e-02 2.7908952751868822e-03  7.8000000000000025e+00 6.9725123775292289e-02 2.7903640792203200e-03  0.0000000000000000e+00 0.0000000000000000e+00 0.0000000000000000e+00  3.2047052825459263e-02 4.3410041159657820e-03 3.2447595143112837e-02  2.3538350790646764e-01 -1.4064661633916486e-01 3.2830201902257078e-02  6.2855810464546691e-01 -1.9502542676520881e-01 -1.4330559803065980e-02  1.0620226983115206e+00 -1.7638856093298083e-01 -3.1989984080223375e-03  1.4889639710178761e+00 -1.6294919550665110e-01 8.2997398056379056e-04  1.9102614702688379e+00 -1.5751788736389008e-01 2.2900660946721086e-03  2.3302041201569983e+00 -1.5665800003783387e-01 2.2020575775594234e-03  2.7506505982938894e+00 -1.5671085930115819e-01 1.5640961230739172e-03  3.1715754365683275e+00 -1.5639019580489533e-01 1.2782831860821287e-03  3.5925276780938926e+00 -1.5596072432479105e-01 1.2626887468573538e-03  4.0133605089283257e+00 -1.5567822947135232e-01 1.2844682538927477e-03  4.4341218422651760e+00 -1.5554160594299024e-01 1.2779994243011367e-03  4.8548650107412561e+00 -1.5547685278505993e-01 1.2579821527345201e-03  5.2756065230679035e+00 -1.5543775618341721e-01 1.2421954568265015e-03  5.6963456971351629e+00 -1.5541024780113152e-01 1.2335787745073640e-03  6.1170808397762100e+00 -1.5539188786883448e-01 1.2290437210623710e-03  6.5378126110428276e+00 -1.5538088686000390e-01 1.2261694753414219e-03  6.9585424527748252e+00 -1.5537483078683936e-01 1.2241670345341179e-03  7.3792713991726471e+00 -1.5537182646340911e-01 1.2229623755900284e-03  7.8000000000000025e+00 -1.5537092547286219e-01 1.2225689294130826e-03  0.0000000000000000e+00 0.0000000000000000e+00 0.0000000000000000e+00  9.6061858127806724e-02 -6.0074068210877962e-02 3.7707293290132067e-02  3.3540558195722597e-01 -2.8867094157871503e-01 1.9027324180582037e-02  6.3422779552236208e-01 -4.1749509749268998e-01 1.3411261012207661e-02  1.0563629846479357e+00 -4.1333103027885132e-01 -6.2614202837203651e-03  1.4851482751080216e+00 -3.9268106094338923e-01 -2.0963741621129240e-03  1.9090895185972632e+00 -3.8299622981900144e-01 -4.7648515108295584e-04  2.3302286205482732e+00 -3.8126573652405282e-01 -6.3583106465261511e-05  2.7507030396084233e+00 -3.8173684898781102e-01 -1.9082977032112378e-04  3.1714619096998988e+00 -3.8171884766752978e-01 -3.6101368079299894e-04  3.5923980410434031e+00 -3.8125517945488041e-01 -3.8946332310296723e-04  4.0132859625824269e+00 -3.8086466356314308e-01 -3.5965919703717192e-04  4.4340896756043682e+00 -3.8067162457571257e-01 -3.4294492650837737e-04  4.8548497899728575e+00 -3.8059160219754307e-01 -3.4193835312267039e-04  5.2755963299934558e+00 -3.8054875274532607e-01 -3.4498732280268584e-04  5.6963381819635144e+00 -3.8051726863228402e-01 -3.4684128298449540e-04  6.1170759036867253e+00 -3.8049449672103480e-01 -3.4733754270323004e-04  6.5378097668035879e+00 -3.8048025175097061e-01 -3.4744454619233824e-04  6.9585409712048607e+00 -3.8047240636541818e-01 -3.4759171072113051e-04  7.3792707684663901e+00 -3.8046860006030236e-01 -3.4775623348001311e-04  7.8000000000000025e+00 -3.8046748100833150e-01 -3.4784226292680815e-04  0.0000000000000000e+00 0.0000000000000000e+00 0.0000000000000000e+00  2.2015668905378777e-01 -2.2673600475701453e-01 2.2141020217619219e-02  4.4718787682562178e-01 -4.2326273795155173e-01 1.9250362972061442e-02  6.7452475732983741e-01 -5.8745989207314531e-01 3.1725568482247515e-02  1.0504095496924439e+00 -6.4724894755328755e-01 -3.0270283100732988e-03  1.4798509002179727e+00 -6.2524930276670143e-01 -6.5934609202454916e-03  1.9071592619553333e+00 -6.1089487538309173e-01 -3.9209450847369227e-03  2.3300821462139063e+00 -6.0663611629625291e-01 -2.6761208376538796e-03  2.7508535005074854e+00 -6.0662315792726718e-01 -2.0913409592696270e-03  3.1713995691518426e+00 -6.0689962614094550e-01 -2.0572615519113559e-03  3.5922507652753271e+00 -6.0656189985813436e-01 -2.0839454332929001e-03  4.0131861016670873e+00 -6.0610714322354531e-01 -2.0461090071323788e-03  4.4340452710285252e+00 -6.0583506034793155e-01 -1.9951996718035945e-03  4.8548309753821819e+00 -6.0571702539034256e-01 -1.9617326362464621e-03  5.2755848382477382e+00 -6.0566241185309855e-01 -1.9448083069313320e-03  5.6963294146137580e+00 -6.0562622762978546e-01 -1.9357875125153956e-03  6.1170697989054634e+00 -6.0559919629508596e-01 -1.9297768102180916e-03  6.5378061286255464e+00 -6.0558122713050011e-01 -1.9254827683583607e-03  6.9585390713892501e+00 -6.0557096423354206e-01 -1.9226941814387295e-03  7.3792699696220829e+00 -6.0556597957959990e-01 -1.9212082519711924e-03  7.8000000000000025e+00 -6.0556448226767934e-01 -1.9207494048862237e-03  0.0000000000000000e+00 0.0000000000000000e+00 0.0000000000000000e+00  2.3402728065826262e-01 2.5360707525407605e-01 2.0097614758399291e-02  4.4232673193101402e-01 4.8402719703673608e-01 1.8676289608351847e-02  6.9524630057889780e-01 6.7743590025573042e-01 1.4429703003317801e-02  1.0660069562219874e+00 7.5191426958371943e-01 1.2492131644758960e-02  1.4839506058137404e+00 7.5298470554165053e-01 6.6972932035009678e-03  1.9100914313893624e+00 7.4230183894846402e-01 3.9843739870034063e-03  2.3323887459133883e+00 7.4064525926247293e-01 4.1936396437081075e-03  2.7523083650547040e+00 7.4300408475343127e-01 4.8714859919342084e-03  3.1722804443623067e+00 7.4472141085271915e-01 5.1065489942518040e-03  3.5927578638434707e+00 7.4528270145921705e-01 5.0886554700871646e-03  4.0134775841160968e+00 7.4535834376679400e-01 5.0485281713939139e-03  4.4342227606977112e+00 7.4538459566684423e-01 5.0460259822069009e-03  4.8549427393977549e+00 7.4544400612535311e-01 5.0615836940437840e-03  5.2756542961860289e+00 7.4550098388938779e-01 5.0751751598629626e-03  5.6963714990592269e+00 7.4553460303716634e-01 5.0823313158151022e-03  6.1170949002962178e+00 7.4554988971026870e-01 5.0857175528520116e-03  6.5378208710110250e+00 7.4555689390441793e-01 5.0878024124534861e-03  6.9585472730683984e+00 7.4556088641923135e-01 5.0893387253932356e-03  7.3792736386016688e+00 7.4556323122495338e-01 5.0903196733545382e-03  7.8000000000000025e+00 7.4556403021805462e-01 5.0906696979680366e-03  0.0000000000000000e+00 0.0000000000000000e+00 0.0000000000000000e+00  1.0969920642665006e-01 1.0102846412466523e-01 2.1227123790622120e-02  3.2996808800522492e-01 3.5703922848332120e-01 2.0607635928294624e-02  6.5903440395036528e-01 4.9776950557668426e-01 1.3865074210576511e-02  1.0631802962477532e+00 5.3216831555616129e-01 5.4959493146897196e-03  1.4880943166142684e+00 5.2170919062050991e-01 2.1827748414985542e-03  1.9113562119783454e+00 5.1483990825829395e-01 3.4209119948557486e-03  2.3316660365497457e+00 5.1619670382811966e-01 3.9270541364733293e-03  2.7516327389955890e+00 5.1871150318742865e-01 3.8029419219270436e-03  3.1720308836504865e+00 5.1992315820333723e-01 3.6601040407702300e-03  3.5927211416344256e+00 5.2020409612627838e-01 3.5821796904670733e-03  4.0134734517211248e+00 5.2023865854256357e-01 3.5590584739543644e-03  4.4342052904307625e+00 5.2029173353999980e-01 3.5529378383589937e-03  4.8549225368401325e+00 5.2036372659032182e-01 3.5473053339623887e-03  5.2756413268650908e+00 5.2041661776097969e-01 3.5412353302057128e-03  5.6963654212025077e+00 5.2044395355853668e-01 3.5366315088697360e-03  6.1170921873331396e+00 5.2045641247754493e-01 3.5338828745976642e-03  6.5378193566538334e+00 5.2046295348638794e-01 3.5323496036211636e-03  6.9585463134151304e+00 5.2046703821448115e-01 3.5314577471061981e-03  7.3792731563346257e+00 5.2046940049148849e-01 3.5309627091743814e-03  7.8000000000000025e+00 5.2047017409402674e-01 3.5308088221121317e-03  0.0000000000000000e+00 0.0000000000000000e+00 0.0000000000000000e+00  2.2032238134940599e-02 1.6278754255912072e-02 1.6255986924720710e-02  2.5989031496909165e-01 2.0988019599862931e-01 1.2230673418781968e-02  6.3857570615063775e-01 2.9013279401190750e-01 6.4610197251878561e-03  1.0647428706342359e+00 2.9936702560994283e-01 -2.4888311551137122e-03  1.4913890057785946e+00 2.9166943649672838e-01 3.5048522585652276e-04  1.9115721126107352e+00 2.9026585816087191e-01 3.0720087346443260e-03  2.3308898075215589e+00 2.9215830615875815e-01 2.9283094328763758e-03  2.7511056246644356e+00 2.9401564602218166e-01 2.4154786365291193e-03  3.1718635279390117e+00 2.9483787980611542e-01 2.1354326044526937e-03  3.5926954675389116e+00 2.9505381617652726e-01 2.0580848503819944e-03  4.0134598908249544e+00 2.9512914992374684e-01 2.0461433252576670e-03  4.4341829712030041e+00 2.9520752509967108e-01 2.0309895975141666e-03  4.8549029325468496e+00 2.9527895715086577e-01 2.0101958403255168e-03  5.2756299229077772e+00 2.9532509552895081e-01 1.9929977211421879e-03  5.6963600072128164e+00 2.9534920665618841e-01 1.9823384389180852e-03  6.1170894906849744e+00 2.9536148003475682e-01 1.9762858337235064e-03  6.5378177363870575e+00 2.9536852106275674e-01 1.9725896962066759e-03  6.9585453112613811e+00 2.9537284522554275e-01 1.9701999195894924e-03  7.3792726757032510e+00 2.9537521892541857e-01 1.9688179466449992e-03  7.8000000000000025e+00 2.9537597408262717e-01 1.9683598156888639e-03  0.0000000000000000e+00 0.0000000000000000e+00 0.0000000000000000e+00  3.4908392298372507e-03 1.7796690660456530e-02 1.6159259253571555e-02  2.1162378845925425e-01 1.3639768761279040e-02 1.5272785386883437e-02  6.3123355001179582e-01 5.6933260168459912e-02 -6.5944726855589808e-03  1.0669885685717506e+00 5.9954153731015217e-02 -5.2657965189857091e-03  1.4916640894207185e+00 6.4542392422898651e-02 4.8544412549504531e-04  1.9112094584102806e+00 6.6996406097286298e-02 1.7723763749167465e-03  2.3303867126457338e+00 6.8187579786367233e-02 1.4538418318752093e-03  2.7507827447676259e+00 6.9007333384656908e-02 8.5886330377039704e-04  3.1717334596201336e+00 6.9552275817730436e-02 5.5960831282271940e-04  3.5926470207775472e+00 6.9853982488405658e-02 5.0535756189777463e-04  4.0134295860136877e+00 7.0021465423856608e-02 4.9831226778914578e-04  4.4341582048777965e+00 7.0123146811398057e-02 4.7814066675667960e-04  4.8548856586783744e+00 7.0187183267307038e-02 4.5182215736669953e-04  5.2756198479890610e+00 7.0226828806403518e-02 4.3162539149547383e-04  5.6963545401842071e+00 7.0250754584934558e-02 4.1963454114596506e-04  6.1170864087581336e+00 7.0264953557212573e-02 4.1275607277167347e-04  6.5378158969897768e+00 7.0273303057429529e-02 4.0840220726212335e-04  6.9585442508418218e+00 7.0278091961179789e-02 4.0553485471388423e-04  7.3792721909927543e+00 7.0280561063203975e-02 4.0387598518744529e-04  7.8000000000000025e+00 7.0281326748278236e-02 4.0334067844765214e-04  0.0000000000000000e+00 0.0000000000000000e+00 0.0000000000000000e+00  3.2047881222844847e-02 1.5671652374500261e-03 1.7922519250046599e-02  2.3572537226156989e-01 -1.3696772364533255e-01 1.8320183858958089e-02  6.3135208384865527e-01 -1.9971370182015877e-01 -1.0923138038247696e-02  1.0640665126979290e+00 -1.7603199763015312e-01 -3.5833968177709850e-03  1.4896640390413911e+00 -1.6239651517792394e-01 -1.1138160319095693e-03  1.9104681863117536e+00 -1.5666034348486382e-01 -2.4144263419991201e-04  2.3302499115007231e+00 -1.5592007873094094e-01 -3.4420855536373290e-04  2.7506776042502028e+00 -1.5609733339746484e-01 -8.2197777454276629e-04  3.1716099605424399e+00 -1.5581305299251491e-01 -1.0554647591775540e-03  3.5925573323706543e+00 -1.5538625775095130e-01 -1.0923308227347884e-03  4.0133788044042902e+00 -1.5510498683568771e-01 -1.0929140280548759e-03  4.4341318992211605e+00 -1.5497253061944094e-01 -1.1067283725965588e-03  4.8548709702670028e+00 -1.5491241678696563e-01 -1.1270666710052435e-03  5.2756105117339942e+00 -1.5487651292533622e-01 -1.1426421213657195e-03  5.6963484396313877e+00 -1.5485076057380209e-01 -1.1518100220515536e-03  6.1170826441196757e+00 -1.5483338649880143e-01 -1.1570683819993981e-03  6.5378137283844886e+00 -1.5482302469450049e-01 -1.1604192685516267e-03  6.9585430897957972e+00 -1.5481739499730113e-01 -1.1626449857010431e-03  7.3792716858550786e+00 -1.5481463932160830e-01 -1.1639457870693500e-03  7.8000000000000025e+00 -1.5481381160980426e-01 -1.1643750117347081e-03  0.0000000000000000e+00 0.0000000000000000e+00 0.0000000000000000e+00  9.7977252536990259e-02 -5.9921888770725414e-02 2.0876848722385509e-02  3.3849065431993480e-01 -2.9097282806749397e-01 9.2346657464495129e-03  6.3559311765682802e-01 -4.2153192168343462e-01 6.2228237245859231e-03  1.0578149953741569e+00 -4.1306729283795224e-01 -5.8844801280695464e-03  1.4858669304072289e+00 -3.9122893634847361e-01 -3.5860352465658632e-03  1.9092778859215960e+00 -3.8191458104687248e-01 -2.6383493174514040e-03  2.3303256140978816e+00 -3.8042950098372658e-01 -2.5055869239082704e-03  2.7507595348991818e+00 -3.8109138205143334e-01 -2.6113767297156307e-03  3.1715025599439191e+00 -3.8112704026406713e-01 -2.7170456111312797e-03  3.5924278203991431e+00 -3.8066230123390016e-01 -2.7405198608262096e-03  4.0133051289998170e+00 -3.8027466390314763e-01 -2.7281030866735884e-03  4.4341013862476588e+00 -3.8009154799433259e-01 -2.7228963390084904e-03  4.8548572172961970e+00 -3.8002058960400648e-01 -2.7257063734913460e-03  5.2756012322205672e+00 -3.7998330812534437e-01 -2.7296152921724207e-03  5.6963414323746271e+00 -3.7995484617916092e-01 -2.7320313604792053e-03  6.1170780159714786e+00 -3.7993387878332352e-01 -2.7332014896955773e-03  6.5378110901233510e+00 -3.7992085535870884e-01 -2.7338556115674858e-03  6.9585417390111548e+00 -3.7991382434213467e-01 -2.7343232771476220e-03  7.3792711187345637e+00 -3.7991047889404606e-01 -2.7346190000514946e-03  7.8000000000000025e+00 -3.7990950316764766e-01 -2.7347044495866463e-03  0.0000000000000000e+00 0.0000000000000000e+00 0.0000000000000000e+00  2.2071991990321463e-01 -2.2440646488942517e-01 1.5210143267066226e-02  4.5188640933610480e-01 -4.2975677031206394e-01 1.0766417284184603e-02  6.7761324880984142e-01 -5.8872921702037917e-01 1.6783247823064749e-02  1.0501525161663106e+00 -6.4898645142230327e-01 -4.1319262481121621e-03  1.4805340903256130e+00 -6.2325303759276474e-01 -7.1955910385116282e-03  1.9074620795956558e+00 -6.0956409930517785e-01 -5.6001379812455950e-03  2.3302474212243327e+00 -6.0572555517052051e-01 -4.9670911943418385e-03  2.7509532172348483e+00 -6.05922931