<?xml version="1.0"?>
<VTKFile type="UnstructuredGrid"  version="0.1"  >
<UnstructuredGrid>
<Piece  NumberOfPoints="588" NumberOfCells="2160">
<Points>
<DataArray  type="Float64"  NumberOfComponents="3"  format="ascii">0 0 0  0.5 0 0  1 0 0  1.5 0 0  2 0 0  2.5 0 0  3 0 0  3.5 0 0  4 0 0  4.5 0 0  5 0 0  5.5 0 0  6 0 0  6.5 0 0  7 0 0  7.5 0 0  8 0 0  8.5 0 0  9 0 0  9.5 0 0  10 0 0  0 0.5 0  0.5 0.5 0  1 0.5 0  1.5 0.5 0  2 0.5 0  2.5 0.5 0  3 0.5 0  3.5 0.5 0  4 0.5 0  4.5 0.5 0  5 0.5 0  5.5 0.5 0  6 0.5 0  6.5 0.5 0  7 0.5 0  7.5 0.5 0  8 0.5 0  8.5 0.5 0  9 0.5 0  9.5 0.5 0  10 0.5 0  0 1 0  0.5 1 0  1 1 0  1.5 1 0  2 1 0  2.5 1 0  3 1 0  3.5 1 0  4 1 0  4.5 1 0  5 1 0  5.5 1 0  6 1 0  6.5 1 0  7 1 0  7.5 1 0  8 1 0  8.5 1 0  9 1 0  9.5 1 0  10 1 0  0 1.5 0  0.5 1.5 0  1 1.5 0  1.5 1.5 0  2 1.5 0  2.5 1.5 0  3 1.5 0  3.5 1.5 0  4 1.5 0  4.5 1.5 0  5 1.5 0  5.5 1.5 0  6 1.5 0  6.5 1.5 0  7 1.5 0  7.5 1.5 0  8 1.5 0  8.5 1.5 0  9 1.5 0  9.5 1.5 0  10 1.5 0  0 2 0  0.5 2 0  1 2 0  1.5 2 0  2 2 0  2.5 2 0  3 2 0  3.5 2 0  4 2 0  4.5 2 0  5 2 0  5.5 2 0  6 2 0  6.5 2 0  7 2 0  7.5 2 0  8 2 0  8.5 2 0  9 2 0  9.5 2 0  10 2 0  0 2.5 0  0.5 2.5 0  1 2.5 0  1.5 2.5 0  2 2.5 0  2.5 2.5 0  3 2.5 0  3.5 2.5 0  4 2.5 0  4.5 2.5 0  5 2.5 0  5.5 2.5 0  6 2.5 0  6.5 2.5 0  7 2.5 0  7.5 2.5 0  8 2.5 0  8.5 2.5 0  9 2.5 0  9.5 2.5 0  10 2.5 0  0 3 0  0.5 3 0  1 3 0  1.5 3 0  2 3 0  2.5 3 0  3 3 0  3.5 3 0  4 3 0  4.5 3 0  5 3 0  5.5 3 0  6 3 0  6.5 3 0  7 3 0  7.5 3 0  8 3 0  8.5 3 0  9 3 0  9.5 3 0  10 3 0  0 0 0.1666666666666667  0.5 0 0.1666666666666667  1 0 0.1666666666666667  1.5 0 0.1666666666666667  2 0 0.1666666666666667  2.5 0 0.1666666666666667  3 0 0.1666666666666667  3.5 0 0.1666666666666667  4 0 0.1666666666666667  4.5 0 0.1666666666666667  5 0 0.1666666666666667  5.5 0 0.1666666666666667  6 0 0.1666666666666667  6.5 0 0.1666666666666667  7 0 0.1666666666666667  7.5 0 0.1666666666666667  8 0 0.1666666666666667  8.5 0 0.1666666666666667  9 0 0.1666666666666667  9.5 0 0.1666666666666667  10 0 0.1666666666666667  0 0.5 0.1666666666666667  0.5 0.5 0.1666666666666667  1 0.5 0.1666666666666667  1.5 0.5 0.1666666666666667  2 0.5 0.1666666666666667  2.5 0.5 0.1666666666666667  3 0.5 0.1666666666666667  3.5 0.5 0.1666666666666667  4 0.5 0.1666666666666667  4.5 0.5 0.1666666666666667  5 0.5 0.1666666666666667  5.5 0.5 0.1666666666666667  6 0.5 0.1666666666666667  6.5 0.5 0.1666666666666667  7 0.5 0.1666666666666667  7.5 0.5 0.1666666666666667  8 0.5 0.1666666666666667  8.5 0.5 0.1666666666666667  9 0.5 0.1666666666666667  9.5 0.5 0.1666666666666667  10 0.5 0.1666666666666667  0 1 0.1666666666666667  0.5 1 0.1666666666666667  1 1 0.1666666666666667  1.5 1 0.1666666666666667  2 1 0.1666666666666667  2.5 1 0.1666666666666667  3 1 0.1666666666666667  3.5 1 0.1666666666666667  4 1 0.1666666666666667  4.5 1 0.1666666666666667  5 1 0.1666666666666667  5.5 1 0.1666666666666667  6 1 0.1666666666666667  6.5 1 0.1666666666666667  7 1 0.1666666666666667  7.5 1 0.1666666666666667  8 1 0.1666666666666667  8.5 1 0.1666666666666667  9 1 0.1666666666666667  9.5 1 0.1666666666666667  10 1 0.1666666666666667  0 1.5 0.1666666666666667  0.5 1.5 0.1666666666666667  1 1.5 0.1666666666666667  1.5 1.5 0.1666666666666667  2 1.5 0.1666666666666667  2.5 1.5 0.1666666666666667  3 1.5 0.1666666666666667  3.5 1.5 0.1666666666666667  4 1.5 0.1666666666666667  4.5 1.5 0.1666666666666667  5 1.5 0.1666666666666667  5.5 1.5 0.1666666666666667  6 1.5 0.1666666666666667  6.5 1.5 0.1666666666666667  7 1.5 0.1666666666666667  7.5 1.5 0.1666666666666667  8 1.5 0.1666666666666667  8.5 1.5 0.1666666666666667  9 1.5 0.1666666666666667  9.5 1.5 0.1666666666666667  10 1.5 0.1666666666666667  0 2 0.1666666666666667  0.5 2 0.1666666666666667  1 2 0.1666666666666667  1.5 2 0.1666666666666667  2 2 0.1666666666666667  2.5 2 0.1666666666666667  3 2 0.1666666666666667  3.5 2 0.1666666666666667  4 2 0.1666666666666667  4.5 2 0.1666666666666667  5 2 0.1666666666666667  5.5 2 0.1666666666666667  6 2 0.1666666666666667  6.5 2 0.1666666666666667  7 2 0.1666666666666667  7.5 2 0.1666666666666667  8 2 0.1666666666666667  8.5 2 0.1666666666666667  9 2 0.1666666666666667  9.5 2 0.1666666666666667  10 2 0.1666666666666667  0 2.5 0.1666666666666667  0.5 2.5 0.1666666666666667  1 2.5 0.1666666666666667  1.5 2.5 0.1666666666666667  2 2.5 0.1666666666666667  2.5 2.5 0.1666666666666667  3 2.5 0.1666666666666667  3.5 2.5 0.1666666666666667  4 2.5 0.1666666666666667  4.5 2.5 0.1666666666666667  5 2.5 0.1666666666666667  5.5 2.5 0.1666666666666667  6 2.5 0.1666666666666667  6.5 2.5 0.1666666666666667  7 2.5 0.1666666666666667  7.5 2.5 0.1666666666666667  8 2.5 0.1666666666666667  8.5 2.5 0.1666666666666667  9 2.5 0.1666666666666667  9.5 2.5 0.1666666666666667  10 2.5 0.1666666666666667  0 3 0.1666666666666667  0.5 3 0.1666666666666667  1 3 0.1666666666666667  1.5 3 0.1666666666666667  2 3 0.1666666666666667  2.5 3 0.1666666666666667  3 3 0.1666666666666667  3.5 3 0.1666666666666667  4 3 0.1666666666666667  4.5 3 0.1666666666666667  5 3 0.1666666666666667  5.5 3 0.1666666666666667  6 3 0.1666666666666667  6.5 3 0.1666666666666667  7 3 0.1666666666666667  7.5 3 0.1666666666666667  8 3 0.1666666666666667  8.5 3 0.1666666666666667  9 3 0.1666666666666667  9.5 3 0.1666666666666667  10 3 0.1666666666666667  0 0 0.3333333333333333  0.5 0 0.3333333333333333  1 0 0.3333333333333333  1.5 0 0.3333333333333333  2 0 0.3333333333333333  2.5 0 0.3333333333333333  3 0 0.3333333333333333  3.5 0 0.3333333333333333  4 0 0.3333333333333333  4.5 0 0.3333333333333333  5 0 0.3333333333333333  5.5 0 0.3333333333333333  6 0 0.3333333333333333  6.5 0 0.3333333333333333  7 0 0.3333333333333333  7.5 0 0.3333333333333333  8 0 0.3333333333333333  8.5 0 0.3333333333333333  9 0 0.3333333333333333  9.5 0 0.3333333333333333  10 0 0.3333333333333333  0 0.5 0.3333333333333333  0.5 0.5 0.3333333333333333  1 0.5 0.3333333333333333  1.5 0.5 0.3333333333333333  2 0.5 0.3333333333333333  2.5 0.5 0.3333333333333333  3 0.5 0.3333333333333333  3.5 0.5 0.3333333333333333  4 0.5 0.3333333333333333  4.5 0.5 0.3333333333333333  5 0.5 0.3333333333333333  5.5 0.5 0.3333333333333333  6 0.5 0.3333333333333333  6.5 0.5 0.3333333333333333  7 0.5 0.3333333333333333  7.5 0.5 0.3333333333333333  8 0.5 0.3333333333333333  8.5 0.5 0.3333333333333333  9 0.5 0.3333333333333333  9.5 0.5 0.3333333333333333  10 0.5 0.3333333333333333  0 1 0.3333333333333333  0.5 1 0.3333333333333333  1 1 0.3333333333333333  1.5 1 0.3333333333333333  2 1 0.3333333333333333  2.5 1 0.3333333333333333  3 1 0.3333333333333333  3.5 1 0.3333333333333333  4 1 0.3333333333333333  4.5 1 0.3333333333333333  5 1 0.3333333333333333  5.5 1 0.3333333333333333  6 1 0.3333333333333333  6.5 1 0.3333333333333333  7 1 0.3333333333333333  7.5 1 0.3333333333333333  8 1 0.3333333333333333  8.5 1 0.3333333333333333  9 1 0.3333333333333333  9.5 1 0.3333333333333333  10 1 0.3333333333333333  0 1.5 0.3333333333333333  0.5 1.5 0.3333333333333333  1 1.5 0.3333333333333333  1.5 1.5 0.3333333333333333  2 1.5 0.3333333333333333  2.5 1.5 0.3333333333333333  3 1.5 0.3333333333333333  3.5 1.5 0.3333333333333333  4 1.5 0.3333333333333333  4.5 1.5 0.3333333333333333  5 1.5 0.3333333333333333  5.5 1.5 0.3333333333333333  6 1.5 0.3333333333333333  6.5 1.5 0.3333333333333333  7 1.5 0.3333333333333333  7.5 1.5 0.3333333333333333  8 1.5 0.3333333333333333  8.5 1.5 0.3333333333333333  9 1.5 0.3333333333333333  9.5 1.5 0.3333333333333333  10 1.5 0.3333333333333333  0 2 0.3333333333333333  0.5 2 0.3333333333333333  1 2 0.3333333333333333  1.5 2 0.3333333333333333  2 2 0.3333333333333333  2.5 2 0.3333333333333333  3 2 0.3333333333333333  3.5 2 0.3333333333333333  4 2 0.3333333333333333  4.5 2 0.3333333333333333  5 2 0.3333333333333333  5.5 2 0.3333333333333333  6 2 0.3333333333333333  6.5 2 0.3333333333333333  7 2 0.3333333333333333  7.5 2 0.3333333333333333  8 2 0.3333333333333333  8.5 2 0.3333333333333333  9 2 0.3333333333333333  9.5 2 0.3333333333333333  10 2 0.3333333333333333  0 2.5 0.3333333333333333  0.5 2.5 0.3333333333333333  1 2.5 0.3333333333333333  1.5 2.5 0.3333333333333333  2 2.5 0.3333333333333333  2.5 2.5 0.3333333333333333  3 2.5 0.3333333333333333  3.5 2.5 0.3333333333333333  4 2.5 0.3333333333333333  4.5 2.5 0.3333333333333333  5 2.5 0.3333333333333333  5.5 2.5 0.3333333333333333  6 2.5 0.3333333333333333  6.5 2.5 0.3333333333333333  7 2.5 0.3333333333333333  7.5 2.5 0.3333333333333333  8 2.5 0.3333333333333333  8.5 2.5 0.3333333333333333  9 2.5 0.3333333333333333  9.5 2.5 0.3333333333333333  10 2.5 0.3333333333333333  0 3 0.3333333333333333  0.5 3 0.3333333333333333  1 3 0.3333333333333333  1.5 3 0.3333333333333333  2 3 0.3333333333333333  2.5 3 0.3333333333333333  3 3 0.3333333333333333  3.5 3 0.3333333333333333  4 3 0.3333333333333333  4.5 3 0.3333333333333333  5 3 0.3333333333333333  5.5 3 0.3333333333333333  6 3 0.3333333333333333  6.5 3 0.3333333333333333  7 3 0.3333333333333333  7.5 3 0.3333333333333333  8 3 0.3333333333333333  8.5 3 0.3333333333333333  9 3 0.3333333333333333  9.5 3 0.3333333333333333  10 3 0.3333333333333333  0 0 0.5  0.5 0 0.5  1 0 0.5  1.5 0 0.5  2 0 0.5  2.5 0 0.5  3 0 0.5  3.5 0 0.5  4 0 0.5  4.5 0 0.5  5 0 0.5  5.5 0 0.5  6 0 0.5  6.5 0 0.5  7 0 0.5  7.5 0 0.5  8 0 0.5  8.5 0 0.5  9 0 0.5  9.5 0 0.5  10 0 0.5  0 0.5 0.5  0.5 0.5 0.5  1 0.5 0.5  1.5 0.5 0.5  2 0.5 0.5  2.5 0.5 0.5  3 0.5 0.5  3.5 0.5 0.5  4 0.5 0.5  4.5 0.5 0.5  5 0.5 0.5  5.5 0.5 0.5  6 0.5 0.5  6.5 0.5 0.5  7 0.5 0.5  7.5 0.5 0.5  8 0.5 0.5  8.5 0.5 0.5  9 0.5 0.5  9.5 0.5 0.5  10 0.5 0.5  0 1 0.5  0.5 1 0.5  1 1 0.5  1.5 1 0.5  2 1 0.5  2.5 1 0.5  3 1 0.5  3.5 1 0.5  4 1 0.5  4.5 1 0.5  5 1 0.5  5.5 1 0.5  6 1 0.5  6.5 1 0.5  7 1 0.5  7.5 1 0.5  8 1 0.5  8.5 1 0.5  9 1 0.5  9.5 1 0.5  10 1 0.5  0 1.5 0.5  0.5 1.5 0.5  1 1.5 0.5  1.5 1.5 0.5  2 1.5 0.5  2.5 1.5 0.5  3 1.5 0.5  3.5 1.5 0.5  4 1.5 0.5  4.5 1.5 0.5  5 1.5 0.5  5.5 1.5 0.5  6 1.5 0.5  6.5 1.5 0.5  7 1.5 0.5  7.5 1.5 0.5  8 1.5 0.5  8.
[...]
<PointData  Vectors="f_7-0"> 
<DataArray  type="Float64"  Name="f_7-0"  NumberOfComponents="3" format="ascii">0.0000000000000000e+00 0.0000000000000000e+00 0.0000000000000000e+00  5.1513164343447537e-01 4.4093971295044848e-01 8.3887753789699190e-02  1.2563677618637779e+00 4.9992041697189149e-01 8.5474210948296006e-02  2.0085170885280252e+00 5.0565628790071804e-01 8.6230744629660558e-02  2.7691362324030711e+00 5.0593139254254393e-01 8.6369380844002225e-02  3.5327720189516132e+00 5.0582815232169032e-01 8.6422584085450976e-02  4.2970940458609226e+00 5.0577403118668851e-01 8.6432506621787128e-02  5.0615651166058226e+00 5.0575102743937739e-01 8.6432533889051935e-02  5.8260671013330132e+00 5.0574071869098791e-01 8.6431648426477742e-02  6.5905710152363302e+00 5.0573579011291303e-01 8.6430924605432724e-02  7.3550712944751000e+00 5.0573328037075549e-01 8.6430461205638284e-02  8.1195682506486406e+00 5.0573193751421019e-01 8.6430199216871978e-02  8.8840629980446018e+00 5.0573119971112179e-01 8.6430057524844603e-02  9.6485564076750023e+00 5.0573078935465809e-01 8.6429981531352160e-02  1.0413049038288429e+01 5.0573055976448600e-01 8.6429940796371757e-02  1.1177541223943708e+01 5.0573043103601878e-01 8.6429918912589762e-02  1.1942033158094841e+01 5.0573035896412133e-01 8.6429907119752500e-02  1.2706524951356368e+01 5.0573031893812914e-01 8.6429900776230237e-02  1.3471016667043527e+01 5.0573029731405139e-01 8.6429897433059982e-02  1.4235508342150466e+01 5.0573028673975051e-01 8.6429895830300654e-02  1.5000000000000007e+01 5.0573028357732874e-01 8.6429895331531129e-02  0.0000000000000000e+00 0.0000000000000000e+00 0.0000000000000000e+00  4.9191567371397343e-01 2.8246623356025996e-01 8.7982289168936759e-02  1.2462362090038202e+00 3.3358259933129220e-01 8.6647246370821190e-02  2.0055926023251414e+00 3.3762862143552613e-01 8.6610072387937539e-02  2.7683881077750172e+00 3.3754875727576850e-01 8.6612572442536256e-02  3.5326066109848195e+00 3.3736243816636774e-01 8.6620428871267308e-02  4.2970591940580816e+00 3.3728697503778038e-01 8.6625055879788027e-02  5.0615608131979251e+00 3.3725981634479701e-01 8.6625447614809420e-02  5.8260692245947654e+00 3.3724942777883105e-01 8.6624872499374048e-02  6.5905734828034985e+00 3.3724501595915413e-01 8.6624421874604979e-02  7.3550730237542057e+00 3.3724294617856521e-01 8.6624148617973865e-02  8.1195693172305994e+00 3.3724189551108685e-01 8.6623988352396791e-02  8.8840636241658473e+00 3.3724133490286490e-01 8.6623897430390201e-02  9.6485567668479852e+00 3.3724102762427782e-01 8.6623846937466706e-02  1.0413049241970937e+01 3.3724085691195155e-01 8.6623819031838745e-02  1.1177541338674066e+01 3.3724076151032023e-01 8.6623803608523300e-02  1.1942033222252613e+01 3.3724070817234875e-01 8.6623795093586059e-02  1.2706524986647775e+01 3.3724067856482381e-01 8.6623790423441677e-02  1.3471016685474744e+01 3.3724066257211632e-01 8.6623787925484197e-02  1.4235508350018105e+01 3.3724065474501375e-01 8.6623786721129539e-02  1.5000000000000007e+01 3.3724065241645568e-01 8.6623786365242303e-02  0.0000000000000000e+00 0.0000000000000000e+00 0.0000000000000000e+00  4.7907306670193006e-01 1.3793200373047595e-01 9.0924224584144772e-02  1.2329406380993235e+00 1.6688343674980458e-01 8.7557088823054796e-02  2.0008196757966648e+00 1.6918834035944269e-01 8.7010594999179056e-02  2.7670382884582305e+00 1.6900087860669785e-01 8.6856569280135645e-02  3.5322781055458776e+00 1.6884599849432971e-01 8.6829137483738231e-02  4.2969870453097183e+00 1.6878674755015269e-01 8.6821247009538222e-02  5.0615535704004309e+00 1.6876567588270311e-01 8.6818868600448879e-02  5.8260749944860333e+00 1.6875765523806732e-01 8.6818150575980621e-02  6.5905794306659455e+00 1.6875429439144363e-01 8.6817910219531377e-02  7.3550771062078599e+00 1.6875273376071209e-01 8.6817807241806641e-02  8.1195718200728066e+00 1.6875194679182193e-01 8.6817752200858717e-02  8.8840650893721023e+00 1.6875152889222855e-01 8.6817720675613580e-02  9.6485576061806260e+00 1.6875130053410362e-01 8.6817702178289435e-02  1.0413049717666755e+01 1.6875117390503919e-01 8.6817691224620741e-02  1.1177541606566503e+01 1.6875110322487122e-01 8.6817684773386153e-02  1.1942033372048812e+01 1.6875106374026977e-01 8.6817681019648610e-02  1.2706525069047792e+01 1.6875104183424755e-01 8.6817678874263601e-02  1.3471016728517188e+01 1.6875103000545735e-01 8.6817677692166542e-02  1.4235508368379980e+01 1.6875102421486787e-01 8.6817677123035175e-02  1.5000000000000007e+01 1.6875102248193793e-01 8.6817676950428135e-02  0.0000000000000000e+00 0.0000000000000000e+00 0.0000000000000000e+00  4.7549101046444081e-01 1.0536989781680880e-03 9.1706281455317257e-02  1.2272455691931112e+00 4.5658915345855763e-04 8.7954356251499805e-02  1.9989547568679891e+00 3.2810576886093930e-04 8.7280255677443769e-02  2.7665493935317542e+00 2.9404012746585354e-04 8.7063447658345727e-02  3.5321784465376891e+00 2.8509295629656025e-04 8.7025142498649635e-02  4.2969867556799137e+00 2.7530466037653702e-04 8.7014481493948526e-02  5.0615715641879131e+00 2.6929822902838795e-04 8.7011725572517504e-02  5.8260902906589562e+00 2.6585782021326833e-04 8.7011364346291503e-02  6.5905893889546476e+00 2.6390934253244246e-04 8.7011409921397845e-02  7.3550830925074413e+00 2.6280586866365280e-04 8.7011476121552786e-02  8.1195752973262891e+00 2.6218373771067741e-04 8.7011519922781430e-02  8.8840670742382208e+00 2.6183418893853096e-04 8.7011544243908306e-02  9.6485587295601061e+00 2.6163780761954855e-04 8.7011556419441569e-02  1.0413050350703651e+01 2.6152752129138143e-04 8.7011562235821266e-02  1.1177541962075079e+01 2.6146565238757322e-04 8.7011564975742098e-02  1.1942033570568256e+01 2.6143103659411333e-04 8.7011566261467041e-02  1.2706525178183174e+01 2.6141183015028914e-04 8.7011566864953427e-02  1.3471016785511965e+01 2.6140146264876866e-04 8.7011567148536376e-02  1.4235508392712861e+01 2.6139638492228177e-04 8.7011567289410174e-02  1.5000000000000007e+01 2.6139486051239943e-04 8.7011567326400030e-02  0.0000000000000000e+00 0.0000000000000000e+00 0.0000000000000000e+00  4.8067210691140833e-01 -1.3533169758245023e-01 9.0958990239244530e-02  1.2326799269641540e+00 -1.6612739290441442e-01 8.7939848922757552e-02  2.0014517479045564e+00 -1.6852832867813111e-01 8.7327932773082970e-02  2.7674618322656834e+00 -1.6837485797997234e-01 8.7208216775407674e-02  3.5324967846208795e+00 -1.6826510608681494e-01 8.7204266549893258e-02  4.2971098690122416e+00 -1.6823171599789907e-01 8.7203824716016495e-02  5.0616245036604939e+00 -1.6822456018724322e-01 8.7203925787608744e-02  5.8261153350117292e+00 -1.6822453477023355e-01 8.7204602231881145e-02  6.5906020718894531e+00 -1.6822570706390416e-01 8.7204995876939959e-02  7.3550898517506429e+00 -1.6822669594058887e-01 8.7205205576339595e-02  8.1195789922328743e+00 -1.6822734022986208e-01 8.7205321704494521e-02  8.8840691199185482e+00 -1.6822772631113919e-01 8.7205384933718266e-02  9.6485598701666611e+00 -1.6822794960164295e-01 8.7205418817575972e-02  1.0413050988711124e+01 -1.6822807653530253e-01 8.7205437056268306e-02  1.1177542319055158e+01 -1.6822814809189057e-01 8.7205446945395115e-02  1.1942033769548347e+01 -1.6822818819147803e-01 8.7205452322480087e-02  1.2706525287478083e+01 -1.6822821044307126e-01 8.7205455238557578e-02  1.3471016842571574e+01 -1.6822822245093161e-01 8.7205456788189542e-02  1.4235508417077515e+01 -1.6822822833009796e-01 8.7205457551407101e-02  1.5000000000000007e+01 -1.6822823009793519e-01 8.7205457774267373e-02  0.0000000000000000e+00 0.0000000000000000e+00 0.0000000000000000e+00  4.9941311048278192e-01 -2.8192143862790964e-01 8.9751605789541195e-02  1.2460223917098308e+00 -3.3265471429425397e-01 8.7094174507065109e-02  2.0065561863453918e+00 -3.3681756449193523e-01 8.7189535832453577e-02  2.7691312776599579e+00 -3.3686466689442612e-01 8.7345851692993845e-02  3.5330065949150100e+00 -3.3675685034301422e-01 8.7382479272667846e-02  4.2972795920946645e+00 -3.3671881714377216e-01 8.7393105863969686e-02  5.0616864573384666e+00 -3.3671183057359905e-01 8.7396739332938678e-02  5.8261403525675179e+00 -3.3671253969072673e-01 8.7398236818749600e-02  6.5906133775721676e+00 -3.3671434754895385e-01 8.7398789061741700e-02  7.3550954485417472e+00 -3.3671574590320386e-01 8.7399042242271949e-02  8.1195819217778382e+00 -3.3671663705838584e-01 8.7399179096967511e-02  8.8840707047379581e+00 -3.3671716672619062e-01 8.7399253705665120e-02  9.6485607434056924e+00 -3.3671747139017721e-01 8.7399295403272667e-02  1.0413051474240758e+01 -3.3671764414793542e-01 8.7399319156873309e-02  1.1177542589902822e+01 -3.3671774141955746e-01 8.7399332694642562e-02  1.1942033920295813e+01 -3.3671779588654338e-01 8.7399340371701703e-02  1.2706525370223758e+01 -3.3671782609564221e-01 8.7399344681231672e-02  1.3471016885759589e+01 -3.3671784239271907e-01 8.7399347029956401e-02  1.4235508435520718e+01 -3.3671785037234170e-01 8.7399348201139551e-02  1.5000000000000007e+01 -3.3671785276897331e-01 8.7399348549548811e-02  0.0000000000000000e+00 0.0000000000000000e+00 0.0000000000000000e+00  5.2980086198813792e-01 -4.3758472266105847e-01 8.0762248569748382e-02  1.2553671320512014e+00 -4.9815410144800820e-01 8.5678110148865186e-02  2.0097480564588390e+00 -5.0476128284983934e-01 8.7444468501162761e-02  2.7700184134555368e+00 -5.0519174295562186e-01 8.7528919990985263e-02  3.5332467234559775e+00 -5.0518878837879533e-01 8.7569926329864309e-02  4.2973597333492473e+00 -5.0518972696171616e-01 8.7587543795965034e-02  5.0617151704399248e+00 -5.0519405168196241e-01 8.7591440601344148e-02  5.8261515978787886e+00 -5.0519883210263983e-01 8.7592519012338887e-02  6.5906183660837803e+00 -5.0520234565109690e-01 8.7592820952533984e-02  7.3550978863162539e+00 -5.0520452441290264e-01 8.7592995514108249e-02  8.1195831895137669e+00 -5.0520580730547771e-01 8.7593093071476072e-02  8.8840713871699730e+00 -5.0520654216481908e-01 8.7593150390125635e-02  9.6485611185218829e+00 -5.0520695825400252e-01 8.7593186733714676e-02  1.0413051682616736e+01 -5.0520719253406632e-01 8.7593209228403385e-02  1.1177542706081342e+01 -5.0520732399734680e-01 8.7593222789244904e-02  1.1942033984940453e+01 -5.0520739750731380e-01 8.7593230824491067e-02  1.2706525405704392e+01 -5.0520743825954162e-01 8.7593235484557913e-02  1.3471016904276786e+01 -5.0520746024301844e-01 8.7593238083133740e-02  1.4235508443419425e+01 -5.0520747101547481e-01 8.7593239383997476e-02  1.5000000000000007e+01 -5.0520747420722112e-01 8.7593239794196268e-02  0.0000000000000000e+00 0.0000000000000000e+00 0.0000000000000000e+00  5.1573971711144950e-01 4.3832573176304462e-01 2.9539101249269794e-02  1.2564366755166407e+00 4.9972840343692276e-01 3.0134012757820912e-02  2.0085166724089896e+00 5.0559453202567439e-01 3.0277558847891347e-02  2.7691356043976980e+00 5.0585652936463332e-01 3.0252154382101572e-02  3.5327714916327051e+00 5.0576309332389302e-01 3.0270083284604791e-02  4.2970944922503955e+00 5.0571029165676507e-01 3.0271309820739493e-02  5.0615653349138938e+00 5.0568683509586132e-01 3.0269105689970228e-02  5.8260671696338653e+00 5.0567630922701123e-01 3.0267932921754753e-02  6.5905710500796708e+00 5.0567127762499742e-01 3.0267334682065605e-02  7.3550713133361940e+00 5.0566870820510834e-01 3.0267011584007863e-02  8.1195682598786583e+00 5.0566733495361849e-01 3.0266847211919530e-02  8.8840630025933809e+00 5.0566658271285203e-01 3.0266766071052588e-02  9.6485564099932191e+00 5.0566616543613263e-01 3.0266725708628459e-02  1.0413049039485140e+01 5.0566593249373870e-01 3.0266705411476767e-02  1.1177541224565893e+01 5.0566580213479684e-01 3.0266695112538305e-02  1.1942033158419735e+01 5.0566572926326669e-01 3.0266689835368475e-02  1.2706524951523662e+01 5.0566568884172958e-01 3.0266687115479349e-02  1.3471016667121427e+01 5.0566566702459559e-01 3.0266685730986065e-02  1.4235508342173411e+01 5.0566565636112126e-01 3.0266685081866255e-02  1.5000000000000007e+01 5.0566565315609058e-01 3.0266684872928384e-02  0.0000000000000000e+00 0.0000000000000000e+00 0.0000000000000000e+00  4.9354703526652360e-01 2.8164843729641270e-01 3.1338858238670136e-02  1.2467533097392289e+00 3.3327000909410676e-01 3.0424433559824327e-02  2.0054977840156116e+00 3.3751815077967495e-01 3.0453540867192850e-02  2.7683881342671519e+00 3.3746701574983007e-01 3.0467951028395415e-02  3.5326095533777200e+00 3.3729580486862909e-01 3.0462525937640830e-02  4.2970597238942627e+00 3.3722268321454396e-01 3.0462073039180703e-02  5.0615608974197501e+00 3.3719550200561754e-01 3.0461616990581090e-02  5.8260692716769009e+00 3.3718500313381872e-01 3.0461147570825024e-02  6.5905735120163893e+00 3.3718050633840502e-01 3.0460875761680991e-02  7.3550730371553117e+00 3.3717837929692562e-01 3.0460734800792255e-02  8.1195693234966502e+00 3.3717729720594425e-01 3.0460660157751226e-02  8.8840636273945588e+00 3.3717672067178650e-01 3.0460620549729235e-02  9.6485567685462605e+00 3.3717640537587246e-01 3.0460599632248418e-02  1.0413049242866402e+01 3.3717623062076835e-01 3.0460588529007831e-02  1.1177541339151237e+01 3.3717613317538386e-01 3.0460582587374226e-02  1.1942033222508133e+01 3.3717607879713629e-01 3.0460579390702285e-02  1.2706524986782501e+01 3.3717604865750778e-01 3.0460577672867747e-02  1.3471016685540096e+01 3.3717603239581001e-01 3.0460576768581285e-02  1.4235508350039746e+01 3.3717602444283762e-01 3.0460576337769135e-02  1.5000000000000007e+01 3.3717602206923297e-01 3.0460576209332617e-02  0.0000000000000000e+00 0.0000000000000000e+00 0.0000000000000000e+00  4.8105068536954548e-01 1.3746859991262542e-01 3.2106300186623214e-02  1.2334925353341708e+00 1.6665093656063754e-01 3.0871577304610456e-02  2.0007196208744311e+00 1.6907236124082411e-01 3.0690534682158765e-02  2.7670494503736309e+00 1.6892878131740061e-01 3.0665228489639495e-02  3.5322832319100224e+00 1.6878060378303372e-01 3.0656752788770784e-02  4.2969868800131108e+00 1.6872208809264269e-01 3.0654357992314734e-02  5.0615535751852772e+00 1.6870124630838268e-01 3.0654299785703748e-02  5.8260750380131734e+00 1.6869320527456294e-01 3.0654383959365358e-02  6.5905794436345282e+00 1.6868977191412099e-01 3.0654433361307073e-02  7.3550771082086621e+00 1.6868816234468001e-01 3.0654460066791824e-02  8.1195718208882148e+00 1.6868734805774827e-01 3.0654470044861343e-02  8.8840650898967866e+00 1.6868691531748817e-01 3.0654472057686778e-02  9.6485576064569969e+00 1.6868667902839032e-01 3.0654471419105895e-02  1.0413049717819844e+01 1.6868654820307399e-01 3.0654470224988458e-02  1.1177541606657202e+01 1.6868647529970671e-01 3.0654469164962152e-02  1.1942033372101895e+01 1.6868643463168409e-01 3.0654468397010061e-02  1.2706525069077404e+01 1.6868641209603627e-01 3.0654467896163738e-02  1.3471016728531307e+01 1.6868639993867715e-01 3.0654467596973396e-02  1.4235508368383375e+01 1.6868639399132429e-01 3.0654467446757469e-02  1.5000000000000007e+01 1.6868639221161771e-01 3.0654467398521106e-02  0.0000000000000000e+00 0.0000000000000000e+00 0.0000000000000000e+00  4.7759379054589968e-01 1.0036518226617728e-03 3.2328316325998203e-02  1.2276771987672122e+00 3.3609255538222607e-04 3.1144478975057829e-02  1.9989230351327907e+00 2.6858850693563051e-04 3.0912849324045099e-02  2.7665545078070206e+00 2.3688875719472837e-04 3.0851212162899586e-02  3.5321821191849350e+00 2.2170869200697837e-04 3.0847939896048511e-02  4.2969858183033196e+00 2.1105265128917936e-04 3.0846814812353469e-02  5.0615715845607214e+00 2.0495017115488244e-04 3.0847363104530571e-02  5.8260903089907012e+00 2.0137873909280521e-04 3.0847838912586408e-02  6.5905893762895689e+00 1.9935412810858933e-04 3.0848105702569129e-02  7.3550830849369504e+00 1.9821673100096804e-04 3.0848240494156940e-02  8.1195752940779311e+00 1.9757663137364830e-04 3.0848304370225416e-02  8.8840670725548456e+00 1.9721680516657120e-04 3.0848333975424275e-02  9.6485587286453356e+00 1.9701466031502100e-04 3.0848347491344623e-02  1.0413050350225387e+01 1.9690115238582561e-04 3.0848353599532221e-02  1.1177541961825778e+01 1.9683747169488524e-04 3.0848356353692995e-02  1.1942033570436871e+01 1.9680183878635036e-04 3.0848357597426889e-02  1.2706525178114266e+01 1.9678206691175365e-04 3.0848358160097612e-02  1.3471016785477362e+01 1.9677139395975972e-04 3.0848358414134601e-02  1.4235508392699424e+01 1.9676616799511963e-04 3.0848358525830084e-02  1.5000000000000007e+01 1.9676460241341466e-04 3.0848358555812899e-02  0.0000000000000000e+00 0.0000000000000000e+00 0.0000000000000000e+00  4.8277088826540177e-01 -1.3520982336135276e-01 3.2324002774869770e-02  1.2330749079082288e+00 -1.6606240483346926e-01 3.1311529472046615e-02  2.0014317689944598e+00 -1.6853553178192379e-01 3.1056840906276785e-02  2.7674568261248704e+00 -1.6842879970055269e-01 3.1029922740153267e-02  3.5324987388732736e+00 -1.6832686883738121e-01 3.1038117419045285e-02  4.2971086285911957e+00 -1.6829540429484904e-01 3.1039931398616657e-02  5.0616245073334349e+00 -1.6828894192396227e-01 3.1041040181936548e-02  5.8261153102161130e+00 -1.6828910219995680e-01 3.1041672568418430e-02  6.5906020412988875e+00 -1.6829031438274750e-01 3.1041969994247361e-02  7.3550898411037950e+00 -1.6829131176958287e-01 3.1042112160502851e-02  8.1195789871936395e+00 -1.6829196108619002e-01 3.1042181156747152e-02  8.8840691170924675e+00 -1.6829235052527652e-01 3.1042215359342533e-02  9.6485598686159175e+00 -1.6829257604473233e-01 3.1042232369232686e-02  1.0413050987870248e+01 -1.6829270450210795e-01 3.1042240944061279e-02  1.1177542318593208e+01 -1.6829277705569051e-01 3.1042245336850748e-02  1.1942033769293779e+01 -1.6829281777775129e-01 3.1042247612746193e-02  1.2706525287340384e+01 -1.6829284040336548e-01 3.1042248798243459e-02  1.3471016842502125e+01 -1.6829285262458285e-01 3.1042249408565776e-02  1.4235508417052127e+01 -1.6829285861151838e-01 3.1042249699807869e-02  1.5000000000000007e+01 -1.6829286040734662e-01 3.1042249784998678e-02  0.0000000000000000e+00 0.0000000000000000e+00 0.0000000000000000e+00  5.0177625681691240e-01 -2.8085552576367345e-01 3.2484024891581094e-02  1.2462811675798082e+00 -3.3245528976943556e-01 3.1129135968641999e-02  2.0065586435769327e+00 -3.3685300367110405e-01 3.1161458079135569e-02  2.7691195638022394e+00 -3.3692026139933962e-01 3.1221707661934196e-02  3.5330055662016888e+00 -3.3681972363074325e-01 3.1232396027083758e-02  4.2972788635739541e+00 -3.3678345071759680e-01 3.1234959284664569e-02  5.0616864512273807e+00 -3.3677658500867558e-01 3.1235669018616123e-02  5.8261403166734622e+00 -3.3677726598435537e-01 3.1235959841071449e-02  6.5906133524724924e+00 -3.3677901949692240e-01 3.1236037089520031e-02  7.3550954421595955e+00 -3.3678039279884020e-01 3.1236075388229523e-02  8.1195819180108231e+00 -3.3678127339397579e-01 3.1236101125498857e-02  8.8840707022369472e+00 -3.3678179850235967e-01 3.1236116873367435e-02  9.6485607419522754e+00 -3.3678210166547701e-01 3.1236126704276418e-02  1.0413051473397584e+01 -3.3678227410589234e-01 3.1236132821657884e-02  1.1177542589407164e+01 -3.3678237143122808e-01 3.1236136525273860e-02  1.1942033920009704e+01 -3.3678242603355601e-01 3.1236138718841705e-02  1.2706525370064369e+01 -3.3678245636393062e-01 3.1236139989945240e-02  1.3471016885678702e+01 -3.3678247274501527e-01 3.1236140698243504e-02  1.4235508435491861e+01 -3.3678248077073725e-01 3.1236141056045368e-02  1.5000000000000007e+01 -3.3678248317699699e-01 3.1236141166268980e-02  0.0000000000000000e+00 0.0000000000000000e+00 0.0000000000000000e+00  5.2975119368931201e-01 -4.3622755921939399e-01 2.8751326047050937e-02  1.2560988185916462e+00 -4.9794622367571656e-01 3.0998847162347923e-02  2.0097063500889858e+00 -5.0486924581826997e-01 3.1470047256379412e-02  2.7699781384697126e+00 -5.0524443876330860e-01 3.1424356984515789e-02  3.5332470403585869e+00 -5.0525361361945276e-01 3.1433137998102295e-02  4.2973597222348010e+00 -5.0525500938616530e-01 3.1432375306481290e-02  5.0617150532126836e+00 -5.0525902782738175e-01 3.1431156399232114e-02  5.8261515618484534e+00 -5.0526364362129261e-01 3.1430561001194436e-02  6.5906183509171203e+00 -5.0526703445290044