<?xml version="1.0"?>
<VTKFile type="UnstructuredGrid"  version="0.1"  >
<UnstructuredGrid>
<Piece  NumberOfPoints="882" NumberOfCells="3600">
<Points>
<DataArray  type="Float64"  NumberOfComponents="3"  format="ascii">0 0 0  0.5 0 0  1 0 0  1.5 0 0  2 0 0  2.5 0 0  3 0 0  3.5 0 0  4 0 0  4.5 0 0  5 0 0  5.5 0 0  6 0 0  6.5 0 0  7 0 0  7.5 0 0  8 0 0  8.5 0 0  9 0 0  9.5 0 0  10 0 0  0 0.5 0  0.5 0.5 0  1 0.5 0  1.5 0.5 0  2 0.5 0  2.5 0.5 0  3 0.5 0  3.5 0.5 0  4 0.5 0  4.5 0.5 0  5 0.5 0  5.5 0.5 0  6 0.5 0  6.5 0.5 0  7 0.5 0  7.5 0.5 0  8 0.5 0  8.5 0.5 0  9 0.5 0  9.5 0.5 0  10 0.5 0  0 1 0  0.5 1 0  1 1 0  1.5 1 0  2 1 0  2.5 1 0  3 1 0  3.5 1 0  4 1 0  4.5 1 0  5 1 0  5.5 1 0  6 1 0  6.5 1 0  7 1 0  7.5 1 0  8 1 0  8.5 1 0  9 1 0  9.5 1 0  10 1 0  0 1.5 0  0.5 1.5 0  1 1.5 0  1.5 1.5 0  2 1.5 0  2.5 1.5 0  3 1.5 0  3.5 1.5 0  4 1.5 0  4.5 1.5 0  5 1.5 0  5.5 1.5 0  6 1.5 0  6.5 1.5 0  7 1.5 0  7.5 1.5 0  8 1.5 0  8.5 1.5 0  9 1.5 0  9.5 1.5 0  10 1.5 0  0 2 0  0.5 2 0  1 2 0  1.5 2 0  2 2 0  2.5 2 0  3 2 0  3.5 2 0  4 2 0  4.5 2 0  5 2 0  5.5 2 0  6 2 0  6.5 2 0  7 2 0  7.5 2 0  8 2 0  8.5 2 0  9 2 0  9.5 2 0  10 2 0  0 2.5 0  0.5 2.5 0  1 2.5 0  1.5 2.5 0  2 2.5 0  2.5 2.5 0  3 2.5 0  3.5 2.5 0  4 2.5 0  4.5 2.5 0  5 2.5 0  5.5 2.5 0  6 2.5 0  6.5 2.5 0  7 2.5 0  7.5 2.5 0  8 2.5 0  8.5 2.5 0  9 2.5 0  9.5 2.5 0  10 2.5 0  0 3 0  0.5 3 0  1 3 0  1.5 3 0  2 3 0  2.5 3 0  3 3 0  3.5 3 0  4 3 0  4.5 3 0  5 3 0  5.5 3 0  6 3 0  6.5 3 0  7 3 0  7.5 3 0  8 3 0  8.5 3 0  9 3 0  9.5 3 0  10 3 0  0 0 0.1  0.5 0 0.1  1 0 0.1  1.5 0 0.1  2 0 0.1  2.5 0 0.1  3 0 0.1  3.5 0 0.1  4 0 0.1  4.5 0 0.1  5 0 0.1  5.5 0 0.1  6 0 0.1  6.5 0 0.1  7 0 0.1  7.5 0 0.1  8 0 0.1  8.5 0 0.1  9 0 0.1  9.5 0 0.1  10 0 0.1  0 0.5 0.1  0.5 0.5 0.1  1 0.5 0.1  1.5 0.5 0.1  2 0.5 0.1  2.5 0.5 0.1  3 0.5 0.1  3.5 0.5 0.1  4 0.5 0.1  4.5 0.5 0.1  5 0.5 0.1  5.5 0.5 0.1  6 0.5 0.1  6.5 0.5 0.1  7 0.5 0.1  7.5 0.5 0.1  8 0.5 0.1  8.5 0.5 0.1  9 0.5 0.1  9.5 0.5 0.1  10 0.5 0.1  0 1 0.1  0.5 1 0.1  1 1 0.1  1.5 1 0.1  2 1 0.1  2.5 1 0.1  3 1 0.1  3.5 1 0.1  4 1 0.1  4.5 1 0.1  5 1 0.1  5.5 1 0.1  6 1 0.1  6.5 1 0.1  7 1 0.1  7.5 1 0.1  8 1 0.1  8.5 1 0.1  9 1 0.1  9.5 1 0.1  10 1 0.1  0 1.5 0.1  0.5 1.5 0.1  1 1.5 0.1  1.5 1.5 0.1  2 1.5 0.1  2.5 1.5 0.1  3 1.5 0.1  3.5 1.5 0.1  4 1.5 0.1  4.5 1.5 0.1  5 1.5 0.1  5.5 1.5 0.1  6 1.5 0.1  6.5 1.5 0.1  7 1.5 0.1  7.5 1.5 0.1  8 1.5 0.1  8.5 1.5 0.1  9 1.5 0.1  9.5 1.5 0.1  10 1.5 0.1  0 2 0.1  0.5 2 0.1  1 2 0.1  1.5 2 0.1  2 2 0.1  2.5 2 0.1  3 2 0.1  3.5 2 0.1  4 2 0.1  4.5 2 0.1  5 2 0.1  5.5 2 0.1  6 2 0.1  6.5 2 0.1  7 2 0.1  7.5 2 0.1  8 2 0.1  8.5 2 0.1  9 2 0.1  9.5 2 0.1  10 2 0.1  0 2.5 0.1  0.5 2.5 0.1  1 2.5 0.1  1.5 2.5 0.1  2 2.5 0.1  2.5 2.5 0.1  3 2.5 0.1  3.5 2.5 0.1  4 2.5 0.1  4.5 2.5 0.1  5 2.5 0.1  5.5 2.5 0.1  6 2.5 0.1  6.5 2.5 0.1  7 2.5 0.1  7.5 2.5 0.1  8 2.5 0.1  8.5 2.5 0.1  9 2.5 0.1  9.5 2.5 0.1  10 2.5 0.1  0 3 0.1  0.5 3 0.1  1 3 0.1  1.5 3 0.1  2 3 0.1  2.5 3 0.1  3 3 0.1  3.5 3 0.1  4 3 0.1  4.5 3 0.1  5 3 0.1  5.5 3 0.1  6 3 0.1  6.5 3 0.1  7 3 0.1  7.5 3 0.1  8 3 0.1  8.5 3 0.1  9 3 0.1  9.5 3 0.1  10 3 0.1  0 0 0.2  0.5 0 0.2  1 0 0.2  1.5 0 0.2  2 0 0.2  2.5 0 0.2  3 0 0.2  3.5 0 0.2  4 0 0.2  4.5 0 0.2  5 0 0.2  5.5 0 0.2  6 0 0.2  6.5 0 0.2  7 0 0.2  7.5 0 0.2  8 0 0.2  8.5 0 0.2  9 0 0.2  9.5 0 0.2  10 0 0.2  0 0.5 0.2  0.5 0.5 0.2  1 0.5 0.2  1.5 0.5 0.2  2 0.5 0.2  2.5 0.5 0.2  3 0.5 0.2  3.5 0.5 0.2  4 0.5 0.2  4.5 0.5 0.2  5 0.5 0.2  5.5 0.5 0.2  6 0.5 0.2  6.5 0.5 0.2  7 0.5 0.2  7.5 0.5 0.2  8 0.5 0.2  8.5 0.5 0.2  9 0.5 0.2  9.5 0.5 0.2  10 0.5 0.2  0 1 0.2  0.5 1 0.2  1 1 0.2  1.5 1 0.2  2 1 0.2  2.5 1 0.2  3 1 0.2  3.5 1 0.2  4 1 0.2  4.5 1 0.2  5 1 0.2  5.5 1 0.2  6 1 0.2  6.5 1 0.2  7 1 0.2  7.5 1 0.2  8 1 0.2  8.5 1 0.2  9 1 0.2  9.5 1 0.2  10 1 0.2  0 1.5 0.2  0.5 1.5 0.2  1 1.5 0.2  1.5 1.5 0.2  2 1.5 0.2  2.5 1.5 0.2  3 1.5 0.2  3.5 1.5 0.2  4 1.5 0.2  4.5 1.5 0.2  5 1.5 0.2  5.5 1.5 0.2  6 1.5 0.2  6.5 1.5 0.2  7 1.5 0.2  7.5 1.5 0.2  8 1.5 0.2  8.5 1.5 0.2  9 1.5 0.2  9.5 1.5 0.2  10 1.5 0.2  0 2 0.2  0.5 2 0.2  1 2 0.2  1.5 2 0.2  2 2 0.2  2.5 2 0.2  3 2 0.2  3.5 2 0.2  4 2 0.2  4.5 2 0.2  5 2 0.2  5.5 2 0.2  6 2 0.2  6.5 2 0.2  7 2 0.2  7.5 2 0.2  8 2 0.2  8.5 2 0.2  9 2 0.2  9.5 2 0.2  10 2 0.2  0 2.5 0.2  0.5 2.5 0.2  1 2.5 0.2  1.5 2.5 0.2  2 2.5 0.2  2.5 2.5 0.2  3 2.5 0.2  3.5 2.5 0.2  4 2.5 0.2  4.5 2.5 0.2  5 2.5 0.2  5.5 2.5 0.2  6 2.5 0.2  6.5 2.5 0.2  7 2.5 0.2  7.5 2.5 0.2  8 2.5 0.2  8.5 2.5 0.2  9 2.5 0.2  9.5 2.5 0.2  10 2.5 0.2  0 3 0.2  0.5 3 0.2  1 3 0.2  1.5 3 0.2  2 3 0.2  2.5 3 0.2  3 3 0.2  3.5 3 0.2  4 3 0.2  4.5 3 0.2  5 3 0.2  5.5 3 0.2  6 3 0.2  6.5 3 0.2  7 3 0.2  7.5 3 0.2  8 3 0.2  8.5 3 0.2  9 3 0.2  9.5 3 0.2  10 3 0.2  0 0 0.3  0.5 0 0.3  1 0 0.3  1.5 0 0.3  2 0 0.3  2.5 0 0.3  3 0 0.3  3.5 0 0.3  4 0 0.3  4.5 0 0.3  5 0 0.3  5.5 0 0.3  6 0 0.3  6.5 0 0.3  7 0 0.3  7.5 0 0.3  8 0 0.3  8.5 0 0.3  9 0 0.3  9.5 0 0.3  10 0 0.3  0 0.5 0.3  0.5 0.5 0.3  1 0.5 0.3  1.5 0.5 0.3  2 0.5 0.3  2.5 0.5 0.3  3 0.5 0.3  3.5 0.5 0.3  4 0.5 0.3  4.5 0.5 0.3  5 0.5 0.3  5.5 0.5 0.3  6 0.5 0.3  6.5 0.5 0.3  7 0.5 0.3  7.5 0.5 0.3  8 0.5 0.3  8.5 0.5 0.3  9 0.5 0.3  9.5 0.5 0.3  10 0.5 0.3  0 1 0.3  0.5 1 0.3  1 1 0.3  1.5 1 0.3  2 1 0.3  2.5 1 0.3  3 1 0.3  3.5 1 0.3  4 1 0.3  4.5 1 0.3  5 1 0.3  5.5 1 0.3  6 1 0.3  6.5 1 0.3  7 1 0.3  7.5 1 0.3  8 1 0.3  8.5 1 0.3  9 1 0.3  9.5 1 0.3  10 1 0.3  0 1.5 0.3  0.5 1.5 0.3  1 1.5 0.3  1.5 1.5 0.3  2 1.5 0.3  2.5 1.5 0.3  3 1.5 0.3  3.5 1.5 0.3  4 1.5 0.3  4.5 1.5 0.3  5 1.5 0.3  5.5 1.5 0.3  6 1.5 0.3  6.5 1.5 0.3  7 1.5 0.3  7.5 1.5 0.3  8 1.5 0.3  8.5 1.5 0.3  9 1.5 0.3  9.5 1.5 0.3  10 1.5 0.3  0 2 0.3  0.5 2 0.3  1 2 0.3  1.5 2 0.3  2 2 0.3  2.5 2 0.3  3 2 0.3  3.5 2 0.3  4 2 0.3  4.5 2 0.3  5 2 0.3  5.5 2 0.3  6 2 0.3  6.5 2 0.3  7 2 0.3  7.5 2 0.3  8 2 0.3  8.5 2 0.3  9 2 0.3  9.5 2 0.3  10 2 0.3  0 2.5 0.3  0.5 2.5 0.3  1 2.5 0.3  1.5 2.5 0.3  2 2.5 0.3  2.5 2.5 0.3  3 2.5 0.3  3.5 2.5 0.3  4 2.5 0.3  4.5 2.5 0.3  5 2.5 0.3  5.5 2.5 0.3  6 2.5 0.3  6.5 2.5 0.3  7 2.5 0.3  7.5 2.5 0.3  8 2.5 0.3  8.5 2.5 0.3  9 2.5 0.3  9.5 2.5 0.3  10 2.5 0.3  0 3 0.3  0.5 3 0.3  1 3 0.3  1.5 3 0.3  2 3 0.3  2.5 3 0.3  3 3 0.3  3.5 3 0.3  4 3 0.3  4.5 3 0.3  5 3 0.3  5.5 3 0.3  6 3 0.3  6.5 3 0.3  7 3 0.3  7.5 3 0.3  8 3 0.3  8.5 3 0.3  9 3 0.3  9.5 3 0.3  10 3 0.3  0 0 0.4  0.5 0 0.4  1 0 0.4  1.5 0 0.4  2 0 0.4  2.5 0 0.4  3 0 0.4  3.5 0 0.4  4 0 0.4  4.5 0 0.4  5 0 0.4  5.5 0 0.4  6 0 0.4  6.5 0 0.4  7 0 0.4  7.5 0 0.4  8 0 0.4  8.5 0 0.4  9 0 0.4  9.5 0 0.4  10 0 0.4  0 0.5 0.4  0.5 0.5 0.4  1 0.5 0.4  1.5 0.5 0.4  2 0.5 0.4  2.5 0.5 0.4  3 0.5 0.4  3.5 0.5 0.4  4 0.5 0.4  4.5 0.5 0.4  5 0.5 0.4  5.5 0.5 0.4  6 0.5 0.4  6.5 0.5 0.4  7 0.5 0.4  7.5 0.5 0.4  8 0.5 0.4  8.5 0.5 0.4  9 0.5 0.4  9.5 0.5 0.4  10 0.5 0.4  0 1 0.4  0.5 1 0.4  1 1 0.4  1.5 1 0.4  2 1 0.4  2.5 1 0.4  3 1 0.4  3.5 1 0.4  4 1 0.4  4.5 1 0.4  5 1 0.4  5.5 1 0.4  6 1 0.4  6.5 1 0.4  7 1 0.4  7.5 1 0.4  8 1 0.4  8.5 1 0.4  9 1 0.4  9.5 1 0.4  10 1 0.4  0 1.5 0.4  0.5 1.5 0.4  1 1.5 0.4  1.5 1.5 0.4  2 1.5 0.4  2.5 1.5 0.4  3 1.5 0.4  3.5 1.5 0.4  4 1.5 0.4  4.5 1.5 0.4  5 1.5 0.4  5.5 1.5 0.4  6 1.5 0.4  6.5 1.5 0.4  7 1.5 0.4  7.5 1.5 0.4  8 1.5 0.4  8.5 1.5 0.4  9 1.5 0.4  9.5 1.5 0.4  10 1.5 0.4  0 2 0.4  0.5 2 0.4  1 2 0.4  1.5 2 0.4  2 2 0.4  2.5 2 0.4  3 2 0.4  3.5 2 0.4  4 2 0.4  4.5 2 0.4  5 2 0.4  5.5 2 0.4  6 2 0.4  6.5 2 0.4  7 2 0.4  7.5 2 0.4  8 2 0.4  8.5 2 0.4  9 2 0.4  9.5 2 0.4  10 2 0.4  0 2.5 0.4  0.5 2.5 0.4  1 2.5 0.4  1.5 2.5 0.4  2 2.5 0.4  2.5 2.5 0.4  3 2.5 0.4  3.5 2.5 0.4  4 2.5 0.4  4.5 2.5 0.4  5 2.5 0.4  5.5 2.5 0.4  6 2.5 0.4  6.5 2.5 0.4  7 2.5 0.4  7.5 2.5 0.4  8 2.5 0.4  8.5 2.5 0.4  9 2.5 0.4  9.5 2.5 0.4  10 2.5 0.4  0 3 0.4  0.5 3 0.4  1 3 0.4  1.5 3 0.4  2 3 0.4  2.5 3 0.4  3 3 0.4  3.5 3 0.4  4 3 0.4  4.5 3 0.4  5 3 0.4  5.5 3 0.4  6 3 0.4  6.5 3 0.4  7 3 0.4  7.5 3 0.4  8 3 0.4  8.5 3 0.4  9 3 0.4  9.5 3 0.4  10 3 0.4  0 0 0.5  0.5 0 0.5  1 0 0.5  1.5 0 0.5  2 0 0.5  2.5 0 0.5  3 0 0.5  3.5 0 0.5  4 0 0.5  4.5 0 0.5  5 0 0.5  5.5 0 0.5  6 0 0.5  6.5 0 0.5  7 0 0.5  7.5 0 0.5  8 0 0.5  8.5 0 0.5  9 0 0.5  9.5 0 0.5  10 0 0.5  0 0.5 0.5  0.5 0.5 0.5  1 0.5 0.5  1.5 0.5 0.5  2 0.5 0.5  2.5 0.5 0.5  3 0.5 0.5  3.5 0.5 0.5  4 0.5 0.5  4.5 0.5 0.5  5 0.5 0.5  5.5 0.5 0.5  6 0.5 0.5  6.5 0.5 0.5  7 0.5 0.5  7.5 0.5 0.5  8 0.5 0.5  8.5 0.5 0.5  9 0.5 0.5  9.5 0.5 0.5  10 0.5 0.5  0 1 0.5  0.5 1 0.5  1 1 0.5  1.5 1 0.5  2 1 0.5  2.5 1 0.5  3 1 0.5  3.5 1 0.5  4 1 0.5  4.5 1 0.5  5 1 0.5  5.5 1 0.5  6 1 0.5  6.5 1 0.5  7 1 0.5  7.5 1 0.5  8 1 0.5  8.5 1 0.5  9 1 0.5  9.5 1 0.5  10 1 0.5  0 1.5 0.5  0.5 1.5 0.5  1 1.5 0.5  1.5 1.5 0.5  2 1.5 0.5  2.5 1.5 0.5  3 1.5 0.5  3.5 1.5 0.5  4 1.5 0.5  4.5 1.5 0.5  5 1.5 0.5  5.5 1.5 0.5  6 1.5 0.5  6.5 1.5 0.5  7 1.5 0.5  7.5 1.5 0.5  8 1.5 0.5  8.5 1.5 0.5  9 1.5 0.5  9.5 1.5 0.5  10 1.5 0.5  0 2 0.5  0.5 2 0.5  1 2 0.5  1.5 2 0.5  2 2 0.5  2.5 2 0.5  3 2 0.5  3.5 2 0.5  4 2 0.5  4.5 2 0.5  5 2 0.5  5.5 2 0.5  6 2 0.5  6.5 2 0.5  7 2 0.5  7.5 2 0.5  8 2 0.5  8.5 2 0.5  9 2 0.5  9.5 2 0.5  10 2 0.5  0 2.5 0.5  0.5 2.5 0.5  1 2.5 0.5  1.5 2.5 0.5  2 2.5 0.5  2.5 2.5 0.5  3 2.5 0.5  3.5 2.5 0.5  4 2.5 0.5  4.5 2.5 0.5  5 2.5 0.5  5.5 2.5 0.5  6 2.5 0.5  6.5 2.5 0.5  7 2.5 0.5  7.5 2.5 0.5  8 2.5 0.5  8.5 2.5 0.5  9 2.5 0.5  9.5 2.5 0.5  10 2.5 0.5  0 3 0.5  0.5 3 0.5  1 3 0.5  1.5 3 0.5  2 3 0.5  2.5 3 0.5  3 3 0.5  3.5 3 0.5  4 3 0.5  4.5 3 0.5  5 3 0.5  5.5 3 0.5  6 3 0.5  6.5 3 0.5  7 3 0.5  7.5 3 0.5  8 3 0.5  8.5 3 0.5  9 3 0.5  9.5 3 0.5  10 3 0.5  </DataArray>
</Points>
<Cells>
[...]
<PointData  Vectors="f_7-0"> 
<DataArray  type="Float64"  Name="f_7-0"  NumberOfComponents="3" format="ascii">0.0000000000000000e+00 0.0000000000000000e+00 0.0000000000000000e+00  1.0997534182435922e-01 8.4139909636905624e-02 2.2053446081871413e-02  2.1390655279809731e-01 1.4088924688126805e-01 2.0285270869296781e-02  3.1545662638320915e-01 1.7599659859854261e-01 2.1514969469455750e-02  4.3519036378707326e-01 1.8681300954120172e-01 2.4800999325062946e-02  5.7233238151247090e-01 1.8654010413616115e-01 2.6144843407442764e-02  7.1508556378624710e-01 1.8482310493107268e-01 2.6180842642087445e-02  8.5781828693440032e-01 1.8420824839684341e-01 2.6030544809005247e-02  9.9970615906662430e-01 1.8442567084340430e-01 2.5942718572302677e-02  1.1412169921146742e+00 1.8482553662001897e-01 2.5927314840505266e-02  1.2827234670364387e+00 1.8511839417220058e-01 2.5937883220735886e-02  1.4243278485988151e+00 1.8528238704963301e-01 2.5948707322053160e-02  1.5660082962051898e+00 1.8536950820279188e-01 2.5954418894489451e-02  1.7077276659454468e+00 1.8542039903863972e-01 2.5956779867168916e-02  1.8494645455676753e+00 1.8545387088330328e-01 2.5957838704922728e-02  1.9912104622374653e+00 1.8547684215133536e-01 2.5958520623384967e-02  2.1329623440580603e+00 1.8549227271361271e-01 2.5959047190786889e-02  2.2747185146375855e+00 1.8550217849114883e-01 2.5959431192501346e-02  2.4164775888235748e+00 1.8550815575011045e-01 2.5959678206038336e-02  2.5582383965827660e+00 1.8551132370496262e-01 2.5959811078200595e-02  2.6999999999999997e+00 1.8551231212345659e-01 2.5959850756634782e-02  0.0000000000000000e+00 0.0000000000000000e+00 0.0000000000000000e+00  6.4057022641511432e-02 3.3590458311682718e-02 2.3271192267705219e-02  1.7692631727296296e-01 9.7710088728226827e-02 2.3409863970202921e-02  2.9722909633345940e-01 1.2808183000884441e-01 2.4107051982854767e-02  4.3212385410472270e-01 1.3311283000350010e-01 2.5341660503592458e-02  5.7355527034264253e-01 1.3036250619713513e-01 2.6023489340335153e-02  7.1592635262703930e-01 1.2851927135524552e-01 2.6052073959370071e-02  8.5785693705231614e-01 1.2825046306019153e-01 2.6021363853974903e-02  9.9943400733218335e-01 1.2864831189273707e-01 2.6013832486371111e-02  1.1409661790904888e+00 1.2906255332979349e-01 2.6019833026022406e-02  1.2825718494075555e+00 1.2931712411805274e-01 2.6026744327848080e-02  1.4242477694620936e+00 1.2944856811336866e-01 2.6031267552636416e-02  1.5659640414158960e+00 1.2951851057315059e-01 2.6033688253617151e-02  1.7076997912530931e+00 1.2956170164244180e-01 2.6034992608020075e-02  1.8494455125121891e+00 1.2959133303544854e-01 2.6035801375937476e-02  1.9911974715735226e+00 1.2961182477406746e-01 2.6036358153704645e-02  2.1329538156784400e+00 1.2962545941214440e-01 2.6036743499714847e-02  2.2747131971311609e+00 1.2963411933330907e-01 2.6036997623781699e-02  2.4164745364506985e+00 1.2963931585170690e-01 2.6037153451310746e-02  2.5582370114464030e+00 1.2964206774625781e-01 2.6037235378170161e-02  2.6999999999999997e+00 1.2964293161799140e-01 2.6037261359987830e-02  0.0000000000000000e+00 0.0000000000000000e+00 0.0000000000000000e+00  3.7849318655643692e-02 7.4905227219026153e-03 1.9733441872369317e-02  1.4388875177247484e-01 5.2466411892466217e-02 2.7847352281123117e-02  2.8108993030176521e-01 7.3303502879482688e-02 2.6513835612957681e-02  4.2846626426928791e-01 7.4692158970033271e-02 2.6116434006169108e-02  5.7405060766890836e-01 7.3176959513242323e-02 2.5969946509100283e-02  7.1647453305213848e-01 7.2402651593290956e-02 2.5936299327307788e-02  8.5781362594455302e-01 7.2505081147201597e-02 2.6046051578465106e-02  9.9916445885755101e-01 7.2930491997101651e-02 2.6098728148537548e-02  1.1407319422363831e+00 7.3278333916080171e-02 2.6113029017544878e-02  1.2824285500392636e+00 7.3483843478263533e-02 2.6113321363258706e-02  1.4241693644206648e+00 7.3594345319535168e-02 2.6112259192488725e-02  1.5659192861104581e+00 7.3657562059909670e-02 2.6112336945027018e-02  1.7076713670728705e+00 7.3698227465957764e-02 2.6113038710034880e-02  1.8494262800313035e+00 7.3725995825880547e-02 2.6113711084913335e-02  1.9911844752554058e+00 7.3744831448669987e-02 2.6114147187345720e-02  2.1329453213706326e+00 7.3757197789202686e-02 2.6114389791996543e-02  2.2747078994842624e+00 7.3765023114987630e-02 2.6114522668786156e-02  2.4164714883311467e+00 7.3769729253016059e-02 2.6114598240669008e-02  2.5582356237358783e+00 7.3772230409023351e-02 2.6114637742327904e-02  2.6999999999999997e+00 7.3773015121941760e-02 2.6114650948114319e-02  0.0000000000000000e+00 0.0000000000000000e+00 0.0000000000000000e+00  3.3796424814832492e-02 3.2694885717268990e-03 1.6224626735173893e-02  1.2231880311563016e-01 5.9165188927573021e-03 3.1205245826526305e-02  2.7381642236582515e-01 1.3569661585476423e-02 2.7930271612007902e-02  4.2705967570039827e-01 1.4340577003193506e-02 2.6522287145752648e-02  5.7366218486818010e-01 1.5376433401319937e-02 2.5991996742377385e-02  7.1628974896334852e-01 1.6320434575435097e-02 2.5979350132851270e-02  8.5755073004185445e-01 1.6885184682241119e-02 2.6123554193289655e-02  9.9890163297261580e-01 1.7237215554958461e-02 2.6187753963205860e-02  1.1405386566436679e+00 1.7469120753087201e-02 2.6200428101990893e-02  1.2823062071898443e+00 1.7621704363716382e-02 2.6196608064413138e-02  1.4240954012891947e+00 1.7721504575753267e-02 2.6192656560161922e-02  1.5658734123089009e+00 1.7786790821410721e-02 2.6191355609431890e-02  1.7076416505810117e+00 1.7829533604953124e-02 2.6191451558742161e-02  1.8494066083467724e+00 1.7857461085202336e-02 2.6191782373809407e-02  1.9911715075987617e+00 1.7875636866315874e-02 2.6191972119241472e-02  2.1329369430753418e+00 1.7887377548251430e-02 2.6192032871418563e-02  2.2747026737396396e+00 1.7894829517961418e-02 2.6192041471379622e-02  2.4164684673346719e+00 1.7899353646757255e-02 2.6192040129156883e-02  2.5582342432181893e+00 1.7901774914849469e-02 2.6192038752931510e-02  2.6999999999999997e+00 1.7902535823436018e-02 2.6192039619396253e-02  0.0000000000000000e+00 0.0000000000000000e+00 0.0000000000000000e+00  3.7762346413245572e-02 -3.2287300786067821e-03 2.0059415875302852e-02  1.3157417240193967e-01 -3.3965939897646617e-02 2.9244446998269169e-02  2.7604908194240080e-01 -4.9358352621068816e-02 2.7228483476794629e-02  4.2633451747822121e-01 -4.6074645475227403e-02 2.6102818855717927e-02  5.7236743515785393e-01 -4.2397268965322574e-02 2.6162460819584364e-02  7.1522263825986732e-01 -3.9850712704403386e-02 2.6192459466822807e-02  8.5701891711497502e-01 -3.8816469119491555e-02 2.6253207956883327e-02  9.9865317726145764e-01 -3.8505520168092992e-02 2.6278490084588046e-02  1.1403969070554878e+00 -3.8371149632321869e-02 2.6282257997724257e-02  1.2822090847714935e+00 -3.8260652718341059e-02 2.6277213902512711e-02  1.4240259806350544e+00 -3.8164474873820672e-02 2.6273076768131065e-02  1.5658255433196269e+00 -3.8092496741322479e-02 2.6271142204263742e-02  1.7076100632214501e+00 -3.8044742030451655e-02 2.6270430155219744e-02  1.8493862749267376e+00 -3.8014758426764890e-02 2.6270112287782092e-02  1.9911585057158705e+00 -3.7995997434643318e-02 2.6269889490230607e-02  2.1329286579906865e+00 -3.7984070569533984e-02 2.6269710784954856e-02  2.2746975017249613e+00 -3.7976474931938835e-02 2.6269580846443989e-02  2.4164654585609480e+00 -3.7971819186597824e-02 2.6269498345840418e-02  2.5582328614715948e+00 -3.7969309926114081e-02 2.6269453555296578e-02  2.6999999999999997e+00 -3.7968520415665133e-02 2.6269439584254765e-02  0.0000000000000000e+00 0.0000000000000000e+00 0.0000000000000000e+00  5.5326762450500680e-02 -2.1412621336816168e-02 2.4228575392493266e-02  1.6451530919238580e-01 -7.8894494518821578e-02 2.4238077419739133e-02  2.8681986303198337e-01 -1.0714462814283630e-01 2.4396923287081231e-02  4.2658992578797222e-01 -1.0544941751072109e-01 2.5795139021337045e-02  5.7007951528490353e-01 -9.9676071131959490e-02 2.6510785982114780e-02  7.1353998110476058e-01 -9.6234308574754582e-02 2.6494088919058103e-02  8.5628325652847315e-01 -9.4785753584501198e-02 2.6419403729998209e-02  9.9840569276234425e-01 -9.4367999565439245e-02 2.6376958725793730e-02  1.1402926755047262e+00 -9.4247916484102190e-02 2.6361527727901835e-02  1.2821312435843666e+00 -9.4154047915149600e-02 2.6356148314029354e-02  1.4239599255834403e+00 -9.4057583166285222e-02 2.6353597784543152e-02  1.5657759498137658e+00 -9.3978685814911603e-02 2.6351582762250754e-02  1.7075768677921921e+00 -9.3924755966011991e-02 2.6349914439603307e-02  1.8493653090821593e+00 -9.3891004003203243e-02 2.6348709148511160e-02  1.9911453969471637e+00 -9.3870211415997329e-02 2.6347928659477698e-02  2.1329203951795965e+00 -9.3857151220261212e-02 2.6347448506164571e-02  2.2746923414811944e+00 -9.3848860152620728e-02 2.6347156965352239e-02  2.4164624419312788e+00 -9.3843765919389671e-02 2.6346983255013296e-02  2.5582314704551687e+00 -9.3841010884701342e-02 2.6346889915304213e-02  2.6999999999999997e+00 -9.3840145257115537e-02 2.6346858971510081e-02  0.0000000000000000e+00 0.0000000000000000e+00 0.0000000000000000e+00  9.8180878944167105e-02 -6.3971365941566993e-02 2.2509988915149572e-02  2.0325319359402108e-01 -1.2509426626532963e-01 1.9678200816348471e-02  3.0250760014416339e-01 -1.5575466419763595e-01 2.1504106728508870e-02  4.2558786628812556e-01 -1.6086148555287713e-01 2.5817387156089493e-02  5.6717851063107949e-01 -1.5656832781844293e-01 2.6982668423471749e-02  7.1167162894836900e-01 -1.5297658765788158e-01 2.6751871563632068e-02  8.5547748781202348e-01 -1.5108452134359093e-01 2.6614202187623486e-02  9.9815301012916946e-01 -1.5037757956979880e-01 2.6490635113880757e-02  1.1402015250457105e+00 -1.5016131236295829e-01 2.6444530216169711e-02  1.2820606502381444e+00 -1.5005234858967986e-01 2.6434940491667759e-02  1.4238952368307605e+00 -1.4995434698232535e-01 2.6433856142799566e-02  1.5657257808363154e+00 -1.4987077440246124e-01 2.6432094727285312e-02  1.7075430861859242e+00 -1.4981040987269209e-01 2.6429624774277991e-02  1.8493440979448095e+00 -1.4977128833148370e-01 2.6427505869992231e-02  1.9911322365015878e+00 -1.4974695892942430e-01 2.6426094984336831e-02  2.1329121324700693e+00 -1.4973179047483412e-01 2.6425258910634360e-02  2.2746871802924651e+00 -1.4972226186053775e-01 2.6424776786532881e-02  2.4164594180502661e+00 -1.4971644072284832e-01 2.6424498705967706e-02  2.5582300719469333e+00 -1.4971329499854111e-01 2.6424350613286823e-02  2.6999999999999997e+00 -1.4971230383475054e-01 2.6424299963228592e-02  0.0000000000000000e+00 0.0000000000000000e+00 0.0000000000000000e+00  1.1099737494723591e-01 8.3641720566989972e-02 1.3873213285391185e-02  2.1381588296890650e-01 1.4044896423465486e-01 1.2199323306002546e-02  3.1527369753305817e-01 1.7554484385337596e-01 1.2758185311037144e-02  4.3503141447274968e-01 1.8672919137767829e-01 1.4742324623778011e-02  5.7230043995719981e-01 1.8657923629193310e-01 1.5557134579413998e-02  7.1509333663320174e-01 1.8484374439173934e-01 1.5564676321913525e-02  8.5782476449275258e-01 1.8420636972517515e-01 1.5464946799679538e-02  9.9970805951207053e-01 1.8441059723482192e-01 1.5407328800890328e-02  1.1412165293955421e+00 1.8480738462133325e-01 1.5396016203553551e-02  1.2827226496017787e+00 1.8510103686413423e-01 1.5401546095724415e-02  1.4243273280414170e+00 1.8526606909460730e-01 1.5407645238570741e-02  1.5660080475829505e+00 1.8535368430921687e-01 1.5410820282444483e-02  1.7077275479153571e+00 1.8540471386583149e-01 1.5412069142726382e-02  1.8494644753246985e+00 1.8543821027887908e-01 1.5412600505710135e-02  1.9912104119003975e+00 1.8546119569801506e-01 1.5412950437289567e-02  2.1329623078206934e+00 1.8547664663043351e-01 1.5413234297651816e-02  2.2747184906963973e+00 1.8548657193259735e-01 1.5413447537272466e-02  2.4164775750647323e+00 1.8549256289490762e-01 1.5413586645240696e-02  2.5582383909317139e+00 1.8549573818959852e-01 1.5413661853834873e-02  2.6999999999999997e+00 1.8549673029291022e-01 1.5413685288085191e-02  0.0000000000000000e+00 0.0000000000000000e+00 0.0000000000000000e+00  6.4634737779965298e-02 3.4393404816429968e-02 1.4119513359541298e-02  1.7686503342557072e-01 9.7106988937136457e-02 1.4044572547938752e-02  2.9716275884100846e-01 1.2766962277300420e-01 1.4323968500189022e-02  4.3204588263005755e-01 1.3295665042044977e-01 1.5094036604377374e-02  5.7353479743945224e-01 1.3035059073392391e-01 1.5486866379699205e-02  7.1593035549979578e-01 1.2853257622193834e-01 1.5504466747522696e-02  8.5785870594091296e-01 1.2824906786785911e-01 1.5484958462535258e-02  9.9943383529102381e-01 1.2863521681513770e-01 1.5478411375874378e-02  1.1409654983055091e+00 1.2904532893195031e-01 1.5481297997060559e-02  1.2825713308770754e+00 1.2929987543475288e-01 1.5485094431691260e-02  1.4242474840749868e+00 1.2943212155181333e-01 1.5487651828655667e-02  1.5659638937652067e+00 1.2950258131053624e-01 1.5489014626652465e-02  1.7076997049323546e+00 1.2954596916116651e-01 1.5489740428922051e-02  1.8494454539897576e+00 1.2957565697791087e-01 1.5490190446954056e-02  1.9911974302161282e+00 1.2959617275502577e-01 1.5490504084310273e-02  2.1329537875725011e+00 1.2960982942649943e-01 1.5490724047752192e-02  2.2747131793178030e+00 1.2961850942137310e-01 1.5490870522617240e-02  2.4164745264032841e+00 1.2962372062086081e-01 1.5490960865449243e-02  2.5582370072333789e+00 1.2962648119505335e-01 1.5491008634591439e-02  2.6999999999999997e+00 1.2962734764899678e-01 1.5491023960782148e-02  0.0000000000000000e+00 0.0000000000000000e+00 0.0000000000000000e+00  3.6869772754753768e-02 7.7417708151253850e-03 1.1881128713834305e-02  1.4410669140384635e-01 5.2403624197752637e-02 1.6633988934727575e-02  2.8118302579498178e-01 7.2954549009081812e-02 1.5764423689152398e-02  4.2854561909427857e-01 7.4543274836117071e-02 1.5563000209948202e-02  5.7406218389515684e-01 7.3150925814602252e-02 1.5470222861023028e-02  7.1646948876079353e-01 7.2401742823186302e-02 1.5456153535373912e-02  8.5780582714924469e-01 7.2498049606656775e-02 1.5525810766869345e-02  9.9916116086271911e-01 7.2915620712446186e-02 1.5557818709762920e-02  1.1407313810441428e+00 7.3261113903207456e-02 1.5566916257149300e-02  1.2824287251518667e+00 7.3466865947724405e-02 1.5567255653202708e-02  1.4241695008277528e+00 7.3578032308761518e-02 1.5566737081122396e-02  1.5659192939306910e+00 7.3641652996074128e-02 1.5566856858602781e-02  1.7076713241316868e+00 7.3682481563980093e-02 1.5567323690319863e-02  1.8494262401902088e+00 7.3710309639207147e-02 1.5567753950913402e-02  1.9911844514409998e+00 7.3729177522744799e-02 1.5568030713072133e-02  2.1329453092467348e+00 7.3741569771093668e-02 1.5568184705402527e-02  2.2747078933098468e+00 7.3749415717266481e-02 1.5568269221669253e-02  2.4164714851564932e+00 7.3754136058260020e-02 1.5568317250795997e-02  2.5582356224314555e+00 7.3756645398530288e-02 1.5568342486260232e-02  2.6999999999999997e+00 7.3757432716211088e-02 1.5568350753507864e-02  0.0000000000000000e+00 0.0000000000000000e+00 0.0000000000000000e+00  3.2969430657980046e-02 3.2343350556350119e-03 9.7807625840864165e-03  1.2189695852972691e-01 5.9240841568622138e-03 1.8686680711219778e-02  2.7411989119905816e-01 1.3455643352541329e-02 1.6644951850757254e-02  4.2718487971657609e-01 1.4281436212014153e-02 1.5834955183615974e-02  5.7368088658598226e-01 1.5349176359164119e-02 1.5516211427248816e-02  7.1627978149333371e-01 1.6299538468796112e-02 1.5511745971874115e-02  8.5753903893316019e-01 1.6867582298655610e-02 1.5601778809388183e-02  9.9889793373467128e-01 1.7220373034466656e-02 1.5640814124024002e-02  1.1405387010013819e+00 1.7452269763571279e-02 1.5649628439609060e-02  1.2823068778323381e+00 1.7605144026844832e-02 1.5647818333233542e-02  1.4240957801478249e+00 1.7705275168486842e-02 1.5645720820888488e-02  1.5658735135646114e+00 1.7770813589990418e-02 1.5645080346810902e-02  1.7076416491677682e+00 1.7813713520840786e-02 1.5645218351582380e-02  1.8494065969063402e+00 1.7841734365269091e-02 1.5645464306193454e-02  1.9911715064112119e+00 1.7859967158242163e-02 1.5645606237716509e-02  2.1329369474874857e+00 1.7871744298426674e-02 1.5645659046450027e-02  2.2747026782282860e+00 1.7879219937759403e-02 1.5645673517049073e-02  2.4164684701118446e+00 1.7883758947413245e-02 1.5645677800158138e-02  2.5582342442575570e+00 1.7886188662128093e-02 1.5645679658438310e-02  2.6999999999999997e+00 1.7886952315670404e-02 1.5645680862624547e-02  0.0000000000000000e+00 0.0000000000000000e+00 0.0000000000000000e+00  3.7107555038787890e-02 -3.6127761453289037e-03 1.2009537673895742e-02  1.3112297506044893e-01 -3.3634099385201503e-02 1.7574744187080417e-02  2.7637948361940012e-01 -4.9087994472495129e-02 1.6269671081430525e-02  4.2640971151883345e-01 -4.6050464376397940e-02 1.5633195788429546e-02  5.7236458784343813e-01 -4.2429834865666059e-02 1.5658525018302141e-02  7.1521490602418358e-01 -3.9890673141464709e-02 1.5674441544437284e-02  8.5701237957591592e-01 -3.8843896500023518e-02 1.5711904731663295e-02  9.9865174782521615e-01 -3.8524852720936344e-02 1.5727017144174675e-02  1.1403975775781092e+00 -3.8387778387090614e-02 1.5730176305757619e-02  1.2822098775835200e+00 -3.8276864179075505e-02 1.5727382629403798e-02  1.4240264126431064e+00 -3.8180646083474767e-02 1.5725048082493476e-02  1.5658257135570566e+00 -3.8108559256593767e-02 1.5723949878414831e-02  1.7076101306102616e+00 -3.8060649168914197e-02 1.5723559886310537e-02  1.8493863147286340e+00 -3.8030535418401325e-02 1.5723392287351177e-02  1.9911585367683355e+00 -3.8011689781289680e-02 1.5723273402856210e-02  2.1329286812923134e+00 -3.7999713651346315e-02 1.5723175105371898e-02  2.2746975170961754e+00 -3.7992089770611671e-02 1.5723102250199694e-02  2.4164654672761956e+00 -3.7987417558082555e-02 1.5723055530472284e-02  2.5582328649621200e+00 -3.7984899171350901e-02 1.5723030208152237e-02  2.6999999999999997e+00 -3.7984106577448620e-02 1.5723022100499216e-02  0.0000000000000000e+00 0.0000000000000000e+00 0.0000000000000000e+00  5.5159289181472448e-02 -2.1540400569923568e-02 1.4546879186749571e-02  1.6466041975618184e-01 -7.8635187969244041e-02 1.4623467078995141e-02  2.8679978039665532e-01 -1.0673541440184084e-01 1.4639407072120896e-02  4.2653658984123438e-01 -1.0536446607679299e-01 1.5497977610427368e-02  5.7005616508806745e-01 -9.9723243704743753e-02 1.5916072577704242e-02  7.1354285849509158e-01 -9.6280460703068088e-02 1.5890890050011881e-02  8.5628761631618022e-01 -9.4820192890011451e-02 1.5846248061645501e-02  9.9840840040257328e-01 -9.4390131441881894e-02 1.5819481370591464e-02  1.1402939680812474e+00 -9.4264979790266046e-02 1.5809850826352466e-02  1.2821318641675534e+00 -9.4170099122448211e-02 1.5806373948921020e-02  1.4239602680124703e+00 -9.4073679216089806e-02 1.5804682748585191e-02  1.5657761769076961e+00 -9.3994780589121932e-02 1.5803358490383758e-02  1.7075770286309457e+00 -9.3940721209816794e-02 1.5802288649474906e-02  1.8493654188022584e+00 -9.3906823570891834e-02 1.5801528614969064e-02  1.9911454680498544e+00 -9.3885927217443432e-02 1.5801041280969364e-02  2.1329204395462931e+00 -9.3872806316131360e-02 1.5800743057613906e-02  2.2746923682518472e+00 -9.3864481897902696e-02 1.5800562551452034e-02  2.4164624568832402e+00 -9.3859369170590012e-02 1.5800455287023330e-02  2.5582314767377272e+00 -9.3856604231428595e-02 1.5800397857531932e-02  2.6999999999999997e+00 -9.3855734939019497e-02 1.5800378690633245e-02  0.0000000000000000e+00 0.0000000000000000e+00 0.0000000000000000e+00  9.8853632132039654e-02 -6.4608255817499488e-02 1.4178805967709813e-02  2.0360861067152144e-01 -1.2482833730440447e-01 1.1966549007681949e-02  3.0229023452803805e-01 -1.5511851858511588e-01 1.2949045499187385e-02  4.2542188929185720e-01 -1.6079757444031861e-01 1.5631227768162878e-02  5.6713254877085750e-01 -1.5665382762020835e-01 1.6231636171793372e-02  7.1168232559898392e-01 -1.5302117959558237e-01 1.6074812279378146e-02  8.5548791004094105e-01 -1.5112218608034120e-01 1.5999969331538882e-02  9.9815874832345386e-01 -1.5040143472635423e-01 1.5920300869506413e-02  1.1402036291094604e+00 -1.5017885645563933