<?xml version="1.0"?>
<VTKFile type="UnstructuredGrid"  version="0.1"  >
<UnstructuredGrid>
<Piece  NumberOfPoints="882" NumberOfCells="3600">
<Points>
<DataArray  type="Float64"  NumberOfComponents="3"  format="ascii">0 0 0  0.5 0 0  1 0 0  1.5 0 0  2 0 0  2.5 0 0  3 0 0  3.5 0 0  4 0 0  4.5 0 0  5 0 0  5.5 0 0  6 0 0  6.5 0 0  7 0 0  7.5 0 0  8 0 0  8.5 0 0  9 0 0  9.5 0 0  10 0 0  0 0.5 0  0.5 0.5 0  1 0.5 0  1.5 0.5 0  2 0.5 0  2.5 0.5 0  3 0.5 0  3.5 0.5 0  4 0.5 0  4.5 0.5 0  5 0.5 0  5.5 0.5 0  6 0.5 0  6.5 0.5 0  7 0.5 0  7.5 0.5 0  8 0.5 0  8.5 0.5 0  9 0.5 0  9.5 0.5 0  10 0.5 0  0 1 0  0.5 1 0  1 1 0  1.5 1 0  2 1 0  2.5 1 0  3 1 0  3.5 1 0  4 1 0  4.5 1 0  5 1 0  5.5 1 0  6 1 0  6.5 1 0  7 1 0  7.5 1 0  8 1 0  8.5 1 0  9 1 0  9.5 1 0  10 1 0  0 1.5 0  0.5 1.5 0  1 1.5 0  1.5 1.5 0  2 1.5 0  2.5 1.5 0  3 1.5 0  3.5 1.5 0  4 1.5 0  4.5 1.5 0  5 1.5 0  5.5 1.5 0  6 1.5 0  6.5 1.5 0  7 1.5 0  7.5 1.5 0  8 1.5 0  8.5 1.5 0  9 1.5 0  9.5 1.5 0  10 1.5 0  0 2 0  0.5 2 0  1 2 0  1.5 2 0  2 2 0  2.5 2 0  3 2 0  3.5 2 0  4 2 0  4.5 2 0  5 2 0  5.5 2 0  6 2 0  6.5 2 0  7 2 0  7.5 2 0  8 2 0  8.5 2 0  9 2 0  9.5 2 0  10 2 0  0 2.5 0  0.5 2.5 0  1 2.5 0  1.5 2.5 0  2 2.5 0  2.5 2.5 0  3 2.5 0  3.5 2.5 0  4 2.5 0  4.5 2.5 0  5 2.5 0  5.5 2.5 0  6 2.5 0  6.5 2.5 0  7 2.5 0  7.5 2.5 0  8 2.5 0  8.5 2.5 0  9 2.5 0  9.5 2.5 0  10 2.5 0  0 3 0  0.5 3 0  1 3 0  1.5 3 0  2 3 0  2.5 3 0  3 3 0  3.5 3 0  4 3 0  4.5 3 0  5 3 0  5.5 3 0  6 3 0  6.5 3 0  7 3 0  7.5 3 0  8 3 0  8.5 3 0  9 3 0  9.5 3 0  10 3 0  0 0 0.1  0.5 0 0.1  1 0 0.1  1.5 0 0.1  2 0 0.1  2.5 0 0.1  3 0 0.1  3.5 0 0.1  4 0 0.1  4.5 0 0.1  5 0 0.1  5.5 0 0.1  6 0 0.1  6.5 0 0.1  7 0 0.1  7.5 0 0.1  8 0 0.1  8.5 0 0.1  9 0 0.1  9.5 0 0.1  10 0 0.1  0 0.5 0.1  0.5 0.5 0.1  1 0.5 0.1  1.5 0.5 0.1  2 0.5 0.1  2.5 0.5 0.1  3 0.5 0.1  3.5 0.5 0.1  4 0.5 0.1  4.5 0.5 0.1  5 0.5 0.1  5.5 0.5 0.1  6 0.5 0.1  6.5 0.5 0.1  7 0.5 0.1  7.5 0.5 0.1  8 0.5 0.1  8.5 0.5 0.1  9 0.5 0.1  9.5 0.5 0.1  10 0.5 0.1  0 1 0.1  0.5 1 0.1  1 1 0.1  1.5 1 0.1  2 1 0.1  2.5 1 0.1  3 1 0.1  3.5 1 0.1  4 1 0.1  4.5 1 0.1  5 1 0.1  5.5 1 0.1  6 1 0.1  6.5 1 0.1  7 1 0.1  7.5 1 0.1  8 1 0.1  8.5 1 0.1  9 1 0.1  9.5 1 0.1  10 1 0.1  0 1.5 0.1  0.5 1.5 0.1  1 1.5 0.1  1.5 1.5 0.1  2 1.5 0.1  2.5 1.5 0.1  3 1.5 0.1  3.5 1.5 0.1  4 1.5 0.1  4.5 1.5 0.1  5 1.5 0.1  5.5 1.5 0.1  6 1.5 0.1  6.5 1.5 0.1  7 1.5 0.1  7.5 1.5 0.1  8 1.5 0.1  8.5 1.5 0.1  9 1.5 0.1  9.5 1.5 0.1  10 1.5 0.1  0 2 0.1  0.5 2 0.1  1 2 0.1  1.5 2 0.1  2 2 0.1  2.5 2 0.1  3 2 0.1  3.5 2 0.1  4 2 0.1  4.5 2 0.1  5 2 0.1  5.5 2 0.1  6 2 0.1  6.5 2 0.1  7 2 0.1  7.5 2 0.1  8 2 0.1  8.5 2 0.1  9 2 0.1  9.5 2 0.1  10 2 0.1  0 2.5 0.1  0.5 2.5 0.1  1 2.5 0.1  1.5 2.5 0.1  2 2.5 0.1  2.5 2.5 0.1  3 2.5 0.1  3.5 2.5 0.1  4 2.5 0.1  4.5 2.5 0.1  5 2.5 0.1  5.5 2.5 0.1  6 2.5 0.1  6.5 2.5 0.1  7 2.5 0.1  7.5 2.5 0.1  8 2.5 0.1  8.5 2.5 0.1  9 2.5 0.1  9.5 2.5 0.1  10 2.5 0.1  0 3 0.1  0.5 3 0.1  1 3 0.1  1.5 3 0.1  2 3 0.1  2.5 3 0.1  3 3 0.1  3.5 3 0.1  4 3 0.1  4.5 3 0.1  5 3 0.1  5.5 3 0.1  6 3 0.1  6.5 3 0.1  7 3 0.1  7.5 3 0.1  8 3 0.1  8.5 3 0.1  9 3 0.1  9.5 3 0.1  10 3 0.1  0 0 0.2  0.5 0 0.2  1 0 0.2  1.5 0 0.2  2 0 0.2  2.5 0 0.2  3 0 0.2  3.5 0 0.2  4 0 0.2  4.5 0 0.2  5 0 0.2  5.5 0 0.2  6 0 0.2  6.5 0 0.2  7 0 0.2  7.5 0 0.2  8 0 0.2  8.5 0 0.2  9 0 0.2  9.5 0 0.2  10 0 0.2  0 0.5 0.2  0.5 0.5 0.2  1 0.5 0.2  1.5 0.5 0.2  2 0.5 0.2  2.5 0.5 0.2  3 0.5 0.2  3.5 0.5 0.2  4 0.5 0.2  4.5 0.5 0.2  5 0.5 0.2  5.5 0.5 0.2  6 0.5 0.2  6.5 0.5 0.2  7 0.5 0.2  7.5 0.5 0.2  8 0.5 0.2  8.5 0.5 0.2  9 0.5 0.2  9.5 0.5 0.2  10 0.5 0.2  0 1 0.2  0.5 1 0.2  1 1 0.2  1.5 1 0.2  2 1 0.2  2.5 1 0.2  3 1 0.2  3.5 1 0.2  4 1 0.2  4.5 1 0.2  5 1 0.2  5.5 1 0.2  6 1 0.2  6.5 1 0.2  7 1 0.2  7.5 1 0.2  8 1 0.2  8.5 1 0.2  9 1 0.2  9.5 1 0.2  10 1 0.2  0 1.5 0.2  0.5 1.5 0.2  1 1.5 0.2  1.5 1.5 0.2  2 1.5 0.2  2.5 1.5 0.2  3 1.5 0.2  3.5 1.5 0.2  4 1.5 0.2  4.5 1.5 0.2  5 1.5 0.2  5.5 1.5 0.2  6 1.5 0.2  6.5 1.5 0.2  7 1.5 0.2  7.5 1.5 0.2  8 1.5 0.2  8.5 1.5 0.2  9 1.5 0.2  9.5 1.5 0.2  10 1.5 0.2  0 2 0.2  0.5 2 0.2  1 2 0.2  1.5 2 0.2  2 2 0.2  2.5 2 0.2  3 2 0.2  3.5 2 0.2  4 2 0.2  4.5 2 0.2  5 2 0.2  5.5 2 0.2  6 2 0.2  6.5 2 0.2  7 2 0.2  7.5 2 0.2  8 2 0.2  8.5 2 0.2  9 2 0.2  9.5 2 0.2  10 2 0.2  0 2.5 0.2  0.5 2.5 0.2  1 2.5 0.2  1.5 2.5 0.2  2 2.5 0.2  2.5 2.5 0.2  3 2.5 0.2  3.5 2.5 0.2  4 2.5 0.2  4.5 2.5 0.2  5 2.5 0.2  5.5 2.5 0.2  6 2.5 0.2  6.5 2.5 0.2  7 2.5 0.2  7.5 2.5 0.2  8 2.5 0.2  8.5 2.5 0.2  9 2.5 0.2  9.5 2.5 0.2  10 2.5 0.2  0 3 0.2  0.5 3 0.2  1 3 0.2  1.5 3 0.2  2 3 0.2  2.5 3 0.2  3 3 0.2  3.5 3 0.2  4 3 0.2  4.5 3 0.2  5 3 0.2  5.5 3 0.2  6 3 0.2  6.5 3 0.2  7 3 0.2  7.5 3 0.2  8 3 0.2  8.5 3 0.2  9 3 0.2  9.5 3 0.2  10 3 0.2  0 0 0.3  0.5 0 0.3  1 0 0.3  1.5 0 0.3  2 0 0.3  2.5 0 0.3  3 0 0.3  3.5 0 0.3  4 0 0.3  4.5 0 0.3  5 0 0.3  5.5 0 0.3  6 0 0.3  6.5 0 0.3  7 0 0.3  7.5 0 0.3  8 0 0.3  8.5 0 0.3  9 0 0.3  9.5 0 0.3  10 0 0.3  0 0.5 0.3  0.5 0.5 0.3  1 0.5 0.3  1.5 0.5 0.3  2 0.5 0.3  2.5 0.5 0.3  3 0.5 0.3  3.5 0.5 0.3  4 0.5 0.3  4.5 0.5 0.3  5 0.5 0.3  5.5 0.5 0.3  6 0.5 0.3  6.5 0.5 0.3  7 0.5 0.3  7.5 0.5 0.3  8 0.5 0.3  8.5 0.5 0.3  9 0.5 0.3  9.5 0.5 0.3  10 0.5 0.3  0 1 0.3  0.5 1 0.3  1 1 0.3  1.5 1 0.3  2 1 0.3  2.5 1 0.3  3 1 0.3  3.5 1 0.3  4 1 0.3  4.5 1 0.3  5 1 0.3  5.5 1 0.3  6 1 0.3  6.5 1 0.3  7 1 0.3  7.5 1 0.3  8 1 0.3  8.5 1 0.3  9 1 0.3  9.5 1 0.3  10 1 0.3  0 1.5 0.3  0.5 1.5 0.3  1 1.5 0.3  1.5 1.5 0.3  2 1.5 0.3  2.5 1.5 0.3  3 1.5 0.3  3.5 1.5 0.3  4 1.5 0.3  4.5 1.5 0.3  5 1.5 0.3  5.5 1.5 0.3  6 1.5 0.3  6.5 1.5 0.3  7 1.5 0.3  7.5 1.5 0.3  8 1.5 0.3  8.5 1.5 0.3  9 1.5 0.3  9.5 1.5 0.3  10 1.5 0.3  0 2 0.3  0.5 2 0.3  1 2 0.3  1.5 2 0.3  2 2 0.3  2.5 2 0.3  3 2 0.3  3.5 2 0.3  4 2 0.3  4.5 2 0.3  5 2 0.3  5.5 2 0.3  6 2 0.3  6.5 2 0.3  7 2 0.3  7.5 2 0.3  8 2 0.3  8.5 2 0.3  9 2 0.3  9.5 2 0.3  10 2 0.3  0 2.5 0.3  0.5 2.5 0.3  1 2.5 0.3  1.5 2.5 0.3  2 2.5 0.3  2.5 2.5 0.3  3 2.5 0.3  3.5 2.5 0.3  4 2.5 0.3  4.5 2.5 0.3  5 2.5 0.3  5.5 2.5 0.3  6 2.5 0.3  6.5 2.5 0.3  7 2.5 0.3  7.5 2.5 0.3  8 2.5 0.3  8.5 2.5 0.3  9 2.5 0.3  9.5 2.5 0.3  10 2.5 0.3  0 3 0.3  0.5 3 0.3  1 3 0.3  1.5 3 0.3  2 3 0.3  2.5 3 0.3  3 3 0.3  3.5 3 0.3  4 3 0.3  4.5 3 0.3  5 3 0.3  5.5 3 0.3  6 3 0.3  6.5 3 0.3  7 3 0.3  7.5 3 0.3  8 3 0.3  8.5 3 0.3  9 3 0.3  9.5 3 0.3  10 3 0.3  0 0 0.4  0.5 0 0.4  1 0 0.4  1.5 0 0.4  2 0 0.4  2.5 0 0.4  3 0 0.4  3.5 0 0.4  4 0 0.4  4.5 0 0.4  5 0 0.4  5.5 0 0.4  6 0 0.4  6.5 0 0.4  7 0 0.4  7.5 0 0.4  8 0 0.4  8.5 0 0.4  9 0 0.4  9.5 0 0.4  10 0 0.4  0 0.5 0.4  0.5 0.5 0.4  1 0.5 0.4  1.5 0.5 0.4  2 0.5 0.4  2.5 0.5 0.4  3 0.5 0.4  3.5 0.5 0.4  4 0.5 0.4  4.5 0.5 0.4  5 0.5 0.4  5.5 0.5 0.4  6 0.5 0.4  6.5 0.5 0.4  7 0.5 0.4  7.5 0.5 0.4  8 0.5 0.4  8.5 0.5 0.4  9 0.5 0.4  9.5 0.5 0.4  10 0.5 0.4  0 1 0.4  0.5 1 0.4  1 1 0.4  1.5 1 0.4  2 1 0.4  2.5 1 0.4  3 1 0.4  3.5 1 0.4  4 1 0.4  4.5 1 0.4  5 1 0.4  5.5 1 0.4  6 1 0.4  6.5 1 0.4  7 1 0.4  7.5 1 0.4  8 1 0.4  8.5 1 0.4  9 1 0.4  9.5 1 0.4  10 1 0.4  0 1.5 0.4  0.5 1.5 0.4  1 1.5 0.4  1.5 1.5 0.4  2 1.5 0.4  2.5 1.5 0.4  3 1.5 0.4  3.5 1.5 0.4  4 1.5 0.4  4.5 1.5 0.4  5 1.5 0.4  5.5 1.5 0.4  6 1.5 0.4  6.5 1.5 0.4  7 1.5 0.4  7.5 1.5 0.4  8 1.5 0.4  8.5 1.5 0.4  9 1.5 0.4  9.5 1.5 0.4  10 1.5 0.4  0 2 0.4  0.5 2 0.4  1 2 0.4  1.5 2 0.4  2 2 0.4  2.5 2 0.4  3 2 0.4  3.5 2 0.4  4 2 0.4  4.5 2 0.4  5 2 0.4  5.5 2 0.4  6 2 0.4  6.5 2 0.4  7 2 0.4  7.5 2 0.4  8 2 0.4  8.5 2 0.4  9 2 0.4  9.5 2 0.4  10 2 0.4  0 2.5 0.4  0.5 2.5 0.4  1 2.5 0.4  1.5 2.5 0.4  2 2.5 0.4  2.5 2.5 0.4  3 2.5 0.4  3.5 2.5 0.4  4 2.5 0.4  4.5 2.5 0.4  5 2.5 0.4  5.5 2.5 0.4  6 2.5 0.4  6.5 2.5 0.4  7 2.5 0.4  7.5 2.5 0.4  8 2.5 0.4  8.5 2.5 0.4  9 2.5 0.4  9.5 2.5 0.4  10 2.5 0.4  0 3 0.4  0.5 3 0.4  1 3 0.4  1.5 3 0.4  2 3 0.4  2.5 3 0.4  3 3 0.4  3.5 3 0.4  4 3 0.4  4.5 3 0.4  5 3 0.4  5.5 3 0.4  6 3 0.4  6.5 3 0.4  7 3 0.4  7.5 3 0.4  8 3 0.4  8.5 3 0.4  9 3 0.4  9.5 3 0.4  10 3 0.4  0 0 0.5  0.5 0 0.5  1 0 0.5  1.5 0 0.5  2 0 0.5  2.5 0 0.5  3 0 0.5  3.5 0 0.5  4 0 0.5  4.5 0 0.5  5 0 0.5  5.5 0 0.5  6 0 0.5  6.5 0 0.5  7 0 0.5  7.5 0 0.5  8 0 0.5  8.5 0 0.5  9 0 0.5  9.5 0 0.5  10 0 0.5  0 0.5 0.5  0.5 0.5 0.5  1 0.5 0.5  1.5 0.5 0.5  2 0.5 0.5  2.5 0.5 0.5  3 0.5 0.5  3.5 0.5 0.5  4 0.5 0.5  4.5 0.5 0.5  5 0.5 0.5  5.5 0.5 0.5  6 0.5 0.5  6.5 0.5 0.5  7 0.5 0.5  7.5 0.5 0.5  8 0.5 0.5  8.5 0.5 0.5  9 0.5 0.5  9.5 0.5 0.5  10 0.5 0.5  0 1 0.5  0.5 1 0.5  1 1 0.5  1.5 1 0.5  2 1 0.5  2.5 1 0.5  3 1 0.5  3.5 1 0.5  4 1 0.5  4.5 1 0.5  5 1 0.5  5.5 1 0.5  6 1 0.5  6.5 1 0.5  7 1 0.5  7.5 1 0.5  8 1 0.5  8.5 1 0.5  9 1 0.5  9.5 1 0.5  10 1 0.5  0 1.5 0.5  0.5 1.5 0.5  1 1.5 0.5  1.5 1.5 0.5  2 1.5 0.5  2.5 1.5 0.5  3 1.5 0.5  3.5 1.5 0.5  4 1.5 0.5  4.5 1.5 0.5  5 1.5 0.5  5.5 1.5 0.5  6 1.5 0.5  6.5 1.5 0.5  7 1.5 0.5  7.5 1.5 0.5  8 1.5 0.5  8.5 1.5 0.5  9 1.5 0.5  9.5 1.5 0.5  10 1.5 0.5  0 2 0.5  0.5 2 0.5  1 2 0.5  1.5 2 0.5  2 2 0.5  2.5 2 0.5  3 2 0.5  3.5 2 0.5  4 2 0.5  4.5 2 0.5  5 2 0.5  5.5 2 0.5  6 2 0.5  6.5 2 0.5  7 2 0.5  7.5 2 0.5  8 2 0.5  8.5 2 0.5  9 2 0.5  9.5 2 0.5  10 2 0.5  0 2.5 0.5  0.5 2.5 0.5  1 2.5 0.5  1.5 2.5 0.5  2 2.5 0.5  2.5 2.5 0.5  3 2.5 0.5  3.5 2.5 0.5  4 2.5 0.5  4.5 2.5 0.5  5 2.5 0.5  5.5 2.5 0.5  6 2.5 0.5  6.5 2.5 0.5  7 2.5 0.5  7.5 2.5 0.5  8 2.5 0.5  8.5 2.5 0.5  9 2.5 0.5  9.5 2.5 0.5  10 2.5 0.5  0 3 0.5  0.5 3 0.5  1 3 0.5  1.5 3 0.5  2 3 0.5  2.5 3 0.5  3 3 0.5  3.5 3 0.5  4 3 0.5  4.5 3 0.5  5 3 0.5  5.5 3 0.5  6 3 0.5  6.5 3 0.5  7 3 0.5  7.5 3 0.5  8 3 0.5  8.5 3 0.5  9 3 0.5  9.5 3 0.5  10 3 0.5  </DataArray>
</Points>
<Cells>
[...]
<PointData  Vectors="f_7-0"> 
<DataArray  type="Float64"  Name="f_7-0"  NumberOfComponents="3" format="ascii">0.0000000000000000e+00 0.0000000000000000e+00 0.0000000000000000e+00  1.6574674422356864e-01 1.3301629541916435e-01 2.8487117378690988e-02  3.1785482735692833e-01 2.4550542653406041e-01 2.6397023469008966e-02  4.7939511001565971e-01 3.2736273277674033e-01 2.9680348655226514e-02  6.9423805856493026e-01 3.6181053234590926e-01 3.3144204005065570e-02  9.4785564296119584e-01 3.6134087812762689e-01 3.3693300788116332e-02  1.2095784440159842e+00 3.5538353090372360e-01 3.3125761269338624e-02  1.4676985465271157e+00 3.5425271855168672e-01 3.2924239505244750e-02  1.7235623444734645e+00 3.5520234293611519e-01 3.2940896914291015e-02  1.9793863887924932e+00 3.5592448351063666e-01 3.2967060610036965e-02  2.2356020964496799e+00 3.5616402317012941e-01 3.2973246755827225e-02  2.4920117040285912e+00 3.5620336940516351e-01 3.2971757551980618e-02  2.7484562239393808e+00 3.5621349377214889e-01 3.2970547842821246e-02  3.0048943496264937e+00 3.5622986491635200e-01 3.2970507193840939e-02  3.2613304154307485e+00 3.5624532023943878e-01 3.2970808361369404e-02  3.5177703006096479e+00 3.5625466857857646e-01 3.2970994912790333e-02  3.7742140508381938e+00 3.5625910629076546e-01 3.2971040023902776e-02  4.0306598018151414e+00 3.5626113869026443e-01 3.2971032797784898e-02  4.2871063088802304e+00 3.5626219003403986e-01 3.2971023195130483e-02  4.5435530975185197e+00 3.5626274529362073e-01 3.2971020315631240e-02  4.8000000000000007e+00 3.5626292187493336e-01 3.2971020730416939e-02  0.0000000000000000e+00 0.0000000000000000e+00 0.0000000000000000e+00  8.5302524153781339e-02 4.9276910195669446e-02 3.0503203565075337e-02  2.5136505007141530e-01 1.7586002692841679e-01 3.0513960398796943e-02  4.4856100853843689e-01 2.4283480838379515e-01 3.2655402064619372e-02  6.9152538819192111e-01 2.5815474837665375e-01 3.3311628104164118e-02  9.5188723404922182e-01 2.5149516990416976e-01 3.2775087694209226e-02  1.2109412048622883e+00 2.4734243929062186e-01 3.2928298146182436e-02  1.4672447160358311e+00 2.4768554172419383e-01 3.3007831251050015e-02  1.7230655098822170e+00 2.4876021636305329e-01 3.2986035163911104e-02  1.9791973820525424e+00 2.4927306272043701e-01 3.2973228656032812e-02  2.2355682141428903e+00 2.4939230837473642e-01 3.2969194079296209e-02  2.4920076408945104e+00 2.4940587639877615e-01 3.2969049932442512e-02  2.7484482962612917e+00 2.4941902537848593e-01 3.2969576629262483e-02  3.0048851486572867e+00 2.4943740569240072e-01 3.2969819159025006e-02  3.2613243159023182e+00 2.4945117109124712e-01 3.2969847992651666e-02  3.5177673197943284e+00 2.4945839252968496e-01 3.2969827502580484e-02  3.7742127202495905e+00 2.4946165056931119e-01 3.2969819666765772e-02  4.0306591326204089e+00 2.4946322726984360e-01 3.2969821341013131e-02  4.2871059339745781e+00 2.4946410899933483e-01 3.2969822840093664e-02  4.5435529219724096e+00 2.4946458480399034e-01 3.2969822620113907e-02  4.8000000000000007e+00 2.4946473709060746e-01 3.2969822000290090e-02  0.0000000000000000e+00 0.0000000000000000e+00 0.0000000000000000e+00  3.7486659040873165e-02 8.8406878454762531e-03 2.3627266706484750e-02  1.9465561073426668e-01 9.7838779706944073e-02 3.4240275746127487e-02  4.2874137192472223e-01 1.4364752701905809e-01 3.3711537373115150e-02  6.9242495322718722e-01 1.4711759674259228e-01 3.1940982014687737e-02  9.5513417694629466e-01 1.4198023716543420e-01 3.2239554025887102e-02  1.2114974163744547e+00 1.4065461824784506e-01 3.2963703018988981e-02  1.4667259060811917e+00 1.4139948384558373e-01 3.3055475130374115e-02  1.7226684797388967e+00 1.4218275090726726e-01 3.3003715979837256e-02  1.9790639717850556e+00 1.4250994487991736e-01 3.2971334929299732e-02  2.2355450775232644e+00 1.4258734437639770e-01 3.2964934393214573e-02  2.4920011640134057e+00 1.4260718199506495e-01 3.2967170336526998e-02  2.7484388288828114e+00 1.4262629180931571e-01 3.2968813604467989e-02  3.0048764401864281e+00 1.4264399948987297e-01 3.2969018848529791e-02  3.2613190795801534e+00 1.4265530773657606e-01 3.2968774538124856e-02  3.5177648236542831e+00 1.4266101261401290e-01 3.2968623311706906e-02  3.7742115626872099e+00 1.4266371788293905e-01 3.2968599670941685e-02  4.0306585208013921e+00 1.4266512442266840e-01 3.2968613513493450e-02  4.2871055889861420e+00 1.4266592037642670e-01 3.2968622045464163e-02  4.5435527624004415e+00 1.4266633772872619e-01 3.2968622797897487e-02  4.8000000000000007e+00 1.4266646802817834e-01 3.2968622240183980e-02  0.0000000000000000e+00 0.0000000000000000e+00 0.0000000000000000e+00  2.9224640204561222e-02 7.8087549900505981e-03 1.7816020489694197e-02  1.5784272768379826e-01 9.4853051738432795e-03 3.9151620657961891e-02  4.2038577917496095e-01 3.1012894394508099e-02 3.1256073037275234e-02  6.9408072447320002e-01 3.2130525830772562e-02 3.1312140700287594e-02  9.5580740960658750e-01 3.3528203184736156e-02 3.2505577470722670e-02  1.2112978513627437e+00 3.4679941228360114e-02 3.2999626734456201e-02  1.4663722009480906e+00 3.5211241381639564e-02 3.3049861988091234e-02  1.7224441530749173e+00 3.5498014503689702e-02 3.3001997387563528e-02  1.9789742090211206e+00 3.5668454147897523e-02 3.2967836909712618e-02  2.2355149911497683e+00 3.5758543039545183e-02 3.2963022759649054e-02  2.4919860397122866e+00 3.5806203436109824e-02 3.2966097389649542e-02  2.7484276118542872e+00 3.5833392985549703e-02 3.2967841990561714e-02  3.0048688627201896e+00 3.5849069121054206e-02 3.2967900481417060e-02  3.2613148069385107e+00 3.5857850310234037e-02 3.2967566044829442e-02  3.5177626375360207e+00 3.5862691952705660e-02 3.2967405708877670e-02  3.7742104339994378e+00 3.5865360077970435e-02 3.2967391586035226e-02  4.0306579064178099e+00 3.5866828367363858e-02 3.2967410921619478e-02  4.2871052577345079e+00 3.5867618626075737e-02 3.2967421042891250e-02  4.5435526163790234e+00 3.5868005019798067e-02 3.2967422112561963e-02  4.8000000000000007e+00 3.5868121056896698e-02 3.2967421890689963e-02  0.0000000000000000e+00 0.0000000000000000e+00 0.0000000000000000e+00  4.0390777708347841e-02 5.9022146614955546e-05 2.5260100797527312e-02  1.7284052101498504e-01 -6.1964889310425098e-02 3.6883297441458920e-02  4.1932217736078931e-01 -9.1189729867699340e-02 3.0696380475311411e-02  6.9231540463206820e-01 -8.2214531971301630e-02 3.2035502046303614e-02  9.5385860912105402e-01 -7.4633719830619213e-02 3.2782169715885844e-02  1.2105183034019755e+00 -7.1479013517194642e-02 3.2995704157529247e-02  1.4662514771824395e+00 -7.1080924309892476e-02 3.3023511185603600e-02  1.7224061017007102e+00 -7.1226692273117731e-02 3.2990469767328258e-02  1.9789167527645948e+00 -7.1197197968558945e-02 3.2966308766957123e-02  2.2354677896906678e+00 -7.1083537647814041e-02 3.2962980816248058e-02  2.4919588297792621e+00 -7.1001153880060217e-02 3.2965180653693700e-02  2.7484143910768979e+00 -7.0963061794981935e-02 3.2966451592743015e-02  3.0048624861501509e+00 -7.0948048324720597e-02 3.2966481314895719e-02  3.2613113305159014e+00 -7.0940870913314719e-02 3.2966273518535441e-02  3.5177605625107127e+00 -7.0936318429215120e-02 3.2966189845669416e-02  3.7742092162815575e+00 -7.0933374639379279e-02 3.2966193198199441e-02  4.0306572381551122e+00 -7.0931680641336245e-02 3.2966211499720482e-02  4.2871049200577085e+00 -7.0930810506506112e-02 3.2966220369200765e-02  4.5435524767050683e+00 -7.0930413213717722e-02 3.2966222039263478e-02  4.8000000000000007e+00 -7.0930299390336307e-02 3.2966222013894368e-02  0.0000000000000000e+00 0.0000000000000000e+00 0.0000000000000000e+00  7.2740778589142338e-02 -3.0141640526918392e-02 3.2182478569696665e-02  2.3231094835515109e-01 -1.3590861389164724e-01 2.9591066863085488e-02  4.2797461565090422e-01 -2.0097625581949460e-01 3.2358513068895686e-02  6.8660477964791244e-01 -1.9564449948462384e-01 3.2699472102840715e-02  9.4998341258425745e-01 -1.8351805439006733e-01 3.3032293184502834e-02  1.2092695194954348e+00 -1.7848506318114579e-01 3.2997950173897839e-02  1.4662318914762078e+00 -1.7765487886201342e-01 3.2988160328520984e-02  1.7225046303195435e+00 -1.7793496179196744e-01 3.2973027523366186e-02  1.9788915117608885e+00 -1.7803476511603439e-01 3.2965413480484713e-02  2.2354062542483915e+00 -1.7792861131310378e-01 3.2963510114975704e-02  2.4919196068190259e+00 -1.7781962234985499e-01 3.2964221455251373e-02  2.7483982138272132e+00 -1.7776667144680403e-01 3.2964776223327170e-02  3.0048564819567836e+00 -1.7774799250012571e-01 3.2964918154281042e-02  3.2613082455859672e+00 -1.7774053446754953e-01 3.2964957802877649e-02  3.5177584557316592e+00 -1.7773579856657534e-01 3.2964983627175398e-02  3.7742078519712186e+00 -1.7773245765457873e-01 3.2965004571582732e-02  4.0306564789254784e+00 -1.7773043106734626e-01 3.2965017143201297e-02  4.2871045510763199e+00 -1.7772938517756739e-01 3.2965022249115641e-02  4.5435523312024353e+00 -1.7772891977806582e-01 3.2965023587251827e-02  4.8000000000000007e+00 -1.7772879139118627e-01 3.2965023567690689e-02  0.0000000000000000e+00 0.0000000000000000e+00 0.0000000000000000e+00  1.4565889618751110e-01 -1.0108681453661800e-01 2.9723834174358661e-02  3.0025644302694193e-01 -2.1178102093906359e-01 2.4748720939026386e-02  4.5598063519297305e-01 -2.8494279902930414e-01 3.0709728339160455e-02  6.8002755579445995e-01 -3.0666022981600283e-01 3.4050589155302624e-02  9.4494553001136694e-01 -2.9386095385113103e-01 3.2937140121434706e-02  1.2075112055717558e+00 -2.8671030412544612e-01 3.3014358501249834e-02  1.4660794296280448e+00 -2.8463289877060022e-01 3.2972167161145330e-02  1.7226499397423423e+00 -2.8462561973290340e-01 3.2962289270251514e-02  1.9789021375453242e+00 -2.8481186233653172e-01 3.2960500223001114e-02  2.2353431383203048e+00 -2.8476625469584799e-01 3.2961775204421354e-02  2.4918714030718538e+00 -2.8465166649953216e-01 3.2962862252415653e-02  2.7483775039745675e+00 -2.8458014237988888e-01 3.2963263989846947e-02  3.0048493288934384e+00 -2.8455150820615932e-01 3.2963532628497140e-02  3.2613049918953880e+00 -2.8454107799961831e-01 3.2963709040992044e-02  3.5177562247795930e+00 -2.8453564377910684e-01 3.2963793393907814e-02  3.7742063299162161e+00 -2.8453187894670023e-01 3.2963824172159539e-02  4.0306556029415708e+00 -2.8452944877110875e-01 3.2963830664174444e-02  4.2871041230213862e+00 -2.8452812441015585e-01 3.2963829994367727e-02  4.5435521641797392e+00 -2.8452752241381918e-01 3.2963828544529360e-02  4.8000000000000007e+00 -2.8452735500352933e-01 3.2963827726697897e-02  0.0000000000000000e+00 0.0000000000000000e+00 0.0000000000000000e+00  1.6616982757073745e-01 1.3280155015648892e-01 1.7702908258486694e-02  3.1762073328243334e-01 2.4490542782192545e-01 1.5417413039635872e-02  4.7956611978493702e-01 3.2667753258468396e-01 1.7008305940421617e-02  6.9438785676330339e-01 3.6168518365091545e-01 1.9496753645494677e-02  9.4780835294915855e-01 3.6155332621615061e-01 1.9949014819661260e-02  1.2095407009894621e+00 3.5545144907081827e-01 1.9431051663938277e-02  1.4676967632530296e+00 3.5423881215469527e-01 1.9227999787203395e-02  1.7235664655028959e+00 3.5519069469854331e-01 1.9239884146375504e-02  1.9793886850179379e+00 3.5592178481456022e-01 1.9264532362447608e-02  2.2356026858399738e+00 3.5616450415595513e-01 1.9270592699040807e-02  2.4920116808694042e+00 3.5620396408201477e-01 1.9269336276452463e-02  2.7484561571769852e+00 3.5621375849369291e-01 1.9268242891969201e-02  3.0048943451694718e+00 3.5623002927555802e-01 1.9268211834000768e-02  3.2613304338478830e+00 3.5624552383782426e-01 1.9268497867460540e-02  3.5177703126995015e+00 3.5625491793760572e-01 1.9268677188316458e-02  3.7742140547414333e+00 3.5625937170984118e-01 1.9268722299645043e-02  4.0306598027346530e+00 3.5626140420289437e-01 1.9268716393189902e-02  4.2871063094406887e+00 3.5626245344947138e-01 1.9268707413795560e-02  4.5435530980272691e+00 3.5626300813153544e-01 1.9268704478542367e-02  4.8000000000000007e+00 3.5626318546755636e-01 1.9268704825114533e-02  0.0000000000000000e+00 0.0000000000000000e+00 0.0000000000000000e+00  8.5910697675024267e-02 5.1329997910151394e-02 1.8289611552030099e-02  2.5138962169292323e-01 1.7516613121906524e-01 1.7963728805972311e-02  4.4871151454607477e-01 2.4239722568934705e-01 1.9102089937117921e-02  6.9152180721543999e-01 2.5819716910618745e-01 1.9569675295435077e-02  9.5191862002193539e-01 2.5155191394193838e-01 1.9172020589828823e-02  1.2109528718396025e+00 2.4735709813418069e-01 1.9256475893262764e-02  1.4672384675158525e+00 2.4768765997492892e-01 1.9298338784603106e-02  1.7230635750698087e+00 2.4875770161229696e-01 1.9278222476052667e-02  1.9791984215056606e+00 2.4927154985846664e-01 1.9269507654076978e-02  2.2355691895703660e+00 2.4939197973760702e-01 1.9267045725455130e-02  2.4920079722963573e+00 2.4940598910078718e-01 1.9266988635335765e-02  2.7484483176614689e+00 2.4941922006090492e-01 1.9267310348989639e-02  3.0048851256198672e+00 2.4943761405796452e-01 1.9267463848676832e-02  3.2613243139965644e+00 2.4945139994400042e-01 1.9267498578227384e-02  3.5177673286480640e+00 2.4945864073006793e-01 1.9267499874816033e-02  3.7742127275455166e+00 2.4946190887288389e-01 1.9267501779048551e-02  4.0306591361410637e+00 2.4946348892242945e-01 1.9267504896102641e-02  4.2871059354218595e+00 2.4946437144990219e-01 1.9267506076055270e-02  4.5435529226539400e+00 2.4946484761536156e-01 1.9267505802864345e-02  4.8000000000000007e+00 2.4946500013204215e-01 1.9267505398325179e-02  0.0000000000000000e+00 0.0000000000000000e+00 0.0000000000000000e+00  3.5840424664033074e-02 9.5407509838294647e-03 1.3894673784057917e-02  1.9618032380011066e-01 9.8669268253846060e-02 2.0012027971040930e-02  4.2885772710728032e-01 1.4370566424592129e-01 1.9769452391421902e-02  6.9257423581262634e-01 1.4710899076886569e-01 1.8609847386254461e-02  9.5519651049787224e-01 1.4192398708641898e-01 1.8761608402777748e-02  1.2114787226937420e+00 1.4066386348512921e-01 1.9263695873152329e-02  1.4667160382607691e+00 1.4140909778930549e-01 1.9324156181414771e-02  1.7226693877011616e+00 1.4218352887266417e-01 1.9290752379300107e-02  1.9790664241532392e+00 1.4250869015899437e-01 1.9268983930919227e-02  2.2355461919115451e+00 1.4258676397011666e-01 1.9264188829473033e-02  2.4920013417691353e+00 1.4260722609440885e-01 1.9265478982862610e-02  2.7484387745186676e+00 1.4262652880526716e-01 1.9266475719288280e-02  3.0048764136388852e+00 1.4264425110949058e-01 1.9266579175443430e-02  3.2613190902530604e+00 1.4265555298679741e-01 1.9266408230788540e-02  3.5177648389092995e+00 1.4266126175445681e-01 1.9266305422674893e-02  3.7742115706428527e+00 1.4266397431132649e-01 1.9266289466979388e-02  4.0306585235880661e+00 1.4266538531955480e-01 1.9266299043934131e-02  4.2871055900395145e+00 1.4266618287168420e-01 1.9266305111396362e-02  4.5435527630302088e+00 1.4266660069090803e-01 1.9266305864102107e-02  4.8000000000000007e+00 1.4266673107129191e-01 1.9266305567990600e-02  0.0000000000000000e+00 0.0000000000000000e+00 0.0000000000000000e+00  2.8076825216092300e-02 7.3546741049240741e-03 1.0488357302825114e-02  1.5766778758512165e-01 9.3702211910804811e-03 2.2963850726504392e-02  4.2086165742838350e-01 3.1277511760174785e-02 1.8133668193845903e-02  6.9434533545432098e-01 3.1912354515967828e-02 1.8166753054240606e-02  9.5578715303795481e-01 3.3464720466027748e-02 1.8967131375707404e-02  1.2112641240440205e+00 3.4682837323329746e-02 1.9285081726356339e-02  1.4663659417359740e+00 3.5221183167462713e-02 1.9315208811954969e-02  1.7224485758158952e+00 3.5499936151237088e-02 1.9288574547809068e-02  1.9789774415964891e+00 3.5667617473919777e-02 1.9266414910215433e-02  2.2355157742746639e+00 3.5758040990187125e-02 1.9262882020847329e-02  2.4919859501772326e+00 3.5806287344999958e-02 1.9264514009140626e-02  2.7484274934541579e+00 3.5833676971176530e-02 1.9265461314038359e-02  3.0048688480131811e+00 3.5849355315439778e-02 1.9265442890316190e-02  3.2613148295660515e+00 3.5858110411108396e-02 1.9265208533578312e-02  3.5177626533891497e+00 3.5862944868160981e-02 1.9265098150578062e-02  3.7742104389250142e+00 3.5865616880209006e-02 1.9265086322109912e-02  4.0306579071897799e+00 3.5867089170259436e-02 1.9265098061935815e-02  4.2871052580656128e+00 3.5867881087542998e-02 1.9265104726522056e-02  4.5435526167719784e+00 3.5868267964037991e-02 1.9265105719079668e-02  4.8000000000000007e+00 3.5868384032027675e-02 1.9265105652836879e-02  0.0000000000000000e+00 0.0000000000000000e+00 0.0000000000000000e+00  3.9192463950585080e-02 -1.1136441697643675e-03 1.4757281975859725e-02  1.7264750843199220e-01 -6.1367392790792404e-02 2.1716612762319426e-02  4.2034848403935049e-01 -9.1512788567029768e-02 1.7659955478758222e-02  6.9240649031642243e-01 -8.2361188997063017e-02 1.8745821287325628e-02  9.5381418738096913e-01 -7.4685526145486264e-02 1.9165894183528067e-02  1.2104886837979949e+00 -7.1477857788884117e-02 1.9288997292888851e-02  1.4662482219722339e+00 -7.1075876153452899e-02 1.9302131894249907e-02  1.7224114658855196e+00 -7.1225047373615416e-02 1.9279942472068715e-02  1.9789198337180751e+00 -7.1197339795879167e-02 1.9264474725633501e-02  2.2354682993389368e+00 -7.1083661981955246e-02 1.9262381019841218e-02  2.4919586096616020e+00 -7.1000966821993611e-02 1.9263466826086810e-02  2.7484142483593548e+00 -7.0962753816837781e-02 1.9264112592328742e-02  3.0048624752910755e+00 -7.0947752266420944e-02 1.9264077623920611e-02  3.2613113529998166e+00 -7.0940604184992026e-02 1.9263936372535997e-02  3.5177605745376685e+00 -7.0936061763232541e-02 1.9263884503142537e-02  3.7742092181563573e+00 -7.0933116755285908e-02 1.9263887534778111e-02  4.0306572374915115e+00 -7.0931420035778223e-02 1.9263899344017756e-02  4.2871049198299511e+00 -7.0930548434762278e-02 1.9263905115398283e-02  4.5435524768105546e+00 -7.0930150529465857e-02 1.9263906359011304e-02  4.8000000000000007e+00 -7.0930036612785324e-02 1.9263906409255814e-02  0.0000000000000000e+00 0.0000000000000000e+00 0.0000000000000000e+00  7.2405522986792648e-02 -3.0561603041027625e-02 1.8878881747634867e-02  2.3288637455045594e-01 -1.3602680123649666e-01 1.7391966177625801e-02  4.2827223599656650e-01 -2.0100124480421847e-01 1.8983769154073703e-02  6.8678854643172360e-01 -1.9562512164852988e-01 1.9219476035641166e-02  9.4996382774808230e-01 -1.8352377666597339e-01 1.9342980063189429e-02  1.2092463761824923e+00 -1.7848982692524462e-01 1.9303598134903188e-02  1.4662304877829249e+00 -1.7765678580450364e-01 1.9283347977085148e-02  1.7225079325171138e+00 -1.7793484391974479e-01 1.9267726540952004e-02  1.9788937690553794e+00 -1.7803399914651502e-01 1.9262877107395996e-02  2.2354067123946679e+00 -1.7792807612422820e-01 1.9261775838940124e-02  2.4919194332222019e+00 -1.7781927588453067e-01 1.9262180526065532e-02  2.7483980826496741e+00 -1.7776638601169384e-01 1.9262502563066511e-02  3.0048564583843973e+00 -1.7774772694532887e-01 1.9262594558040649e-02  3.2613082546578358e+00 -1.7774027539270396e-01 1.9262641438662284e-02  3.5177584613641986e+00 -1.7773554075596398e-01 1.9262673882799744e-02  3.7742078519296918e+00 -1.7773219918034458e-01 1.9262694175293499e-02  4.0306564776958256e+00 -1.7773017122713014e-01 1.9262704120334474e-02  4.2871045504721845e+00 -1.7772912402286092e-01 1.9262707601637789e-02  4.5435523310178407e+00 -1.7772865769354870e-01 1.9262708421986831e-02  4.8000000000000007e+00 -1.7772852896641111e-01 1.9262708445257692e-02  0.0000000000000000e+00 0.0000000000000000e+00 0.0000000000000000e+00  1.4474833389069347e-01 -1.0186268060960675e-01 1.8478693386279176e-02  3.0113262960576154e-01 -2.1203334308119559e-01 1.4796994709260184e-02  4.5594572858272719e-01 -2.8457278051244095e-01 1.8299237617089265e-02  6.8011489307609752e-01 -3.0675678272414331e-01 2.0200285896598148e-02  9.4493434489920336e-01 -2.9380319437904695e-01 1.9260396407462969e-02  1.2075001697637322e+00 -2.8671865752801984e-01 1.9320132006642069e-02  1.4660776803495070e+00 -2.8464103025582221e-01 1.9270004389481388e-02  1.7226520369183784e+00 -2.8462703709347154e-01 1.9260416792464739e-02  1.9789040245488210e+00 -2.8481036210202021e