<?xml version="1.0"?>
<VTKFile type="UnstructuredGrid"  version="0.1"  >
<UnstructuredGrid>
<Piece  NumberOfPoints="882" NumberOfCells="3600">
<Points>
<DataArray  type="Float64"  NumberOfComponents="3"  format="ascii">0 0 0  0.5 0 0  1 0 0  1.5 0 0  2 0 0  2.5 0 0  3 0 0  3.5 0 0  4 0 0  4.5 0 0  5 0 0  5.5 0 0  6 0 0  6.5 0 0  7 0 0  7.5 0 0  8 0 0  8.5 0 0  9 0 0  9.5 0 0  10 0 0  0 0.5 0  0.5 0.5 0  1 0.5 0  1.5 0.5 0  2 0.5 0  2.5 0.5 0  3 0.5 0  3.5 0.5 0  4 0.5 0  4.5 0.5 0  5 0.5 0  5.5 0.5 0  6 0.5 0  6.5 0.5 0  7 0.5 0  7.5 0.5 0  8 0.5 0  8.5 0.5 0  9 0.5 0  9.5 0.5 0  10 0.5 0  0 1 0  0.5 1 0  1 1 0  1.5 1 0  2 1 0  2.5 1 0  3 1 0  3.5 1 0  4 1 0  4.5 1 0  5 1 0  5.5 1 0  6 1 0  6.5 1 0  7 1 0  7.5 1 0  8 1 0  8.5 1 0  9 1 0  9.5 1 0  10 1 0  0 1.5 0  0.5 1.5 0  1 1.5 0  1.5 1.5 0  2 1.5 0  2.5 1.5 0  3 1.5 0  3.5 1.5 0  4 1.5 0  4.5 1.5 0  5 1.5 0  5.5 1.5 0  6 1.5 0  6.5 1.5 0  7 1.5 0  7.5 1.5 0  8 1.5 0  8.5 1.5 0  9 1.5 0  9.5 1.5 0  10 1.5 0  0 2 0  0.5 2 0  1 2 0  1.5 2 0  2 2 0  2.5 2 0  3 2 0  3.5 2 0  4 2 0  4.5 2 0  5 2 0  5.5 2 0  6 2 0  6.5 2 0  7 2 0  7.5 2 0  8 2 0  8.5 2 0  9 2 0  9.5 2 0  10 2 0  0 2.5 0  0.5 2.5 0  1 2.5 0  1.5 2.5 0  2 2.5 0  2.5 2.5 0  3 2.5 0  3.5 2.5 0  4 2.5 0  4.5 2.5 0  5 2.5 0  5.5 2.5 0  6 2.5 0  6.5 2.5 0  7 2.5 0  7.5 2.5 0  8 2.5 0  8.5 2.5 0  9 2.5 0  9.5 2.5 0  10 2.5 0  0 3 0  0.5 3 0  1 3 0  1.5 3 0  2 3 0  2.5 3 0  3 3 0  3.5 3 0  4 3 0  4.5 3 0  5 3 0  5.5 3 0  6 3 0  6.5 3 0  7 3 0  7.5 3 0  8 3 0  8.5 3 0  9 3 0  9.5 3 0  10 3 0  0 0 0.1  0.5 0 0.1  1 0 0.1  1.5 0 0.1  2 0 0.1  2.5 0 0.1  3 0 0.1  3.5 0 0.1  4 0 0.1  4.5 0 0.1  5 0 0.1  5.5 0 0.1  6 0 0.1  6.5 0 0.1  7 0 0.1  7.5 0 0.1  8 0 0.1  8.5 0 0.1  9 0 0.1  9.5 0 0.1  10 0 0.1  0 0.5 0.1  0.5 0.5 0.1  1 0.5 0.1  1.5 0.5 0.1  2 0.5 0.1  2.5 0.5 0.1  3 0.5 0.1  3.5 0.5 0.1  4 0.5 0.1  4.5 0.5 0.1  5 0.5 0.1  5.5 0.5 0.1  6 0.5 0.1  6.5 0.5 0.1  7 0.5 0.1  7.5 0.5 0.1  8 0.5 0.1  8.5 0.5 0.1  9 0.5 0.1  9.5 0.5 0.1  10 0.5 0.1  0 1 0.1  0.5 1 0.1  1 1 0.1  1.5 1 0.1  2 1 0.1  2.5 1 0.1  3 1 0.1  3.5 1 0.1  4 1 0.1  4.5 1 0.1  5 1 0.1  5.5 1 0.1  6 1 0.1  6.5 1 0.1  7 1 0.1  7.5 1 0.1  8 1 0.1  8.5 1 0.1  9 1 0.1  9.5 1 0.1  10 1 0.1  0 1.5 0.1  0.5 1.5 0.1  1 1.5 0.1  1.5 1.5 0.1  2 1.5 0.1  2.5 1.5 0.1  3 1.5 0.1  3.5 1.5 0.1  4 1.5 0.1  4.5 1.5 0.1  5 1.5 0.1  5.5 1.5 0.1  6 1.5 0.1  6.5 1.5 0.1  7 1.5 0.1  7.5 1.5 0.1  8 1.5 0.1  8.5 1.5 0.1  9 1.5 0.1  9.5 1.5 0.1  10 1.5 0.1  0 2 0.1  0.5 2 0.1  1 2 0.1  1.5 2 0.1  2 2 0.1  2.5 2 0.1  3 2 0.1  3.5 2 0.1  4 2 0.1  4.5 2 0.1  5 2 0.1  5.5 2 0.1  6 2 0.1  6.5 2 0.1  7 2 0.1  7.5 2 0.1  8 2 0.1  8.5 2 0.1  9 2 0.1  9.5 2 0.1  10 2 0.1  0 2.5 0.1  0.5 2.5 0.1  1 2.5 0.1  1.5 2.5 0.1  2 2.5 0.1  2.5 2.5 0.1  3 2.5 0.1  3.5 2.5 0.1  4 2.5 0.1  4.5 2.5 0.1  5 2.5 0.1  5.5 2.5 0.1  6 2.5 0.1  6.5 2.5 0.1  7 2.5 0.1  7.5 2.5 0.1  8 2.5 0.1  8.5 2.5 0.1  9 2.5 0.1  9.5 2.5 0.1  10 2.5 0.1  0 3 0.1  0.5 3 0.1  1 3 0.1  1.5 3 0.1  2 3 0.1  2.5 3 0.1  3 3 0.1  3.5 3 0.1  4 3 0.1  4.5 3 0.1  5 3 0.1  5.5 3 0.1  6 3 0.1  6.5 3 0.1  7 3 0.1  7.5 3 0.1  8 3 0.1  8.5 3 0.1  9 3 0.1  9.5 3 0.1  10 3 0.1  0 0 0.2  0.5 0 0.2  1 0 0.2  1.5 0 0.2  2 0 0.2  2.5 0 0.2  3 0 0.2  3.5 0 0.2  4 0 0.2  4.5 0 0.2  5 0 0.2  5.5 0 0.2  6 0 0.2  6.5 0 0.2  7 0 0.2  7.5 0 0.2  8 0 0.2  8.5 0 0.2  9 0 0.2  9.5 0 0.2  10 0 0.2  0 0.5 0.2  0.5 0.5 0.2  1 0.5 0.2  1.5 0.5 0.2  2 0.5 0.2  2.5 0.5 0.2  3 0.5 0.2  3.5 0.5 0.2  4 0.5 0.2  4.5 0.5 0.2  5 0.5 0.2  5.5 0.5 0.2  6 0.5 0.2  6.5 0.5 0.2  7 0.5 0.2  7.5 0.5 0.2  8 0.5 0.2  8.5 0.5 0.2  9 0.5 0.2  9.5 0.5 0.2  10 0.5 0.2  0 1 0.2  0.5 1 0.2  1 1 0.2  1.5 1 0.2  2 1 0.2  2.5 1 0.2  3 1 0.2  3.5 1 0.2  4 1 0.2  4.5 1 0.2  5 1 0.2  5.5 1 0.2  6 1 0.2  6.5 1 0.2  7 1 0.2  7.5 1 0.2  8 1 0.2  8.5 1 0.2  9 1 0.2  9.5 1 0.2  10 1 0.2  0 1.5 0.2  0.5 1.5 0.2  1 1.5 0.2  1.5 1.5 0.2  2 1.5 0.2  2.5 1.5 0.2  3 1.5 0.2  3.5 1.5 0.2  4 1.5 0.2  4.5 1.5 0.2  5 1.5 0.2  5.5 1.5 0.2  6 1.5 0.2  6.5 1.5 0.2  7 1.5 0.2  7.5 1.5 0.2  8 1.5 0.2  8.5 1.5 0.2  9 1.5 0.2  9.5 1.5 0.2  10 1.5 0.2  0 2 0.2  0.5 2 0.2  1 2 0.2  1.5 2 0.2  2 2 0.2  2.5 2 0.2  3 2 0.2  3.5 2 0.2  4 2 0.2  4.5 2 0.2  5 2 0.2  5.5 2 0.2  6 2 0.2  6.5 2 0.2  7 2 0.2  7.5 2 0.2  8 2 0.2  8.5 2 0.2  9 2 0.2  9.5 2 0.2  10 2 0.2  0 2.5 0.2  0.5 2.5 0.2  1 2.5 0.2  1.5 2.5 0.2  2 2.5 0.2  2.5 2.5 0.2  3 2.5 0.2  3.5 2.5 0.2  4 2.5 0.2  4.5 2.5 0.2  5 2.5 0.2  5.5 2.5 0.2  6 2.5 0.2  6.5 2.5 0.2  7 2.5 0.2  7.5 2.5 0.2  8 2.5 0.2  8.5 2.5 0.2  9 2.5 0.2  9.5 2.5 0.2  10 2.5 0.2  0 3 0.2  0.5 3 0.2  1 3 0.2  1.5 3 0.2  2 3 0.2  2.5 3 0.2  3 3 0.2  3.5 3 0.2  4 3 0.2  4.5 3 0.2  5 3 0.2  5.5 3 0.2  6 3 0.2  6.5 3 0.2  7 3 0.2  7.5 3 0.2  8 3 0.2  8.5 3 0.2  9 3 0.2  9.5 3 0.2  10 3 0.2  0 0 0.3  0.5 0 0.3  1 0 0.3  1.5 0 0.3  2 0 0.3  2.5 0 0.3  3 0 0.3  3.5 0 0.3  4 0 0.3  4.5 0 0.3  5 0 0.3  5.5 0 0.3  6 0 0.3  6.5 0 0.3  7 0 0.3  7.5 0 0.3  8 0 0.3  8.5 0 0.3  9 0 0.3  9.5 0 0.3  10 0 0.3  0 0.5 0.3  0.5 0.5 0.3  1 0.5 0.3  1.5 0.5 0.3  2 0.5 0.3  2.5 0.5 0.3  3 0.5 0.3  3.5 0.5 0.3  4 0.5 0.3  4.5 0.5 0.3  5 0.5 0.3  5.5 0.5 0.3  6 0.5 0.3  6.5 0.5 0.3  7 0.5 0.3  7.5 0.5 0.3  8 0.5 0.3  8.5 0.5 0.3  9 0.5 0.3  9.5 0.5 0.3  10 0.5 0.3  0 1 0.3  0.5 1 0.3  1 1 0.3  1.5 1 0.3  2 1 0.3  2.5 1 0.3  3 1 0.3  3.5 1 0.3  4 1 0.3  4.5 1 0.3  5 1 0.3  5.5 1 0.3  6 1 0.3  6.5 1 0.3  7 1 0.3  7.5 1 0.3  8 1 0.3  8.5 1 0.3  9 1 0.3  9.5 1 0.3  10 1 0.3  0 1.5 0.3  0.5 1.5 0.3  1 1.5 0.3  1.5 1.5 0.3  2 1.5 0.3  2.5 1.5 0.3  3 1.5 0.3  3.5 1.5 0.3  4 1.5 0.3  4.5 1.5 0.3  5 1.5 0.3  5.5 1.5 0.3  6 1.5 0.3  6.5 1.5 0.3  7 1.5 0.3  7.5 1.5 0.3  8 1.5 0.3  8.5 1.5 0.3  9 1.5 0.3  9.5 1.5 0.3  10 1.5 0.3  0 2 0.3  0.5 2 0.3  1 2 0.3  1.5 2 0.3  2 2 0.3  2.5 2 0.3  3 2 0.3  3.5 2 0.3  4 2 0.3  4.5 2 0.3  5 2 0.3  5.5 2 0.3  6 2 0.3  6.5 2 0.3  7 2 0.3  7.5 2 0.3  8 2 0.3  8.5 2 0.3  9 2 0.3  9.5 2 0.3  10 2 0.3  0 2.5 0.3  0.5 2.5 0.3  1 2.5 0.3  1.5 2.5 0.3  2 2.5 0.3  2.5 2.5 0.3  3 2.5 0.3  3.5 2.5 0.3  4 2.5 0.3  4.5 2.5 0.3  5 2.5 0.3  5.5 2.5 0.3  6 2.5 0.3  6.5 2.5 0.3  7 2.5 0.3  7.5 2.5 0.3  8 2.5 0.3  8.5 2.5 0.3  9 2.5 0.3  9.5 2.5 0.3  10 2.5 0.3  0 3 0.3  0.5 3 0.3  1 3 0.3  1.5 3 0.3  2 3 0.3  2.5 3 0.3  3 3 0.3  3.5 3 0.3  4 3 0.3  4.5 3 0.3  5 3 0.3  5.5 3 0.3  6 3 0.3  6.5 3 0.3  7 3 0.3  7.5 3 0.3  8 3 0.3  8.5 3 0.3  9 3 0.3  9.5 3 0.3  10 3 0.3  0 0 0.4  0.5 0 0.4  1 0 0.4  1.5 0 0.4  2 0 0.4  2.5 0 0.4  3 0 0.4  3.5 0 0.4  4 0 0.4  4.5 0 0.4  5 0 0.4  5.5 0 0.4  6 0 0.4  6.5 0 0.4  7 0 0.4  7.5 0 0.4  8 0 0.4  8.5 0 0.4  9 0 0.4  9.5 0 0.4  10 0 0.4  0 0.5 0.4  0.5 0.5 0.4  1 0.5 0.4  1.5 0.5 0.4  2 0.5 0.4  2.5 0.5 0.4  3 0.5 0.4  3.5 0.5 0.4  4 0.5 0.4  4.5 0.5 0.4  5 0.5 0.4  5.5 0.5 0.4  6 0.5 0.4  6.5 0.5 0.4  7 0.5 0.4  7.5 0.5 0.4  8 0.5 0.4  8.5 0.5 0.4  9 0.5 0.4  9.5 0.5 0.4  10 0.5 0.4  0 1 0.4  0.5 1 0.4  1 1 0.4  1.5 1 0.4  2 1 0.4  2.5 1 0.4  3 1 0.4  3.5 1 0.4  4 1 0.4  4.5 1 0.4  5 1 0.4  5.5 1 0.4  6 1 0.4  6.5 1 0.4  7 1 0.4  7.5 1 0.4  8 1 0.4  8.5 1 0.4  9 1 0.4  9.5 1 0.4  10 1 0.4  0 1.5 0.4  0.5 1.5 0.4  1 1.5 0.4  1.5 1.5 0.4  2 1.5 0.4  2.5 1.5 0.4  3 1.5 0.4  3.5 1.5 0.4  4 1.5 0.4  4.5 1.5 0.4  5 1.5 0.4  5.5 1.5 0.4  6 1.5 0.4  6.5 1.5 0.4  7 1.5 0.4  7.5 1.5 0.4  8 1.5 0.4  8.5 1.5 0.4  9 1.5 0.4  9.5 1.5 0.4  10 1.5 0.4  0 2 0.4  0.5 2 0.4  1 2 0.4  1.5 2 0.4  2 2 0.4  2.5 2 0.4  3 2 0.4  3.5 2 0.4  4 2 0.4  4.5 2 0.4  5 2 0.4  5.5 2 0.4  6 2 0.4  6.5 2 0.4  7 2 0.4  7.5 2 0.4  8 2 0.4  8.5 2 0.4  9 2 0.4  9.5 2 0.4  10 2 0.4  0 2.5 0.4  0.5 2.5 0.4  1 2.5 0.4  1.5 2.5 0.4  2 2.5 0.4  2.5 2.5 0.4  3 2.5 0.4  3.5 2.5 0.4  4 2.5 0.4  4.5 2.5 0.4  5 2.5 0.4  5.5 2.5 0.4  6 2.5 0.4  6.5 2.5 0.4  7 2.5 0.4  7.5 2.5 0.4  8 2.5 0.4  8.5 2.5 0.4  9 2.5 0.4  9.5 2.5 0.4  10 2.5 0.4  0 3 0.4  0.5 3 0.4  1 3 0.4  1.5 3 0.4  2 3 0.4  2.5 3 0.4  3 3 0.4  3.5 3 0.4  4 3 0.4  4.5 3 0.4  5 3 0.4  5.5 3 0.4  6 3 0.4  6.5 3 0.4  7 3 0.4  7.5 3 0.4  8 3 0.4  8.5 3 0.4  9 3 0.4  9.5 3 0.4  10 3 0.4  0 0 0.5  0.5 0 0.5  1 0 0.5  1.5 0 0.5  2 0 0.5  2.5 0 0.5  3 0 0.5  3.5 0 0.5  4 0 0.5  4.5 0 0.5  5 0 0.5  5.5 0 0.5  6 0 0.5  6.5 0 0.5  7 0 0.5  7.5 0 0.5  8 0 0.5  8.5 0 0.5  9 0 0.5  9.5 0 0.5  10 0 0.5  0 0.5 0.5  0.5 0.5 0.5  1 0.5 0.5  1.5 0.5 0.5  2 0.5 0.5  2.5 0.5 0.5  3 0.5 0.5  3.5 0.5 0.5  4 0.5 0.5  4.5 0.5 0.5  5 0.5 0.5  5.5 0.5 0.5  6 0.5 0.5  6.5 0.5 0.5  7 0.5 0.5  7.5 0.5 0.5  8 0.5 0.5  8.5 0.5 0.5  9 0.5 0.5  9.5 0.5 0.5  10 0.5 0.5  0 1 0.5  0.5 1 0.5  1 1 0.5  1.5 1 0.5  2 1 0.5  2.5 1 0.5  3 1 0.5  3.5 1 0.5  4 1 0.5  4.5 1 0.5  5 1 0.5  5.5 1 0.5  6 1 0.5  6.5 1 0.5  7 1 0.5  7.5 1 0.5  8 1 0.5  8.5 1 0.5  9 1 0.5  9.5 1 0.5  10 1 0.5  0 1.5 0.5  0.5 1.5 0.5  1 1.5 0.5  1.5 1.5 0.5  2 1.5 0.5  2.5 1.5 0.5  3 1.5 0.5  3.5 1.5 0.5  4 1.5 0.5  4.5 1.5 0.5  5 1.5 0.5  5.5 1.5 0.5  6 1.5 0.5  6.5 1.5 0.5  7 1.5 0.5  7.5 1.5 0.5  8 1.5 0.5  8.5 1.5 0.5  9 1.5 0.5  9.5 1.5 0.5  10 1.5 0.5  0 2 0.5  0.5 2 0.5  1 2 0.5  1.5 2 0.5  2 2 0.5  2.5 2 0.5  3 2 0.5  3.5 2 0.5  4 2 0.5  4.5 2 0.5  5 2 0.5  5.5 2 0.5  6 2 0.5  6.5 2 0.5  7 2 0.5  7.5 2 0.5  8 2 0.5  8.5 2 0.5  9 2 0.5  9.5 2 0.5  10 2 0.5  0 2.5 0.5  0.5 2.5 0.5  1 2.5 0.5  1.5 2.5 0.5  2 2.5 0.5  2.5 2.5 0.5  3 2.5 0.5  3.5 2.5 0.5  4 2.5 0.5  4.5 2.5 0.5  5 2.5 0.5  5.5 2.5 0.5  6 2.5 0.5  6.5 2.5 0.5  7 2.5 0.5  7.5 2.5 0.5  8 2.5 0.5  8.5 2.5 0.5  9 2.5 0.5  9.5 2.5 0.5  10 2.5 0.5  0 3 0.5  0.5 3 0.5  1 3 0.5  1.5 3 0.5  2 3 0.5  2.5 3 0.5  3 3 0.5  3.5 3 0.5  4 3 0.5  4.5 3 0.5  5 3 0.5  5.5 3 0.5  6 3 0.5  6.5 3 0.5  7 3 0.5  7.5 3 0.5  8 3 0.5  8.5 3 0.5  9 3 0.5  9.5 3 0.5  10 3 0.5  </DataArray>
</Points>
<Cells>
[...]
<PointData  Vectors="f_7-0"> 
<DataArray  type="Float64"  Name="f_7-0"  NumberOfComponents="3" format="ascii">0.0000000000000000e+00 0.0000000000000000e+00 0.0000000000000000e+00  2.4267804659928774e-01 2.8957085822985401e-01 2.8353414265189447e-02  4.4914942929063739e-01 5.5791715248015572e-01 3.3642470613237573e-02  7.2737439191178277e-01 7.8193003983050668e-01 2.0169901426787044e-02  1.1412983839428781e+00 8.5380793333982397e-01 6.3702557430852470e-03  1.5924927003792442e+00 8.5512247597715119e-01 -4.4825384542808884e-03  2.0493426847105347e+00 8.4737576036789741e-01 -6.8406947882509719e-03  2.5038286531406952e+00 8.4657183415720139e-01 -5.6463074005132004e-03  2.9569761422243439e+00 8.4849760594194723e-01 -4.8714787170141939e-03  3.4101422307761369e+00 8.4991145235661636e-01 -4.8312380831234914e-03  3.8636242519227846e+00 8.5040691706061400e-01 -4.9793205146043363e-03  4.3172658618980835e+00 8.5049333415222450e-01 -5.0586020469141849e-03  4.7709260682966184e+00 8.5051848912549965e-01 -5.0635626715250740e-03  5.2245694176847266e+00 8.5055624631825633e-01 -5.0466919740017428e-03  5.6782044236346030e+00 8.5058729463089033e-01 -5.0338540015932966e-03  6.1318391037763957e+00 8.5060060936710058e-01 -5.0271342338914782e-03  6.5854740427049050e+00 8.5060194709563486e-01 -5.0228566967918647e-03  7.0391077253688588e+00 8.5059923963234918e-01 -5.0192598577537403e-03  7.4927396199105685e+00 8.5059645240427673e-01 -5.0163509633500518e-03  7.9463701757930743e+00 8.5059466064394040e-01 -5.0144826368420685e-03  8.4000000000000039e+00 8.5059380756775327e-01 -5.0137137067412822e-03  0.0000000000000000e+00 0.0000000000000000e+00 0.0000000000000000e+00  1.0640471164283176e-01 1.0926217914405194e-01 3.2015570224298961e-02  3.3032772994856840e-01 4.1196635869614262e-01 3.1342890432341647e-02  6.9786220837425672e-01 5.6517903520977608e-01 1.1455167384621497e-02  1.1388063240289190e+00 5.9814303538562597e-01 -6.1394204320848788e-03  1.5950345851867715e+00 5.9098568877100366e-01 -1.0938417116166650e-02  2.0499503963574384e+00 5.8601534444525472e-01 -8.2175567142587207e-03  2.5033341387133379e+00 5.8705823229666187e-01 -7.2715220827797074e-03  2.9565175538315978e+00 5.8912161417317754e-01 -7.5187263021307153e-03  3.4099580899829514e+00 5.9019520828700667e-01 -7.8135355850166514e-03  3.8635872926117814e+00 5.9048826981163194e-01 -7.9592686718782512e-03  4.3172580561016094e+00 5.9054402185402011e-01 -7.9994559635172303e-03  4.7709146642930964e+00 5.9059072294277382e-01 -8.0131631679100802e-03  5.2245584682373494e+00 5.9064217629180460e-01 -8.0288020069703998e-03  5.6781985486039810e+00 5.9067590693517580e-01 -8.0449507151422132e-03  6.1318373667176713e+00 5.9068992842809553e-01 -8.0572639888919495e-03  6.5854740561822620e+00 5.9069336789389937e-01 -8.0653254246466181e-03  7.0391081061056830e+00 5.9069335725934569e-01 -8.0705126932822200e-03  7.4927399306201954e+00 5.9069271584551253e-01 -8.0738726007992864e-03  7.9463703157973287e+00 5.9069214228015521e-01 -8.0758640384033641e-03  8.4000000000000039e+00 5.9069207681649560e-01 -8.0763399984586006e-03  0.0000000000000000e+00 0.0000000000000000e+00 0.0000000000000000e+00  1.9297373676347984e-02 1.8725735528556095e-02 2.9540476785398628e-02  2.6445773730490590e-01 2.3857966077363912e-01 1.2168241611154568e-02  6.8103347896959332e-01 3.1984600582837985e-01 -3.7254549511273817e-03  1.1391373806366116e+00 3.3191891270143364e-01 -1.9586994320256006e-02  1.5966561252050200e+00 3.2779524292225160e-01 -1.3799106654067637e-02  2.0500586845765461e+00 3.2644587516929685e-01 -9.4375760780213824e-03  2.5028273335593973e+00 3.2784929963152953e-01 -9.7331554625670579e-03  2.9561384250564897e+00 3.2945568087664989e-01 -1.0520497677750153e-02  3.4098191544943695e+00 3.3024698858974744e-01 -1.0906476438612525e-02  3.8635549021823459e+00 3.3049717100380072e-01 -1.0992230189535856e-02  4.3172433181208252e+00 3.3058983723658697e-01 -1.1000778840444658e-02  4.7708989400964281e+00 3.3066222899212705e-01 -1.1026525721309865e-02  5.2245461842513450e+00 3.3072069953865713e-01 -1.1064382470698589e-02  5.6781919774716023e+00 3.3075660709272758e-01 -1.1096744979750895e-02  6.1318347163230209e+00 3.3077421848121796e-01 -1.1118847608934737e-02  6.5854731235320578e+00 3.3078206238313418e-01 -1.1133524963720403e-02  7.0391077553442498e+00 3.3078573713344550e-01 -1.1143777252847884e-02  7.4927397964007811e+00 3.3078757659992514e-01 -1.1150852012179309e-02  7.9463702721347769e+00 3.3078840935151699e-01 -1.1155016675664275e-02  8.4000000000000039e+00 3.3078866425350484e-01 -1.1156474911399173e-02  0.0000000000000000e+00 0.0000000000000000e+00 0.0000000000000000e+00  -7.4668071638965506e-03 2.5040996942377377e-02 3.1755309756540423e-02  2.2508179702572029e-01 1.3774530805714242e-02 1.9903997436983845e-02  6.7424543026888462e-01 5.2402136262904193e-02 -2.7853189315887979e-02  1.1390347597933985e+00 6.0892465145501423e-02 -2.4740761926810583e-02  1.5965384934340876e+00 6.5612403813136030e-02 -1.4478866721735624e-02  2.0498309568673903e+00 6.7721917170345272e-02 -1.2219853841360115e-02  2.5024666872162129e+00 6.8756565899260866e-02 -1.2751525239614491e-02  2.9558854760170843e+00 6.9571151218323607e-02 -1.3664224811554333e-02  3.4097026434621496e+00 7.0129819072316218e-02 -1.4050635400367353e-02  3.8635059946351884e+00 7.0450882500480372e-02 -1.4082867471467852e-02  4.3172159018928840e+00 7.0627443145874574e-02 -1.4074780262639065e-02  4.7708795121002554e+00 7.0729618884699516e-02 -1.4105092126533386e-02  5.2245332635812138e+00 7.0792294197339276e-02 -1.4150117971452270e-02  5.6781844588629333e+00 7.0831203440959098e-02 -1.4186676090782589e-02  6.1318306684576491e+00 7.0854864889629832e-02 -1.4211034880962717e-02  6.5854709417355295e+00 7.0868878989144526e-02 -1.4227464416711109e-02  7.0391065423111465e+00 7.0877028485024585e-02 -1.4239258117403808e-02  7.4927391460032444e+00 7.0881645631824988e-02 -1.4247497713465432e-02  7.9463699825395082e+00 7.0883989507972450e-02 -1.4252421882798055e-02  8.4000000000000039e+00 7.0884724907989902e-02 -1.4254046667118462e-02  0.0000000000000000e+00 0.0000000000000000e+00 0.0000000000000000e+00  2.8676664798287822e-02 4.9749908334581726e-03 3.1614637073025892e-02  2.4966436639973910e-01 -1.6678897676202190e-01 2.6752187381293001e-02  6.7270619346413518e-01 -2.2890137325775883e-01 -3.2962199047260922e-02  1.1360745631734208e+00 -2.1053655668804716e-01 -2.3508322581136200e-02  1.5949349376167603e+00 -1.9697086123045851e-01 -1.7986763639994602e-02  2.0492205935176284e+00 -1.9141524671565618e-01 -1.6164174274300669e-02  2.5023257292722918e+00 -1.9041926888325783e-01 -1.6194682797701219e-02  2.9557797159632728e+00 -1.9039318262354671e-01 -1.6898448813787891e-02  3.4095928653670913e+00 -1.9006242926482719e-01 -1.7223845925272731e-02  3.8634278301590599e+00 -1.8964069776026163e-01 -1.7248381761252020e-02  4.3171716891281777e+00 -1.8935841753049229e-01 -1.7232817726524356e-02  4.7708561160012470e+00 -1.8921580197655113e-01 -1.7251557279193922e-02  5.2245197036307269e+00 -1.8914405452415628e-01 -1.7286032893429042e-02  5.6781756598943334e+00 -1.8909939546170404e-01 -1.7315135152575122e-02  6.1318248784211464e+00 -1.8906785986803551e-01 -1.7334807155794527e-02  6.5854673138712494e+00 -1.8904644851143151e-01 -1.7348156687249747e-02  7.0391043912566165e+00 -1.8903306066584843e-01 -1.7357768287873530e-02  7.4927379469126185e+00 -1.8902525516416632e-01 -1.7364537015229074e-02  7.9463694654858275e+00 -1.8902114383394075e-01 -1.7368555113233628e-02  8.4000000000000039e+00 -1.8901993377802007e-01 -1.7369786717545334e-02  0.0000000000000000e+00 0.0000000000000000e+00 0.0000000000000000e+00  9.9544204690189528e-02 -7.0898168738445178e-02 3.4821877202500351e-02  3.5657062847650145e-01 -3.4087319926493448e-01 1.1447620097072279e-02  6.7875300658656057e-01 -4.8299363490314451e-01 -9.3839573119153122e-04  1.1315926501393248e+00 -4.8156304703785136e-01 -2.7179449217836039e-02  1.5917091667748762e+00 -4.6177973049183918e-01 -2.2930454823279618e-02  2.0481779454385332e+00 -4.5195908280692559e-01 -2.0785464264034881e-02  2.5022940543522285e+00 -4.4999290274065512e-01 -2.0132080273742314e-02  2.9558012938231633e+00 -4.5029279077034212e-01 -2.0226335634568365e-02  3.4094969091695280e+00 -4.5022069592895764e-01 -2.0435524144915271e-02  3.8633211765949067e+00 -4.4976847821031124e-01 -2.0491141758278000e-02  4.3171079467451108e+00 -4.4938589121870653e-01 -2.0473330139780966e-02  4.7708261480360141e+00 -4.4918417136378802e-01 -2.0463978087760269e-02  5.2245041017009486e+00 -4.4908970213182570e-01 -2.0470476411675008e-02  5.6781650222419877e+00 -4.4903434284442129e-01 -2.0480942190105326e-02  6.1318170808077470e+00 -4.4899374431732364e-01 -2.0489126359348915e-02  6.5854620442933687e+00 -4.4896427043059578e-01 -2.0494570076682584e-02  7.0391011505632024e+00 -4.4894490909997681e-01 -2.0498330837705130e-02  7.4927361231149714e+00 -4.4893332463730018e-01 -2.0500987418202832e-02  7.9463686444804909e+00 -4.4892720327557462e-01 -2.0502654187057497e-02  8.4000000000000039e+00 -4.4892534360758307e-01 -2.0503400616659673e-02  0.0000000000000000e+00 0.0000000000000000e+00 0.0000000000000000e+00  2.3110060570205448e-01 -2.7015596618495197e-01 1.4303572639224313e-02  4.7807328856623249e-01 -4.9693264115964830e-01 1.0531733986423191e-02  7.1901219453594722e-01 -6.8069458590865595e-01 2.5848085614860357e-02  1.1271585620968168e+00 -7.4908754643402387e-01 -2.4108451004883860e-02  1.5873587107559304e+00 -7.2905050934388405e-01 -2.9202006661133217e-02  2.0464929795284164e+00 -7.1486626111317608e-01 -2.6226778700999778e-02  2.5021031185372169e+00 -7.1035460086501978e-01 -2.4505923206583818e-02  2.9558875419815651e+00 -7.1010067902681429e-01 -2.3758230663714901e-02  3.4094360866671614e+00 -7.1025887602889404e-01 -2.3735225760683560e-02  3.8632001897013715e+00 -7.0991028883846463e-01 -2.3812654247202098e-02  4.3170233474263728e+00 -7.0946519008136255e-01 -2.3796271103000276e-02  4.7707845727999851e+00 -7.0918435777383970e-01 -2.3745374718786637e-02  5.2244836111963169e+00 -7.0904646211190059e-01 -2.3707302044548809e-02  5.6781516956422671e+00 -7.0897259755988840e-01 -2.3686877368071690e-02  6.1318070618550546e+00 -7.0892172485254923e-01 -2.3675506913030556e-02  6.5854549462920087e+00 -7.0888397478434084e-01 -2.3667521441003411e-02  7.0390966231572385e+00 -7.0885804276099484e-01 -2.3661446166150468e-02  7.4927335234688970e+00 -7.0884205885992868e-01 -2.3657234395917683e-02  7.9463674434735454e+00 -7.0883358032911270e-01 -2.3654954338599304e-02  8.4000000000000039e+00 -7.0883061258391589e-01 -2.3654142407849715e-02  0.0000000000000000e+00 0.0000000000000000e+00 0.0000000000000000e+00  2.4420524400729776e-01 2.9207230118648103e-01 2.0680924766124219e-02  4.5696825224301862e-01 5.5789401431570096e-01 1.8113181910145895e-02  7.3094815678899416e-01 7.8097023364586682e-01 1.2770928331318748e-02  1.1402482902160611e+00 8.5788132385144178e-01 8.5470057981378786e-03  1.5913617878503812e+00 8.5913256205472810e-01 1.2164737925739193e-03  2.0495184682982459e+00 8.4857302422399838e-01 -1.5341769376704866e-03  2.5043511309795408e+00 8.4712475902900863e-01 -1.1076391229126747e-03  2.9572635632771709e+00 8.4948436234678237e-01 -4.0922558322244954e-04  3.4102697013618202e+00 8.5114977743417031e-01 -2.4947585962598729e-04  3.8637031445979342e+00 8.5169082997934009e-01 -3.2341500011759150e-04  4.3173337523464177e+00 8.5176818395204856e-01 -3.8628807214027529e-04  4.7709840557795573e+00 8.5179501091959797e-01 -3.9515119115614164e-04  5.2246141232760941e+00 8.5184710927990070e-01 -3.8103728543326484e-04  5.6782368632980509e+00 8.5189326194035364e-01 -3.6752016059054881e-04  6.1318624023024109e+00 8.5191721464732595e-01 -3.5957379762498225e-04  6.5854907636102338e+00 8.5192532780689156e-01 -3.5482151821796914e-04  7.0391193463576647e+00 8.5192718815940882e-01 -3.5127100243152130e-04  7.4927469534770630e+00 8.5192755965907252e-01 -3.4853610239767946e-04  7.9463736857177585e+00 8.5192769148026337e-01 -3.4675147079691281e-04  8.4000000000000039e+00 8.5192787648478319e-01 -3.4611933378122698e-04  0.0000000000000000e+00 0.0000000000000000e+00 0.0000000000000000e+00  1.1263894075426431e-01 1.1638605580985441e-01 1.9557831229308868e-02  3.3729031131712894e-01 4.1323111042748528e-01 1.9315406832170725e-02  6.9909566130608758e-01 5.6811425091523904e-01 9.4421866283250378e-03  1.1376797182295950e+00 6.0351376658477229e-01 -1.1480711774902361e-03  1.5948587366709603e+00 5.9301200374305729e-01 -4.8932438288983400e-03  2.0505262531305335e+00 5.8639789731311864e-01 -3.4279307798857151e-03  2.5037348451274988e+00 5.8787722904899342e-01 -2.8051706318416832e-03  2.9567083732137949e+00 5.9034675181000307e-01 -2.9575318247108185e-03  3.4100654068059235e+00 5.9151593527816171e-01 -3.1620634134320188e-03  3.8636711405554438e+00 5.9179239881739909e-01 -3.2768631766886404e-03  4.3173288769386078e+00 5.9183406724292620e-01 -3.3201203979911454e-03  4.7709702514663910e+00 5.9188745623732553e-01 -3.3405151096525033e-03  5.2245993951253533e+00 5.9195252185298397e-01 -3.3581411578200980e-03  5.6782281786917697e+00 5.9199698668703149e-01 -3.3741582615529737e-03  6.1318589468009979e+00 5.9201767046211651e-01 -3.3865332255345478e-03  6.5854896573206885e+00 5.9202543245235439e-01 -3.3951273895784168e-03  7.0391189228891635e+00 5.9202856246897284e-01 -3.4009203179989050e-03  7.4927467202942122e+00 5.9203018469967850e-01 -3.4047195013574469e-03  7.9463735584945114e+00 5.9203101972653993e-01 -3.4069112002261216e-03  8.4000000000000039e+00 5.9203126861101285e-01 -3.4075943942737125e-03  0.0000000000000000e+00 0.0000000000000000e+00 0.0000000000000000e+00  1.9089468335842581e-02 1.7964706693842366e-02 1.5457996762324320e-02  2.6971574218077088e-01 2.4346994257039428e-01 7.7208767343126278e-03  6.8089321930610358e-01 3.2661270310704604e-01 -9.5291918871341164e-04  1.1390268123803702e+00 3.3575887068506510e-01 -1.1295062438710033e-02  1.5976282352184910e+00 3.2812760936014240e-01 -8.2040037270566368e-03  2.0506784847116952e+00 3.2704215742553405e-01 -5.1893302654133517e-03  2.5030841498612784e+00 3.2900010869193025e-01 -5.2934769961782415e-03  2.9562738124679164e+00 3.3081639748384756e-01 -5.8826336023032229e-03  3.4099267609996207e+00 3.3160909318641274e-01 -6.2021909204918639e-03  3.8636475575876563e+00 3.3182587113804529e-01 -6.2959763858777039e-03  4.3173163044923371e+00 3.3190842684026634e-01 -6.3226220501317798e-03  4.7709522753358122e+00 3.3198724573505550e-01 -6.3547048385073817e-03  5.2245845299464042e+00 3.3205399655935658e-01 -6.3925340466438954e-03  5.6782200119947186e+00 3.3209498742937577e-01 -6.4246042768090136e-03  6.1318553879965476e+00 3.3211537098004340e-01 -6.4474250678904802e-03  6.5854880905907009e+00 3.3212512186503196e-01 -6.4631197118567643e-03  7.0391180809005851e+00 3.3213032399976589e-01 -6.4741468894854203e-03  7.4927462393813080e+00 3.3213330155117876e-01 -6.4816855935198913e-03  7.9463733535571572e+00 3.3213482405754052e-01 -6.4861162975077260e-03  8.4000000000000039e+00 3.3213527953928185e-01 -6.4875957461136132e-03  0.0000000000000000e+00 0.0000000000000000e+00 0.0000000000000000e+00  -2.7097237699414828e-03 2.0549063602512782e-02 1.8639278029175994e-02  2.2375104231102069e-01 1.3878500952747893e-02 1.0171686702284648e-02  6.7446424131869032e-01 5.8926404739203166e-02 -1.5879373442781237e-02  1.1410904279165270e+00 6.1066998253455809e-02 -1.6113573246858238e-02  1.5978105111012606e+00 6.6226438163451931e-02 -9.6738750313948210e-03  2.0503511832491710e+00 6.8924027624741729e-02 -7.9457465880071240e-03  2.5026549428060423e+00 7.0170389608487607e-02 -8.3066874897838490e-03  2.9560051197466581e+00 7.0981183050428873e-02 -8.9877206355762716e-03  3.4098183254174304e+00 7.1510352933691082e-02 -9.3164096132292481e-03  3.8636053669761843e+00 7.1810793728229988e-02 -9.3782450621698044e-03  4.3172898323628122e+00 7.1982179889113471e-02 -9.3953801159094331e-03  4.7709316257746623e+00 7.2085200304219096e-02 -9.4323635703715304e-03  5.2245706448228271e+00 7.2148308747572734e-02 -9.4771037954953629e-03  5.6782120931867626e+00 7.2186680959380300e-02 -9.5137103170973292e-03  6.1318511563451743e+00 7.2209739385814348e-02 -9.5392668789487274e-03  6.5854857478176276e+00 7.2223434977572901e-02 -9.5570007038641089e-03  7.0391167190957136e+00 7.2231464863132172e-02 -9.5696819662563267e-03  7.4927454785634335e+00 7.2236025877498902e-02 -9.5784361733657723e-03  7.9463730181579919e+00 7.2238347617971918e-02 -9.5835976816091122e-03  8.4000000000000039e+00 7.2239064572495945e-02 -9.5852581950085485e-03  0.0000000000000000e+00 0.0000000000000000e+00 0.0000000000000000e+00  2.9027295946929856e-02 1.6244906329014703e-03 1.6889008324679568e-02  2.4963957216048357e-01 -1.6145409390653398e-01 1.4741374087293002e-02  6.7572862460600225e-01 -2.3482570434273717e-01 -2.1737487129358843e-02  1.1385195685942000e+00 -2.0947725678620388e-01 -1.6414269060647361e-02  1.5960867069461824e+00 -1.9552328991038631e-01 -1.2721364144918900e-02  2.0496932738408087e+00 -1.8962467856191406e-01 -1.1622615772281525e-02  2.5025252146634838e+00 -1.8881086461920649e-01 -1.1703559682862767e-02  2.9559134039357735e+00 -1.8895503444116188e-01 -1.2221228540338401e-02  3.4097152810407882e+00 -1.8866566557276079e-01 -1.2487221449987831e-02  3.8635299748445222e+00 -1.8824388000279405e-01 -1.2535999760080139e-02  4.3172464663396850e+00 -1.8796412013990174e-01 -1.2546356839481789e-02  4.7709088688890331e+00 -1.8782934758875430e-01 -1.2574756868044138e-02  5.2245578445108123e+00 -1.8776579100593885e-01 -1.2611044664421645e-02  5.6782039481236488e+00 -1.8772700321105468e-01 -1.2641090368229864e-02  6.1318458177301549e+00 -1.8769921097226475e-01 -1.2662272661216566e-02  6.5854824149893236e+00 -1.8768032320891098e-01 -1.2677100889656418e-02  7.0391147636548297e+00 -1.8766875154185364e-01 -1.2687755065670776e-02  7.4927444137342523e+00 -1.8766220429546931e-01 -1.2695129134946593e-02  7.9463725473827935e+00 -1.8765887229109746e-01 -1.2699510140860839e-02  8.4000000000000039e+00 -1.8765784829569443e-01 -1.2700969157862479e-02  0.0000000000000000e+00 0.0000000000000000e+00 0.0000000000000000e+00  1.0260658307039318e-01 -6.9940332304407077e-02 1.8604951562991516e-02  3.6010839680729934e-01 -3.4324622143566658e-01 4.4248072588335043e-03  6.7972820574589332e-01 -4.8814835913995364e-01 -3.5177271138941394e-03  1.1333377571980625e+00 -4.8105481296703168e-01 -1.9255583123056211e-02  1.5928436426603898e+00 -4.5916000911653526e-01 -1.7096819352904299e-02  2.0486589494408940e+00 -4.4976799391581979e-01 -1.5803589834076762e-02  2.5025660449632006e+00 -4.4821291861893958e-01 -1.5502316438095879e-02  2.9559709878322731e+00 -4.4879673336706150e-01 -1.5582997858914231e-02  3.4096240639397761e+00 -4.4879572022111719e-01 -1.5722958590834703e-02  3.8634226334858384e+00 -4.4833371671850336e-01 -1.5773854588213312e-02  4.3171844415378509e+00 -4.4795309655732901e-01 -1.5776474414405724e-02  4.7708818278888483e+00 -4.4776776652590750e-01 -1.5781717780257280e-02  5.2245447457617988e+00 -4.4768953943263340e-01 -1.5794163411030585e-02  5.6781949896178023e+00 -4.4764522180177391e-01 -1.5806918016916468e-02  6.1318391250443796e+00 -4.4761160759222796e-01 -1.5816718747333397e-02  6.5854779288182588e+00 -4.4758695056595038e-01 -1.5823640626201903e-02  7.0391120889555223e+00 -4.4757111785230047e-01 -1.5828542801581379e-02  7.4927429601242608e+00 -4.4756199340107150e-01 -1.5831946764767426e-02  7.9463719045280499e+00 -4.4755733685099802e-01 -1.5833916591015823e-02  8.4000000000000039e+00 -4.4755592165024444e-01 -1.5834494486554929e-02  0.0000000000000000e+00 0.0000000000000000e+00 0.0000000000000000e+00  2.3262453148556661e-01 -2.6592210017267837e-01 1.1195325104353964e-02  4.8409988410944549e-01 -5.0646189550901177e-01 4.4823113357014928e-03  7.2242072013265868e-01 -6.8193283651400349e-01 1.1500273932781203e-02  1.1268748738930694e+00 -7.5140611563700721e-01 -1.7968463020115833e-02  1.5883412459757225e+00 -7.2587998594613512e-01 -2.2437070920842836e-02  2.0471191972227927e+00 -7.1