<?xml version="1.0"?>
<VTKFile type="UnstructuredGrid"  version="0.1"  >
<UnstructuredGrid>
<Piece  NumberOfPoints="882" NumberOfCells="3600">
<Points>
<DataArray  type="Float64"  NumberOfComponents="3"  format="ascii">0 0 0  0.5 0 0  1 0 0  1.5 0 0  2 0 0  2.5 0 0  3 0 0  3.5 0 0  4 0 0  4.5 0 0  5 0 0  5.5 0 0  6 0 0  6.5 0 0  7 0 0  7.5 0 0  8 0 0  8.5 0 0  9 0 0  9.5 0 0  10 0 0  0 0.5 0  0.5 0.5 0  1 0.5 0  1.5 0.5 0  2 0.5 0  2.5 0.5 0  3 0.5 0  3.5 0.5 0  4 0.5 0  4.5 0.5 0  5 0.5 0  5.5 0.5 0  6 0.5 0  6.5 0.5 0  7 0.5 0  7.5 0.5 0  8 0.5 0  8.5 0.5 0  9 0.5 0  9.5 0.5 0  10 0.5 0  0 1 0  0.5 1 0  1 1 0  1.5 1 0  2 1 0  2.5 1 0  3 1 0  3.5 1 0  4 1 0  4.5 1 0  5 1 0  5.5 1 0  6 1 0  6.5 1 0  7 1 0  7.5 1 0  8 1 0  8.5 1 0  9 1 0  9.5 1 0  10 1 0  0 1.5 0  0.5 1.5 0  1 1.5 0  1.5 1.5 0  2 1.5 0  2.5 1.5 0  3 1.5 0  3.5 1.5 0  4 1.5 0  4.5 1.5 0  5 1.5 0  5.5 1.5 0  6 1.5 0  6.5 1.5 0  7 1.5 0  7.5 1.5 0  8 1.5 0  8.5 1.5 0  9 1.5 0  9.5 1.5 0  10 1.5 0  0 2 0  0.5 2 0  1 2 0  1.5 2 0  2 2 0  2.5 2 0  3 2 0  3.5 2 0  4 2 0  4.5 2 0  5 2 0  5.5 2 0  6 2 0  6.5 2 0  7 2 0  7.5 2 0  8 2 0  8.5 2 0  9 2 0  9.5 2 0  10 2 0  0 2.5 0  0.5 2.5 0  1 2.5 0  1.5 2.5 0  2 2.5 0  2.5 2.5 0  3 2.5 0  3.5 2.5 0  4 2.5 0  4.5 2.5 0  5 2.5 0  5.5 2.5 0  6 2.5 0  6.5 2.5 0  7 2.5 0  7.5 2.5 0  8 2.5 0  8.5 2.5 0  9 2.5 0  9.5 2.5 0  10 2.5 0  0 3 0  0.5 3 0  1 3 0  1.5 3 0  2 3 0  2.5 3 0  3 3 0  3.5 3 0  4 3 0  4.5 3 0  5 3 0  5.5 3 0  6 3 0  6.5 3 0  7 3 0  7.5 3 0  8 3 0  8.5 3 0  9 3 0  9.5 3 0  10 3 0  0 0 0.1  0.5 0 0.1  1 0 0.1  1.5 0 0.1  2 0 0.1  2.5 0 0.1  3 0 0.1  3.5 0 0.1  4 0 0.1  4.5 0 0.1  5 0 0.1  5.5 0 0.1  6 0 0.1  6.5 0 0.1  7 0 0.1  7.5 0 0.1  8 0 0.1  8.5 0 0.1  9 0 0.1  9.5 0 0.1  10 0 0.1  0 0.5 0.1  0.5 0.5 0.1  1 0.5 0.1  1.5 0.5 0.1  2 0.5 0.1  2.5 0.5 0.1  3 0.5 0.1  3.5 0.5 0.1  4 0.5 0.1  4.5 0.5 0.1  5 0.5 0.1  5.5 0.5 0.1  6 0.5 0.1  6.5 0.5 0.1  7 0.5 0.1  7.5 0.5 0.1  8 0.5 0.1  8.5 0.5 0.1  9 0.5 0.1  9.5 0.5 0.1  10 0.5 0.1  0 1 0.1  0.5 1 0.1  1 1 0.1  1.5 1 0.1  2 1 0.1  2.5 1 0.1  3 1 0.1  3.5 1 0.1  4 1 0.1  4.5 1 0.1  5 1 0.1  5.5 1 0.1  6 1 0.1  6.5 1 0.1  7 1 0.1  7.5 1 0.1  8 1 0.1  8.5 1 0.1  9 1 0.1  9.5 1 0.1  10 1 0.1  0 1.5 0.1  0.5 1.5 0.1  1 1.5 0.1  1.5 1.5 0.1  2 1.5 0.1  2.5 1.5 0.1  3 1.5 0.1  3.5 1.5 0.1  4 1.5 0.1  4.5 1.5 0.1  5 1.5 0.1  5.5 1.5 0.1  6 1.5 0.1  6.5 1.5 0.1  7 1.5 0.1  7.5 1.5 0.1  8 1.5 0.1  8.5 1.5 0.1  9 1.5 0.1  9.5 1.5 0.1  10 1.5 0.1  0 2 0.1  0.5 2 0.1  1 2 0.1  1.5 2 0.1  2 2 0.1  2.5 2 0.1  3 2 0.1  3.5 2 0.1  4 2 0.1  4.5 2 0.1  5 2 0.1  5.5 2 0.1  6 2 0.1  6.5 2 0.1  7 2 0.1  7.5 2 0.1  8 2 0.1  8.5 2 0.1  9 2 0.1  9.5 2 0.1  10 2 0.1  0 2.5 0.1  0.5 2.5 0.1  1 2.5 0.1  1.5 2.5 0.1  2 2.5 0.1  2.5 2.5 0.1  3 2.5 0.1  3.5 2.5 0.1  4 2.5 0.1  4.5 2.5 0.1  5 2.5 0.1  5.5 2.5 0.1  6 2.5 0.1  6.5 2.5 0.1  7 2.5 0.1  7.5 2.5 0.1  8 2.5 0.1  8.5 2.5 0.1  9 2.5 0.1  9.5 2.5 0.1  10 2.5 0.1  0 3 0.1  0.5 3 0.1  1 3 0.1  1.5 3 0.1  2 3 0.1  2.5 3 0.1  3 3 0.1  3.5 3 0.1  4 3 0.1  4.5 3 0.1  5 3 0.1  5.5 3 0.1  6 3 0.1  6.5 3 0.1  7 3 0.1  7.5 3 0.1  8 3 0.1  8.5 3 0.1  9 3 0.1  9.5 3 0.1  10 3 0.1  0 0 0.2  0.5 0 0.2  1 0 0.2  1.5 0 0.2  2 0 0.2  2.5 0 0.2  3 0 0.2  3.5 0 0.2  4 0 0.2  4.5 0 0.2  5 0 0.2  5.5 0 0.2  6 0 0.2  6.5 0 0.2  7 0 0.2  7.5 0 0.2  8 0 0.2  8.5 0 0.2  9 0 0.2  9.5 0 0.2  10 0 0.2  0 0.5 0.2  0.5 0.5 0.2  1 0.5 0.2  1.5 0.5 0.2  2 0.5 0.2  2.5 0.5 0.2  3 0.5 0.2  3.5 0.5 0.2  4 0.5 0.2  4.5 0.5 0.2  5 0.5 0.2  5.5 0.5 0.2  6 0.5 0.2  6.5 0.5 0.2  7 0.5 0.2  7.5 0.5 0.2  8 0.5 0.2  8.5 0.5 0.2  9 0.5 0.2  9.5 0.5 0.2  10 0.5 0.2  0 1 0.2  0.5 1 0.2  1 1 0.2  1.5 1 0.2  2 1 0.2  2.5 1 0.2  3 1 0.2  3.5 1 0.2  4 1 0.2  4.5 1 0.2  5 1 0.2  5.5 1 0.2  6 1 0.2  6.5 1 0.2  7 1 0.2  7.5 1 0.2  8 1 0.2  8.5 1 0.2  9 1 0.2  9.5 1 0.2  10 1 0.2  0 1.5 0.2  0.5 1.5 0.2  1 1.5 0.2  1.5 1.5 0.2  2 1.5 0.2  2.5 1.5 0.2  3 1.5 0.2  3.5 1.5 0.2  4 1.5 0.2  4.5 1.5 0.2  5 1.5 0.2  5.5 1.5 0.2  6 1.5 0.2  6.5 1.5 0.2  7 1.5 0.2  7.5 1.5 0.2  8 1.5 0.2  8.5 1.5 0.2  9 1.5 0.2  9.5 1.5 0.2  10 1.5 0.2  0 2 0.2  0.5 2 0.2  1 2 0.2  1.5 2 0.2  2 2 0.2  2.5 2 0.2  3 2 0.2  3.5 2 0.2  4 2 0.2  4.5 2 0.2  5 2 0.2  5.5 2 0.2  6 2 0.2  6.5 2 0.2  7 2 0.2  7.5 2 0.2  8 2 0.2  8.5 2 0.2  9 2 0.2  9.5 2 0.2  10 2 0.2  0 2.5 0.2  0.5 2.5 0.2  1 2.5 0.2  1.5 2.5 0.2  2 2.5 0.2  2.5 2.5 0.2  3 2.5 0.2  3.5 2.5 0.2  4 2.5 0.2  4.5 2.5 0.2  5 2.5 0.2  5.5 2.5 0.2  6 2.5 0.2  6.5 2.5 0.2  7 2.5 0.2  7.5 2.5 0.2  8 2.5 0.2  8.5 2.5 0.2  9 2.5 0.2  9.5 2.5 0.2  10 2.5 0.2  0 3 0.2  0.5 3 0.2  1 3 0.2  1.5 3 0.2  2 3 0.2  2.5 3 0.2  3 3 0.2  3.5 3 0.2  4 3 0.2  4.5 3 0.2  5 3 0.2  5.5 3 0.2  6 3 0.2  6.5 3 0.2  7 3 0.2  7.5 3 0.2  8 3 0.2  8.5 3 0.2  9 3 0.2  9.5 3 0.2  10 3 0.2  0 0 0.3  0.5 0 0.3  1 0 0.3  1.5 0 0.3  2 0 0.3  2.5 0 0.3  3 0 0.3  3.5 0 0.3  4 0 0.3  4.5 0 0.3  5 0 0.3  5.5 0 0.3  6 0 0.3  6.5 0 0.3  7 0 0.3  7.5 0 0.3  8 0 0.3  8.5 0 0.3  9 0 0.3  9.5 0 0.3  10 0 0.3  0 0.5 0.3  0.5 0.5 0.3  1 0.5 0.3  1.5 0.5 0.3  2 0.5 0.3  2.5 0.5 0.3  3 0.5 0.3  3.5 0.5 0.3  4 0.5 0.3  4.5 0.5 0.3  5 0.5 0.3  5.5 0.5 0.3  6 0.5 0.3  6.5 0.5 0.3  7 0.5 0.3  7.5 0.5 0.3  8 0.5 0.3  8.5 0.5 0.3  9 0.5 0.3  9.5 0.5 0.3  10 0.5 0.3  0 1 0.3  0.5 1 0.3  1 1 0.3  1.5 1 0.3  2 1 0.3  2.5 1 0.3  3 1 0.3  3.5 1 0.3  4 1 0.3  4.5 1 0.3  5 1 0.3  5.5 1 0.3  6 1 0.3  6.5 1 0.3  7 1 0.3  7.5 1 0.3  8 1 0.3  8.5 1 0.3  9 1 0.3  9.5 1 0.3  10 1 0.3  0 1.5 0.3  0.5 1.5 0.3  1 1.5 0.3  1.5 1.5 0.3  2 1.5 0.3  2.5 1.5 0.3  3 1.5 0.3  3.5 1.5 0.3  4 1.5 0.3  4.5 1.5 0.3  5 1.5 0.3  5.5 1.5 0.3  6 1.5 0.3  6.5 1.5 0.3  7 1.5 0.3  7.5 1.5 0.3  8 1.5 0.3  8.5 1.5 0.3  9 1.5 0.3  9.5 1.5 0.3  10 1.5 0.3  0 2 0.3  0.5 2 0.3  1 2 0.3  1.5 2 0.3  2 2 0.3  2.5 2 0.3  3 2 0.3  3.5 2 0.3  4 2 0.3  4.5 2 0.3  5 2 0.3  5.5 2 0.3  6 2 0.3  6.5 2 0.3  7 2 0.3  7.5 2 0.3  8 2 0.3  8.5 2 0.3  9 2 0.3  9.5 2 0.3  10 2 0.3  0 2.5 0.3  0.5 2.5 0.3  1 2.5 0.3  1.5 2.5 0.3  2 2.5 0.3  2.5 2.5 0.3  3 2.5 0.3  3.5 2.5 0.3  4 2.5 0.3  4.5 2.5 0.3  5 2.5 0.3  5.5 2.5 0.3  6 2.5 0.3  6.5 2.5 0.3  7 2.5 0.3  7.5 2.5 0.3  8 2.5 0.3  8.5 2.5 0.3  9 2.5 0.3  9.5 2.5 0.3  10 2.5 0.3  0 3 0.3  0.5 3 0.3  1 3 0.3  1.5 3 0.3  2 3 0.3  2.5 3 0.3  3 3 0.3  3.5 3 0.3  4 3 0.3  4.5 3 0.3  5 3 0.3  5.5 3 0.3  6 3 0.3  6.5 3 0.3  7 3 0.3  7.5 3 0.3  8 3 0.3  8.5 3 0.3  9 3 0.3  9.5 3 0.3  10 3 0.3  0 0 0.4  0.5 0 0.4  1 0 0.4  1.5 0 0.4  2 0 0.4  2.5 0 0.4  3 0 0.4  3.5 0 0.4  4 0 0.4  4.5 0 0.4  5 0 0.4  5.5 0 0.4  6 0 0.4  6.5 0 0.4  7 0 0.4  7.5 0 0.4  8 0 0.4  8.5 0 0.4  9 0 0.4  9.5 0 0.4  10 0 0.4  0 0.5 0.4  0.5 0.5 0.4  1 0.5 0.4  1.5 0.5 0.4  2 0.5 0.4  2.5 0.5 0.4  3 0.5 0.4  3.5 0.5 0.4  4 0.5 0.4  4.5 0.5 0.4  5 0.5 0.4  5.5 0.5 0.4  6 0.5 0.4  6.5 0.5 0.4  7 0.5 0.4  7.5 0.5 0.4  8 0.5 0.4  8.5 0.5 0.4  9 0.5 0.4  9.5 0.5 0.4  10 0.5 0.4  0 1 0.4  0.5 1 0.4  1 1 0.4  1.5 1 0.4  2 1 0.4  2.5 1 0.4  3 1 0.4  3.5 1 0.4  4 1 0.4  4.5 1 0.4  5 1 0.4  5.5 1 0.4  6 1 0.4  6.5 1 0.4  7 1 0.4  7.5 1 0.4  8 1 0.4  8.5 1 0.4  9 1 0.4  9.5 1 0.4  10 1 0.4  0 1.5 0.4  0.5 1.5 0.4  1 1.5 0.4  1.5 1.5 0.4  2 1.5 0.4  2.5 1.5 0.4  3 1.5 0.4  3.5 1.5 0.4  4 1.5 0.4  4.5 1.5 0.4  5 1.5 0.4  5.5 1.5 0.4  6 1.5 0.4  6.5 1.5 0.4  7 1.5 0.4  7.5 1.5 0.4  8 1.5 0.4  8.5 1.5 0.4  9 1.5 0.4  9.5 1.5 0.4  10 1.5 0.4  0 2 0.4  0.5 2 0.4  1 2 0.4  1.5 2 0.4  2 2 0.4  2.5 2 0.4  3 2 0.4  3.5 2 0.4  4 2 0.4  4.5 2 0.4  5 2 0.4  5.5 2 0.4  6 2 0.4  6.5 2 0.4  7 2 0.4  7.5 2 0.4  8 2 0.4  8.5 2 0.4  9 2 0.4  9.5 2 0.4  10 2 0.4  0 2.5 0.4  0.5 2.5 0.4  1 2.5 0.4  1.5 2.5 0.4  2 2.5 0.4  2.5 2.5 0.4  3 2.5 0.4  3.5 2.5 0.4  4 2.5 0.4  4.5 2.5 0.4  5 2.5 0.4  5.5 2.5 0.4  6 2.5 0.4  6.5 2.5 0.4  7 2.5 0.4  7.5 2.5 0.4  8 2.5 0.4  8.5 2.5 0.4  9 2.5 0.4  9.5 2.5 0.4  10 2.5 0.4  0 3 0.4  0.5 3 0.4  1 3 0.4  1.5 3 0.4  2 3 0.4  2.5 3 0.4  3 3 0.4  3.5 3 0.4  4 3 0.4  4.5 3 0.4  5 3 0.4  5.5 3 0.4  6 3 0.4  6.5 3 0.4  7 3 0.4  7.5 3 0.4  8 3 0.4  8.5 3 0.4  9 3 0.4  9.5 3 0.4  10 3 0.4  0 0 0.5  0.5 0 0.5  1 0 0.5  1.5 0 0.5  2 0 0.5  2.5 0 0.5  3 0 0.5  3.5 0 0.5  4 0 0.5  4.5 0 0.5  5 0 0.5  5.5 0 0.5  6 0 0.5  6.5 0 0.5  7 0 0.5  7.5 0 0.5  8 0 0.5  8.5 0 0.5  9 0 0.5  9.5 0 0.5  10 0 0.5  0 0.5 0.5  0.5 0.5 0.5  1 0.5 0.5  1.5 0.5 0.5  2 0.5 0.5  2.5 0.5 0.5  3 0.5 0.5  3.5 0.5 0.5  4 0.5 0.5  4.5 0.5 0.5  5 0.5 0.5  5.5 0.5 0.5  6 0.5 0.5  6.5 0.5 0.5  7 0.5 0.5  7.5 0.5 0.5  8 0.5 0.5  8.5 0.5 0.5  9 0.5 0.5  9.5 0.5 0.5  10 0.5 0.5  0 1 0.5  0.5 1 0.5  1 1 0.5  1.5 1 0.5  2 1 0.5  2.5 1 0.5  3 1 0.5  3.5 1 0.5  4 1 0.5  4.5 1 0.5  5 1 0.5  5.5 1 0.5  6 1 0.5  6.5 1 0.5  7 1 0.5  7.5 1 0.5  8 1 0.5  8.5 1 0.5  9 1 0.5  9.5 1 0.5  10 1 0.5  0 1.5 0.5  0.5 1.5 0.5  1 1.5 0.5  1.5 1.5 0.5  2 1.5 0.5  2.5 1.5 0.5  3 1.5 0.5  3.5 1.5 0.5  4 1.5 0.5  4.5 1.5 0.5  5 1.5 0.5  5.5 1.5 0.5  6 1.5 0.5  6.5 1.5 0.5  7 1.5 0.5  7.5 1.5 0.5  8 1.5 0.5  8.5 1.5 0.5  9 1.5 0.5  9.5 1.5 0.5  10 1.5 0.5  0 2 0.5  0.5 2 0.5  1 2 0.5  1.5 2 0.5  2 2 0.5  2.5 2 0.5  3 2 0.5  3.5 2 0.5  4 2 0.5  4.5 2 0.5  5 2 0.5  5.5 2 0.5  6 2 0.5  6.5 2 0.5  7 2 0.5  7.5 2 0.5  8 2 0.5  8.5 2 0.5  9 2 0.5  9.5 2 0.5  10 2 0.5  0 2.5 0.5  0.5 2.5 0.5  1 2.5 0.5  1.5 2.5 0.5  2 2.5 0.5  2.5 2.5 0.5  3 2.5 0.5  3.5 2.5 0.5  4 2.5 0.5  4.5 2.5 0.5  5 2.5 0.5  5.5 2.5 0.5  6 2.5 0.5  6.5 2.5 0.5  7 2.5 0.5  7.5 2.5 0.5  8 2.5 0.5  8.5 2.5 0.5  9 2.5 0.5  9.5 2.5 0.5  10 2.5 0.5  0 3 0.5  0.5 3 0.5  1 3 0.5  1.5 3 0.5  2 3 0.5  2.5 3 0.5  3 3 0.5  3.5 3 0.5  4 3 0.5  4.5 3 0.5  5 3 0.5  5.5 3 0.5  6 3 0.5  6.5 3 0.5  7 3 0.5  7.5 3 0.5  8 3 0.5  8.5 3 0.5  9 3 0.5  9.5 3 0.5  10 3 0.5  </DataArray>
</Points>
<Cells>
[...]
<PointData  Vectors="f_7-0"> 
<DataArray  type="Float64"  Name="f_7-0"  NumberOfComponents="3" format="ascii">0.0000000000000000e+00 0.0000000000000000e+00 0.0000000000000000e+00  1.8763095279826564e-01 1.5987158355069112e-01 2.9633931317412512e-02  3.5830587891786503e-01 3.0147015073392935e-01 2.8494982118307699e-02  5.4610719767896487e-01 4.1025081857670764e-01 3.1198803090978840e-02  8.0442810862142433e-01 4.5767516966627753e-01 3.2272045733668972e-02  1.1072480448196473e+00 4.5799450207014303e-01 3.1399741197740763e-02  1.4188607985230861e+00 4.5044262273484076e-01 3.0431768327301895e-02  1.7264634079964596e+00 4.4900517553003555e-01 3.0380690175399603e-02  2.0314826398668231e+00 4.5039399842158723e-01 3.0542867260698832e-02  2.3365038862017160e+00 4.5144591038292142e-01 3.0596151467140894e-02  2.6420366389045449e+00 4.5177774009140270e-01 3.0588492016926230e-02  2.9478141402429974e+00 4.5181355368102227e-01 3.0578417039328138e-02  3.2536235292528612e+00 4.5181963367988048e-01 3.0577339952277460e-02  3.5594149370015224e+00 4.5184592135470625e-01 3.0578959417465992e-02  3.8652011614475490e+00 4.5187314878825519e-01 3.0579635478235646e-02  4.1709933878566385e+00 4.5188942685006278e-01 3.0579369876418780e-02  4.4767917211623942e+00 4.5189675787105088e-01 3.0578922914536389e-02  4.7825929356712225e+00 4.5190000853225554e-01 3.0578643072952459e-02  5.0883950505773390e+00 4.5190178712435558e-01 3.0578524327618060e-02  5.3941974576073282e+00 4.5190280626305962e-01 3.0578484585324861e-02  5.7000000000000020e+00 4.5190314317813585e-01 3.0578478506186176e-02  0.0000000000000000e+00 0.0000000000000000e+00 0.0000000000000000e+00  9.2678504703716927e-02 5.9169788763024776e-02 3.2518283577424062e-02  2.7813239387010119e-01 2.1809789754038003e-01 3.2624728763331966e-02  5.1116100772597883e-01 3.0484348312556042e-01 3.3003161895021886e-02  8.0143035544348018e-01 3.2649653690590452e-01 3.1010002641980092e-02  1.1116083499359561e+00 3.1900188678975844e-01 2.9770412709877906e-02  1.4203078973785581e+00 3.1378943564908962e-01 3.0376482044403436e-02  1.7258517901015844e+00 3.1434271170957379e-01 3.0616684509057478e-02  2.0308593155801158e+00 3.1588891456058088e-01 3.0545958149516043e-02  2.3362788383969710e+00 3.1661951789893228e-01 3.0494782950039778e-02  2.6420076421493559e+00 3.1676933939628288e-01 3.0479947911915359e-02  2.9478150403101226e+00 3.1677297988794095e-01 3.0481795009310326e-02  3.2536128543281175e+00 3.1679029926692504e-01 3.0485059952276392e-02  3.5594008901080034e+00 3.1682190554046585e-01 3.0485897695852283e-02  3.8651919777447290e+00 3.1684606227993295e-01 3.0485500694861459e-02  4.1709891511064683e+00 3.1685830702789247e-01 3.0485061729357103e-02  4.4767899179289579e+00 3.1686356600150756e-01 3.0484868096236847e-02  4.7825919833225248e+00 3.1686614712055639e-01 3.0484805419198662e-02  5.0883944637234135e+00 3.1686771448562145e-01 3.0484772588800516e-02  5.3941971668795050e+00 3.1686861700433105e-01 3.0484748186809751e-02  5.7000000000000020e+00 3.1686891349830348e-01 3.0484738083959583e-02  0.0000000000000000e+00 0.0000000000000000e+00 0.0000000000000000e+00  3.4476774429566301e-02 1.0245193307048558e-02 2.5399935421787933e-02  2.1365916392184756e-01 1.2269926730681245e-01 3.3727402642054004e-02  4.9026994410215502e-01 1.8049637093033247e-01 3.1976174528371384e-02  8.0264257842689113e-01 1.8657266670486797e-01 2.7987747160440293e-02  1.1150863376781779e+00 1.8064521114007231e-01 2.9225361019237447e-02  1.4207925341348497e+00 1.7896243212205140e-01 3.0642798071662449e-02  1.7251659732835363e+00 1.8001554562487901e-01 3.0652034067360653e-02  2.0303686149516800e+00 1.8114935134265342e-01 3.0469613441275453e-02  2.3361299505159692e+00 1.8161967622648617e-01 3.0388622437814632e-02  2.6419921017742305e+00 1.8171635136748471e-01 3.0380098476030598e-02  2.9478106458005060e+00 1.8173639964708604e-01 3.0388928736866196e-02  3.2535992988196960e+00 1.8176563714575036e-01 3.0392738224090974e-02  3.5593877828142002e+00 1.8179602847136264e-01 3.0392285509782686e-02  3.8651843793223826e+00 1.8181560370569902e-01 3.0391248631938768e-02  4.1709857524179652e+00 1.8182518648068710e-01 3.0390882480088702e-02  4.4767883741090175e+00 1.8182962502801173e-01 3.0390924321451081e-02  4.7825911043090112e+00 1.8183201768275423e-01 3.0391001481215471e-02  5.0883939238749560e+00 1.8183346568958084e-01 3.0391017027050667e-02  5.3941969060439652e+00 1.8183426003700037e-01 3.0391003422367880e-02  5.7000000000000020e+00 1.8183451253580765e-01 3.0390995128974450e-02  0.0000000000000000e+00 0.0000000000000000e+00 0.0000000000000000e+00  2.3556141378820370e-02 1.0690172074756584e-02 1.9033675981379561e-02  1.7282291085789286e-01 1.1040661565104809e-02 3.9287298009736946e-02  4.8149511494363606e-01 3.9231348015024613e-02 2.5812889163046897e-02  8.0443988746198858e-01 4.2072648008916969e-02 2.7088811284866766e-02  1.1157884579377244e+00 4.3757761814743952e-02 2.9926467840505538e-02  1.4205502914164527e+00 4.5092835179639711e-02 3.0624212329199648e-02  1.7247238685063875e+00 4.5790659210212255e-02 3.0540501185638089e-02  2.0300869603133309e+00 4.6231159122183473e-02 3.0364569129917432e-02  2.3360252078491643e+00 4.6498939135418860e-02 3.0286704867555629e-02  2.6419614154610915e+00 4.6632351402515419e-02 3.0285758674109372e-02  2.9477935284430350e+00 4.6700912458424192e-02 3.0295949595612964e-02  3.2535841282320197e+00 4.6742067955274719e-02 3.0299036040470868e-02  3.5593769803429907e+00 4.6767427040522343e-02 3.0298071555085439e-02  3.8651783517108740e+00 4.6782190100485524e-02 3.0297064504519269e-02  4.1709827434916926e+00 4.6790443177999859e-02 3.0296907979877122e-02  4.4767868091142535e+00 4.6795032001447565e-02 3.0297087294663530e-02  4.7825902105193929e+00 4.6797605424995288e-02 3.0297221422139951e-02  5.0883934173602405e+00 4.6799028989459118e-02 3.0297258990316552e-02  5.3941966761910640e+00 4.6799742708665368e-02 3.0297255590018318e-02  5.7000000000000020e+00 4.6799960235367803e-02 3.0297251282405978e-02  0.0000000000000000e+00 0.0000000000000000e+00 0.0000000000000000e+00  3.9653657956072598e-02 1.5656763602165298e-03 2.7723460361732719e-02  1.8987095403288998e-01 -7.8911334938906147e-02 3.8123779781639701e-02  4.7925240540451874e-01 -1.1414123873231499e-01 2.4553065709102293e-02  8.0220439086134976e-01 -1.0189439346171977e-01 2.8651760782028739e-02  1.1138256283764307e+00 -9.2779844440720849e-02 3.0038549580021143e-02  1.4197988310016680e+00 -8.8992117387885164e-02 3.0399625487680122e-02  1.7246227376529972e+00 -8.8538709178315134e-02 3.0375952776797582e-02  2.0300319714761135e+00 -8.8738912824720767e-02 3.0247948199091528e-02  2.3359426742722955e+00 -8.8662464966036081e-02 3.0189794031051459e-02  2.6418991995119621e+00 -8.8472227888341914e-02 3.0191025981149425e-02  2.9477595454654146e+00 -8.8342939755530842e-02 3.0200471802778538e-02  3.2535678530895353e+00 -8.8286179719377605e-02 3.0203851640731898e-02  3.5593688130325738e+00 -8.8264431969530016e-02 3.0203574278568200e-02  3.8651735640316351e+00 -8.8253261138016723e-02 3.0203090218629072e-02  4.1709797422037589e+00 -8.8245438732486123e-02 3.0203121139977078e-02  4.4767850213182578e+00 -8.8240181122474379e-02 3.0203323949257489e-02  4.7825892286030456e+00 -8.8237159587827643e-02 3.0203457815592534e-02  5.0883929191686859e+00 -8.8235626150107341e-02 3.0203502809144391e-02  5.3941964679511383e+00 -8.8234927985844966e-02 3.0203508728216814e-02  5.7000000000000020e+00 -8.8234726385534618e-02 3.0203507753250151e-02  0.0000000000000000e+00 0.0000000000000000e+00 0.0000000000000000e+00  8.0017859143806311e-02 -3.6008249985565580e-02 3.5126119053551931e-02  2.6134286434100945e-01 -1.6871638968603520e-01 2.9219838049292086e-02  4.8646912490215782e-01 -2.5139772070136829e-01 3.1733165875804679e-02  7.9564520946747652e-01 -2.4555712581992781e-01 2.8722002360381721e-02  1.1097792749933384e+00 -2.3046458098852693e-01 2.9936809279438075e-02  1.4185762947168630e+00 -2.2414258891624886e-01 3.0092231808902643e-02  1.7246977664222127e+00 -2.2317453080013078e-01 3.0156551448011066e-02  2.0301610311726543e+00 -2.2364722369105547e-01 3.0122956783990833e-02  2.3358898031292687e+00 -2.2378134467842739e-01 3.0094956434589402e-02  2.6418082587890872e+00 -2.2358803261124571e-01 3.0094004897675053e-02  2.9477074659643634e+00 -2.2340665729848100e-01 3.0102641139909146e-02  3.2535486921728305e+00 -2.2332542669806368e-01 3.0107653064927350e-02  3.5593620991556727e+00 -2.2330000095258656e-01 3.0109082441323966e-02  3.8651695204363423e+00 -2.2328982770053352e-01 3.0109355965249995e-02  4.1709765842080246e+00 -2.2328203912757244e-01 3.0109480828205613e-02  4.4767829263684611e+00 -2.2327603121953724e-01 3.0109613871074171e-02  4.7825880923870336e+00 -2.2327237168212982e-01 3.0109707537276122e-02  5.0883923850033055e+00 -2.2327054097921875e-01 3.0109749222081136e-02  5.3941962608141640e+00 -2.2326975182541955e-01 3.0109761415859158e-02  5.7000000000000020e+00 -2.2326953723205639e-01 3.0109763276010882e-02  0.0000000000000000e+00 0.0000000000000000e+00 0.0000000000000000e+00  1.6804887767801510e-01 -1.2608086990161155e-01 3.0745476938984197e-02  3.4156331354909369e-01 -2.5825579258582382e-01 2.5519205833195089e-02  5.1964108675548804e-01 -3.5498211693174980e-01 3.3376367627554929e-02  7.8812887773118334e-01 -3.8712332912026914e-01 3.0878393212588572e-02  1.1042291019094019e+00 -3.7022751062666492e-01 2.9121266858830520e-02  1.4166905936815517e+00 -3.6090355970760279e-01 2.9716969222312727e-02  1.7246225194644837e+00 -3.5831593002757195e-01 2.9920625777550693e-02  2.0303797591471286e+00 -3.5847672711412265e-01 2.9992515617593894e-02  2.3358909733160456e+00 -3.5879626230506156e-01 2.9993205425954492e-02  2.6417092147294565e+00 -3.5869950502142434e-01 2.9994211492924597e-02  2.9476388549243784e+00 -3.5849749583413648e-01 3.0004091531943760e-02  3.2535225583256642e+00 -3.5838139335158697e-01 3.0011643206798274e-02  3.5593542906909832e+00 -3.5834047700106214e-01 3.0014957005538866e-02  3.8651655942028178e+00 -3.5832715530353043e-01 3.0015830658284320e-02  4.1709732873819307e+00 -3.5831909293717928e-01 3.0015928939947277e-02  4.4767805344746909e+00 -3.5831252647524586e-01 3.0015937996251463e-02  4.7825867390607462e+00 -3.5830811337540203e-01 3.0015968320561404e-02  5.0883917529314084e+00 -3.5830576450870066e-01 3.0015997036830774e-02  5.3941960235084858e+00 -3.5830474419479175e-01 3.0016011176229197e-02  5.7000000000000020e+00 -3.5830447057711212e-01 3.0016015434611926e-02  0.0000000000000000e+00 0.0000000000000000e+00 0.0000000000000000e+00  1.8774131240276540e-01 1.5978936520615677e-01 1.8465442279996084e-02  3.5815247815177731e-01 3.0095417927862311e-01 1.6369360084243372e-02  5.4702327371158821e-01 4.0953244439285491e-01 1.7549948641752543e-02  8.0467538893786006e-01 4.5767182337048157e-01 1.9059043814214131e-02  1.1070059900769700e+00 4.5846412631198169e-01 1.8647432630515506e-02  1.4187597588009400e+00 4.5054768220268887e-01 1.7639836677610290e-02  1.7264838347963485e+00 4.4895581027996601e-01 1.7442619775237735e-02  2.0315013956568215e+00 4.5038406412884430e-01 1.7578883375867847e-02  2.3365085303213551e+00 4.5146560177713924e-01 1.7650411761214582e-02  2.6420360942877967e+00 4.5180293812619648e-01 1.7655251483329019e-02  2.9478132697381745e+00 4.5183700645810854e-01 1.7648157297070522e-02  3.2536232874209752e+00 4.5184190840690874e-01 1.7646596538304339e-02  3.5594149938818993e+00 4.5186813186202196e-01 1.7647791826425559e-02  3.8652012226747052e+00 4.5189554722802705e-01 1.7648580658510389e-02  4.1709933969312001e+00 4.5191189238354373e-01 1.7648552997763776e-02  4.4767917130748280e+00 4.5191918859467428e-01 1.7648244899671994e-02  4.7825929327306644e+00 4.5192239432856918e-01 1.7648013118528403e-02  5.0883950528775603e+00 4.5192415183323059e-01 1.7647908419739494e-02  5.3941974600811982e+00 4.5192516687104745e-01 1.7647874890684735e-02  5.7000000000000020e+00 4.5192550595115139e-01 1.7647870477546217e-02  0.0000000000000000e+00 0.0000000000000000e+00 0.0000000000000000e+00  9.3962177176216660e-02 6.1914693474422945e-02 1.9489066147497323e-02  2.7867530733935725e-01 2.1748834942163670e-01 1.9094643046716240e-02  5.1164883854095555e-01 3.0455867104221446e-01 1.9263714718351102e-02  8.0132994030643057e-01 3.2689707714636840e-01 1.8103918036659315e-02  1.1115695114196229e+00 3.1915110003007124e-01 1.7158080451018579e-02  1.4203495181080759e+00 3.1375158935316655e-01 1.7500294492430297e-02  1.7258555917810352e+00 3.1433261196337281e-01 1.7641043367917601e-02  2.0308558055638359e+00 3.1590406233606483e-01 1.7588707613054342e-02  2.3362787248174239e+00 3.1664235965014664e-01 1.7558095820722538e-02  2.6420085805611127e+00 3.1679197850314039e-01 1.7550108039449161e-02  2.9478154891744381e+00 3.1679494316626844e-01 1.7551803917175594e-02  3.2536128619227545e+00 3.1681237996773298e-01 1.7554060485868647e-02  3.5594008115575555e+00 3.1684426494494528e-01 1.7554726278891375e-02  3.8651919471419354e+00 3.1686852949901023e-01 1.7554580712453798e-02  4.1709891596716133e+00 3.1688075200072674e-01 1.7554350427122230e-02  4.4767899349482123e+00 3.1688596451975942e-01 1.7554236124189469e-02  4.7825919950874365e+00 3.1688851909778792e-01 1.7554191357268469e-02  5.0883944696835188e+00 3.1689007778160727e-01 1.7554164983368082e-02  5.3941971693455111e+00 3.1689097903552865e-01 1.7554146385485640e-02  5.7000000000000020e+00 3.1689127599950090e-01 1.7554139114271661e-02  0.0000000000000000e+00 0.0000000000000000e+00 0.0000000000000000e+00  3.2899858938327822e-02 1.1031450845447814e-02 1.4720545947993914e-02  2.1619497523591991e-01 1.2431887741920501e-01 1.9518846304203103e-02  4.9039862346361357e-01 1.8107852347455439e-01 1.8647799640341897e-02  8.0269111779323565e-01 1.8674674569929034e-01 1.5916602056969983e-02  1.1152382193140991e+00 1.8048030920135666e-01 1.6629864572567325e-02  1.4208097904965129e+00 1.7894891829374099e-01 1.7634805053862567e-02  1.7251516255146178e+00 1.8004637826126110e-01 1.7650127404847265e-02  2.0303643760382251e+00 1.8117590709208142e-01 1.7523331666575683e-02  2.3361316536505945e+00 1.8164113749293354e-01 1.7462251579707887e-02  2.6419938007052353e+00 1.8173714547631240e-01 1.7453455704994559e-02  2.9478110709121479e+00 1.8175809950416205e-01 1.7458848073786077e-02  3.2535991465818981e+00 1.8178797543539515e-01 1.7461389726294269e-02  3.5593876290406645e+00 1.8181852924808220e-01 1.7461150342070766e-02  3.8651843442815346e+00 1.8183805977964435e-01 1.7460501500298212e-02  4.1709857731947579e+00 1.8184758339094534e-01 1.7460285431472187e-02  4.4767883966269695e+00 1.8185199708325464e-01 1.7460335379002892e-02  4.7825911159490406e+00 1.8185438389413394e-01 1.7460400825406362e-02  5.0883939288034661e+00 1.8185583011669476e-01 1.7460417376371485e-02  5.3941969082536172e+00 1.8185662320778437e-01 1.7460409980112692e-02  5.7000000000000020e+00 1.8185687515695220e-01 1.7460404666637321e-02  0.0000000000000000e+00 0.0000000000000000e+00 0.0000000000000000e+00  2.2846880927222958e-02 9.8475432700592409e-03 1.1087705416275096e-02  1.7269084264792764e-01 1.0864261507324863e-02 2.2761332376248708e-02  4.8200665811374305e-01 4.0090243796895922e-02 1.4549517222128329e-02  8.0489150639143814e-01 4.1645048504417526e-02 1.5216742166566500e-02  1.1158529940328936e+00 4.3630362667804103e-02 1.7132681988449503e-02  1.4205214626380986e+00 4.5121711331483093e-02 1.7594033723124018e-02  1.7247097331860917e+00 4.5839015713107223e-02 1.7542209680756319e-02  2.0300889915438001e+00 4.6259949911108149e-02 1.7425126218335033e-02  2.3360290394069239e+00 4.6519725311931145e-02 1.7365465578341635e-02  2.6419626663713163e+00 4.6653180648663431e-02 1.7360681583973449e-02  2.9477933439784865e+00 4.6723051551636210e-02 1.7365961194267775e-02  3.2535837696481020e+00 4.6764685381402174e-02 1.7367708769753441e-02  3.5593768282802989e+00 4.6789974691332635e-02 1.7367096515600890e-02  3.8651783429357192e+00 4.6804599834930953e-02 1.7366467552504886e-02  4.1709827668765556e+00 4.6812800335293517e-02 1.7366391436579930e-02  4.4767868232983901e+00 4.6817388986751286e-02 1.7366532549004263e-02  4.7825902159700098e+00 4.6819969089026817e-02 1.7366636979981281e-02  5.0883934200719620e+00 4.6821393819432476e-02 1.7366670057594819e-02  5.3941966779360682e+00 4.6822106290997353e-02 1.7366670880612872e-02  5.7000000000000020e+00 4.6822322887223669e-02 1.7366668635059326e-02  0.0000000000000000e+00 0.0000000000000000e+00 0.0000000000000000e+00  3.8462708469979352e-02 -2.1637398085119058e-05 1.5997947932570866e-02  1.9000533209916110e-01 -7.7963574852983428e-02 2.2144269813203814e-02  4.8065270789994963e-01 -1.1515151856944286e-01 1.3465866010188633e-02  8.0256991178981807e-01 -1.0207649636957306e-01 1.6419277385371162e-02  1.1138018866654280e+00 -9.2818113140569300e-02 1.7224458262447909e-02  1.4197537541418890e+00 -8.8929440946320479e-02 1.7427588273623111e-02  1.7246118430790940e+00 -8.8490573562497107e-02 1.7399711754949657e-02  2.0300385030008616e+00 -8.8710817041876805e-02 1.7308520044102858e-02  2.3359474253255614e+00 -8.8640599649357277e-02 1.7267430738616817e-02  2.6418998891929033e+00 -8.8450137324730879e-02 1.7266262088937414e-02  2.9477588518706543e+00 -8.8320180353642280e-02 1.7271128404110821e-02  3.2535673506557723e+00 -8.8263428668282892e-02 1.7273010517340908e-02  3.5593686778550846e+00 -8.8241935094859850e-02 1.7272839984030872e-02  3.8651735740803566e+00 -8.8230909653862294e-02 1.7272585231182361e-02  4.1709797611224886e+00 -8.8223107360601100e-02 1.7272647431624540e-02  4.4767850255951096e+00 -8.8217831722865056e-02 1.7272799582744146e-02  4.7825892282833564e+00 -8.8214798170287198e-02 1.7272895165019293e-02  5.0883929198819882e+00 -8.8213262110933943e-02 1.7272927687162737e-02  5.3941964691338056e+00 -8.8212564392612658e-02 1.7272932569049108e-02  5.7000000000000020e+00 -8.8212363529761917e-02 1.7272932179493404e-02  0.0000000000000000e+00 0.0000000000000000e+00 0.0000000000000000e+00  7.9845917390573382e-02 -3.6502761224303397e-02 2.0392868692491184e-02  2.6239564398793758e-01 -1.6929667816784499e-01 1.6827004305969669e-02  4.8725601698705073e-01 -2.5214535600108823e-01 1.8363082963402513e-02  7.9603668756123269e-01 -2.4551518823590313e-01 1.6510989575311975e-02  1.1097707261944814e+00 -2.3034942627488164e-01 1.7157700281150573e-02  1.4185219981104791e+00 -2.2407201961080839e-01 1.7211866064810080e-02  1.7246911275291208e+00 -2.2313215179018611e-01 1.7212511983672196e-02  2.0301677861663805e+00 -2.2362030547670522e-01 1.7180932281544891e-02  2.3358944916168127e+00 -2.2375743225750053e-01 1.7167066628117261e-02  2.6418087926817182e+00 -2.2356427512109844e-01 1.7168450225266862e-02  2.9477066098977991e+00 -2.2338337421472804e-01 1.7174404860558958e-02  3.2535481428871558e+00 -2.2330272887483338e-01 1.7177668290234822e-02  3.5593619644449728e+00 -2.2327763201565079e-01 1.7178640446843980e-02  3.8651695259741277e+00 -2.2326753550400327e-01 1.7178899391700444e-02  4.1709765934267518e+00 -2.2325972287092552e-01 1.7179025094825048e-02  4.4767829232629532e+00 -2.2325368554246197e-01 1.7179118088346577e-02  4.7825880882691276e+00 -2.2325001259871471e-01 1.7179170775500584e-02  5.0883923840610708e+00 -2.2324817822679208e-01 1.7179189938641978e-02  5.3941962613213601e+00 -2.2324738825571280e-01 1.7179193940027915e-02  5.7000000000000020e+00 -2.2324717375384628e-01 1.7179194337011646e-02  0.0000000000000000e+00 0.0000000000000000e+00 0.0000000000000000e+00  1.6694718421926072e-01 -1.2649634912429653e-01 1.9247205503102317e-02  3.4300501364206903e-01 -2.5926866533901038e-01 1.5185922263863703e-02  5.2021689511069635e-01 -3.5511201135233289e-01 1.9694760082570487e-02  7.8819134025017812e-01 -3.8739509400453909e-01 1.8020573163215751e-02  1.1042361132527501e+00 -3.6997338720943518e-01 1.6581164169117032e-02  1.4166602191390514e+00 -3.6082989959301864e-01 1.6928760507658232e-02  1.7246195249818446e+00 -3.5828485529201293e-01 1.7007301261677463e-02  2.0303878250792162e+00 -3.5845054785231095e-01 1.7048047223654467e-02  2.3358961597306274e+00 -3.5876982815784103e