<?xml version="1.0"?>
<VTKFile type="UnstructuredGrid"  version="0.1"  >
<UnstructuredGrid>
<Piece  NumberOfPoints="2976" NumberOfCells="13500">
<Points>
<DataArray  type="Float64"  NumberOfComponents="3"  format="ascii">0 0 0  0.3333333333333333 0 0  0.6666666666666666 0 0  1 0 0  1.333333333333333 0 0  1.666666666666667 0 0  2 0 0  2.333333333333333 0 0  2.666666666666667 0 0  3 0 0  3.333333333333333 0 0  3.666666666666667 0 0  4 0 0  4.333333333333333 0 0  4.666666666666667 0 0  5 0 0  5.333333333333333 0 0  5.666666666666667 0 0  6 0 0  6.333333333333333 0 0  6.666666666666667 0 0  7 0 0  7.333333333333333 0 0  7.666666666666667 0 0  8 0 0  8.333333333333334 0 0  8.666666666666666 0 0  9 0 0  9.333333333333334 0 0  9.666666666666666 0 0  10 0 0  0 0.2 0  0.3333333333333333 0.2 0  0.6666666666666666 0.2 0  1 0.2 0  1.333333333333333 0.2 0  1.666666666666667 0.2 0  2 0.2 0  2.333333333333333 0.2 0  2.666666666666667 0.2 0  3 0.2 0  3.333333333333333 0.2 0  3.666666666666667 0.2 0  4 0.2 0  4.333333333333333 0.2 0  4.666666666666667 0.2 0  5 0.2 0  5.333333333333333 0.2 0  5.666666666666667 0.2 0  6 0.2 0  6.333333333333333 0.2 0  6.666666666666667 0.2 0  7 0.2 0  7.333333333333333 0.2 0  7.666666666666667 0.2 0  8 0.2 0  8.333333333333334 0.2 0  8.666666666666666 0.2 0  9 0.2 0  9.333333333333334 0.2 0  9.666666666666666 0.2 0  10 0.2 0  0 0.4 0  0.3333333333333333 0.4 0  0.6666666666666666 0.4 0  1 0.4 0  1.333333333333333 0.4 0  1.666666666666667 0.4 0  2 0.4 0  2.333333333333333 0.4 0  2.666666666666667 0.4 0  3 0.4 0  3.333333333333333 0.4 0  3.666666666666667 0.4 0  4 0.4 0  4.333333333333333 0.4 0  4.666666666666667 0.4 0  5 0.4 0  5.333333333333333 0.4 0  5.666666666666667 0.4 0  6 0.4 0  6.333333333333333 0.4 0  6.666666666666667 0.4 0  7 0.4 0  7.333333333333333 0.4 0  7.666666666666667 0.4 0  8 0.4 0  8.333333333333334 0.4 0  8.666666666666666 0.4 0  9 0.4 0  9.333333333333334 0.4 0  9.666666666666666 0.4 0  10 0.4 0  0 0.6 0  0.3333333333333333 0.6 0  0.6666666666666666 0.6 0  1 0.6 0  1.333333333333333 0.6 0  1.666666666666667 0.6 0  2 0.6 0  2.333333333333333 0.6 0  2.666666666666667 0.6 0  3 0.6 0  3.333333333333333 0.6 0  3.666666666666667 0.6 0  4 0.6 0  4.333333333333333 0.6 0  4.666666666666667 0.6 0  5 0.6 0  5.333333333333333 0.6 0  5.666666666666667 0.6 0  6 0.6 0  6.333333333333333 0.6 0  6.666666666666667 0.6 0  7 0.6 0  7.333333333333333 0.6 0  7.666666666666667 0.6 0  8 0.6 0  8.333333333333334 0.6 0  8.666666666666666 0.6 0  9 0.6 0  9.333333333333334 0.6 0  9.666666666666666 0.6 0  10 0.6 0  0 0.8 0  0.3333333333333333 0.8 0  0.6666666666666666 0.8 0  1 0.8 0  1.333333333333333 0.8 0  1.666666666666667 0.8 0  2 0.8 0  2.333333333333333 0.8 0  2.666666666666667 0.8 0  3 0.8 0  3.333333333333333 0.8 0  3.666666666666667 0.8 0  4 0.8 0  4.333333333333333 0.8 0  4.666666666666667 0.8 0  5 0.8 0  5.333333333333333 0.8 0  5.666666666666667 0.8 0  6 0.8 0  6.333333333333333 0.8 0  6.666666666666667 0.8 0  7 0.8 0  7.333333333333333 0.8 0  7.666666666666667 0.8 0  8 0.8 0  8.333333333333334 0.8 0  8.666666666666666 0.8 0  9 0.8 0  9.333333333333334 0.8 0  9.666666666666666 0.8 0  10 0.8 0  0 1 0  0.3333333333333333 1 0  0.6666666666666666 1 0  1 1 0  1.333333333333333 1 0  1.666666666666667 1 0  2 1 0  2.333333333333333 1 0  2.666666666666667 1 0  3 1 0  3.333333333333333 1 0  3.666666666666667 1 0  4 1 0  4.333333333333333 1 0  4.666666666666667 1 0  5 1 0  5.333333333333333 1 0  5.666666666666667 1 0  6 1 0  6.333333333333333 1 0  6.666666666666667 1 0  7 1 0  7.333333333333333 1 0  7.666666666666667 1 0  8 1 0  8.333333333333334 1 0  8.666666666666666 1 0  9 1 0  9.333333333333334 1 0  9.666666666666666 1 0  10 1 0  0 1.2 0  0.3333333333333333 1.2 0  0.6666666666666666 1.2 0  1 1.2 0  1.333333333333333 1.2 0  1.666666666666667 1.2 0  2 1.2 0  2.333333333333333 1.2 0  2.666666666666667 1.2 0  3 1.2 0  3.333333333333333 1.2 0  3.666666666666667 1.2 0  4 1.2 0  4.333333333333333 1.2 0  4.666666666666667 1.2 0  5 1.2 0  5.333333333333333 1.2 0  5.666666666666667 1.2 0  6 1.2 0  6.333333333333333 1.2 0  6.666666666666667 1.2 0  7 1.2 0  7.333333333333333 1.2 0  7.666666666666667 1.2 0  8 1.2 0  8.333333333333334 1.2 0  8.666666666666666 1.2 0  9 1.2 0  9.333333333333334 1.2 0  9.666666666666666 1.2 0  10 1.2 0  0 1.4 0  0.3333333333333333 1.4 0  0.6666666666666666 1.4 0  1 1.4 0  1.333333333333333 1.4 0  1.666666666666667 1.4 0  2 1.4 0  2.333333333333333 1.4 0  2.666666666666667 1.4 0  3 1.4 0  3.333333333333333 1.4 0  3.666666666666667 1.4 0  4 1.4 0  4.333333333333333 1.4 0  4.666666666666667 1.4 0  5 1.4 0  5.333333333333333 1.4 0  5.666666666666667 1.4 0  6 1.4 0  6.333333333333333 1.4 0  6.666666666666667 1.4 0  7 1.4 0  7.333333333333333 1.4 0  7.666666666666667 1.4 0  8 1.4 0  8.333333333333334 1.4 0  8.666666666666666 1.4 0  9 1.4 0  9.333333333333334 1.4 0  9.666666666666666 1.4 0  10 1.4 0  0 1.6 0  0.3333333333333333 1.6 0  0.6666666666666666 1.6 0  1 1.6 0  1.333333333333333 1.6 0  1.666666666666667 1.6 0  2 1.6 0  2.333333333333333 1.6 0  2.666666666666667 1.6 0  3 1.6 0  3.333333333333333 1.6 0  3.666666666666667 1.6 0  4 1.6 0  4.333333333333333 1.6 0  4.666666666666667 1.6 0  5 1.6 0  5.333333333333333 1.6 0  5.666666666666667 1.6 0  6 1.6 0  6.333333333333333 1.6 0  6.666666666666667 1.6 0  7 1.6 0  7.333333333333333 1.6 0  7.666666666666667 1.6 0  8 1.6 0  8.333333333333334 1.6 0  8.666666666666666 1.6 0  9 1.6 0  9.333333333333334 1.6 0  9.666666666666666 1.6 0  10 1.6 0  0 1.8 0  0.3333333333333333 1.8 0  0.6666666666666666 1.8 0  1 1.8 0  1.333333333333333 1.8 0  1.666666666666667 1.8 0  2 1.8 0  2.333333333333333 1.8 0  2.666666666666667 1.8 0  3 1.8 0  3.333333333333333 1.8 0  3.666666666666667 1.8 0  4 1.8 0  4.333333333333333 1.8 0  4.666666666666667 1.8 0  5 1.8 0  5.333333333333333 1.8 0  5.666666666666667 1.8 0  6 1.8 0  6.333333333333333 1.8 0  6.666666666666667 1.8 0  7 1.8 0  7.333333333333333 1.8 0  7.666666666666667 1.8 0  8 1.8 0  8.333333333333334 1.8 0  8.666666666666666 1.8 0  9 1.8 0  9.333333333333334 1.8 0  9.666666666666666 1.8 0  10 1.8 0  0 2 0  0.3333333333333333 2 0  0.6666666666666666 2 0  1 2 0  1.333333333333333 2 0  1.666666666666667 2 0  2 2 0  2.333333333333333 2 0  2.666666666666667 2 0  3 2 0  3.333333333333333 2 0  3.666666666666667 2 0  4 2 0  4.333333333333333 2 0  4.666666666666667 2 0  5 2 0  5.333333333333333 2 0  5.666666666666667 2 0  6 2 0  6.333333333333333 2 0  6.666666666666667 2 0  7 2 0  7.333333333333333 2 0  7.666666666666667 2 0  8 2 0  8.333333333333334 2 0  8.666666666666666 2 0  9 2 0  9.333333333333334 2 0  9.666666666666666 2 0  10 2 0  0 2.2 0  0.3333333333333333 2.2 0  0.6666666666666666 2.2 0  1 2.2 0  1.333333333333333 2.2 0  1.666666666666667 2.2 0  2 2.2 0  2.333333333333333 2.2 0  2.666666666666667 2.2 0  3 2.2 0  3.333333333333333 2.2 0  3.666666666666667 2.2 0  4 2.2 0  4.333333333333333 2.2 0  4.666666666666667 2.2 0  5 2.2 0  5.333333333333333 2.2 0  5.666666666666667 2.2 0  6 2.2 0  6.333333333333333 2.2 0  6.666666666666667 2.2 0  7 2.2 0  7.333333333333333 2.2 0  7.666666666666667 2.2 0  8 2.2 0  8.333333333333334 2.2 0  8.666666666666666 2.2 0  9 2.2 0  9.333333333333334 2.2 0  9.666666666666666 2.2 0  10 2.2 0  0 2.4 0  0.3333333333333333 2.4 0  0.6666666666666666 2.4 0  1 2.4 0  1.333333333333333 2.4 0  1.666666666666667 2.4 0  2 2.4 0  2.333333333333333 2.4 0  2.666666666666667 2.4 0  3 2.4 0  3.333333333333333 2.4 0  3.666666666666667 2.4 0  4 2.4 0  4.333333333333333 2.4 0  4.666666666666667 2.4 0  5 2.4 0  5.333333333333333 2.4 0  5.666666666666667 2.4 0  6 2.4 0  6.333333333333333 2.4 0  6.666666666666667 2.4 0  7 2.4 0  7.333333333333333 2.4 0  7.666666666666667 2.4 0  8 2.4 0  8.333333333333334 2.4 0  8.666666666666666 2.4 0  9 2.4 0  9.333333333333334 2.4 0  9.666666666666666 2.4 0  10 2.4 0  0 2.6 0  0.3333333333333333 2.6 0  0.6666666666666666 2.6 0  1 2.6 0  1.333333333333333 2.6 0  1.666666666666667 2.6 0  2 2.6 0  2.333333333333333 2.6 0  2.666666666666667 2.6 0  3 2.6 0  3.333333333333333 2.6 0  3.666666666666667 2.6 0  4 2.6 0  4.333333333333333 2.6 0  4.666666666666667 2.6 0  5 2.6 0  5.333333333333333 2.6 0  5.666666666666667 2.6 0  6 2.6 0  6.333333333333333 2.6 0  6.666666666666667 2.6 0  7 2.6 0  7.333333333333333 2.6 0  7.666666666666667 2.6 0  8 2.6 0  8.333333333333334 2.6 0  8.666666666666666 2.6 0  9 2.6 0  9.333333333333334 2.6 0  9.666666666666666 2.6 0  10 2.6 0  0 2.8 0  0.3333333333333333 2.8 0  0.6666666666666666 2.8 0  1 2.8 0  1.333333333333333 2.8 0  1.666666666666667 2.8 0  2 2.8 0  2.333333333333333 2.8 0  2.666666666666667 2.8 0  3 2.8 0  3.333333333333333 2.8 0  3.666666666666667 2.8 0  4 2.8 0  4.333333333333333 2.8 0  4.666666666666667 2.8 0  5 2.8 0  5.333333333333333 2.8 0  5.666666666666667 2.8 0  6 2.8 0  6.333333333333333 2.8 0  6.666666666666667 2.8 0  7 2.8 0  7.333333333333333 2.8 0  7.666666666666667 2.8 0  8 2.8 0  8.333333333333334 2.8 0  8.666666666666666 2.8 0  9 2.8 0  9.333333333333334 2.8 0  9.666666666666666 2.8 0  10 2.8 0  0 3 0  0.3333333333333333 3 0  0.6666666666666666 3 0  1 3 0  1.333333333333333 3 0  1.666666666666667 3 0  2 3 0  2.333333333333333 3 0  2.666666666666667 3 0  3 3 0  3.333333333333333 3 0  3.666666666666667 3 0  4 3 0  4.333333333333333 3 0  4.666666666666667 3 0  5 3 0  5.333333333333333 3 0  5.666666666666667 3 0  6 3 0  6.333333333333333 3 0  6.666666666666667 3 0  7 3 0  7.333333333333333 3 0  7.666666666666667 3 0  8 3 0  8.333333333333334 3 0  8.666666666666666 3 0  9 3 0  9.333333333333334 3 0  9.666666666666666 3 0  10 3 0  0 0 0.1  0.3333333333333333 0 0.1  0.6666666666666666 0 0.1  1 0 0.1  1.333333333333333 0 0.1  1.666666666666667 0 0.1  2 0 0.1  2.333333333333333 0 0.1  2.666666666666667 0 0.1  3 0 0.1  3.333333333333333 0 0.1  3.666666666666667 0 0.1  4 0 0.1  4.333333333333333 0 0.1  4.666666666666667 0 0.1  5 0 0.1  5.333333333333333 0 0.1  5.666666666666667 0 0.1  6 0 0.1  6.333333333333333 0 0.1  6.666
[...]
<PointData  Vectors="f_7-0"> 
<DataArray  type="Float64"  Name="f_7-0"  NumberOfComponents="3" format="ascii">0.0000000000000000e+00 0.0000000000000000e+00 0.0000000000000000e+00  4.6878635144377963e-02 4.6252094852983532e-02 3.2129816272847911e-03  8.6647077026898181e-02 8.2162654765107840e-02 4.3292435316479340e-03  1.2299932050453394e-01 1.1213146482638249e-01 4.1295820425478894e-03  1.5836438402850203e-01 1.3909091395248779e-01 3.9513826900512278e-03  1.9369446761855255e-01 1.6330543791903562e-01 3.7942664948778632e-03  2.2980125103222365e-01 1.8445020026200734e-01 3.5737462257747926e-03  2.6850895631014110e-01 2.0092354578127447e-01 3.3602693705272278e-03  3.1235096437177234e-01 2.1070800328478631e-01 2.9968253802160304e-03  3.6210469647858967e-01 2.1365180734393324e-01 2.4557447107350877e-03  4.1606561958997446e-01 2.1212853457222652e-01 1.9907466411029579e-03  4.7182536218435733e-01 2.0912747064638823e-01 1.7786214337577096e-03  5.2777471011510746e-01 2.0645869781818282e-01 1.7747738275345488e-03  5.8326334506449495e-01 2.0468936878886795e-01 1.8612581677388725e-03  6.3815717785433657e-01 2.0380218323257882e-01 1.9605330270300674e-03  6.9251599103160488e-01 2.0360288177505248e-01 2.0411755113484515e-03  7.4647477032686693e-01 2.0385239687394480e-01 2.0949416620430900e-03  8.0019501835724061e-01 2.0431926659243305e-01 2.1232332354732685e-03  8.5382349339700658e-01 2.0482162800752388e-01 2.1318114235819564e-03  9.0746232944030825e-01 2.0525042835497503e-01 2.1280475424762550e-03  9.6116236639630304e-01 2.0556448945998937e-01 2.1187610765085016e-03  1.0149350969943678e+00 2.0576778316242006e-01 2.1088290349291824e-03  1.0687700545817544e+00 2.0588531648377878e-01 2.1008672800604841e-03  1.1226486413933738e+00 2.0594644549015037e-01 2.0957060951231794e-03  1.1765523266730666e+00 2.0597617306130980e-01 2.0931127608817433e-03  1.2304665090146731e+00 2.0599189929171216e-01 2.0923939977262923e-03  1.2843816704495108e+00 2.0600333652559560e-01 2.0927796951422531e-03  1.3382929611794816e+00 2.0601410312605511e-01 2.0936245136569031e-03  1.3921990284210306e+00 2.0602398393374774e-01 2.0944821045555538e-03  1.4461007080897033e+00 2.0603113440313725e-01 2.0950626600903617e-03  1.5000000000000000e+00 2.0603379599876565e-01 2.0952207132101876e-03  0.0000000000000000e+00 0.0000000000000000e+00 0.0000000000000000e+00  2.5836840433524477e-02 2.1793902042355422e-02 4.8083827607080876e-03  7.0577994500856250e-02 6.3293268963240973e-02 4.3739099911461084e-03  1.0884347222051954e-01 9.4931283567093447e-02 4.0202146243713266e-03  1.4560421390386977e-01 1.2230312145740321e-01 3.9875582206450955e-03  1.8234543482128615e-01 1.4651810427997469e-01 3.8046707163448194e-03  2.2051240692028801e-01 1.6688002154180323e-01 3.6418813919248528e-03  2.6251854399984131e-01 1.8120514451794545e-01 3.3149824155352964e-03  3.1007945523738362e-01 1.8788938298893351e-01 2.7268160750929136e-03  3.6245232807798494e-01 1.8819541838367462e-01 2.1279459772594791e-03  4.1743937907986639e-01 1.8534587030947294e-01 1.8129012901964765e-03  4.7317381501116174e-01 1.8208663624691671e-01 1.7691802830142511e-03  5.2872234986695210e-01 1.7964215184055418e-01 1.8368548834451816e-03  5.8378258931130000e-01 1.7821798640550632e-01 1.9266165972728233e-03  6.3832759089367541e-01 1.7765593861032919e-01 2.0097086038313133e-03  6.9244500187690439e-01 1.7770891463912375e-01 2.0732900533695260e-03  7.4627321018010573e-01 1.7811756025105085e-01 2.1120860935481289e-03  7.9995667651607250e-01 1.7865463806390747e-01 2.1281144301566772e-03  8.5360979419481864e-01 1.7916169447948130e-01 2.1281652470278838e-03  9.0730050767393988e-01 1.7955961991957309e-01 2.1200352275750692e-03  9.6105481554322914e-01 1.7983191195525730e-01 2.1097489153181514e-03  1.0148714804526693e+00 1.7999733808830926e-01 2.1007424596459923e-03  1.0687363974286419e+00 1.8008711865551813e-01 2.0943700463206746e-03  1.1226323221638386e+00 1.8013142065265220e-01 2.0907187037758003e-03  1.1765441211947198e+00 1.8015334272045538e-01 2.0892469395064764e-03  1.2304609223543068e+00 1.8016741659371396e-01 2.0892039569396169e-03  1.2843763433851725e+00 1.8018056796194512e-01 2.0898871574057194e-03  1.3382876604356033e+00 1.8019425434910039e-01 2.0907739062678799e-03  1.3921945875966746e+00 1.8020687543915576e-01 2.0915432762118680e-03  1.4460981633977639e+00 1.8021584782183361e-01 2.0920356813447219e-03  1.5000000000000000e+00 1.8021907018824887e-01 2.0922144664695195e-03  0.0000000000000000e+00 0.0000000000000000e+00 0.0000000000000000e+00  1.3135617742176139e-02 7.2170652733830774e-03 8.0463972773422016e-03  5.3589188770007325e-02 4.3144373991752610e-02 3.7473060441046385e-03  9.4488794883201888e-02 7.6877782160623964e-02 4.3055701119976558e-03  1.3286624437783329e-01 1.0489641486738738e-01 3.9855014264879116e-03  1.7121606767895178e-01 1.2892051776679356e-01 3.9047370321413284e-03  2.1191364563891918e-01 1.4791367599733218e-01 3.7033688926875912e-03  2.5763825423635262e-01 1.5950158982466001e-01 3.0944228621086122e-03  3.0878362827109362e-01 1.6328535718141002e-01 2.2509284543859179e-03  3.6330814763806885e-01 1.6179713417038366e-01 1.7071040366981290e-03  4.1893509533401785e-01 1.5839342888090191e-01 1.6356197168633851e-03  4.7446649999043311e-01 1.5523402218317173e-01 1.7704794765988534e-03  5.2956547871173354e-01 1.5308306147815787e-01 1.8997288995281350e-03  5.8419733266092166e-01 1.5196991514614203e-01 1.9933848519190708e-03  6.3841270678209916e-01 1.5167331025287764e-01 2.0636489543133952e-03  6.9231706158652917e-01 1.5191363265556526e-01 2.1107725386529065e-03  7.4604397077144613e-01 1.5242240390211104e-01 2.1328696412506766e-03  7.9971355281921852e-01 1.5298679249618344e-01 2.1344159697284249e-03  8.5340455590585140e-01 1.5347579277454218e-01 2.1244367583367761e-03  9.0715186600082887e-01 1.5383683550453767e-01 2.1113108530469481e-03  9.6095981540539677e-01 1.5407124541794043e-01 2.0999192146096400e-03  1.0148173867278014e+00 1.5420650767679311e-01 2.0919536752280559e-03  1.0687087440772671e+00 1.5427632255486132e-01 2.0873666499395512e-03  1.1226189859900169e+00 1.5430993258253534e-01 2.0854359618391011e-03  1.1765367639843389e+00 1.5432802679304256e-01 2.0852647526256960e-03  1.2304549568811669e+00 1.5434244432775399e-01 2.0860179557736632e-03  1.2843701381520873e+00 1.5435784091955282e-01 2.0870588418736200e-03  1.3382814583070461e+00 1.5437412961669664e-01 2.0880010315482761e-03  1.3921894760198716e+00 1.5438887347290731e-01 2.0886771729317390e-03  1.4460952820169430e+00 1.5439915495518880e-01 2.0890692264460254e-03  1.5000000000000000e+00 1.5440282449363452e-01 2.0891998810326296e-03  0.0000000000000000e+00 0.0000000000000000e+00 0.0000000000000000e+00  1.1416310385463537e-02 4.4809675733042831e-03 7.7158994703041342e-03  3.6948162071838292e-02 2.2464829694989811e-02 6.8177932105904452e-03  7.9876094519593474e-02 5.8100762953865438e-02 4.0471422162105912e-03  1.2011761315230761e-01 8.6821265166784511e-02 4.1709176650018345e-03  1.6040839853733316e-01 1.1040855149434149e-01 4.0552017712961906e-03  2.0434020090025168e-01 1.2726617830864881e-01 3.6144359315973605e-03  2.5407074490337156e-01 1.3569247062030634e-01 2.6296288356519888e-03  3.0835947595474050e-01 1.3703952680720469e-01 1.6703624693984859e-03  3.6442978931974696e-01 1.3464796452641414e-01 1.3398472978372706e-03  4.2036813536286521e-01 1.3135455616646000e-01 1.5119620288511582e-03  4.7562833503622670e-01 1.2857563787990786e-01 1.7709051257090338e-03  5.3029262844880520e-01 1.2677339092441361e-01 1.9476435516341017e-03  5.8451790504997003e-01 1.2593894261698921e-01 2.0530375225157192e-03  6.3842861667169326e-01 1.2584746048041853e-01 2.1165972509724963e-03  6.9214941561069843e-01 1.2620896810674417e-01 2.1485879453037970e-03  7.4580237874674560e-01 1.2675968988910058e-01 2.1533705456503820e-03  7.9947639360134382e-01 1.2731116356048741e-01 2.1400519306006335e-03  8.5321315572182710e-01 1.2776219658893617e-01 2.1202764491622403e-03  9.0701755569333042e-01 1.2808219563585560e-01 2.1025085328661868e-03  9.6087614541993782e-01 1.2828339272263570e-01 2.0901609008582983e-03  1.0147707515875994e+00 1.2839633432492942e-01 2.0832257964227417e-03  1.0686850892997224e+00 1.2845382273286096e-01 2.0803858382990427e-03  1.1226070939755526e+00 1.2848262414201558e-01 2.0801610237574657e-03  1.1765292879326392e+00 1.2850060594493387e-01 2.0812902296199216e-03  1.2304481535670222e+00 1.2851714615205870e-01 2.0828392116430676e-03  1.2843629570895119e+00 1.2853517377137602e-01 2.0842340147897362e-03  1.3382744520928851e+00 1.2855367045223381e-01 2.0852289621160949e-03  1.3921838377199984e+00 1.2856989051560277e-01 2.0858155840741363e-03  1.4460921379960294e+00 1.2858096983033665e-01 2.0861005101811768e-03  1.5000000000000000e+00 1.2858489730279107e-01 2.0861769566845579e-03  0.0000000000000000e+00 0.0000000000000000e+00 0.0000000000000000e+00  1.1736725812800610e-02 4.0231925126204505e-03 6.7944290676745485e-03  2.8274745812049876e-02 1.0987824093619938e-02 8.5859242725185893e-03  6.4848396265245176e-02 3.8151418775602595e-02 5.1508602205785374e-03  1.0737720820464401e-01 6.8095019481743194e-02 4.4949811423136881e-03  1.5025674142801332e-01 9.0682325640721428e-02 4.1476594517095185e-03  1.9819028237765984e-01 1.0455334397240279e-01 3.2646667224875301e-03  2.5183567967298376e-01 1.0980899937903747e-01 1.9478851022656164e-03  3.0855038033494547e-01 1.0948938614190645e-01 1.1206958489267936e-03  3.6554517254201796e-01 1.0701272284620585e-01 1.0960442269739106e-03  4.2157985633187961e-01 1.0429000567427042e-01 1.4346272372105714e-03  4.7659277336099259e-01 1.0208363254434065e-01 1.7592495858841501e-03  5.3088700875948003e-01 1.0068501575270003e-01 1.9777035237988614e-03  5.8475141579145762e-01 1.0010867910155198e-01 2.1039383067767677e-03  6.3839264262412876e-01 1.0016509341698282e-01 2.1663438891445261e-03  6.9196211970970634e-01 1.0058224564479577e-01 2.1840283014101388e-03  7.4556580166763520e-01 1.0112006066058078e-01 2.1713487710678025e-03  7.9925667934742028e-01 1.0162353398562103e-01 2.1439499970293580e-03  8.5304094957806820e-01 1.0202082932158552e-01 2.1155947367058584e-03  9.0689849788760091e-01 1.0229757707722763e-01 2.0939718482970628e-03  9.6080233815982052e-01 1.0247055277338615e-01 2.0808768455543021e-03  1.0147292723526544e+00 1.0256862846425685e-01 2.0748863754091267e-03  1.0686632189724310e+00 1.0262087133549082e-01 2.0736548067553100e-03  1.1225949570256741e+00 1.0265022089857226e-01 2.0750253939426592e-03  1.1765206445172769e+00 1.0267138373973697e-01 2.0773751702515548e-03  1.2304400276934666e+00 1.0269154229274260e-01 2.0796639668630218e-03  1.2843547097489891e+00 1.0271244306561064e-01 2.0813802458485037e-03  1.3382667579964140e+00 1.0273271850529130e-01 2.0824193192462768e-03  1.3921778334222850e+00 1.0274979702002525e-01 2.0829206003090900e-03  1.4460888412981363e+00 1.0276119018523257e-01 2.0831019399152957e-03  1.5000000000000000e+00 1.0276518707358785e-01 2.0831335023719249e-03  0.0000000000000000e+00 0.0000000000000000e+00 0.0000000000000000e+00  1.1275109258488073e-02 2.9121532801616489e-03 6.7549205065645986e-03  2.6363946713728808e-02 6.8274533990654342e-03 8.2199443562398153e-03  5.2522104030012479e-02 2.0935687199311152e-02 7.5462633645156174e-03  9.4817155117221150e-02 4.8652208253868817e-02 4.9027350031109673e-03  1.4131774736327737e-01 6.9216908297690213e-02 4.1263292042485146e-03  1.9372462430732409e-01 7.9517372559031047e-02 2.5815693776406663e-03  2.5073282388946844e-01 8.2104185878152824e-02 1.1845133251062563e-03  3.0902191487823299e-01 8.1070697036050923e-02 7.2552151990437175e-04  3.6644461390882754e-01 7.9123934330094112e-02 9.7690478453192338e-04  4.2247502473513882e-01 7.7224907631467499e-02 1.3855701284134329e-03  4.7730818879961512e-01 7.5711355843263148e-02 1.7382001870942933e-03  5.3132421981101119e-01 7.4774107942054205e-02 1.9923578501264152e-03  5.8489823454357404e-01 7.4450875072368458e-02 2.1436479434141145e-03  6.3832053799267563e-01 7.4605788723252547e-02 2.2088257687884107e-03  6.9177514778338878e-01 7.5017741256950682e-02 2.2135863443903743e-03  7.4535070013390903e-01 7.5494361887675970e-02 2.1848480570528395e-03  7.9906451498809883e-01 7.5921634972866928e-02 2.1455661041349301e-03  8.5289237045045041e-01 7.6253822944404234e-02 2.1105716061151449e-03  9.0679535934826894e-01 7.6486570736609458e-02 2.0860917212795192e-03  9.6073704797893422e-01 7.6635992836571992e-02 2.0724629189411304e-03  1.0146908538738797e+00 7.6725721144388387e-02 2.0672640970912843e-03  1.0686410934965260e+00 7.6778853506387898e-02 2.0674007028524139e-03  1.1225810118430488e+00 7.6813351488221701e-02 2.0701490180891546e-03  1.1765098687575757e+00 7.6840467615103020e-02 2.0735527418954789e-03  1.2304301403546620e+00 7.6865451400192131e-02 2.0764722396209557e-03  1.2843453188379119e+00 7.6889371808239682e-02 2.0784564202301196e-03  1.3382584825731352e+00 7.6911029873801134e-02 2.0795297349229364e-03  1.3921716121289629e+00 7.6928433440210248e-02 2.0799572587542913e-03  1.4460854951329549e+00 7.6939722809773625e-02 2.0800519772256384e-03  1.5000000000000000e+00 7.6943631149312561e-02 2.0800501213701899e-03  0.0000000000000000e+00 0.0000000000000000e+00 0.0000000000000000e+00  1.0925258591399785e-02 1.7736566980277313e-03 6.6386292011298620e-03  2.6082719932370355e-02 4.5239910903270824e-03 7.7351111842402145e-03  4.6032354174139020e-02 1.0549682798972655e-02 8.7740944561325775e-03  8.3527287132901598e-02 2.8736207181965574e-02 6.4506853087581010e-03  1.3422919198307129e-01 4.5547760581375239e-02 3.7200997112655045e-03  1.9093698114544777e-01 5.2175756031563256e-02 1.6680729045561852e-03  2.5037829743091838e-01 5.3053898369161079e-02 5.4352318941485876e-04  3.0945402915983067e-01 5.2194996024602668e-02 5.3400832816866183e-04  3.6700746394891104e-01 5.1128762691225488e-02 9.3709824624772309e-04  4.2301063855681414e-01 5.0161113586838391e-02 1.3528761147182130e-03  4.7773760066258997e-01 4.9411367282054017e-02 1.7165423297227844e-03  5.3157636246696260e-01 4.8988024513780530e-02 1.9966101102983124e-03  5.8495313744137312e-01 4.8924009703831185e-02 2.1697409930779995e-03  6.3822547338037550e-01 4.9140011918341879e-02 2.2387125578390487e-03  6.9160664216627987e-01 4.9496966208534859e-02 2.2334195266276026e-03  7.4517110972591982e-01 4.9874704564185281e-02 2.1924429902684252e-03  7.9890781842183645e-01 5.0205592784665569e-02 2.1448350870731684e-03  8.5277068007954693e-01 5.0465356915748202e-02 2.1055206049127775e-03  9.0670856534938615e-01 5.0654189067802120e-02 2.0792226438749424e-03  9.6067916173010015e-01 5.0783861759346446e-02 2.0652679072539664e-03  1.0146537525867834e+00 5.0870378379552363e-02 2.0606635185018395e-03  1.0686169857747918e+00 5.0929244260668013e-02 2.0618345215172654e-03  1.1225639265272618e+00 5.0972520510794761e-02 2.0656340793520560e-03  1.1764961426795590e+00 5.1007756562880181e-02 2.0698395576639571e-03  1.2304181237708731e+00 5.1038493253006530e-02 2.0732340320633162e-03  1.2843347197428865e+00 5.1065542097644502e-02 2.0754189698219496e-03  1.3382497121091013e+00 5.1088285517781259e-02 2.0765200589077928e-03  1.3921652967603848e+00 5.1105616685481171e-02 2.0768972056278891e-03  1.4460821820424978e+00 5.1116491900333717e-02 2.0769338805918750e-03  1.5000000000000000e+00 5.1120197570286269e-02 2.0769113417873244e-03  0.0000000000000000e+00 0.0000000000000000e+00 0.0000000000000000e+00  1.0800848236987610e-02 7.0064380524218406e-04 6.5026367538488939e-03  2.5498133269859707e-02 2.1309064836874904e-03 7.6126605165070032e-03  4.3888111288240175e-02 5.0641700532368366e-03 8.8287821792442222e-03  7.6648560387381492e-02 1.0679689966040910e-02 8.1574975202810245e-03  1.2949193347829313e-01 1.9542710798428887e-02 3.2173723322048422e-03  1.8954551806076420e-01 2.2930628848990220e-02 8.0501572498035067e-04  2.5031715513005365e-01 2.3247442094909813e-02 1.8581742578415423e-04  3.0962747426885345e-01 2.3147908361750447e-02 5.0168360349467963e-04  3.6718744526752656e-01 2.3098923147016448e-02 9.3012160032107519e-04  4.2317344554986730e-01 2.3095445038540663e-02 1.3356696120301792e-03  4.7785765769621702e-01 2.3145434308926367e-02 1.7028495757839979e-03  5.3161973632598791e-01 2.3271062513227928e-02 1.9957741376570972e-03  5.8490920124662282e-01 2.3473953114245431e-02 2.1802582986920551e-03  6.3811679756205875e-01 2.3728613690025085e-02 2.2509499865560035e-03  6.9147031515934143e-01 2.3999109098312002e-02 2.2403616770365268e-03  7.4503706635688238e-01 2.4254850692856603e-02 2.1933951122693599e-03  7.9879185369276340e-01 2.4477687816417310e-02 2.1419677830846941e-03  8.5267793948481452e-01 2.4661155897307552e-02 2.1007296371948030e-03  9.0663834089093198e-01 2.4806472533892492e-02 2.0736141810259157e-03  9.6062786678801548e-01 2.4918988009385967e-02 2.0595479408141836e-03  1.0146166838981334e+00 2.5005731636721446e-02 2.0553211137318639e-03  1.0685896009943732e+00 2.5073602112386423e-02 2.0571196092393426e-03  1.1225426953698696e+00 2.5128127468907843e-02 2.0615525540511829e-03  1.1764788487089770e+00 2.5172971101539349e-02 2.0662383443743933e-03  1.2304036977499917e+00 2.5210120827446454e-02 2.0699183797120847e-03  1.2843228561369380e+00 2.5240421091668682e-02 2.0722309041525315e-03  1.3382405009670220e+00 2.5264105541182049e-02 2.0733602543265210e-03  1.3921589692232805e+00 2.5281146853515294e-02 2.0737216634476221e-03  1.4460789560829972e+00 2.5291435687100232e-02 2.0737367424377923e-03  1.5000000000000000e+00 2.5294876357247066e-02 2.0737076050583447e-03  0.0000000000000000e+00 0.0000000000000000e+00 0.0000000000000000e+00  1.0836525199360156e-02 -3.6257447771965003e-04 6.3906199895491858e-03  2.4749929402029133e-02 1.9462417513393455e-04 7.6402839793023921e-03  4.3642097083223905e-02 1.8327156056284477e-04 8.7899839208196388e-03  7.6225899449833365e-02 -4.9373731772124957e-03 8.5017565100459214e-03  1.2784917482289479e-01 -7.7807457615723134e-03 3.3648252043121381e-03  1.8910920441344214e-01 -7.3938365946661158e-03 3.0102634655387823e-04  2.5018507702841747e-01 -6.8040656020765377e-03 1.6174850158257270e-04  3.0944844041011554e-01 -5.9192157654744792e-03 5.4028674039308241e-04  3.6697779902216682e-01 -4.9333896913849439e-03 9.3900204180970813e-04  4.2296226191302932e-01 -3.9727311381405781e-03 1.3372311405408460e-03  4.7765784090590302e-01 -3.1155780042622376e-03 1.7017251009630550e-03  5.3144221724681517e-01 -2.4327066661809717e-03 1.9926672527945709e-03  5.8476247007090087e-01 -1.9620689113333460e-03 2.1737890366445131e-03  6.3799893589668177e-01 -1.6745538627787604e-03 2.2426513492583588e-03  6.9137285387846481e-01 -1.4981237686603473e-03 2.2328757658972975e-03  7.4495336370769438e-01 -1.3701520950290371e-03 2.1875162819462155e-03  7.9871906883014498e-01 -1.2583960142607707e-03 2.1371411289361135e-03  8.5261508464738522e-01 -1.1521436625327134e-03 2.0963387740895651e-03  9.0658474167057423e-01 -1.0499270183208971e-03 2.0693875001100118e-03  9.6058267839374001e-01 -9.5336160340256826e-04 2.0554443207096546e-03  1.0145788917274565e+00 -8.6483367531878252e-04 2.0513733478885804e-03  1.0685581682811749e+00 -7.8645276483292094e-04 2.0533480652947097e-03  1.1225167131597931e+00 -7.1950270622844271e-04 2.0579398982165562e-03  1.1764576085158918e+00 -6.6429439059623630e-04 2.0627441558827993e-03  1.2303866789432980e+00 -6.2032801706918815e-04 2.0665036428892877e-03  1.2843096734270083e+00 -5.8660267549297750e-04 2.0688697871715793e-03  1.3382308606730202e+00 -5.6193007274162726e-04 2.0700355881560243e-03  1.3921526595386211e+00 -5.4518643249395593e-04 2.0704226995372850e-03  1.4460758379988210e+00 -5.3550031360515265e-04 2.0704563159086539e-03  1.5000000000000000e+00 -5.3233033161090239e-04 2.0704357084013842e-03  0.0000000000000000e+00 0.0000000000000000e+00 0.0000000000000000e+00  1.0840349378826433e-02 -1.2632053585592766e-03 6.2233187739844237e-03  2.3935409503476310e-02 -1.3420746931100732e-03 7.9197241458674079e-03  4.5556511371079800e-02 -6.6315460888903598e-03 8.6696430775025663e-03  8.1381284200318538e-02 -2.0540325344686351e-02 7.