<?xml version="1.0"?>
<VTKFile type="UnstructuredGrid"  version="0.1"  >
<UnstructuredGrid>
<Piece  NumberOfPoints="882" NumberOfCells="3600">
<Points>
<DataArray  type="Float64"  NumberOfComponents="3"  format="ascii">0 0 0  0.5 0 0  1 0 0  1.5 0 0  2 0 0  2.5 0 0  3 0 0  3.5 0 0  4 0 0  4.5 0 0  5 0 0  5.5 0 0  6 0 0  6.5 0 0  7 0 0  7.5 0 0  8 0 0  8.5 0 0  9 0 0  9.5 0 0  10 0 0  0 0.5 0  0.5 0.5 0  1 0.5 0  1.5 0.5 0  2 0.5 0  2.5 0.5 0  3 0.5 0  3.5 0.5 0  4 0.5 0  4.5 0.5 0  5 0.5 0  5.5 0.5 0  6 0.5 0  6.5 0.5 0  7 0.5 0  7.5 0.5 0  8 0.5 0  8.5 0.5 0  9 0.5 0  9.5 0.5 0  10 0.5 0  0 1 0  0.5 1 0  1 1 0  1.5 1 0  2 1 0  2.5 1 0  3 1 0  3.5 1 0  4 1 0  4.5 1 0  5 1 0  5.5 1 0  6 1 0  6.5 1 0  7 1 0  7.5 1 0  8 1 0  8.5 1 0  9 1 0  9.5 1 0  10 1 0  0 1.5 0  0.5 1.5 0  1 1.5 0  1.5 1.5 0  2 1.5 0  2.5 1.5 0  3 1.5 0  3.5 1.5 0  4 1.5 0  4.5 1.5 0  5 1.5 0  5.5 1.5 0  6 1.5 0  6.5 1.5 0  7 1.5 0  7.5 1.5 0  8 1.5 0  8.5 1.5 0  9 1.5 0  9.5 1.5 0  10 1.5 0  0 2 0  0.5 2 0  1 2 0  1.5 2 0  2 2 0  2.5 2 0  3 2 0  3.5 2 0  4 2 0  4.5 2 0  5 2 0  5.5 2 0  6 2 0  6.5 2 0  7 2 0  7.5 2 0  8 2 0  8.5 2 0  9 2 0  9.5 2 0  10 2 0  0 2.5 0  0.5 2.5 0  1 2.5 0  1.5 2.5 0  2 2.5 0  2.5 2.5 0  3 2.5 0  3.5 2.5 0  4 2.5 0  4.5 2.5 0  5 2.5 0  5.5 2.5 0  6 2.5 0  6.5 2.5 0  7 2.5 0  7.5 2.5 0  8 2.5 0  8.5 2.5 0  9 2.5 0  9.5 2.5 0  10 2.5 0  0 3 0  0.5 3 0  1 3 0  1.5 3 0  2 3 0  2.5 3 0  3 3 0  3.5 3 0  4 3 0  4.5 3 0  5 3 0  5.5 3 0  6 3 0  6.5 3 0  7 3 0  7.5 3 0  8 3 0  8.5 3 0  9 3 0  9.5 3 0  10 3 0  0 0 0.1  0.5 0 0.1  1 0 0.1  1.5 0 0.1  2 0 0.1  2.5 0 0.1  3 0 0.1  3.5 0 0.1  4 0 0.1  4.5 0 0.1  5 0 0.1  5.5 0 0.1  6 0 0.1  6.5 0 0.1  7 0 0.1  7.5 0 0.1  8 0 0.1  8.5 0 0.1  9 0 0.1  9.5 0 0.1  10 0 0.1  0 0.5 0.1  0.5 0.5 0.1  1 0.5 0.1  1.5 0.5 0.1  2 0.5 0.1  2.5 0.5 0.1  3 0.5 0.1  3.5 0.5 0.1  4 0.5 0.1  4.5 0.5 0.1  5 0.5 0.1  5.5 0.5 0.1  6 0.5 0.1  6.5 0.5 0.1  7 0.5 0.1  7.5 0.5 0.1  8 0.5 0.1  8.5 0.5 0.1  9 0.5 0.1  9.5 0.5 0.1  10 0.5 0.1  0 1 0.1  0.5 1 0.1  1 1 0.1  1.5 1 0.1  2 1 0.1  2.5 1 0.1  3 1 0.1  3.5 1 0.1  4 1 0.1  4.5 1 0.1  5 1 0.1  5.5 1 0.1  6 1 0.1  6.5 1 0.1  7 1 0.1  7.5 1 0.1  8 1 0.1  8.5 1 0.1  9 1 0.1  9.5 1 0.1  10 1 0.1  0 1.5 0.1  0.5 1.5 0.1  1 1.5 0.1  1.5 1.5 0.1  2 1.5 0.1  2.5 1.5 0.1  3 1.5 0.1  3.5 1.5 0.1  4 1.5 0.1  4.5 1.5 0.1  5 1.5 0.1  5.5 1.5 0.1  6 1.5 0.1  6.5 1.5 0.1  7 1.5 0.1  7.5 1.5 0.1  8 1.5 0.1  8.5 1.5 0.1  9 1.5 0.1  9.5 1.5 0.1  10 1.5 0.1  0 2 0.1  0.5 2 0.1  1 2 0.1  1.5 2 0.1  2 2 0.1  2.5 2 0.1  3 2 0.1  3.5 2 0.1  4 2 0.1  4.5 2 0.1  5 2 0.1  5.5 2 0.1  6 2 0.1  6.5 2 0.1  7 2 0.1  7.5 2 0.1  8 2 0.1  8.5 2 0.1  9 2 0.1  9.5 2 0.1  10 2 0.1  0 2.5 0.1  0.5 2.5 0.1  1 2.5 0.1  1.5 2.5 0.1  2 2.5 0.1  2.5 2.5 0.1  3 2.5 0.1  3.5 2.5 0.1  4 2.5 0.1  4.5 2.5 0.1  5 2.5 0.1  5.5 2.5 0.1  6 2.5 0.1  6.5 2.5 0.1  7 2.5 0.1  7.5 2.5 0.1  8 2.5 0.1  8.5 2.5 0.1  9 2.5 0.1  9.5 2.5 0.1  10 2.5 0.1  0 3 0.1  0.5 3 0.1  1 3 0.1  1.5 3 0.1  2 3 0.1  2.5 3 0.1  3 3 0.1  3.5 3 0.1  4 3 0.1  4.5 3 0.1  5 3 0.1  5.5 3 0.1  6 3 0.1  6.5 3 0.1  7 3 0.1  7.5 3 0.1  8 3 0.1  8.5 3 0.1  9 3 0.1  9.5 3 0.1  10 3 0.1  0 0 0.2  0.5 0 0.2  1 0 0.2  1.5 0 0.2  2 0 0.2  2.5 0 0.2  3 0 0.2  3.5 0 0.2  4 0 0.2  4.5 0 0.2  5 0 0.2  5.5 0 0.2  6 0 0.2  6.5 0 0.2  7 0 0.2  7.5 0 0.2  8 0 0.2  8.5 0 0.2  9 0 0.2  9.5 0 0.2  10 0 0.2  0 0.5 0.2  0.5 0.5 0.2  1 0.5 0.2  1.5 0.5 0.2  2 0.5 0.2  2.5 0.5 0.2  3 0.5 0.2  3.5 0.5 0.2  4 0.5 0.2  4.5 0.5 0.2  5 0.5 0.2  5.5 0.5 0.2  6 0.5 0.2  6.5 0.5 0.2  7 0.5 0.2  7.5 0.5 0.2  8 0.5 0.2  8.5 0.5 0.2  9 0.5 0.2  9.5 0.5 0.2  10 0.5 0.2  0 1 0.2  0.5 1 0.2  1 1 0.2  1.5 1 0.2  2 1 0.2  2.5 1 0.2  3 1 0.2  3.5 1 0.2  4 1 0.2  4.5 1 0.2  5 1 0.2  5.5 1 0.2  6 1 0.2  6.5 1 0.2  7 1 0.2  7.5 1 0.2  8 1 0.2  8.5 1 0.2  9 1 0.2  9.5 1 0.2  10 1 0.2  0 1.5 0.2  0.5 1.5 0.2  1 1.5 0.2  1.5 1.5 0.2  2 1.5 0.2  2.5 1.5 0.2  3 1.5 0.2  3.5 1.5 0.2  4 1.5 0.2  4.5 1.5 0.2  5 1.5 0.2  5.5 1.5 0.2  6 1.5 0.2  6.5 1.5 0.2  7 1.5 0.2  7.5 1.5 0.2  8 1.5 0.2  8.5 1.5 0.2  9 1.5 0.2  9.5 1.5 0.2  10 1.5 0.2  0 2 0.2  0.5 2 0.2  1 2 0.2  1.5 2 0.2  2 2 0.2  2.5 2 0.2  3 2 0.2  3.5 2 0.2  4 2 0.2  4.5 2 0.2  5 2 0.2  5.5 2 0.2  6 2 0.2  6.5 2 0.2  7 2 0.2  7.5 2 0.2  8 2 0.2  8.5 2 0.2  9 2 0.2  9.5 2 0.2  10 2 0.2  0 2.5 0.2  0.5 2.5 0.2  1 2.5 0.2  1.5 2.5 0.2  2 2.5 0.2  2.5 2.5 0.2  3 2.5 0.2  3.5 2.5 0.2  4 2.5 0.2  4.5 2.5 0.2  5 2.5 0.2  5.5 2.5 0.2  6 2.5 0.2  6.5 2.5 0.2  7 2.5 0.2  7.5 2.5 0.2  8 2.5 0.2  8.5 2.5 0.2  9 2.5 0.2  9.5 2.5 0.2  10 2.5 0.2  0 3 0.2  0.5 3 0.2  1 3 0.2  1.5 3 0.2  2 3 0.2  2.5 3 0.2  3 3 0.2  3.5 3 0.2  4 3 0.2  4.5 3 0.2  5 3 0.2  5.5 3 0.2  6 3 0.2  6.5 3 0.2  7 3 0.2  7.5 3 0.2  8 3 0.2  8.5 3 0.2  9 3 0.2  9.5 3 0.2  10 3 0.2  0 0 0.3  0.5 0 0.3  1 0 0.3  1.5 0 0.3  2 0 0.3  2.5 0 0.3  3 0 0.3  3.5 0 0.3  4 0 0.3  4.5 0 0.3  5 0 0.3  5.5 0 0.3  6 0 0.3  6.5 0 0.3  7 0 0.3  7.5 0 0.3  8 0 0.3  8.5 0 0.3  9 0 0.3  9.5 0 0.3  10 0 0.3  0 0.5 0.3  0.5 0.5 0.3  1 0.5 0.3  1.5 0.5 0.3  2 0.5 0.3  2.5 0.5 0.3  3 0.5 0.3  3.5 0.5 0.3  4 0.5 0.3  4.5 0.5 0.3  5 0.5 0.3  5.5 0.5 0.3  6 0.5 0.3  6.5 0.5 0.3  7 0.5 0.3  7.5 0.5 0.3  8 0.5 0.3  8.5 0.5 0.3  9 0.5 0.3  9.5 0.5 0.3  10 0.5 0.3  0 1 0.3  0.5 1 0.3  1 1 0.3  1.5 1 0.3  2 1 0.3  2.5 1 0.3  3 1 0.3  3.5 1 0.3  4 1 0.3  4.5 1 0.3  5 1 0.3  5.5 1 0.3  6 1 0.3  6.5 1 0.3  7 1 0.3  7.5 1 0.3  8 1 0.3  8.5 1 0.3  9 1 0.3  9.5 1 0.3  10 1 0.3  0 1.5 0.3  0.5 1.5 0.3  1 1.5 0.3  1.5 1.5 0.3  2 1.5 0.3  2.5 1.5 0.3  3 1.5 0.3  3.5 1.5 0.3  4 1.5 0.3  4.5 1.5 0.3  5 1.5 0.3  5.5 1.5 0.3  6 1.5 0.3  6.5 1.5 0.3  7 1.5 0.3  7.5 1.5 0.3  8 1.5 0.3  8.5 1.5 0.3  9 1.5 0.3  9.5 1.5 0.3  10 1.5 0.3  0 2 0.3  0.5 2 0.3  1 2 0.3  1.5 2 0.3  2 2 0.3  2.5 2 0.3  3 2 0.3  3.5 2 0.3  4 2 0.3  4.5 2 0.3  5 2 0.3  5.5 2 0.3  6 2 0.3  6.5 2 0.3  7 2 0.3  7.5 2 0.3  8 2 0.3  8.5 2 0.3  9 2 0.3  9.5 2 0.3  10 2 0.3  0 2.5 0.3  0.5 2.5 0.3  1 2.5 0.3  1.5 2.5 0.3  2 2.5 0.3  2.5 2.5 0.3  3 2.5 0.3  3.5 2.5 0.3  4 2.5 0.3  4.5 2.5 0.3  5 2.5 0.3  5.5 2.5 0.3  6 2.5 0.3  6.5 2.5 0.3  7 2.5 0.3  7.5 2.5 0.3  8 2.5 0.3  8.5 2.5 0.3  9 2.5 0.3  9.5 2.5 0.3  10 2.5 0.3  0 3 0.3  0.5 3 0.3  1 3 0.3  1.5 3 0.3  2 3 0.3  2.5 3 0.3  3 3 0.3  3.5 3 0.3  4 3 0.3  4.5 3 0.3  5 3 0.3  5.5 3 0.3  6 3 0.3  6.5 3 0.3  7 3 0.3  7.5 3 0.3  8 3 0.3  8.5 3 0.3  9 3 0.3  9.5 3 0.3  10 3 0.3  0 0 0.4  0.5 0 0.4  1 0 0.4  1.5 0 0.4  2 0 0.4  2.5 0 0.4  3 0 0.4  3.5 0 0.4  4 0 0.4  4.5 0 0.4  5 0 0.4  5.5 0 0.4  6 0 0.4  6.5 0 0.4  7 0 0.4  7.5 0 0.4  8 0 0.4  8.5 0 0.4  9 0 0.4  9.5 0 0.4  10 0 0.4  0 0.5 0.4  0.5 0.5 0.4  1 0.5 0.4  1.5 0.5 0.4  2 0.5 0.4  2.5 0.5 0.4  3 0.5 0.4  3.5 0.5 0.4  4 0.5 0.4  4.5 0.5 0.4  5 0.5 0.4  5.5 0.5 0.4  6 0.5 0.4  6.5 0.5 0.4  7 0.5 0.4  7.5 0.5 0.4  8 0.5 0.4  8.5 0.5 0.4  9 0.5 0.4  9.5 0.5 0.4  10 0.5 0.4  0 1 0.4  0.5 1 0.4  1 1 0.4  1.5 1 0.4  2 1 0.4  2.5 1 0.4  3 1 0.4  3.5 1 0.4  4 1 0.4  4.5 1 0.4  5 1 0.4  5.5 1 0.4  6 1 0.4  6.5 1 0.4  7 1 0.4  7.5 1 0.4  8 1 0.4  8.5 1 0.4  9 1 0.4  9.5 1 0.4  10 1 0.4  0 1.5 0.4  0.5 1.5 0.4  1 1.5 0.4  1.5 1.5 0.4  2 1.5 0.4  2.5 1.5 0.4  3 1.5 0.4  3.5 1.5 0.4  4 1.5 0.4  4.5 1.5 0.4  5 1.5 0.4  5.5 1.5 0.4  6 1.5 0.4  6.5 1.5 0.4  7 1.5 0.4  7.5 1.5 0.4  8 1.5 0.4  8.5 1.5 0.4  9 1.5 0.4  9.5 1.5 0.4  10 1.5 0.4  0 2 0.4  0.5 2 0.4  1 2 0.4  1.5 2 0.4  2 2 0.4  2.5 2 0.4  3 2 0.4  3.5 2 0.4  4 2 0.4  4.5 2 0.4  5 2 0.4  5.5 2 0.4  6 2 0.4  6.5 2 0.4  7 2 0.4  7.5 2 0.4  8 2 0.4  8.5 2 0.4  9 2 0.4  9.5 2 0.4  10 2 0.4  0 2.5 0.4  0.5 2.5 0.4  1 2.5 0.4  1.5 2.5 0.4  2 2.5 0.4  2.5 2.5 0.4  3 2.5 0.4  3.5 2.5 0.4  4 2.5 0.4  4.5 2.5 0.4  5 2.5 0.4  5.5 2.5 0.4  6 2.5 0.4  6.5 2.5 0.4  7 2.5 0.4  7.5 2.5 0.4  8 2.5 0.4  8.5 2.5 0.4  9 2.5 0.4  9.5 2.5 0.4  10 2.5 0.4  0 3 0.4  0.5 3 0.4  1 3 0.4  1.5 3 0.4  2 3 0.4  2.5 3 0.4  3 3 0.4  3.5 3 0.4  4 3 0.4  4.5 3 0.4  5 3 0.4  5.5 3 0.4  6 3 0.4  6.5 3 0.4  7 3 0.4  7.5 3 0.4  8 3 0.4  8.5 3 0.4  9 3 0.4  9.5 3 0.4  10 3 0.4  0 0 0.5  0.5 0 0.5  1 0 0.5  1.5 0 0.5  2 0 0.5  2.5 0 0.5  3 0 0.5  3.5 0 0.5  4 0 0.5  4.5 0 0.5  5 0 0.5  5.5 0 0.5  6 0 0.5  6.5 0 0.5  7 0 0.5  7.5 0 0.5  8 0 0.5  8.5 0 0.5  9 0 0.5  9.5 0 0.5  10 0 0.5  0 0.5 0.5  0.5 0.5 0.5  1 0.5 0.5  1.5 0.5 0.5  2 0.5 0.5  2.5 0.5 0.5  3 0.5 0.5  3.5 0.5 0.5  4 0.5 0.5  4.5 0.5 0.5  5 0.5 0.5  5.5 0.5 0.5  6 0.5 0.5  6.5 0.5 0.5  7 0.5 0.5  7.5 0.5 0.5  8 0.5 0.5  8.5 0.5 0.5  9 0.5 0.5  9.5 0.5 0.5  10 0.5 0.5  0 1 0.5  0.5 1 0.5  1 1 0.5  1.5 1 0.5  2 1 0.5  2.5 1 0.5  3 1 0.5  3.5 1 0.5  4 1 0.5  4.5 1 0.5  5 1 0.5  5.5 1 0.5  6 1 0.5  6.5 1 0.5  7 1 0.5  7.5 1 0.5  8 1 0.5  8.5 1 0.5  9 1 0.5  9.5 1 0.5  10 1 0.5  0 1.5 0.5  0.5 1.5 0.5  1 1.5 0.5  1.5 1.5 0.5  2 1.5 0.5  2.5 1.5 0.5  3 1.5 0.5  3.5 1.5 0.5  4 1.5 0.5  4.5 1.5 0.5  5 1.5 0.5  5.5 1.5 0.5  6 1.5 0.5  6.5 1.5 0.5  7 1.5 0.5  7.5 1.5 0.5  8 1.5 0.5  8.5 1.5 0.5  9 1.5 0.5  9.5 1.5 0.5  10 1.5 0.5  0 2 0.5  0.5 2 0.5  1 2 0.5  1.5 2 0.5  2 2 0.5  2.5 2 0.5  3 2 0.5  3.5 2 0.5  4 2 0.5  4.5 2 0.5  5 2 0.5  5.5 2 0.5  6 2 0.5  6.5 2 0.5  7 2 0.5  7.5 2 0.5  8 2 0.5  8.5 2 0.5  9 2 0.5  9.5 2 0.5  10 2 0.5  0 2.5 0.5  0.5 2.5 0.5  1 2.5 0.5  1.5 2.5 0.5  2 2.5 0.5  2.5 2.5 0.5  3 2.5 0.5  3.5 2.5 0.5  4 2.5 0.5  4.5 2.5 0.5  5 2.5 0.5  5.5 2.5 0.5  6 2.5 0.5  6.5 2.5 0.5  7 2.5 0.5  7.5 2.5 0.5  8 2.5 0.5  8.5 2.5 0.5  9 2.5 0.5  9.5 2.5 0.5  10 2.5 0.5  0 3 0.5  0.5 3 0.5  1 3 0.5  1.5 3 0.5  2 3 0.5  2.5 3 0.5  3 3 0.5  3.5 3 0.5  4 3 0.5  4.5 3 0.5  5 3 0.5  5.5 3 0.5  6 3 0.5  6.5 3 0.5  7 3 0.5  7.5 3 0.5  8 3 0.5  8.5 3 0.5  9 3 0.5  9.5 3 0.5  10 3 0.5  </DataArray>
</Points>
<Cells>
[...]
<PointData  Vectors="f_7-0"> 
<DataArray  type="Float64"  Name="f_7-0"  NumberOfComponents="3" format="ascii">0.0000000000000000e+00 0.0000000000000000e+00 0.0000000000000000e+00  2.1583986447798656e-01 2.0660598797951449e-01 2.9867300354140452e-02  4.0895535585754661e-01 3.9507448691349273e-01 3.1406770573255492e-02  6.3299041645114695e-01 5.4877139517391860e-01 2.9850097465128244e-02  9.5448358064473726e-01 6.1230950482586910e-01 2.5919100669104290e-02  1.3232198969805005e+00 6.1289731749553511e-01 2.1452534776576302e-02  1.7000936934796247e+00 6.0408230218438330e-01 1.9588725275829770e-02  2.0731557543648358e+00 6.0263771551705902e-01 1.9954056937676969e-02  2.4437885758029161e+00 6.0455190288002159e-01 2.0485070945557481e-02  2.8144153680081945e+00 6.0601836260001329e-01 2.0625480882663211e-02  3.1855670981013890e+00 6.0651786212520564e-01 2.0591791389691302e-02  3.5569869114621264e+00 6.0659342884515433e-01 2.0558574884185978e-02  3.9284441570031192e+00 6.0661882438125780e-01 2.0556500015049634e-02  4.2998800640148751e+00 6.0667145913132192e-01 2.0563996141979221e-02  4.6713096221185051e+00 6.0672328860481861e-01 2.0567873650975194e-02  5.0427471939316977e+00 6.0675542531674120e-01 2.0567764717148083e-02  5.4141932392000820e+00 6.0677112009292877e-01 2.0566569288202111e-02  5.7856435188612050e+00 6.0677879224230347e-01 2.0565772858216265e-02  6.1570952512788635e+00 6.0678319985897167e-01 2.0565457020443854e-02  6.5285475057075075e+00 6.0678573439478867e-01 2.0565363712458557e-02  6.9000000000000021e+00 6.0678656951172305e-01 2.0565354873061385e-02  0.0000000000000000e+00 0.0000000000000000e+00 0.0000000000000000e+00  1.0091778695380399e-01 7.7344909526874922e-02 3.4640145586449587e-02  3.0920931016163272e-01 2.8898228718360169e-01 3.4548294196529772e-02  5.9605168216131832e-01 4.0591473399993300e-01 2.8953767918918603e-02  9.5164969130835131e-01 4.3496818481763394e-01 2.1149281928308242e-02  1.3273223900065649e+00 4.2663118592432997e-01 1.8413277341547126e-02  1.7013245738483009e+00 4.2068504173467020e-01 1.9849744512028918e-02  2.0724539081139914e+00 4.2157064745109996e-01 2.0410167151091847e-02  2.4430995226910466e+00 4.2369517287697023e-01 2.0272746190146840e-02  2.8141509501955362e+00 4.2475827830571927e-01 2.0140551829114089e-02  3.1855238229349911e+00 4.2501141087335120e-01 2.0088348794882790e-02  3.5569808657064463e+00 4.2504022088010113e-01 2.0086426274238560e-02  3.9284256663727093e+00 4.2508224457864302e-01 2.0093345020510273e-02  4.2998584800105135e+00 4.2514326442476891e-01 2.0094860806634324e-02  4.6712952364370324e+00 4.2519011495744663e-01 2.0093033547143046e-02  5.0427400576066095e+00 4.2521534985408299e-01 2.0091288767509995e-02  5.4141898651166445e+00 4.2522727712032549e-01 2.0090513960916181e-02  5.7856416160126720e+00 4.2523361064252879e-01 2.0090275008188357e-02  6.1570940693967051e+00 4.2523753997672942e-01 2.0090165791451085e-02  6.5285469216504648e+00 4.2523981006372208e-01 2.0090083416123283e-02  6.9000000000000021e+00 4.2524055748638978e-01 2.0090048916181817e-02  0.0000000000000000e+00 0.0000000000000000e+00 0.0000000000000000e+00  2.8146390442209238e-02 1.3353804573665947e-02 2.8230926539798761e-02  2.3851632855709759e-01 1.6504410224457500e-01 2.8842744807808681e-02  5.7505894748444175e-01 2.3784635772902094e-01 2.3298449498039775e-02  9.5280049092408192e-01 2.4742966501192995e-01 1.4538161609108105e-02  1.3303886215219061e+00 2.4135502457083716e-01 1.7707935585282688e-02  1.7016497065105327e+00 2.3945350140159699e-01 2.0463764455234127e-02  2.0716900385058761e+00 2.4088874410673630e-01 2.0319253877742707e-02  2.4425421249855339e+00 2.4251162679769114e-01 1.9853337215962122e-02  2.8139676429673024e+00 2.4324995727506196e-01 1.9637111468304207e-02  3.1854954299698557e+00 2.4343676332591183e-01 1.9604261354975918e-02  3.5569682930032211e+00 2.4349136277661412e-01 1.9620797009242300e-02  3.9284035717021828e+00 2.4355171220327038e-01 1.9626444780729647e-02  4.2998381586284724e+00 2.4361092133624909e-01 1.9621893216406686e-02  4.6712830239040244e+00 2.4365047965489220e-01 1.9617000183813554e-02  5.0427341297758073e+00 2.4367133051319709e-01 1.9615024480608680e-02  5.4141869065595740e+00 2.4368181968750405e-01 1.9614790174054153e-02  5.7856398562622786e+00 2.4368775874164225e-01 1.9614885676174112e-02  6.1570929813278044e+00 2.4369141433940272e-01 1.9614869446294873e-02  6.5285463933833503e+00 2.4369344717053570e-01 1.9614793314592795e-02  6.9000000000000021e+00 2.4369410041213324e-01 1.9614755526994914e-02  0.0000000000000000e+00 0.0000000000000000e+00 0.0000000000000000e+00  1.1710178741966592e-02 1.5917936883140124e-02 2.2552403806661740e-02  1.9488577237607785e-01 1.2892019235593292e-02 3.5263473420086060e-02  5.6636139833718357e-01 4.8683083547895599e-02 9.8847043244699711e-03  9.5392728689964623e-01 5.4842648119749558e-02 1.2974532336951842e-02  1.3308045168558780e+00 5.7658285871161431e-02 1.8955144448040959e-02  1.7013848517335322e+00 5.9364227747794381e-02 2.0173163627488621e-02  2.0711801253752702e+00 6.0337298510228232e-02 1.9863171321130749e-02  2.4421921436220346e+00 6.1077830959398449e-02 1.9354251098283044e-02  2.8138247769906233e+00 6.1561850348843185e-02 1.9135454132320411e-02  3.1854469794547415e+00 6.1812212984416567e-02 1.9126953296338310e-02  3.5569404278157952e+00 6.1942498257853709e-02 1.9149121240283267e-02  3.9283797917933603e+00 6.2021847317723026e-02 1.9152278884261992e-02  4.2998208791443258e+00 6.2073221328709835e-02 1.9145553490481953e-02  4.6712728294478643e+00 6.2105158905329853e-02 1.9140445530182789e-02  5.0427286863538159e+00 6.2124026389776106e-02 1.9139037829572884e-02  5.4141839179896252e+00 6.2134918618259129e-02 1.9139225968066612e-02  5.7856380942652432e+00 6.2141214965089363e-02 1.9139497312774610e-02  6.1570919603942578e+00 6.2144810482387416e-02 1.9139545418372792e-02  6.5285459212443913e+00 6.2146669314108560e-02 1.9139500191117400e-02  6.9000000000000021e+00 6.2147247203832058e-02 1.9139474605004463e-02  0.0000000000000000e+00 0.0000000000000000e+00 0.0000000000000000e+00  3.6475607206239685e-02 3.3835532780391430e-03 3.1065062452052303e-02  2.1504626358521847e-01 -1.0964335850010767e-01 3.7068681812088854e-02  5.6354261576710374e-01 -1.5453051844098814e-01 7.1139773831294679e-03  9.5083257410369315e-01 -1.3772979389533122e-01 1.5838853074569809e-02  1.3288314840308761e+00 -1.2587525479096193e-01 1.8429574804869061e-02  1.7006387576859747e+00 -1.2099558885102138e-01 1.9304113993248755e-02  2.0710424622733035e+00 -1.2029914970952786e-01 1.9209803582854706e-02  2.4420794363031817e+00 -1.2043046088701147e-01 1.8810346435912912e-02  2.8136954790574893e+00 -1.2019954529966248e-01 1.8638897244977439e-02  3.1853570610437396e+00 -1.1985062841806404e-01 1.8640104473821879e-02  3.5568914896975441e+00 -1.1962184713802292e-01 1.8664584229023635e-02  3.9283549201412407e+00 -1.1951627757693616e-01 1.8670701031801989e-02  4.2998070924586944e+00 -1.1947039636610146e-01 1.8666862942327125e-02  4.6712641674270632e+00 -1.1944420999755948e-01 1.8663732238705530e-02  5.0427231290146857e+00 -1.1942574681567164e-01 1.8663181343113306e-02  5.4141805584761418e+00 -1.1941339750926533e-01 1.8663654841900412e-02  5.7856361961978200e+00 -1.1940615579231757e-01 1.8664055989829453e-02  6.1570909591214971e+00 -1.1940232497956564e-01 1.8664194766737030e-02  6.5285454881543110e+00 -1.1940050241384452e-01 1.8664210046277073e-02  6.9000000000000021e+00 -1.1939996092959498e-01 1.8664204057437829e-02  0.0000000000000000e+00 0.0000000000000000e+00 0.0000000000000000e+00  8.9740330143451133e-02 -4.7601222385584535e-02 3.8038948138934180e-02  3.0321515633250484e-01 -2.2819994303775856e-01 2.5540716132026561e-02  5.6934204957700629e-01 -3.3637522904449796e-01 2.5245277789476901e-02  9.4417945593138120e-01 -3.3042813642922775e-01 1.4319100463761829e-02  1.3246576924395177e+00 -3.1119519285017611e-01 1.7360075729489464e-02  1.6993755271056561e+00 -3.0269861987338958e-01 1.8129928203849236e-02  2.0711130489659886e+00 -3.0128690169645345e-01 1.8323380368156866e-02  2.4421753292484625e+00 -3.0184119296167355e-01 1.8229415218941596e-02  2.8135914791041197e+00 -3.0191359470809120e-01 1.8141079220319923e-02  3.1852264318590895e+00 -3.0154212330023750e-01 1.8139636533839716e-02  3.5568181536476060e+00 -3.0122150649516644e-01 1.8167534426515874e-02  3.9283261086049976e+00 -3.0107299739285570e-01 1.8182740376643088e-02  4.2997952222210687e+00 -3.0102046894649309e-01 1.8186477121092840e-02  4.6712564113040624e+00 -3.0099593309497336e-01 1.8186907224392108e-02  5.0427172006557663e+00 -3.0097725038791862e-01 1.8187349214714470e-02  5.4141766531565132e+00 -3.0096319735859078e-01 1.8188032311048045e-02  5.7856340290178814e+00 -3.0095455361904877e-01 1.8188560169149368e-02  6.1570898956303637e+00 -3.0095007720009181e-01 1.8188822907701498e-02  6.5285450584756708e+00 -3.0094806412420466e-01 1.8188917535341454e-02  6.9000000000000021e+00 -3.0094749952729077e-01 1.8188938417076517e-02  0.0000000000000000e+00 0.0000000000000000e+00 0.0000000000000000e+00  1.9927714617589531e-01 -1.7524942097106436e-01 2.8508032297158415e-02  4.0108121106595268e-01 -3.4007552834606303e-01 2.4136178483218283e-02  6.0765291253917086e-01 -4.7347385677936293e-01 3.4557362118526343e-02  9.3678403865760485e-01 -5.2074476368374223e-01 1.7407662916174446e-02  1.3187768916083589e+00 -4.9927349433234364e-01 1.4971172902623626e-02  1.6973221132067473e+00 -4.8655989683275058e-01 1.6607796746163129e-02  2.0710130280478554e+00 -4.8295146320198040e-01 1.7280369000103074e-02  2.4423909319116026e+00 -4.8311409168914987e-01 1.7588316022678983e-02  2.8135511671923084e+00 -4.8347994125063837e-01 1.7622478873309783e-02  3.1850793330139417e+00 -4.8323916940093209e-01 1.7630366306265955e-02  3.5567197985480972e+00 -4.8286999274659498e-01 1.7662898194782752e-02  3.9282868085301983e+00 -4.8265867370170185e-01 1.7690800591811478e-02  4.2997816746456063e+00 -4.8257918318614840e-01 1.7704833719450447e-02  4.6712487699001253e+00 -4.8254929321177287e-01 1.7709809920575612e-02  5.0427109394269856e+00 -4.8252995747697586e-01 1.7711483691469861e-02  5.4141721722702130e+00 -4.8251452346380319e-01 1.7712396532759651e-02  5.7856314540971123e+00 -4.8250417667842044e-01 1.7713046023915522e-02  6.1570886518068555e+00 -4.8249856394836227e-01 1.7713438526919523e-02  6.5285445751390832e+00 -4.8249605374656107e-01 1.7713617363234482e-02  6.9000000000000021e+00 -4.8249536566314483e-01 1.7713669753409062e-02  0.0000000000000000e+00 0.0000000000000000e+00 0.0000000000000000e+00  2.1572125368766751e-01 2.0700357483081838e-01 1.9164831807966066e-02  4.0946513272330842e-01 3.9498489058005232e-01 1.7645816101500501e-02  6.3547288001652324e-01 5.4769718751372098e-01 1.6464949519617168e-02  9.5431183658593832e-01 6.1297245534716682e-01 1.6069962659421073e-02  1.3224562650996186e+00 6.1415762823908981e-01 1.3147376706529769e-02  1.6999545114989527e+00 6.0427339009678749e-01 1.1079063963299425e-02  2.0732905773019534e+00 6.0249374705014180e-01 1.1023700670896879e-02  2.4438547490606792e+00 6.0457403516355657e-01 1.1488799930288878e-02  2.8144232077946754e+00 6.0614399602440527e-01 1.1688929353404518e-02  3.1855614813172091e+00 6.0666198442470509e-01 1.1695992224124150e-02  3.5569841947365086e+00 6.0673084856170889e-01 1.1672280071803575e-02  3.9284445810519801e+00 6.0675216215738526e-01 1.1668082072830535e-02  4.2998809252209957e+00 6.0680546006424829e-01 1.1673954061134665e-02  4.6713099004383905e+00 6.0685883982295452e-01 1.1678340666814674e-02  5.0427471049771233e+00 6.0689164715861965e-01 1.1679234132148861e-02  5.4141931205565381e+00 6.0690732919068258e-01 1.1678629040446632e-02  5.7856434712290810e+00 6.0691484915609850e-01 1.1678042943802850e-02  6.1570952458783310e+00 6.0691918264087719e-01 1.1677793536006615e-02  6.5285475083412203e+00 6.0692170893937614e-01 1.1677732678445754e-02  6.9000000000000021e+00 6.0692255391739469e-01 1.1677732776837823e-02  0.0000000000000000e+00 0.0000000000000000e+00 0.0000000000000000e+00  1.0388924661921822e-01 8.1568579746867320e-02 2.0961646584977251e-02  3.1167588438798904e-01 2.8881380608175822e-01 2.0333584145611674e-02  5.9700950928416074e-01 4.0610488979282100e-01 1.7292125013763780e-02  9.5105831615954517e-01 4.3650671126796403e-01 1.2465457791923200e-02  1.3270799792990697e+00 4.2707368061914491e-01 1.0258452413037260e-02  1.7014819092219038e+00 4.2049569943455634e-01 1.1051575423414964e-02  2.0725280580915273e+00 4.2153557397009001e-01 1.1400967438133963e-02  2.4431039761529405e+00 4.2379780447278032e-01 1.1313936012706215e-02  2.8141445020813354e+00 4.2489980038684622e-01 1.1236075301848981e-02  3.1855216050309521e+00 4.2515002379988354e-01 1.1202728937926783e-02  3.5569815861624456e+00 4.2517330513982499e-01 1.1200145289345594e-02  3.9284264741762160e+00 4.2521526028595574e-01 1.1204010682165188e-02  4.2998586271534007e+00 4.2527817198473827e-01 1.1205138052528736e-02  4.6712950696550939e+00 4.2532615781971356e-01 1.1204248734844340e-02  5.0427399156524642e+00 4.2535158253305200e-01 1.1203260991372853e-02  5.4141898182557737e+00 4.2536337500188381e-01 1.1202787405611673e-02  5.7856416147644536e+00 4.2536960724635442e-01 1.1202629718039014e-02  6.1570940737896178e+00 4.2537351123425537e-01 1.1202557331694419e-02  6.5285469221670587e+00 4.2537578550655153e-01 1.1202504715061457e-02  6.9000000000000021e+00 4.2537653812398774e-01 1.1202483019458009e-02  0.0000000000000000e+00 0.0000000000000000e+00 0.0000000000000000e+00  2.7032944547968545e-02 1.3837966924451828e-02 1.5894053774064481e-02  2.4248009002637308e-01 1.6808046238200750e-01 1.6568849534313895e-02  5.7507446110683791e-01 2.3993215246968017e-01 1.3637128115319532e-02  9.5261250444726386e-01 2.4827118994958775e-01 7.5236198139416966e-03  1.3307773338439530e+00 2.4099034815989653e-01 9.3725656021223878e-03  1.7018097481711354e+00 2.3936833373597594e-01 1.1349226760416536e-02  2.0716903901281825e+00 2.4099029930619842e-01 1.1278962785118014e-02  2.4425236711506297e+00 2.4265711302233003e-01 1.0938448385396198e-02  2.8139617787119406e+00 2.4339132115270218e-01 1.0762601573703031e-02  3.1854969787686191e+00 2.4357068139119961e-01 1.0726193247972925e-02  3.5569701118671664e+00 2.4362421067458817e-01 1.0733476823220834e-02  3.9284038439522755e+00 2.4368635437908384e-01 1.0736276098601708e-02  4.2998377308546409e+00 2.4374689714086603e-01 1.0732714700412926e-02  4.6712826796525828e+00 2.4378675419129528e-01 1.0729019979883460e-02  5.0427340173204698e+00 2.4380747204159320e-01 1.0727464779023884e-02  5.4141869037855406e+00 2.4381783832808973e-01 1.0727244227349922e-02  5.7856398675838623e+00 2.4382373907264610e-01 1.0727313183680963e-02  6.1570929834392905e+00 2.4382739141159207e-01 1.0727313469724980e-02  6.5285463916858486e+00 2.4382942452327694e-01 1.0727265651265510e-02  6.9000000000000021e+00 2.4383007724878444e-01 1.0727240287755778e-02  0.0000000000000000e+00 0.0000000000000000e+00 0.0000000000000000e+00  1.2758930352563176e-02 1.4070110975937503e-02 1.3102090875972737e-02  1.9444321571689838e-01 1.2685042647810472e-02 1.9926132100718846e-02  5.6684301711049190e-01 5.1101421532251542e-02 4.7623006211676708e-03  9.5492148390056630e-01 5.4046610660866475e-02 6.1765245783367891e-03  1.3312105068354319e+00 5.7435643620374031e-02 1.0191970472850604e-02  1.7014423610061931e+00 5.9484869662938512e-02 1.1030378322580362e-02  2.0711548452267285e+00 6.0525751247214328e-02 1.0833181707276708e-02  2.4421765754181419e+00 6.1235730738085935e-02 1.0462149799368872e-02  2.8138246244378400e+00 6.1700500811071125e-02 1.0277112340288551e-02  3.1854500530332932e+00 6.1946311167468099e-02 1.0253301149436792e-02  3.5569415273906482e+00 6.2077913784052870e-02 1.0262112675775257e-02  3.9283793293421572e+00 6.2158513342081743e-02 1.0262478245280468e-02  4.2998202256537796e+00 6.2209926329458751e-02 1.0257135604906778e-02  4.6712725164453506e+00 6.2241472543235345e-02 1.0253095088761098e-02  5.0427286192322764e+00 6.2260090209822663e-02 1.0251820422199857e-02  5.4141839205148576e+00 6.2270914155227168e-02 1.0251839562047020e-02  5.7856380959105547e+00 6.2277205039328452e-02 1.0252010411110237e-02  6.1570919564106781e+00 6.2280796448471461e-02 1.0252049271750155e-02  6.5285459182034407e+00 6.2282647244326500e-02 1.0252021598774209e-02  6.9000000000000021e+00 6.2283220311181067e-02 1.0252004364531844e-02  0.0000000000000000e+00 0.0000000000000000e+00 0.0000000000000000e+00  3.5760103345279320e-02 1.1713283959105018e-03 1.7564388287417042e-02  2.1547589310066531e-01 -1.0759262718152951e-01 2.1037664036081170e-02  5.6566275869820370e-01 -1.5726817337053578e-01 2.2246790409819737e-03  9.5202220991043707e-01 -1.3781358105492300e-01 8.2876492539670256e-03  1.3290484699847249e+00 -1.2580484526226510e-01 9.7951581707354709e-03  1.7006406874445226e+00 -1.2070939411379883e-01 1.0306491722641489e-02  2.0710208819372777e+00 -1.2006844822455698e-01 1.0212481142756934e-02  2.4420764088925768e+00 -1.2026832700607505e-01 9.9149918763381008e-03  2.8137004092603259e+00 -1.2006008803650908e-01 9.7806087409349832e-03  3.1853602501058456e+00 -1.1971262324140451e-01 9.7697591334644437e-03  3.5568915828719350e+00 -1.1948290711157104e-01 9.7805417398658129e-03  3.9283540470934848e+00 -1.1937794318165454e-01 9.7826492573259375e-03  4.2998065076925363e+00 -1.1933330950505704e-01 9.7792591320867862e-03  4.6712639752638614e+00 -1.1930791555929990e-01 9.7767560830869862e-03  5.0427230968034458e+00 -1.1928970642988021e-01 9.7761942550549444e-03  5.4141805497947626e+00 -1.1927738868771041e-01 9.7764341859767206e-03  5.7856361849921836e+00 -1.1927015020507178e-01 9.7766799554796675e-03  6.1570909510840721e+00 -1.1926633352219607e-01 9.7767684009553036e-03  6.5285454852798388e+00 -1.1926452489199500e-01 9.7767780363443319e-03  6.9000000000000021e+00 -1.1926399030874869e-01 9.7767742306802633e-03  0.0000000000000000e+00 0.0000000000000000e+00 0.0000000000000000e+00  9.0366270999559156e-02 -4.7982166100245333e-02 2.1641259950479916e-02  3.0532107417083770e-01 -2.2972390754612740e-01 1.3858904420023847e-02  5.7068374124704735e-01 -3.3871601358129894e-01 1.4051846063223912e-02  9.4506966811607618e-01 -3.3032295807692663e-01 7.2300458778882986e-03  1.3248857201782798e+00 -3.1065400676038291e-01 8.9673550860705654e-03  1.6993466437665601e+00 -3.0233757121329013e-01 9.3701450362932339e-03  2.0711150605548223e+00 -3.0103153982676673e-01 9.3917917792622190e-03  2.4421873213615264e+00 -3.0167111447887512e-01 9.3135753876960031e-03  2.8136002569755245e+00 -3.0176910562482989e-01 9.2680145224380926e-03  3.1852293899782285e+00 -3.0139905721912441e-01 9.2709507254512200e-03  3.5568178695666912e+00 -3.0107938185279404e-01 9.2887695876735510e-03  3.9283253917442154e+00 -3.0093357010893412e-01 9.2976833858090940e-03  4.2997949272700735e+00 -3.0088320752652287e-01 9.2997457733822314e-03  4.6712563653619457e+00 -3.0085963222161805e-01 9.3001042854540025e-03  5.0427171934656041e+00 -3.0084118997100651e-01 9.3005067895758943e-03  5.4141766345224278e+00 -3.0082716599665071e-01 9.3009861948588901e-03  5.7856340113927729e+00 -3.0081853800432906e-01 9.3013195165368000e-03  6.1570898875066176e+00 -3.0081408446987140e-01 9.3014767576199472e-03  6.5285450571378911e+00 -3.0081208718099184e-01 9.3015331537552870e-03  6.9000000000000021e+00 -3.0081152917109794e-01 9.3015469079321313e-03  0.0000000000000000e+00 0.0000000000000000e+00 0.0000000000000000e+00  1.9871509577603133e-01 -1.7451247458924019e-01 1.8363835469579870e-02  4.0398877559296836e-01 -3.4332406248881064e-01 1.4207110024201193e-02  6.0957908006025074e-01 -4.7438168879040821e-01 1.9738953452598379e-02  9.3663479777716463e-01 -5.2165282035731098e-01 9.2376393927317731e-03  1.3190260536388698e+00 -4.9838150058674197e-01 7.1978522537062151e-03  1.6973529618052194e+00 -4.8612503978756394e-01 8.1360013154651578e-03  2.0710439201214688e+00 -4.8269599894343157e-01 8.4432516614739595e-03  2.4424229480052420e+00 -4.8293123684773365e-01 8.6537450489829540e-03  2.8135652317809856e+00 -4.8332610749399424e-