<?xml version="1.0"?>
<VTKFile type="UnstructuredGrid"  version="0.1"  >
<UnstructuredGrid>
<Piece  NumberOfPoints="588" NumberOfCells="2160">
<Points>
<DataArray  type="Float64"  NumberOfComponents="3"  format="ascii">0 0 0  0.5 0 0  1 0 0  1.5 0 0  2 0 0  2.5 0 0  3 0 0  3.5 0 0  4 0 0  4.5 0 0  5 0 0  5.5 0 0  6 0 0  6.5 0 0  7 0 0  7.5 0 0  8 0 0  8.5 0 0  9 0 0  9.5 0 0  10 0 0  0 0.5 0  0.5 0.5 0  1 0.5 0  1.5 0.5 0  2 0.5 0  2.5 0.5 0  3 0.5 0  3.5 0.5 0  4 0.5 0  4.5 0.5 0  5 0.5 0  5.5 0.5 0  6 0.5 0  6.5 0.5 0  7 0.5 0  7.5 0.5 0  8 0.5 0  8.5 0.5 0  9 0.5 0  9.5 0.5 0  10 0.5 0  0 1 0  0.5 1 0  1 1 0  1.5 1 0  2 1 0  2.5 1 0  3 1 0  3.5 1 0  4 1 0  4.5 1 0  5 1 0  5.5 1 0  6 1 0  6.5 1 0  7 1 0  7.5 1 0  8 1 0  8.5 1 0  9 1 0  9.5 1 0  10 1 0  0 1.5 0  0.5 1.5 0  1 1.5 0  1.5 1.5 0  2 1.5 0  2.5 1.5 0  3 1.5 0  3.5 1.5 0  4 1.5 0  4.5 1.5 0  5 1.5 0  5.5 1.5 0  6 1.5 0  6.5 1.5 0  7 1.5 0  7.5 1.5 0  8 1.5 0  8.5 1.5 0  9 1.5 0  9.5 1.5 0  10 1.5 0  0 2 0  0.5 2 0  1 2 0  1.5 2 0  2 2 0  2.5 2 0  3 2 0  3.5 2 0  4 2 0  4.5 2 0  5 2 0  5.5 2 0  6 2 0  6.5 2 0  7 2 0  7.5 2 0  8 2 0  8.5 2 0  9 2 0  9.5 2 0  10 2 0  0 2.5 0  0.5 2.5 0  1 2.5 0  1.5 2.5 0  2 2.5 0  2.5 2.5 0  3 2.5 0  3.5 2.5 0  4 2.5 0  4.5 2.5 0  5 2.5 0  5.5 2.5 0  6 2.5 0  6.5 2.5 0  7 2.5 0  7.5 2.5 0  8 2.5 0  8.5 2.5 0  9 2.5 0  9.5 2.5 0  10 2.5 0  0 3 0  0.5 3 0  1 3 0  1.5 3 0  2 3 0  2.5 3 0  3 3 0  3.5 3 0  4 3 0  4.5 3 0  5 3 0  5.5 3 0  6 3 0  6.5 3 0  7 3 0  7.5 3 0  8 3 0  8.5 3 0  9 3 0  9.5 3 0  10 3 0  0 0 0.1666666666666667  0.5 0 0.1666666666666667  1 0 0.1666666666666667  1.5 0 0.1666666666666667  2 0 0.1666666666666667  2.5 0 0.1666666666666667  3 0 0.1666666666666667  3.5 0 0.1666666666666667  4 0 0.1666666666666667  4.5 0 0.1666666666666667  5 0 0.1666666666666667  5.5 0 0.1666666666666667  6 0 0.1666666666666667  6.5 0 0.1666666666666667  7 0 0.1666666666666667  7.5 0 0.1666666666666667  8 0 0.1666666666666667  8.5 0 0.1666666666666667  9 0 0.1666666666666667  9.5 0 0.1666666666666667  10 0 0.1666666666666667  0 0.5 0.1666666666666667  0.5 0.5 0.1666666666666667  1 0.5 0.1666666666666667  1.5 0.5 0.1666666666666667  2 0.5 0.1666666666666667  2.5 0.5 0.1666666666666667  3 0.5 0.1666666666666667  3.5 0.5 0.1666666666666667  4 0.5 0.1666666666666667  4.5 0.5 0.1666666666666667  5 0.5 0.1666666666666667  5.5 0.5 0.1666666666666667  6 0.5 0.1666666666666667  6.5 0.5 0.1666666666666667  7 0.5 0.1666666666666667  7.5 0.5 0.1666666666666667  8 0.5 0.1666666666666667  8.5 0.5 0.1666666666666667  9 0.5 0.1666666666666667  9.5 0.5 0.1666666666666667  10 0.5 0.1666666666666667  0 1 0.1666666666666667  0.5 1 0.1666666666666667  1 1 0.1666666666666667  1.5 1 0.1666666666666667  2 1 0.1666666666666667  2.5 1 0.1666666666666667  3 1 0.1666666666666667  3.5 1 0.1666666666666667  4 1 0.1666666666666667  4.5 1 0.1666666666666667  5 1 0.1666666666666667  5.5 1 0.1666666666666667  6 1 0.1666666666666667  6.5 1 0.1666666666666667  7 1 0.1666666666666667  7.5 1 0.1666666666666667  8 1 0.1666666666666667  8.5 1 0.1666666666666667  9 1 0.1666666666666667  9.5 1 0.1666666666666667  10 1 0.1666666666666667  0 1.5 0.1666666666666667  0.5 1.5 0.1666666666666667  1 1.5 0.1666666666666667  1.5 1.5 0.1666666666666667  2 1.5 0.1666666666666667  2.5 1.5 0.1666666666666667  3 1.5 0.1666666666666667  3.5 1.5 0.1666666666666667  4 1.5 0.1666666666666667  4.5 1.5 0.1666666666666667  5 1.5 0.1666666666666667  5.5 1.5 0.1666666666666667  6 1.5 0.1666666666666667  6.5 1.5 0.1666666666666667  7 1.5 0.1666666666666667  7.5 1.5 0.1666666666666667  8 1.5 0.1666666666666667  8.5 1.5 0.1666666666666667  9 1.5 0.1666666666666667  9.5 1.5 0.1666666666666667  10 1.5 0.1666666666666667  0 2 0.1666666666666667  0.5 2 0.1666666666666667  1 2 0.1666666666666667  1.5 2 0.1666666666666667  2 2 0.1666666666666667  2.5 2 0.1666666666666667  3 2 0.1666666666666667  3.5 2 0.1666666666666667  4 2 0.1666666666666667  4.5 2 0.1666666666666667  5 2 0.1666666666666667  5.5 2 0.1666666666666667  6 2 0.1666666666666667  6.5 2 0.1666666666666667  7 2 0.1666666666666667  7.5 2 0.1666666666666667  8 2 0.1666666666666667  8.5 2 0.1666666666666667  9 2 0.1666666666666667  9.5 2 0.1666666666666667  10 2 0.1666666666666667  0 2.5 0.1666666666666667  0.5 2.5 0.1666666666666667  1 2.5 0.1666666666666667  1.5 2.5 0.1666666666666667  2 2.5 0.1666666666666667  2.5 2.5 0.1666666666666667  3 2.5 0.1666666666666667  3.5 2.5 0.1666666666666667  4 2.5 0.1666666666666667  4.5 2.5 0.1666666666666667  5 2.5 0.1666666666666667  5.5 2.5 0.1666666666666667  6 2.5 0.1666666666666667  6.5 2.5 0.1666666666666667  7 2.5 0.1666666666666667  7.5 2.5 0.1666666666666667  8 2.5 0.1666666666666667  8.5 2.5 0.1666666666666667  9 2.5 0.1666666666666667  9.5 2.5 0.1666666666666667  10 2.5 0.1666666666666667  0 3 0.1666666666666667  0.5 3 0.1666666666666667  1 3 0.1666666666666667  1.5 3 0.1666666666666667  2 3 0.1666666666666667  2.5 3 0.1666666666666667  3 3 0.1666666666666667  3.5 3 0.1666666666666667  4 3 0.1666666666666667  4.5 3 0.1666666666666667  5 3 0.1666666666666667  5.5 3 0.1666666666666667  6 3 0.1666666666666667  6.5 3 0.1666666666666667  7 3 0.1666666666666667  7.5 3 0.1666666666666667  8 3 0.1666666666666667  8.5 3 0.1666666666666667  9 3 0.1666666666666667  9.5 3 0.1666666666666667  10 3 0.1666666666666667  0 0 0.3333333333333333  0.5 0 0.3333333333333333  1 0 0.3333333333333333  1.5 0 0.3333333333333333  2 0 0.3333333333333333  2.5 0 0.3333333333333333  3 0 0.3333333333333333  3.5 0 0.3333333333333333  4 0 0.3333333333333333  4.5 0 0.3333333333333333  5 0 0.3333333333333333  5.5 0 0.3333333333333333  6 0 0.3333333333333333  6.5 0 0.3333333333333333  7 0 0.3333333333333333  7.5 0 0.3333333333333333  8 0 0.3333333333333333  8.5 0 0.3333333333333333  9 0 0.3333333333333333  9.5 0 0.3333333333333333  10 0 0.3333333333333333  0 0.5 0.3333333333333333  0.5 0.5 0.3333333333333333  1 0.5 0.3333333333333333  1.5 0.5 0.3333333333333333  2 0.5 0.3333333333333333  2.5 0.5 0.3333333333333333  3 0.5 0.3333333333333333  3.5 0.5 0.3333333333333333  4 0.5 0.3333333333333333  4.5 0.5 0.3333333333333333  5 0.5 0.3333333333333333  5.5 0.5 0.3333333333333333  6 0.5 0.3333333333333333  6.5 0.5 0.3333333333333333  7 0.5 0.3333333333333333  7.5 0.5 0.3333333333333333  8 0.5 0.3333333333333333  8.5 0.5 0.3333333333333333  9 0.5 0.3333333333333333  9.5 0.5 0.3333333333333333  10 0.5 0.3333333333333333  0 1 0.3333333333333333  0.5 1 0.3333333333333333  1 1 0.3333333333333333  1.5 1 0.3333333333333333  2 1 0.3333333333333333  2.5 1 0.3333333333333333  3 1 0.3333333333333333  3.5 1 0.3333333333333333  4 1 0.3333333333333333  4.5 1 0.3333333333333333  5 1 0.3333333333333333  5.5 1 0.3333333333333333  6 1 0.3333333333333333  6.5 1 0.3333333333333333  7 1 0.3333333333333333  7.5 1 0.3333333333333333  8 1 0.3333333333333333  8.5 1 0.3333333333333333  9 1 0.3333333333333333  9.5 1 0.3333333333333333  10 1 0.3333333333333333  0 1.5 0.3333333333333333  0.5 1.5 0.3333333333333333  1 1.5 0.3333333333333333  1.5 1.5 0.3333333333333333  2 1.5 0.3333333333333333  2.5 1.5 0.3333333333333333  3 1.5 0.3333333333333333  3.5 1.5 0.3333333333333333  4 1.5 0.3333333333333333  4.5 1.5 0.3333333333333333  5 1.5 0.3333333333333333  5.5 1.5 0.3333333333333333  6 1.5 0.3333333333333333  6.5 1.5 0.3333333333333333  7 1.5 0.3333333333333333  7.5 1.5 0.3333333333333333  8 1.5 0.3333333333333333  8.5 1.5 0.3333333333333333  9 1.5 0.3333333333333333  9.5 1.5 0.3333333333333333  10 1.5 0.3333333333333333  0 2 0.3333333333333333  0.5 2 0.3333333333333333  1 2 0.3333333333333333  1.5 2 0.3333333333333333  2 2 0.3333333333333333  2.5 2 0.3333333333333333  3 2 0.3333333333333333  3.5 2 0.3333333333333333  4 2 0.3333333333333333  4.5 2 0.3333333333333333  5 2 0.3333333333333333  5.5 2 0.3333333333333333  6 2 0.3333333333333333  6.5 2 0.3333333333333333  7 2 0.3333333333333333  7.5 2 0.3333333333333333  8 2 0.3333333333333333  8.5 2 0.3333333333333333  9 2 0.3333333333333333  9.5 2 0.3333333333333333  10 2 0.3333333333333333  0 2.5 0.3333333333333333  0.5 2.5 0.3333333333333333  1 2.5 0.3333333333333333  1.5 2.5 0.3333333333333333  2 2.5 0.3333333333333333  2.5 2.5 0.3333333333333333  3 2.5 0.3333333333333333  3.5 2.5 0.3333333333333333  4 2.5 0.3333333333333333  4.5 2.5 0.3333333333333333  5 2.5 0.3333333333333333  5.5 2.5 0.3333333333333333  6 2.5 0.3333333333333333  6.5 2.5 0.3333333333333333  7 2.5 0.3333333333333333  7.5 2.5 0.3333333333333333  8 2.5 0.3333333333333333  8.5 2.5 0.3333333333333333  9 2.5 0.3333333333333333  9.5 2.5 0.3333333333333333  10 2.5 0.3333333333333333  0 3 0.3333333333333333  0.5 3 0.3333333333333333  1 3 0.3333333333333333  1.5 3 0.3333333333333333  2 3 0.3333333333333333  2.5 3 0.3333333333333333  3 3 0.3333333333333333  3.5 3 0.3333333333333333  4 3 0.3333333333333333  4.5 3 0.3333333333333333  5 3 0.3333333333333333  5.5 3 0.3333333333333333  6 3 0.3333333333333333  6.5 3 0.3333333333333333  7 3 0.3333333333333333  7.5 3 0.3333333333333333  8 3 0.3333333333333333  8.5 3 0.3333333333333333  9 3 0.3333333333333333  9.5 3 0.3333333333333333  10 3 0.3333333333333333  0 0 0.5  0.5 0 0.5  1 0 0.5  1.5 0 0.5  2 0 0.5  2.5 0 0.5  3 0 0.5  3.5 0 0.5  4 0 0.5  4.5 0 0.5  5 0 0.5  5.5 0 0.5  6 0 0.5  6.5 0 0.5  7 0 0.5  7.5 0 0.5  8 0 0.5  8.5 0 0.5  9 0 0.5  9.5 0 0.5  10 0 0.5  0 0.5 0.5  0.5 0.5 0.5  1 0.5 0.5  1.5 0.5 0.5  2 0.5 0.5  2.5 0.5 0.5  3 0.5 0.5  3.5 0.5 0.5  4 0.5 0.5  4.5 0.5 0.5  5 0.5 0.5  5.5 0.5 0.5  6 0.5 0.5  6.5 0.5 0.5  7 0.5 0.5  7.5 0.5 0.5  8 0.5 0.5  8.5 0.5 0.5  9 0.5 0.5  9.5 0.5 0.5  10 0.5 0.5  0 1 0.5  0.5 1 0.5  1 1 0.5  1.5 1 0.5  2 1 0.5  2.5 1 0.5  3 1 0.5  3.5 1 0.5  4 1 0.5  4.5 1 0.5  5 1 0.5  5.5 1 0.5  6 1 0.5  6.5 1 0.5  7 1 0.5  7.5 1 0.5  8 1 0.5  8.5 1 0.5  9 1 0.5  9.5 1 0.5  10 1 0.5  0 1.5 0.5  0.5 1.5 0.5  1 1.5 0.5  1.5 1.5 0.5  2 1.5 0.5  2.5 1.5 0.5  3 1.5 0.5  3.5 1.5 0.5  4 1.5 0.5  4.5 1.5 0.5  5 1.5 0.5  5.5 1.5 0.5  6 1.5 0.5  6.5 1.5 0.5  7 1.5 0.5  7.5 1.5 0.5  8 1.5 0.5  8.
[...]
<PointData  Vectors="f_7-0"> 
<DataArray  type="Float64"  Name="f_7-0"  NumberOfComponents="3" format="ascii">0.0000000000000000e+00 0.0000000000000000e+00 0.0000000000000000e+00  5.4768175076324266e-01 4.5954129003646693e-01 8.6360885453549710e-02  1.3395557060004895e+00 5.1663185626130537e-01 8.7910862975791274e-02  2.1435475547528231e+00 5.2149294401945923e-01 8.8605143904109521e-02  2.9553293058177927e+00 5.2165198186296147e-01 8.8729785143882606e-02  3.7699193565537712e+00 5.2154740617789297e-01 8.8778187122064270e-02  4.5851281721775061e+00 5.2149735217438475e-01 8.8787309106114043e-02  5.4004643996283956e+00 5.2147598391160921e-01 8.8787496013392447e-02  6.2158242056901010e+00 5.2146614354470278e-01 8.8786843960596468e-02  7.0311832868447270e+00 5.2146132866912320e-01 8.8786269416683453e-02  7.8465376869771370e+00 5.2145884592917646e-01 8.8785887506600464e-02  8.6618883140564336e+00 5.2145751376439531e-01 8.8785667368542542e-02  9.4772365285265430e+00 5.2145678410912599e-01 8.8785546483005753e-02  1.0292583310357452e+01 5.2145638076616219e-01 8.8785480714801218e-02  1.1107929268595271e+01 5.2145615679363766e-01 8.8785445016974912e-02  1.1923274761063530e+01 5.2145603222328007e-01 8.8785425639322485e-02  1.2738619992511707e+01 5.2145596304191011e-01 8.8785415110354066e-02  1.3553965078873292e+01 5.2145592491795334e-01 8.8785409411590521e-02  1.4369310085908291e+01 5.2145590446380641e-01 8.8785406395475761e-02  1.5184655051690816e+01 5.2145589451619545e-01 8.8785404945916510e-02  1.6000000000000007e+01 5.2145589155137162e-01 8.8785404493321909e-02  0.0000000000000000e+00 0.0000000000000000e+00 0.0000000000000000e+00  5.2592287455199982e-01 2.9559837250295551e-01 9.0275799069397505e-02  1.3300931480997888e+00 3.4478589820694133e-01 8.8973251397320929e-02  2.1408835708861766e+00 3.4814837075771193e-01 8.8983916985070521e-02  2.9546577583252227e+00 3.4800496807227826e-01 8.8989720403418737e-02  3.7697749755939189e+00 3.4783212093723964e-01 8.8995987155199907e-02  4.5850997028036007e+00 3.4776479309611030e-01 8.8999919031609365e-02  5.4004621289583401e+00 3.4774041343962936e-01 8.9000162137573599e-02  6.2158270196162242e+00 3.4773082361859586e-01 8.8999590086486766e-02  7.0311860067544432e+00 3.4772662445709279e-01 8.8999160407701505e-02  7.8465395125769657e+00 3.4772461130085902e-01 8.8998902776024888e-02  8.6618894175414045e+00 3.4772357915216512e-01 8.8998752117952926e-02  9.4772371680611283e+00 3.4772302785019438e-01 8.8998666594329270e-02  1.0292583673626970e+01 3.4772272691884626e-01 8.8998619038592755e-02  1.1107929472844804e+01 3.4772256084900727e-01 8.8998592736206653e-02  1.1923274875205529e+01 3.4772246876280832e-01 8.8998578200175052e-02  1.2738620055866088e+01 3.4772241769338352e-01 8.8998570183073125e-02  1.3553965113484486e+01 3.4772238956662788e-01 8.8998565793817153e-02  1.4369310103879442e+01 3.4772237448046506e-01 8.8998563451267942e-02  1.5184655059330103e+01 3.4772236713829890e-01 8.8998562324411612e-02  1.6000000000000007e+01 3.4772236496149828e-01 8.8998561992055136e-02  0.0000000000000000e+00 0.0000000000000000e+00 0.0000000000000000e+00  5.1329138779208039e-01 1.4469629382699917e-01 9.3149017940297382e-02  1.3171690992391589e+00 1.7253074351106135e-01 8.9848906840704929e-02  2.1364552926642189e+00 1.7442879857081248e-01 8.9385489177216518e-02  2.9534424809116420e+00 1.7421584621813585e-01 8.9248548390653604e-02  3.7694912835419374e+00 1.7407417730407759e-01 8.9222951560968849e-02  4.5850428450322926e+00 1.7402142733502016e-01 8.9215519729439044e-02  5.4004601139367159e+00 1.7400255939987724e-01 8.9213112502198100e-02  6.2158346939874258e+00 1.7399519021077764e-01 8.9212307692001933e-02  7.0311926992823146e+00 1.7399201106598602e-01 8.9212009361468558e-02  7.8465439024440871e+00 1.7399050385098377e-01 8.9211876048664471e-02  8.6618920510666104e+00 1.7398973633854517e-01 8.9211806278693240e-02  9.4772386889141309e+00 1.7398932825087221e-01 8.9211767894176563e-02  1.0292584535919666e+01 1.7398910609595911e-01 8.9211746347235027e-02  1.1107929957266801e+01 1.7398898368979740e-01 8.9211734100368131e-02  1.1923275145819749e+01 1.7398891587915583e-01 8.9211727132601129e-02  1.2738620206046074e+01 1.7398887829440673e-01 8.9211723191807840e-02  1.3553965195526185e+01 1.7398885760162022e-01 8.9211720990771667e-02  1.4369310146484741e+01 1.7398884650494634e-01 8.9211719799642333e-02  1.5184655077431200e+01 1.7398884110246626e-01 8.9211719232796874e-02  1.6000000000000007e+01 1.7398883949071015e-01 8.9211719062013417e-02  0.0000000000000000e+00 0.0000000000000000e+00 0.0000000000000000e+00  5.0971956114052175e-01 1.0876201580434573e-03 9.3936304052727043e-02  1.3115709921178691e+00 4.4538157582490155e-04 9.0249509435616021e-02  2.1347463428543625e+00 3.2703583287762883e-04 8.9664881629386822e-02  2.9530281812497656e+00 2.8940748898749193e-04 8.9473077863462910e-02  3.7694197709280606e+00 2.7949808056806208e-04 8.9437895885806418e-02  4.5850538780942562e+00 2.6932413994048264e-04 8.9428094625116569e-02  5.4004825861414671e+00 2.6318677257662930e-04 8.9425338887281547e-02  6.2158518721537499e+00 2.5972616086728114e-04 8.9424852399596161e-02  7.0312034890779369e+00 2.5778075854979501e-04 8.9424811469034915e-02  7.8465502648140770e+00 2.5668870126378888e-04 8.9424830555106111e-02  8.6618956994680225e+00 2.5607792236994324e-04 8.9424850378429024e-02  9.4772407507018777e+00 2.5573734311319326e-04 8.9424863039446092e-02  1.0292585692666998e+01 2.5554745411132120e-04 8.9424869708173566e-02  1.1107930603819433e+01 2.5544162052919473e-04 8.9424872963622490e-02  1.1923275506103915e+01 2.5538269490050022e-04 8.9424874522895603e-02  1.2738620405742241e+01 2.5534996893029557e-04 8.9424875267460874e-02  1.3553965304556227e+01 2.5533193909250826e-04 8.9424875624188674e-02  1.4369310203093335e+01 2.5532226848887018e-04 8.9424875796643696e-02  1.5184655101501741e+01 2.5531755563975157e-04 8.9424875889891675e-02  1.6000000000000007e+01 2.5531614438345821e-04 8.9424875913413554e-02  0.0000000000000000e+00 0.0000000000000000e+00 0.0000000000000000e+00  5.1496789222391193e-01 -1.4208249991303276e-01 9.3221969378182792e-02  1.3169315558399499e+00 -1.7177247171441615e-01 9.0269081986026595e-02  2.1371717647833974e+00 -1.7377274329397985e-01 8.9740850568661670e-02  2.9539095193281013e+00 -1.7359962745158219e-01 8.9640127318211832e-02  3.7697298944519688e+00 -1.7350439529513664e-01 8.9637035715154481e-02  4.5851770946746120e+00 -1.7347835157427649e-01 8.9636799513869256e-02  5.4005366620562416e+00 -1.7347363336027796e-01 8.9636739207601332e-02  6.2158778497345351e+00 -1.7347432422988524e-01 8.9637294639846571e-02  7.0312167382818576e+00 -1.7347568017479342e-01 8.9637629135965846e-02  7.8465573257142402e+00 -1.7347670244929017e-01 8.9637809211478792e-02  8.6618995453284775e+00 -1.7347734440510024e-01 8.9637910777564625e-02  9.4772428679422251e+00 -1.7347772206296108e-01 8.9637966901680438e-02  1.0292586865270444e+01 -1.7347793795334862e-01 8.9637997316694334e-02  1.1107931255024651e+01 -1.7347805961290486e-01 8.9638013836463540e-02  1.1923275867802063e+01 -1.7347812768198839e-01 8.9638022856880370e-02  1.2738620605897740e+01 -1.7347816556254117e-01 8.9638027786367938e-02  1.3553965413752387e+01 -1.7347818644604796e-01 8.9638030468286944e-02  1.4369310259771837e+01 -1.7347819764992833e-01 8.9638031896029424e-02  1.5184655125607071e+01 -1.7347820311069553e-01 8.9638032600162509e-02  1.6000000000000007e+01 -1.7347820474899497e-01 8.9638032804920179e-02  0.0000000000000000e+00 0.0000000000000000e+00 0.0000000000000000e+00  5.3368967487219265e-01 -2.9497730446505099e-01 9.2015797838293625e-02  1.3299883390350957e+00 -3.4385116775150820e-01 8.9528406975320440e-02  2.1420115423357493e+00 -3.4734073976197488e-01 8.9643271163171806e-02  2.9554796295592416e+00 -3.4732969238684008e-01 8.9802971690231534e-02  3.7702104304059385e+00 -3.4723805545569497e-01 8.9835190362178879e-02  4.5853394941210643e+00 -3.4720841244237538e-01 8.9844947248240895e-02  5.4005973944666259e+00 -3.4720452557927645e-01 8.9848511261811773e-02  6.2159029648115238e+00 -3.4720616731984666e-01 8.9850005782411105e-02  7.0312282830738582e+00 -3.4720820877343611e-01 8.9850590325935162e-02  7.8465630907024941e+00 -3.4720965384901487e-01 8.9850865008315045e-02  8.6619025682653312e+00 -3.4721054382833161e-01 8.9851012587182880e-02  9.4772444987384024e+00 -3.4721106357563214e-01 8.9851092213020803e-02  1.0292587759130052e+01 -3.4721135924910523e-01 8.9851136023089001e-02  1.1107931748802503e+01 -3.4721152549776041e-01 8.9851160542779474e-02  1.1923276141321816e+01 -3.4721161842064480e-01 8.9851174287910576e-02  1.2738620757054669e+01 -3.4721167009944098e-01 8.9851181967253640e-02  1.3553965496165434e+01 -3.4721169857898759e-01 8.9851186221728219e-02  1.4369310302538548e+01 -3.4721171385478200e-01 8.9851188515034597e-02  1.5184655143798091e+01 -3.4721172130114203e-01 8.9851189648807880e-02  1.6000000000000007e+01 -3.4721172353203816e-01 8.9851189984500285e-02  0.0000000000000000e+00 0.0000000000000000e+00 0.0000000000000000e+00  5.6369578560548561e-01 -4.5666649458264857e-01 8.3433308849827956e-02  1.3387061370843245e+00 -5.1482780408045214e-01 8.8171225381957735e-02  2.1449747950600013e+00 -5.2059582108559399e-01 8.9949875556288403e-02  2.9563148103484034e+00 -5.2092397293004267e-01 9.0008735314585517e-02  3.7704336637901159e+00 -5.2091863617427681e-01 9.0038908027675377e-02  4.5854156814693345e+00 -5.2092444186032227e-01 9.0057763240698030e-02  5.4006254677419587e+00 -5.2093102859294893e-01 9.0061930869149959e-02  6.2159141386355978e+00 -5.2093644694083652e-01 9.0063271898583944e-02  7.0312333184008846e+00 -5.2094013467446243e-01 9.0063762144421342e-02  7.8465655702709443e+00 -5.2094234339244183e-01 9.0064025466718517e-02  8.6619038586750250e+00 -5.2094361895052332e-01 9.0064165986120104e-02  9.4772451912098905e+00 -5.2094434104777776e-01 9.0064243273518946e-02  1.0292588137672608e+01 -5.2094474624177378e-01 9.0064288440132853e-02  1.1107931957685400e+01 -5.2094497263906836e-01 9.0064314699118367e-02  1.1923276256956282e+01 -5.2094509877750028e-01 9.0064329790691733e-02  1.2738620820937022e+01 -5.2094516882912223e-01 9.0064338401104435e-02  1.3553965530990689e+01 -5.2094520741171169e-01 9.0064343248574083e-02  1.4369310320608765e+01 -5.2094522810269361e-01 9.0064345890994074e-02  1.5184655151475853e+01 -5.2094523819556382e-01 9.0064347192664332e-02  1.6000000000000007e+01 -5.2094524117787178e-01 9.0064347600506717e-02  0.0000000000000000e+00 0.0000000000000000e+00 0.0000000000000000e+00  5.4834473827570940e-01 4.5701428423730206e-01 3.0153948285394437e-02  1.3396303556583185e+00 5.1644058492587408e-01 3.0731442790767196e-02  2.1435492526262476e+00 5.2142403425042227e-01 3.0874336761548920e-02  2.9553293220059946e+00 5.2157047593325445e-01 3.0856473547281518e-02  3.7699188513906368e+00 5.2147547731305355e-01 3.0875302704059821e-02  4.5851285529019270e+00 5.2142685099370767e-01 3.0877415535908441e-02  5.4004645824934538e+00 5.2140518838433425e-01 3.0875895306613190e-02  6.2158242551305349e+00 5.2139522423268692e-01 3.0875106661444145e-02  7.0311833112660009e+00 5.2139035179782167e-01 3.0874700025412337e-02  7.8465377005154826e+00 5.2138783158559021e-01 3.0874470586539703e-02  8.6618883206690196e+00 5.2138647969443885e-01 3.0874351228348251e-02  9.4772365317854455e+00 5.2138574061490950e-01 3.0874291345758156e-02  1.0292583312035651e+01 5.2138533268644727e-01 3.0874260952972441e-02  1.1107929269472573e+01 5.2138510644710545e-01 3.0874245332185038e-02  1.1923274761524858e+01 5.2138498075084827e-01 3.0874237233713731e-02  1.2738619992754852e+01 5.2138491100469164e-01 3.0874232997610544e-02  1.3553965078999052e+01 5.2138487259462596e-01 3.0874230772896492e-02  1.4369310085965891e+01 5.2138485199790274e-01 3.0874229622480872e-02  1.5184655051705560e+01 5.2138484198294510e-01 3.0874229076763002e-02  1.6000000000000007e+01 5.2138483898255505e-01 3.0874228898448930e-02  0.0000000000000000e+00 0.0000000000000000e+00 0.0000000000000000e+00  5.2749098129079808e-01 2.9482017742888150e-01 3.1920189909711807e-02  1.3305954909512854e+00 3.4447920211257260e-01 3.1030424580853162e-02  2.1408008125547382e+00 3.4803504787643202e-01 3.1078803514681164e-02  2.9546567823706078e+00 3.4791800209268975e-01 3.1093820512147666e-02  3.7697777714428122e+00 3.4775892513623252e-01 3.1088769496387180e-02  4.5851002069886029e+00 3.4769384270916698e-01 3.1088556583043200e-02  5.4004622018461887e+00 3.4766953135201506e-01 3.1088246018919945e-02  6.2158270564615572e+00 3.4765990023226595e-01 3.1087864816583956e-02  7.0311860301898239e+00 3.4765565425152550e-01 3.1087640221724822e-02  7.8465395231870341e+00 3.4765360362521169e-01 3.1087522806751398e-02  8.6618894223960154e+00 3.4765254984224347e-01 3.1087459711498632e-02  9.4772371705594605e+00 3.4765198730059998e-01 3.1087425700731398e-02  1.0292583674948888e+01 3.4765168056491746e-01 3.1087407491266338e-02  1.1107929473545143e+01 3.4765151149373630e-01 3.1087397708445097e-02  1.1923274875580223e+01 3.4765141785393650e-01 3.1087392419142434e-02  1.2738620056067314e+01 3.4765136597560370e-01 3.1087389549858152e-02  1.3553965113590516e+01 3.4765133742633536e-01 3.1087387998489945e-02  1.4369310103930191e+01 3.4765132212271943e-01 3.1087387178407762e-02  1.5184655059345531e+01 3.4765131467731386e-01 3.1087386786909806e-02  1.6000000000000007e+01 3.4765131246235426e-01 3.1087386670373356e-02  0.0000000000000000e+00 0.0000000000000000e+00 0.0000000000000000e+00  5.1520228166529902e-01 1.4424663293854365e-01 3.2684454006164189e-02  1.3176925106292949e+00 1.7229936399176315e-01 3.1495111479348227e-02  2.1363722844955673e+00 1.7431135876652545e-01 3.1338157094099053e-02  2.9534494185810196e+00 1.7413806410797425e-01 3.1312385884692116e-02  3.7694962610423715e+00 1.7400226888806994e-01 3.1303556682591521e-02  4.5850427080989702e+00 1.7395025601331304e-01 3.1300958056076210e-02  5.4004601118250282e+00 1.7393163714200294e-01 3.1300659072432353e-02  6.2158347345333302e+00 1.7392427544614839e-01 3.1300599082788552e-02  7.0311927120709274e+00 1.7392104413644371e-01 3.1300576043759326e-02  7.8465439046129264e+00 1.7391949921382141e-01 3.1300567663583634e-02  8.6618920518954567e+00 1.7391871005539827e-01 3.1300560967861400e-02  9.4772386894097576e+00 1.7391828991142882e-01 3.1300555242937046e-02  1.0292584536164574e+01 1.7391806117728006e-01 3.1300551086963523e-02  1.1107929957392992e+01 1.7391793522784491e-01 3.1300548317889296e-02  1.1923275145890496e+01 1.7391786551068725e-01 3.1300546564039571e-02  1.2738620206085759e+01 1.7391782689763963e-01 3.1300545496718853e-02  1.3553965195547415e+01 1.7391780565191894e-01 3.1300544870116645e-02  1.4369310146494072e+01 1.7391779426436424e-01 3.1300544520046748e-02  1.5184655077432311e+01 1.7391778872232858e-01 3.1300544350536953e-02  1.6000000000000007e+01 1.7391778706898639e-01 3.1300544297643125e-02  0.0000000000000000e+00 0.0000000000000000e+00 0.0000000000000000e+00  5.1174640858620901e-01 1.0364096011547318e-03 3.2920633410617302e-02  1.3119717149128751e+00 3.2115537774119298e-04 3.1787806997192532e-02  2.1347320443791884e+00 2.6184660937387470e-04 3.1578162054125031e-02  2.9530276706574221e+00 2.2563098580665844e-04 3.1518542555101690e-02  3.7694234589634172e+00 2.0964510929622922e-04 3.1514743593397912e-02  4.5850530375625658e+00 1.9866066387856592e-04 3.1513095156782488e-02  5.4004825864157571e+00 1.9242119967826231e-04 3.1513181980636816e-02  6.2158518935204841e+00 1.8882670339427348e-04 3.1513415602031733e-02  7.0312034796508378e+00 1.8680465021217617e-04 3.1513560466595467e-02  7.8465502587076035e+00 1.8567791736459456e-04 3.1513636007294607e-02  8.6618956968920955e+00 1.8504874212641815e-04 3.1513671841915412e-02  9.4772407493449311e+00 1.8469774543452733e-04 3.1513688376355847e-02  1.0292585691904222e+01 1.8450206642590470e-04 3.1513695857247857e-02  1.1107930603409779e+01 1.8439302471474119e-04 3.1513699196644700e-02  1.1923275505885536e+01 1.8433231136042919e-04 3.1513700686294721e-02  1.2738620405624847e+01 1.8429859068720250e-04 3.1513701354575485e-02  1.3553965304493634e+01 1.8428001244430830e-04 3.1513701656500206e-02  1.4369310203061501e+01 1.8427004771881945e-04 3.1513701793927922e-02  1.5184655101489199e+01 1.8426519289072778e-04 3.1513701856541454e-02  1.6000000000000007e+01 1.8426374247812748e-04 3.1513701872804986e-02  0.0000000000000000e+00 0.0000000000000000e+00 0.0000000000000000e+00  5.1698651373520055e-01 -1.4196994682473474e-01 3.2935371262680375e-02  1.3172981009625315e+00 -1.7172231376867361e-01 3.1976244204064148e-02  2.1371698983766740e+00 -1.7378812228673227e-01 3.1740626553594380e-02  2.9538987094042701e+00 -1.7366058350542246e-01 3.1715876643585272e-02  3.7697321588037069e+00 -1.7357262247886071e-01 3.1723963015214997e-02  4.5851759955390987e+00 -1.7354833424368818e-01 3.1725229820958899e-02  5.4005366313589542e+00 -1.7354435824606484e-01 3.1725959674114193e-02  6.2158778327259094e+00 -1.7354526692975045e-01 3.1726429210466804e-02  7.0312167101674428e+00 -1.7354668494536729e-01 3.1726648325843217e-02  7.8465573158254864e+00 -1.7354772875942068e-01 3.1726753694696699e-02  8.6618995407270312e+00 -1.7354838201468123e-01 3.1726805680475527e-02  9.4772428653513252e+00 -1.7354876599593860e-01 3.1726831978322614e-02  1.0292586863844479e+01 -1.7354898548319664e-01 3.1726845310774486e-02  1.1107931254251476e+01 -1.7354910927473230e-01 3.1726852165625499e-02  1.1923275867378029e+01 -1.7354917860337843e-01 3.1726855748109704e-02  1.2738620605664641e+01 -1.7354921721578939e-01 3.1726857638841498e-02  1.3553965413626724e+01 -1.7354923851664353e-01 3.1726858639735477e-02  1.4369310259708804e+01 -1.7354924994982618e-01 3.1726859161952212e-02  1.5184655125584301e+01 -1.7354925552357542e-01 3.1726859413801496e-02  1.6000000000000007e+01 -1.7354925719128400e-01 3.1726859487145147e-02  0.0000000000000000e+00 0.0000000000000000e+00 0.0000000000000000e+00  5.3598858257392323e-01 -2.9397409525640728e-01 3.3094426141300023e-02  1.3302207864059215e+00 -3.4366233558667997e-01 3.1827744227025431e-02  2.1420310674146910e+00 -3.4738714003054061e-01 3.1861684584991966e-02  2.9554644709032130e+00 -3.4739280733679151e-01 3.1926228809632334e-02  3.7702095630487427e+00 -3.4730674668812322e-01 3.1935900318573872e-02  4.5853389185091773e+00 -3.4727919455985512e-01 3.1938522005464910e-02  5.4005973567748100e+00 -3.4727554556751150e-01 3.1939375235298051e-02  6.2159029270399504e+00 -3.4727723086416940e-01 3.1939739747970972e-02  7.0312282557370542e+00 -3.4727926347406274e-01 3.1939867106331198e-02  7.8465630827321817e+00 -3.4728070445774523e-01 3.1939930173171767e-02  8.6619025638604050e+00 -3.4728159380706580e-01 3.1939967595191361e-02  9.4772444959956772e+00 -3.4728211366021311e-01 3.1939988799298748e-02  1.0292587757594884e+01 -3.4728240995599885e-01 3.1940001060418687e-02  1.1107931747943033e+01 -3.4728257684187203e-01 3.1940008219100133e-02  1.1923276140832211e+01 -3.4728267024207421e-01 3.1940012349765692e-02  1.2738620756779097e+01 -3.4728272224106083e-01 3.1940014706486608e-02  1.3553965496015078e+01 -3.4728275092090122e-01 3.1940016032597988e-02  1.4369310302463701e+01 -3.4728276631346244e-01 3.1940016755136212e-02  1.5184655143772073e+01 -3.4728277381854067e-01 3.1940017114288677e-02  1.6000000000000007e+01 -3.4728277606304325e-01 3.1940017223778060e-02  0.0000000000000000e+00 0.0000000000000000e+00 0.0000000000000000e+00  5.6326412949870441e-01 -4.5531629142894814e-01 2.9525569165002662e-02  1.3394090709462436e+00 -5.1459037841199118e-01 3.1664067498271616e-02  2.1449626181785053e+00 -5.2073236074978857e-01 3.2202596400994835e-02  2.9562696659886449e+00 -5.2098274563656433e-01 3.2143689055671658e-02  3.7704341530984626e+00 -5.2098846861008208e-01 3.2152262034858443e-02  4.5854160107970916e+00 -5.2099597625470506e-01 3.2154056812592972e-02  5.4006252759462132e+00 -5.2100221863553853e-01 3.2153462532281948e-02  6.2159140915272966e+00 -5.2100758737671993e-01 3.2153304883505977e-02  7.0312332977503740e+00 -5.2101120571016135