<?xml version="1.0"?>
<VTKFile type="UnstructuredGrid"  version="0.1"  >
<UnstructuredGrid>
<Piece  NumberOfPoints="882" NumberOfCells="3600">
<Points>
<DataArray  type="Float64"  NumberOfComponents="3"  format="ascii">0 0 0  0.5 0 0  1 0 0  1.5 0 0  2 0 0  2.5 0 0  3 0 0  3.5 0 0  4 0 0  4.5 0 0  5 0 0  5.5 0 0  6 0 0  6.5 0 0  7 0 0  7.5 0 0  8 0 0  8.5 0 0  9 0 0  9.5 0 0  10 0 0  0 0.5 0  0.5 0.5 0  1 0.5 0  1.5 0.5 0  2 0.5 0  2.5 0.5 0  3 0.5 0  3.5 0.5 0  4 0.5 0  4.5 0.5 0  5 0.5 0  5.5 0.5 0  6 0.5 0  6.5 0.5 0  7 0.5 0  7.5 0.5 0  8 0.5 0  8.5 0.5 0  9 0.5 0  9.5 0.5 0  10 0.5 0  0 1 0  0.5 1 0  1 1 0  1.5 1 0  2 1 0  2.5 1 0  3 1 0  3.5 1 0  4 1 0  4.5 1 0  5 1 0  5.5 1 0  6 1 0  6.5 1 0  7 1 0  7.5 1 0  8 1 0  8.5 1 0  9 1 0  9.5 1 0  10 1 0  0 1.5 0  0.5 1.5 0  1 1.5 0  1.5 1.5 0  2 1.5 0  2.5 1.5 0  3 1.5 0  3.5 1.5 0  4 1.5 0  4.5 1.5 0  5 1.5 0  5.5 1.5 0  6 1.5 0  6.5 1.5 0  7 1.5 0  7.5 1.5 0  8 1.5 0  8.5 1.5 0  9 1.5 0  9.5 1.5 0  10 1.5 0  0 2 0  0.5 2 0  1 2 0  1.5 2 0  2 2 0  2.5 2 0  3 2 0  3.5 2 0  4 2 0  4.5 2 0  5 2 0  5.5 2 0  6 2 0  6.5 2 0  7 2 0  7.5 2 0  8 2 0  8.5 2 0  9 2 0  9.5 2 0  10 2 0  0 2.5 0  0.5 2.5 0  1 2.5 0  1.5 2.5 0  2 2.5 0  2.5 2.5 0  3 2.5 0  3.5 2.5 0  4 2.5 0  4.5 2.5 0  5 2.5 0  5.5 2.5 0  6 2.5 0  6.5 2.5 0  7 2.5 0  7.5 2.5 0  8 2.5 0  8.5 2.5 0  9 2.5 0  9.5 2.5 0  10 2.5 0  0 3 0  0.5 3 0  1 3 0  1.5 3 0  2 3 0  2.5 3 0  3 3 0  3.5 3 0  4 3 0  4.5 3 0  5 3 0  5.5 3 0  6 3 0  6.5 3 0  7 3 0  7.5 3 0  8 3 0  8.5 3 0  9 3 0  9.5 3 0  10 3 0  0 0 0.1  0.5 0 0.1  1 0 0.1  1.5 0 0.1  2 0 0.1  2.5 0 0.1  3 0 0.1  3.5 0 0.1  4 0 0.1  4.5 0 0.1  5 0 0.1  5.5 0 0.1  6 0 0.1  6.5 0 0.1  7 0 0.1  7.5 0 0.1  8 0 0.1  8.5 0 0.1  9 0 0.1  9.5 0 0.1  10 0 0.1  0 0.5 0.1  0.5 0.5 0.1  1 0.5 0.1  1.5 0.5 0.1  2 0.5 0.1  2.5 0.5 0.1  3 0.5 0.1  3.5 0.5 0.1  4 0.5 0.1  4.5 0.5 0.1  5 0.5 0.1  5.5 0.5 0.1  6 0.5 0.1  6.5 0.5 0.1  7 0.5 0.1  7.5 0.5 0.1  8 0.5 0.1  8.5 0.5 0.1  9 0.5 0.1  9.5 0.5 0.1  10 0.5 0.1  0 1 0.1  0.5 1 0.1  1 1 0.1  1.5 1 0.1  2 1 0.1  2.5 1 0.1  3 1 0.1  3.5 1 0.1  4 1 0.1  4.5 1 0.1  5 1 0.1  5.5 1 0.1  6 1 0.1  6.5 1 0.1  7 1 0.1  7.5 1 0.1  8 1 0.1  8.5 1 0.1  9 1 0.1  9.5 1 0.1  10 1 0.1  0 1.5 0.1  0.5 1.5 0.1  1 1.5 0.1  1.5 1.5 0.1  2 1.5 0.1  2.5 1.5 0.1  3 1.5 0.1  3.5 1.5 0.1  4 1.5 0.1  4.5 1.5 0.1  5 1.5 0.1  5.5 1.5 0.1  6 1.5 0.1  6.5 1.5 0.1  7 1.5 0.1  7.5 1.5 0.1  8 1.5 0.1  8.5 1.5 0.1  9 1.5 0.1  9.5 1.5 0.1  10 1.5 0.1  0 2 0.1  0.5 2 0.1  1 2 0.1  1.5 2 0.1  2 2 0.1  2.5 2 0.1  3 2 0.1  3.5 2 0.1  4 2 0.1  4.5 2 0.1  5 2 0.1  5.5 2 0.1  6 2 0.1  6.5 2 0.1  7 2 0.1  7.5 2 0.1  8 2 0.1  8.5 2 0.1  9 2 0.1  9.5 2 0.1  10 2 0.1  0 2.5 0.1  0.5 2.5 0.1  1 2.5 0.1  1.5 2.5 0.1  2 2.5 0.1  2.5 2.5 0.1  3 2.5 0.1  3.5 2.5 0.1  4 2.5 0.1  4.5 2.5 0.1  5 2.5 0.1  5.5 2.5 0.1  6 2.5 0.1  6.5 2.5 0.1  7 2.5 0.1  7.5 2.5 0.1  8 2.5 0.1  8.5 2.5 0.1  9 2.5 0.1  9.5 2.5 0.1  10 2.5 0.1  0 3 0.1  0.5 3 0.1  1 3 0.1  1.5 3 0.1  2 3 0.1  2.5 3 0.1  3 3 0.1  3.5 3 0.1  4 3 0.1  4.5 3 0.1  5 3 0.1  5.5 3 0.1  6 3 0.1  6.5 3 0.1  7 3 0.1  7.5 3 0.1  8 3 0.1  8.5 3 0.1  9 3 0.1  9.5 3 0.1  10 3 0.1  0 0 0.2  0.5 0 0.2  1 0 0.2  1.5 0 0.2  2 0 0.2  2.5 0 0.2  3 0 0.2  3.5 0 0.2  4 0 0.2  4.5 0 0.2  5 0 0.2  5.5 0 0.2  6 0 0.2  6.5 0 0.2  7 0 0.2  7.5 0 0.2  8 0 0.2  8.5 0 0.2  9 0 0.2  9.5 0 0.2  10 0 0.2  0 0.5 0.2  0.5 0.5 0.2  1 0.5 0.2  1.5 0.5 0.2  2 0.5 0.2  2.5 0.5 0.2  3 0.5 0.2  3.5 0.5 0.2  4 0.5 0.2  4.5 0.5 0.2  5 0.5 0.2  5.5 0.5 0.2  6 0.5 0.2  6.5 0.5 0.2  7 0.5 0.2  7.5 0.5 0.2  8 0.5 0.2  8.5 0.5 0.2  9 0.5 0.2  9.5 0.5 0.2  10 0.5 0.2  0 1 0.2  0.5 1 0.2  1 1 0.2  1.5 1 0.2  2 1 0.2  2.5 1 0.2  3 1 0.2  3.5 1 0.2  4 1 0.2  4.5 1 0.2  5 1 0.2  5.5 1 0.2  6 1 0.2  6.5 1 0.2  7 1 0.2  7.5 1 0.2  8 1 0.2  8.5 1 0.2  9 1 0.2  9.5 1 0.2  10 1 0.2  0 1.5 0.2  0.5 1.5 0.2  1 1.5 0.2  1.5 1.5 0.2  2 1.5 0.2  2.5 1.5 0.2  3 1.5 0.2  3.5 1.5 0.2  4 1.5 0.2  4.5 1.5 0.2  5 1.5 0.2  5.5 1.5 0.2  6 1.5 0.2  6.5 1.5 0.2  7 1.5 0.2  7.5 1.5 0.2  8 1.5 0.2  8.5 1.5 0.2  9 1.5 0.2  9.5 1.5 0.2  10 1.5 0.2  0 2 0.2  0.5 2 0.2  1 2 0.2  1.5 2 0.2  2 2 0.2  2.5 2 0.2  3 2 0.2  3.5 2 0.2  4 2 0.2  4.5 2 0.2  5 2 0.2  5.5 2 0.2  6 2 0.2  6.5 2 0.2  7 2 0.2  7.5 2 0.2  8 2 0.2  8.5 2 0.2  9 2 0.2  9.5 2 0.2  10 2 0.2  0 2.5 0.2  0.5 2.5 0.2  1 2.5 0.2  1.5 2.5 0.2  2 2.5 0.2  2.5 2.5 0.2  3 2.5 0.2  3.5 2.5 0.2  4 2.5 0.2  4.5 2.5 0.2  5 2.5 0.2  5.5 2.5 0.2  6 2.5 0.2  6.5 2.5 0.2  7 2.5 0.2  7.5 2.5 0.2  8 2.5 0.2  8.5 2.5 0.2  9 2.5 0.2  9.5 2.5 0.2  10 2.5 0.2  0 3 0.2  0.5 3 0.2  1 3 0.2  1.5 3 0.2  2 3 0.2  2.5 3 0.2  3 3 0.2  3.5 3 0.2  4 3 0.2  4.5 3 0.2  5 3 0.2  5.5 3 0.2  6 3 0.2  6.5 3 0.2  7 3 0.2  7.5 3 0.2  8 3 0.2  8.5 3 0.2  9 3 0.2  9.5 3 0.2  10 3 0.2  0 0 0.3  0.5 0 0.3  1 0 0.3  1.5 0 0.3  2 0 0.3  2.5 0 0.3  3 0 0.3  3.5 0 0.3  4 0 0.3  4.5 0 0.3  5 0 0.3  5.5 0 0.3  6 0 0.3  6.5 0 0.3  7 0 0.3  7.5 0 0.3  8 0 0.3  8.5 0 0.3  9 0 0.3  9.5 0 0.3  10 0 0.3  0 0.5 0.3  0.5 0.5 0.3  1 0.5 0.3  1.5 0.5 0.3  2 0.5 0.3  2.5 0.5 0.3  3 0.5 0.3  3.5 0.5 0.3  4 0.5 0.3  4.5 0.5 0.3  5 0.5 0.3  5.5 0.5 0.3  6 0.5 0.3  6.5 0.5 0.3  7 0.5 0.3  7.5 0.5 0.3  8 0.5 0.3  8.5 0.5 0.3  9 0.5 0.3  9.5 0.5 0.3  10 0.5 0.3  0 1 0.3  0.5 1 0.3  1 1 0.3  1.5 1 0.3  2 1 0.3  2.5 1 0.3  3 1 0.3  3.5 1 0.3  4 1 0.3  4.5 1 0.3  5 1 0.3  5.5 1 0.3  6 1 0.3  6.5 1 0.3  7 1 0.3  7.5 1 0.3  8 1 0.3  8.5 1 0.3  9 1 0.3  9.5 1 0.3  10 1 0.3  0 1.5 0.3  0.5 1.5 0.3  1 1.5 0.3  1.5 1.5 0.3  2 1.5 0.3  2.5 1.5 0.3  3 1.5 0.3  3.5 1.5 0.3  4 1.5 0.3  4.5 1.5 0.3  5 1.5 0.3  5.5 1.5 0.3  6 1.5 0.3  6.5 1.5 0.3  7 1.5 0.3  7.5 1.5 0.3  8 1.5 0.3  8.5 1.5 0.3  9 1.5 0.3  9.5 1.5 0.3  10 1.5 0.3  0 2 0.3  0.5 2 0.3  1 2 0.3  1.5 2 0.3  2 2 0.3  2.5 2 0.3  3 2 0.3  3.5 2 0.3  4 2 0.3  4.5 2 0.3  5 2 0.3  5.5 2 0.3  6 2 0.3  6.5 2 0.3  7 2 0.3  7.5 2 0.3  8 2 0.3  8.5 2 0.3  9 2 0.3  9.5 2 0.3  10 2 0.3  0 2.5 0.3  0.5 2.5 0.3  1 2.5 0.3  1.5 2.5 0.3  2 2.5 0.3  2.5 2.5 0.3  3 2.5 0.3  3.5 2.5 0.3  4 2.5 0.3  4.5 2.5 0.3  5 2.5 0.3  5.5 2.5 0.3  6 2.5 0.3  6.5 2.5 0.3  7 2.5 0.3  7.5 2.5 0.3  8 2.5 0.3  8.5 2.5 0.3  9 2.5 0.3  9.5 2.5 0.3  10 2.5 0.3  0 3 0.3  0.5 3 0.3  1 3 0.3  1.5 3 0.3  2 3 0.3  2.5 3 0.3  3 3 0.3  3.5 3 0.3  4 3 0.3  4.5 3 0.3  5 3 0.3  5.5 3 0.3  6 3 0.3  6.5 3 0.3  7 3 0.3  7.5 3 0.3  8 3 0.3  8.5 3 0.3  9 3 0.3  9.5 3 0.3  10 3 0.3  0 0 0.4  0.5 0 0.4  1 0 0.4  1.5 0 0.4  2 0 0.4  2.5 0 0.4  3 0 0.4  3.5 0 0.4  4 0 0.4  4.5 0 0.4  5 0 0.4  5.5 0 0.4  6 0 0.4  6.5 0 0.4  7 0 0.4  7.5 0 0.4  8 0 0.4  8.5 0 0.4  9 0 0.4  9.5 0 0.4  10 0 0.4  0 0.5 0.4  0.5 0.5 0.4  1 0.5 0.4  1.5 0.5 0.4  2 0.5 0.4  2.5 0.5 0.4  3 0.5 0.4  3.5 0.5 0.4  4 0.5 0.4  4.5 0.5 0.4  5 0.5 0.4  5.5 0.5 0.4  6 0.5 0.4  6.5 0.5 0.4  7 0.5 0.4  7.5 0.5 0.4  8 0.5 0.4  8.5 0.5 0.4  9 0.5 0.4  9.5 0.5 0.4  10 0.5 0.4  0 1 0.4  0.5 1 0.4  1 1 0.4  1.5 1 0.4  2 1 0.4  2.5 1 0.4  3 1 0.4  3.5 1 0.4  4 1 0.4  4.5 1 0.4  5 1 0.4  5.5 1 0.4  6 1 0.4  6.5 1 0.4  7 1 0.4  7.5 1 0.4  8 1 0.4  8.5 1 0.4  9 1 0.4  9.5 1 0.4  10 1 0.4  0 1.5 0.4  0.5 1.5 0.4  1 1.5 0.4  1.5 1.5 0.4  2 1.5 0.4  2.5 1.5 0.4  3 1.5 0.4  3.5 1.5 0.4  4 1.5 0.4  4.5 1.5 0.4  5 1.5 0.4  5.5 1.5 0.4  6 1.5 0.4  6.5 1.5 0.4  7 1.5 0.4  7.5 1.5 0.4  8 1.5 0.4  8.5 1.5 0.4  9 1.5 0.4  9.5 1.5 0.4  10 1.5 0.4  0 2 0.4  0.5 2 0.4  1 2 0.4  1.5 2 0.4  2 2 0.4  2.5 2 0.4  3 2 0.4  3.5 2 0.4  4 2 0.4  4.5 2 0.4  5 2 0.4  5.5 2 0.4  6 2 0.4  6.5 2 0.4  7 2 0.4  7.5 2 0.4  8 2 0.4  8.5 2 0.4  9 2 0.4  9.5 2 0.4  10 2 0.4  0 2.5 0.4  0.5 2.5 0.4  1 2.5 0.4  1.5 2.5 0.4  2 2.5 0.4  2.5 2.5 0.4  3 2.5 0.4  3.5 2.5 0.4  4 2.5 0.4  4.5 2.5 0.4  5 2.5 0.4  5.5 2.5 0.4  6 2.5 0.4  6.5 2.5 0.4  7 2.5 0.4  7.5 2.5 0.4  8 2.5 0.4  8.5 2.5 0.4  9 2.5 0.4  9.5 2.5 0.4  10 2.5 0.4  0 3 0.4  0.5 3 0.4  1 3 0.4  1.5 3 0.4  2 3 0.4  2.5 3 0.4  3 3 0.4  3.5 3 0.4  4 3 0.4  4.5 3 0.4  5 3 0.4  5.5 3 0.4  6 3 0.4  6.5 3 0.4  7 3 0.4  7.5 3 0.4  8 3 0.4  8.5 3 0.4  9 3 0.4  9.5 3 0.4  10 3 0.4  0 0 0.5  0.5 0 0.5  1 0 0.5  1.5 0 0.5  2 0 0.5  2.5 0 0.5  3 0 0.5  3.5 0 0.5  4 0 0.5  4.5 0 0.5  5 0 0.5  5.5 0 0.5  6 0 0.5  6.5 0 0.5  7 0 0.5  7.5 0 0.5  8 0 0.5  8.5 0 0.5  9 0 0.5  9.5 0 0.5  10 0 0.5  0 0.5 0.5  0.5 0.5 0.5  1 0.5 0.5  1.5 0.5 0.5  2 0.5 0.5  2.5 0.5 0.5  3 0.5 0.5  3.5 0.5 0.5  4 0.5 0.5  4.5 0.5 0.5  5 0.5 0.5  5.5 0.5 0.5  6 0.5 0.5  6.5 0.5 0.5  7 0.5 0.5  7.5 0.5 0.5  8 0.5 0.5  8.5 0.5 0.5  9 0.5 0.5  9.5 0.5 0.5  10 0.5 0.5  0 1 0.5  0.5 1 0.5  1 1 0.5  1.5 1 0.5  2 1 0.5  2.5 1 0.5  3 1 0.5  3.5 1 0.5  4 1 0.5  4.5 1 0.5  5 1 0.5  5.5 1 0.5  6 1 0.5  6.5 1 0.5  7 1 0.5  7.5 1 0.5  8 1 0.5  8.5 1 0.5  9 1 0.5  9.5 1 0.5  10 1 0.5  0 1.5 0.5  0.5 1.5 0.5  1 1.5 0.5  1.5 1.5 0.5  2 1.5 0.5  2.5 1.5 0.5  3 1.5 0.5  3.5 1.5 0.5  4 1.5 0.5  4.5 1.5 0.5  5 1.5 0.5  5.5 1.5 0.5  6 1.5 0.5  6.5 1.5 0.5  7 1.5 0.5  7.5 1.5 0.5  8 1.5 0.5  8.5 1.5 0.5  9 1.5 0.5  9.5 1.5 0.5  10 1.5 0.5  0 2 0.5  0.5 2 0.5  1 2 0.5  1.5 2 0.5  2 2 0.5  2.5 2 0.5  3 2 0.5  3.5 2 0.5  4 2 0.5  4.5 2 0.5  5 2 0.5  5.5 2 0.5  6 2 0.5  6.5 2 0.5  7 2 0.5  7.5 2 0.5  8 2 0.5  8.5 2 0.5  9 2 0.5  9.5 2 0.5  10 2 0.5  0 2.5 0.5  0.5 2.5 0.5  1 2.5 0.5  1.5 2.5 0.5  2 2.5 0.5  2.5 2.5 0.5  3 2.5 0.5  3.5 2.5 0.5  4 2.5 0.5  4.5 2.5 0.5  5 2.5 0.5  5.5 2.5 0.5  6 2.5 0.5  6.5 2.5 0.5  7 2.5 0.5  7.5 2.5 0.5  8 2.5 0.5  8.5 2.5 0.5  9 2.5 0.5  9.5 2.5 0.5  10 2.5 0.5  0 3 0.5  0.5 3 0.5  1 3 0.5  1.5 3 0.5  2 3 0.5  2.5 3 0.5  3 3 0.5  3.5 3 0.5  4 3 0.5  4.5 3 0.5  5 3 0.5  5.5 3 0.5  6 3 0.5  6.5 3 0.5  7 3 0.5  7.5 3 0.5  8 3 0.5  8.5 3 0.5  9 3 0.5  9.5 3 0.5  10 3 0.5  </DataArray>
</Points>
<Cells>
[...]
<PointData  Vectors="f_7-0"> 
<DataArray  type="Float64"  Name="f_7-0"  NumberOfComponents="3" format="ascii">0.0000000000000000e+00 0.0000000000000000e+00 0.0000000000000000e+00  2.9716615917424274e-02 2.5121445480334490e-02 6.8780198193566381e-03  5.7979156153671114e-02 3.5675414164944345e-02 6.3853661626010550e-03  8.3875509080998362e-02 4.0831019411507193e-02 6.5897048078088953e-03  1.1183277999372009e-01 4.2570694746861551e-02 6.8960814616719065e-03  1.4100376060381128e-01 4.2984768672428578e-02 7.0969796811251283e-03  1.7100560617682534e-01 4.2995102045955379e-02 7.2036108528727386e-03  2.0140614618015565e-01 4.2961734526243592e-02 7.2502328895341240e-03  2.3198163109583525e-01 4.2969861089938666e-02 7.2674602604310065e-03  2.6262152266213695e-01 4.3018832736109673e-02 7.2721979513175553e-03  2.9328143835593273e-01 4.3089071787287131e-02 7.2726814196542068e-03  3.2394619913848066e-01 4.3164359150103665e-02 7.2722363209188042e-03  3.5461224070780650e-01 4.3235305774834198e-02 7.2719298433007520e-03  3.8527954194379693e-01 4.3297724573289967e-02 7.2719377554967407e-03  4.1594866488156595e-01 4.3350383558241640e-02 7.2721684128602962e-03  4.4661990434796950e-01 4.3393420175008662e-02 7.2724970964088498e-03  4.7729320879988135e-01 4.3427452940432099e-02 7.2728326282270432e-03  5.0796829393286191e-01 4.3453160386648197e-02 7.2731217642741574e-03  5.3864475580126669e-01 4.3471113664896803e-02 7.2733382299306629e-03  5.6932214879892762e-01 4.3481720565858119e-02 7.2734690132721831e-03  6.0000000000000009e-01 4.3485237043652085e-02 7.2735143256960257e-03  0.0000000000000000e+00 0.0000000000000000e+00 0.0000000000000000e+00  2.0683661360305250e-02 1.3065396971836710e-02 7.2897732183886633e-03  5.0987039815612221e-02 2.3708650569407626e-02 7.4406929641287088e-03  8.0058012848911272e-02 2.8321233141001358e-02 7.1448372143414970e-03  1.0998895240192716e-01 2.9607146533823875e-02 7.1797189238077879e-03  1.4023580472720612e-01 2.9724886980320185e-02 7.2037110466010579e-03  1.7069593345670164e-01 2.9589627008520362e-02 7.2409929259014153e-03  2.0126548708028216e-01 2.9490328754808632e-02 7.2645133180745799e-03  2.3189100042298416e-01 2.9472671007997799e-02 7.2780237254653178e-03  2.6254259736644053e-01 2.9512740884986344e-02 7.2845515803037966e-03  2.9320624154036840e-01 2.9580249224882997e-02 7.2874917454597496e-03  3.2387582838743179e-01 2.9654533064646504e-02 7.2887744317000104e-03  3.5454897245156552e-01 2.9724722710450402e-02 7.2893991955431487e-03  3.8522476027006952e-01 2.9786298557103408e-02 7.2897952899138047e-03  4.1590276903884293e-01 2.9838061517308587e-02 7.2901168828218184e-03  4.4658269123285016e-01 2.9880244606419411e-02 7.2904021055892826e-03  4.7726422255365064e-01 2.9913537897814983e-02 7.2906500245053093e-03  5.0794704427266479e-01 2.9938657803536689e-02 7.2908514849282591e-03  5.3863083085333330e-01 2.9956189136750692e-02 7.2909987599391532e-03  5.6931525581549425e-01 2.9966546916979253e-02 7.2910882848507032e-03  6.0000000000000009e-01 2.9969973529720487e-02 7.2911158790479689e-03  0.0000000000000000e+00 0.0000000000000000e+00 0.0000000000000000e+00  1.6145932894725337e-02 4.5417943849872799e-03 7.8216121334934337e-03  4.5224104094671196e-02 1.1893802471919075e-02 8.3176386392696498e-03  7.5931918549938540e-02 1.5133671214722670e-02 7.6251186557637950e-03  1.0759229065949950e-01 1.5908024716128948e-02 7.4218540835169523e-03  1.3898083007972886e-01 1.5986238342398516e-02 7.3183702305421334e-03  1.7007314331320150e-01 1.5925752201606656e-02 7.2928499165219015e-03  2.0095289254276213e-01 1.5897722843537639e-02 7.2906758581648473e-03  2.3171574276345933e-01 1.5924366630117138e-02 7.2957841184462932e-03  2.6242467048231310e-01 1.5986754886718864e-02 7.3006802632268044e-03  2.9311312216838331e-01 1.6063473309999802e-02 7.3040803146744975e-03  3.2379626504376202e-01 1.6140483262297216e-02 7.3060830928410878e-03  3.5447984154691481e-01 1.6210694522315439e-02 7.3071899661206448e-03  3.8516541714895758e-01 1.6271422962474164e-02 7.3077970371937971e-03  4.1585300754703058e-01 1.6322228602654882e-02 7.3081492837145353e-03  4.4654220495224967e-01 1.6363597286411093e-02 7.3083742509778222e-03  4.7723258174531885e-01 1.6396267895402619e-02 7.3085310057458535e-03  5.0792379190534787e-01 1.6420940443719403e-02 7.3086438630751748e-03  5.3861556851395076e-01 1.6438173213744762e-02 7.3087218243537483e-03  5.6930769889765487e-01 1.6448359021771924e-02 7.3087671445862066e-03  6.0000000000000009e-01 1.6451730263737155e-02 7.3087816985774904e-03  0.0000000000000000e+00 0.0000000000000000e+00 0.0000000000000000e+00  1.5231029841686037e-02 3.7322103799963466e-04 7.3659134385287359e-03  4.2236583571100203e-02 1.0613073832305663e-03 8.7593835124618446e-03  7.3850000517427114e-02 1.4673740446399682e-03 7.8726248261009688e-03  1.0634656822960419e-01 1.6602330415552858e-03 7.5332696113494706e-03  1.3826632117293153e-01 1.8475574640905222e-03 7.3786482555842203e-03  1.6965677969588092e-01 2.0247757955628000e-03 7.3264260358418239e-03  2.0069784309023628e-01 2.1813226681849547e-03 7.3141278584744947e-03  2.3154251945312426e-01 2.3174622577658648e-03 7.3154545546196947e-03  2.6229411878886350e-01 2.4344368732587200e-03 7.3193542175283306e-03  2.9300710696667231e-01 2.5345214819325543e-03 7.3225975012488160e-03  3.2370709425453109e-01 2.6197111632121155e-03 7.3246073564446216e-03  3.5440423486944805e-01 2.6917786165363815e-03 7.3256741977846974e-03  3.8510178597171441e-01 2.7522162319487198e-03 7.3261759750202285e-03  4.1580033226206342e-01 2.8022770005821642e-03 7.3263862425664026e-03  4.4649966256711110e-01 2.8429979903321656e-03 7.3264630893923096e-03  4.7719946018152309e-01 2.8752228477238288e-03 7.3264858523326357e-03  5.0789949404788937e-01 2.8996192929736414e-03 7.3264896741889792e-03  5.3859963195314409e-01 2.9166929226482384e-03 7.3264881214090997e-03  5.6929980950964232e-01 2.9267976134658563e-03 7.3264857132612398e-03  6.0000000000000009e-01 2.9301428896291340e-03 7.3264842406681003e-03  0.0000000000000000e+00 0.0000000000000000e+00 0.0000000000000000e+00  1.5772289490041523e-02 -3.7481190967846140e-03 7.7373736009239804e-03  4.4114064337098975e-02 -9.4245088857663264e-03 8.4872338814285797e-03  7.5021957936014821e-02 -1.2310887794329093e-02 7.6783684029081336e-03  1.0699093180820808e-01 -1.2656333086175271e-02 7.4669219497839577e-03  1.3850012522682648e-01 -1.2317505986611429e-02 7.3573626744186616e-03  1.6966785537823875e-01 -1.1892660551484828e-02 7.3316275450434377e-03  2.0060690616896562e-01 -1.1546753057008120e-02 7.3305112724578510e-03  2.3141852985594519e-01 -1.1299462319094051e-02 7.3358527820244768e-03  2.6217008980063772e-01 -1.1126594728345708e-02 7.3404189319210304e-03  2.9289583073738218e-01 -1.1002121307368593e-02 7.3432171800425286e-03  3.2361182085637435e-01 -1.0907849029321539e-02 7.3445284248096114e-03  3.5432442940359693e-01 -1.0833156416332874e-02 7.3449704155271007e-03  3.8503581990213781e-01 -1.0772360443036172e-02 7.3449877563428762e-03  4.1574653807818085e-01 -1.0722506431167714e-02 7.3448409534024916e-03  4.4645665545305530e-01 -1.0681995627332380e-02 7.3446576712586763e-03  4.7716617817871509e-01 -1.0649870568762676e-02 7.3444916050257065e-03  5.0787515753623946e-01 -1.0625488553738426e-02 7.3443605724515318e-03  5.3858369501638581e-01 -1.0608391109033728e-02 7.3442684484693113e-03  5.6929192539157747e-01 -1.0598260077186696e-02 7.3442136863828816e-03  6.0000000000000009e-01 -1.0594904880633598e-02 7.3441948597650969e-03  0.0000000000000000e+00 0.0000000000000000e+00 0.0000000000000000e+00  1.9298660699262910e-02 -1.0266531549828501e-02 8.2317397453102303e-03  4.9421252561000766e-02 -2.1535888609151538e-02 7.5064532385842372e-03  7.8743922030935956e-02 -2.5699711017891001e-02 7.1930993151634740e-03  1.0891880979461065e-01 -2.6439520835909572e-02 7.2483711064944886e-03  1.3932246047700847e-01 -2.6116038100542551e-02 7.2812119213998567e-03  1.6990800557424920e-01 -2.5597633494482103e-02 7.3212551962584171e-03  2.0058912800086146e-01 -2.5174451584902308e-02 7.3469324480194094e-03  2.3130936032499932e-01 -2.4877571554554039e-02 7.3597508196420157e-03  2.6204441764043473e-01 -2.4678626480106960e-02 7.3648174177951544e-03  2.9278105360441287e-01 -2.4541642535968126e-02 7.3660532114451860e-03  3.2351491676876382e-01 -2.4441894791990687e-02 7.3657134931744538e-03  3.5424486323890592e-01 -2.4364867139043400e-02 7.3649068207063007e-03  3.8497115990329706e-01 -2.4302995104626433e-02 7.3640911461575372e-03  4.1569442286928526e-01 -2.4252513929806967e-02 7.3634109184182684e-03  4.4641528119162216e-01 -2.4211533051393567e-02 7.3628854170122108e-03  4.7713427833276623e-01 -2.4179016046550327e-02 7.3624948957772352e-03  5.0785187230012763e-01 -2.4154313757431937e-02 7.3622146685843083e-03  5.3856845744051940e-01 -2.4136977936016837e-02 7.3620263494131588e-03  5.6928438966203132e-01 -2.4126699546817915e-02 7.3619149886450875e-03  6.0000000000000009e-01 -2.4123294465582437e-02 7.3618781163992467e-03  0.0000000000000000e+00 0.0000000000000000e+00 0.0000000000000000e+00  2.8788382654733879e-02 -2.2373192566779967e-02 6.3228628586320694e-03  5.6557311559693395e-02 -3.3750648634469832e-02 6.5364230476518872e-03  8.2210716007489179e-02 -3.8184857904542013e-02 6.6059930820692820e-03  1.1034188245251252e-01 -3.9489776765391005e-02 7.0241715840510428e-03  1.3968455836831081e-01 -3.9442344269304278e-02 7.2083298148176806e-03  1.6987091308201885e-01 -3.9065503303496639e-02 7.3301986821835792e-03  2.0042793325271016e-01 -3.8698995669667828e-02 7.3757436376538739e-03  2.3114165467324882e-01 -3.8421386245609784e-02 7.3912387480379732e-03  2.6190172835708797e-01 -3.8225443615035125e-02 7.3928726630473045e-03  2.9266711609728396e-01 -3.8086267961106549e-02 7.3904778684664926e-03  3.2342467245804341e-01 -3.7983293832463516e-02 7.3874426370699690e-03  3.5417276354598143e-01 -3.7903440817396772e-02 7.3849495461973790e-03  3.8491304112980723e-01 -3.7839401363033168e-02 7.3831435541151973e-03  4.1564755914019463e-01 -3.7787319994053548e-02 7.3818896702948474e-03  4.4637795863170465e-01 -3.7745161091992538e-02 7.3810220965729997e-03  4.7710540965587783e-01 -3.7711775499469885e-02 7.3804167075315176e-03  5.0783074863760391e-01 -3.7686443430516622e-02 7.3799961644960320e-03  5.3855461329028209e-01 -3.7668677050640809e-02 7.3797168118521833e-03  5.6927753947225301e-01 -3.7658145583810559e-02 7.3795548200177282e-03  6.0000000000000009e-01 -3.7654663969652759e-02 7.3795026593572810e-03  0.0000000000000000e+00 0.0000000000000000e+00 0.0000000000000000e+00  3.0174446860395929e-02 2.4907947178718637e-02 4.4451285812612921e-03  5.7927994639903876e-02 3.5566929788834557e-02 4.0709605324061740e-03  8.3850504886910662e-02 4.0743951704890959e-02 4.1791085236899273e-03  1.1180013366478528e-01 4.2534573131169512e-02 4.3589158442061170e-03  1.4098456301144474e-01 4.2971621604003231e-02 4.4750583973734576e-03  1.7099588723520390e-01 4.2990937882475107e-02 4.5355158869464429e-03  2.0140210995299182e-01 4.2959803755857069e-02 4.5610299786590577e-03  2.3198022987085126e-01 4.2967920063971765e-02 4.5697364160279218e-03  2.6262118784784860e-01 4.3016341718824569e-02 4.5715448522126324e-03  2.9328143413019181e-01 4.3086097579301909e-02 4.5711956199606793e-03  3.2394624602222094e-01 4.3161082295698650e-02 4.5705388111873628e-03  3.5461225854654366e-01 4.3231875340919164e-02 4.5701192896412694e-03  3.8527952511102787e-01 4.3294232219350380e-02 4.5699822405587615e-03  4.1594862723892029e-01 4.3346876833378303e-02 4.5700355705857185e-03  4.4661985992404973e-01 4.3389919730786486e-02 4.5701819094302017e-03  4.7729316708800712e-01 4.3423965269573345e-02 4.5703529709346874e-03  5.0796826020189079e-01 4.3449685349681563e-02 4.5705086916224954e-03  5.3864473283335024e-01 4.3467648086208129e-02 4.5706284763679479e-03  5.6932213678548627e-01 4.3478261122518722e-02 4.5707019728416752e-03  6.0000000000000009e-01 4.3481780775776170e-02 4.5707287979789056e-03  0.0000000000000000e+00 0.0000000000000000e+00 0.0000000000000000e+00  2.1315667291602624e-02 1.3081756919573294e-02 4.6202146405626308e-03  5.0924757124011448e-02 2.3554601382308270e-02 4.6931123956081176e-03  8.0062574065965689e-02 2.8237080720559696e-02 4.4797232948384884e-03  1.0998515768302007e-01 2.9559834957366329e-02 4.5279777231058034e-03  1.4022904693597579e-01 2.9705275796752702e-02 4.5368960126801047e-03  1.7069147160649853e-01 2.9581498712423285e-02 4.5601193728170295e-03  2.0126284001965908e-01 2.9486625832170380e-02 4.5733327347182995e-03  2.3188969269707066e-01 2.9469996217719587e-02 4.5809496226607606e-03  2.6254201218761086e-01 2.9510006517232148e-02 4.5844576918150654e-03  2.9320599818917226e-01 2.9577215432983105e-02 4.5859617635783398e-03  3.2387572293387457e-01 2.9651252963905615e-02 4.5865652620680781e-03  3.5454891418185164e-01 2.9721297124022404e-02 4.5868388678543728e-03  3.8522471504612038e-01 2.9782806427777010e-02 4.5870154753826871e-03  4.1590272768240627e-01 2.9834549619355086e-02 4.5871720511634680e-03  4.4658265341492293e-01 2.9876735818713251e-02 4.5873216110645515e-03  4.7726419008470111e-01 2.9910040799408569e-02 4.5874576510489618e-03  5.0794701883348248e-01 2.9935173488413895e-02 4.5875711284260193e-03  5.3863081337759167e-01 2.9952715353163181e-02 4.5876553618334611e-03  5.6931524713949555e-01 2.9963079510209236e-02 4.5877069919946379e-03  6.0000000000000009e-01 2.9966510019734587e-02 4.5877228499281017e-03  0.0000000000000000e+00 0.0000000000000000e+00 0.0000000000000000e+00  1.6364674171069515e-02 4.5809022098481063e-03 4.9422226334645712e-03  4.5184158758670802e-02 1.1798194788079584e-02 5.2107898690887900e-03  7.5985239467922058e-02 1.5068476442051547e-02 4.7570272422124190e-03  1.0761894985096394e-01 1.5876015701301798e-02 4.6732175841656814e-03  1.3898764482956594e-01 1.5969773485259124e-02 4.6060248438273936e-03  1.7007522569234337e-01 1.5917207053351035e-02 4.5943415000752174e-03  2.0095244412814359e-01 1.5892669294271317e-02 4.5932786414533073e-03  2.3171501246408066e-01 1.5920583428898162e-02 4.5967145602070977e-03  2.6242406613097796e-01 1.5983311688071072e-02 4.5997518323990872e-03  2.9311274044094965e-01 1.6060045236234489e-02 4.6018553935701255e-03  3.2379604698491515e-01 1.6137000417085323e-02 4.6030879485126717e-03  3.5447972222142365e-01 1.6207169206253643e-02 4.6037714553402121e-03  3.8516535032255095e-01 1.6267881314069088e-02 4.6041476939546388e-03  4.1585296712493813e-01 1.6318690063865576e-02 4.6043667487262177e-03  4.4654217797789020e-01 1.6360071818793436e-02 4.6045066115078448e-03  4.7723256252600937e-01 1.6392758430971450e-02 4.6046037342663410e-03  5.0792377819227408e-01 1.6417445784213718e-02 4.6046733530838314e-03  5.3861555960012575e-01 1.6434689978686110e-02 4.6047212627805386e-03  5.6930769441245344e-01 1.6444883049493590e-02 4.6047491468275544e-03  6.0000000000000009e-01 1.6448257047657868e-02 4.6047582872178949e-03  0.0000000000000000e+00 0.0000000000000000e+00 0.0000000000000000e+00  1.5363672072826838e-02 3.9371020058656122e-04 4.6475702161349738e-03  4.2158498422998743e-02 1.0736747349714508e-03 5.4670489178282808e-03  7.3936211577881925e-02 1.4565431170404787e-03 4.9162406995606331e-03  1.0638768648108571e-01 1.6521946497789995e-03 4.7455980041914217e-03  1.3827788573711811e-01 1.8425041507219603e-03 4.6468863237787627e-03  1.6966152658999545e-01 2.0201043351476492e-03 4.6194014089077206e-03  2.0069820202204569e-01 2.1770826979431303e-03 4.6127584772249286e-03  2.3154207975847702e-01 2.3134086028616164e-03 4.6142713727531240e-03  2.6229355104095292e-01 2.4305353968068224e-03 4.6169829309232295e-03  2.9300671821727647e-01 2.5307176572520480e-03 4.6191616157816983e-03  3.2370687050431707e-01 2.6159833366436497e-03 4.6205024408358603e-03  3.5440412333374233e-01 2.6881102654625487e-03 4.6212220150821572e-03  3.8510173638831119e-01 2.7485964208253037e-03 4.6215695279878746e-03  4.1580031291130565e-01 2.7986970193500989e-03 4.6217228836933797e-03  4.4649965626819960e-01 2.8394503977162938e-03 4.6217849665914287e-03  4.7719945881068321e-01 2.8717009497635413e-03 4.6218080476064776e-03  5.0789949419417679e-01 2.8961168985180475e-03 4.6218158993183052e-03  5.3859963236816455e-01 2.9132042068147619e-03 4.6218181981565127e-03  5.6929980981474482e-01 2.9233170131771975e-03 4.6218185648712511e-03  6.0000000000000009e-01 2.9266648603373272e-03 4.6218181162808901e-03  0.0000000000000000e+00 0.0000000000000000e+00 0.0000000000000000e+00  1.5993526004960481e-02 -3.7660896187455928e-03 4.8768707521790579e-03  4.4024271558982635e-02 -9.3532639485077815e-03 5.3271205303035210e-03  7.5108031135363837e-02 -1.2266705307703608e-02 4.8112704057693715e-03  1.0701990790394902e-01 -1.2633607336768233e-02 4.7172632953784372e-03  1.3850654565527171e-01 -1.2311016430247334e-02 4.6426082378380048e-03  1.6967008734870628e-01 -1.1893074043115945e-02 4.6304988849558545e-03  2.0060619761892859e-01 -1.1550104413318241e-02 4.6298550124965702e-03  2.3141778775846991e-01 -1.1303694019622368e-02 4.6334558540951703e-03  2.6216951527436116e-01 -1.1130913174800746e-02 4.6363578684481283e-03  2.9289553467035279e-01 -1.1006273846335261e-02 4.6381564230355962e-03  3.2361169782336952e-01 -1.0911806904570007e-02 4.6390066723483742e-03  3.5432440176492913e-01 -1.0836957862177943e-02 4.6393086332089705e-03  3.8503583357717502e-01 -1.0776050925297280e-02 4.6393389941363347e-03  4.1574656501205826e-01 -1.0726121492923431e-02 4.6392618218372471e-03  4.4645668274348438e-01 -1.0685559580124716e-02 4.6391578455440103e-03  4.7716620098616375e-01 -1.0653399525199961e-02 4.6390615768831583e-03  5.0787517449627451e-01 -1.0628993549617953e-02 4.6389849402244335e-03  5.3858370617096996e-01 -1.0611880327347821e-02 4.6389308164043975e-03  5.6929193094178243e-01 -1.0601740084122692e-02 4.6388986693262175e-03  6.0000000000000009e-01 -1.0598382464571647e-02 4.6388873043654785e-03  0.0000000000000000e+00 0.0000000000000000e+00 0.0000000000000000e+00  1.9697528657826355e-02 -1.0067645507261819e-02 5.2048173260668745e-03  4.9436371513058845e-02 -2.1448062662702570e-02 4.7565248944059554e-03  7.8773168332754620e-02 -2.5612916187992444e-02 4.5488328109588418e-03  1.0891925199241877e-01 -2.6404822028542090e-02 4.6030961962839501e-03  1.3931482989459784e-01 -2.6105983024321450e-02 4.6107939741956410e-03  1.6990419063084514e-01 -2.5598019921199866e-02 4.6343937909632382e-03  2.0058630924897120e-01 -2.5178688513542692e-02 4.6486053250003817e-03  2.3130820531388988e-01 -2.4882598387723463e-02 4.6555679502897369e-03  2.6204400369134101e-01 -2.4683470365918059e-02 4.6582650683727311e-03  2.9278102324621502e-01 -2.4546086608436473e-02 4.6587859075468800e-03  3.2351501822015549e-01 -2.4445995149118091e-02 4.6584527334460500e-03  3.5424499220369882e-01 -2.4368729136028888e-02 4.6578874223100536e-03  3.8497127540153181e-01 -2.4306705813622008e-02 4.6573474261067853e-03  4.1569451484830761e-01 -2.4256131168399746e-02 4.6569075771954356e-03  4.4641535061509785e-01 -2.4215091922138846e-02 4.6565726861657773e-03  4.7713432896320018e-01 -2.4182537385132170e-02 4.6563264960586652e-03  5.0785190755624610e-01 -2.4157810474036485e-02 4.6561513942619251e-03  5.3856847991893486e-01 -2.4140458905993561e-02 4.6560344901694622e-03  5.6928440046681317e-01 -2.4130171800309737e-02 4.6559661222557603e-03  6.0000000000000009e-01 -2.4126765488035516e-02 4.6559432294081089e-03  0.0000000000000000e+00 0.0000000000000000e+00 0.0000000000000000e+00  3.0186728293458458e-02 -2.2770360937129381e-02 4.2679874609298984e-03  5.6481292597332401e-02 -3.3657672106787342e-02 4.2431441001480026e-03  8.2192402392225736e-02 -3.8054550958082446e-02 4.2120740881663498e-03  1.1031693211137161e-01 -3.9458293172304135e-02 4.4987717138067563e-03  1.3966066754906073e-01 -3.9418299873441934e-02 4.5743019710760280e-03  1.6986186257451122e-01 -3.9065240510853201e-02 4.6527237351185156e-03  2.0042304864267724e-01 -3.8702697608314345e-02 4.6745301113381311e-03  2.3114040232033142e-01 -3.8426858545546130e-02 4.6826740925796995e-03  2.6190158149863446e-01 -3.8230618482242872