<?xml version="1.0"?>
<VTKFile type="UnstructuredGrid"  version="0.1"  >
<UnstructuredGrid>
<Piece  NumberOfPoints="588" NumberOfCells="2160">
<Points>
<DataArray  type="Float64"  NumberOfComponents="3"  format="ascii">0 0 0  0.5 0 0  1 0 0  1.5 0 0  2 0 0  2.5 0 0  3 0 0  3.5 0 0  4 0 0  4.5 0 0  5 0 0  5.5 0 0  6 0 0  6.5 0 0  7 0 0  7.5 0 0  8 0 0  8.5 0 0  9 0 0  9.5 0 0  10 0 0  0 0.5 0  0.5 0.5 0  1 0.5 0  1.5 0.5 0  2 0.5 0  2.5 0.5 0  3 0.5 0  3.5 0.5 0  4 0.5 0  4.5 0.5 0  5 0.5 0  5.5 0.5 0  6 0.5 0  6.5 0.5 0  7 0.5 0  7.5 0.5 0  8 0.5 0  8.5 0.5 0  9 0.5 0  9.5 0.5 0  10 0.5 0  0 1 0  0.5 1 0  1 1 0  1.5 1 0  2 1 0  2.5 1 0  3 1 0  3.5 1 0  4 1 0  4.5 1 0  5 1 0  5.5 1 0  6 1 0  6.5 1 0  7 1 0  7.5 1 0  8 1 0  8.5 1 0  9 1 0  9.5 1 0  10 1 0  0 1.5 0  0.5 1.5 0  1 1.5 0  1.5 1.5 0  2 1.5 0  2.5 1.5 0  3 1.5 0  3.5 1.5 0  4 1.5 0  4.5 1.5 0  5 1.5 0  5.5 1.5 0  6 1.5 0  6.5 1.5 0  7 1.5 0  7.5 1.5 0  8 1.5 0  8.5 1.5 0  9 1.5 0  9.5 1.5 0  10 1.5 0  0 2 0  0.5 2 0  1 2 0  1.5 2 0  2 2 0  2.5 2 0  3 2 0  3.5 2 0  4 2 0  4.5 2 0  5 2 0  5.5 2 0  6 2 0  6.5 2 0  7 2 0  7.5 2 0  8 2 0  8.5 2 0  9 2 0  9.5 2 0  10 2 0  0 2.5 0  0.5 2.5 0  1 2.5 0  1.5 2.5 0  2 2.5 0  2.5 2.5 0  3 2.5 0  3.5 2.5 0  4 2.5 0  4.5 2.5 0  5 2.5 0  5.5 2.5 0  6 2.5 0  6.5 2.5 0  7 2.5 0  7.5 2.5 0  8 2.5 0  8.5 2.5 0  9 2.5 0  9.5 2.5 0  10 2.5 0  0 3 0  0.5 3 0  1 3 0  1.5 3 0  2 3 0  2.5 3 0  3 3 0  3.5 3 0  4 3 0  4.5 3 0  5 3 0  5.5 3 0  6 3 0  6.5 3 0  7 3 0  7.5 3 0  8 3 0  8.5 3 0  9 3 0  9.5 3 0  10 3 0  0 0 0.1666666666666667  0.5 0 0.1666666666666667  1 0 0.1666666666666667  1.5 0 0.1666666666666667  2 0 0.1666666666666667  2.5 0 0.1666666666666667  3 0 0.1666666666666667  3.5 0 0.1666666666666667  4 0 0.1666666666666667  4.5 0 0.1666666666666667  5 0 0.1666666666666667  5.5 0 0.1666666666666667  6 0 0.1666666666666667  6.5 0 0.1666666666666667  7 0 0.1666666666666667  7.5 0 0.1666666666666667  8 0 0.1666666666666667  8.5 0 0.1666666666666667  9 0 0.1666666666666667  9.5 0 0.1666666666666667  10 0 0.1666666666666667  0 0.5 0.1666666666666667  0.5 0.5 0.1666666666666667  1 0.5 0.1666666666666667  1.5 0.5 0.1666666666666667  2 0.5 0.1666666666666667  2.5 0.5 0.1666666666666667  3 0.5 0.1666666666666667  3.5 0.5 0.1666666666666667  4 0.5 0.1666666666666667  4.5 0.5 0.1666666666666667  5 0.5 0.1666666666666667  5.5 0.5 0.1666666666666667  6 0.5 0.1666666666666667  6.5 0.5 0.1666666666666667  7 0.5 0.1666666666666667  7.5 0.5 0.1666666666666667  8 0.5 0.1666666666666667  8.5 0.5 0.1666666666666667  9 0.5 0.1666666666666667  9.5 0.5 0.1666666666666667  10 0.5 0.1666666666666667  0 1 0.1666666666666667  0.5 1 0.1666666666666667  1 1 0.1666666666666667  1.5 1 0.1666666666666667  2 1 0.1666666666666667  2.5 1 0.1666666666666667  3 1 0.1666666666666667  3.5 1 0.1666666666666667  4 1 0.1666666666666667  4.5 1 0.1666666666666667  5 1 0.1666666666666667  5.5 1 0.1666666666666667  6 1 0.1666666666666667  6.5 1 0.1666666666666667  7 1 0.1666666666666667  7.5 1 0.1666666666666667  8 1 0.1666666666666667  8.5 1 0.1666666666666667  9 1 0.1666666666666667  9.5 1 0.1666666666666667  10 1 0.1666666666666667  0 1.5 0.1666666666666667  0.5 1.5 0.1666666666666667  1 1.5 0.1666666666666667  1.5 1.5 0.1666666666666667  2 1.5 0.1666666666666667  2.5 1.5 0.1666666666666667  3 1.5 0.1666666666666667  3.5 1.5 0.1666666666666667  4 1.5 0.1666666666666667  4.5 1.5 0.1666666666666667  5 1.5 0.1666666666666667  5.5 1.5 0.1666666666666667  6 1.5 0.1666666666666667  6.5 1.5 0.1666666666666667  7 1.5 0.1666666666666667  7.5 1.5 0.1666666666666667  8 1.5 0.1666666666666667  8.5 1.5 0.1666666666666667  9 1.5 0.1666666666666667  9.5 1.5 0.1666666666666667  10 1.5 0.1666666666666667  0 2 0.1666666666666667  0.5 2 0.1666666666666667  1 2 0.1666666666666667  1.5 2 0.1666666666666667  2 2 0.1666666666666667  2.5 2 0.1666666666666667  3 2 0.1666666666666667  3.5 2 0.1666666666666667  4 2 0.1666666666666667  4.5 2 0.1666666666666667  5 2 0.1666666666666667  5.5 2 0.1666666666666667  6 2 0.1666666666666667  6.5 2 0.1666666666666667  7 2 0.1666666666666667  7.5 2 0.1666666666666667  8 2 0.1666666666666667  8.5 2 0.1666666666666667  9 2 0.1666666666666667  9.5 2 0.1666666666666667  10 2 0.1666666666666667  0 2.5 0.1666666666666667  0.5 2.5 0.1666666666666667  1 2.5 0.1666666666666667  1.5 2.5 0.1666666666666667  2 2.5 0.1666666666666667  2.5 2.5 0.1666666666666667  3 2.5 0.1666666666666667  3.5 2.5 0.1666666666666667  4 2.5 0.1666666666666667  4.5 2.5 0.1666666666666667  5 2.5 0.1666666666666667  5.5 2.5 0.1666666666666667  6 2.5 0.1666666666666667  6.5 2.5 0.1666666666666667  7 2.5 0.1666666666666667  7.5 2.5 0.1666666666666667  8 2.5 0.1666666666666667  8.5 2.5 0.1666666666666667  9 2.5 0.1666666666666667  9.5 2.5 0.1666666666666667  10 2.5 0.1666666666666667  0 3 0.1666666666666667  0.5 3 0.1666666666666667  1 3 0.1666666666666667  1.5 3 0.1666666666666667  2 3 0.1666666666666667  2.5 3 0.1666666666666667  3 3 0.1666666666666667  3.5 3 0.1666666666666667  4 3 0.1666666666666667  4.5 3 0.1666666666666667  5 3 0.1666666666666667  5.5 3 0.1666666666666667  6 3 0.1666666666666667  6.5 3 0.1666666666666667  7 3 0.1666666666666667  7.5 3 0.1666666666666667  8 3 0.1666666666666667  8.5 3 0.1666666666666667  9 3 0.1666666666666667  9.5 3 0.1666666666666667  10 3 0.1666666666666667  0 0 0.3333333333333333  0.5 0 0.3333333333333333  1 0 0.3333333333333333  1.5 0 0.3333333333333333  2 0 0.3333333333333333  2.5 0 0.3333333333333333  3 0 0.3333333333333333  3.5 0 0.3333333333333333  4 0 0.3333333333333333  4.5 0 0.3333333333333333  5 0 0.3333333333333333  5.5 0 0.3333333333333333  6 0 0.3333333333333333  6.5 0 0.3333333333333333  7 0 0.3333333333333333  7.5 0 0.3333333333333333  8 0 0.3333333333333333  8.5 0 0.3333333333333333  9 0 0.3333333333333333  9.5 0 0.3333333333333333  10 0 0.3333333333333333  0 0.5 0.3333333333333333  0.5 0.5 0.3333333333333333  1 0.5 0.3333333333333333  1.5 0.5 0.3333333333333333  2 0.5 0.3333333333333333  2.5 0.5 0.3333333333333333  3 0.5 0.3333333333333333  3.5 0.5 0.3333333333333333  4 0.5 0.3333333333333333  4.5 0.5 0.3333333333333333  5 0.5 0.3333333333333333  5.5 0.5 0.3333333333333333  6 0.5 0.3333333333333333  6.5 0.5 0.3333333333333333  7 0.5 0.3333333333333333  7.5 0.5 0.3333333333333333  8 0.5 0.3333333333333333  8.5 0.5 0.3333333333333333  9 0.5 0.3333333333333333  9.5 0.5 0.3333333333333333  10 0.5 0.3333333333333333  0 1 0.3333333333333333  0.5 1 0.3333333333333333  1 1 0.3333333333333333  1.5 1 0.3333333333333333  2 1 0.3333333333333333  2.5 1 0.3333333333333333  3 1 0.3333333333333333  3.5 1 0.3333333333333333  4 1 0.3333333333333333  4.5 1 0.3333333333333333  5 1 0.3333333333333333  5.5 1 0.3333333333333333  6 1 0.3333333333333333  6.5 1 0.3333333333333333  7 1 0.3333333333333333  7.5 1 0.3333333333333333  8 1 0.3333333333333333  8.5 1 0.3333333333333333  9 1 0.3333333333333333  9.5 1 0.3333333333333333  10 1 0.3333333333333333  0 1.5 0.3333333333333333  0.5 1.5 0.3333333333333333  1 1.5 0.3333333333333333  1.5 1.5 0.3333333333333333  2 1.5 0.3333333333333333  2.5 1.5 0.3333333333333333  3 1.5 0.3333333333333333  3.5 1.5 0.3333333333333333  4 1.5 0.3333333333333333  4.5 1.5 0.3333333333333333  5 1.5 0.3333333333333333  5.5 1.5 0.3333333333333333  6 1.5 0.3333333333333333  6.5 1.5 0.3333333333333333  7 1.5 0.3333333333333333  7.5 1.5 0.3333333333333333  8 1.5 0.3333333333333333  8.5 1.5 0.3333333333333333  9 1.5 0.3333333333333333  9.5 1.5 0.3333333333333333  10 1.5 0.3333333333333333  0 2 0.3333333333333333  0.5 2 0.3333333333333333  1 2 0.3333333333333333  1.5 2 0.3333333333333333  2 2 0.3333333333333333  2.5 2 0.3333333333333333  3 2 0.3333333333333333  3.5 2 0.3333333333333333  4 2 0.3333333333333333  4.5 2 0.3333333333333333  5 2 0.3333333333333333  5.5 2 0.3333333333333333  6 2 0.3333333333333333  6.5 2 0.3333333333333333  7 2 0.3333333333333333  7.5 2 0.3333333333333333  8 2 0.3333333333333333  8.5 2 0.3333333333333333  9 2 0.3333333333333333  9.5 2 0.3333333333333333  10 2 0.3333333333333333  0 2.5 0.3333333333333333  0.5 2.5 0.3333333333333333  1 2.5 0.3333333333333333  1.5 2.5 0.3333333333333333  2 2.5 0.3333333333333333  2.5 2.5 0.3333333333333333  3 2.5 0.3333333333333333  3.5 2.5 0.3333333333333333  4 2.5 0.3333333333333333  4.5 2.5 0.3333333333333333  5 2.5 0.3333333333333333  5.5 2.5 0.3333333333333333  6 2.5 0.3333333333333333  6.5 2.5 0.3333333333333333  7 2.5 0.3333333333333333  7.5 2.5 0.3333333333333333  8 2.5 0.3333333333333333  8.5 2.5 0.3333333333333333  9 2.5 0.3333333333333333  9.5 2.5 0.3333333333333333  10 2.5 0.3333333333333333  0 3 0.3333333333333333  0.5 3 0.3333333333333333  1 3 0.3333333333333333  1.5 3 0.3333333333333333  2 3 0.3333333333333333  2.5 3 0.3333333333333333  3 3 0.3333333333333333  3.5 3 0.3333333333333333  4 3 0.3333333333333333  4.5 3 0.3333333333333333  5 3 0.3333333333333333  5.5 3 0.3333333333333333  6 3 0.3333333333333333  6.5 3 0.3333333333333333  7 3 0.3333333333333333  7.5 3 0.3333333333333333  8 3 0.3333333333333333  8.5 3 0.3333333333333333  9 3 0.3333333333333333  9.5 3 0.3333333333333333  10 3 0.3333333333333333  0 0 0.5  0.5 0 0.5  1 0 0.5  1.5 0 0.5  2 0 0.5  2.5 0 0.5  3 0 0.5  3.5 0 0.5  4 0 0.5  4.5 0 0.5  5 0 0.5  5.5 0 0.5  6 0 0.5  6.5 0 0.5  7 0 0.5  7.5 0 0.5  8 0 0.5  8.5 0 0.5  9 0 0.5  9.5 0 0.5  10 0 0.5  0 0.5 0.5  0.5 0.5 0.5  1 0.5 0.5  1.5 0.5 0.5  2 0.5 0.5  2.5 0.5 0.5  3 0.5 0.5  3.5 0.5 0.5  4 0.5 0.5  4.5 0.5 0.5  5 0.5 0.5  5.5 0.5 0.5  6 0.5 0.5  6.5 0.5 0.5  7 0.5 0.5  7.5 0.5 0.5  8 0.5 0.5  8.5 0.5 0.5  9 0.5 0.5  9.5 0.5 0.5  10 0.5 0.5  0 1 0.5  0.5 1 0.5  1 1 0.5  1.5 1 0.5  2 1 0.5  2.5 1 0.5  3 1 0.5  3.5 1 0.5  4 1 0.5  4.5 1 0.5  5 1 0.5  5.5 1 0.5  6 1 0.5  6.5 1 0.5  7 1 0.5  7.5 1 0.5  8 1 0.5  8.5 1 0.5  9 1 0.5  9.5 1 0.5  10 1 0.5  0 1.5 0.5  0.5 1.5 0.5  1 1.5 0.5  1.5 1.5 0.5  2 1.5 0.5  2.5 1.5 0.5  3 1.5 0.5  3.5 1.5 0.5  4 1.5 0.5  4.5 1.5 0.5  5 1.5 0.5  5.5 1.5 0.5  6 1.5 0.5  6.5 1.5 0.5  7 1.5 0.5  7.5 1.5 0.5  8 1.5 0.5  8.
[...]
<PointData  Vectors="f_7-0"> 
<DataArray  type="Float64"  Name="f_7-0"  NumberOfComponents="3" format="ascii">0.0000000000000000e+00 0.0000000000000000e+00 0.0000000000000000e+00  7.1626079093841633e-01 5.4064716176545691e-01 9.6449419233964065e-02  1.7603076280744407e+00 5.8532919643836467e-01 9.7447661450284301e-02  2.8228592199421727e+00 5.8710728233923859e-01 9.8046696249039181e-02  3.8899979367853152e+00 5.8698345709225419e-01 9.8157451405528826e-02  4.9590134126953460e+00 5.8689509857129407e-01 9.8192124182627044e-02  6.0283949812918003e+00 5.8685702587339061e-01 9.8200657088307067e-02  7.0978252890630378e+00 5.8683965736735977e-01 9.8201751608820734e-02  8.1672505064054839e+00 5.8683108741914425e-01 9.8201667595536168e-02  9.2366640421694495e+00 5.8682670195561359e-01 9.8201401408596692e-02  1.0306068513636088e+01 5.8682440681854398e-01 9.8201177437511958e-02  1.1375467326014274e+01 5.8682318596705152e-01 9.8201034041008703e-02  1.2444862878854462e+01 5.8682253092393699e-01 9.8200950226344189e-02  1.3514256612688561e+01 5.8682217812992299e-01 9.8200902803989562e-02  1.4583649346495053e+01 5.8682198774028715e-01 9.8200876470239035e-02  1.5653041534963407e+01 5.8682188492244736e-01 9.8200862021809249e-02  1.6722433427533215e+01 5.8682182947148964e-01 9.8200854157947950e-02  1.7791825160453737e+01 5.8682179976244964e-01 9.8200849921778938e-02  1.8861216808420238e+01 5.8682178422304609e-01 9.8200847698319799e-02  1.9930608413211722e+01 5.8682177681835157e-01 9.8200846638415176e-02  2.1000000000000007e+01 5.8682177463910579e-01 9.8200846310064233e-02  0.0000000000000000e+00 0.0000000000000000e+00 0.0000000000000000e+00  7.0118930498648924e-01 3.5324293840919707e-01 9.9359624541902558e-02  1.7534168087028594e+00 3.9073902846370884e-01 9.8320563610388712e-02  2.8212004434827374e+00 3.9177215706559004e-01 9.8495919939262253e-02  3.8896040778397625e+00 3.9150257808321975e-01 9.8521017947508713e-02  4.9589412141049092e+00 3.9138828323645264e-01 9.8523979431130046e-02  6.0283896003467285e+00 3.9134522547968431e-01 9.8525943552536882e-02  7.0978308578441718e+00 3.9132827065582171e-01 9.8525767697177594e-02  8.1672560484011232e+00 3.9132088067486581e-01 9.8525224132468475e-02  9.2366677594958322e+00 3.9131736100242082e-01 9.8524845832674540e-02  1.0306070716510904e+01 3.9131559404276683e-01 9.8524620314566394e-02  1.1375468570461791e+01 3.9131467669530745e-01 9.8524490394808706e-02  1.2444863567114405e+01 3.9131419098262515e-01 9.8524417454010971e-02  1.3514256989269933e+01 3.9131393117528895e-01 9.8524377267139862e-02  1.4583649551358732e+01 3.9131379146262374e-01 9.8524355315306733e-02  1.5653041645989571e+01 3.9131371615324462e-01 9.8524343375163220e-02  1.6722433487398629e+01 3.9131367557766866e-01 9.8524336909049104e-02  1.7791825192296269e+01 3.9131365384902561e-01 9.8524333437310235e-02  1.8861216824581415e+01 3.9131364248758138e-01 9.8524331619099820e-02  1.9930608419969222e+01 3.9131363707105682e-01 9.8524330758366446e-02  2.1000000000000007e+01 3.9131363548552395e-01 9.8524330507266847e-02  0.0000000000000000e+00 0.0000000000000000e+00 0.0000000000000000e+00  6.8984963426214430e-01 1.7459714175844884e-01 1.0184799074606181e-01  1.7424252601932186e+00 1.9566928937708564e-01 9.9174276877363188e-02  2.8182636647546544e+00 1.9619676058810492e-01 9.8971430230530649e-02  3.8888997283585751e+00 1.9595197681955781e-01 9.8881140178667865e-02  4.9588156908776293e+00 1.9586252295304532e-01 9.8858537822106934e-02  6.0283887899633486e+00 1.9582920810206267e-01 9.8852022233672926e-02  7.0978486348923537e+00 1.9581633646788837e-01 9.8849534895699948e-02  8.1672710522447023e+00 1.9581081646411044e-01 9.8848579128718431e-02  9.2366773471211960e+00 1.9580821628059203e-01 9.8848179476333675e-02  1.0306076299846360e+01 1.9580692247543341e-01 9.8847998473770848e-02  1.1375471702165203e+01 1.9580625368619092e-01 9.8847909675582782e-02  1.2444865292958156e+01 1.9580590044319546e-01 9.8847864297415072e-02  1.3514257931797479e+01 1.9580571172129110e-01 9.8847840660872238e-02  1.4583650063624685e+01 1.9580561029300950e-01 9.8847828150025976e-02  1.5653041923486771e+01 1.9580555563596061e-01 9.8847821465697344e-02  1.6722433636992228e+01 1.9580552619143135e-01 9.8847817884798336e-02  1.7791825271859320e+01 1.9580551042416608e-01 9.8847815975370679e-02  1.8861216864968142e+01 1.9580550217978243e-01 9.8847814980752347e-02  1.9930608436853841e+01 1.9580549824675195e-01 9.8847814520502994e-02  2.1000000000000007e+01 1.9580549708719480e-01 9.8847814383290419e-02  0.0000000000000000e+00 0.0000000000000000e+00 0.0000000000000000e+00  6.8636449417516587e-01 1.2413524539656813e-03 1.0265705502187034e-01  1.7375008074740272e+00 4.7494025427192348e-04 9.9640182174672368e-02  2.8172567716901851e+00 3.8706825950500615e-04 9.9339800486020743e-02  3.8887793157376320e+00 3.3508715999734168e-04 9.9214235003626805e-02  4.9588510572266724e+00 3.2237227312273447e-04 9.9183026608782476e-02  6.0284448772897123e+00 3.1115630711257879e-04 9.9175021696208274e-02  7.0978889334860407e+00 3.0478877956800142e-04 9.9172326470615246e-02  8.1672957123233729e+00 3.0141469892145713e-04 9.9171583101293509e-02  9.2366914453888960e+00 2.9955740904796579e-04 9.9171377467296651e-02  1.0306084136577649e+01 2.9854856896707722e-04 9.9171318475533496e-02  1.1375476003263358e+01 2.9800149015774864e-04 9.9171301877216692e-02  1.2444867637398845e+01 2.9770506244394964e-04 9.9171297966196864e-02  1.3514259205047315e+01 2.9754454026214791e-04 9.9171297377806195e-02  1.4583650753725060e+01 2.9745764411633486e-04 9.9171297503142977e-02  1.5653042296797111e+01 2.9741064025744723e-04 9.9171297711628484e-02  1.6722433838095263e+01 2.9738526755924803e-04 9.9171297870682518e-02  1.7791825378784505e+01 2.9737166548172127e-04 9.9171297971956049e-02  1.8861216919240086e+01 2.9736454780802506e-04 9.9171298032431965e-02  1.9930608459568553e+01 2.9736114582796716e-04 9.9171298076046299e-02  2.1000000000000007e+01 2.9736013753772008e-04 9.9171298084620732e-02  0.0000000000000000e+00 0.0000000000000000e+00 0.0000000000000000e+00  6.9154976771654120e-01 -1.7188160900641405e-01 1.0215124718703912e-01  1.7424230327017554e+00 -1.9475763148179545e-01 9.9817282240337993e-02  2.8194055342392090e+00 -1.9542826846441691e-01 9.9548452162569592e-02  3.8895606424773184e+00 -1.9524837322300814e-01 9.9501761313938272e-02  4.9591424290572999e+00 -1.9520747162795699e-01 9.9494959809313888e-02  6.0285747438115713e+00 -1.9520262531710542e-01 9.9494471299314116e-02  7.0979493036833290e+00 -1.9520419800530645e-01 9.9494050484546653e-02  8.1673259192231598e+00 -1.9520663115762296e-01 9.9494285717511774e-02  9.2367070847066408e+00 -1.9520837949775696e-01 9.9494490204064964e-02  1.0306092402798322e+01 -1.9520943606030641e-01 9.9494613488510464e-02  1.1375480426083845e+01 -1.9521004041054313e-01 9.9494687656010619e-02  1.2444870016341769e+01 -1.9521037659341181e-01 9.9494730284407640e-02  1.3514260488363448e+01 -1.9521056112294971e-01 9.9494753973963693e-02  1.4583651446927149e+01 -1.9521066170340187e-01 9.9494766981966951e-02  1.5653042671132255e+01 -1.9521071630504316e-01 9.9494774087826254e-02  1.6722434039571990e+01 -1.9521074583620115e-01 9.9494777947042728e-02  1.7791825485863352e+01 -1.9521076168438473e-01 9.9494780024285384e-02  1.8861216973584355e+01 -1.9521076998381268e-01 9.9494781116130068e-02  1.9930608482323088e+01 -1.9521077395426809e-01 9.9494781648999067e-02  2.1000000000000007e+01 -1.9521077513396401e-01 9.9494781800350568e-02  0.0000000000000000e+00 0.0000000000000000e+00 0.0000000000000000e+00  7.0933379654762674e-01 -3.5216593748964947e-01 1.0113181540118156e-01  1.7540574729665519e+00 -3.8966037649590252e-01 9.9446721861393472e-02  2.8231907083996268e+00 -3.9086079979152927e-01 9.9615503928296864e-02  3.8907804750306600e+00 -3.9073852613263493e-01 9.9789307946122466e-02  4.9595307271260349e+00 -3.9071161740546684e-01 9.9804339414877333e-02  6.0287159769669678e+00 -3.9070527843974978e-01 9.9812067782607525e-02  7.0980074686865500e+00 -3.9070921687430610e-01 9.9815650231995082e-02  8.1673520555811532e+00 -3.9071306352361407e-01 9.9817016051708715e-02  9.2367197235296601e+00 -3.9071555858718249e-01 9.9817639807696562e-02  1.0306098844678278e+01 -3.9071704874117291e-01 9.9817939977667455e-02  1.1375483802076143e+01 -3.9071789124152057e-01 9.9818094248245837e-02  1.2444871812077869e+01 -3.9071835773080532e-01 9.9818174880113603e-02  1.3514261451627531e+01 -3.9071861318377588e-01 9.9818217513446397e-02  1.4583651965740044e+01 -3.9071875224699221e-01 9.9818240331459043e-02  1.5653042950874298e+01 -3.9071882770033206e-01 9.9818252599528437e-02  1.6722434190022003e+01 -3.9071886849733684e-01 9.9818259195921466e-02  1.7791825565795246e+01 -3.9071889038785274e-01 9.9818262724457360e-02  1.8861217014147954e+01 -3.9071890185061969e-01 9.9818264569308757e-02  1.9930608499313013e+01 -3.9071890733579873e-01 9.9818265459537023e-02  2.1000000000000007e+01 -3.9071890896212713e-01 9.9818265719878063e-02  0.0000000000000000e+00 0.0000000000000000e+00 0.0000000000000000e+00  7.3734542594471286e-01 -5.3930786750971049e-01 9.4610428991980605e-02  1.7605174636384895e+00 -5.8335444763033206e-01 9.8198835224807532e-02  2.8253137318470918e+00 -5.8608807223031034e-01 1.0010348407937648e-01  3.8914492473189126e+00 -5.8617940618873243e-01 1.0010499661566340e-01  4.9596982203258531e+00 -5.8618156115157316e-01 1.0010677741216788e-01  6.0287788685206269e+00 -5.8619992067801829e-01 1.0013355491216309e-01  7.0980336633800061e+00 -5.8621181919582876e-01 1.0013818981746962e-01  8.1673630236716317e+00 -5.8621838170146956e-01 1.0014005111286191e-01  9.2367249425579896e+00 -5.8622228493294304e-01 1.0014094426401371e-01  1.0306101475102656e+01 -5.8622445063200002e-01 1.0014134431855784e-01  1.1375485168687229e+01 -5.8622563712021514e-01 1.0014154136254970e-01  1.2444872535918785e+01 -5.8622628475606786e-01 1.0014164059476151e-01  1.3514261839014278e+01 -5.8622663666595054e-01 1.0014169236267342e-01  1.4583652174157299e+01 -5.8622682753223410e-01 1.0014171979447459e-01  1.5653043063186999e+01 -5.8622693088517164e-01 1.0014173441683422e-01  1.6722434250406629e+01 -5.8622698670829165e-01 1.0014174224187981e-01  1.7791825597872542e+01 -5.8622701664566801e-01 1.0014174641690284e-01  1.8861217030425561e+01 -5.8622703231805873e-01 1.0014174859611723e-01  1.9930608506124830e+01 -5.8622703982113722e-01 1.0014174963478213e-01  2.1000000000000007e+01 -5.8622704201506726e-01 1.0014174995959702e-01  0.0000000000000000e+00 0.0000000000000000e+00 0.0000000000000000e+00  7.1735477145138771e-01 5.3865185597762821e-01 3.2461274014595046e-02  1.7604056609295418e+00 5.8505961471535062e-01 3.2660832416286159e-02  2.8228583238560385e+00 5.8698872277556746e-01 3.2962324022362620e-02  3.8899996222610800e+00 5.8686503454650807e-01 3.3002796075688991e-02  4.9590129923527924e+00 5.8678474098759770e-01 3.3024146836614629e-02  6.0283950631993619e+00 5.8674874604633653e-01 3.3030444250835761e-02  7.0978253504932409e+00 5.8673167981513763e-01 3.3031387898563955e-02  8.1672505121962615e+00 5.8672322272987332e-01 3.3031601159523569e-02  9.2366640439547236e+00 5.8671887425242664e-01 3.3031611922054060e-02  1.0306068515672312e+01 5.8671658438005325e-01 3.3031566006375176e-02  1.1375467327161571e+01 5.8671536237820054e-01 3.3031526316305626e-02  1.2444862879458318e+01 5.8671470577999696e-01 3.3031500828418027e-02  1.3514256613030311e+01 5.8671435179243181e-01 3.3031485599905500e-02  1.4583649346687800e+01 5.8671416062806214e-01 3.3031476853767359e-02  1.5653041535069200e+01 5.8671405735176541e-01 3.3031471962355299e-02  1.6722433427589603e+01 5.8671400164085730e-01 3.3031469269489536e-02  1.7791825160481665e+01 5.8671397178809082e-01 3.3031467808215489e-02  1.8861216808428978e+01 5.8671395617289002e-01 3.3031467038006676e-02  1.9930608413206674e+01 5.8671394873048321e-01 3.3031466668472169e-02  2.1000000000000007e+01 5.8671394652888476e-01 3.3031466547961803e-02  0.0000000000000000e+00 0.0000000000000000e+00 0.0000000000000000e+00  7.0258452317439379e-01 3.5270432856780098e-01 3.3932440553579073e-02  1.7538110920791385e+00 3.9040574468788031e-01 3.3214010064673324e-02  2.8211775342717544e+00 3.9162669654205862e-01 3.3331891623032142e-02  3.8895991771615401e+00 3.9138259993641916e-01 3.3355781325751011e-02  4.9589429425667619e+00 3.9127755980189571e-01 3.3354278462119420e-02  6.0283899056273569e+00 3.9123681462778154e-01 3.3355243854599793e-02  7.0978308939366057e+00 3.9122030273274594e-01 3.3355371169054349e-02  8.1672560565534802e+00 3.9121303883259029e-01 3.3355228994419110e-02  9.2366677658354082e+00 3.9120954852607620e-01 3.3355115857774106e-02  1.0306070719382252e+01 3.9120778079178620e-01 3.3355045652456394e-02  1.1375468571619852e+01 3.9120685842814251e-01 3.3355003959673536e-02  1.2444863567699411e+01 3.9120636879956083e-01 3.3354980013676892e-02  1.3514256989589892e+01 3.9120610645656928e-01 3.3354966649555208e-02  1.4583649551530987e+01 3.9120596523167350e-01 3.3354959293975861e-02  1.5653041646081860e+01 3.9120588906159270e-01 3.3354955272517341e-02  1.6722433487447546e+01 3.9120584800784597e-01 3.3354953087274521e-02  1.7791825192320658e+01 3.9120582601848464e-01 3.3354951911432784e-02  1.8861216824590219e+01 3.9120581451924608e-01 3.3354951294994599e-02  1.9930608419966646e+01 3.9120580903605684e-01 3.3354951003394681e-02  2.1000000000000007e+01 3.9120580742541555e-01 3.3354950917951258e-02  0.0000000000000000e+00 0.0000000000000000e+00 0.0000000000000000e+00  6.9153668249297584e-01 1.7424557161871346e-01 3.4714917927125048e-02  1.7427794284211666e+00 1.9542321387757947e-01 3.3846449861423149e-02  2.8182762764183544e+00 1.9605603203123109e-01 3.3736093733812506e-02  3.8888887777320247e+00 1.9583865036842035e-01 3.3694800545861110e-02  4.9588193902353952e+00 1.9575325839445659e-01 3.3683791248662200e-02  6.0283888507499110e+00 1.9572107036829040e-01 3.3680314560911993e-02  7.0978486109576115e+00 1.9570850767322545e-01 3.3679175537992483e-02  8.1672710662358305e+00 1.9570304686609946e-01 3.3678751280289049e-02  9.2366773513014042e+00 1.9570043506680615e-01 3.3678576446907096e-02  1.0306076299508401e+01 1.9569912395779049e-01 3.3678502746673111e-02  1.1375471701562969e+01 1.9569844299823352e-01 3.3678469023472414e-02  1.2444865292621509e+01 1.9569808219297813e-01 3.3678452476920563e-02  1.3514257931594166e+01 1.9569788906283778e-01 3.3678444127737600e-02  1.4583650063504106e+01 1.9569778515666603e-01 3.3678439814974363e-02  1.5653041923419350e+01 1.9569772913104663e-01 3.3678437546472248e-02  1.6722433636955060e+01 1.9569769893852593e-01 3.3678436343235515e-02  1.7791825271838533e+01 1.9569768276743171e-01 3.3678435705803228e-02  1.8861216864955601e+01 1.9569767431096044e-01 3.3678435375638249e-02  1.9930608436845155e+01 1.9569767027659671e-01 3.3678435223390681e-02  2.1000000000000007e+01 1.9569766908756869e-01 3.3678435177164644e-02  0.0000000000000000e+00 0.0000000000000000e+00 0.0000000000000000e+00  6.8810780625324686e-01 1.1846817543341623e-03 3.5050326266733413e-02  1.7377362856296088e+00 3.2708128072505324e-04 3.4267309253202712e-02  2.8173395562834767e+00 2.8773813137856238e-04 3.4090454608004327e-02  3.8887545107701258e+00 2.3302270451398292e-04 3.4017470493947613e-02  4.9588544185463164e+00 2.1552356510330358e-04 3.4008012899238618e-02  6.0284446962659359e+00 2.0380229914415172e-04 3.4003883945944051e-02  7.0978888241837650e+00 1.9724894325498865e-04 3.4002476901546799e-02  8.1672957180483632e+00 1.9373412223487021e-04 3.4002095481386010e-02  9.2366914386598200e+00 1.9180448178852393e-04 3.4001972896077329e-02  1.0306084131386037e+01 1.9076052205450116e-04 3.4001935038171692e-02  1.1375476000775290e+01 1.9019497607617106e-04 3.4001923504675520e-02  1.2444867636095168e+01 1.8988856527749152e-04 3.4001920189356466e-02  1.3514259204316792e+01 1.8972267230625049e-04 3.4001919363064903e-02  1.4583650753325395e+01 1.8963288840000326e-04 3.4001919224683701e-02  1.5653042296581331e+01 1.8958432637012498e-04 3.4001919251863834e-02  1.6722433837978972e+01 1.8955811343394734e-04 3.4001919301393624e-02  1.7791825378722610e+01 1.8954406146654432e-04 3.4001919339944502e-02  1.8861216919208683e+01 1.8953670870781823e-04 3.4001919365295945e-02  1.9930608459555657e+01 1.8953319558740874e-04 3.4001919381949880e-02  2.1000000000000007e+01 1.8953215736419588e-04 3.4001919384600836e-02  0.0000000000000000e+00 0.0000000000000000e+00 0.0000000000000000e+00  6.9325776257990324e-01 -1.7185444244484127e-01 3.5172859104692450e-02  1.7426404016566444e+00 -1.9476335476690468e-01 3.4560462555559092e-02  2.8194999440534523e+00 -1.9548212835292750e-01 3.4350110937951303e-02  3.8895247368145776e+00 -1.9534750616032839e-01 3.4323074514592357e-02  4.9591456957773454e+00 -1.9531241783796827e-01 3.4327025303828050e-02  6.0285744876362459e+00 -1.9530905294501238e-01 3.4325636608267845e-02  7.0979490732008239e+00 -1.9531156834716895e-01 3.4325236818657880e-02  8.1673259179572373e+00 -1.9531427306860547e-01 3.4325282208824796e-02  9.2367070646243761e+00 -1.9531612289027964e-01 3.4325320438190227e-02  1.0306092394099247e+01 -1.9531722374577293e-01 3.4325352475313750e-02  1.1375480422289026e+01 -1.9531784821824338e-01 3.4325373902604636e-02  1.2444870014292260e+01 -1.9531819426409361e-01 3.4325386970034795e-02  1.3514260487260378e+01 -1.9531838376063915e-01 3.4325394494164850e-02  1.4583651446340173e+01 -1.9531848691887169e-01 3.4325398709007943e-02  1.5653042670818246e+01 -1.9531854288306205e-01 3.4325401042720902e-02  1.6722434039403854e+01 -1.9531857313875875e-01 3.4325402321197233e-02  1.7791825485775057e+01 -1.9531858937158242e-01 3.4325403012985437e-02  1.8861216973541538e+01 -1.9531859787077796e-01 3.4325403378085255e-02  1.9930608482308607e+01 -1.9531860193562628e-01 3.4325403555474990e-02  2.1000000000000007e+01 -1.9531860313992899e-01 3.4325403605016756e-02  0.0000000000000000e+00 0.0000000000000000e+00 0.0000000000000000e+00  7.1135983152852056e-01 -3.5152016808448411e-01 3.5384345419253116e-02  1.7541608020783568e+00 -3.8949086275843436e-01 3.4512063949096852e-02  2.8232916166558626e+00 -3.9095190494028453e-01 3.4551423205689713e-02  3.8907496920054658e+00 -3.9084027466114546e-01 3.4637910735221426e-02  4.9595300469177168e+00 -3.9081457473116638e-01 3.4643200808973804e-02  6.0287162146682345e+00 -3.9081221338088251e-01 3.4646490663873694e-02  7.0980072754241483e+00 -3.9081669087809867e-01 3.4647935764863171e-02  8.1673520214854793e+00 -3.9082073808634893e-01 3.4648437631627366e-02  9.2367197011196094e+00 -3.9082332682927950e-01 3.4648670556840330e-02  1.0306098835977378e+01 -3.9082484942476697e-01 3.4648777085917855e-02  1.1375483797983375e+01 -3.9082570639658004e-01 3.4648830401139225e-02  1.2444871809862102e+01 -3.9082617943586989e-01 3.4648857766466146e-02  1.3514261450469176e+01 -3.9082643802171302e-01 3.4648872009073683e-02  1.4583651965134175e+01 -3.9082657866785298e-01 3.4648879567994319e-02  1.5653042950551249e+01 -3.9082665493624114e-01 3.4648883608472139e-02  1.6722434189849892e+01 -3.9082669615943449e-01 3.4648885772000607e-02  1.7791825565706048e+01 -3.9082671827414062e-01 3.4648886926314772e-02  1.8861217014106710e+01 -3.9082672985275529e-01 3.4648887528680387e-02  1.9930608499301503e+01 -3.9082673539158186e-01 3.4648887818682320e-02  2.1000000000000007e+01 -3.9082673703193294e-01 3.4648887905651224e-02  0.0000000000000000e+00 0.0000000000000000e+00 0.0000000000000000e+00  7.3538681253430105e-01 -5.3819262225589792e-01 3.2674410810043360e-02  1.7610523998431888e+00 -5.8296735025497770e-01 3.4101836257984214e-02  2.8254299147669228e+00 -5.8632582044122883e-01 3.5027466163322377e-02  3.8913828998467839e+00 -5.8627084211949665e-01 3.4943047237859327e-02  4.9596983511331851e+00 -5.8628268908683612e-01 3.4956520395332591e-02  6.0287808063115644e+00 -5.8630819029621917e-01 3.4969786028560192e-02  7.0980331464384827e+00 -5.8631927098129677e-01 3.4970729478304381e-02  8.1673629667285663e+00 -5.8632610698056153e-01 3.4971707272957973e-02  9.2367249285493234e+00 -5.8633007222873423