<?xml version="1.0"?>
<VTKFile type="UnstructuredGrid"  version="0.1"  >
<UnstructuredGrid>
<Piece  NumberOfPoints="588" NumberOfCells="2160">
<Points>
<DataArray  type="Float64"  NumberOfComponents="3"  format="ascii">0 0 0  0.5 0 0  1 0 0  1.5 0 0  2 0 0  2.5 0 0  3 0 0  3.5 0 0  4 0 0  4.5 0 0  5 0 0  5.5 0 0  6 0 0  6.5 0 0  7 0 0  7.5 0 0  8 0 0  8.5 0 0  9 0 0  9.5 0 0  10 0 0  0 0.5 0  0.5 0.5 0  1 0.5 0  1.5 0.5 0  2 0.5 0  2.5 0.5 0  3 0.5 0  3.5 0.5 0  4 0.5 0  4.5 0.5 0  5 0.5 0  5.5 0.5 0  6 0.5 0  6.5 0.5 0  7 0.5 0  7.5 0.5 0  8 0.5 0  8.5 0.5 0  9 0.5 0  9.5 0.5 0  10 0.5 0  0 1 0  0.5 1 0  1 1 0  1.5 1 0  2 1 0  2.5 1 0  3 1 0  3.5 1 0  4 1 0  4.5 1 0  5 1 0  5.5 1 0  6 1 0  6.5 1 0  7 1 0  7.5 1 0  8 1 0  8.5 1 0  9 1 0  9.5 1 0  10 1 0  0 1.5 0  0.5 1.5 0  1 1.5 0  1.5 1.5 0  2 1.5 0  2.5 1.5 0  3 1.5 0  3.5 1.5 0  4 1.5 0  4.5 1.5 0  5 1.5 0  5.5 1.5 0  6 1.5 0  6.5 1.5 0  7 1.5 0  7.5 1.5 0  8 1.5 0  8.5 1.5 0  9 1.5 0  9.5 1.5 0  10 1.5 0  0 2 0  0.5 2 0  1 2 0  1.5 2 0  2 2 0  2.5 2 0  3 2 0  3.5 2 0  4 2 0  4.5 2 0  5 2 0  5.5 2 0  6 2 0  6.5 2 0  7 2 0  7.5 2 0  8 2 0  8.5 2 0  9 2 0  9.5 2 0  10 2 0  0 2.5 0  0.5 2.5 0  1 2.5 0  1.5 2.5 0  2 2.5 0  2.5 2.5 0  3 2.5 0  3.5 2.5 0  4 2.5 0  4.5 2.5 0  5 2.5 0  5.5 2.5 0  6 2.5 0  6.5 2.5 0  7 2.5 0  7.5 2.5 0  8 2.5 0  8.5 2.5 0  9 2.5 0  9.5 2.5 0  10 2.5 0  0 3 0  0.5 3 0  1 3 0  1.5 3 0  2 3 0  2.5 3 0  3 3 0  3.5 3 0  4 3 0  4.5 3 0  5 3 0  5.5 3 0  6 3 0  6.5 3 0  7 3 0  7.5 3 0  8 3 0  8.5 3 0  9 3 0  9.5 3 0  10 3 0  0 0 0.1666666666666667  0.5 0 0.1666666666666667  1 0 0.1666666666666667  1.5 0 0.1666666666666667  2 0 0.1666666666666667  2.5 0 0.1666666666666667  3 0 0.1666666666666667  3.5 0 0.1666666666666667  4 0 0.1666666666666667  4.5 0 0.1666666666666667  5 0 0.1666666666666667  5.5 0 0.1666666666666667  6 0 0.1666666666666667  6.5 0 0.1666666666666667  7 0 0.1666666666666667  7.5 0 0.1666666666666667  8 0 0.1666666666666667  8.5 0 0.1666666666666667  9 0 0.1666666666666667  9.5 0 0.1666666666666667  10 0 0.1666666666666667  0 0.5 0.1666666666666667  0.5 0.5 0.1666666666666667  1 0.5 0.1666666666666667  1.5 0.5 0.1666666666666667  2 0.5 0.1666666666666667  2.5 0.5 0.1666666666666667  3 0.5 0.1666666666666667  3.5 0.5 0.1666666666666667  4 0.5 0.1666666666666667  4.5 0.5 0.1666666666666667  5 0.5 0.1666666666666667  5.5 0.5 0.1666666666666667  6 0.5 0.1666666666666667  6.5 0.5 0.1666666666666667  7 0.5 0.1666666666666667  7.5 0.5 0.1666666666666667  8 0.5 0.1666666666666667  8.5 0.5 0.1666666666666667  9 0.5 0.1666666666666667  9.5 0.5 0.1666666666666667  10 0.5 0.1666666666666667  0 1 0.1666666666666667  0.5 1 0.1666666666666667  1 1 0.1666666666666667  1.5 1 0.1666666666666667  2 1 0.1666666666666667  2.5 1 0.1666666666666667  3 1 0.1666666666666667  3.5 1 0.1666666666666667  4 1 0.1666666666666667  4.5 1 0.1666666666666667  5 1 0.1666666666666667  5.5 1 0.1666666666666667  6 1 0.1666666666666667  6.5 1 0.1666666666666667  7 1 0.1666666666666667  7.5 1 0.1666666666666667  8 1 0.1666666666666667  8.5 1 0.1666666666666667  9 1 0.1666666666666667  9.5 1 0.1666666666666667  10 1 0.1666666666666667  0 1.5 0.1666666666666667  0.5 1.5 0.1666666666666667  1 1.5 0.1666666666666667  1.5 1.5 0.1666666666666667  2 1.5 0.1666666666666667  2.5 1.5 0.1666666666666667  3 1.5 0.1666666666666667  3.5 1.5 0.1666666666666667  4 1.5 0.1666666666666667  4.5 1.5 0.1666666666666667  5 1.5 0.1666666666666667  5.5 1.5 0.1666666666666667  6 1.5 0.1666666666666667  6.5 1.5 0.1666666666666667  7 1.5 0.1666666666666667  7.5 1.5 0.1666666666666667  8 1.5 0.1666666666666667  8.5 1.5 0.1666666666666667  9 1.5 0.1666666666666667  9.5 1.5 0.1666666666666667  10 1.5 0.1666666666666667  0 2 0.1666666666666667  0.5 2 0.1666666666666667  1 2 0.1666666666666667  1.5 2 0.1666666666666667  2 2 0.1666666666666667  2.5 2 0.1666666666666667  3 2 0.1666666666666667  3.5 2 0.1666666666666667  4 2 0.1666666666666667  4.5 2 0.1666666666666667  5 2 0.1666666666666667  5.5 2 0.1666666666666667  6 2 0.1666666666666667  6.5 2 0.1666666666666667  7 2 0.1666666666666667  7.5 2 0.1666666666666667  8 2 0.1666666666666667  8.5 2 0.1666666666666667  9 2 0.1666666666666667  9.5 2 0.1666666666666667  10 2 0.1666666666666667  0 2.5 0.1666666666666667  0.5 2.5 0.1666666666666667  1 2.5 0.1666666666666667  1.5 2.5 0.1666666666666667  2 2.5 0.1666666666666667  2.5 2.5 0.1666666666666667  3 2.5 0.1666666666666667  3.5 2.5 0.1666666666666667  4 2.5 0.1666666666666667  4.5 2.5 0.1666666666666667  5 2.5 0.1666666666666667  5.5 2.5 0.1666666666666667  6 2.5 0.1666666666666667  6.5 2.5 0.1666666666666667  7 2.5 0.1666666666666667  7.5 2.5 0.1666666666666667  8 2.5 0.1666666666666667  8.5 2.5 0.1666666666666667  9 2.5 0.1666666666666667  9.5 2.5 0.1666666666666667  10 2.5 0.1666666666666667  0 3 0.1666666666666667  0.5 3 0.1666666666666667  1 3 0.1666666666666667  1.5 3 0.1666666666666667  2 3 0.1666666666666667  2.5 3 0.1666666666666667  3 3 0.1666666666666667  3.5 3 0.1666666666666667  4 3 0.1666666666666667  4.5 3 0.1666666666666667  5 3 0.1666666666666667  5.5 3 0.1666666666666667  6 3 0.1666666666666667  6.5 3 0.1666666666666667  7 3 0.1666666666666667  7.5 3 0.1666666666666667  8 3 0.1666666666666667  8.5 3 0.1666666666666667  9 3 0.1666666666666667  9.5 3 0.1666666666666667  10 3 0.1666666666666667  0 0 0.3333333333333333  0.5 0 0.3333333333333333  1 0 0.3333333333333333  1.5 0 0.3333333333333333  2 0 0.3333333333333333  2.5 0 0.3333333333333333  3 0 0.3333333333333333  3.5 0 0.3333333333333333  4 0 0.3333333333333333  4.5 0 0.3333333333333333  5 0 0.3333333333333333  5.5 0 0.3333333333333333  6 0 0.3333333333333333  6.5 0 0.3333333333333333  7 0 0.3333333333333333  7.5 0 0.3333333333333333  8 0 0.3333333333333333  8.5 0 0.3333333333333333  9 0 0.3333333333333333  9.5 0 0.3333333333333333  10 0 0.3333333333333333  0 0.5 0.3333333333333333  0.5 0.5 0.3333333333333333  1 0.5 0.3333333333333333  1.5 0.5 0.3333333333333333  2 0.5 0.3333333333333333  2.5 0.5 0.3333333333333333  3 0.5 0.3333333333333333  3.5 0.5 0.3333333333333333  4 0.5 0.3333333333333333  4.5 0.5 0.3333333333333333  5 0.5 0.3333333333333333  5.5 0.5 0.3333333333333333  6 0.5 0.3333333333333333  6.5 0.5 0.3333333333333333  7 0.5 0.3333333333333333  7.5 0.5 0.3333333333333333  8 0.5 0.3333333333333333  8.5 0.5 0.3333333333333333  9 0.5 0.3333333333333333  9.5 0.5 0.3333333333333333  10 0.5 0.3333333333333333  0 1 0.3333333333333333  0.5 1 0.3333333333333333  1 1 0.3333333333333333  1.5 1 0.3333333333333333  2 1 0.3333333333333333  2.5 1 0.3333333333333333  3 1 0.3333333333333333  3.5 1 0.3333333333333333  4 1 0.3333333333333333  4.5 1 0.3333333333333333  5 1 0.3333333333333333  5.5 1 0.3333333333333333  6 1 0.3333333333333333  6.5 1 0.3333333333333333  7 1 0.3333333333333333  7.5 1 0.3333333333333333  8 1 0.3333333333333333  8.5 1 0.3333333333333333  9 1 0.3333333333333333  9.5 1 0.3333333333333333  10 1 0.3333333333333333  0 1.5 0.3333333333333333  0.5 1.5 0.3333333333333333  1 1.5 0.3333333333333333  1.5 1.5 0.3333333333333333  2 1.5 0.3333333333333333  2.5 1.5 0.3333333333333333  3 1.5 0.3333333333333333  3.5 1.5 0.3333333333333333  4 1.5 0.3333333333333333  4.5 1.5 0.3333333333333333  5 1.5 0.3333333333333333  5.5 1.5 0.3333333333333333  6 1.5 0.3333333333333333  6.5 1.5 0.3333333333333333  7 1.5 0.3333333333333333  7.5 1.5 0.3333333333333333  8 1.5 0.3333333333333333  8.5 1.5 0.3333333333333333  9 1.5 0.3333333333333333  9.5 1.5 0.3333333333333333  10 1.5 0.3333333333333333  0 2 0.3333333333333333  0.5 2 0.3333333333333333  1 2 0.3333333333333333  1.5 2 0.3333333333333333  2 2 0.3333333333333333  2.5 2 0.3333333333333333  3 2 0.3333333333333333  3.5 2 0.3333333333333333  4 2 0.3333333333333333  4.5 2 0.3333333333333333  5 2 0.3333333333333333  5.5 2 0.3333333333333333  6 2 0.3333333333333333  6.5 2 0.3333333333333333  7 2 0.3333333333333333  7.5 2 0.3333333333333333  8 2 0.3333333333333333  8.5 2 0.3333333333333333  9 2 0.3333333333333333  9.5 2 0.3333333333333333  10 2 0.3333333333333333  0 2.5 0.3333333333333333  0.5 2.5 0.3333333333333333  1 2.5 0.3333333333333333  1.5 2.5 0.3333333333333333  2 2.5 0.3333333333333333  2.5 2.5 0.3333333333333333  3 2.5 0.3333333333333333  3.5 2.5 0.3333333333333333  4 2.5 0.3333333333333333  4.5 2.5 0.3333333333333333  5 2.5 0.3333333333333333  5.5 2.5 0.3333333333333333  6 2.5 0.3333333333333333  6.5 2.5 0.3333333333333333  7 2.5 0.3333333333333333  7.5 2.5 0.3333333333333333  8 2.5 0.3333333333333333  8.5 2.5 0.3333333333333333  9 2.5 0.3333333333333333  9.5 2.5 0.3333333333333333  10 2.5 0.3333333333333333  0 3 0.3333333333333333  0.5 3 0.3333333333333333  1 3 0.3333333333333333  1.5 3 0.3333333333333333  2 3 0.3333333333333333  2.5 3 0.3333333333333333  3 3 0.3333333333333333  3.5 3 0.3333333333333333  4 3 0.3333333333333333  4.5 3 0.3333333333333333  5 3 0.3333333333333333  5.5 3 0.3333333333333333  6 3 0.3333333333333333  6.5 3 0.3333333333333333  7 3 0.3333333333333333  7.5 3 0.3333333333333333  8 3 0.3333333333333333  8.5 3 0.3333333333333333  9 3 0.3333333333333333  9.5 3 0.3333333333333333  10 3 0.3333333333333333  0 0 0.5  0.5 0 0.5  1 0 0.5  1.5 0 0.5  2 0 0.5  2.5 0 0.5  3 0 0.5  3.5 0 0.5  4 0 0.5  4.5 0 0.5  5 0 0.5  5.5 0 0.5  6 0 0.5  6.5 0 0.5  7 0 0.5  7.5 0 0.5  8 0 0.5  8.5 0 0.5  9 0 0.5  9.5 0 0.5  10 0 0.5  0 0.5 0.5  0.5 0.5 0.5  1 0.5 0.5  1.5 0.5 0.5  2 0.5 0.5  2.5 0.5 0.5  3 0.5 0.5  3.5 0.5 0.5  4 0.5 0.5  4.5 0.5 0.5  5 0.5 0.5  5.5 0.5 0.5  6 0.5 0.5  6.5 0.5 0.5  7 0.5 0.5  7.5 0.5 0.5  8 0.5 0.5  8.5 0.5 0.5  9 0.5 0.5  9.5 0.5 0.5  10 0.5 0.5  0 1 0.5  0.5 1 0.5  1 1 0.5  1.5 1 0.5  2 1 0.5  2.5 1 0.5  3 1 0.5  3.5 1 0.5  4 1 0.5  4.5 1 0.5  5 1 0.5  5.5 1 0.5  6 1 0.5  6.5 1 0.5  7 1 0.5  7.5 1 0.5  8 1 0.5  8.5 1 0.5  9 1 0.5  9.5 1 0.5  10 1 0.5  0 1.5 0.5  0.5 1.5 0.5  1 1.5 0.5  1.5 1.5 0.5  2 1.5 0.5  2.5 1.5 0.5  3 1.5 0.5  3.5 1.5 0.5  4 1.5 0.5  4.5 1.5 0.5  5 1.5 0.5  5.5 1.5 0.5  6 1.5 0.5  6.5 1.5 0.5  7 1.5 0.5  7.5 1.5 0.5  8 1.5 0.5  8.
[...]
<PointData  Vectors="f_7-0"> 
<DataArray  type="Float64"  Name="f_7-0"  NumberOfComponents="3" format="ascii">0.0000000000000000e+00 0.0000000000000000e+00 0.0000000000000000e+00  6.8182187704317609e-01 5.2590725461508725e-01 9.4693672317020486e-02  1.6756243640217561e+00 5.7328398676685555e-01 9.5840964131688272e-02  2.6865554616090268e+00 5.7551509656067812e-01 9.6431306323324389e-02  3.7026738899209208e+00 5.7542122997499034e-01 9.6540186156095456e-02  4.7208409412162311e+00 5.7532857726421416e-01 9.6577084196835958e-02  5.7394153402863468e+00 5.7528895415728520e-01 9.6585541398213057e-02  6.7580512224983051e+00 5.7527110482865096e-01 9.6586516337046749e-02  7.7766869407241845e+00 5.7526234603587911e-01 9.6586401099910013e-02  8.7953129209712309e+00 5.7525787955977425e-01 9.6586118687913836e-02  9.8139306197219280e+00 5.7525554209084351e-01 9.6585885438092017e-02  1.0832542996780740e+01 5.7525429529484740e-01 9.6585737329224167e-02  1.1851152265470404e+01 5.7525362371303712e-01 9.6585650973702489e-02  1.2869759783518065e+01 5.7525326042016744e-01 9.6585602066864201e-02  1.3888366332337052e+01 5.7525306345000005e-01 9.6585574840290053e-02  1.4906972349475465e+01 5.7525295657008824e-01 9.6585559851386296e-02  1.5925578076579031e+01 5.7525289865374740e-01 9.6585551661333438e-02  1.6944183646415674e+01 5.7525286748094973e-01 9.6585547231252511e-02  1.7962789132182898e+01 5.7525285110761548e-01 9.6585544896927805e-02  1.8981394575057955e+01 5.7525284327895121e-01 9.6585543780803779e-02  2.0000000000000007e+01 5.7525284097008711e-01 9.6585543433975407e-02  0.0000000000000000e+00 0.0000000000000000e+00 0.0000000000000000e+00  6.6552033827583579e-01 3.4273867103296646e-01 9.7811976488332078e-02  1.6683116240137139e+00 3.8269467414802150e-01 9.6709577495096066e-02  2.6847277773528719e+00 3.8405936682063313e-01 9.6860248868793283e-02  3.7022352042897095e+00 3.8379912588858961e-01 9.6881140981916219e-02  4.7207575812732268e+00 3.8367497253900174e-01 9.6884378560271572e-02  5.7394062250549718e+00 3.8362863642778577e-01 9.6886634441527633e-02  6.7580554680135032e+00 3.8361073207968160e-01 9.6886531694538980e-02  7.7766920162784237e+00 3.8360303672195600e-01 9.6885988844603296e-02  8.7953164670696644e+00 3.8359940917196694e-01 9.6885607226686946e-02  9.8139327575731983e+00 3.8359759631076057e-01 9.6885379606203706e-02  1.0832544216963047e+01 3.8359665532117393e-01 9.6885247727660634e-02  1.1851152945403065e+01 3.8359615597110530e-01 9.6885173310221132e-02  1.2869760157849282e+01 3.8359588791535559e-01 9.6885132140141814e-02  1.3888366537101685e+01 3.8359574315512346e-01 9.6885109553962401e-02  1.4906972461021423e+01 3.8359566476907631e-01 9.6885097212534313e-02  1.5925578137019178e+01 3.8359562233919287e-01 9.6885090498285240e-02  1.6944183678709592e+01 3.8359559951411509e-01 9.6885086877149848e-02  1.7962789148636709e+01 3.8359558752964024e-01 9.6885084972941932e-02  1.8981394581957222e+01 3.8359558179652514e-01 9.6885084068527694e-02  2.0000000000000007e+01 3.8359558011475026e-01 9.6885083804093539e-02  0.0000000000000000e+00 0.0000000000000000e+00 0.0000000000000000e+00  6.5391717223665213e-01 1.6912643302745956e-01 1.0037843307359913e-01  1.6569347190899486e+00 1.9162181720788790e-01 9.7549421810200182e-02  2.6815241114669455e+00 1.9234271741877929e-01 9.7314362827051554e-02  3.7014465252058790e+00 1.9209711028940948e-01 9.7218300862988105e-02  4.7206071428994791e+00 1.9199919814967301e-01 9.7195456964928373e-02  5.7393962286961822e+00 1.9196323321234074e-01 9.7188843969956140e-02  6.7580699239244391e+00 1.9194958834333239e-01 9.7186347840054116e-02  7.7767057781513671e+00 1.9194381083207521e-01 9.7185388605666376e-02  8.7953255598767761e+00 1.9194112141883596e-01 9.7184990751480779e-02  9.8139381362603224e+00 1.9193979027452429e-01 9.7184810247097062e-02  1.0832547263740087e+01 1.9193910271078593e-01 9.7184720932228380e-02  1.1851154636778176e+01 1.9193873887056409e-01 9.7184674988310876e-02  1.2869761087176943e+01 1.9193854383252398e-01 9.7184650912442980e-02  1.3888367044960480e+01 1.9193843857652065e-01 9.7184638090652822e-02  1.4906972737547520e+01 1.9193838160164825e-01 9.7184631200529031e-02  1.5925578286817494e+01 1.9193835076659937e-01 9.7184627489683748e-02  1.6944183758742010e+01 1.9193833417985584e-01 9.7184625501244584e-02  1.7962789189418995e+01 1.9193832547091272e-01 9.7184624460976685e-02  1.8981394599054010e+01 1.9193832130218880e-01 9.7184623977894860e-02  2.0000000000000007e+01 1.9193832007068945e-01 9.7184623833773937e-02  0.0000000000000000e+00 0.0000000000000000e+00 0.0000000000000000e+00  6.5041583586713114e-01 1.2127277190947124e-03 1.0118230330653558e-01  1.6518556643642794e+00 4.5906776805362050e-04 9.7996218673886706e-02  2.6803888211809577e+00 3.6800730616093813e-04 9.7660396182722820e-02  3.7012763140641312e+00 3.1840260764863065e-04 9.7527380008333192e-02  4.7206246223373984e+00 3.0604287443198854e-04 9.7496158655871745e-02  5.7394444738459311e+00 2.9494853300801827e-04 9.7487928926694140e-02  6.7581071209814922e+00 2.8859270998835864e-04 9.7485178393037983e-02  7.7767291358935475e+00 2.8518886714225299e-04 9.7484439797306505e-02  8.7953390802051530e+00 2.8330986204244137e-04 9.7484240101043271e-02  9.8139457170607987e+00 2.8228362089960168e-04 9.7484182852054915e-02  1.0832551453025145e+01 2.8172419246862211e-04 9.7484166933708108e-02  1.1851156933640082e+01 2.8141961245822008e-04 9.7484163343802541e-02  1.2869762341281817e+01 2.8125386315927379e-04 9.7484162881171330e-02  1.3888367728173812e+01 2.8116369557667608e-04 9.7484163054185918e-02  1.4906973108971103e+01 2.8111468428894501e-04 9.7484163283361569e-02  1.5925578487863898e+01 2.8108810083524009e-04 9.7484163452668332e-02  1.6944183866116006e+01 2.8107378380630974e-04 9.7484163559482015e-02  1.7962789244128359e+01 2.8106626059181105e-04 9.7484163623124107e-02  1.8981394622013564e+01 2.8106265287855439e-04 9.7484163668906526e-02  2.0000000000000007e+01 2.8106158170556787e-04 9.7484163678346530e-02  0.0000000000000000e+00 0.0000000000000000e+00 0.0000000000000000e+00  6.5565969678233305e-01 -1.6643522880579523e-01 1.0063048684583686e-01  1.6568661059328431e+00 -1.9075693180668821e-01 9.8143921576815132e-02  2.6825819878273567e+00 -1.9161104026725048e-01 9.7842653531409418e-02  3.7020715570681215e+00 -1.9142600989717848e-01 9.7789306952229121e-02  4.7209174010345416e+00 -1.9137665013536964e-01 9.7783743094531500e-02  5.7395724194470148e+00 -1.9136902170856929e-01 9.7783339061252375e-02  6.7581661781705993e+00 -1.9136982927566490e-01 9.7782923087931822e-02  7.7767585375228032e+00 -1.9137205760556161e-01 9.7783190080830654e-02  8.7953542816337613e+00 -1.9137376664033384e-01 9.7783404110372243e-02  9.8139537693421754e+00 -1.9137482527079966e-01 9.7783530649347153e-02  1.0832555775949986e+01 -1.9137543833835594e-01 9.7783606692150749e-02  1.1851159268308633e+01 -1.9137578226525556e-01 9.7783650429385235e-02  1.2869763606381001e+01 -1.9137597230338119e-01 9.7783674759569117e-02  1.3888368414744088e+01 -1.9137607647606075e-01 9.7783688156620946e-02  1.4906973481486128e+01 -1.9137613332537398e-01 9.7783695503402560e-02  1.5925578689299966e+01 -1.9137616422585224e-01 9.7783699510122779e-02  1.6944183973646783e+01 -1.9137618088700836e-01 9.7783701675899795e-02  1.7962789298910206e+01 -1.9137618964905209e-01 9.7783702818823995e-02  1.8981394645012358e+01 -1.9137619385443494e-01 9.7783703378334447e-02  2.0000000000000007e+01 -1.9137619510608242e-01 9.7783703538005431e-02  0.0000000000000000e+00 0.0000000000000000e+00 0.0000000000000000e+00  6.7371360346014553e-01 -3.4175857866619502e-01 9.9555246302509254e-02  1.6687711108925161e+00 -3.8165681589455680e-01 9.7717643858708403e-02  2.6865440311706106e+00 -3.8318225225013525e-01 9.7879804088352382e-02  3.7033455882900848e+00 -3.8306755445075286e-01 9.8051164802969104e-02  4.7213186177377224e+00 -3.8303028366147279e-01 9.8069055826235915e-02  5.7397163550966015e+00 -3.8302099857734284e-01 9.8076998001220494e-02  6.7582244983722246e+00 -3.8302400392176211e-01 9.8080571604946445e-02  7.7767844069259002e+00 -3.8302759916699425e-01 9.8081980868013466e-02  8.7953667049225892e+00 -3.8303005510392035e-01 9.8082609171254789e-02  9.8139600880177813e+00 -3.8303154892330904e-01 9.8082911456944519e-02  1.0832559090186422e+01 -3.8303240316046777e-01 9.8083068056949343e-02  1.1851161036035659e+01 -3.8303287999975855e-01 9.8083150176831099e-02  1.2869764558227802e+01 -3.8303314275135203e-01 9.8083193786252909e-02  1.3888368929629983e+01 -3.8303328658337321e-01 9.8083217252679586e-02  1.4906973760378026e+01 -3.8303336503084934e-01 9.8083229934253738e-02  1.5925578839981069e+01 -3.8303340765714533e-01 9.8083236786362826e-02  1.6944184054051767e+01 -3.8303343063650125e-01 9.8083240468957680e-02  1.7962789339868408e+01 -3.8303344272018169e-01 9.8083242402588713e-02  1.8981394662212619e+01 -3.8303344852118437e-01 9.8083243338912621e-02  2.0000000000000007e+01 -3.8303345024428509e-01 9.8083243613172194e-02  0.0000000000000000e+00 0.0000000000000000e+00 0.0000000000000000e+00  7.0207627105453041e-01 -5.2437189972229292e-01 9.2629914782198453e-02  1.6755812313994094e+00 -5.7134422626849268e-01 9.6469283509215770e-02  2.6888027250130579e+00 -5.7453298058076718e-01 9.8337878169397583e-02  3.7040384563188784e+00 -5.7464740063897191e-01 9.8343972735759247e-02  4.7214943425585201e+00 -5.7464721640482963e-01 9.8349217745138065e-02  5.7397812223545230e+00 -5.7466416185344094e-01 9.8374557807841059e-02  6.7582509150167516e+00 -5.7467548257589418e-01 9.8379258506005346e-02  7.7767953862956469e+00 -5.7468196162330121e-01 9.8381106646898614e-02  8.7953718850794758e+00 -5.7468586580044001e-01 9.8381973412622906e-02  9.8139626906434412e+00 -5.7468805211238339e-01 9.8382373077208624e-02  1.0832560443504240e+01 -5.7468925899627432e-01 9.8382571217969311e-02  1.1851161754542957e+01 -5.7468992150210074e-01 9.8382671592662854e-02  1.2869764944161183e+01 -5.7469028343524242e-01 9.8382724448898271e-02  1.3888369138156714e+01 -5.7469048074678786e-01 9.8382752662181189e-02  1.4906973873258268e+01 -5.7469058812020701e-01 9.8382767791754908e-02  1.5925578900947905e+01 -5.7469064639615386e-01 9.8382775933997746e-02  1.6944184086579732e+01 -5.7469067779402183e-01 9.8382780300728306e-02  1.7962789356437007e+01 -5.7469069429994202e-01 9.8382782590258538e-02  1.8981394669164082e+01 -5.7469070222774798e-01 9.8382783685596220e-02  2.0000000000000007e+01 -5.7469070454998317e-01 9.8382784027685063e-02  0.0000000000000000e+00 0.0000000000000000e+00 0.0000000000000000e+00  6.8281259562027552e-01 5.2379833178732560e-01 3.2086294141141350e-02  1.6757188195180763e+00 5.7303941342438214e-01 3.2394291974979096e-02  2.6865562325506014e+00 5.7540734620329759e-01 3.2644201331069218e-02  3.7026753287730920e+00 5.7531055777512041e-01 3.2672172182632339e-02  4.7208404864919942e+00 5.7522643819576214e-01 3.2693642124593580e-02  5.7394154726081208e+00 5.7518877014914216e-01 3.2699235868428822e-02  6.7580513010925660e+00 5.7517113777905393e-01 3.2699846485806934e-02  7.7766869504525307e+00 5.7516247227770179e-01 3.2699971625200719e-02  8.7953129248440991e+00 5.7515803713272140e-01 3.2699953788913917e-02  9.8139306229177876e+00 5.7515570241596359e-01 3.2699896625763877e-02  1.0832542998487318e+01 5.7515445354811601e-01 3.2699852726161362e-02  1.1851152266355161e+01 5.7515378009177143e-01 3.2699825604318423e-02  1.2869759784009650e+01 5.7515341547621890e-01 3.2699809642822125e-02  1.3888366332610794e+01 5.7515321767203442e-01 3.2699800525165308e-02  1.4906972349625164e+01 5.7515311030426963e-01 3.2699795430658228e-02  1.5925578076659251e+01 5.7515305211236434e-01 3.2699792621615272e-02  1.6944183646456363e+01 5.7515302078718900e-01 3.2699791092929822e-02  1.7962789132198075e+01 5.7515300433334016e-01 3.2699790284573892e-02  1.8981394575055504e+01 5.7515299646460372e-01 3.2699789895787701e-02  2.0000000000000007e+01 5.7515299413182330e-01 3.2699789768254696e-02  0.0000000000000000e+00 0.0000000000000000e+00 0.0000000000000000e+00  6.6693260351584305e-01 3.4214958077971142e-01 3.3630516273823033e-02  1.6687309574670408e+00 3.8237349290749040e-01 3.2872683936158338e-02  2.6846930278267238e+00 3.8392187354670637e-01 3.2979726108548282e-02  3.7022309935823561e+00 3.8368645735279150e-01 3.3001194414209005e-02  4.7207595378781555e+00 3.8357234146978508e-01 3.2998915918835976e-02  5.7394065717146985e+00 3.8352827570093062e-01 3.2999702212323970e-02  6.7580555084815934e+00 3.8351076335332374e-01 3.2999788774814624e-02  7.7766920277960843e+00 3.8350318312257370e-01 3.2999623770178774e-02  8.7953164757235811e+00 3.8349958118887328e-01 3.2999501314306207e-02  9.8139327614718965e+00 3.8349776568867100e-01 3.2999428064152195e-02  1.0832544218598999e+01 3.8349681893435822e-01 3.2999385018473028e-02  1.1851152946241763e+01 3.8349631536690715e-01 3.2999360361940400e-02  1.2869760158306310e+01 3.8349604463437820e-01 3.2999346606362015e-02  1.3888366537347721e+01 3.8349589828865827e-01 3.2999339022052897e-02  1.4906972461153741e+01 3.8349581900168156e-01 3.2999334862384370e-02  1.5925578137089879e+01 3.8349577607069352e-01 3.2999332593362012e-02  1.6944183678745688e+01 3.8349575297166127e-01 3.2999331367486659e-02  1.7962789148651527e+01 3.8349574084193566e-01 3.2999330722350215e-02  1.8981394581957208e+01 3.8349573503839784e-01 3.2999330416226158e-02  2.0000000000000007e+01 3.8349573332993575e-01 3.2999330326196202e-02  0.0000000000000000e+00 0.0000000000000000e+00 0.0000000000000000e+00  6.5563567937800638e-01 1.6875286452457300e-01 3.4405212793754289e-02  1.6573246516546323e+00 1.9138129242138291e-01 3.3461904169978088e-02  2.6815169835371933e+00 1.9220839392609834e-01 3.3352066467984359e-02  3.7014388368295901e+00 1.9199166032806017e-01 3.3314678750573506e-02  4.7206111445301087e+00 1.9189799941736899e-01 3.3303943361262099e-02  5.7393962448571676e+00 1.9186307794749508e-01 3.3300595603918189e-02  6.7580699030949445e+00 1.9184974408593708e-01 3.3299568128906311e-02  7.7767057979712053e+00 1.9184402640298789e-01 3.3299173674592994e-02  8.7953255661318899e+00 1.9184132338918822e-01 3.3299008018491921e-02  9.8139381365520144e+00 1.9183997400797514e-01 3.3298937600733602e-02  1.0832547263467335e+01 1.9183927386302430e-01 3.3298904743285382e-02  1.1851154636621917e+01 1.9183890223035713e-01 3.3298888327677974e-02  1.2869761087065296e+01 1.9183870264756048e-01 3.3298879932937057e-02  1.3888367044887373e+01 1.9183859483248475e-01 3.3298875549843836e-02  1.4906972737505290e+01 1.9183853644004034e-01 3.3298873224036574e-02  1.5925578286793705e+01 1.9183850482730816e-01 3.3298871981543555e-02  1.6944183758728258e+01 1.9183848781901400e-01 3.3298871319398508e-02  1.7962789189410007e+01 1.9183847888782984e-01 3.3298870974749324e-02  1.8981394599046880e+01 1.9183847461259268e-01 3.3298870815207167e-02  2.0000000000000007e+01 1.9183847334993243e-01 3.3298870766750525e-02  0.0000000000000000e+00 0.0000000000000000e+00 0.0000000000000000e+00  6.5220337775362525e-01 1.1573994143436752e-03 3.4716993536175272e-02  1.6521240090392266e+00 3.1658661760354111e-04 3.3853668262531916e-02  2.6804518244951994e+00 2.7632035779969079e-04 3.3680509052109411e-02  3.7012559389173845e+00 2.2464930332774589e-04 3.3612194498730562e-02  4.7206280996757837e+00 2.0720866641068698e-04 3.3603862982296437e-02  5.7394441485348899e+00 1.9555703192225242e-04 3.3600116509776026e-02  6.7581070342624008e+00 1.8903684236786856e-04 3.3598887318991660e-02  7.7767291469139064e+00 1.8549198759278682e-04 3.3598558872831433e-02  8.7953390737408004e+00 1.8353907482035936e-04 3.3598455358588360e-02  9.8139457120273299e+00 1.8247751746316776e-04 3.3598423818009225e-02  1.0832551450682622e+01 1.8189945282418745e-04 3.3598414282901820e-02  1.1851156932398517e+01 1.8158471370578180e-04 3.3598411627440622e-02  1.2869762340575305e+01 1.8141347268018631e-04 3.3598411017826957e-02  1.3888367727784802e+01 1.8132033899607847e-04 3.3598410950462891e-02  1.4906973108760074e+01 1.8126971913735642e-04 3.3598411002345743e-02  1.5925578487749569e+01 1.8124226397040364e-04 3.3598411061437371e-02  1.6944183866054864e+01 1.8122747802646884e-04 3.3598411104183101e-02  1.7962789244097223e+01 1.8121970875358576e-04 3.3598411131583655e-02  1.8981394622000842e+01 1.8121598431037345e-04 3.3598411149302967e-02  2.0000000000000007e+01 1.8121488157960252e-04 3.3598411152496399e-02  0.0000000000000000e+00 0.0000000000000000e+00 0.0000000000000000e+00  6.5741869925377450e-01 -1.6638673352947539e-01 3.4816147513691949e-02  1.6571126134164624e+00 -1.9075360632224073e-01 3.4126283526303251e-02  2.6826573032108265e+00 -1.9165716232391847e-01 3.3919400828637078e-02  3.7020401766124915e+00 -1.9151694725668161e-01 3.3893995747019685e-02  4.7209205362129234e+00 -1.9147361851759170e-01 3.3898948327163503e-02  5.7395719862651644e+00 -1.9146749016590212e-01 3.3897997537325461e-02  6.7581659889590666e+00 -1.9146921680231854e-01 3.3897720284390802e-02  7.7767585348096668e+00 -1.9147171941524621e-01 3.3897807105253669e-02  8.7953542601079935e+00 -1.9147352916399010e-01 3.3897860508625741e-02  9.8139537605261093e+00 -1.9147463130516423e-01 3.3897897262792034e-02  1.0832555772063500e+01 -1.9147526452148736e-01 3.3897920417520475e-02  1.1851159266182540e+01 -1.9147561840984662e-01 3.3897934217157998e-02  1.2869763605229176e+01 -1.9147581349561019e-01 3.3897942068182065e-02  1.3888368414128701e+01 -1.9147592030944957e-01 3.3897946448764246e-02  1.4906973481155237e+01 -1.9147597856467710e-01 3.3897948874927940e-02  1.5925578689121837e+01 -1.9147601021718599e-01 3.3897950206932870e-02  1.6944183973552768e+01 -1.9147602727970378e-01 3.3897950929949766e-02  1.7962789298864301e+01 -1.9147603625117562e-01 3.3897951312818406e-02  1.8981394644996627e+01 -1.9147604055591824e-01 3.3897951499290105e-02  2.0000000000000007e+01 -1.9147604183343928e-01 3.3897951551873688e-02  0.0000000000000000e+00 0.0000000000000000e+00 0.0000000000000000e+00  6.7578862343109714e-01 -3.4103781379014436e-01 3.5010032781555872e-02  1.6688989940131780e+00 -3.8148717823061296e-01 3.4065615646583607e-02  2.6866296479779739e+00 -3.8326504601495293e-01 3.4103683039341567e-02  3.7033176519428417e+00 -3.8316115707713977e-01 3.4185915442406574e-02  4.7213179506489888e+00 -3.8312563114557829e-01 3.4192032528607003e-02  5.7397164271369947e+00 -3.8311998580040846e-01 3.4195184775688899e-02  6.7582243345016462e+00 -3.8312351492604357e-01 3.4196545960516717e-02  7.7767843707237203e+00 -3.8312730199255440e-01 3.4197048480192851e-02  8.7953666802051149e+00 -3.8312984360857089e-01 3.4197274920940823e-02  9.8139600789706716e+00 -3.8313136859218705e-01 3.4197379928446826e-02  1.0832559085822606e+01 -3.8313223699976406e-01 3.4197433459134098e-02  1.1851161033623507e+01 -3.8313272030471190e-01 3.4197461111412246e-02  1.2869764556960787e+01 -3.8313298621231112e-01 3.4197475619031588e-02  1.3888368928963500e+01 -3.8313313166293445e-01 3.4197483379337423e-02  1.4906973760020021e+01 -3.8313321095251068e-01 3.4197487553755172e-02  1.5925578839789132e+01 -3.8313325402295600e-01 3.4197489801557228e-02  1.6944184053951616e+01 -3.8313327723759444e-01 3.4197491007015454e-02  1.7962789339821438e+01 -3.8313328944353447e-01 3.4197491638917027e-02  1.8981394662198706e+01 -3.8313329530147278e-01 3.4197491944211678e-02  2.0000000000000007e+01 -3.8313329703919280e-01 3.4197492035870754e-02  0.0000000000000000e+00 0.0000000000000000e+00 0.0000000000000000e+00  7.0037442833460262e-01 -5.2318957282374434e-01 3.2127974999458096e-02  1.6761514437518652e+00 -5.7098686870400861e-01 3.3712050157300812e-02  2.6888955862369719e+00 -5.7475443404439386e-01 3.4554315503385585e-02  3.7039758799266926e+00 -5.7473167652485357e-01 3.4471045705039921e-02  4.7214946330292289e+00 -5.7474117757724574e-01 3.4483333798098550e-02  5.7397828521746854e+00 -5.7476437358516574e-01 3.4494695894258270e-02  6.7582504552463041e+00 -5.7477500349898869e-01 3.4495548081335099e-02  7.7767953269466528e+00 -5.7478171877205131e-01 3.4496417795877102e-02  8.7953718671459669e+00 -5.7478567250757717