<?xml version="1.0"?>
<VTKFile type="UnstructuredGrid"  version="0.1"  >
<UnstructuredGrid>
<Piece  NumberOfPoints="882" NumberOfCells="3600">
<Points>
<DataArray  type="Float64"  NumberOfComponents="3"  format="ascii">0 0 0  0.5 0 0  1 0 0  1.5 0 0  2 0 0  2.5 0 0  3 0 0  3.5 0 0  4 0 0  4.5 0 0  5 0 0  5.5 0 0  6 0 0  6.5 0 0  7 0 0  7.5 0 0  8 0 0  8.5 0 0  9 0 0  9.5 0 0  10 0 0  0 0.5 0  0.5 0.5 0  1 0.5 0  1.5 0.5 0  2 0.5 0  2.5 0.5 0  3 0.5 0  3.5 0.5 0  4 0.5 0  4.5 0.5 0  5 0.5 0  5.5 0.5 0  6 0.5 0  6.5 0.5 0  7 0.5 0  7.5 0.5 0  8 0.5 0  8.5 0.5 0  9 0.5 0  9.5 0.5 0  10 0.5 0  0 1 0  0.5 1 0  1 1 0  1.5 1 0  2 1 0  2.5 1 0  3 1 0  3.5 1 0  4 1 0  4.5 1 0  5 1 0  5.5 1 0  6 1 0  6.5 1 0  7 1 0  7.5 1 0  8 1 0  8.5 1 0  9 1 0  9.5 1 0  10 1 0  0 1.5 0  0.5 1.5 0  1 1.5 0  1.5 1.5 0  2 1.5 0  2.5 1.5 0  3 1.5 0  3.5 1.5 0  4 1.5 0  4.5 1.5 0  5 1.5 0  5.5 1.5 0  6 1.5 0  6.5 1.5 0  7 1.5 0  7.5 1.5 0  8 1.5 0  8.5 1.5 0  9 1.5 0  9.5 1.5 0  10 1.5 0  0 2 0  0.5 2 0  1 2 0  1.5 2 0  2 2 0  2.5 2 0  3 2 0  3.5 2 0  4 2 0  4.5 2 0  5 2 0  5.5 2 0  6 2 0  6.5 2 0  7 2 0  7.5 2 0  8 2 0  8.5 2 0  9 2 0  9.5 2 0  10 2 0  0 2.5 0  0.5 2.5 0  1 2.5 0  1.5 2.5 0  2 2.5 0  2.5 2.5 0  3 2.5 0  3.5 2.5 0  4 2.5 0  4.5 2.5 0  5 2.5 0  5.5 2.5 0  6 2.5 0  6.5 2.5 0  7 2.5 0  7.5 2.5 0  8 2.5 0  8.5 2.5 0  9 2.5 0  9.5 2.5 0  10 2.5 0  0 3 0  0.5 3 0  1 3 0  1.5 3 0  2 3 0  2.5 3 0  3 3 0  3.5 3 0  4 3 0  4.5 3 0  5 3 0  5.5 3 0  6 3 0  6.5 3 0  7 3 0  7.5 3 0  8 3 0  8.5 3 0  9 3 0  9.5 3 0  10 3 0  0 0 0.1  0.5 0 0.1  1 0 0.1  1.5 0 0.1  2 0 0.1  2.5 0 0.1  3 0 0.1  3.5 0 0.1  4 0 0.1  4.5 0 0.1  5 0 0.1  5.5 0 0.1  6 0 0.1  6.5 0 0.1  7 0 0.1  7.5 0 0.1  8 0 0.1  8.5 0 0.1  9 0 0.1  9.5 0 0.1  10 0 0.1  0 0.5 0.1  0.5 0.5 0.1  1 0.5 0.1  1.5 0.5 0.1  2 0.5 0.1  2.5 0.5 0.1  3 0.5 0.1  3.5 0.5 0.1  4 0.5 0.1  4.5 0.5 0.1  5 0.5 0.1  5.5 0.5 0.1  6 0.5 0.1  6.5 0.5 0.1  7 0.5 0.1  7.5 0.5 0.1  8 0.5 0.1  8.5 0.5 0.1  9 0.5 0.1  9.5 0.5 0.1  10 0.5 0.1  0 1 0.1  0.5 1 0.1  1 1 0.1  1.5 1 0.1  2 1 0.1  2.5 1 0.1  3 1 0.1  3.5 1 0.1  4 1 0.1  4.5 1 0.1  5 1 0.1  5.5 1 0.1  6 1 0.1  6.5 1 0.1  7 1 0.1  7.5 1 0.1  8 1 0.1  8.5 1 0.1  9 1 0.1  9.5 1 0.1  10 1 0.1  0 1.5 0.1  0.5 1.5 0.1  1 1.5 0.1  1.5 1.5 0.1  2 1.5 0.1  2.5 1.5 0.1  3 1.5 0.1  3.5 1.5 0.1  4 1.5 0.1  4.5 1.5 0.1  5 1.5 0.1  5.5 1.5 0.1  6 1.5 0.1  6.5 1.5 0.1  7 1.5 0.1  7.5 1.5 0.1  8 1.5 0.1  8.5 1.5 0.1  9 1.5 0.1  9.5 1.5 0.1  10 1.5 0.1  0 2 0.1  0.5 2 0.1  1 2 0.1  1.5 2 0.1  2 2 0.1  2.5 2 0.1  3 2 0.1  3.5 2 0.1  4 2 0.1  4.5 2 0.1  5 2 0.1  5.5 2 0.1  6 2 0.1  6.5 2 0.1  7 2 0.1  7.5 2 0.1  8 2 0.1  8.5 2 0.1  9 2 0.1  9.5 2 0.1  10 2 0.1  0 2.5 0.1  0.5 2.5 0.1  1 2.5 0.1  1.5 2.5 0.1  2 2.5 0.1  2.5 2.5 0.1  3 2.5 0.1  3.5 2.5 0.1  4 2.5 0.1  4.5 2.5 0.1  5 2.5 0.1  5.5 2.5 0.1  6 2.5 0.1  6.5 2.5 0.1  7 2.5 0.1  7.5 2.5 0.1  8 2.5 0.1  8.5 2.5 0.1  9 2.5 0.1  9.5 2.5 0.1  10 2.5 0.1  0 3 0.1  0.5 3 0.1  1 3 0.1  1.5 3 0.1  2 3 0.1  2.5 3 0.1  3 3 0.1  3.5 3 0.1  4 3 0.1  4.5 3 0.1  5 3 0.1  5.5 3 0.1  6 3 0.1  6.5 3 0.1  7 3 0.1  7.5 3 0.1  8 3 0.1  8.5 3 0.1  9 3 0.1  9.5 3 0.1  10 3 0.1  0 0 0.2  0.5 0 0.2  1 0 0.2  1.5 0 0.2  2 0 0.2  2.5 0 0.2  3 0 0.2  3.5 0 0.2  4 0 0.2  4.5 0 0.2  5 0 0.2  5.5 0 0.2  6 0 0.2  6.5 0 0.2  7 0 0.2  7.5 0 0.2  8 0 0.2  8.5 0 0.2  9 0 0.2  9.5 0 0.2  10 0 0.2  0 0.5 0.2  0.5 0.5 0.2  1 0.5 0.2  1.5 0.5 0.2  2 0.5 0.2  2.5 0.5 0.2  3 0.5 0.2  3.5 0.5 0.2  4 0.5 0.2  4.5 0.5 0.2  5 0.5 0.2  5.5 0.5 0.2  6 0.5 0.2  6.5 0.5 0.2  7 0.5 0.2  7.5 0.5 0.2  8 0.5 0.2  8.5 0.5 0.2  9 0.5 0.2  9.5 0.5 0.2  10 0.5 0.2  0 1 0.2  0.5 1 0.2  1 1 0.2  1.5 1 0.2  2 1 0.2  2.5 1 0.2  3 1 0.2  3.5 1 0.2  4 1 0.2  4.5 1 0.2  5 1 0.2  5.5 1 0.2  6 1 0.2  6.5 1 0.2  7 1 0.2  7.5 1 0.2  8 1 0.2  8.5 1 0.2  9 1 0.2  9.5 1 0.2  10 1 0.2  0 1.5 0.2  0.5 1.5 0.2  1 1.5 0.2  1.5 1.5 0.2  2 1.5 0.2  2.5 1.5 0.2  3 1.5 0.2  3.5 1.5 0.2  4 1.5 0.2  4.5 1.5 0.2  5 1.5 0.2  5.5 1.5 0.2  6 1.5 0.2  6.5 1.5 0.2  7 1.5 0.2  7.5 1.5 0.2  8 1.5 0.2  8.5 1.5 0.2  9 1.5 0.2  9.5 1.5 0.2  10 1.5 0.2  0 2 0.2  0.5 2 0.2  1 2 0.2  1.5 2 0.2  2 2 0.2  2.5 2 0.2  3 2 0.2  3.5 2 0.2  4 2 0.2  4.5 2 0.2  5 2 0.2  5.5 2 0.2  6 2 0.2  6.5 2 0.2  7 2 0.2  7.5 2 0.2  8 2 0.2  8.5 2 0.2  9 2 0.2  9.5 2 0.2  10 2 0.2  0 2.5 0.2  0.5 2.5 0.2  1 2.5 0.2  1.5 2.5 0.2  2 2.5 0.2  2.5 2.5 0.2  3 2.5 0.2  3.5 2.5 0.2  4 2.5 0.2  4.5 2.5 0.2  5 2.5 0.2  5.5 2.5 0.2  6 2.5 0.2  6.5 2.5 0.2  7 2.5 0.2  7.5 2.5 0.2  8 2.5 0.2  8.5 2.5 0.2  9 2.5 0.2  9.5 2.5 0.2  10 2.5 0.2  0 3 0.2  0.5 3 0.2  1 3 0.2  1.5 3 0.2  2 3 0.2  2.5 3 0.2  3 3 0.2  3.5 3 0.2  4 3 0.2  4.5 3 0.2  5 3 0.2  5.5 3 0.2  6 3 0.2  6.5 3 0.2  7 3 0.2  7.5 3 0.2  8 3 0.2  8.5 3 0.2  9 3 0.2  9.5 3 0.2  10 3 0.2  0 0 0.3  0.5 0 0.3  1 0 0.3  1.5 0 0.3  2 0 0.3  2.5 0 0.3  3 0 0.3  3.5 0 0.3  4 0 0.3  4.5 0 0.3  5 0 0.3  5.5 0 0.3  6 0 0.3  6.5 0 0.3  7 0 0.3  7.5 0 0.3  8 0 0.3  8.5 0 0.3  9 0 0.3  9.5 0 0.3  10 0 0.3  0 0.5 0.3  0.5 0.5 0.3  1 0.5 0.3  1.5 0.5 0.3  2 0.5 0.3  2.5 0.5 0.3  3 0.5 0.3  3.5 0.5 0.3  4 0.5 0.3  4.5 0.5 0.3  5 0.5 0.3  5.5 0.5 0.3  6 0.5 0.3  6.5 0.5 0.3  7 0.5 0.3  7.5 0.5 0.3  8 0.5 0.3  8.5 0.5 0.3  9 0.5 0.3  9.5 0.5 0.3  10 0.5 0.3  0 1 0.3  0.5 1 0.3  1 1 0.3  1.5 1 0.3  2 1 0.3  2.5 1 0.3  3 1 0.3  3.5 1 0.3  4 1 0.3  4.5 1 0.3  5 1 0.3  5.5 1 0.3  6 1 0.3  6.5 1 0.3  7 1 0.3  7.5 1 0.3  8 1 0.3  8.5 1 0.3  9 1 0.3  9.5 1 0.3  10 1 0.3  0 1.5 0.3  0.5 1.5 0.3  1 1.5 0.3  1.5 1.5 0.3  2 1.5 0.3  2.5 1.5 0.3  3 1.5 0.3  3.5 1.5 0.3  4 1.5 0.3  4.5 1.5 0.3  5 1.5 0.3  5.5 1.5 0.3  6 1.5 0.3  6.5 1.5 0.3  7 1.5 0.3  7.5 1.5 0.3  8 1.5 0.3  8.5 1.5 0.3  9 1.5 0.3  9.5 1.5 0.3  10 1.5 0.3  0 2 0.3  0.5 2 0.3  1 2 0.3  1.5 2 0.3  2 2 0.3  2.5 2 0.3  3 2 0.3  3.5 2 0.3  4 2 0.3  4.5 2 0.3  5 2 0.3  5.5 2 0.3  6 2 0.3  6.5 2 0.3  7 2 0.3  7.5 2 0.3  8 2 0.3  8.5 2 0.3  9 2 0.3  9.5 2 0.3  10 2 0.3  0 2.5 0.3  0.5 2.5 0.3  1 2.5 0.3  1.5 2.5 0.3  2 2.5 0.3  2.5 2.5 0.3  3 2.5 0.3  3.5 2.5 0.3  4 2.5 0.3  4.5 2.5 0.3  5 2.5 0.3  5.5 2.5 0.3  6 2.5 0.3  6.5 2.5 0.3  7 2.5 0.3  7.5 2.5 0.3  8 2.5 0.3  8.5 2.5 0.3  9 2.5 0.3  9.5 2.5 0.3  10 2.5 0.3  0 3 0.3  0.5 3 0.3  1 3 0.3  1.5 3 0.3  2 3 0.3  2.5 3 0.3  3 3 0.3  3.5 3 0.3  4 3 0.3  4.5 3 0.3  5 3 0.3  5.5 3 0.3  6 3 0.3  6.5 3 0.3  7 3 0.3  7.5 3 0.3  8 3 0.3  8.5 3 0.3  9 3 0.3  9.5 3 0.3  10 3 0.3  0 0 0.4  0.5 0 0.4  1 0 0.4  1.5 0 0.4  2 0 0.4  2.5 0 0.4  3 0 0.4  3.5 0 0.4  4 0 0.4  4.5 0 0.4  5 0 0.4  5.5 0 0.4  6 0 0.4  6.5 0 0.4  7 0 0.4  7.5 0 0.4  8 0 0.4  8.5 0 0.4  9 0 0.4  9.5 0 0.4  10 0 0.4  0 0.5 0.4  0.5 0.5 0.4  1 0.5 0.4  1.5 0.5 0.4  2 0.5 0.4  2.5 0.5 0.4  3 0.5 0.4  3.5 0.5 0.4  4 0.5 0.4  4.5 0.5 0.4  5 0.5 0.4  5.5 0.5 0.4  6 0.5 0.4  6.5 0.5 0.4  7 0.5 0.4  7.5 0.5 0.4  8 0.5 0.4  8.5 0.5 0.4  9 0.5 0.4  9.5 0.5 0.4  10 0.5 0.4  0 1 0.4  0.5 1 0.4  1 1 0.4  1.5 1 0.4  2 1 0.4  2.5 1 0.4  3 1 0.4  3.5 1 0.4  4 1 0.4  4.5 1 0.4  5 1 0.4  5.5 1 0.4  6 1 0.4  6.5 1 0.4  7 1 0.4  7.5 1 0.4  8 1 0.4  8.5 1 0.4  9 1 0.4  9.5 1 0.4  10 1 0.4  0 1.5 0.4  0.5 1.5 0.4  1 1.5 0.4  1.5 1.5 0.4  2 1.5 0.4  2.5 1.5 0.4  3 1.5 0.4  3.5 1.5 0.4  4 1.5 0.4  4.5 1.5 0.4  5 1.5 0.4  5.5 1.5 0.4  6 1.5 0.4  6.5 1.5 0.4  7 1.5 0.4  7.5 1.5 0.4  8 1.5 0.4  8.5 1.5 0.4  9 1.5 0.4  9.5 1.5 0.4  10 1.5 0.4  0 2 0.4  0.5 2 0.4  1 2 0.4  1.5 2 0.4  2 2 0.4  2.5 2 0.4  3 2 0.4  3.5 2 0.4  4 2 0.4  4.5 2 0.4  5 2 0.4  5.5 2 0.4  6 2 0.4  6.5 2 0.4  7 2 0.4  7.5 2 0.4  8 2 0.4  8.5 2 0.4  9 2 0.4  9.5 2 0.4  10 2 0.4  0 2.5 0.4  0.5 2.5 0.4  1 2.5 0.4  1.5 2.5 0.4  2 2.5 0.4  2.5 2.5 0.4  3 2.5 0.4  3.5 2.5 0.4  4 2.5 0.4  4.5 2.5 0.4  5 2.5 0.4  5.5 2.5 0.4  6 2.5 0.4  6.5 2.5 0.4  7 2.5 0.4  7.5 2.5 0.4  8 2.5 0.4  8.5 2.5 0.4  9 2.5 0.4  9.5 2.5 0.4  10 2.5 0.4  0 3 0.4  0.5 3 0.4  1 3 0.4  1.5 3 0.4  2 3 0.4  2.5 3 0.4  3 3 0.4  3.5 3 0.4  4 3 0.4  4.5 3 0.4  5 3 0.4  5.5 3 0.4  6 3 0.4  6.5 3 0.4  7 3 0.4  7.5 3 0.4  8 3 0.4  8.5 3 0.4  9 3 0.4  9.5 3 0.4  10 3 0.4  0 0 0.5  0.5 0 0.5  1 0 0.5  1.5 0 0.5  2 0 0.5  2.5 0 0.5  3 0 0.5  3.5 0 0.5  4 0 0.5  4.5 0 0.5  5 0 0.5  5.5 0 0.5  6 0 0.5  6.5 0 0.5  7 0 0.5  7.5 0 0.5  8 0 0.5  8.5 0 0.5  9 0 0.5  9.5 0 0.5  10 0 0.5  0 0.5 0.5  0.5 0.5 0.5  1 0.5 0.5  1.5 0.5 0.5  2 0.5 0.5  2.5 0.5 0.5  3 0.5 0.5  3.5 0.5 0.5  4 0.5 0.5  4.5 0.5 0.5  5 0.5 0.5  5.5 0.5 0.5  6 0.5 0.5  6.5 0.5 0.5  7 0.5 0.5  7.5 0.5 0.5  8 0.5 0.5  8.5 0.5 0.5  9 0.5 0.5  9.5 0.5 0.5  10 0.5 0.5  0 1 0.5  0.5 1 0.5  1 1 0.5  1.5 1 0.5  2 1 0.5  2.5 1 0.5  3 1 0.5  3.5 1 0.5  4 1 0.5  4.5 1 0.5  5 1 0.5  5.5 1 0.5  6 1 0.5  6.5 1 0.5  7 1 0.5  7.5 1 0.5  8 1 0.5  8.5 1 0.5  9 1 0.5  9.5 1 0.5  10 1 0.5  0 1.5 0.5  0.5 1.5 0.5  1 1.5 0.5  1.5 1.5 0.5  2 1.5 0.5  2.5 1.5 0.5  3 1.5 0.5  3.5 1.5 0.5  4 1.5 0.5  4.5 1.5 0.5  5 1.5 0.5  5.5 1.5 0.5  6 1.5 0.5  6.5 1.5 0.5  7 1.5 0.5  7.5 1.5 0.5  8 1.5 0.5  8.5 1.5 0.5  9 1.5 0.5  9.5 1.5 0.5  10 1.5 0.5  0 2 0.5  0.5 2 0.5  1 2 0.5  1.5 2 0.5  2 2 0.5  2.5 2 0.5  3 2 0.5  3.5 2 0.5  4 2 0.5  4.5 2 0.5  5 2 0.5  5.5 2 0.5  6 2 0.5  6.5 2 0.5  7 2 0.5  7.5 2 0.5  8 2 0.5  8.5 2 0.5  9 2 0.5  9.5 2 0.5  10 2 0.5  0 2.5 0.5  0.5 2.5 0.5  1 2.5 0.5  1.5 2.5 0.5  2 2.5 0.5  2.5 2.5 0.5  3 2.5 0.5  3.5 2.5 0.5  4 2.5 0.5  4.5 2.5 0.5  5 2.5 0.5  5.5 2.5 0.5  6 2.5 0.5  6.5 2.5 0.5  7 2.5 0.5  7.5 2.5 0.5  8 2.5 0.5  8.5 2.5 0.5  9 2.5 0.5  9.5 2.5 0.5  10 2.5 0.5  0 3 0.5  0.5 3 0.5  1 3 0.5  1.5 3 0.5  2 3 0.5  2.5 3 0.5  3 3 0.5  3.5 3 0.5  4 3 0.5  4.5 3 0.5  5 3 0.5  5.5 3 0.5  6 3 0.5  6.5 3 0.5  7 3 0.5  7.5 3 0.5  8 3 0.5  8.5 3 0.5  9 3 0.5  9.5 3 0.5  10 3 0.5  </DataArray>
</Points>
<Cells>
[...]
<PointData  Vectors="f_7-0"> 
<DataArray  type="Float64"  Name="f_7-0"  NumberOfComponents="3" format="ascii">0.0000000000000000e+00 0.0000000000000000e+00 0.0000000000000000e+00  2.0911388839810938e-01 1.9356436683386197e-01 2.9897166200935237e-02  3.9693203556239842e-01 3.6940239599993852e-01 3.0651170927057943e-02  6.1192092554161226e-01 5.1078308514680593e-01 3.0609342036457283e-02  9.1688404522499800e-01 5.7068798618246486e-01 2.8088103680913648e-02  1.2690968968496528e+00 5.7129441985308282e-01 2.4729038948664937e-02  1.6297702566983663e+00 5.6267751404554200e-01 2.3100486258642385e-02  1.9865100140725143e+00 5.6118597202292408e-01 2.3333282172170903e-02  2.3407140823733270e+00 5.6299342572536626e-01 2.3762435645836896e-02  2.6949133365002593e+00 5.6438133510084787e-01 2.3880530837776460e-02  3.0496519856591306e+00 5.6484745179244744e-01 2.3854453617356896e-02  3.4046631577009330e+00 5.6491308230850157e-01 2.3827558501218718e-02  3.7597121498417652e+00 5.6493279732491530e-01 2.3825324572833994e-02  4.1147397814014681e+00 5.6497921002316676e-01 2.3830423319265642e-02  4.4697610891793937e+00 5.6502568201164460e-01 2.3832647445127274e-02  4.8247903374141572e+00 5.6505433387265236e-01 2.3831971245318849e-02  5.1798279196968977e+00 5.6506805999746867e-01 2.3830698520926695e-02  5.5348696150657526e+00 5.6507460021280320e-01 2.3829905493224401e-02  5.8899126855401729e+00 5.6507830907462631e-01 2.3829576761010694e-02  6.2449562333548165e+00 5.6508044220995723e-01 2.3829467344025218e-02  6.6000000000000014e+00 5.6508114617892424e-01 2.3829450372247808e-02  0.0000000000000000e+00 0.0000000000000000e+00 0.0000000000000000e+00  9.9138133932300962e-02 7.2209120571049640e-02 3.4211606746227384e-02  3.0223550382627767e-01 2.6951444888165277e-01 3.4200428755869108e-02  5.7495087350174912e-01 3.7860677180843555e-01 3.0528695845123400e-02  9.1396032576129482e-01 4.0604924069290788e-01 2.4407502346634226e-02  1.2733387502905340e+00 3.9787273261452949e-01 2.2101698191469076e-02  1.6310875432033183e+00 3.9201370975888278e-01 2.3301574918200292e-02  1.9858122934627269e+00 3.9281812422211870e-01 2.3777195244264335e-02  2.3400214222972604e+00 3.9482850937231789e-01 2.3656890600764667e-02  2.6946508384039816e+00 3.9582363702762319e-01 2.3548309680582413e-02  3.0496113968619598e+00 3.9605265337430895e-01 2.3508925331760997e-02  3.4046591471200705e+00 3.9607343678863766e-01 2.3509715169610111e-02  3.7596951908229292e+00 3.9610871754342791e-01 2.3516394103132811e-02  4.1147193410962926e+00 3.9616292159639555e-01 2.3518006847863641e-02  4.4697474889317714e+00 3.9620466629223811e-01 2.3516679065567824e-02  4.8247837049251929e+00 3.9622686347058916e-01 2.3515339774516537e-02  5.1798248671482554e+00 3.9623710891321007e-01 2.3514743260489069e-02  5.5348679216873409e+00 3.9624244098229144e-01 2.3514556178967312e-02  5.8899116342124129e+00 3.9624573434007049e-01 2.3514466057168788e-02  6.2449557125416204e+00 3.9624763917052508e-01 2.3514397668825779e-02  6.6000000000000014e+00 3.9624826680547770e-01 2.3514369145157785e-02  0.0000000000000000e+00 0.0000000000000000e+00 0.0000000000000000e+00  2.9922265347189746e-02 1.2443071926708148e-02 2.7510956507168616e-02  2.3248385815851857e-01 1.5333212152193706e-01 3.0598783623990725e-02  5.5376219253220782e-01 2.2272540117676776e-01 2.6273965484089622e-02  9.1516260537118466e-01 2.3150210387424486e-01 1.8873926999863594e-02  1.2765786252772764e+00 2.2535833242901271e-01 2.1477126751508709e-02  1.6314584352256509e+00 2.2347280456458346e-01 2.3866958268143664e-02  1.9850457949032270e+00 2.2483046169338552e-01 2.3768834137937518e-02  2.3394649828543002e+00 2.2635307351755776e-01 2.3381631575231078e-02  2.6944716938981670e+00 2.2703183182278674e-01 2.3205982847745426e-02  3.0495864512278268e+00 2.2719472273606114e-01 2.3182881728638190e-02  3.4046488654352309e+00 2.2723863050883081e-01 2.3199339527304869e-02  3.7596747185433723e+00 2.2729079857170481e-01 2.3205871754238522e-02  4.1147001996638783e+00 2.2734313247729299e-01 2.3203432939505927e-02  4.4697360750551782e+00 2.2737789850151899e-01 2.3200259303209677e-02  4.8247782818076548e+00 2.2739589935223226e-01 2.3199110500497739e-02  5.1798222246060837e+00 2.2740476513245594e-01 2.3199147818246255e-02  5.5348663634579074e+00 2.2740972804551576e-01 2.3199329228568131e-02  5.8899106693166203e+00 2.2741277791855827e-01 2.3199362563965601e-02  6.2449552435220994e+00 2.2741447266656356e-01 2.3199321213015087e-02  6.6000000000000014e+00 2.2741501661035121e-01 2.3199296559313212e-02  0.0000000000000000e+00 0.0000000000000000e+00 0.0000000000000000e+00  1.5122642651575549e-02 1.4451388664830029e-02 2.1387893932595482e-02  1.8919132572033154e-01 1.2479211062432554e-02 3.6805444058017396e-02  5.4493449776741820e-01 4.6662381470969891e-02 1.4928993956812041e-02  9.1651286141149557e-01 5.1963597061367078e-02 1.7549538198502659e-02  1.2770899450527871e+00 5.4439258319802265e-02 2.2638618592025511e-02  1.6311944990856724e+00 5.6052193346191853e-02 2.3704376815065906e-02  1.9845393243858747e+00 5.6967523406535964e-02 2.3455346701582794e-02  2.3391224267483848e+00 5.7640061173295204e-02 2.3044631369070596e-02  2.6943355158762254e+00 5.8071822941912210e-02 2.2869657331502116e-02  3.0495423853099943e+00 5.8291281663509477e-02 2.2865755836834895e-02  3.4046235737241521e+00 5.8404658656381524e-02 2.2886325742667007e-02  3.7596526256424201e+00 5.8473963238208436e-02 2.2890966044307279e-02  4.1146841330692752e+00 5.8518651218935479e-02 2.2887079791981572e-02  4.4697267211314244e+00 5.8546073980824745e-02 2.2883959381365282e-02  4.8247733769251848e+00 5.8562053113146974e-02 2.2883383438872217e-02  5.1798195674481127e+00 5.8571190587689823e-02 2.2883812023306586e-02  5.5348648046407058e+00 5.8576442125852335e-02 2.2884159958512909e-02  5.8899097678519201e+00 5.8579426666411361e-02 2.2884258561190675e-02  6.2449548275548015e+00 5.8580962207065247e-02 2.2884248482888336e-02  6.6000000000000014e+00 5.8581437985218809e-02 2.2884235526058543e-02  0.0000000000000000e+00 0.0000000000000000e+00 0.0000000000000000e+00  3.7560320522541095e-02 2.9776978011632409e-03 3.0297012917616481e-02  2.0851391731599267e-01 -1.0095784577266526e-01 3.7714920438997115e-02  5.4212441475518147e-01 -1.4316382984962209e-01 1.2594255920473739e-02  9.1361153504557113e-01 -1.2739912131025249e-01 2.0119180297693766e-02  1.2751037989262655e+00 -1.1624349612442081e-01 2.2364005914219172e-02  1.6304402655065695e+00 -1.1162219529404635e-01 2.3073214697566114e-02  1.9844093543363190e+00 -1.1098632450748572e-01 2.2992521784168701e-02  2.3390216802938970e+00 -1.1114270718399723e-01 2.2675467607595503e-02  2.6942155071433431e+00 -1.1095440422820085e-01 2.2540334566837440e-02  3.0494581037231470e+00 -1.1064607210871898e-01 2.2543718744983638e-02  3.4045777492284093e+00 -1.1044269812591548e-01 2.2565226418965741e-02  3.7596295941458702e+00 -1.1035010681324729e-01 2.2571694394463594e-02  4.1146716085395685e+00 -1.1031108613612493e-01 2.2569823266575161e-02  4.4697189590296418e+00 -1.1028930203284712e-01 2.2568089393259667e-02  4.8247684194463467e+00 -1.1027391341678915e-01 2.2568055952916725e-02  5.1798165782450738e+00 -1.1026357989251091e-01 2.2568617909166422e-02  5.5348631245454154e+00 -1.1025753748903137e-01 2.2569016067074281e-02  5.8899088881069899e+00 -1.1025436813128833e-01 2.2569160511289002e-02  6.2449544494907379e+00 -1.1025287429684508e-01 2.2569186873454421e-02  6.6000000000000014e+00 -1.1025243299614428e-01 2.2569186216542924e-02  0.0000000000000000e+00 0.0000000000000000e+00 0.0000000000000000e+00  8.7386690194969585e-02 -4.4229694829110891e-02 3.7540749059589942e-02  2.9252254574031300e-01 -2.1136083964357424e-01 2.6884407416256098e-02  5.4817228749678870e-01 -3.1292437372994941e-01 2.7626679162408768e-02  9.0684963060729828e-01 -3.0684865996919947e-01 1.9083141894938285e-02  1.2709195934215807e+00 -2.8854486200323998e-01 2.1644889100051988e-02  1.6291746448056712e+00 -2.8057959845160124e-01 2.2204663231421864e-02  1.9844877302737058e+00 -2.7928184224509311e-01 2.2356310139174544e-02  2.3391307895209343e+00 -2.7983430237910201e-01 2.2280283767762372e-02  2.6941227981545053e+00 -2.7993322047959551e-01 2.2212455857863172e-02  3.0493347706789540e+00 -2.7960760953108960e-01 2.2213211272392813e-02  3.4045085121909717e+00 -2.7932159977850579e-01 2.2236379009394003e-02  3.7596030174208974e+00 -2.7919091981799915e-01 2.2248961980369745e-02  4.1146611246135247e+00 -2.7914657023874884e-01 2.2252195053867076e-02  4.4697121799821504e+00 -2.7912667342803904e-01 2.2252660386074014e-02  4.8247631713849835e+00 -2.7911131789502241e-01 2.2253021410283624e-02  5.1798131041563211e+00 -2.7909960002479828e-01 2.2253519583223417e-02  5.5348612060477160e+00 -2.7909238646518780e-01 2.2253891926711896e-02  5.8899079565673755e+00 -2.7908868106653856e-01 2.2254070326855526e-02  6.2449540768844169e+00 -2.7908703307162808e-01 2.2254130824974395e-02  6.6000000000000014e+00 -2.7908657456574987e-01 2.2254143188964407e-02  0.0000000000000000e+00 0.0000000000000000e+00 0.0000000000000000e+00  1.9160290552009504e-01 -1.6104059644268701e-01 2.9596275031792591e-02  3.8587712664664159e-01 -3.1705385086085780e-01 2.4823249416690379e-02  5.8542997447955525e-01 -4.4070983352405002e-01 3.4636517582081104e-02  8.9924715072131678e-01 -4.8405474040851965e-01 2.1995650834402899e-02  1.2650352465936285e+00 -4.6346712684616870e-01 1.9752157529093824e-02  1.6271370948692583e+00 -4.5156550819527830e-01 2.1081026135708187e-02  1.9843992137208442e+00 -4.4821528185903442e-01 2.1612929123178540e-02  2.3393574595653277e+00 -4.4839982718484711e-01 2.1844749217869684e-02  2.6940939842072549e+00 -4.4877191917978387e-01 2.1869769625823089e-02  3.0491966317644410e+00 -4.4857175000873445e-01 2.1877593575307878e-02  3.4044157674035151e+00 -4.4824437110454118e-01 2.1903881604829895e-02  3.7595667643408430e+00 -4.4805786435187217e-01 2.1924845012539138e-02  4.1146492516222501e+00 -4.4798974121006846e-01 2.1934563633216012e-02  4.4697056266905291e+00 -4.4796538028258293e-01 2.1937494346149004e-02  4.8247576820212501e+00 -4.4794968285058701e-01 2.1938183323270001e-02  5.1798091337901226e+00 -4.4793690024670341e-01 2.1938516014620841e-02  5.5348589294899053e+00 -4.4792827336215807e-01 2.1938800144496347e-02  5.8899068671959043e+00 -4.4792361161577993e-01 2.1938987187222991e-02  6.2449536578621707e+00 -4.4792154514134919e-01 2.1939072036945843e-02  6.6000000000000014e+00 -4.4792098320805435e-01 2.1939097232670204e-02  0.0000000000000000e+00 0.0000000000000000e+00 0.0000000000000000e+00  2.0897843860340601e-01 1.9378264996032812e-01 1.8963025428957468e-02  3.9717088023724700e-01 3.6916011285475792e-01 1.7301976204214805e-02  6.1397085902265403e-01 5.0985551673168716e-01 1.6922981556337886e-02  9.1688831716086228e-01 5.7108576034191982e-01 1.7025128777010689e-02  1.2684825575826353e+00 5.7228699650697434e-01 1.4901831156622339e-02  1.6296282017265658e+00 5.6283510912972912e-01 1.3115675587858993e-02  1.9866041526922416e+00 5.6106225386445818e-01 1.3003189809462839e-02  2.3407637334480769e+00 5.6299437665878915e-01 1.3376581458441551e-02  2.6949192758868405e+00 5.6446133556579126e-01 1.3542828762634974e-02  3.0496473109588043e+00 5.6494088584869573e-01 1.3549672331136546e-02  3.4046605090748874e+00 5.6500088974937723e-01 1.3530472395829114e-02  3.7597120065963212e+00 5.6501716670204816e-01 1.3526593144574965e-02  4.1147401897462332e+00 5.6506372921877346e-01 1.3530410963236372e-02  4.4697612113762935e+00 5.6511105995441202e-01 1.3533028291992292e-02  4.8247902478008378e+00 5.6514002013314535e-01 1.3533132832508182e-02  5.1798278260196655e+00 5.6515363984942091e-01 1.3532318433717810e-02  5.5348695789867923e+00 5.6516002383484898e-01 1.3531686869896203e-02  5.8899126825227839e+00 5.6516365876338737e-01 1.3531407670646390e-02  6.2449562363804452e+00 5.6516577754462372e-01 1.3531321922037020e-02  6.6000000000000014e+00 5.6516648709396633e-01 1.3531311285307589e-02  0.0000000000000000e+00 0.0000000000000000e+00 0.0000000000000000e+00  1.0159016335524569e-01 7.5992916753091333e-02 2.0629548549717977e-02  3.0405936492544616e-01 2.6917762749118218e-01 2.0049817894407438e-02  5.7579738891088972e-01 3.7862394987401787e-01 1.8022081113671675e-02  9.1352772161116158e-01 4.0719803331915327e-01 1.4261441230383356e-02  1.2731516328903498e+00 3.9821319164117225e-01 1.2419962866460622e-02  1.6312046631314214e+00 3.9186381263694309e-01 1.3084659053171124e-02  1.9858597404488525e+00 3.9278035383957638e-01 1.3378330901704786e-02  2.3400203579120751e+00 3.9489086822513003e-01 1.3299487846063390e-02  2.6946452853313763e+00 3.9591422354850975e-01 1.3236134932533230e-02  3.0496097810073519e+00 3.9614086288191569e-01 1.3212359027801126e-02  3.4046594880581806e+00 3.9615752310377594e-01 1.3212682039965576e-02  3.7596955094482958e+00 3.9619261453444926e-01 1.3216898451012564e-02  4.1147192896481615e+00 3.9624795668615204e-01 1.3218189034304955e-02  4.4697473264102658e+00 3.9629030638376012e-01 1.3217612427455666e-02  4.8247836108442108e+00 3.9631250439684584e-01 1.3216880061026908e-02  5.1798248485649188e+00 3.9632258483592053e-01 1.3216523101343842e-02  5.5348679306767803e+00 3.9632781319515331e-01 1.3216398477977965e-02  5.8899116427326570e+00 3.9633107402830092e-01 1.3216335316656771e-02  6.2449557154499313e+00 3.9633297540763734e-01 1.3216289008307132e-02  6.6000000000000014e+00 3.9633360503835180e-01 1.3216270156130475e-02  0.0000000000000000e+00 0.0000000000000000e+00 0.0000000000000000e+00  2.8653135851474061e-02 1.3069590739660058e-02 1.5622788778513856e-02  2.3610043910089057e-01 1.5598958943860616e-01 1.7576700175637058e-02  5.5381378166704609e-01 2.2430335963057121e-01 1.5314234099220909e-02  9.1503203363941343e-01 2.3210233198240554e-01 1.0152170348448428e-02  1.2768935409660898e+00 2.2504034302602674e-01 1.1670244879137507e-02  1.6315708322716911e+00 2.2340271199395814e-01 1.3383747398365431e-02  1.9850366762121940e+00 2.2489926251134840e-01 1.3339728440992155e-02  2.3394484247671476e+00 2.2644714833273799e-01 1.3059095486254354e-02  2.6944673715973986e+00 2.2712057268387442e-01 1.2918204256290778e-02  3.0495877018076789e+00 2.2727839233343369e-01 1.2892564655445166e-02  3.4046499673682109e+00 2.2732206997907478e-01 1.2901491735491075e-02  3.7596746642132031e+00 2.2737560409783128e-01 1.2905644419118550e-02  4.1146997791832494e+00 2.2742873620266990e-01 1.2903989181859036e-02  4.4697358218882597e+00 2.2746356988966271e-01 1.2901800663678787e-02  4.8247782276249715e+00 2.2748140251517079e-01 1.2901007470363490e-02  5.1798222446216995e+00 2.2749015314442184e-01 1.2901062219365954e-02  5.5348663840177110e+00 2.2749507728058843e-01 1.2901222719232710e-02  5.8899106775114056e+00 2.2749811817648402e-01 1.2901268161589293e-02  6.2449552455932436e+00 2.2749980947370912e-01 1.2901248582032707e-02  6.6000000000000014e+00 2.2750035193594259e-01 1.2901233545845325e-02  0.0000000000000000e+00 0.0000000000000000e+00 0.0000000000000000e+00  1.5587183110087898e-02 1.2929288213033779e-02 1.2408261948354824e-02  1.8886755946254941e-01 1.2268076280073398e-02 2.0952832634788372e-02  5.4543017190468623e-01 4.8580128947771049e-02 7.7846559550215581e-03  9.1733221618888383e-01 5.1250661118705861e-02 9.0371577537950269e-03  1.2773815027517013e+00 5.4230054416635198e-02 1.2467053498256289e-02  1.6312165605320044e+00 5.6133250532006920e-02 1.3192717288269143e-02  1.9845133187222148e+00 5.7099547559572243e-02 1.3035405314949436e-02  2.3391110906145061e+00 5.7742368396793538e-02 1.2740428060968926e-02  2.6943360550945026e+00 5.8157780860223655e-02 1.2594796182209470e-02  3.0495443732379646e+00 5.8374527209020442e-02 1.2578961026253747e-02  3.4046238775374387e+00 5.8489528103833878e-02 1.2588665080232387e-02  3.7596519996794195e+00 5.8559887757094017e-02 1.2590973405749018e-02  4.1146835853273798e+00 5.8604543522401083e-02 1.2588207385816572e-02  4.4697265121749670e+00 5.8631636170149486e-02 1.2585980367740628e-02  4.8247733566078157e+00 5.8647431993237825e-02 1.2585537453824366e-02  5.1798195870825205e+00 5.8656530913773618e-02 1.2585842893115068e-02  5.5348648159866469e+00 5.8661784990883009e-02 1.2586114499627628e-02  5.8899097712900197e+00 5.8664768186378266e-02 1.2586206682776154e-02  6.2449548287392753e+00 5.8666298045551978e-02 1.2586210765229821e-02  6.6000000000000014e+00 5.8666770277252409e-02 1.2586204408694852e-02  0.0000000000000000e+00 0.0000000000000000e+00 0.0000000000000000e+00  3.6664386205177493e-02 9.2897375069623319e-04 1.7228667059370640e-02  2.0890208505300736e-01 -9.9275588614017307e-02 2.1536222509278908e-02  5.4403248654320135e-01 -1.4536589246336845e-01 5.6967913086371736e-03  9.1454833295278903e-01 -1.2753884912934094e-01 1.0968528611698317e-02  1.2752255782352775e+00 -1.1622696028272271e-01 1.2272973090725068e-02  1.6304148081178784e+00 -1.1142248845130170e-01 1.2682697194168754e-02  1.9843869918570856e+00 -1.1082873458910042e-01 1.2602707120756264e-02  2.3390211034164778e+00 -1.1103854094580805e-01 1.2368612482552357e-02  2.6942199061864711e+00 -1.1086781612117028e-01 1.2265008702539099e-02  3.0494598007135139e+00 -1.1056022369589844e-01 1.2259249615268938e-02  3.4045770653838900e+00 -1.1035575322830031e-01 1.2269779180070814e-02  3.7596285999960921e+00 -1.1026339443736242e-01 1.2273048684300028e-02  4.1146711062249146e+00 -1.1022517677586119e-01 1.2271581534656722e-02  4.4697188321751460e+00 -1.1020388601191726e-01 1.2270389138235457e-02  4.8247684132567539e+00 -1.1018861464588121e-01 1.2270374580146801e-02  5.1798165811244843e+00 -1.1017826066450752e-01 1.2270767477375228e-02  5.5348631224081464e+00 -1.1017219793401696e-01 1.2271050810725966e-02  5.8899088870289358e+00 -1.1016902843743369e-01 1.2271159009223719e-02  6.2449544502212122e+00 -1.1016754026310147e-01 1.2271182283709065e-02  6.6000000000000014e+00 -1.1016710282244561e-01 1.2271183593421194e-02  0.0000000000000000e+00 0.0000000000000000e+00 0.0000000000000000e+00  8.7724220152893440e-02 -4.4679649902332204e-02 2.1489121083917481e-02  2.9432530642677313e-01 -2.1261742771516123e-01 1.4886636219188502e-02  5.4941245544755213e-01 -3.1479298143422829e-01 1.5612060841021048e-02  9.0758465449502046e-01 -3.0676781623350230e-01 1.0276758686610340e-02  1.2710502066854517e+00 -2.8816290015771956e-01 1.1734156600707023e-02  1.6291219954597378e+00 -2.8033128420032272e-01 1.2010818407518191e-02  1.9844822808399059e+00 -2.7911299990448823e-01 1.2022230019048168e-02  2.3391403608951182e+00 -2.7972626189189093e-01 1.1958052620578485e-02  2.6941297559909363e+00 -2.7984279667245715e-01 1.1924876922562055e-02  3.0493361455198245e+00 -2.7951820737469391e-01 1.1929581609921545e-02  3.4045073878172771e+00 -2.7923284981654439e-01 1.1944945216245969e-02  3.7596020275973405e+00 -2.7910387558776345e-01 1.1952669906576369e-02  4.1146607688770196e+00 -2.7906080302271102e-01 1.1954648655085892e-02  4.4697121198887357e+00 -2.7904137898933262e-01 1.1955088998836818e-02  4.8247631600963059e+00 -2.7902606222982934e-01 1.1955439310882891e-02  5.1798130872960577e+00 -2.7901429259176458e-01 1.1955794185660134e-02  5.5348611929034934e+00 -2.7900705307583856e-01 1.1956025371982629e-02  5.8899079523238989e+00 -2.7900334568657842e-01 1.1956127142714041e-02  6.2449540773901679e+00 -2.7900170070344110e-01 1.1956160094771963e-02  6.6000000000000014e+00 -2.7900124465104609e-01 1.1956167449811431e-02  0.0000000000000000e+00 0.0000000000000000e+00 0.0000000000000000e+00  1.9079711544875402e-01 -1.6066650715562728e-01 1.8859774181952206e-02  3.8831621099868185e-01 -3.1955051803333223e-01 1.4674650903056669e-02  5.8697041277632722e-01 -4.4143643671949068e-01 2.0019465273012113e-02  8.9915435241235142e-01 -4.8475071579192103e-01 1.2225355730333422e-02  1.2651890044635179e+00 -4.6279960002912290e-01 1.0360073134104629e-02  1.6271319665957460e+00 -4.5127417186077856e-01 1.1117315638273029e-02  1.9844136384902973e+00 -4.4805452443427868e-01 1.1354836760232908e-02  2.3393804340803079e+00 -4.4828518424581437e-01 1.1508690295537416e-02  2.6941046520507888e+00 -4.4867473924043400e-