<?xml version="1.0"?>
<VTKFile type="UnstructuredGrid"  version="0.1"  >
<UnstructuredGrid>
<Piece  NumberOfPoints="588" NumberOfCells="2160">
<Points>
<DataArray  type="Float64"  NumberOfComponents="3"  format="ascii">0 0 0  0.5 0 0  1 0 0  1.5 0 0  2 0 0  2.5 0 0  3 0 0  3.5 0 0  4 0 0  4.5 0 0  5 0 0  5.5 0 0  6 0 0  6.5 0 0  7 0 0  7.5 0 0  8 0 0  8.5 0 0  9 0 0  9.5 0 0  10 0 0  0 0.5 0  0.5 0.5 0  1 0.5 0  1.5 0.5 0  2 0.5 0  2.5 0.5 0  3 0.5 0  3.5 0.5 0  4 0.5 0  4.5 0.5 0  5 0.5 0  5.5 0.5 0  6 0.5 0  6.5 0.5 0  7 0.5 0  7.5 0.5 0  8 0.5 0  8.5 0.5 0  9 0.5 0  9.5 0.5 0  10 0.5 0  0 1 0  0.5 1 0  1 1 0  1.5 1 0  2 1 0  2.5 1 0  3 1 0  3.5 1 0  4 1 0  4.5 1 0  5 1 0  5.5 1 0  6 1 0  6.5 1 0  7 1 0  7.5 1 0  8 1 0  8.5 1 0  9 1 0  9.5 1 0  10 1 0  0 1.5 0  0.5 1.5 0  1 1.5 0  1.5 1.5 0  2 1.5 0  2.5 1.5 0  3 1.5 0  3.5 1.5 0  4 1.5 0  4.5 1.5 0  5 1.5 0  5.5 1.5 0  6 1.5 0  6.5 1.5 0  7 1.5 0  7.5 1.5 0  8 1.5 0  8.5 1.5 0  9 1.5 0  9.5 1.5 0  10 1.5 0  0 2 0  0.5 2 0  1 2 0  1.5 2 0  2 2 0  2.5 2 0  3 2 0  3.5 2 0  4 2 0  4.5 2 0  5 2 0  5.5 2 0  6 2 0  6.5 2 0  7 2 0  7.5 2 0  8 2 0  8.5 2 0  9 2 0  9.5 2 0  10 2 0  0 2.5 0  0.5 2.5 0  1 2.5 0  1.5 2.5 0  2 2.5 0  2.5 2.5 0  3 2.5 0  3.5 2.5 0  4 2.5 0  4.5 2.5 0  5 2.5 0  5.5 2.5 0  6 2.5 0  6.5 2.5 0  7 2.5 0  7.5 2.5 0  8 2.5 0  8.5 2.5 0  9 2.5 0  9.5 2.5 0  10 2.5 0  0 3 0  0.5 3 0  1 3 0  1.5 3 0  2 3 0  2.5 3 0  3 3 0  3.5 3 0  4 3 0  4.5 3 0  5 3 0  5.5 3 0  6 3 0  6.5 3 0  7 3 0  7.5 3 0  8 3 0  8.5 3 0  9 3 0  9.5 3 0  10 3 0  0 0 0.1666666666666667  0.5 0 0.1666666666666667  1 0 0.1666666666666667  1.5 0 0.1666666666666667  2 0 0.1666666666666667  2.5 0 0.1666666666666667  3 0 0.1666666666666667  3.5 0 0.1666666666666667  4 0 0.1666666666666667  4.5 0 0.1666666666666667  5 0 0.1666666666666667  5.5 0 0.1666666666666667  6 0 0.1666666666666667  6.5 0 0.1666666666666667  7 0 0.1666666666666667  7.5 0 0.1666666666666667  8 0 0.1666666666666667  8.5 0 0.1666666666666667  9 0 0.1666666666666667  9.5 0 0.1666666666666667  10 0 0.1666666666666667  0 0.5 0.1666666666666667  0.5 0.5 0.1666666666666667  1 0.5 0.1666666666666667  1.5 0.5 0.1666666666666667  2 0.5 0.1666666666666667  2.5 0.5 0.1666666666666667  3 0.5 0.1666666666666667  3.5 0.5 0.1666666666666667  4 0.5 0.1666666666666667  4.5 0.5 0.1666666666666667  5 0.5 0.1666666666666667  5.5 0.5 0.1666666666666667  6 0.5 0.1666666666666667  6.5 0.5 0.1666666666666667  7 0.5 0.1666666666666667  7.5 0.5 0.1666666666666667  8 0.5 0.1666666666666667  8.5 0.5 0.1666666666666667  9 0.5 0.1666666666666667  9.5 0.5 0.1666666666666667  10 0.5 0.1666666666666667  0 1 0.1666666666666667  0.5 1 0.1666666666666667  1 1 0.1666666666666667  1.5 1 0.1666666666666667  2 1 0.1666666666666667  2.5 1 0.1666666666666667  3 1 0.1666666666666667  3.5 1 0.1666666666666667  4 1 0.1666666666666667  4.5 1 0.1666666666666667  5 1 0.1666666666666667  5.5 1 0.1666666666666667  6 1 0.1666666666666667  6.5 1 0.1666666666666667  7 1 0.1666666666666667  7.5 1 0.1666666666666667  8 1 0.1666666666666667  8.5 1 0.1666666666666667  9 1 0.1666666666666667  9.5 1 0.1666666666666667  10 1 0.1666666666666667  0 1.5 0.1666666666666667  0.5 1.5 0.1666666666666667  1 1.5 0.1666666666666667  1.5 1.5 0.1666666666666667  2 1.5 0.1666666666666667  2.5 1.5 0.1666666666666667  3 1.5 0.1666666666666667  3.5 1.5 0.1666666666666667  4 1.5 0.1666666666666667  4.5 1.5 0.1666666666666667  5 1.5 0.1666666666666667  5.5 1.5 0.1666666666666667  6 1.5 0.1666666666666667  6.5 1.5 0.1666666666666667  7 1.5 0.1666666666666667  7.5 1.5 0.1666666666666667  8 1.5 0.1666666666666667  8.5 1.5 0.1666666666666667  9 1.5 0.1666666666666667  9.5 1.5 0.1666666666666667  10 1.5 0.1666666666666667  0 2 0.1666666666666667  0.5 2 0.1666666666666667  1 2 0.1666666666666667  1.5 2 0.1666666666666667  2 2 0.1666666666666667  2.5 2 0.1666666666666667  3 2 0.1666666666666667  3.5 2 0.1666666666666667  4 2 0.1666666666666667  4.5 2 0.1666666666666667  5 2 0.1666666666666667  5.5 2 0.1666666666666667  6 2 0.1666666666666667  6.5 2 0.1666666666666667  7 2 0.1666666666666667  7.5 2 0.1666666666666667  8 2 0.1666666666666667  8.5 2 0.1666666666666667  9 2 0.1666666666666667  9.5 2 0.1666666666666667  10 2 0.1666666666666667  0 2.5 0.1666666666666667  0.5 2.5 0.1666666666666667  1 2.5 0.1666666666666667  1.5 2.5 0.1666666666666667  2 2.5 0.1666666666666667  2.5 2.5 0.1666666666666667  3 2.5 0.1666666666666667  3.5 2.5 0.1666666666666667  4 2.5 0.1666666666666667  4.5 2.5 0.1666666666666667  5 2.5 0.1666666666666667  5.5 2.5 0.1666666666666667  6 2.5 0.1666666666666667  6.5 2.5 0.1666666666666667  7 2.5 0.1666666666666667  7.5 2.5 0.1666666666666667  8 2.5 0.1666666666666667  8.5 2.5 0.1666666666666667  9 2.5 0.1666666666666667  9.5 2.5 0.1666666666666667  10 2.5 0.1666666666666667  0 3 0.1666666666666667  0.5 3 0.1666666666666667  1 3 0.1666666666666667  1.5 3 0.1666666666666667  2 3 0.1666666666666667  2.5 3 0.1666666666666667  3 3 0.1666666666666667  3.5 3 0.1666666666666667  4 3 0.1666666666666667  4.5 3 0.1666666666666667  5 3 0.1666666666666667  5.5 3 0.1666666666666667  6 3 0.1666666666666667  6.5 3 0.1666666666666667  7 3 0.1666666666666667  7.5 3 0.1666666666666667  8 3 0.1666666666666667  8.5 3 0.1666666666666667  9 3 0.1666666666666667  9.5 3 0.1666666666666667  10 3 0.1666666666666667  0 0 0.3333333333333333  0.5 0 0.3333333333333333  1 0 0.3333333333333333  1.5 0 0.3333333333333333  2 0 0.3333333333333333  2.5 0 0.3333333333333333  3 0 0.3333333333333333  3.5 0 0.3333333333333333  4 0 0.3333333333333333  4.5 0 0.3333333333333333  5 0 0.3333333333333333  5.5 0 0.3333333333333333  6 0 0.3333333333333333  6.5 0 0.3333333333333333  7 0 0.3333333333333333  7.5 0 0.3333333333333333  8 0 0.3333333333333333  8.5 0 0.3333333333333333  9 0 0.3333333333333333  9.5 0 0.3333333333333333  10 0 0.3333333333333333  0 0.5 0.3333333333333333  0.5 0.5 0.3333333333333333  1 0.5 0.3333333333333333  1.5 0.5 0.3333333333333333  2 0.5 0.3333333333333333  2.5 0.5 0.3333333333333333  3 0.5 0.3333333333333333  3.5 0.5 0.3333333333333333  4 0.5 0.3333333333333333  4.5 0.5 0.3333333333333333  5 0.5 0.3333333333333333  5.5 0.5 0.3333333333333333  6 0.5 0.3333333333333333  6.5 0.5 0.3333333333333333  7 0.5 0.3333333333333333  7.5 0.5 0.3333333333333333  8 0.5 0.3333333333333333  8.5 0.5 0.3333333333333333  9 0.5 0.3333333333333333  9.5 0.5 0.3333333333333333  10 0.5 0.3333333333333333  0 1 0.3333333333333333  0.5 1 0.3333333333333333  1 1 0.3333333333333333  1.5 1 0.3333333333333333  2 1 0.3333333333333333  2.5 1 0.3333333333333333  3 1 0.3333333333333333  3.5 1 0.3333333333333333  4 1 0.3333333333333333  4.5 1 0.3333333333333333  5 1 0.3333333333333333  5.5 1 0.3333333333333333  6 1 0.3333333333333333  6.5 1 0.3333333333333333  7 1 0.3333333333333333  7.5 1 0.3333333333333333  8 1 0.3333333333333333  8.5 1 0.3333333333333333  9 1 0.3333333333333333  9.5 1 0.3333333333333333  10 1 0.3333333333333333  0 1.5 0.3333333333333333  0.5 1.5 0.3333333333333333  1 1.5 0.3333333333333333  1.5 1.5 0.3333333333333333  2 1.5 0.3333333333333333  2.5 1.5 0.3333333333333333  3 1.5 0.3333333333333333  3.5 1.5 0.3333333333333333  4 1.5 0.3333333333333333  4.5 1.5 0.3333333333333333  5 1.5 0.3333333333333333  5.5 1.5 0.3333333333333333  6 1.5 0.3333333333333333  6.5 1.5 0.3333333333333333  7 1.5 0.3333333333333333  7.5 1.5 0.3333333333333333  8 1.5 0.3333333333333333  8.5 1.5 0.3333333333333333  9 1.5 0.3333333333333333  9.5 1.5 0.3333333333333333  10 1.5 0.3333333333333333  0 2 0.3333333333333333  0.5 2 0.3333333333333333  1 2 0.3333333333333333  1.5 2 0.3333333333333333  2 2 0.3333333333333333  2.5 2 0.3333333333333333  3 2 0.3333333333333333  3.5 2 0.3333333333333333  4 2 0.3333333333333333  4.5 2 0.3333333333333333  5 2 0.3333333333333333  5.5 2 0.3333333333333333  6 2 0.3333333333333333  6.5 2 0.3333333333333333  7 2 0.3333333333333333  7.5 2 0.3333333333333333  8 2 0.3333333333333333  8.5 2 0.3333333333333333  9 2 0.3333333333333333  9.5 2 0.3333333333333333  10 2 0.3333333333333333  0 2.5 0.3333333333333333  0.5 2.5 0.3333333333333333  1 2.5 0.3333333333333333  1.5 2.5 0.3333333333333333  2 2.5 0.3333333333333333  2.5 2.5 0.3333333333333333  3 2.5 0.3333333333333333  3.5 2.5 0.3333333333333333  4 2.5 0.3333333333333333  4.5 2.5 0.3333333333333333  5 2.5 0.3333333333333333  5.5 2.5 0.3333333333333333  6 2.5 0.3333333333333333  6.5 2.5 0.3333333333333333  7 2.5 0.3333333333333333  7.5 2.5 0.3333333333333333  8 2.5 0.3333333333333333  8.5 2.5 0.3333333333333333  9 2.5 0.3333333333333333  9.5 2.5 0.3333333333333333  10 2.5 0.3333333333333333  0 3 0.3333333333333333  0.5 3 0.3333333333333333  1 3 0.3333333333333333  1.5 3 0.3333333333333333  2 3 0.3333333333333333  2.5 3 0.3333333333333333  3 3 0.3333333333333333  3.5 3 0.3333333333333333  4 3 0.3333333333333333  4.5 3 0.3333333333333333  5 3 0.3333333333333333  5.5 3 0.3333333333333333  6 3 0.3333333333333333  6.5 3 0.3333333333333333  7 3 0.3333333333333333  7.5 3 0.3333333333333333  8 3 0.3333333333333333  8.5 3 0.3333333333333333  9 3 0.3333333333333333  9.5 3 0.3333333333333333  10 3 0.3333333333333333  0 0 0.5  0.5 0 0.5  1 0 0.5  1.5 0 0.5  2 0 0.5  2.5 0 0.5  3 0 0.5  3.5 0 0.5  4 0 0.5  4.5 0 0.5  5 0 0.5  5.5 0 0.5  6 0 0.5  6.5 0 0.5  7 0 0.5  7.5 0 0.5  8 0 0.5  8.5 0 0.5  9 0 0.5  9.5 0 0.5  10 0 0.5  0 0.5 0.5  0.5 0.5 0.5  1 0.5 0.5  1.5 0.5 0.5  2 0.5 0.5  2.5 0.5 0.5  3 0.5 0.5  3.5 0.5 0.5  4 0.5 0.5  4.5 0.5 0.5  5 0.5 0.5  5.5 0.5 0.5  6 0.5 0.5  6.5 0.5 0.5  7 0.5 0.5  7.5 0.5 0.5  8 0.5 0.5  8.5 0.5 0.5  9 0.5 0.5  9.5 0.5 0.5  10 0.5 0.5  0 1 0.5  0.5 1 0.5  1 1 0.5  1.5 1 0.5  2 1 0.5  2.5 1 0.5  3 1 0.5  3.5 1 0.5  4 1 0.5  4.5 1 0.5  5 1 0.5  5.5 1 0.5  6 1 0.5  6.5 1 0.5  7 1 0.5  7.5 1 0.5  8 1 0.5  8.5 1 0.5  9 1 0.5  9.5 1 0.5  10 1 0.5  0 1.5 0.5  0.5 1.5 0.5  1 1.5 0.5  1.5 1.5 0.5  2 1.5 0.5  2.5 1.5 0.5  3 1.5 0.5  3.5 1.5 0.5  4 1.5 0.5  4.5 1.5 0.5  5 1.5 0.5  5.5 1.5 0.5  6 1.5 0.5  6.5 1.5 0.5  7 1.5 0.5  7.5 1.5 0.5  8 1.5 0.5  8.
[...]
<PointData  Vectors="f_7-0"> 
<DataArray  type="Float64"  Name="f_7-0"  NumberOfComponents="3" format="ascii">0.0000000000000000e+00 0.0000000000000000e+00 0.0000000000000000e+00  5.8063634716769619e-01 4.7730538590036259e-01 8.8663841898134643e-02  1.4231071373347328e+00 5.3222973229195780e-01 9.0148365199251485e-02  2.2789024929461408e+00 5.3630268652385737e-01 9.0794824048662043e-02  3.1418126493176097e+00 5.3637123083840776e-01 9.0910406177777889e-02  4.0073298787299105e+00 5.3626788070023257e-01 9.0955102634061244e-02  4.8734049134638218e+00 5.3622123424228529e-01 9.0963783207509558e-02  5.7395881201496204e+00 5.3620110557147993e-01 9.0964178660028885e-02  6.6057882233419694e+00 5.3619162018833755e-01 9.0963725191809466e-02  7.4719851284456595e+00 5.3618690099815869e-01 9.0963266491309702e-02  8.3381763703569138e+00 5.3618444909003060e-01 9.0962944956687206e-02  9.2043634167865651e+00 5.3618313322613365e-01 9.0962754708080698e-02  1.0070547860117841e+01 5.3618241536074074e-01 9.0962648259717768e-02  1.0936730782967505e+01 5.3618202090200817e-01 9.0962589457258033e-02  1.1802912841476381e+01 5.3618180336600152e-01 9.0962557164773944e-02  1.2669094415483189e+01 5.3618168324450233e-01 9.0962539486090704e-02  1.3535275720063963e+01 5.3618161701156408e-01 9.0962529824499913e-02  1.4401456875939772e+01 5.3618158076249545e-01 9.0962524576787385e-02  1.5267637951028670e+01 5.3618156143378437e-01 9.0962521794500650e-02  1.6133818984331636e+01 5.3618155207941132e-01 9.0962520456468840e-02  1.7000000000000007e+01 5.3618154929986284e-01 9.0962520038323738e-02  0.0000000000000000e+00 0.0000000000000000e+00 0.0000000000000000e+00  5.6030965837297708e-01 3.0817907041546821e-01 9.2388927365513934e-02  1.4142585867337900e+00 3.5523478022223232e-01 9.1126682764079897e-02  2.2764759760457798e+00 3.5798858167062803e-01 9.1179535993579378e-02  3.1412091489960541e+00 3.5779873142633223e-01 9.1188827497098501e-02  4.0072038067846973e+00 3.5763918685345636e-01 9.1193911949849771e-02  4.8733821034786065e+00 3.5757863134773427e-01 9.1197296517607510e-02  5.7395876987672052e+00 3.5755643916904101e-01 9.1197429915675837e-02  6.6057916726681531e+00 3.5754747412087556e-01 9.1196866830756465e-02  7.4719880804222667e+00 3.5754344905893021e-01 9.1196455006952115e-02  8.3381782839272951e+00 3.5754148870576247e-01 9.1196209281308574e-02  9.2043645534656715e+00 3.5754047751361318e-01 9.1196065782489413e-02  1.0070548511379391e+01 3.5753993776203724e-01 9.1195984283578502e-02  1.0936731149600245e+01 3.5753964442723490e-01 9.1195938937231227e-02  1.1802913046012417e+01 3.5753948355023524e-01 9.1195913862967340e-02  1.2669094528961161e+01 3.5753939496240028e-01 9.1195900023120086e-02  1.3535275782621920e+01 3.5753934618281391e-01 9.1195892406413084e-02  1.4401456909902121e+01 3.5753931950228690e-01 9.1195888248088067e-02  1.5267637968569220e+01 3.5753930528064720e-01 9.1195886035531457e-02  1.6133818991759313e+01 3.5753929839362175e-01 9.1195884974204749e-02  1.7000000000000007e+01 3.5753929635800824e-01 9.1195884661814025e-02  0.0000000000000000e+00 0.0000000000000000e+00 0.0000000000000000e+00  5.4791625539039646e-01 1.5119457188749136e-01 9.5188654707606832e-02  1.4017165206179276e+00 1.7779575046667662e-01 9.1978580361307502e-02  2.2723775387523220e+00 1.7933322260631984e-01 9.1587856250373079e-02  3.1401160665356973e+00 1.7910370935963682e-01 9.1464749240272522e-02  4.0069596047884026e+00 1.7897446280912688e-01 9.1440346291345079e-02  4.8733388544404344e+00 1.7892711545266377e-01 9.1433231167458148e-02  5.7395903924347396e+00 1.7890999755602929e-01 9.1430790235460413e-02  6.6058010749504827e+00 1.7890314721659004e-01 9.1429918273518596e-02  7.4719954511431874e+00 1.7890011838963799e-01 9.1429577095473322e-02  8.3381829532773342e+00 1.7889865982220554e-01 9.1429422434954818e-02  9.2043673047238563e+00 1.7889791236603381e-01 9.1429342911514583e-02  1.0070550081556023e+01 1.7889751504416024e-01 9.1429300276729186e-02  1.0936732031745352e+01 1.7889729961659911e-01 9.1429276996304987e-02  1.1802913537668125e+01 1.7889718161688173e-01 9.1429264104397043e-02  1.2669094801614461e+01 1.7889711668686345e-01 9.1429256933131128e-02  1.3535275932898285e+01 1.7889708094897647e-01 9.1429252953528189e-02  1.4401456991480586e+01 1.7889706140611356e-01 9.1429250765547351e-02  1.5267638010708071e+01 1.7889705099022840e-01 9.1429249596267068e-02  1.6133819009595129e+01 1.7889704594393799e-01 9.1429249044581287e-02  1.7000000000000007e+01 1.7889704444266852e-01 9.1429248879067032e-02  0.0000000000000000e+00 0.0000000000000000e+00 0.0000000000000000e+00  5.4435968206431540e-01 1.1204631054406828e-03 9.5980239843245177e-02  1.3962304087247013e+00 4.4040534976741723e-04 9.2385905801616222e-02  2.2708202728146709e+00 3.3100894764525912e-04 9.1880034670040175e-02  3.1397704691581105e+00 2.9003074709964331e-04 9.1708483355683143e-02  4.0069135345845233e+00 2.7931834523035187e-04 9.1675286667017450e-02  4.8733602713500703e+00 2.6883200511606040e-04 9.1666078691219330e-02  5.7396169740413612e+00 2.6260239762503041e-04 9.1663306827810764e-02  6.6058199790832433e+00 2.5914013557099561e-04 9.1662718840852947e-02  7.4720070030697121e+00 2.5720545442843844e-04 9.1662612378020800e-02  8.3381896580094654e+00 2.5612794740252664e-04 9.1662597828227776e-02  9.2043711070296919e+00 2.5552967323369904e-04 9.1662601264727694e-02  1.0070552211368280e+01 2.5519833751797065e-04 9.1662606257411239e-02  1.0936733217327003e+01 2.5501487203040228e-04 9.1662609447270782e-02  1.1802914195486279e+01 2.5491332003012274e-04 9.1662611149075035e-02  1.2669095165602762e+01 2.5485716298376992e-04 9.1662612019483114e-02  1.3535276133291427e+01 2.5482618336521710e-04 9.1662612459786186e-02  1.4401457100209198e+01 2.5480922509761583e-04 9.1662612682442343e-02  1.5267638066860643e+01 2.5480018186175793e-04 9.1662612796245560e-02  1.6133819033383656e+01 2.5479579474798350e-04 9.1662612864605711e-02  1.7000000000000007e+01 2.5479448413642553e-04 9.1662612881029198e-02  0.0000000000000000e+00 0.0000000000000000e+00 0.0000000000000000e+00  5.4964587558736022e-01 -1.4856495723190416e-01 9.5302497974793177e-02  1.4015085527183286e+00 -1.7702465845454116e-01 9.2438963220044537e-02  2.2731793227559418e+00 -1.7867095599838359e-01 9.1983289779488706e-02  3.1406249788761875e+00 -1.7848691385459564e-01 9.1898288672271608e-02  4.0072172292763399e+00 -1.7840504544572877e-01 9.1895254873642002e-02  4.8734841111723268e+00 -1.7838503671939471e-01 9.1895070436886411e-02  5.7396722439961154e+00 -1.7838222059686856e-01 9.1894871867736469e-02  6.6058468542616744e+00 -1.7838345379635900e-01 9.1895326789721538e-02  7.4720207810365604e+00 -1.7838494228952601e-01 9.1895615358724772e-02  8.3381969944231411e+00 -1.7838598445041989e-01 9.1895773615520801e-02  9.2043750882471311e+00 -1.7838662109369105e-01 9.1895864743895134e-02  1.0070554391567820e+01 -1.7838699008873821e-01 9.1895915865548530e-02  1.0936734417403716e+01 -1.7838719892728222e-01 9.1895943869286734e-02  1.1802914857609625e+01 -1.7838731569581734e-01 9.1895959195240226e-02  1.2669095530925249e+01 -1.7838738057808282e-01 9.1895967605232887e-02  1.3535276334130041e+01 -1.7838741645203221e-01 9.1895972213752661e-02  1.4401457209104118e+01 -1.7838743610899416e-01 9.1895974723506163e-02  1.5267638123085158e+01 -1.7838744659721417e-01 9.1895976059338996e-02  1.6133819057208733e+01 -1.7838745168755932e-01 9.1895976717910638e-02  1.7000000000000007e+01 -1.7838745321143212e-01 9.1895976908564117e-02  0.0000000000000000e+00 0.0000000000000000e+00 0.0000000000000000e+00  5.6827980408750123e-01 -3.0747501331034954e-01 9.4112033379158383e-02  1.4142736266940967e+00 -3.5428479408925573e-01 9.1792210571830860e-02  2.2777727447550005e+00 -3.5717527834877344e-01 9.1922942785762601e-02  3.1421071012645583e+00 -3.5712220412054774e-01 9.2085829587150322e-02  4.0076728804668509e+00 -3.5704598216049077e-01 9.2113985518763028e-02  4.8736404695787003e+00 -3.5702314227891496e-01 9.2123081681766888e-02  5.7397320468378314e+00 -3.5702165271252018e-01 9.2126623225813165e-02  6.6058721070499917e+00 -3.5702399298993376e-01 9.2128109832950139e-02  7.4720325534260592e+00 -3.5702619767924382e-01 9.2128717282857653e-02  8.3382029120992520e+00 -3.5702767025980520e-01 9.2129006455611812e-02  9.2043781939853559e+00 -3.5702855447459392e-01 9.2129160464211254e-02  1.0070556062258364e+01 -3.5702906360415532e-01 9.2129242782275203e-02  1.0936735328662639e+01 -3.5702935052306140e-01 9.2129287516887412e-02  1.1802915358030432e+01 -3.5702951063379229e-01 9.2129312215539216e-02  1.2669095806366581e+01 -3.5702959952321972e-01 9.2129325886638580e-02  1.3535276485373581e+01 -3.5702964864529968e-01 9.2129333437618324e-02  1.4401457291062146e+01 -3.5702967555337473e-01 9.2129337578487999e-02  1.5267638165393095e+01 -3.5702968990821948e-01 9.2129339791334378e-02  1.6133819075139737e+01 -3.5702969687640201e-01 9.2129340877958807e-02  1.7000000000000007e+01 -3.5702969895913789e-01 9.2129341198517206e-02  0.0000000000000000e+00 0.0000000000000000e+00 0.0000000000000000e+00  5.9787294184406004e-01 -4.7485282880562824e-01 8.5943920246742009e-02  1.4224285456302823e+00 -5.3039069868737887e-01 9.0480473451239843e-02  2.2805309896147592e+00 -5.3539515180080921e-01 9.2274371592878865e-02  3.1428980796027406e+00 -5.3564475914042287e-01 9.2313415848164271e-02  4.0078815680167930e+00 -5.3563925177147853e-01 9.2335015973205398e-02  4.8737132184902130e+00 -5.3564894000539076e-01 9.2355416986208097e-02  5.7397595775318155e+00 -5.3565723562001322e-01 9.2359825578256935e-02  6.6058832141097916e+00 -5.3566309043777793e-01 9.2361373357357904e-02  7.4720376275891978e+00 -5.3566688594630740e-01 9.2362009463668238e-02  8.3382054268463985e+00 -5.3566910445951033e-01 9.2362335162281539e-02  9.2043795030772220e+00 -5.3567036681751057e-01 9.2362504163943968e-02  1.0070556762723898e+01 -5.3567107466021235e-01 9.2362593929572662e-02  1.0936735709678095e+01 -5.3567146877732463e-01 9.2362644141697509e-02  1.1802915567022177e+01 -5.3567168746796145e-01 9.2362672306420063e-02  1.2669095921323024e+01 -5.3567180851851970e-01 9.2362688034144241e-02  1.3535276548472686e+01 -5.3567187531933447e-01 9.2362696797212956e-02  1.4401457325250231e+01 -5.3567191188862096e-01 9.2362701636605843e-02  1.5267638183039784e+01 -5.3567193139246017e-01 9.2362704235133083e-02  1.6133819082610806e+01 -5.3567194086570047e-01 9.2362705501201001e-02  1.7000000000000007e+01 -5.3567194365803095e-01 9.2362705896663830e-02  0.0000000000000000e+00 0.0000000000000000e+00 0.0000000000000000e+00  5.8136620121290028e-01 4.7487429705417383e-01 3.0710407245882903e-02  1.4231873640328692e+00 5.3203313665362095e-01 3.1248810711648471e-02  2.2789051563096527e+00 5.3622524713524744e-01 3.1402353223299782e-02  3.1418131473765465e+00 5.3628275736805320e-01 3.1394230220190979e-02  4.0073293817049249e+00 5.3618879581230006e-01 3.1414012435006695e-02  4.8734052269706192e+00 5.3614370475582873e-01 3.1417049336244160e-02  5.7395882710729751e+00 5.3612343186178968e-01 3.1416169612181792e-02  6.6057882580880385e+00 5.3611390021025884e-01 3.1415702916349049e-02  7.4719851450789019e+00 5.3610915841631945e-01 3.1415445642114598e-02  8.3381763799953266e+00 5.3610668539938988e-01 3.1415285683844704e-02  9.2043634215288410e+00 5.3610535733487785e-01 3.1415198228345792e-02  1.0070547862470850e+01 5.3610463342363779e-01 3.1415152771280763e-02  1.0936730784199044e+01 5.3610423588974765e-01 3.1415128894985218e-02  1.1802912842130697e+01 5.3610401676453601e-01 3.1415116239411678e-02  1.2669094415831642e+01 5.3610389582250439e-01 3.1415109504532940e-02  1.3535275720249226e+01 5.3610382916332178e-01 3.1415105904320652e-02  1.4401456876035803e+01 5.3610379269151398e-01 3.1415103980526042e-02  1.5267637951071602e+01 5.3610377324910818e-01 3.1415102972799980e-02  1.6133818984340436e+01 5.3610376383981073e-01 3.1415102490532427e-02  1.7000000000000007e+01 5.3610376102918000e-01 3.1415102331652699e-02  0.0000000000000000e+00 0.0000000000000000e+00 0.0000000000000000e+00  5.6182466672484965e-01 3.0744457570562567e-01 3.2433504682352905e-02  1.4147433733585792e+00 3.5493000926620744e-01 3.1572078191143799e-02  2.2764052901923542e+00 3.5787083610426756e-01 3.1637745729082060e-02  3.1412072659114783e+00 3.5770597068426652e-01 3.1653803878229358e-02  4.0072064189449925e+00 3.5755908563353100e-01 3.1649306179350883e-02  4.8733825732410034e+00 3.5750073842658692e-01 3.1649359069540681e-02  5.7395877613111645e+00 3.5747870760396550e-01 3.1649180607754644e-02  6.6057917009915199e+00 3.5746975877110282e-01 3.1648874291204686e-02  7.4719880990603205e+00 3.5746571604069627e-01 3.1648687368088471e-02  8.3381782923019578e+00 3.5746373267514314e-01 3.1648587568164653e-02  9.2043645572228456e+00 3.5746270670448888e-01 3.1648532746093638e-02  1.0070548513314613e+01 3.5746215886153176e-01 3.1648502626296572e-02  1.0936731150632257e+01 3.5746186115641571e-01 3.1648486258776289e-02  1.1802913046562164e+01 3.5746169793312171e-01 3.1648477364486872e-02  1.2669094529256359e+01 3.5746160809278338e-01 3.1648472514809241e-02  1.3535275782780726e+01 3.5746155864412227e-01 3.1648469868888404e-02  1.4401456909985582e+01 3.5746153160680300e-01 3.1648468433378214e-02  1.5267637968608410e+01 3.5746151719862235e-01 3.1648467673249178e-02  1.6133818991769783e+01 3.5746151022199180e-01 3.1648467310266097e-02  1.7000000000000007e+01 3.5746150815260574e-01 3.1648467202461027e-02  0.0000000000000000e+00 0.0000000000000000e+00 0.0000000000000000e+00  5.4976811955987837e-01 1.5076128136117076e-01 3.3197003673695644e-02  1.4022088876113694e+00 1.7756412108809011e-01 3.2060002742515553e-02  2.2723126238864526e+00 1.7921309517648470e-01 3.1922338392100180e-02  3.1401190509647114e+00 1.7901967712060743e-01 3.1894819700295805e-02  4.0069643875320518e+00 1.7889569294767246e-01 3.1885498387430121e-02  4.8733387510982595e+00 1.7884913265948560e-01 3.1882689018695114e-02  5.7395903845087028e+00 1.7883228606487003e-01 3.1882168289883772e-02  6.6058011112507735e+00 1.7882546547737280e-01 3.1881988675325899e-02  7.4719954629045597e+00 1.7882240004026406e-01 3.1881909757964302e-02  8.3381829552259905e+00 1.7882091194027977e-01 3.1881875680475312e-02  9.2043673053817585e+00 1.7882014678748978e-01 3.1881857394094569e-02  1.0070550081933529e+01 1.7881973928669634e-01 3.1881846577818056e-02  1.0936732031918215e+01 1.7881951817059197e-01 3.1881840238235065e-02  1.1802913537749845e+01 1.7881939705111827e-01 3.1881836552371381e-02  1.2669094801657982e+01 1.7881933041865664e-01 3.1881834424376712e-02  1.3535275932921756e+01 1.7881929375284447e-01 3.1881833210725630e-02  1.4401456991492466e+01 1.7881927370733347e-01 3.1881832530521244e-02  1.5267638010712339e+01 1.7881926302574813e-01 3.1881832162780926e-02  1.6133819009593910e+01 1.7881925785162642e-01 3.1881831988179822e-02  1.7000000000000007e+01 1.7881925631238066e-01 3.1881831934460793e-02  0.0000000000000000e+00 0.0000000000000000e+00 0.0000000000000000e+00  5.4631693157523564e-01 1.0682426947222778e-03 3.3449231873059454e-02  1.3965987575418257e+00 3.1211124743822991e-04 3.2374621043915100e-02  2.2708245001473535e+00 2.5977915941497977e-04 3.2181943287030529e-02  3.1397646298979285e+00 2.1926537703864435e-04 3.2122314601796605e-02  4.0069172114989664e+00 2.0267920256651631e-04 3.2117594156924091e-02  4.8733595451996834e+00 1.9144654052569724e-04 3.2115381293220169e-02  5.7396169534741617e+00 1.8510438262753727e-04 3.2115051054177376e-02  6.6058200005475465e+00 1.8150553973221594e-04 3.2115084258126793e-02  7.4720069954987576e+00 1.7949422046070434e-04 3.2115134168611476e-02  8.3381896526775137e+00 1.7838157210618263e-04 3.2115165995267571e-02  9.2043711047635171e+00 1.7776465192966969e-04 3.2115182165617706e-02  1.0070552210157580e+01 1.7742286242343851e-04 3.2115189957229000e-02  1.0936733216630355e+01 1.7723363435138064e-04 3.2115193581675798e-02  1.1802914195104684e+01 1.7712891402012199e-04 3.2115195228823577e-02  1.2669095165396266e+01 1.7707100563576559e-04 3.2115195978142420e-02  1.3535276133179170e+01 1.7703905916839960e-04 3.2115196323098713e-02  1.4401457100148848e+01 1.7702157172647942e-04 3.2115196484084729e-02  1.5267638066829775e+01 1.7701224649432866e-04 3.2115196560637577e-02  1.6133819033371331e+01 1.7700772392801621e-04 3.2115196598276281e-02  1.7000000000000007e+01 1.7700637618230642e-04 3.2115196607536839e-02  0.0000000000000000e+00 0.0000000000000000e+00 0.0000000000000000e+00  5.5159052916692219e-01 -1.4846469475838389e-01 3.3483835188823668e-02  1.4018454305326338e+00 -1.7698801669390216e-01 3.2584388797669533e-02  2.2731963761929208e+00 -1.7869420245583356e-01 3.2362926990491911e-02  3.1406086411667622e+00 -1.7855502465031284e-01 3.2339225353158717e-02  4.0072197666549210e+00 -1.7848000971444133e-01 3.2346825522315117e-02  4.8734831674800683e+00 -1.7846164453116525e-01 3.2347508741342033e-02  5.7396721759483853e+00 -1.7845962248356811e-01 3.2347906649669793e-02  6.6058468428333921e+00 -1.7846109876602217e-01 3.2348241949350223e-02  7.4720207548917505e+00 -1.7846266588232557e-01 3.2348399525379205e-02  8.3381969849971842e+00 -1.7846373900211929e-01 3.2348477488231622e-02  9.2043750839283458e+00 -1.7846439117105009e-01 3.2348517382787600e-02  1.0070554389139719e+01 -1.7846476837330855e-01 3.2348538276465610e-02  1.0936734416068180e+01 -1.7846498162801031e-01 3.2348549183093371e-02  1.1802914856887101e+01 -1.7846510086517584e-01 3.2348554935518407e-02  1.2669095530530493e+01 -1.7846516713765864e-01 3.2348558008669918e-02  1.3535276333913961e+01 -1.7846520378990488e-01 3.2348559659637260e-02  1.4401457208988182e+01 -1.7846522387802388e-01 3.2348560545576187e-02  1.5267638123027382e+01 -1.7846523459799885e-01 3.2348561012446223e-02  1.6133819057188123e+01 -1.7846523980079981e-01 3.2348561239235185e-02  1.7000000000000007e+01 -1.7846524135394595e-01 3.2348561304870870e-02  0.0000000000000000e+00 0.0000000000000000e+00 0.0000000000000000e+00  5.7051789642647410e-01 -3.0653846069854779e-01 3.3645941946958441e-02  1.4144794668694627e+00 -3.5410405511550380e-01 3.2464640927091289e-02  2.2778092945002291e+00 -3.5723165440299287e-01 3.2499761618705839e-02  3.1420885744553297e+00 -3.5719277977440861e-01 3.2568709288893827e-02  4.0076721176952832e+00 -3.5712080377635891e-01 3.2577429991927899e-02  4.8736400513437630e+00 -3.5710043650379125e-01 3.2580157603938564e-02  5.7397319768478665e+00 -3.5709928842354877e-01 3.2581155822969901e-02  6.6058720683694139e+00 -3.5710172945433866e-01 3.2581578520140826e-02  7.4720325252885242e+00 -3.5710396090046143e-01 3.2581744636437093e-02  8.3382029032416849e+00 -3.5710544450183163e-01 3.2581825633282963e-02  9.2043781893038297e+00 -3.5710633486350690e-01 3.2581870883535279e-02  1.0070556059461556e+01 -3.5710684714387086e-01 3.2581895524558355e-02  1.0936735327135954e+01 -3.5710713599428895e-01 3.2581909196684813e-02  1.1802915357196113e+01 -3.5710729729581114e-01 3.2581916893247201e-02  1.2669095805901534e+01 -3.5710738689202376e-01 3.2581921207464580e-02  1.3535276485116446e+01 -3.5710743642645487e-01 3.2581923611844463e-02  1.4401457290923993e+01 -3.5710746357022022e-01 3.2581924939271402e-02  1.5267638165325446e+01 -3.5710747805453963e-01 3.2581925651806551e-02  1.6133819075116936e+01 -3.5710748508550028e-01 3.2581926002167340e-02  1.7000000000000007e+01 -3.5710748718338364e-01 3.2581926108279348e-02  0.0000000000000000e+00 0.0000000000000000e+00 0.0000000000000000e+00  5.9708560919129106e-01 -4.7352569309352227e-01 3.0245958511888472e-02  1.4231003435314564e+00 -5.3012340161366589e-01 3.2260947571922313e-02  2.2805469825780635e+00 -5.3555679968425851e-01 3.2870402333310775e-02  3.1428482484641873e+00 -5.3570961141440498e-01 3.2801586177408054e-02  4.0078821107461478e+00 -5.3571446788439525e-01 3.2810607319221717e-02  4.8737138817614643e+00 -5.3572710141151958e-01 3.2814984666748578e-02  5.7397593132456022e+00 -5.3573499542852365e-01 3.2814919924363556e-02  6.6058831596034997e+00 -5.3574089670878411e-01 3.2815123660508413e-02  7.4720376046061538e+00 -5.3574466553455824