<?xml version="1.0"?>
<VTKFile type="UnstructuredGrid"  version="0.1"  >
<UnstructuredGrid>
<Piece  NumberOfPoints="882" NumberOfCells="3600">
<Points>
<DataArray  type="Float64"  NumberOfComponents="3"  format="ascii">0 0 0  0.5 0 0  1 0 0  1.5 0 0  2 0 0  2.5 0 0  3 0 0  3.5 0 0  4 0 0  4.5 0 0  5 0 0  5.5 0 0  6 0 0  6.5 0 0  7 0 0  7.5 0 0  8 0 0  8.5 0 0  9 0 0  9.5 0 0  10 0 0  0 0.5 0  0.5 0.5 0  1 0.5 0  1.5 0.5 0  2 0.5 0  2.5 0.5 0  3 0.5 0  3.5 0.5 0  4 0.5 0  4.5 0.5 0  5 0.5 0  5.5 0.5 0  6 0.5 0  6.5 0.5 0  7 0.5 0  7.5 0.5 0  8 0.5 0  8.5 0.5 0  9 0.5 0  9.5 0.5 0  10 0.5 0  0 1 0  0.5 1 0  1 1 0  1.5 1 0  2 1 0  2.5 1 0  3 1 0  3.5 1 0  4 1 0  4.5 1 0  5 1 0  5.5 1 0  6 1 0  6.5 1 0  7 1 0  7.5 1 0  8 1 0  8.5 1 0  9 1 0  9.5 1 0  10 1 0  0 1.5 0  0.5 1.5 0  1 1.5 0  1.5 1.5 0  2 1.5 0  2.5 1.5 0  3 1.5 0  3.5 1.5 0  4 1.5 0  4.5 1.5 0  5 1.5 0  5.5 1.5 0  6 1.5 0  6.5 1.5 0  7 1.5 0  7.5 1.5 0  8 1.5 0  8.5 1.5 0  9 1.5 0  9.5 1.5 0  10 1.5 0  0 2 0  0.5 2 0  1 2 0  1.5 2 0  2 2 0  2.5 2 0  3 2 0  3.5 2 0  4 2 0  4.5 2 0  5 2 0  5.5 2 0  6 2 0  6.5 2 0  7 2 0  7.5 2 0  8 2 0  8.5 2 0  9 2 0  9.5 2 0  10 2 0  0 2.5 0  0.5 2.5 0  1 2.5 0  1.5 2.5 0  2 2.5 0  2.5 2.5 0  3 2.5 0  3.5 2.5 0  4 2.5 0  4.5 2.5 0  5 2.5 0  5.5 2.5 0  6 2.5 0  6.5 2.5 0  7 2.5 0  7.5 2.5 0  8 2.5 0  8.5 2.5 0  9 2.5 0  9.5 2.5 0  10 2.5 0  0 3 0  0.5 3 0  1 3 0  1.5 3 0  2 3 0  2.5 3 0  3 3 0  3.5 3 0  4 3 0  4.5 3 0  5 3 0  5.5 3 0  6 3 0  6.5 3 0  7 3 0  7.5 3 0  8 3 0  8.5 3 0  9 3 0  9.5 3 0  10 3 0  0 0 0.1  0.5 0 0.1  1 0 0.1  1.5 0 0.1  2 0 0.1  2.5 0 0.1  3 0 0.1  3.5 0 0.1  4 0 0.1  4.5 0 0.1  5 0 0.1  5.5 0 0.1  6 0 0.1  6.5 0 0.1  7 0 0.1  7.5 0 0.1  8 0 0.1  8.5 0 0.1  9 0 0.1  9.5 0 0.1  10 0 0.1  0 0.5 0.1  0.5 0.5 0.1  1 0.5 0.1  1.5 0.5 0.1  2 0.5 0.1  2.5 0.5 0.1  3 0.5 0.1  3.5 0.5 0.1  4 0.5 0.1  4.5 0.5 0.1  5 0.5 0.1  5.5 0.5 0.1  6 0.5 0.1  6.5 0.5 0.1  7 0.5 0.1  7.5 0.5 0.1  8 0.5 0.1  8.5 0.5 0.1  9 0.5 0.1  9.5 0.5 0.1  10 0.5 0.1  0 1 0.1  0.5 1 0.1  1 1 0.1  1.5 1 0.1  2 1 0.1  2.5 1 0.1  3 1 0.1  3.5 1 0.1  4 1 0.1  4.5 1 0.1  5 1 0.1  5.5 1 0.1  6 1 0.1  6.5 1 0.1  7 1 0.1  7.5 1 0.1  8 1 0.1  8.5 1 0.1  9 1 0.1  9.5 1 0.1  10 1 0.1  0 1.5 0.1  0.5 1.5 0.1  1 1.5 0.1  1.5 1.5 0.1  2 1.5 0.1  2.5 1.5 0.1  3 1.5 0.1  3.5 1.5 0.1  4 1.5 0.1  4.5 1.5 0.1  5 1.5 0.1  5.5 1.5 0.1  6 1.5 0.1  6.5 1.5 0.1  7 1.5 0.1  7.5 1.5 0.1  8 1.5 0.1  8.5 1.5 0.1  9 1.5 0.1  9.5 1.5 0.1  10 1.5 0.1  0 2 0.1  0.5 2 0.1  1 2 0.1  1.5 2 0.1  2 2 0.1  2.5 2 0.1  3 2 0.1  3.5 2 0.1  4 2 0.1  4.5 2 0.1  5 2 0.1  5.5 2 0.1  6 2 0.1  6.5 2 0.1  7 2 0.1  7.5 2 0.1  8 2 0.1  8.5 2 0.1  9 2 0.1  9.5 2 0.1  10 2 0.1  0 2.5 0.1  0.5 2.5 0.1  1 2.5 0.1  1.5 2.5 0.1  2 2.5 0.1  2.5 2.5 0.1  3 2.5 0.1  3.5 2.5 0.1  4 2.5 0.1  4.5 2.5 0.1  5 2.5 0.1  5.5 2.5 0.1  6 2.5 0.1  6.5 2.5 0.1  7 2.5 0.1  7.5 2.5 0.1  8 2.5 0.1  8.5 2.5 0.1  9 2.5 0.1  9.5 2.5 0.1  10 2.5 0.1  0 3 0.1  0.5 3 0.1  1 3 0.1  1.5 3 0.1  2 3 0.1  2.5 3 0.1  3 3 0.1  3.5 3 0.1  4 3 0.1  4.5 3 0.1  5 3 0.1  5.5 3 0.1  6 3 0.1  6.5 3 0.1  7 3 0.1  7.5 3 0.1  8 3 0.1  8.5 3 0.1  9 3 0.1  9.5 3 0.1  10 3 0.1  0 0 0.2  0.5 0 0.2  1 0 0.2  1.5 0 0.2  2 0 0.2  2.5 0 0.2  3 0 0.2  3.5 0 0.2  4 0 0.2  4.5 0 0.2  5 0 0.2  5.5 0 0.2  6 0 0.2  6.5 0 0.2  7 0 0.2  7.5 0 0.2  8 0 0.2  8.5 0 0.2  9 0 0.2  9.5 0 0.2  10 0 0.2  0 0.5 0.2  0.5 0.5 0.2  1 0.5 0.2  1.5 0.5 0.2  2 0.5 0.2  2.5 0.5 0.2  3 0.5 0.2  3.5 0.5 0.2  4 0.5 0.2  4.5 0.5 0.2  5 0.5 0.2  5.5 0.5 0.2  6 0.5 0.2  6.5 0.5 0.2  7 0.5 0.2  7.5 0.5 0.2  8 0.5 0.2  8.5 0.5 0.2  9 0.5 0.2  9.5 0.5 0.2  10 0.5 0.2  0 1 0.2  0.5 1 0.2  1 1 0.2  1.5 1 0.2  2 1 0.2  2.5 1 0.2  3 1 0.2  3.5 1 0.2  4 1 0.2  4.5 1 0.2  5 1 0.2  5.5 1 0.2  6 1 0.2  6.5 1 0.2  7 1 0.2  7.5 1 0.2  8 1 0.2  8.5 1 0.2  9 1 0.2  9.5 1 0.2  10 1 0.2  0 1.5 0.2  0.5 1.5 0.2  1 1.5 0.2  1.5 1.5 0.2  2 1.5 0.2  2.5 1.5 0.2  3 1.5 0.2  3.5 1.5 0.2  4 1.5 0.2  4.5 1.5 0.2  5 1.5 0.2  5.5 1.5 0.2  6 1.5 0.2  6.5 1.5 0.2  7 1.5 0.2  7.5 1.5 0.2  8 1.5 0.2  8.5 1.5 0.2  9 1.5 0.2  9.5 1.5 0.2  10 1.5 0.2  0 2 0.2  0.5 2 0.2  1 2 0.2  1.5 2 0.2  2 2 0.2  2.5 2 0.2  3 2 0.2  3.5 2 0.2  4 2 0.2  4.5 2 0.2  5 2 0.2  5.5 2 0.2  6 2 0.2  6.5 2 0.2  7 2 0.2  7.5 2 0.2  8 2 0.2  8.5 2 0.2  9 2 0.2  9.5 2 0.2  10 2 0.2  0 2.5 0.2  0.5 2.5 0.2  1 2.5 0.2  1.5 2.5 0.2  2 2.5 0.2  2.5 2.5 0.2  3 2.5 0.2  3.5 2.5 0.2  4 2.5 0.2  4.5 2.5 0.2  5 2.5 0.2  5.5 2.5 0.2  6 2.5 0.2  6.5 2.5 0.2  7 2.5 0.2  7.5 2.5 0.2  8 2.5 0.2  8.5 2.5 0.2  9 2.5 0.2  9.5 2.5 0.2  10 2.5 0.2  0 3 0.2  0.5 3 0.2  1 3 0.2  1.5 3 0.2  2 3 0.2  2.5 3 0.2  3 3 0.2  3.5 3 0.2  4 3 0.2  4.5 3 0.2  5 3 0.2  5.5 3 0.2  6 3 0.2  6.5 3 0.2  7 3 0.2  7.5 3 0.2  8 3 0.2  8.5 3 0.2  9 3 0.2  9.5 3 0.2  10 3 0.2  0 0 0.3  0.5 0 0.3  1 0 0.3  1.5 0 0.3  2 0 0.3  2.5 0 0.3  3 0 0.3  3.5 0 0.3  4 0 0.3  4.5 0 0.3  5 0 0.3  5.5 0 0.3  6 0 0.3  6.5 0 0.3  7 0 0.3  7.5 0 0.3  8 0 0.3  8.5 0 0.3  9 0 0.3  9.5 0 0.3  10 0 0.3  0 0.5 0.3  0.5 0.5 0.3  1 0.5 0.3  1.5 0.5 0.3  2 0.5 0.3  2.5 0.5 0.3  3 0.5 0.3  3.5 0.5 0.3  4 0.5 0.3  4.5 0.5 0.3  5 0.5 0.3  5.5 0.5 0.3  6 0.5 0.3  6.5 0.5 0.3  7 0.5 0.3  7.5 0.5 0.3  8 0.5 0.3  8.5 0.5 0.3  9 0.5 0.3  9.5 0.5 0.3  10 0.5 0.3  0 1 0.3  0.5 1 0.3  1 1 0.3  1.5 1 0.3  2 1 0.3  2.5 1 0.3  3 1 0.3  3.5 1 0.3  4 1 0.3  4.5 1 0.3  5 1 0.3  5.5 1 0.3  6 1 0.3  6.5 1 0.3  7 1 0.3  7.5 1 0.3  8 1 0.3  8.5 1 0.3  9 1 0.3  9.5 1 0.3  10 1 0.3  0 1.5 0.3  0.5 1.5 0.3  1 1.5 0.3  1.5 1.5 0.3  2 1.5 0.3  2.5 1.5 0.3  3 1.5 0.3  3.5 1.5 0.3  4 1.5 0.3  4.5 1.5 0.3  5 1.5 0.3  5.5 1.5 0.3  6 1.5 0.3  6.5 1.5 0.3  7 1.5 0.3  7.5 1.5 0.3  8 1.5 0.3  8.5 1.5 0.3  9 1.5 0.3  9.5 1.5 0.3  10 1.5 0.3  0 2 0.3  0.5 2 0.3  1 2 0.3  1.5 2 0.3  2 2 0.3  2.5 2 0.3  3 2 0.3  3.5 2 0.3  4 2 0.3  4.5 2 0.3  5 2 0.3  5.5 2 0.3  6 2 0.3  6.5 2 0.3  7 2 0.3  7.5 2 0.3  8 2 0.3  8.5 2 0.3  9 2 0.3  9.5 2 0.3  10 2 0.3  0 2.5 0.3  0.5 2.5 0.3  1 2.5 0.3  1.5 2.5 0.3  2 2.5 0.3  2.5 2.5 0.3  3 2.5 0.3  3.5 2.5 0.3  4 2.5 0.3  4.5 2.5 0.3  5 2.5 0.3  5.5 2.5 0.3  6 2.5 0.3  6.5 2.5 0.3  7 2.5 0.3  7.5 2.5 0.3  8 2.5 0.3  8.5 2.5 0.3  9 2.5 0.3  9.5 2.5 0.3  10 2.5 0.3  0 3 0.3  0.5 3 0.3  1 3 0.3  1.5 3 0.3  2 3 0.3  2.5 3 0.3  3 3 0.3  3.5 3 0.3  4 3 0.3  4.5 3 0.3  5 3 0.3  5.5 3 0.3  6 3 0.3  6.5 3 0.3  7 3 0.3  7.5 3 0.3  8 3 0.3  8.5 3 0.3  9 3 0.3  9.5 3 0.3  10 3 0.3  0 0 0.4  0.5 0 0.4  1 0 0.4  1.5 0 0.4  2 0 0.4  2.5 0 0.4  3 0 0.4  3.5 0 0.4  4 0 0.4  4.5 0 0.4  5 0 0.4  5.5 0 0.4  6 0 0.4  6.5 0 0.4  7 0 0.4  7.5 0 0.4  8 0 0.4  8.5 0 0.4  9 0 0.4  9.5 0 0.4  10 0 0.4  0 0.5 0.4  0.5 0.5 0.4  1 0.5 0.4  1.5 0.5 0.4  2 0.5 0.4  2.5 0.5 0.4  3 0.5 0.4  3.5 0.5 0.4  4 0.5 0.4  4.5 0.5 0.4  5 0.5 0.4  5.5 0.5 0.4  6 0.5 0.4  6.5 0.5 0.4  7 0.5 0.4  7.5 0.5 0.4  8 0.5 0.4  8.5 0.5 0.4  9 0.5 0.4  9.5 0.5 0.4  10 0.5 0.4  0 1 0.4  0.5 1 0.4  1 1 0.4  1.5 1 0.4  2 1 0.4  2.5 1 0.4  3 1 0.4  3.5 1 0.4  4 1 0.4  4.5 1 0.4  5 1 0.4  5.5 1 0.4  6 1 0.4  6.5 1 0.4  7 1 0.4  7.5 1 0.4  8 1 0.4  8.5 1 0.4  9 1 0.4  9.5 1 0.4  10 1 0.4  0 1.5 0.4  0.5 1.5 0.4  1 1.5 0.4  1.5 1.5 0.4  2 1.5 0.4  2.5 1.5 0.4  3 1.5 0.4  3.5 1.5 0.4  4 1.5 0.4  4.5 1.5 0.4  5 1.5 0.4  5.5 1.5 0.4  6 1.5 0.4  6.5 1.5 0.4  7 1.5 0.4  7.5 1.5 0.4  8 1.5 0.4  8.5 1.5 0.4  9 1.5 0.4  9.5 1.5 0.4  10 1.5 0.4  0 2 0.4  0.5 2 0.4  1 2 0.4  1.5 2 0.4  2 2 0.4  2.5 2 0.4  3 2 0.4  3.5 2 0.4  4 2 0.4  4.5 2 0.4  5 2 0.4  5.5 2 0.4  6 2 0.4  6.5 2 0.4  7 2 0.4  7.5 2 0.4  8 2 0.4  8.5 2 0.4  9 2 0.4  9.5 2 0.4  10 2 0.4  0 2.5 0.4  0.5 2.5 0.4  1 2.5 0.4  1.5 2.5 0.4  2 2.5 0.4  2.5 2.5 0.4  3 2.5 0.4  3.5 2.5 0.4  4 2.5 0.4  4.5 2.5 0.4  5 2.5 0.4  5.5 2.5 0.4  6 2.5 0.4  6.5 2.5 0.4  7 2.5 0.4  7.5 2.5 0.4  8 2.5 0.4  8.5 2.5 0.4  9 2.5 0.4  9.5 2.5 0.4  10 2.5 0.4  0 3 0.4  0.5 3 0.4  1 3 0.4  1.5 3 0.4  2 3 0.4  2.5 3 0.4  3 3 0.4  3.5 3 0.4  4 3 0.4  4.5 3 0.4  5 3 0.4  5.5 3 0.4  6 3 0.4  6.5 3 0.4  7 3 0.4  7.5 3 0.4  8 3 0.4  8.5 3 0.4  9 3 0.4  9.5 3 0.4  10 3 0.4  0 0 0.5  0.5 0 0.5  1 0 0.5  1.5 0 0.5  2 0 0.5  2.5 0 0.5  3 0 0.5  3.5 0 0.5  4 0 0.5  4.5 0 0.5  5 0 0.5  5.5 0 0.5  6 0 0.5  6.5 0 0.5  7 0 0.5  7.5 0 0.5  8 0 0.5  8.5 0 0.5  9 0 0.5  9.5 0 0.5  10 0 0.5  0 0.5 0.5  0.5 0.5 0.5  1 0.5 0.5  1.5 0.5 0.5  2 0.5 0.5  2.5 0.5 0.5  3 0.5 0.5  3.5 0.5 0.5  4 0.5 0.5  4.5 0.5 0.5  5 0.5 0.5  5.5 0.5 0.5  6 0.5 0.5  6.5 0.5 0.5  7 0.5 0.5  7.5 0.5 0.5  8 0.5 0.5  8.5 0.5 0.5  9 0.5 0.5  9.5 0.5 0.5  10 0.5 0.5  0 1 0.5  0.5 1 0.5  1 1 0.5  1.5 1 0.5  2 1 0.5  2.5 1 0.5  3 1 0.5  3.5 1 0.5  4 1 0.5  4.5 1 0.5  5 1 0.5  5.5 1 0.5  6 1 0.5  6.5 1 0.5  7 1 0.5  7.5 1 0.5  8 1 0.5  8.5 1 0.5  9 1 0.5  9.5 1 0.5  10 1 0.5  0 1.5 0.5  0.5 1.5 0.5  1 1.5 0.5  1.5 1.5 0.5  2 1.5 0.5  2.5 1.5 0.5  3 1.5 0.5  3.5 1.5 0.5  4 1.5 0.5  4.5 1.5 0.5  5 1.5 0.5  5.5 1.5 0.5  6 1.5 0.5  6.5 1.5 0.5  7 1.5 0.5  7.5 1.5 0.5  8 1.5 0.5  8.5 1.5 0.5  9 1.5 0.5  9.5 1.5 0.5  10 1.5 0.5  0 2 0.5  0.5 2 0.5  1 2 0.5  1.5 2 0.5  2 2 0.5  2.5 2 0.5  3 2 0.5  3.5 2 0.5  4 2 0.5  4.5 2 0.5  5 2 0.5  5.5 2 0.5  6 2 0.5  6.5 2 0.5  7 2 0.5  7.5 2 0.5  8 2 0.5  8.5 2 0.5  9 2 0.5  9.5 2 0.5  10 2 0.5  0 2.5 0.5  0.5 2.5 0.5  1 2.5 0.5  1.5 2.5 0.5  2 2.5 0.5  2.5 2.5 0.5  3 2.5 0.5  3.5 2.5 0.5  4 2.5 0.5  4.5 2.5 0.5  5 2.5 0.5  5.5 2.5 0.5  6 2.5 0.5  6.5 2.5 0.5  7 2.5 0.5  7.5 2.5 0.5  8 2.5 0.5  8.5 2.5 0.5  9 2.5 0.5  9.5 2.5 0.5  10 2.5 0.5  0 3 0.5  0.5 3 0.5  1 3 0.5  1.5 3 0.5  2 3 0.5  2.5 3 0.5  3 3 0.5  3.5 3 0.5  4 3 0.5  4.5 3 0.5  5 3 0.5  5.5 3 0.5  6 3 0.5  6.5 3 0.5  7 3 0.5  7.5 3 0.5  8 3 0.5  8.5 3 0.5  9 3 0.5  9.5 3 0.5  10 3 0.5  </DataArray>
</Points>
<Cells>
[...]
<PointData  Vectors="f_7-0"> 
<DataArray  type="Float64"  Name="f_7-0"  NumberOfComponents="3" format="ascii">0.0000000000000000e+00 0.0000000000000000e+00 0.0000000000000000e+00  4.3655709394350338e-02 3.5764940755371850e-02 9.8994754740039728e-03  8.4992666211171214e-02 5.2352672835247388e-02 9.1579035540026773e-03  1.2357504597893117e-01 6.0416214957165183e-02 9.4290078860853662e-03  1.6537421162201910e-01 6.3143230327094124e-02 9.8969532661389841e-03  2.0918085773109069e-01 6.3783087375427150e-02 1.0202853744198501e-02  2.5430210708056272e-01 6.3812266919307137e-02 1.0362327177240768e-02  3.0004341225142594e-01 6.3775305520082690e-02 1.0431789325072063e-02  3.4605114302811885e-01 6.3795817860349144e-02 1.0457861813653933e-02  3.9215768208594837e-01 6.3870267082936347e-02 1.0465861203725243e-02  4.3829721641458408e-01 6.3970129050462080e-02 1.0467703666967448e-02  4.8444764195510553e-01 6.4073207197970800e-02 1.0468075809173720e-02  5.3060347982785516e-01 6.4167561723215125e-02 1.0468447361786650e-02  5.7676413460565812e-01 6.4248541977142151e-02 1.0469068235275247e-02  6.2292977506952540e-01 6.4315389013337651e-02 1.0469837848954893e-02  6.6910024094055176e-01 6.4368990763273889e-02 1.0470617157080010e-02  7.1527497778409321e-01 6.4410694432978213e-02 1.0471310615926552e-02  7.6145319984953796e-01 6.4441779147606404e-02 1.0471868202517881e-02  8.0763403103519138e-01 6.4463267447657652e-02 1.0472270049825046e-02  8.5381659298907386e-01 6.4475874168481662e-02 1.0472508198780827e-02  9.0000000000000013e-01 6.4480042331712131e-02 1.0472590201256998e-02  0.0000000000000000e+00 0.0000000000000000e+00 0.0000000000000000e+00  2.9656315281273687e-02 1.7846937760093152e-02 1.0528728686799903e-02  7.4223340426874368e-02 3.4923070336940587e-02 1.0642358759352105e-02  1.1771661801399370e-01 4.2117950976774114e-02 1.0295029314269418e-02  1.6256560662296526e-01 4.4089068065021990e-02 1.0322220665151052e-02  2.0802084136623863e-01 4.4261021161042191e-02 1.0358809084816548e-02  2.5383537929471428e-01 4.4064404139873892e-02 1.0413184655431377e-02  2.9983047910631500e-01 4.3927900477289387e-02 1.0448225220613542e-02  3.4591604905152312e-01 4.3909633760879814e-02 1.0468270029334481e-02  3.9204425025091755e-01 4.3970098173511322e-02 1.0478236432121485e-02  4.3819316800190100e-01 4.4064791481659378e-02 1.0483016187131817e-02  4.8435338065452160e-01 4.4165212138541653e-02 1.0485380594604523e-02  5.3052104051794047e-01 4.4257414808955751e-02 1.0486730771816690e-02  5.7669444039885021e-01 4.4336327142468566e-02 1.0487667040271613e-02  6.2287258929867539e-01 4.4401232797126780e-02 1.0488411453586092e-02  6.6905469748253932e-01 4.4453125797085560e-02 1.0489029919859701e-02  7.1524003012118020e-01 4.4493420308148471e-02 1.0489535296281955e-02  7.6142788256842830e-01 4.4523419579435730e-02 1.0489927468390234e-02  8.0761758349587232e-01 4.4544143495279694e-02 1.0490205509730103e-02  8.5380849230217659e-01 4.4556303462726869e-02 1.0490371218038454e-02  9.0000000000000013e-01 4.4560312388821584e-02 1.0490422356112644e-02  0.0000000000000000e+00 0.0000000000000000e+00 0.0000000000000000e+00  2.2285700519269112e-02 5.8277138449661222e-03 1.0913952103229846e-02  6.4904021143608076e-02 1.7685311523683977e-02 1.2013343573768464e-02  1.1116243597295901e-01 2.2801904054243621e-02 1.1047275854245453e-02  1.5883785983150420e-01 2.3937293483727244e-02 1.0689827237733951e-02  2.0610635593999946e-01 2.4037611959434411e-02 1.0528607005047793e-02  2.5289990618971747e-01 2.3946681303072336e-02 1.0486253900363325e-02  2.9936509308474823e-01 2.3910018041616302e-02 1.0481955049721142e-02  3.4565669954770550e-01 2.3952146258498418e-02 1.0488858443940541e-02  3.9187168144564516e-01 2.4041782219201436e-02 1.0495853966466982e-02  4.3805967566390069e-01 2.4147625995192903e-02 1.0500790649630600e-02  4.8424220390378780e-01 2.4250615746431482e-02 1.0503783498547505e-02  5.3042690672689607e-01 2.4342010890247529e-02 1.0505514462887869e-02  5.7661554478720189e-01 2.4419171396768510e-02 1.0506528306391838e-02  6.2280782487534669e-01 2.4482339687797561e-02 1.0507160067916804e-02  6.6900296390081426e-01 2.4532801599792112e-02 1.0507585592032347e-02  7.1520021380802812e-01 2.4572007310842504e-02 1.0507888641305514e-02  7.6139897446496752e-01 2.4601221163333017e-02 1.0508106388199536e-02  8.0759877438284433e-01 2.4621417835869960e-02 1.0508255047627809e-02  8.5379922872708736e-01 2.4633272990875699e-02 1.0508340531371991e-02  9.0000000000000013e-01 2.4637183614214585e-02 1.0508367852436197e-02  0.0000000000000000e+00 0.0000000000000000e+00 0.0000000000000000e+00  2.0988292971024319e-02 6.5298446667626394e-04 1.0087126347891382e-02  5.9829817770389516e-02 1.8028846736818911e-03 1.2684871581530302e-02  1.0775096981822317e-01 2.6159500437268998e-03 1.1441769115276668e-02  1.5684662077402817e-01 2.9208752412780772e-03 1.0859155481098471e-02  2.0498803541048974e-01 3.2127835951891214e-03 1.0615635126260318e-02  2.5225757937463233e-01 3.4830339350287974e-03 1.0531618286093503e-02  2.9897526603814800e-01 3.7157288289014481e-03 1.0511107061268440e-02  3.4539510147533559e-01 3.9121426659688525e-03 1.0511823335757928e-02  3.9167783411377394e-01 4.0761518970586488e-03 1.0516847866716063e-02  4.3790571912199511e-01 4.2126234748020722e-03 1.0521144777981519e-02  4.8411583152800758e-01 4.3257549650203477e-03 1.0523819956721711e-02  5.3032232651629807e-01 4.4191030067583358e-03 1.0525242873914624e-02  5.7652950871973252e-01 4.4955945559077091e-03 1.0525918404928477e-02  6.2273805037267926e-01 4.5576277719909250e-03 1.0526209681177873e-02  6.6894761384954993e-01 4.6071466271552699e-03 1.0526324120024130e-02  7.1515776568064593e-01 4.6457030274046256e-03 1.0526364915362966e-02  7.6136820572733432e-01 4.6745055131538534e-03 1.0526377734663948e-02  8.0757876869630330e-01 4.6944570468228962e-03 1.0526380557897726e-02  8.5378937709667913e-01 4.7061831763083074e-03 1.0526379608276125e-02  9.0000000000000013e-01 4.7100517419377879e-03 1.0526378084716631e-02  0.0000000000000000e+00 0.0000000000000000e+00 0.0000000000000000e+00  2.1774566268437750e-02 -4.5480606778061840e-03 1.0800941604686866e-02  6.2700298572119340e-02 -1.3377211224981825e-02 1.2318924311790195e-02  1.0955006625361520e-01 -1.7779785945057039e-02 1.1139923863958373e-02  1.5778561497900709e-01 -1.8216558095637672e-02 1.0745556379437395e-02  2.0530051374844391e-01 -1.7661936221487349e-02 1.0577270212736292e-02  2.5224080829754381e-01 -1.7010621709354069e-02 1.0532902766353205e-02  2.9881865817022507e-01 -1.6500054147320881e-02 1.0528994302636374e-02  3.4520091322668200e-01 -1.6145595957249126e-02 1.0535228866217126e-02  3.9149209519568556e-01 -1.5904383944941931e-02 1.0540871499165915e-02  4.3774436634709796e-01 -1.5735023887559051e-02 1.0544221739496441e-02  4.8398135795212194e-01 -1.5609840635913114e-02 1.0545667508526738e-02  5.3021235387290322e-01 -1.5512954663735475e-02 1.0546021487424234e-02  5.7644055947779183e-01 -1.5435828808965145e-02 1.0545869545993248e-02  6.2266691761123005e-01 -1.5373873505596767e-02 1.0545544728212668e-02  6.6889171454983265e-01 -1.5324454289470742e-02 1.0545204847583605e-02  7.1511513288679551e-01 -1.5285890903613269e-02 1.0544912705642229e-02  7.6133739380476273e-01 -1.5257009839486102e-02 1.0544686565816499e-02  8.0755876279448247e-01 -1.5236964318670101e-02 1.0544528588185276e-02  8.5377953141168372e-01 -1.5225169220642480e-02 1.0544434670115992e-02  9.0000000000000013e-01 -1.5221276881580575e-02 1.0544402344814623e-02  0.0000000000000000e+00 0.0000000000000000e+00 0.0000000000000000e+00  2.7170477873594199e-02 -1.3273809912405761e-02 1.1630212914004220e-02  7.1611721923050958e-02 -3.0993260936089090e-02 1.0813598060380890e-02  1.1536711517892177e-01 -3.7469120857379794e-02 1.0332539196534573e-02  1.6073115196118917e-01 -3.8543641764127778e-02 1.0400192067975949e-02  2.0650287685150576e-01 -3.7997689706715368e-02 1.0452539059696153e-02  2.5256594554837059e-01 -3.7205887935297693e-02 1.0510050862711661e-02  2.9877187524284249e-01 -3.6581251752786210e-02 1.0545935668577384e-02  3.4503210017573932e-01 -3.6155322379445194e-02 1.0563027439529851e-02  3.9130810211863376e-01 -3.5876659757670216e-02 1.0569144136265085e-02  4.3758169286103071e-01 -3.5689208570273911e-02 1.0570103195725941e-02  4.8384751641085544e-01 -3.5555761922643321e-02 1.0569081422742620e-02  5.3010494048308376e-01 -3.5455005033394139e-02 1.0567571670025172e-02  5.7635506766816202e-01 -3.5375817462470607e-02 1.0566156611019185e-02  6.2259930419954779e-01 -3.5312517936888659e-02 1.0565000140612112e-02  6.6883893107915782e-01 -3.5262075259416249e-02 1.0564107906200083e-02  7.1507501644987781e-01 -3.5222691739856003e-02 1.0563441403616418e-02  7.6130844743380854e-01 -3.5193170641264149e-02 1.0562960304218322e-02  8.0753998051754072e-01 -3.5172665289538857e-02 1.0562635489733062e-02  8.5377029088398781e-01 -3.5160592384823455e-02 1.0562442981422861e-02  9.0000000000000013e-01 -3.5156606940727281e-02 1.0562379133485322e-02  0.0000000000000000e+00 0.0000000000000000e+00 0.0000000000000000e+00  4.2109917006962878e-02 -3.1082762836583025e-02 9.2462103812743553e-03  8.2363045184365075e-02 -4.8701758645084296e-02 9.1720512832687267e-03  1.2074515478989827e-01 -5.5794518488208600e-02 9.3977224478746738e-03  1.6285972405434329e-01 -5.7754977603069281e-02 1.0042286000587262e-02  2.0702703039506087e-01 -5.7648938986081852e-02 1.0336063535794748e-02  2.5250100543668702e-01 -5.7067948571596576e-02 1.0514851284703976e-02  2.9853672387468860e-01 -5.6523657020810983e-02 1.0580569426579003e-02  3.4479427309767746e-01 -5.6121821146744535e-02 1.0601016661865657e-02  3.9111061884405085e-01 -5.5844518989146205e-02 1.0602143532868579e-02  4.3742743900732511e-01 -5.5651822430047217e-02 1.0597895089206296e-02  4.8372799057389176e-01 -5.5512346181318159e-02 1.0593060793127895e-02  5.3001148209889049e-01 -5.5406563118025789e-02 1.0589152168578411e-02  5.7628127811473251e-01 -5.5323554975516241e-02 1.0586300273835227e-02  6.2254093984560110e-01 -5.5257418905092649e-02 1.0584280144800891e-02  6.6879324243884064e-01 -5.5204870350887822e-02 1.0582848136566935e-02  7.1504019171137889e-01 -5.5163925756649142e-02 1.0581827326914546e-02  7.6128326420054371e-01 -5.5133271608063979e-02 1.0581107624184294e-02  8.0752361748624324e-01 -5.5111993065213388e-02 1.0580625548311079e-02  8.5376223787383598e-01 -5.5099466910736368e-02 1.0580345085184134e-02  9.0000000000000013e-01 -5.5095343777735895e-02 1.0580254458257429e-02  0.0000000000000000e+00 0.0000000000000000e+00 0.0000000000000000e+00  4.4272796353167297e-02 3.5488264653723241e-02 6.3898443238529657e-03  8.4938849383242809e-02 5.2190684771008071e-02 5.7770918690474293e-03  1.2354218397885214e-01 6.0280358443706418e-02 5.9015594994783361e-03  1.6532727662052643e-01 6.3088846755151806e-02 6.1664619753081535e-03  2.0915314079622893e-01 6.3764160690396726e-02 6.3409224490059372e-03  2.5428834541446982e-01 6.3806914477419915e-02 6.4311429261569141e-03  3.0003765702759094e-01 6.3773419885220908e-02 6.4695256160945749e-03  3.4604906301144611e-01 6.3794045348737241e-02 6.4831663754889050e-03  3.9215706722055099e-01 6.3867825838261019e-02 6.4867548760887111e-03  4.3829706652792838e-01 6.3967098510595788e-02 6.4871266053871347e-03  4.8444758474130256e-01 6.4069823275419185e-02 6.4869039229092530e-03  5.3060340977219411e-01 6.4164013722126226e-02 6.4868551202294251e-03  5.7676404187609032e-01 6.4244941750476819e-02 6.4870618085868447e-03  6.2292967389271159e-01 6.4311791050329262e-02 6.4874223626006792e-03  6.6910014553753583e-01 6.4365415968513223e-02 6.4878282974782401e-03  7.1527489708543457e-01 6.4407146787229544e-02 6.4882070330104444e-03  7.6145313815162419e-01 6.4438255159077903e-02 6.4885192974443078e-03  8.0763399026266858e-01 6.4459760380270389e-02 6.4887475660333118e-03  8.5381657214220341e-01 6.4472377764872593e-02 6.4888841060739832e-03  9.0000000000000013e-01 6.4476551444504718e-02 6.4889333190612363e-03  0.0000000000000000e+00 0.0000000000000000e+00 0.0000000000000000e+00  3.0434079534187676e-02 1.7938522601232177e-02 6.6151968388807898e-03  7.4179173971081300e-02 3.4682282319269730e-02 6.6390556973599038e-03  1.1772102248575336e-01 4.1991016687465306e-02 6.3749794360446373e-03  1.6256059034432785e-01 4.4018516490665252e-02 6.4165500319079060e-03  2.0801151699069848e-01 4.4232134916084673e-02 6.4301538321018901e-03  2.5382910158776500e-01 4.4053234313110368e-02 6.4629051090580860e-03  2.9982673369841767e-01 4.3923414163566030e-02 6.4825712612325542e-03  3.4591416267985503e-01 4.3906794267695275e-02 6.4939544657533245e-03  3.9204335875423646e-01 4.3967289587031951e-02 6.4994642461229032e-03  4.3819274963370425e-01 4.4061654140832039e-02 6.5020504802749480e-03  4.8435316126090627e-01 4.4161801665969953e-02 6.5032959109733775e-03  5.3052089896738952e-01 4.4253854787818792e-02 6.5040024279964803e-03  5.7669433039855789e-01 4.4332712228157815e-02 6.5045022656002047e-03  6.2287249676709455e-01 4.4397616207042731e-02 6.5049120429418088e-03  6.6905461973521363e-01 4.4449530868540352e-02 6.5052611757685759e-03  7.1523996745631069e-01 4.4489853193957575e-02 6.5055513877685708e-03  7.6142783551595594e-01 4.4519877868513587e-02 6.5057790679701908e-03  8.0761755206921715e-01 4.4540621276656277e-02 6.5059416268343053e-03  8.5380847688456940e-01 4.4552792752672682e-02 6.5060389062925302e-03  9.0000000000000013e-01 4.4556808405802284e-02 6.5060688659835508e-03  0.0000000000000000e+00 0.0000000000000000e+00 0.0000000000000000e+00  2.2463407078778721e-02 5.8581180395878068e-03 6.8257349784607499e-03  6.4846216411882998e-02 1.7586924332789633e-02 7.4440287957123676e-03  1.1123939509220908e-01 2.2699040509183359e-02 6.8079824321382121e-03  1.5887814417784468e-01 2.3888284700247828e-02 6.6334711458196395e-03  2.0611769338900163e-01 2.4013380941336007e-02 6.5310065254765761e-03  2.5290309294147412e-01 2.3934950989001155e-02 6.5089929034008740e-03  2.9936461032083694e-01 2.3903676760188224e-02 6.5065547083516737e-03  3.4565571324345240e-01 2.3947801184019821e-02 6.5111043612969960e-03  3.9187084515182258e-01 2.4038022702031411e-02 6.5154507103595549e-03  4.3805913436759847e-01 2.4143961015720878e-02 6.5185260236706290e-03  4.8424188322365236e-01 2.4246930997366654e-02 6.5203923640961194e-03  5.3042672094175058e-01 2.4338310982536141e-02 6.5214791838471980e-03  5.7661543302007101e-01 2.4415482160586650e-02 6.5221193579942278e-03  6.2280775264349131e-01 2.4478679350136236e-02 6.5225193212369295e-03  6.6900291380235710e-01 2.4529177110343026e-02 6.5227880919227653e-03  7.1520017780720457e-01 2.4568417539646586e-02 6.5229784594157524e-03  7.6139894900743077e-01 2.4597660547795362e-02 6.5231144345186442e-03  8.0759875804231096e-01 2.4617878677746403e-02 6.5232068110945363e-03  8.5379922058828539e-01 2.4629747105892774e-02 6.5232599457566405e-03  9.0000000000000013e-01 2.4633662706605768e-02 6.5232772699408813e-03  0.0000000000000000e+00 0.0000000000000000e+00 0.0000000000000000e+00  2.1080318950155486e-02 6.7734438515357480e-04 6.3099368325805882e-03  5.9724649569821459e-02 1.8164822107976659e-03 7.8410553673670634e-03  1.0787602196701432e-01 2.5983990443512301e-03 7.0571235081534640e-03  1.5691003825318342e-01 2.9093350004163071e-03 6.7418783143077645e-03  2.0500703248098984e-01 3.2061911173456039e-03 6.5879470104530146e-03  2.5226457684814674e-01 3.4773726082253350e-03 6.5406745559862386e-03  2.9897610041631956e-01 3.7107321825206778e-03 6.5292022114273804e-03  3.4539459318864713e-01 3.9075166903041999e-03 6.5304617504952879e-03  3.9167711923974163e-01 4.0718025327935994e-03 6.5339688397671493e-03  4.3790522113927371e-01 4.2084668723696367e-03 6.5368737159436406e-03  4.8411554467783957e-01 4.3217479931430382e-03 6.5386803232901219e-03  5.3032218264152431e-01 4.4152138451012115e-03 6.5396584308688305e-03  5.7652944358107505e-01 4.4918003098662193e-03 6.5401396734436493e-03  6.2273802366165543e-01 4.5539100930615424e-03 6.5403607287603457e-03  6.6894760398742559e-01 4.6034900723862706e-03 6.5404576220703670e-03  7.1515776250486529e-01 4.6420941497474144e-03 6.5404993171358887e-03  7.6136820492917712e-01 4.6709323173891037e-03 6.5405174550178411e-03  8.0757876864819700e-01 4.6909086063885537e-03 6.5405253351882003e-03  8.5378937720099579e-01 4.7026493239905190e-03 6.5405282643651507e-03  9.0000000000000013e-01 4.7065225237312922e-03 6.5405282371508782e-03  0.0000000000000000e+00 0.0000000000000000e+00 0.0000000000000000e+00  2.1975687378190147e-02 -4.5557273428266697e-03 6.7256000138733668e-03  6.2564363982430177e-02 -1.3284756828804501e-02 7.6486770340197094e-03  1.0967457954492441e-01 -1.7707568365238090e-02 6.8874108637980228e-03  1.5783299697158171e-01 -1.8180337234548195e-02 6.6875910280808871e-03  2.0531136864240190e-01 -1.7649953919347747e-02 6.5741009858888812e-03  2.5224417282269318e-01 -1.7009684655597795e-02 6.5498297515704986e-03  2.9881804452440880e-01 -1.6503525183472090e-02 6.5474728339071867e-03  3.4520002567804631e-01 -1.6150362535836467e-02 6.5515993461778988e-03  3.9149142035300877e-01 -1.5909251901691807e-02 6.5552153486140080e-03  4.3774403264023920e-01 -1.5739626520952357e-02 6.5574066170343767e-03  4.8398123735710857e-01 -1.5614141633445778e-02 6.5583847630356342e-03  5.3021234627048242e-01 -1.5517012978926934e-02 6.5586661321259485e-03  5.7644059757773836e-01 -1.5439712294430256e-02 6.5586162032505698e-03  6.2266696729792981e-01 -1.5377635254919857e-02 6.5584459327529846e-03  6.6889176078467816e-01 -1.5328131283407626e-02 6.5582567487447452e-03  7.1511517042015937e-01 -1.5289508469486634e-02 6.5580903709049820e-03  7.6133742143726069e-01 -1.5260586036575327e-02 6.5579601445362639e-03  8.0755878091525535e-01 -1.5240513019588708e-02 6.5578685879978445e-03  8.5377954037163362e-01 -1.5228701817203564e-02 6.5578141516676510e-03  9.0000000000000013e-01 -1.5224805177307048e-02 6.5577948491965105e-03  0.0000000000000000e+00 0.0000000000000000e+00 0.0000000000000000e+00  2.7640125990565791e-02 -1.3027912755460388e-02 7.2821017514451067e-03  7.1637007972356795e-02 -3.0836039605848853e-02 6.7620641453895762e-03  1.1541187179854087e-01 -3.7334169732475671e-02 6.4351418448390305e-03  1.6073346454723170e-01 -3.8486260661236317e-02 6.5008599989289512e-03  2.0649245344264794e-01 -3.7980063301251983e-02 6.5144325663597886e-03  2.5256053950641283e-01 -3.7204624553073704e-02 6.5471005994188983e-03  2.9876827257034083e-01 -3.6585829601326149e-02 6.5670979528085543e-03  3.4503064759796986e-01 -3.6161115325249883e-02 6.5763934421574849e-03  3.9130767073792982e-01 -3.5882196374029354e-02 6.5796721595499964e-03  4.3758173728810917e-01 -3.5694171154536401e-02 6.5800133720436277e-03  4.8384771370567192e-01 -3.5560230449735108e-02 6.5792680095136669e-03  5.3010515675704850e-01 -3.5459127892586220e-02 6.5782806950136245e-03  5.7635525457726022e-01 -3.5379716629159071e-02 6.5773811260020363e-03  6.2259945202040534e-01 -3.5316274579291297e-02 6.5766555000414334e-03  6.6883904309279529e-01 -3.5265739502570247e-02 6.5761004648371580e-03  7.1507509869990793e-01 -3.5226294410627385e-02 6.5756885898068194e-03  7.6130850505823411e-01 -3.5196731819513806e-02 6.5753929203592803e-03  8.0754001738009795e-01 -3.5176199492672033e-02 6.5751940986394442e-03  8.5377030859412051e-01 -3.5164111509700918e-02 6.5750773126237285e-03  9.0000000000000013e-01 -3.5160123796094248e-02 6.5750380530912537e-03  0.0000000000000000e+00 0.0000000000000000e+00 0.0000000000000000e+00  4.3806573913168251e-02 -3.1631429206046696e-02 6.2014619173568685e-03  8.2327905026707573e-02 -4.8524737397348520e-02 5.8437185776085273e-03  1.2071796896998267e-01 -5.5590798757933650e-02 5.9007265732126226e-03  1.6282178431237662e-01 -5.7698961840592103e-02 6.3209640700927841e-03  2.0699230563944282e-01 -5.7612771157532688e-02 6.4506445655578264e-03  2.5248790469881538e-01 -5.7065811410027777e-02 6.5642374327094105e-03  2.9853023020369357e-01 -5.6527896843917604e-02 6.5970420602919693e-03  3.4479266358259031e-01 -5.6128325740947192e-02 6.6077932391890287e-03  3.9111056642285191e-01 -5.5850554113440518