<?xml version="1.0"?>
<VTKFile type="UnstructuredGrid"  version="0.1"  >
<UnstructuredGrid>
<Piece  NumberOfPoints="588" NumberOfCells="2160">
<Points>
<DataArray  type="Float64"  NumberOfComponents="3"  format="ascii">0 0 0  0.5 0 0  1 0 0  1.5 0 0  2 0 0  2.5 0 0  3 0 0  3.5 0 0  4 0 0  4.5 0 0  5 0 0  5.5 0 0  6 0 0  6.5 0 0  7 0 0  7.5 0 0  8 0 0  8.5 0 0  9 0 0  9.5 0 0  10 0 0  0 0.5 0  0.5 0.5 0  1 0.5 0  1.5 0.5 0  2 0.5 0  2.5 0.5 0  3 0.5 0  3.5 0.5 0  4 0.5 0  4.5 0.5 0  5 0.5 0  5.5 0.5 0  6 0.5 0  6.5 0.5 0  7 0.5 0  7.5 0.5 0  8 0.5 0  8.5 0.5 0  9 0.5 0  9.5 0.5 0  10 0.5 0  0 1 0  0.5 1 0  1 1 0  1.5 1 0  2 1 0  2.5 1 0  3 1 0  3.5 1 0  4 1 0  4.5 1 0  5 1 0  5.5 1 0  6 1 0  6.5 1 0  7 1 0  7.5 1 0  8 1 0  8.5 1 0  9 1 0  9.5 1 0  10 1 0  0 1.5 0  0.5 1.5 0  1 1.5 0  1.5 1.5 0  2 1.5 0  2.5 1.5 0  3 1.5 0  3.5 1.5 0  4 1.5 0  4.5 1.5 0  5 1.5 0  5.5 1.5 0  6 1.5 0  6.5 1.5 0  7 1.5 0  7.5 1.5 0  8 1.5 0  8.5 1.5 0  9 1.5 0  9.5 1.5 0  10 1.5 0  0 2 0  0.5 2 0  1 2 0  1.5 2 0  2 2 0  2.5 2 0  3 2 0  3.5 2 0  4 2 0  4.5 2 0  5 2 0  5.5 2 0  6 2 0  6.5 2 0  7 2 0  7.5 2 0  8 2 0  8.5 2 0  9 2 0  9.5 2 0  10 2 0  0 2.5 0  0.5 2.5 0  1 2.5 0  1.5 2.5 0  2 2.5 0  2.5 2.5 0  3 2.5 0  3.5 2.5 0  4 2.5 0  4.5 2.5 0  5 2.5 0  5.5 2.5 0  6 2.5 0  6.5 2.5 0  7 2.5 0  7.5 2.5 0  8 2.5 0  8.5 2.5 0  9 2.5 0  9.5 2.5 0  10 2.5 0  0 3 0  0.5 3 0  1 3 0  1.5 3 0  2 3 0  2.5 3 0  3 3 0  3.5 3 0  4 3 0  4.5 3 0  5 3 0  5.5 3 0  6 3 0  6.5 3 0  7 3 0  7.5 3 0  8 3 0  8.5 3 0  9 3 0  9.5 3 0  10 3 0  0 0 0.1666666666666667  0.5 0 0.1666666666666667  1 0 0.1666666666666667  1.5 0 0.1666666666666667  2 0 0.1666666666666667  2.5 0 0.1666666666666667  3 0 0.1666666666666667  3.5 0 0.1666666666666667  4 0 0.1666666666666667  4.5 0 0.1666666666666667  5 0 0.1666666666666667  5.5 0 0.1666666666666667  6 0 0.1666666666666667  6.5 0 0.1666666666666667  7 0 0.1666666666666667  7.5 0 0.1666666666666667  8 0 0.1666666666666667  8.5 0 0.1666666666666667  9 0 0.1666666666666667  9.5 0 0.1666666666666667  10 0 0.1666666666666667  0 0.5 0.1666666666666667  0.5 0.5 0.1666666666666667  1 0.5 0.1666666666666667  1.5 0.5 0.1666666666666667  2 0.5 0.1666666666666667  2.5 0.5 0.1666666666666667  3 0.5 0.1666666666666667  3.5 0.5 0.1666666666666667  4 0.5 0.1666666666666667  4.5 0.5 0.1666666666666667  5 0.5 0.1666666666666667  5.5 0.5 0.1666666666666667  6 0.5 0.1666666666666667  6.5 0.5 0.1666666666666667  7 0.5 0.1666666666666667  7.5 0.5 0.1666666666666667  8 0.5 0.1666666666666667  8.5 0.5 0.1666666666666667  9 0.5 0.1666666666666667  9.5 0.5 0.1666666666666667  10 0.5 0.1666666666666667  0 1 0.1666666666666667  0.5 1 0.1666666666666667  1 1 0.1666666666666667  1.5 1 0.1666666666666667  2 1 0.1666666666666667  2.5 1 0.1666666666666667  3 1 0.1666666666666667  3.5 1 0.1666666666666667  4 1 0.1666666666666667  4.5 1 0.1666666666666667  5 1 0.1666666666666667  5.5 1 0.1666666666666667  6 1 0.1666666666666667  6.5 1 0.1666666666666667  7 1 0.1666666666666667  7.5 1 0.1666666666666667  8 1 0.1666666666666667  8.5 1 0.1666666666666667  9 1 0.1666666666666667  9.5 1 0.1666666666666667  10 1 0.1666666666666667  0 1.5 0.1666666666666667  0.5 1.5 0.1666666666666667  1 1.5 0.1666666666666667  1.5 1.5 0.1666666666666667  2 1.5 0.1666666666666667  2.5 1.5 0.1666666666666667  3 1.5 0.1666666666666667  3.5 1.5 0.1666666666666667  4 1.5 0.1666666666666667  4.5 1.5 0.1666666666666667  5 1.5 0.1666666666666667  5.5 1.5 0.1666666666666667  6 1.5 0.1666666666666667  6.5 1.5 0.1666666666666667  7 1.5 0.1666666666666667  7.5 1.5 0.1666666666666667  8 1.5 0.1666666666666667  8.5 1.5 0.1666666666666667  9 1.5 0.1666666666666667  9.5 1.5 0.1666666666666667  10 1.5 0.1666666666666667  0 2 0.1666666666666667  0.5 2 0.1666666666666667  1 2 0.1666666666666667  1.5 2 0.1666666666666667  2 2 0.1666666666666667  2.5 2 0.1666666666666667  3 2 0.1666666666666667  3.5 2 0.1666666666666667  4 2 0.1666666666666667  4.5 2 0.1666666666666667  5 2 0.1666666666666667  5.5 2 0.1666666666666667  6 2 0.1666666666666667  6.5 2 0.1666666666666667  7 2 0.1666666666666667  7.5 2 0.1666666666666667  8 2 0.1666666666666667  8.5 2 0.1666666666666667  9 2 0.1666666666666667  9.5 2 0.1666666666666667  10 2 0.1666666666666667  0 2.5 0.1666666666666667  0.5 2.5 0.1666666666666667  1 2.5 0.1666666666666667  1.5 2.5 0.1666666666666667  2 2.5 0.1666666666666667  2.5 2.5 0.1666666666666667  3 2.5 0.1666666666666667  3.5 2.5 0.1666666666666667  4 2.5 0.1666666666666667  4.5 2.5 0.1666666666666667  5 2.5 0.1666666666666667  5.5 2.5 0.1666666666666667  6 2.5 0.1666666666666667  6.5 2.5 0.1666666666666667  7 2.5 0.1666666666666667  7.5 2.5 0.1666666666666667  8 2.5 0.1666666666666667  8.5 2.5 0.1666666666666667  9 2.5 0.1666666666666667  9.5 2.5 0.1666666666666667  10 2.5 0.1666666666666667  0 3 0.1666666666666667  0.5 3 0.1666666666666667  1 3 0.1666666666666667  1.5 3 0.1666666666666667  2 3 0.1666666666666667  2.5 3 0.1666666666666667  3 3 0.1666666666666667  3.5 3 0.1666666666666667  4 3 0.1666666666666667  4.5 3 0.1666666666666667  5 3 0.1666666666666667  5.5 3 0.1666666666666667  6 3 0.1666666666666667  6.5 3 0.1666666666666667  7 3 0.1666666666666667  7.5 3 0.1666666666666667  8 3 0.1666666666666667  8.5 3 0.1666666666666667  9 3 0.1666666666666667  9.5 3 0.1666666666666667  10 3 0.1666666666666667  0 0 0.3333333333333333  0.5 0 0.3333333333333333  1 0 0.3333333333333333  1.5 0 0.3333333333333333  2 0 0.3333333333333333  2.5 0 0.3333333333333333  3 0 0.3333333333333333  3.5 0 0.3333333333333333  4 0 0.3333333333333333  4.5 0 0.3333333333333333  5 0 0.3333333333333333  5.5 0 0.3333333333333333  6 0 0.3333333333333333  6.5 0 0.3333333333333333  7 0 0.3333333333333333  7.5 0 0.3333333333333333  8 0 0.3333333333333333  8.5 0 0.3333333333333333  9 0 0.3333333333333333  9.5 0 0.3333333333333333  10 0 0.3333333333333333  0 0.5 0.3333333333333333  0.5 0.5 0.3333333333333333  1 0.5 0.3333333333333333  1.5 0.5 0.3333333333333333  2 0.5 0.3333333333333333  2.5 0.5 0.3333333333333333  3 0.5 0.3333333333333333  3.5 0.5 0.3333333333333333  4 0.5 0.3333333333333333  4.5 0.5 0.3333333333333333  5 0.5 0.3333333333333333  5.5 0.5 0.3333333333333333  6 0.5 0.3333333333333333  6.5 0.5 0.3333333333333333  7 0.5 0.3333333333333333  7.5 0.5 0.3333333333333333  8 0.5 0.3333333333333333  8.5 0.5 0.3333333333333333  9 0.5 0.3333333333333333  9.5 0.5 0.3333333333333333  10 0.5 0.3333333333333333  0 1 0.3333333333333333  0.5 1 0.3333333333333333  1 1 0.3333333333333333  1.5 1 0.3333333333333333  2 1 0.3333333333333333  2.5 1 0.3333333333333333  3 1 0.3333333333333333  3.5 1 0.3333333333333333  4 1 0.3333333333333333  4.5 1 0.3333333333333333  5 1 0.3333333333333333  5.5 1 0.3333333333333333  6 1 0.3333333333333333  6.5 1 0.3333333333333333  7 1 0.3333333333333333  7.5 1 0.3333333333333333  8 1 0.3333333333333333  8.5 1 0.3333333333333333  9 1 0.3333333333333333  9.5 1 0.3333333333333333  10 1 0.3333333333333333  0 1.5 0.3333333333333333  0.5 1.5 0.3333333333333333  1 1.5 0.3333333333333333  1.5 1.5 0.3333333333333333  2 1.5 0.3333333333333333  2.5 1.5 0.3333333333333333  3 1.5 0.3333333333333333  3.5 1.5 0.3333333333333333  4 1.5 0.3333333333333333  4.5 1.5 0.3333333333333333  5 1.5 0.3333333333333333  5.5 1.5 0.3333333333333333  6 1.5 0.3333333333333333  6.5 1.5 0.3333333333333333  7 1.5 0.3333333333333333  7.5 1.5 0.3333333333333333  8 1.5 0.3333333333333333  8.5 1.5 0.3333333333333333  9 1.5 0.3333333333333333  9.5 1.5 0.3333333333333333  10 1.5 0.3333333333333333  0 2 0.3333333333333333  0.5 2 0.3333333333333333  1 2 0.3333333333333333  1.5 2 0.3333333333333333  2 2 0.3333333333333333  2.5 2 0.3333333333333333  3 2 0.3333333333333333  3.5 2 0.3333333333333333  4 2 0.3333333333333333  4.5 2 0.3333333333333333  5 2 0.3333333333333333  5.5 2 0.3333333333333333  6 2 0.3333333333333333  6.5 2 0.3333333333333333  7 2 0.3333333333333333  7.5 2 0.3333333333333333  8 2 0.3333333333333333  8.5 2 0.3333333333333333  9 2 0.3333333333333333  9.5 2 0.3333333333333333  10 2 0.3333333333333333  0 2.5 0.3333333333333333  0.5 2.5 0.3333333333333333  1 2.5 0.3333333333333333  1.5 2.5 0.3333333333333333  2 2.5 0.3333333333333333  2.5 2.5 0.3333333333333333  3 2.5 0.3333333333333333  3.5 2.5 0.3333333333333333  4 2.5 0.3333333333333333  4.5 2.5 0.3333333333333333  5 2.5 0.3333333333333333  5.5 2.5 0.3333333333333333  6 2.5 0.3333333333333333  6.5 2.5 0.3333333333333333  7 2.5 0.3333333333333333  7.5 2.5 0.3333333333333333  8 2.5 0.3333333333333333  8.5 2.5 0.3333333333333333  9 2.5 0.3333333333333333  9.5 2.5 0.3333333333333333  10 2.5 0.3333333333333333  0 3 0.3333333333333333  0.5 3 0.3333333333333333  1 3 0.3333333333333333  1.5 3 0.3333333333333333  2 3 0.3333333333333333  2.5 3 0.3333333333333333  3 3 0.3333333333333333  3.5 3 0.3333333333333333  4 3 0.3333333333333333  4.5 3 0.3333333333333333  5 3 0.3333333333333333  5.5 3 0.3333333333333333  6 3 0.3333333333333333  6.5 3 0.3333333333333333  7 3 0.3333333333333333  7.5 3 0.3333333333333333  8 3 0.3333333333333333  8.5 3 0.3333333333333333  9 3 0.3333333333333333  9.5 3 0.3333333333333333  10 3 0.3333333333333333  0 0 0.5  0.5 0 0.5  1 0 0.5  1.5 0 0.5  2 0 0.5  2.5 0 0.5  3 0 0.5  3.5 0 0.5  4 0 0.5  4.5 0 0.5  5 0 0.5  5.5 0 0.5  6 0 0.5  6.5 0 0.5  7 0 0.5  7.5 0 0.5  8 0 0.5  8.5 0 0.5  9 0 0.5  9.5 0 0.5  10 0 0.5  0 0.5 0.5  0.5 0.5 0.5  1 0.5 0.5  1.5 0.5 0.5  2 0.5 0.5  2.5 0.5 0.5  3 0.5 0.5  3.5 0.5 0.5  4 0.5 0.5  4.5 0.5 0.5  5 0.5 0.5  5.5 0.5 0.5  6 0.5 0.5  6.5 0.5 0.5  7 0.5 0.5  7.5 0.5 0.5  8 0.5 0.5  8.5 0.5 0.5  9 0.5 0.5  9.5 0.5 0.5  10 0.5 0.5  0 1 0.5  0.5 1 0.5  1 1 0.5  1.5 1 0.5  2 1 0.5  2.5 1 0.5  3 1 0.5  3.5 1 0.5  4 1 0.5  4.5 1 0.5  5 1 0.5  5.5 1 0.5  6 1 0.5  6.5 1 0.5  7 1 0.5  7.5 1 0.5  8 1 0.5  8.5 1 0.5  9 1 0.5  9.5 1 0.5  10 1 0.5  0 1.5 0.5  0.5 1.5 0.5  1 1.5 0.5  1.5 1.5 0.5  2 1.5 0.5  2.5 1.5 0.5  3 1.5 0.5  3.5 1.5 0.5  4 1.5 0.5  4.5 1.5 0.5  5 1.5 0.5  5.5 1.5 0.5  6 1.5 0.5  6.5 1.5 0.5  7 1.5 0.5  7.5 1.5 0.5  8 1.5 0.5  8.
[...]
<PointData  Vectors="f_7-0"> 
<DataArray  type="Float64"  Name="f_7-0"  NumberOfComponents="3" format="ascii">0.0000000000000000e+00 0.0000000000000000e+00 0.0000000000000000e+00  7.5101546384855056e-01 5.5470561952415287e-01 9.8094004574396543e-02  1.8451935374909314e+00 5.9667303610333433e-01 9.8929501965142649e-02  2.9593239401216285e+00 5.9806802879870069e-01 9.9549504012470050e-02  4.0774629705601262e+00 5.9792171508527325e-01 9.9663061097174682e-02  5.1973133365779427e+00 5.9783760322578372e-01 9.9695470960532898e-02  6.3174922009210697e+00 5.9780080709189010e-01 9.9704093961756016e-02  7.4377081396965448e+00 5.9778384102141569e-01 9.9705260817552779e-02  8.5579143521361747e+00 5.9777544718918951e-01 9.9705174961587817e-02  9.6781070336908179e+00 5.9777114146405741e-01 9.9704911261580764e-02  1.0798289903911787e+01 5.9776888899522862e-01 9.9704690932773038e-02  1.1918466792272454e+01 5.9776769415471964e-01 9.9704549917765478e-02  1.3038640276307261e+01 5.9776705540213471e-01 9.9704467718673806e-02  1.4158811875928063e+01 5.9776671276358906e-01 9.9704421413117750e-02  1.5278982446123893e+01 5.9776652864043212e-01 9.9704395818235647e-02  1.6399152457981657e+01 5.9776642964030979e-01 9.9704381840558701e-02  1.7519322168374941e+01 5.9776637648099173e-01 9.9704374268383147e-02  1.8639491716862931e+01 5.9776634812006202e-01 9.9704370207717954e-02  1.9759661179560400e+01 5.9776633334300699e-01 9.9704368085038284e-02  2.0879830598815161e+01 5.9776632632380522e-01 9.9704367076272504e-02  2.2000000000000000e+01 5.9776632426203735e-01 9.9704366764767197e-02  0.0000000000000000e+00 0.0000000000000000e+00 0.0000000000000000e+00  7.3711479725445705e-01 3.6326406413103723e-01 1.0079588280027332e-01  1.8386863131479874e+00 3.9830990020464657e-01 9.9823730876224440e-02  2.9578216871365082e+00 3.9906751856962996e-01 1.0002058460750977e-01  4.0771100110266421e+00 3.9879244101482197e-01 1.0005001587054517e-01  5.1972511265371342e+00 3.9868703988546922e-01 1.0005277699969423e-01  6.3174902387558483e+00 3.9864675040825331e-01 1.0005446450243266e-01  7.4377149408095162e+00 3.9863059374115811e-01 1.0005421281555252e-01  8.5579203309171241e+00 3.9862347330329440e-01 1.0005366467220535e-01  9.6781109122405731e+00 3.9862005291632097e-01 1.0005328735397916e-01  1.0798292168491491e+01 3.9861832980936263e-01 1.0005306284709505e-01  1.1918468059941802e+01 3.9861743541497457e-01 1.0005293442788057e-01  1.3038640972642002e+01 3.9861696289114962e-01 1.0005286276796287e-01  1.4158812254774908e+01 3.9861671097003271e-01 1.0005282347413567e-01  1.5278982651176118e+01 3.9861657602302891e-01 1.0005280211030876e-01  1.6399152568581716e+01 3.9861650358490935e-01 1.0005279054480215e-01  1.7519322227741426e+01 3.9861646472230239e-01 1.0005278431035042e-01  1.8639491748307904e+01 3.9861644399777474e-01 1.0005278097762446e-01  1.9759661195462499e+01 3.9861643320288603e-01 1.0005277923908111e-01  2.0879830605446919e+01 3.9861642807277192e-01 1.0005277841864420e-01  2.2000000000000000e+01 3.9861642657403873e-01 1.0005277817982222e-01  0.0000000000000000e+00 0.0000000000000000e+00 0.0000000000000000e+00  7.2602753528340191e-01 1.7982361506146172e-01 1.0320745072794260e-01  1.8280755835943190e+00 1.9947750192980873e-01 1.0069916237061435e-01  2.9551368872579187e+00 1.9984475894025444e-01 1.0051962958283807e-01  4.0764829777428613e+00 1.9960215832033470e-01 1.0043416257659692e-01  5.1971480838274795e+00 1.9952027210846474e-01 1.0041178010196203e-01  6.3174978994779369e+00 1.9948920972705914e-01 1.0040534830805865e-01  7.4377358111465233e+00 1.9947698613042494e-01 1.0040288487104694e-01  8.5579364968731984e+00 1.9947169124569678e-01 1.0040194499940819e-01  9.6781209656166762e+00 1.9946917171347991e-01 1.0040154889100267e-01  1.0798297945324435e+01 1.9946791276362677e-01 1.0040136961610047e-01  1.1918471272104700e+01 1.9946726178209415e-01 1.0040128225850332e-01  1.3038642731174843e+01 1.9946691858760102e-01 1.0040123779891330e-01  1.4158813209846207e+01 1.9946673580898044e-01 1.0040121472604004e-01  1.5278983167658501e+01 1.9946663794727751e-01 1.0040120256552533e-01  1.6399152847039733e+01 1.9946658542914084e-01 1.0040119609630355e-01  1.7519322377177474e+01 1.9946655725661036e-01 1.0040119264509360e-01  1.8639491827455103e+01 1.9946654223327212e-01 1.0040119081221723e-01  1.9759661235494104e+01 1.9946653440795670e-01 1.0040118986098334e-01  2.0879830622140432e+01 1.9946653068655243e-01 1.0040118942217797e-01  2.2000000000000000e+01 1.9946652959142561e-01 1.0040118929141360e-01  0.0000000000000000e+00 0.0000000000000000e+00 0.0000000000000000e+00  7.2255535134086113e-01 1.2688644682234888e-03 1.0402277517233018e-01  1.8233133488082396e+00 4.9481410303785678e-04 1.0118688940234619e-01  2.9542520774557297e+00 4.0874845390726698e-04 1.0091222436149225e-01  4.0764087738050616e+00 3.5463908690353869e-04 1.0079229757709959e-01  5.1972000812794139e+00 3.4164050268629904e-04 1.0076100878131650e-01  6.3175614117590433e+00 3.3033205160943907e-04 1.0075322467922966e-01  7.4377790469287559e+00 3.2396092920846905e-04 1.0075061123537934e-01  8.5579623928128026e+00 3.2061821871507920e-04 1.0074988044551321e-01  9.6781356143143302e+00 3.1878279870306851e-04 1.0074967687746404e-01  1.0798306025787049e+01 3.1779087548632773e-04 1.0074961959219091e-01  1.1918475679515545e+01 3.1725557298731359e-04 1.0074960371022292e-01  1.3038645120782814e+01 3.1696681742562351e-04 1.0074960001607688e-01  1.4158814501253756e+01 3.1681116212150796e-04 1.0074959950440722e-01  1.5278983864299740e+01 3.1672728377305317e-04 1.0074959965678895e-01  1.6399153222162401e+01 3.1668211654304831e-04 1.0074959987171050e-01  1.7519322578363067e+01 3.1665784346024617e-04 1.0074960003029462e-01  1.8639491933981486e+01 3.1664488646671518e-04 1.0074960012957433e-01  1.9759661289371060e+01 3.1663813267471187e-04 1.0074960018818976e-01  2.0879830644633319e+01 3.1663491453260372e-04 1.0074960023014762e-01  2.2000000000000000e+01 3.1663396232022050e-04 1.0074960023800837e-01  0.0000000000000000e+00 0.0000000000000000e+00 0.0000000000000000e+00  7.2766367011885646e-01 -1.7708258927393569e-01 1.0356452913644962e-01  1.8281506996301444e+00 -1.9851278754639318e-01 1.0139238873281360e-01  2.9563615440824282e+00 -1.9903410547895314e-01 1.0114774948691949e-01  4.0771786086165624e+00 -1.9886031056140432e-01 1.0110631536900518e-01  5.1974909638783666e+00 -1.9882684656606331e-01 1.0109825332215990e-01  6.3176934132782190e+00 -1.9882432219693005e-01 1.0109770574665920e-01  7.4378407547771390e+00 -1.9882652046905874e-01 1.0109730945806528e-01  8.5579933957658589e+00 -1.9882912015974544e-01 1.0109752415213744e-01  9.6781516806116485e+00 -1.9883089779644378e-01 1.0109772407450286e-01  1.0798314498446157e+01 -1.9883195035929754e-01 1.0109784618181517e-01  1.1918480198092192e+01 -1.9883254598009009e-01 1.0109791924518817e-01  1.3038647541985213e+01 -1.9883287477919592e-01 1.0109796106084606e-01  1.4158815801912265e+01 -1.9883305415313388e-01 1.0109798422734574e-01  1.5278984563818883e+01 -1.9883315140812055e-01 1.0109799689534105e-01  1.6399153598251822e+01 -1.9883320394618503e-01 1.0109800378298509e-01  1.7519322779908602e+01 -1.9883323222918040e-01 1.0109800750652823e-01  1.8639492040658883e+01 -1.9883324734106317e-01 1.0109800950192779e-01  1.9759661343320232e+01 -1.9883325522379627e-01 1.0109801054654495e-01  2.0879830667166566e+01 -1.9883325898351636e-01 1.0109801105482080e-01  2.2000000000000000e+01 -1.9883326009879573e-01 1.0109801119852478e-01  0.0000000000000000e+00 0.0000000000000000e+00 0.0000000000000000e+00  7.4515254327512814e-01 -3.6208956540824488e-01 1.0260740647434122e-01  1.8395260415855434e+00 -3.9718585944737139e-01 1.0107018749134145e-01  2.9599851059339675e+00 -3.9811670065248211e-01 1.0124428790402154e-01  4.0783504100350143e+00 -3.9799023976195558e-01 1.0142032195613221e-01  5.1978683994699804e+00 -3.9797249353137470e-01 1.0143273135634415e-01  6.3178325020552757e+00 -3.9796858292304460e-01 1.0144029451752172e-01  7.4378989023451973e+00 -3.9797327871591903e-01 1.0144387640735797e-01  8.5580198282698969e+00 -3.9797732692473892e-01 1.0144519210942497e-01  9.6781645377150269e+00 -3.9797984862921748e-01 1.0144580785758431e-01  1.0798321061415315e+01 -3.9798133234080535e-01 1.0144610414094507e-01  1.1918483633967828e+01 -3.9798216286845994e-01 1.0144625533221387e-01  1.3038649364701115e+01 -3.9798261934806600e-01 1.0144633419772969e-01  1.4158816776149649e+01 -3.9798286788599080e-01 1.0144637576212401e-01  1.5278985086426392e+01 -3.9798300248586976e-01 1.0144639790954774e-01  1.6399153878849216e+01 -3.9798307516298448e-01 1.0144640976591525e-01  1.7519322930178451e+01 -3.9798311427748567e-01 1.0144641611424574e-01  1.8639492120171919e+01 -3.9798313517363532e-01 1.0144641949605540e-01  1.9759661383529632e+01 -3.9798314607276764e-01 1.0144642125744936e-01  2.0879830683967025e+01 -3.9798315127254907e-01 1.0144642210472903e-01  2.2000000000000000e+01 -3.9798315281163976e-01 1.0144642235217199e-01  0.0000000000000000e+00 0.0000000000000000e+00 0.0000000000000000e+00  7.7286627529873775e-01 -5.5351319970939183e-01 9.6481556433292037e-02  1.8456765133318291e+00 -5.9466173721650673e-01 9.9814479542815637e-02  2.9619847187147959e+00 -5.9700671010581030e-01 1.0176079589621070e-01  4.0789983650095394e+00 -5.9708160958178369e-01 1.0175989221331944e-01  5.1980287531032019e+00 -5.9708606083864213e-01 1.0175876759952189e-01  6.3178936839702935e+00 -5.9710551562787151e-01 1.0178680073978529e-01  7.4379249401626879e+00 -5.9711786283404422e-01 1.0179129728982024e-01  8.5580308021786031e+00 -5.9712447644978728e-01 1.0179314076672250e-01  9.6781697993594431e+00 -5.9712836960882165e-01 1.0179404379683593e-01  1.0798323720220663e+01 -5.9713051260301531e-01 1.0179443748263216e-01  1.1918485013926507e+01 -5.9713167864976346e-01 1.0179463084601875e-01  1.3038650093940547e+01 -5.9713231183415738e-01 1.0179472796477421e-01  1.4158817165094035e+01 -5.9713265416693573e-01 1.0179477830343445e-01  1.5278985294847152e+01 -5.9713283894982983e-01 1.0179480484870604e-01  1.6399153990693911e+01 -5.9713293854657534e-01 1.0179481894010747e-01  1.7519322990057884e+01 -5.9713299209838411e-01 1.0179482644911875e-01  1.8639492151852441e+01 -5.9713302069383789e-01 1.0179483043908155e-01  1.9759661399549707e+01 -5.9713303560536468e-01 1.0179483251396602e-01  2.0879830690655012e+01 -5.9713304272262602e-01 1.0179483349970962e-01  2.2000000000000000e+01 -5.9713304480032825e-01 1.0179483380845730e-01  0.0000000000000000e+00 0.0000000000000000e+00 0.0000000000000000e+00  7.5221905851608162e-01 5.5282495290222489e-01 3.2799630996984228e-02  1.8452944761026044e+00 5.9637476354248675e-01 3.2877950135510432e-02  2.9593210728232768e+00 5.9793860215127925e-01 3.3239512750905906e-02  4.0774648994517442e+00 5.9779536084066154e-01 3.3291986294853117e-02  5.1973129623551451e+00 5.9771874182479012e-01 3.3312812623437466e-02  6.3174922372227904e+00 5.9768413821810640e-01 3.3319726356932054e-02  7.4377081866570318e+00 5.9766754224570051e-01 3.3320923834574606e-02  8.5579143553647583e+00 5.9765927026077248e-01 3.3321182337673699e-02  9.6781070339790602e+00 5.9765500322393117e-01 3.3321205006985453e-02  1.0798289905035981e+01 5.9765275700087006e-01 3.3321163779899875e-02  1.1918466792967299e+01 5.9765156130950259e-01 3.3321125684630783e-02  1.3038640276677786e+01 5.9765092108238194e-01 3.3321100832453598e-02  1.4158811876142140e+01 5.9765057729039839e-01 3.3321085962834153e-02  1.5278982446246529e+01 5.9765039241822226e-01 3.3321077445773541e-02  1.6399152458049159e+01 5.9765029297612415e-01 3.3321072701455512e-02  1.7519322168410504e+01 5.9765023956735852e-01 3.3321070101598876e-02  1.8639491716879711e+01 5.9765021106923244e-01 3.3321068697456602e-02  1.9759661179563533e+01 5.9765019622017812e-01 3.3321067960559989e-02  2.0879830598807875e+01 5.9765018916523260e-01 3.3321067608072255e-02  2.2000000000000000e+01 5.9765018708249718e-01 3.3321067493864848e-02  0.0000000000000000e+00 0.0000000000000000e+00 0.0000000000000000e+00  7.3850074597978232e-01 3.6277585813254654e-01 3.4192584994699668e-02  1.8390543253413230e+00 3.9796162274963820e-01 3.3515333916165964e-02  2.9578105466313640e+00 3.9891368376318481e-01 3.3642861636871670e-02  4.0771044465973141e+00 3.9866485071327878e-01 3.3669397798196304e-02  5.1972526296171564e+00 3.9856792377200367e-01 3.3668629007818175e-02  6.3174905040692630e+00 3.9852999015269791e-01 3.3669730762066169e-02  7.4377149737866199e+00 3.9851431317136127e-01 3.3669877256718377e-02  8.5579203364901595e+00 3.9850732107734144e-01 3.3669748589367568e-02  9.6781109165882100e+00 3.9850393042619237e-01 3.3669640709396528e-02  1.0798292170470816e+01 3.9850220704374589e-01 3.3669571866583779e-02  1.1918468060685738e+01 3.9850130782098736e-01 3.3669530878780315e-02  1.3038640973004089e+01 3.9850083146637827e-01 3.3669507395807666e-02  1.4158812254973101e+01 3.9850057706916614e-01 3.3669494326096151e-02  1.5278982651282595e+01 3.9850044065189194e-01 3.3669487159528985e-02  1.6399152568638335e+01 3.9850036738094702e-01 3.3669483258736602e-02  1.7519322227770992e+01 3.9850032805800945e-01 3.3669481148710566e-02  1.8639491748321927e+01 3.9850030708376100e-01 3.3669480018353279e-02  1.9759661195466013e+01 3.9850029615749388e-01 3.3669479428120520e-02  2.0879830605442088e+01 3.9850029096400480e-01 3.3669479149787074e-02  2.2000000000000000e+01 3.9850028944157445e-01 3.3669479068529684e-02  0.0000000000000000e+00 0.0000000000000000e+00 0.0000000000000000e+00  7.2768863494410252e-01 1.7949448555030889e-01 3.4984657898586576e-02  1.8283936981186812e+00 1.9922467486537968e-01 3.4195152413715867e-02  2.9551692317818818e+00 1.9969694450908665e-01 3.4079712934617867e-02  4.0764688788851782e+00 1.9948062592671639e-01 3.4034591909392529e-02  5.1971514696568750e+00 1.9940263996962704e-01 3.4023449229287267e-02  6.3174980071555336e+00 1.9937277671848691e-01 3.4019870133651625e-02  7.4377357846173178e+00 1.9936085200699347e-01 3.4018646944882852e-02  8.5579365051576737e+00 1.9935561174170008e-01 3.4018209355088071e-02  9.6781209677630375e+00 1.9935308080889902e-01 3.4018031735315396e-02  1.0798297944380767e+01 1.9935180470776204e-01 3.4017957247984683e-02  1.1918471271189418e+01 1.9935114165581119e-01 3.4017923667490527e-02  1.3038642730667750e+01 1.9935079101035941e-01 3.4017907371835174e-02  1.4158813209557218e+01 1.9935060391365031e-01 3.4017899205568046e-02  1.5278983167494076e+01 1.9935050363664730e-01 3.4017895010980286e-02  1.6399152846949292e+01 1.9935044979109784e-01 3.4017892815371896e-02  1.7519322377128187e+01 1.9935042089666494e-01 3.4017891655735322e-02  1.8639491827428014e+01 1.9935040548541308e-01 3.4017891043757784e-02  1.9759661235478426e+01 1.9935039745721592e-01 3.4017890727872514e-02  2.0879830622130385e+01 1.9935039363918855e-01 3.4017890582647259e-02  2.2000000000000000e+01 1.9935039251612693e-01 3.4017890538530708e-02  0.0000000000000000e+00 0.0000000000000000e+00 0.0000000000000000e+00  7.2425993911525488e-01 1.2105832856009590e-03 3.5345567299853921e-02  1.8235166820992819e+00 3.4125388481896275e-04 3.4646628795338426e-02  2.9543544217228646e+00 3.0134020376751061e-04 3.4461341428931924e-02  4.0763797246385893e+00 2.4394009534021540e-04 3.4383288278784424e-02  5.1972033065165935e+00 2.2645709830691215e-04 3.4372859449485760e-02  6.3175613782042399e+00 2.1468723411490140e-04 3.4368427431176365e-02  7.4377789151022293e+00 2.0810805319385157e-04 3.4366897768712171e-02  8.5579623929443702e+00 2.0462583158915607e-04 3.4366489096610997e-02  9.6781356072581470e+00 2.0271980266301374e-04 3.4366357893474836e-02  1.0798306020416936e+01 2.0169302138602475e-04 3.4366317966302282e-02  1.1918475676873562e+01 2.0113946934110526e-04 3.4366306090649626e-02  1.3038645119414287e+01 2.0084092473321449e-04 3.4366302735763937e-02  1.4158814500498652e+01 2.0068002406759989e-04 3.4366301921632474e-02  1.5278983863889390e+01 2.0059333657234584e-04 3.4366301795572242e-02  1.6399153221941937e+01 2.0054666054787138e-04 3.4366301827965698e-02  1.7519322578244871e+01 2.0052157749481255e-04 3.4366301878579579e-02  1.8639491933918869e+01 2.0050818864916949e-04 3.4366301916719653e-02  1.9759661289339395e+01 2.0050121006685390e-04 3.4366301941369005e-02  2.0879830644620267e+01 2.0049788598766054e-04 3.4366301957437173e-02  2.2000000000000000e+01 2.0049690534286365e-04 3.4366301959675861e-02  0.0000000000000000e+00 0.0000000000000000e+00 0.0000000000000000e+00  7.2932524081242989e-01 -1.7707839322480998e-01 3.5492562998591097e-02  1.8283399086101990e+00 -1.9852674216014732e-01 3.4960188552613333e-02  2.9564745991398009e+00 -1.9909591529886453e-01 3.4742799939722575e-02  4.0771384113348166e+00 -1.9896798220952114e-01 3.4713830727896050e-02  5.1974943327112832e+00 -1.9894011308594953e-01 3.4716821272668619e-02  6.3176933353517821e+00 -1.9893905533397904e-01 3.4715063940745895e-02  7.4378404832749005e+00 -1.9894220998880469e-01 3.4714585430307601e-02  8.5579933956087011e+00 -1.9894507356968455e-01 3.4714604426838519e-02  9.6781516620039127e+00 -1.9894695141418284e-01 3.4714633919722855e-02  1.0798314489857445e+01 -1.9894804809429212e-01 3.4714663868898099e-02  1.1918480194380592e+01 -1.9894866342748657e-01 3.4714684539137994e-02  1.3038647540007249e+01 -1.9894900184835940e-01 3.4714697235925886e-02  1.4158815800854468e+01 -1.9894918605653822e-01 3.4714704569112430e-02  1.5278984563257900e+01 -1.9894928580812130e-01 3.4714708669449715e-02  1.6399153597953099e+01 -1.9894933966007980e-01 3.4714710930665860e-02  1.7519322779749448e+01 -1.9894936863903590e-01 3.4714712163929892e-02  1.8639492040575707e+01 -1.9894938411897400e-01 3.4714712828257561e-02  1.9759661343280136e+01 -1.9894939219217050e-01 3.4714713177408804e-02  2.0879830667153190e+01 -1.9894939604158476e-01 3.4714713346573910e-02  2.2000000000000000e+01 -1.9894939718028115e-01 3.4714713393361969e-02  0.0000000000000000e+00 0.0000000000000000e+00 0.0000000000000000e+00  7.4713158247914147e-01 -3.6151942329195530e-01 3.5724872043664806e-02  1.8396057825627334e+00 -3.9701512145335471e-01 3.4921239306507715e-02  2.9601006547022921e+00 -3.9821614286454238e-01 3.4962227580407602e-02  4.0783169433036486e+00 -3.9810046343873956e-01 3.5052793563841209e-02  5.1978676926342686e+00 -3.9808346284293145e-01 3.5057261609191044e-02  6.3178329046631116e+00 -3.9808382732530473e-01 3.5060675534500124e-02  7.4378986806729968e+00 -3.9808905744093670e-01 3.5062184399482464e-02  8.5580197966760156e+00 -3.9809330727151765e-01 3.5062675287861750e-02  9.6781645179061613e+00 -3.9809592684756989e-01 3.5062910317870337e-02  1.0798321053129181e+01 -3.9809744274337588e-01 3.5063016519309265e-02  1.1918483630165408e+01 -3.9809828746976933e-01 3.5063068880548047e-02  1.3038649362685300e+01 -3.9809875036761072e-01 3.5063095683582575e-02  1.4158816775097440e+01 -3.9809900193656805e-01 3.5063109563370033e-02  1.5278985085877856e+01 -3.9809913805658703e-01 3.5063116889244142e-02  1.6399153878558543e+01 -3.9809921151300515e-01 3.5063120787673770e-02  1.7519322930024394e+01 -3.9809925103330523e-01 3.5063122866381594e-02  1.8639492120092569e+01 -3.9809927214211172e-01 3.5063123970895678e-02  1.9759661383493491e+01 -3.9809928315076515e-01 3.5063124545108737e-02  2.0879830683957653e+01 -3.9809928840104675e-01 3.5063124820722873e-02  2.2000000000000000e+01 -3.9809928995357485e-01 3.5063124903318421e-02  0.0000000000000000e+00 0.0000000000000000e+00 0.0000000000000000e+00  7.7067328196989771e-01 -5.5247163621913897e-01 3.3185403814628152e-02  1.8461758497150607e+00 -5.9424522012910930e-01 3.4452466532896721e-02  2.9621232151002528e+00 -5.9725957463234158e-01 3.5463801619688581e-02  4.0789284891866791e+00 -5.9718064925513403e-01 3.5379435058818000e-02  5.1980287045039351e+00 -5.9719482417469472e-01 3.5393938470750987e-02  6.3178959208798355e+00 -5.9722219643516761e-01 3.5408862316367092e-02  7.4379243697619746e+00 -5.9723358964267659e-01 3.5409807191350756e-02  8.5580307488634837e+00 -5.9724050454135713e-01 3.5410850915740456e-02  9.6781697897670345e+00 -5.9724446774586271