<?xml version="1.0"?>
<VTKFile type="UnstructuredGrid"  version="0.1"  >
<UnstructuredGrid>
<Piece  NumberOfPoints="588" NumberOfCells="2160">
<Points>
<DataArray  type="Float64"  NumberOfComponents="3"  format="ascii">0 0 0  0.5 0 0  1 0 0  1.5 0 0  2 0 0  2.5 0 0  3 0 0  3.5 0 0  4 0 0  4.5 0 0  5 0 0  5.5 0 0  6 0 0  6.5 0 0  7 0 0  7.5 0 0  8 0 0  8.5 0 0  9 0 0  9.5 0 0  10 0 0  0 0.5 0  0.5 0.5 0  1 0.5 0  1.5 0.5 0  2 0.5 0  2.5 0.5 0  3 0.5 0  3.5 0.5 0  4 0.5 0  4.5 0.5 0  5 0.5 0  5.5 0.5 0  6 0.5 0  6.5 0.5 0  7 0.5 0  7.5 0.5 0  8 0.5 0  8.5 0.5 0  9 0.5 0  9.5 0.5 0  10 0.5 0  0 1 0  0.5 1 0  1 1 0  1.5 1 0  2 1 0  2.5 1 0  3 1 0  3.5 1 0  4 1 0  4.5 1 0  5 1 0  5.5 1 0  6 1 0  6.5 1 0  7 1 0  7.5 1 0  8 1 0  8.5 1 0  9 1 0  9.5 1 0  10 1 0  0 1.5 0  0.5 1.5 0  1 1.5 0  1.5 1.5 0  2 1.5 0  2.5 1.5 0  3 1.5 0  3.5 1.5 0  4 1.5 0  4.5 1.5 0  5 1.5 0  5.5 1.5 0  6 1.5 0  6.5 1.5 0  7 1.5 0  7.5 1.5 0  8 1.5 0  8.5 1.5 0  9 1.5 0  9.5 1.5 0  10 1.5 0  0 2 0  0.5 2 0  1 2 0  1.5 2 0  2 2 0  2.5 2 0  3 2 0  3.5 2 0  4 2 0  4.5 2 0  5 2 0  5.5 2 0  6 2 0  6.5 2 0  7 2 0  7.5 2 0  8 2 0  8.5 2 0  9 2 0  9.5 2 0  10 2 0  0 2.5 0  0.5 2.5 0  1 2.5 0  1.5 2.5 0  2 2.5 0  2.5 2.5 0  3 2.5 0  3.5 2.5 0  4 2.5 0  4.5 2.5 0  5 2.5 0  5.5 2.5 0  6 2.5 0  6.5 2.5 0  7 2.5 0  7.5 2.5 0  8 2.5 0  8.5 2.5 0  9 2.5 0  9.5 2.5 0  10 2.5 0  0 3 0  0.5 3 0  1 3 0  1.5 3 0  2 3 0  2.5 3 0  3 3 0  3.5 3 0  4 3 0  4.5 3 0  5 3 0  5.5 3 0  6 3 0  6.5 3 0  7 3 0  7.5 3 0  8 3 0  8.5 3 0  9 3 0  9.5 3 0  10 3 0  0 0 0.1666666666666667  0.5 0 0.1666666666666667  1 0 0.1666666666666667  1.5 0 0.1666666666666667  2 0 0.1666666666666667  2.5 0 0.1666666666666667  3 0 0.1666666666666667  3.5 0 0.1666666666666667  4 0 0.1666666666666667  4.5 0 0.1666666666666667  5 0 0.1666666666666667  5.5 0 0.1666666666666667  6 0 0.1666666666666667  6.5 0 0.1666666666666667  7 0 0.1666666666666667  7.5 0 0.1666666666666667  8 0 0.1666666666666667  8.5 0 0.1666666666666667  9 0 0.1666666666666667  9.5 0 0.1666666666666667  10 0 0.1666666666666667  0 0.5 0.1666666666666667  0.5 0.5 0.1666666666666667  1 0.5 0.1666666666666667  1.5 0.5 0.1666666666666667  2 0.5 0.1666666666666667  2.5 0.5 0.1666666666666667  3 0.5 0.1666666666666667  3.5 0.5 0.1666666666666667  4 0.5 0.1666666666666667  4.5 0.5 0.1666666666666667  5 0.5 0.1666666666666667  5.5 0.5 0.1666666666666667  6 0.5 0.1666666666666667  6.5 0.5 0.1666666666666667  7 0.5 0.1666666666666667  7.5 0.5 0.1666666666666667  8 0.5 0.1666666666666667  8.5 0.5 0.1666666666666667  9 0.5 0.1666666666666667  9.5 0.5 0.1666666666666667  10 0.5 0.1666666666666667  0 1 0.1666666666666667  0.5 1 0.1666666666666667  1 1 0.1666666666666667  1.5 1 0.1666666666666667  2 1 0.1666666666666667  2.5 1 0.1666666666666667  3 1 0.1666666666666667  3.5 1 0.1666666666666667  4 1 0.1666666666666667  4.5 1 0.1666666666666667  5 1 0.1666666666666667  5.5 1 0.1666666666666667  6 1 0.1666666666666667  6.5 1 0.1666666666666667  7 1 0.1666666666666667  7.5 1 0.1666666666666667  8 1 0.1666666666666667  8.5 1 0.1666666666666667  9 1 0.1666666666666667  9.5 1 0.1666666666666667  10 1 0.1666666666666667  0 1.5 0.1666666666666667  0.5 1.5 0.1666666666666667  1 1.5 0.1666666666666667  1.5 1.5 0.1666666666666667  2 1.5 0.1666666666666667  2.5 1.5 0.1666666666666667  3 1.5 0.1666666666666667  3.5 1.5 0.1666666666666667  4 1.5 0.1666666666666667  4.5 1.5 0.1666666666666667  5 1.5 0.1666666666666667  5.5 1.5 0.1666666666666667  6 1.5 0.1666666666666667  6.5 1.5 0.1666666666666667  7 1.5 0.1666666666666667  7.5 1.5 0.1666666666666667  8 1.5 0.1666666666666667  8.5 1.5 0.1666666666666667  9 1.5 0.1666666666666667  9.5 1.5 0.1666666666666667  10 1.5 0.1666666666666667  0 2 0.1666666666666667  0.5 2 0.1666666666666667  1 2 0.1666666666666667  1.5 2 0.1666666666666667  2 2 0.1666666666666667  2.5 2 0.1666666666666667  3 2 0.1666666666666667  3.5 2 0.1666666666666667  4 2 0.1666666666666667  4.5 2 0.1666666666666667  5 2 0.1666666666666667  5.5 2 0.1666666666666667  6 2 0.1666666666666667  6.5 2 0.1666666666666667  7 2 0.1666666666666667  7.5 2 0.1666666666666667  8 2 0.1666666666666667  8.5 2 0.1666666666666667  9 2 0.1666666666666667  9.5 2 0.1666666666666667  10 2 0.1666666666666667  0 2.5 0.1666666666666667  0.5 2.5 0.1666666666666667  1 2.5 0.1666666666666667  1.5 2.5 0.1666666666666667  2 2.5 0.1666666666666667  2.5 2.5 0.1666666666666667  3 2.5 0.1666666666666667  3.5 2.5 0.1666666666666667  4 2.5 0.1666666666666667  4.5 2.5 0.1666666666666667  5 2.5 0.1666666666666667  5.5 2.5 0.1666666666666667  6 2.5 0.1666666666666667  6.5 2.5 0.1666666666666667  7 2.5 0.1666666666666667  7.5 2.5 0.1666666666666667  8 2.5 0.1666666666666667  8.5 2.5 0.1666666666666667  9 2.5 0.1666666666666667  9.5 2.5 0.1666666666666667  10 2.5 0.1666666666666667  0 3 0.1666666666666667  0.5 3 0.1666666666666667  1 3 0.1666666666666667  1.5 3 0.1666666666666667  2 3 0.1666666666666667  2.5 3 0.1666666666666667  3 3 0.1666666666666667  3.5 3 0.1666666666666667  4 3 0.1666666666666667  4.5 3 0.1666666666666667  5 3 0.1666666666666667  5.5 3 0.1666666666666667  6 3 0.1666666666666667  6.5 3 0.1666666666666667  7 3 0.1666666666666667  7.5 3 0.1666666666666667  8 3 0.1666666666666667  8.5 3 0.1666666666666667  9 3 0.1666666666666667  9.5 3 0.1666666666666667  10 3 0.1666666666666667  0 0 0.3333333333333333  0.5 0 0.3333333333333333  1 0 0.3333333333333333  1.5 0 0.3333333333333333  2 0 0.3333333333333333  2.5 0 0.3333333333333333  3 0 0.3333333333333333  3.5 0 0.3333333333333333  4 0 0.3333333333333333  4.5 0 0.3333333333333333  5 0 0.3333333333333333  5.5 0 0.3333333333333333  6 0 0.3333333333333333  6.5 0 0.3333333333333333  7 0 0.3333333333333333  7.5 0 0.3333333333333333  8 0 0.3333333333333333  8.5 0 0.3333333333333333  9 0 0.3333333333333333  9.5 0 0.3333333333333333  10 0 0.3333333333333333  0 0.5 0.3333333333333333  0.5 0.5 0.3333333333333333  1 0.5 0.3333333333333333  1.5 0.5 0.3333333333333333  2 0.5 0.3333333333333333  2.5 0.5 0.3333333333333333  3 0.5 0.3333333333333333  3.5 0.5 0.3333333333333333  4 0.5 0.3333333333333333  4.5 0.5 0.3333333333333333  5 0.5 0.3333333333333333  5.5 0.5 0.3333333333333333  6 0.5 0.3333333333333333  6.5 0.5 0.3333333333333333  7 0.5 0.3333333333333333  7.5 0.5 0.3333333333333333  8 0.5 0.3333333333333333  8.5 0.5 0.3333333333333333  9 0.5 0.3333333333333333  9.5 0.5 0.3333333333333333  10 0.5 0.3333333333333333  0 1 0.3333333333333333  0.5 1 0.3333333333333333  1 1 0.3333333333333333  1.5 1 0.3333333333333333  2 1 0.3333333333333333  2.5 1 0.3333333333333333  3 1 0.3333333333333333  3.5 1 0.3333333333333333  4 1 0.3333333333333333  4.5 1 0.3333333333333333  5 1 0.3333333333333333  5.5 1 0.3333333333333333  6 1 0.3333333333333333  6.5 1 0.3333333333333333  7 1 0.3333333333333333  7.5 1 0.3333333333333333  8 1 0.3333333333333333  8.5 1 0.3333333333333333  9 1 0.3333333333333333  9.5 1 0.3333333333333333  10 1 0.3333333333333333  0 1.5 0.3333333333333333  0.5 1.5 0.3333333333333333  1 1.5 0.3333333333333333  1.5 1.5 0.3333333333333333  2 1.5 0.3333333333333333  2.5 1.5 0.3333333333333333  3 1.5 0.3333333333333333  3.5 1.5 0.3333333333333333  4 1.5 0.3333333333333333  4.5 1.5 0.3333333333333333  5 1.5 0.3333333333333333  5.5 1.5 0.3333333333333333  6 1.5 0.3333333333333333  6.5 1.5 0.3333333333333333  7 1.5 0.3333333333333333  7.5 1.5 0.3333333333333333  8 1.5 0.3333333333333333  8.5 1.5 0.3333333333333333  9 1.5 0.3333333333333333  9.5 1.5 0.3333333333333333  10 1.5 0.3333333333333333  0 2 0.3333333333333333  0.5 2 0.3333333333333333  1 2 0.3333333333333333  1.5 2 0.3333333333333333  2 2 0.3333333333333333  2.5 2 0.3333333333333333  3 2 0.3333333333333333  3.5 2 0.3333333333333333  4 2 0.3333333333333333  4.5 2 0.3333333333333333  5 2 0.3333333333333333  5.5 2 0.3333333333333333  6 2 0.3333333333333333  6.5 2 0.3333333333333333  7 2 0.3333333333333333  7.5 2 0.3333333333333333  8 2 0.3333333333333333  8.5 2 0.3333333333333333  9 2 0.3333333333333333  9.5 2 0.3333333333333333  10 2 0.3333333333333333  0 2.5 0.3333333333333333  0.5 2.5 0.3333333333333333  1 2.5 0.3333333333333333  1.5 2.5 0.3333333333333333  2 2.5 0.3333333333333333  2.5 2.5 0.3333333333333333  3 2.5 0.3333333333333333  3.5 2.5 0.3333333333333333  4 2.5 0.3333333333333333  4.5 2.5 0.3333333333333333  5 2.5 0.3333333333333333  5.5 2.5 0.3333333333333333  6 2.5 0.3333333333333333  6.5 2.5 0.3333333333333333  7 2.5 0.3333333333333333  7.5 2.5 0.3333333333333333  8 2.5 0.3333333333333333  8.5 2.5 0.3333333333333333  9 2.5 0.3333333333333333  9.5 2.5 0.3333333333333333  10 2.5 0.3333333333333333  0 3 0.3333333333333333  0.5 3 0.3333333333333333  1 3 0.3333333333333333  1.5 3 0.3333333333333333  2 3 0.3333333333333333  2.5 3 0.3333333333333333  3 3 0.3333333333333333  3.5 3 0.3333333333333333  4 3 0.3333333333333333  4.5 3 0.3333333333333333  5 3 0.3333333333333333  5.5 3 0.3333333333333333  6 3 0.3333333333333333  6.5 3 0.3333333333333333  7 3 0.3333333333333333  7.5 3 0.3333333333333333  8 3 0.3333333333333333  8.5 3 0.3333333333333333  9 3 0.3333333333333333  9.5 3 0.3333333333333333  10 3 0.3333333333333333  0 0 0.5  0.5 0 0.5  1 0 0.5  1.5 0 0.5  2 0 0.5  2.5 0 0.5  3 0 0.5  3.5 0 0.5  4 0 0.5  4.5 0 0.5  5 0 0.5  5.5 0 0.5  6 0 0.5  6.5 0 0.5  7 0 0.5  7.5 0 0.5  8 0 0.5  8.5 0 0.5  9 0 0.5  9.5 0 0.5  10 0 0.5  0 0.5 0.5  0.5 0.5 0.5  1 0.5 0.5  1.5 0.5 0.5  2 0.5 0.5  2.5 0.5 0.5  3 0.5 0.5  3.5 0.5 0.5  4 0.5 0.5  4.5 0.5 0.5  5 0.5 0.5  5.5 0.5 0.5  6 0.5 0.5  6.5 0.5 0.5  7 0.5 0.5  7.5 0.5 0.5  8 0.5 0.5  8.5 0.5 0.5  9 0.5 0.5  9.5 0.5 0.5  10 0.5 0.5  0 1 0.5  0.5 1 0.5  1 1 0.5  1.5 1 0.5  2 1 0.5  2.5 1 0.5  3 1 0.5  3.5 1 0.5  4 1 0.5  4.5 1 0.5  5 1 0.5  5.5 1 0.5  6 1 0.5  6.5 1 0.5  7 1 0.5  7.5 1 0.5  8 1 0.5  8.5 1 0.5  9 1 0.5  9.5 1 0.5  10 1 0.5  0 1.5 0.5  0.5 1.5 0.5  1 1.5 0.5  1.5 1.5 0.5  2 1.5 0.5  2.5 1.5 0.5  3 1.5 0.5  3.5 1.5 0.5  4 1.5 0.5  4.5 1.5 0.5  5 1.5 0.5  5.5 1.5 0.5  6 1.5 0.5  6.5 1.5 0.5  7 1.5 0.5  7.5 1.5 0.5  8 1.5 0.5  8.
[...]
<PointData  Vectors="f_7-0"> 
<DataArray  type="Float64"  Name="f_7-0"  NumberOfComponents="3" format="ascii">0.0000000000000000e+00 0.0000000000000000e+00 0.0000000000000000e+00  8.3911682883758665e-01 5.8705621845273992e-01 1.0176843429975559e-01  2.0581118007461363e+00 6.2235065638966081e-01 1.0215230179510583e-01  3.3010308065891056e+00 6.2304611981755686e-01 1.0287174140029320e-01  4.5465984862069373e+00 6.2286452154543948e-01 1.0299309538268937e-01  5.7934892560389653e+00 6.2279026839444873e-01 1.0301928426488580e-01  7.0406281334446872e+00 6.2275581196768082e-01 1.0302810377850571e-01  8.2877787011737869e+00 6.2273963093105000e-01 1.0302925586912211e-01  9.5349089673312797e+00 6.2273163926103403e-01 1.0302905926000917e-01  1.0782021416065577e+01 6.2272752306546120e-01 1.0302876603193982e-01  1.2029122310859702e+01 6.2272537358193170e-01 1.0302854179672957e-01  1.3276216465934375e+01 6.2272424089464640e-01 1.0302840181096434e-01  1.4523306875225842e+01 6.2272364022153148e-01 1.0302832186945755e-01  1.5770395245653956e+01 6.2272332081510751e-01 1.0302827767017063e-01  1.7017482517233447e+01 6.2272315076197049e-01 1.0302825361399036e-01  1.8264569199754447e+01 6.2272306019628354e-01 1.0302824065165833e-01  1.9511655567622604e+01 6.2272301202930147e-01 1.0302823371482429e-01  2.0758741768201762e+01 6.2272298656996927e-01 1.0302823003593371e-01  2.2005827880961309e+01 6.2272297341743554e-01 1.0302822813128136e-01  2.3252913949605230e+01 6.2272296721366371e-01 1.0302822723250252e-01  2.4499999999999993e+01 6.2272296539929439e-01 1.0302822695721119e-01  0.0000000000000000e+00 0.0000000000000000e+00 0.0000000000000000e+00  8.2789394053756549e-01 3.8630969041798635e-01 1.0395657416202798e-01  2.0524208413304836e+00 4.1543021175170025e-01 1.0316215537030834e-01  3.2998746566005113e+00 4.1570307120809613e-01 1.0340147505773975e-01  4.5463337516729867e+00 4.1542336144316550e-01 1.0344205760145544e-01  5.7934478863629026e+00 4.1533646911374128e-01 1.0344439089914872e-01  7.0406336201492845e+00 4.1530146000513130e-01 1.0344540492478876e-01  8.2877882623640584e+00 4.1528683148605827e-01 1.0344494943519225e-01  9.5349159351669428e+00 4.1528027107118309e-01 1.0344437744888145e-01  1.0782025665057082e+01 4.1527706637072193e-01 1.0344399647849818e-01  1.2029124720020093e+01 4.1527544234020747e-01 1.0344377211523227e-01  1.3276217789268287e+01 4.1527460062180527e-01 1.0344364654286761e-01  1.4523307591637350e+01 4.1527415817776447e-01 1.0344357768092514e-01  1.5770395630672777e+01 4.1527392400056962e-01 1.0344354040176638e-01  1.7017482723329021e+01 4.1527379962022387e-01 1.0344352037223102e-01  1.8264569309760933e+01 4.1527373346002955e-01 1.0344350965240533e-01  1.9511655626085268e+01 4.1527369829551791e-01 1.0344350393575213e-01  2.0758741798882529e+01 4.1527367971465612e-01 1.0344350091033047e-01  2.2005827896353829e+01 4.1527367011801636e-01 1.0344349934612095e-01  2.3252913955987207e+01 4.1527366558943651e-01 1.0344349861313736e-01  2.4499999999999993e+01 4.1527366427222862e-01 1.0344349840086854e-01  0.0000000000000000e+00 0.0000000000000000e+00 0.0000000000000000e+00  8.1735261463313946e-01 1.9186532313598886e-01 1.0618575427107339e-01  2.0427355869629000e+00 2.0808640944085530e-01 1.0412185029459205e-01  3.2977593684542539e+00 2.0817305188348867e-01 1.0396624606426090e-01  4.5458742799826055e+00 2.0793801395946390e-01 1.0389066289093084e-01  5.7933924919863236e+00 2.0787173575039569e-01 1.0386893716136773e-01  7.0406599837309978e+00 2.0784502270423191e-01 1.0386268745585803e-01  8.2878160761400856e+00 2.0783402341031934e-01 1.0386034345541356e-01  9.5349347348818529e+00 2.0782918549350099e-01 1.0385948177390081e-01  1.0782036788114038e+01 2.0782683628491205e-01 1.0385910801681308e-01  1.2029130946295915e+01 2.0782565366896188e-01 1.0385893805019902e-01  1.3276221189929423e+01 2.0782504235908086e-01 1.0385885612589107e-01  1.4523309427496040e+01 2.0782472152412051e-01 1.0385881452551834e-01  1.5770396615897663e+01 2.0782455185245427e-01 1.0385879299409165e-01  1.7017483250319135e+01 2.0782446176582556e-01 1.0385878171448910e-01  1.8264569590946980e+01 2.0782441385591721e-01 1.0385877575770595e-01  1.9511655775495264e+01 2.0782438839378742e-01 1.0385877260455254e-01  2.0758741877288092e+01 2.0782437493993541e-01 1.0385877094338092e-01  2.2005827935696264e+01 2.0782436799127915e-01 1.0385877008784695e-01  2.3252913972300682e+01 2.0782436470978410e-01 1.0385876969582289e-01  2.4499999999999993e+01 2.0782436374811208e-01 1.0385876957903299e-01  0.0000000000000000e+00 0.0000000000000000e+00 0.0000000000000000e+00  8.1389217374380207e-01 1.3325657230491622e-03 1.0702292848851887e-01  2.0384067155830428e+00 5.5879701368690522e-04 1.0467503509558289e-01  3.2971528174647524e+00 4.7183974777360768e-04 1.0442683983902334e-01  4.5459024190625525e+00 4.1343022246366967e-04 1.0431581205191530e-01  5.7934817382880803e+00 3.9996076283832337e-04 1.0428441377480728e-01  7.0407406213565240e+00 3.8851462835275829e-04 1.0427723324939961e-01  8.2878660994953055e+00 3.8215239722862301e-04 1.0427492324167663e-01  9.5349635050068180e+00 3.7888753111671518e-04 1.0427427637066884e-01  1.0782052727759929e+01 3.7710462419882968e-04 1.0427409858232313e-01  1.2029139600169959e+01 3.7615171799362394e-04 1.0427405333150212e-01  1.3276225848032567e+01 3.7564295467276806e-04 1.0427404197150442e-01  1.4523311924085583e+01 3.7537121657064482e-04 1.0427403972072934e-01  1.5770397950717959e+01 3.7522620849880610e-04 1.0427403968843096e-01  1.7017483962955620e+01 3.7514885013999828e-04 1.0427403999613551e-01  1.8264569970828642e+01 3.7510760655880135e-04 1.0427404025260706e-01  1.9511655977252765e+01 3.7508565869509488e-04 1.0427404041725892e-01  2.0758741983143111e+01 3.7507405323990238e-04 1.0427404051372335e-01  2.2005827988812175e+01 3.7506805581645497e-04 1.0427404056847384e-01  2.3252913994352582e+01 3.7506521754269940e-04 1.0427404060678826e-01  2.4499999999999993e+01 3.7506438087275856e-04 1.0427404061308242e-01  0.0000000000000000e+00 0.0000000000000000e+00 0.0000000000000000e+00  8.1874244927022011e-01 -1.8905895921636459e-01 1.0668930682965766e-01  2.0430534674197833e+00 -2.0696708183021018e-01 1.0494801973162031e-01  3.2991845352007076e+00 -2.0723878970275639e-01 1.0473306551418526e-01  4.5466526732552346e+00 -2.0708062163360402e-01 1.0470032623232198e-01  5.7937748834442591e+00 -2.0706206587849696e-01 1.0468940975271147e-01  7.0408787535448623e+00 -2.0706389203797787e-01 1.0468886441287900e-01  8.2879312731347774e+00 -2.0706723011935457e-01 1.0468862929802590e-01  9.5349964887372849e+00 -2.0707013158550913e-01 1.0468882608707708e-01  1.0782069836064794e+01 -2.0707195301612169e-01 1.0468902819679698e-01  1.2029148570120354e+01 -2.0707299067625304e-01 1.0468915229483149e-01  1.3276230595937166e+01 -2.0707356516243602e-01 1.0468922416170048e-01  1.4523314446473689e+01 -2.0707387713014785e-01 1.0468926450529360e-01  1.5770399293173062e+01 -2.0707404506127108e-01 1.0468928658625554e-01  1.7017484678030169e+01 -2.0707413505811120e-01 1.0468929850594320e-01  1.8264570351565286e+01 -2.0707418315004308e-01 1.0468930490473081e-01  1.9511656179344698e+01 -2.0707420877362659e-01 1.0468930832450613e-01  2.0758742089144665e+01 -2.0707422233208211e-01 1.0468931013796431e-01  2.2005828042000367e+01 -2.0707422934298222e-01 1.0468931107849239e-01  2.3252914016446024e+01 -2.0707423266453584e-01 1.0468931153297557e-01  2.4499999999999993e+01 -2.0707423364627001e-01 1.0468931166008887e-01  0.0000000000000000e+00 0.0000000000000000e+00 0.0000000000000000e+00  8.3542630620597580e-01 -3.8489511737226728e-01 1.0590969548937020e-01  2.0538375127812429e+00 -4.1417673911644648e-01 1.0472054868357183e-01  3.3024642109236506e+00 -4.1463542279599314e-01 1.0490412526527156e-01  4.5477271394566019e+00 -4.1450599542620498e-01 1.0508469955494044e-01  5.7941326398562003e+00 -4.1450674077463096e-01 1.0509143266221319e-01  7.0410145026722386e+00 -4.1450732756178693e-01 1.0509870978760731e-01  8.2879899002969672e+00 -4.1451338508447994e-01 1.0510224204703557e-01  9.5350237862803624e+00 -4.1451778889432889e-01 1.0510341446120373e-01  1.0782083260183592e+01 -4.1452034195486753e-01 1.0510400225930865e-01  1.2029155434841320e+01 -4.1452180237700725e-01 1.0510428493308835e-01  1.3276234178591922e+01 -4.1452260316881301e-01 1.0510442708541370e-01  1.4523316335086848e+01 -4.1452303636979843e-01 1.0510450119624001e-01  1.5770400294452900e+01 -4.1452326928776984e-01 1.0510454005896609e-01  1.7017485210319951e+01 -4.1452339399072641e-01 1.0510456058969933e-01  1.8264570634689914e+01 -4.1452346060096962e-01 1.0510457148699621e-01  1.9511656329548142e+01 -4.1452349608447758e-01 1.0510457727164871e-01  2.0758742167912061e+01 -4.1452351485797012e-01 1.0510458032618183e-01  2.2005828081523219e+01 -4.1452352456487279e-01 1.0510458190401759e-01  2.3252914032870052e+01 -4.1452352916507418e-01 1.0510458265777463e-01  2.4499999999999993e+01 -4.1452353052155810e-01 1.0510458287732283e-01  0.0000000000000000e+00 0.0000000000000000e+00 0.0000000000000000e+00  8.6269804374279102e-01 -5.8604284721149014e-01 1.0072947123051222e-01  2.0593614324945584e+00 -6.2023993570210045e-01 1.0341673950460714e-01  3.3041994873095479e+00 -6.2186179822172849e-01 1.0549005164339408e-01  4.5483347468161996e+00 -6.2191379432366767e-01 1.0548939804597944e-01  5.7942791489088536e+00 -6.2192347258083081e-01 1.0548230498886838e-01  7.0410724022090214e+00 -6.2194475377867064e-01 1.0551262614088452e-01  8.2880157990279368e+00 -6.2195784547784083e-01 1.0551653309405348e-01  9.5350348498819244e+00 -6.2196450387348556e-01 1.0551824315292890e-01  1.0782088648323702e+01 -6.2196834967206971e-01 1.0551912568614402e-01  1.2029158169956007e+01 -6.2197043209281133e-01 1.0551948789757119e-01  1.3276235593880344e+01 -6.2197154859386716e-01 1.0551966712617174e-01  1.4523317078997819e+01 -6.2197214806268730e-01 1.0551975743323226e-01  1.5770400688167097e+01 -6.2197246856426314e-01 1.0551980383985159e-01  1.7017485419422723e+01 -6.2197263972489569e-01 1.0551982816441176e-01  1.8264570745863434e+01 -6.2197273103720718e-01 1.0551984100012576e-01  1.9511656388514670e+01 -6.2197277964530717e-01 1.0551984778880476e-01  2.0758742198831492e+01 -6.2197280535350441e-01 1.0551985136730431e-01  2.2005828097037444e+01 -6.2197281864377063e-01 1.0551985321415419e-01  2.3252914039312447e+01 -6.2197282494484585e-01 1.0551985408549362e-01  2.4499999999999993e+01 -6.2197282677766585e-01 1.0551985435961181e-01  0.0000000000000000e+00 0.0000000000000000e+00 0.0000000000000000e+00  8.4061596158569940e-01 5.8546061588481657e-01 3.3498820566790988e-02  2.0582169850832810e+00 6.2196746943038450e-01 3.3228999528915032e-02  3.3010222505915174e+00 6.2288988727211347e-01 3.3772705815435670e-02  4.5466010639933900e+00 6.2271739076237431e-01 3.3850971524927505e-02  5.7934890424596421e+00 6.2264878388320410e-01 3.3868733309517465e-02  7.0406280727646164e+00 6.2261677542260963e-01 3.3876831328495401e-02  8.2877787206207287e+00 6.2260106551506522e-01 3.3878361481070922e-02  9.5349089678876151e+00 6.2259318383782480e-01 3.3878594620971043e-02  1.0782021414041706e+01 6.2258910013298630e-01 3.3878602036428423e-02  1.2029122310280947e+01 6.2258695572938039e-01 3.3878556806954188e-02  1.3276216465745629e+01 6.2258582159354281e-01 3.3878517043512024e-02  1.4523306875126190e+01 6.2258521919571219e-01 3.3878491887891916e-02  1.5770395245604995e+01 6.2258489858968125e-01 3.3878477287405520e-02  1.7017482517210581e+01 6.2258472780155882e-01 3.3878469118938985e-02  1.8264569199742660e+01 6.2258463681651754e-01 3.3878464652834853e-02  1.9511655567615335e+01 6.2258458841873143e-01 3.3878462244203440e-02  2.0758741768195836e+01 6.2258456283497121e-01 3.3878460961153274e-02  2.2005827880953142e+01 6.2258454961813081e-01 3.3878460295457158e-02  2.3252913949593470e+01 6.2258454338265590e-01 3.3878459979390471e-02  2.4499999999999993e+01 6.2258454155023646e-01 3.3878459878714094e-02  0.0000000000000000e+00 0.0000000000000000e+00 0.0000000000000000e+00  8.2928775398884091e-01 3.8594407869004671e-01 3.4679561289361650e-02  2.0527189386063993e+00 4.1503344546669407e-01 3.4110744177847471e-02  3.2998926597646494e+00 4.1552720982413960e-01 3.4258222546512146e-02  4.5463265991325041e+00 4.1527539413189191e-01 3.4292011599737521e-02  5.7934488521603740e+00 4.1519496360176089e-01 3.4292745938276199e-02  7.0406337935900449e+00 4.1516241005839766e-01 3.4294003164419579e-02  8.2877882918815775e+00 4.1514829665211350e-01 3.4294121275052179e-02  9.5349159366918617e+00 4.1514184250759933e-01 3.4293997238833140e-02  1.0782025665342280e+01 4.1513865977943359e-01 3.4293891188422528e-02  1.2029124720140299e+01 4.1513703358093484e-01 3.4293821632649005e-02  1.3276217789151755e+01 4.1513618632739124e-01 3.4293781020560986e-02  1.4523307591529051e+01 4.1513573986938018e-01 3.4293758214490516e-02  1.5770395630611949e+01 4.1513550323325760e-01 3.4293745698449160e-02  1.7017482723296006e+01 4.1513537744002860e-01 3.4293738925754824e-02  1.8264569309742491e+01 4.1513531049768188e-01 3.4293735286619380e-02  1.9511655626074489e+01 4.1513527490876140e-01 3.4293733341453483e-02  2.0758741798875175e+01 4.1513525610116941e-01 3.4293732310645857e-02  2.2005827896346542e+01 4.1513524638671712e-01 3.4293731777449966e-02  2.3252913955977821e+01 4.1513524180172762e-01 3.4293731527803566e-02  2.4499999999999993e+01 4.1513524046383354e-01 3.4293731455564379e-02  0.0000000000000000e+00 0.0000000000000000e+00 0.0000000000000000e+00  8.1896882053971642e-01 1.9159235431654467e-01 3.5503010019940190e-02  2.0429635186060171e+00 2.0781184930831875e-01 3.4925092587933970e-02  3.2978404438361784e+00 2.0800499350693741e-01 3.4778892349659703e-02  4.5458527260616002e+00 2.0779454844571954e-01 3.4725631206329675e-02  5.7933950716278497e+00 2.0773177785314517e-01 3.4714784774776332e-02  7.0406602186972238e+00 2.0770638545240375e-01 3.4711048815919972e-02  8.2878160450847140e+00 2.0769563058387813e-01 3.4709719975921434e-02  9.5349347299479899e+00 2.0769082439951556e-01 3.4709302549181857e-02  1.0782036785592345e+01 2.0768845989460033e-01 3.4709135008328312e-02  1.2029130944010587e+01 2.0768725873352245e-01 3.4709064441218393e-02  1.3276221188323024e+01 2.0768663498834156e-01 3.4709033362692751e-02  1.4523309426611569e+01 2.0768630677539091e-01 3.4709018379319494e-02  1.5770396615420827e+01 2.0768613293537408e-01 3.4709010865044729e-02  1.7017483250059808e+01 2.0768604055874387e-01 3.4709007012990012e-02  1.8264569590807316e+01 2.0768599140943322e-01 3.4709005004382273e-02  1.9511655775420412e+01 2.0768596528236330e-01 3.4709003948591777e-02  2.0758741877247878e+01 2.0768595147543154e-01 3.4709003394588808e-02  2.2005827935674095e+01 2.0768594434395868e-01 3.4709003110367391e-02  2.3252913972287850e+01 2.0768594097604176e-01 3.4709002980480783e-02  2.4499999999999993e+01 2.0768593998974222e-01 3.4709002940893130e-02  0.0000000000000000e+00 0.0000000000000000e+00 0.0000000000000000e+00  8.1552066181188687e-01 1.2687451682039405e-03 3.5935861452534856e-02  2.0385338941708064e+00 3.8954022190801504e-04 3.5459309791853647e-02  3.2973023527057701e+00 3.4224882923079386e-04 3.5234272931647527e-02  4.5458635076294946e+00 2.7968901568239420e-04 3.5143295797526133e-02  5.7934845551785985e+00 2.6245855530395497e-04 3.5131332141520533e-02  7.0407409669782393e+00 2.5062355085981062e-04 3.5126476712786042e-02  8.2878659123583081e+00 2.4399852555227522e-04 3.5124841287271981e-02  9.5349634911467902e+00 2.4060107381932729e-04 3.5124445299122745e-02  1.0782052720040916e+01 2.3875223420904539e-04 3.5124320952131895e-02  1.2029139594408189e+01 2.3776524300213076e-04 3.5124286127789089e-02  1.3276225845030483e+01 2.3723889476551639e-04 3.5124276910681158e-02  1.4523311922566752e+01 2.3695788003670121e-04 3.5124274585073265e-02  1.5770397949906963e+01 2.3680793623810797e-04 3.5124274154852052e-02  1.7017483962521091e+01 2.3672795631696160e-04 3.5124274166689812e-02  1.8264569970597584e+01 2.3668531867676772e-04 3.5124274242921305e-02  1.9511655977130271e+01 2.3666262963505796e-04 3.5124274304690041e-02  2.0758741983078870e+01 2.3665063261678137e-04 3.5124274344057800e-02  2.2005827988779924e+01 2.3664443309220399e-04 3.5124274367571914e-02  2.3252913994339185e+01 2.3664150023278751e-04 3.5124274382414368e-02  2.4499999999999993e+01 2.3664063836847810e-04 3.5124274383731828e-02  0.0000000000000000e+00 0.0000000000000000e+00 0.0000000000000000e+00  8.2030419167928859e-01 -1.8911809789959994e-01 3.6149416484696918e-02  2.0431775770102485e+00 -2.0699889790436751e-01 3.5823884291926088e-02  3.2993416193853569e+00 -2.0732188892180503e-01 3.5575760540018951e-02  4.5466027141175891e+00 -2.0721128011295872e-01 3.5541324580766608e-02  5.7937783986694846e+00 -2.0719771186824026e-01 3.5542340833068696e-02  7.0408791227674650e+00 -2.0720096539666435e-01 3.5539964839548202e-02  8.2879309013671882e+00 -2.0720525475645185e-01 3.5539441742456664e-02  9.5349964906530591e+00 -2.0720838607681419e-01 3.5539440284480084e-02  1.0782069821342436e+01 -2.0721029948393585e-01 3.5539465954186465e-02  1.2029148561799271e+01 -2.0721137857866098e-01 3.5539497210900009e-02  1.3276230592410055e+01 -2.0721197098943273e-01 3.5539518050310970e-02  1.4523314444656602e+01 -2.0721229174848893e-01 3.5539530499912701e-02  1.5770399292214563e+01 -2.0721246411808911e-01 3.5539537585889264e-02  1.7017484677524543e+01 -2.0721255639683422e-01 3.5539541480416194e-02  1.8264570351298538e+01 -2.0721260568377570e-01 3.5539543592417629e-02  1.9511656179204117e+01 -2.0721263193689796e-01 3.5539544727988454e-02  2.0758742089071941e+01 -2.0721264582606996e-01 3.5539545332104253e-02  2.2005828041965803e+01 -2.0721265300691893e-01 3.5539545646240366e-02  2.3252914016434875e+01 -2.0721265640794551e-01 3.5539545797417173e-02  2.4499999999999993e+01 -2.0721265741053510e-01 3.5539545838241066e-02  0.0000000000000000e+00 0.0000000000000000e+00 0.0000000000000000e+00  8.3729373831741905e-01 -3.8451415738650635e-01 3.6446757495331314e-02  2.0538629007309455e+00 -4.1399867985023209e-01 3.5799618947601253e-02  3.3026133439841168e+00 -4.1475661259858126e-01 3.5846606744244711e-02  4.5476876965202928e+00 -4.1463909319244158e-01 3.5946316889156234e-02  5.7941318275688509e+00 -4.1463954697679145e-01 3.5948719157781611e-02  7.0410153084302323e+00 -4.1464496611667501e-01 3.5952367750900847e-02  8.2879896111574318e+00 -4.1465147755710652e-01 3.5953955542479911e-02  9.5350237619050713e+00 -4.1465606346181716e-01 3.5954387469744234e-02  1.0782083247453519e+01 -4.1465871435677371e-01 3.5954616165889380e-02  1.2029155427612372e+01 -4.1466020269391124e-01 3.5954717111244670e-02  1.3276234175490938e+01 -4.1466101587153137e-01 3.5954765574511785e-02  1.4523316333540473e+01 -4.1466145479470146e-01 3.5954790514042684e-02  1.5770400293638225e+01 -4.1466169038195549e-01 3.5954803368750766e-02  1.7017485209895426e+01 -4.1466181642380595e-01 3.5954810099001956e-02  1.8264570634467933e+01 -4.1466188372221446e-01 3.5954813656065766e-02  1.9511656329431791e+01 -4.1466191956345783e-01 3.5954815538821697e-02  2.0758742167852976e+01 -4.1466193852372063e-01 3.5954816531256609e-02  2.2005828081497455e+01 -4.1466194832637032e-01 3.5954817043235957e-02  2.3252914032864997e+01 -4.1466195297033898e-01 3.5954817287401020e-02  2.4499999999999993e+01 -4.1466195433899289e-01 3.5954817360532444e-02  0.0000000000000000e+00 0.0000000000000000e+00 0.0000000000000000e+00  8.6001026217033183e-01 -5.8520535995879563e-01 3.4323277848841753e-02  2.0597709491433394e+00 -6.1975183240183185e-01 3.5181035321038778e-02  3.3043899465463689e+00 -6.2214925056734505e-01 3.6414779030606033e-02  4.5482570687056452e+00 -6.2203401382047163e-01 3.6333743497395467e-02  5.7942785991012560e+00 -6.2205337458440424e-01 3.6349666665470959e-02  7.0410753426702657e+00 -6.2208404039788279e-01 3.6367703884467653e-02  8.2880151090743635e+00 -6.2209582145910547e-01 3.6368350158442232e-02  9.5350348087357037e+00 -6.2210282106614390e-01 3.6369428363935974e-02  1.0782088650481141e+01 -6.2210674400897070