<?xml version="1.0"?>
<VTKFile type="UnstructuredGrid"  version="0.1"  >
<UnstructuredGrid>
<Piece  NumberOfPoints="588" NumberOfCells="2160">
<Points>
<DataArray  type="Float64"  NumberOfComponents="3"  format="ascii">0 0 0  0.5 0 0  1 0 0  1.5 0 0  2 0 0  2.5 0 0  3 0 0  3.5 0 0  4 0 0  4.5 0 0  5 0 0  5.5 0 0  6 0 0  6.5 0 0  7 0 0  7.5 0 0  8 0 0  8.5 0 0  9 0 0  9.5 0 0  10 0 0  0 0.5 0  0.5 0.5 0  1 0.5 0  1.5 0.5 0  2 0.5 0  2.5 0.5 0  3 0.5 0  3.5 0.5 0  4 0.5 0  4.5 0.5 0  5 0.5 0  5.5 0.5 0  6 0.5 0  6.5 0.5 0  7 0.5 0  7.5 0.5 0  8 0.5 0  8.5 0.5 0  9 0.5 0  9.5 0.5 0  10 0.5 0  0 1 0  0.5 1 0  1 1 0  1.5 1 0  2 1 0  2.5 1 0  3 1 0  3.5 1 0  4 1 0  4.5 1 0  5 1 0  5.5 1 0  6 1 0  6.5 1 0  7 1 0  7.5 1 0  8 1 0  8.5 1 0  9 1 0  9.5 1 0  10 1 0  0 1.5 0  0.5 1.5 0  1 1.5 0  1.5 1.5 0  2 1.5 0  2.5 1.5 0  3 1.5 0  3.5 1.5 0  4 1.5 0  4.5 1.5 0  5 1.5 0  5.5 1.5 0  6 1.5 0  6.5 1.5 0  7 1.5 0  7.5 1.5 0  8 1.5 0  8.5 1.5 0  9 1.5 0  9.5 1.5 0  10 1.5 0  0 2 0  0.5 2 0  1 2 0  1.5 2 0  2 2 0  2.5 2 0  3 2 0  3.5 2 0  4 2 0  4.5 2 0  5 2 0  5.5 2 0  6 2 0  6.5 2 0  7 2 0  7.5 2 0  8 2 0  8.5 2 0  9 2 0  9.5 2 0  10 2 0  0 2.5 0  0.5 2.5 0  1 2.5 0  1.5 2.5 0  2 2.5 0  2.5 2.5 0  3 2.5 0  3.5 2.5 0  4 2.5 0  4.5 2.5 0  5 2.5 0  5.5 2.5 0  6 2.5 0  6.5 2.5 0  7 2.5 0  7.5 2.5 0  8 2.5 0  8.5 2.5 0  9 2.5 0  9.5 2.5 0  10 2.5 0  0 3 0  0.5 3 0  1 3 0  1.5 3 0  2 3 0  2.5 3 0  3 3 0  3.5 3 0  4 3 0  4.5 3 0  5 3 0  5.5 3 0  6 3 0  6.5 3 0  7 3 0  7.5 3 0  8 3 0  8.5 3 0  9 3 0  9.5 3 0  10 3 0  0 0 0.1666666666666667  0.5 0 0.1666666666666667  1 0 0.1666666666666667  1.5 0 0.1666666666666667  2 0 0.1666666666666667  2.5 0 0.1666666666666667  3 0 0.1666666666666667  3.5 0 0.1666666666666667  4 0 0.1666666666666667  4.5 0 0.1666666666666667  5 0 0.1666666666666667  5.5 0 0.1666666666666667  6 0 0.1666666666666667  6.5 0 0.1666666666666667  7 0 0.1666666666666667  7.5 0 0.1666666666666667  8 0 0.1666666666666667  8.5 0 0.1666666666666667  9 0 0.1666666666666667  9.5 0 0.1666666666666667  10 0 0.1666666666666667  0 0.5 0.1666666666666667  0.5 0.5 0.1666666666666667  1 0.5 0.1666666666666667  1.5 0.5 0.1666666666666667  2 0.5 0.1666666666666667  2.5 0.5 0.1666666666666667  3 0.5 0.1666666666666667  3.5 0.5 0.1666666666666667  4 0.5 0.1666666666666667  4.5 0.5 0.1666666666666667  5 0.5 0.1666666666666667  5.5 0.5 0.1666666666666667  6 0.5 0.1666666666666667  6.5 0.5 0.1666666666666667  7 0.5 0.1666666666666667  7.5 0.5 0.1666666666666667  8 0.5 0.1666666666666667  8.5 0.5 0.1666666666666667  9 0.5 0.1666666666666667  9.5 0.5 0.1666666666666667  10 0.5 0.1666666666666667  0 1 0.1666666666666667  0.5 1 0.1666666666666667  1 1 0.1666666666666667  1.5 1 0.1666666666666667  2 1 0.1666666666666667  2.5 1 0.1666666666666667  3 1 0.1666666666666667  3.5 1 0.1666666666666667  4 1 0.1666666666666667  4.5 1 0.1666666666666667  5 1 0.1666666666666667  5.5 1 0.1666666666666667  6 1 0.1666666666666667  6.5 1 0.1666666666666667  7 1 0.1666666666666667  7.5 1 0.1666666666666667  8 1 0.1666666666666667  8.5 1 0.1666666666666667  9 1 0.1666666666666667  9.5 1 0.1666666666666667  10 1 0.1666666666666667  0 1.5 0.1666666666666667  0.5 1.5 0.1666666666666667  1 1.5 0.1666666666666667  1.5 1.5 0.1666666666666667  2 1.5 0.1666666666666667  2.5 1.5 0.1666666666666667  3 1.5 0.1666666666666667  3.5 1.5 0.1666666666666667  4 1.5 0.1666666666666667  4.5 1.5 0.1666666666666667  5 1.5 0.1666666666666667  5.5 1.5 0.1666666666666667  6 1.5 0.1666666666666667  6.5 1.5 0.1666666666666667  7 1.5 0.1666666666666667  7.5 1.5 0.1666666666666667  8 1.5 0.1666666666666667  8.5 1.5 0.1666666666666667  9 1.5 0.1666666666666667  9.5 1.5 0.1666666666666667  10 1.5 0.1666666666666667  0 2 0.1666666666666667  0.5 2 0.1666666666666667  1 2 0.1666666666666667  1.5 2 0.1666666666666667  2 2 0.1666666666666667  2.5 2 0.1666666666666667  3 2 0.1666666666666667  3.5 2 0.1666666666666667  4 2 0.1666666666666667  4.5 2 0.1666666666666667  5 2 0.1666666666666667  5.5 2 0.1666666666666667  6 2 0.1666666666666667  6.5 2 0.1666666666666667  7 2 0.1666666666666667  7.5 2 0.1666666666666667  8 2 0.1666666666666667  8.5 2 0.1666666666666667  9 2 0.1666666666666667  9.5 2 0.1666666666666667  10 2 0.1666666666666667  0 2.5 0.1666666666666667  0.5 2.5 0.1666666666666667  1 2.5 0.1666666666666667  1.5 2.5 0.1666666666666667  2 2.5 0.1666666666666667  2.5 2.5 0.1666666666666667  3 2.5 0.1666666666666667  3.5 2.5 0.1666666666666667  4 2.5 0.1666666666666667  4.5 2.5 0.1666666666666667  5 2.5 0.1666666666666667  5.5 2.5 0.1666666666666667  6 2.5 0.1666666666666667  6.5 2.5 0.1666666666666667  7 2.5 0.1666666666666667  7.5 2.5 0.1666666666666667  8 2.5 0.1666666666666667  8.5 2.5 0.1666666666666667  9 2.5 0.1666666666666667  9.5 2.5 0.1666666666666667  10 2.5 0.1666666666666667  0 3 0.1666666666666667  0.5 3 0.1666666666666667  1 3 0.1666666666666667  1.5 3 0.1666666666666667  2 3 0.1666666666666667  2.5 3 0.1666666666666667  3 3 0.1666666666666667  3.5 3 0.1666666666666667  4 3 0.1666666666666667  4.5 3 0.1666666666666667  5 3 0.1666666666666667  5.5 3 0.1666666666666667  6 3 0.1666666666666667  6.5 3 0.1666666666666667  7 3 0.1666666666666667  7.5 3 0.1666666666666667  8 3 0.1666666666666667  8.5 3 0.1666666666666667  9 3 0.1666666666666667  9.5 3 0.1666666666666667  10 3 0.1666666666666667  0 0 0.3333333333333333  0.5 0 0.3333333333333333  1 0 0.3333333333333333  1.5 0 0.3333333333333333  2 0 0.3333333333333333  2.5 0 0.3333333333333333  3 0 0.3333333333333333  3.5 0 0.3333333333333333  4 0 0.3333333333333333  4.5 0 0.3333333333333333  5 0 0.3333333333333333  5.5 0 0.3333333333333333  6 0 0.3333333333333333  6.5 0 0.3333333333333333  7 0 0.3333333333333333  7.5 0 0.3333333333333333  8 0 0.3333333333333333  8.5 0 0.3333333333333333  9 0 0.3333333333333333  9.5 0 0.3333333333333333  10 0 0.3333333333333333  0 0.5 0.3333333333333333  0.5 0.5 0.3333333333333333  1 0.5 0.3333333333333333  1.5 0.5 0.3333333333333333  2 0.5 0.3333333333333333  2.5 0.5 0.3333333333333333  3 0.5 0.3333333333333333  3.5 0.5 0.3333333333333333  4 0.5 0.3333333333333333  4.5 0.5 0.3333333333333333  5 0.5 0.3333333333333333  5.5 0.5 0.3333333333333333  6 0.5 0.3333333333333333  6.5 0.5 0.3333333333333333  7 0.5 0.3333333333333333  7.5 0.5 0.3333333333333333  8 0.5 0.3333333333333333  8.5 0.5 0.3333333333333333  9 0.5 0.3333333333333333  9.5 0.5 0.3333333333333333  10 0.5 0.3333333333333333  0 1 0.3333333333333333  0.5 1 0.3333333333333333  1 1 0.3333333333333333  1.5 1 0.3333333333333333  2 1 0.3333333333333333  2.5 1 0.3333333333333333  3 1 0.3333333333333333  3.5 1 0.3333333333333333  4 1 0.3333333333333333  4.5 1 0.3333333333333333  5 1 0.3333333333333333  5.5 1 0.3333333333333333  6 1 0.3333333333333333  6.5 1 0.3333333333333333  7 1 0.3333333333333333  7.5 1 0.3333333333333333  8 1 0.3333333333333333  8.5 1 0.3333333333333333  9 1 0.3333333333333333  9.5 1 0.3333333333333333  10 1 0.3333333333333333  0 1.5 0.3333333333333333  0.5 1.5 0.3333333333333333  1 1.5 0.3333333333333333  1.5 1.5 0.3333333333333333  2 1.5 0.3333333333333333  2.5 1.5 0.3333333333333333  3 1.5 0.3333333333333333  3.5 1.5 0.3333333333333333  4 1.5 0.3333333333333333  4.5 1.5 0.3333333333333333  5 1.5 0.3333333333333333  5.5 1.5 0.3333333333333333  6 1.5 0.3333333333333333  6.5 1.5 0.3333333333333333  7 1.5 0.3333333333333333  7.5 1.5 0.3333333333333333  8 1.5 0.3333333333333333  8.5 1.5 0.3333333333333333  9 1.5 0.3333333333333333  9.5 1.5 0.3333333333333333  10 1.5 0.3333333333333333  0 2 0.3333333333333333  0.5 2 0.3333333333333333  1 2 0.3333333333333333  1.5 2 0.3333333333333333  2 2 0.3333333333333333  2.5 2 0.3333333333333333  3 2 0.3333333333333333  3.5 2 0.3333333333333333  4 2 0.3333333333333333  4.5 2 0.3333333333333333  5 2 0.3333333333333333  5.5 2 0.3333333333333333  6 2 0.3333333333333333  6.5 2 0.3333333333333333  7 2 0.3333333333333333  7.5 2 0.3333333333333333  8 2 0.3333333333333333  8.5 2 0.3333333333333333  9 2 0.3333333333333333  9.5 2 0.3333333333333333  10 2 0.3333333333333333  0 2.5 0.3333333333333333  0.5 2.5 0.3333333333333333  1 2.5 0.3333333333333333  1.5 2.5 0.3333333333333333  2 2.5 0.3333333333333333  2.5 2.5 0.3333333333333333  3 2.5 0.3333333333333333  3.5 2.5 0.3333333333333333  4 2.5 0.3333333333333333  4.5 2.5 0.3333333333333333  5 2.5 0.3333333333333333  5.5 2.5 0.3333333333333333  6 2.5 0.3333333333333333  6.5 2.5 0.3333333333333333  7 2.5 0.3333333333333333  7.5 2.5 0.3333333333333333  8 2.5 0.3333333333333333  8.5 2.5 0.3333333333333333  9 2.5 0.3333333333333333  9.5 2.5 0.3333333333333333  10 2.5 0.3333333333333333  0 3 0.3333333333333333  0.5 3 0.3333333333333333  1 3 0.3333333333333333  1.5 3 0.3333333333333333  2 3 0.3333333333333333  2.5 3 0.3333333333333333  3 3 0.3333333333333333  3.5 3 0.3333333333333333  4 3 0.3333333333333333  4.5 3 0.3333333333333333  5 3 0.3333333333333333  5.5 3 0.3333333333333333  6 3 0.3333333333333333  6.5 3 0.3333333333333333  7 3 0.3333333333333333  7.5 3 0.3333333333333333  8 3 0.3333333333333333  8.5 3 0.3333333333333333  9 3 0.3333333333333333  9.5 3 0.3333333333333333  10 3 0.3333333333333333  0 0 0.5  0.5 0 0.5  1 0 0.5  1.5 0 0.5  2 0 0.5  2.5 0 0.5  3 0 0.5  3.5 0 0.5  4 0 0.5  4.5 0 0.5  5 0 0.5  5.5 0 0.5  6 0 0.5  6.5 0 0.5  7 0 0.5  7.5 0 0.5  8 0 0.5  8.5 0 0.5  9 0 0.5  9.5 0 0.5  10 0 0.5  0 0.5 0.5  0.5 0.5 0.5  1 0.5 0.5  1.5 0.5 0.5  2 0.5 0.5  2.5 0.5 0.5  3 0.5 0.5  3.5 0.5 0.5  4 0.5 0.5  4.5 0.5 0.5  5 0.5 0.5  5.5 0.5 0.5  6 0.5 0.5  6.5 0.5 0.5  7 0.5 0.5  7.5 0.5 0.5  8 0.5 0.5  8.5 0.5 0.5  9 0.5 0.5  9.5 0.5 0.5  10 0.5 0.5  0 1 0.5  0.5 1 0.5  1 1 0.5  1.5 1 0.5  2 1 0.5  2.5 1 0.5  3 1 0.5  3.5 1 0.5  4 1 0.5  4.5 1 0.5  5 1 0.5  5.5 1 0.5  6 1 0.5  6.5 1 0.5  7 1 0.5  7.5 1 0.5  8 1 0.5  8.5 1 0.5  9 1 0.5  9.5 1 0.5  10 1 0.5  0 1.5 0.5  0.5 1.5 0.5  1 1.5 0.5  1.5 1.5 0.5  2 1.5 0.5  2.5 1.5 0.5  3 1.5 0.5  3.5 1.5 0.5  4 1.5 0.5  4.5 1.5 0.5  5 1.5 0.5  5.5 1.5 0.5  6 1.5 0.5  6.5 1.5 0.5  7 1.5 0.5  7.5 1.5 0.5  8 1.5 0.5  8.
[...]
<PointData  Vectors="f_7-0"> 
<DataArray  type="Float64"  Name="f_7-0"  NumberOfComponents="3" format="ascii">0.0000000000000000e+00 0.0000000000000000e+00 0.0000000000000000e+00  7.6850325656758112e-01 5.6148821829056328e-01 9.8877105086323303e-02  1.8877033916426680e+00 6.0210127094328925e-01 9.9626855080842527e-02  3.0276086703127540e+00 6.0332867080557639e-01 1.0026162905305595e-01  4.1712411321967897e+00 6.0317328461252673e-01 1.0037676503869454e-01  5.3165044923158931e+00 6.0309124383940726e-01 1.0040800569384206e-01  6.4620788038438715e+00 6.0305500148866154e-01 1.0041667347051413e-01  7.6076847135399195e+00 6.0303821407063118e-01 1.0041785889688865e-01  8.7532786746990467e+00 6.0302990461906059e-01 1.0041776155868277e-01  9.8988582118615902e+00 6.0302563809534093e-01 1.0041749520443161e-01  1.1044427576013096e+01 6.0302340681125111e-01 1.0041727520899005e-01  1.2189990801656045e+01 6.0302222482520573e-01 1.0041713480292337e-01  1.3335550552598868e+01 6.0302159403522393e-01 1.0041705319392065e-01  1.4481108387336104e+01 6.0302125630647241e-01 1.0041700736303354e-01  1.5626665178369691e+01 6.0302107518434644e-01 1.0041698210183114e-01  1.6772221404755211e+01 6.0302097799778254e-01 1.0041696834220332e-01  1.7917777326974992e+01 6.0302092591953826e-01 1.0041696090648290e-01  1.9063333086193321e+01 6.0302089819082183e-01 1.0041695692812852e-01  2.0208888759213092e+01 6.0302088376954821e-01 1.0041695485267942e-01  2.1354444388658283e+01 6.0302087692961337e-01 1.0041695386783712e-01  2.2500000000000000e+01 6.0302087492235934e-01 1.0041695356421625e-01  0.0000000000000000e+00 0.0000000000000000e+00 0.0000000000000000e+00  7.5516604613495020e-01 3.6809842017855637e-01 1.0147514715885048e-01  1.8813748201425922e+00 4.0193101488714422e-01 1.0053753277338934e-01  3.0261804924786020e+00 4.0256991827748440e-01 1.0074407216778757e-01  4.1709073127369853e+00 4.0229311232681975e-01 1.0077570701794705e-01  5.3164468886019440e+00 4.0219181732270337e-01 1.0077838267240222e-01  6.4620784473083841e+00 4.0215275186623500e-01 1.0077993468252382e-01  7.6076921006381406e+00 4.0213694815323825e-01 1.0077964380158345e-01  8.7532848621014931e+00 4.0212995146340769e-01 1.0077909211064910e-01  9.8988621678345474e+00 4.0212657779365635e-01 1.0077871461426872e-01  1.1044429870447708e+01 4.0212487575731443e-01 1.0077849033199542e-01  1.2189992080657467e+01 4.0212399248386266e-01 1.0077836255286088e-01  1.3335551252928463e+01 4.0212352633100712e-01 1.0077829148630414e-01  1.4481108767344965e+01 4.0212327819287419e-01 1.0077825261584311e-01  1.5626665383559603e+01 4.0212314551475126e-01 1.0077823153281754e-01  1.6772221515180885e+01 4.0212307443394735e-01 1.0077822014626424e-01  1.7917777386121259e+01 4.0212303637597890e-01 1.0077821402213688e-01  1.9063333117459518e+01 4.0212301612052226e-01 1.0077821075533189e-01  2.0208888774997842e+01 4.0212300558909014e-01 1.0077820905440786e-01  2.1354444395232907e+01 4.0212300059171097e-01 1.0077820825293075e-01  2.2500000000000000e+01 4.0212299913312166e-01 1.0077820801987651e-01  0.0000000000000000e+00 0.0000000000000000e+00 0.0000000000000000e+00  7.4419899580048110e-01 1.8234726679852575e-01 1.0384900703871781e-01  1.8709524310307959e+00 2.0129864645681048e-01 1.0142655519154815e-01  3.0236163066223476e+00 2.0159702500225624e-01 1.0125555549765136e-01  4.1703165574059957e+00 2.0135581240298209e-01 1.0117224677388094e-01  5.3163542813563245e+00 2.0127740352214962e-01 1.0114997808292255e-01  6.4620901092644054e+00 2.0124734246128476e-01 1.0114358504470784e-01  7.6077144428083550e+00 2.0123540416190566e-01 1.0114113901464834e-01  8.7533015831347711e+00 2.0123021166505906e-01 1.0114021097456893e-01  9.8988724448394638e+00 2.0122772958419077e-01 1.0113981813002038e-01  1.1044435740588209e+01 2.0122648712986035e-01 1.0113964029850428e-01  1.2189995331729557e+01 2.0122584465108018e-01 1.0113955388581762e-01  1.3335553027314239e+01 2.0122550625164559e-01 1.0113950996243376e-01  1.4481109728529194e+01 2.0122532629584849e-01 1.0113948719418842e-01  1.5626665902121015e+01 2.0122523011806598e-01 1.0113947521369017e-01  1.6772221794135305e+01 2.0122517860378877e-01 1.0113946885149276e-01  1.7917777535505000e+01 2.0122515102496721e-01 1.0113946546345982e-01  1.9063333196422427e+01 2.0122513634716083e-01 1.0113946366735123e-01  2.0208888814868338e+01 2.0122512871568657e-01 1.0113946273675797e-01  2.1354444411839118e+01 2.0122512509187049e-01 1.0113946230809351e-01  2.2500000000000000e+01 2.0122512402640386e-01 1.0113946218036741e-01  0.0000000000000000e+00 0.0000000000000000e+00 0.0000000000000000e+00  7.4073174712540035e-01 1.2821929051202640e-03 1.0466793983050394e-01  1.8662738821984357e+00 5.0609679946295606e-04 1.0192616281761732e-01  3.0227901899596068e+00 4.2044407991270695e-04 1.0166092698551957e-01  4.1702642375637096e+00 3.6536115247076618e-04 1.0154327975632634e-01  5.3164141831716263e+00 3.5224364885836056e-04 1.0151194357181260e-01  6.4621571974690788e+00 3.4089814899199188e-04 1.0150427268610536e-01  7.6077590938897828e+00 3.3452732632170207e-04 1.0150170944200688e-01  8.7533280759168210e+00 3.3120048056493141e-04 1.0150099030800246e-01  9.8988873602361824e+00 3.2937589351177100e-04 1.0150079003068976e-01  1.1044443939237397e+01 3.2839218013280125e-04 1.0150073449915342e-01  1.2189999790697341e+01 3.2786252627878325e-04 1.0150071931209351e-01  1.3335555438841316e+01 3.2757742122371954e-04 1.0150071584548617e-01  1.4481111028767780e+01 3.2742406592367466e-04 1.0150071541314526e-01  1.5626666601963979e+01 3.2734160509248847e-04 1.0150071559272868e-01  1.6772222170165758e+01 3.2729729587641115e-04 1.0150071581530762e-01  1.7917777736755216e+01 3.2727353397176632e-04 1.0150071597508384e-01  1.9063333302774048e+01 3.2726087553297230e-04 1.0150071607383397e-01  2.0208888868566021e+01 3.2725428951489298e-04 1.0150071613168261e-01  2.1354444434230491e+01 3.2725115589451017e-04 1.0150071617288707e-01  2.2500000000000000e+01 3.2725022942946573e-04 1.0150071618041789e-01  0.0000000000000000e+00 0.0000000000000000e+00 0.0000000000000000e+00  7.4579541505139990e-01 -1.7959322095795618e-01 1.0423399837444391e-01  1.8710704254238117e+00 -2.0030531485820499e-01 1.0214552362502348e-01  3.0248818388727390e+00 -2.0076354132613758e-01 1.0191014059243399e-01  4.1710291609669001e+00 -2.0059294355470353e-01 1.0187089587780418e-01  5.3167051378333161e+00 -2.0056285315674222e-01 1.0186221680976816e-01  6.4622903390707478e+00 -2.0056134671678250e-01 1.0186165183486239e-01  7.6078214803914621e+00 -2.0056381555542876e-01 1.0186127750588796e-01  8.7533594750067127e+00 -2.0056648706405467e-01 1.0186148535698739e-01  9.8989036370760015e+00 -2.0056827638601107e-01 1.0186168444038858e-01  1.1044452513026586e+01 -2.0056932642128783e-01 1.0186180651552978e-01  1.2190004356017768e+01 -2.0056991771432833e-01 1.0186187921557709e-01  1.3335557880645201e+01 -2.0057024296005979e-01 1.0186192069373737e-01  1.4481112337888659e+01 -2.0057041988376456e-01 1.0186194362554132e-01  1.5626667304583970e+01 -2.0057051557046562e-01 1.0186195613506316e-01  1.6772222547136995e+01 -2.0057056714112328e-01 1.0186196291945179e-01  1.7917777938359304e+01 -2.0057059484199227e-01 1.0186196657855844e-01  1.9063333409275550e+01 -2.0057060961204556e-01 1.0186196853512837e-01  2.0208888922335881e+01 -2.0057061730207962e-01 1.0186196955740003e-01  2.1354444456662467e+01 -2.0057062096463132e-01 1.0186197005407242e-01  2.2500000000000000e+01 -2.0057062205024945e-01 1.0186197019418063e-01  0.0000000000000000e+00 0.0000000000000000e+00 0.0000000000000000e+00  7.6312940034913268e-01 -3.6687526224784101e-01 1.0331012594779727e-01  1.8823208858685081e+00 -4.0078275819783948e-01 1.0184503483318147e-01  3.0284300014001100e+00 -4.0159763942136495e-01 1.0202140150504294e-01  4.1721790431767900e+00 -4.0146995542752884e-01 1.0219846565808430e-01  5.3170778344438476e+00 -4.0145637884184709e-01 1.0220964516422472e-01  6.4624285429928889e+00 -4.0145352508281001e-01 1.0221713926419808e-01  7.6078796667396480e+00 -4.0145854658287078e-01 1.0222071679361940e-01  8.7533860663780541e+00 -4.0146268071732855e-01 1.0222200547249441e-01  9.8989166048402684e+00 -4.0146521213431341e-01 1.0222261629290823e-01  1.1044459136182521e+01 -4.0146669185845746e-01 1.0222291017569937e-01  1.2190007821409749e+01 -4.0146751637862998e-01 1.0222305965298953e-01  1.3335559716620747e+01 -4.0146796799511664e-01 1.0222313758059133e-01  1.4481113317528461e+01 -4.0146821321914544e-01 1.0222317859747708e-01  1.5626667829080510e+01 -4.0146834569828677e-01 1.0222320041056311e-01  1.6772222828183757e+01 -4.0146841706510311e-01 1.0222321206554572e-01  1.7917778088566990e+01 -4.0146845539009590e-01 1.0222321829417369e-01  1.9063333488603099e+01 -4.0146847582200479e-01 1.0222322160588090e-01  2.0208888962384645e+01 -4.0146848645911415e-01 1.0222322332769260e-01  2.1354444473376386e+01 -4.0146849152664343e-01 1.0222322415470646e-01  2.2500000000000000e+01 -4.0146849302537763e-01 1.0222322439608400e-01  0.0000000000000000e+00 0.0000000000000000e+00 0.0000000000000000e+00  7.9071774188385702e-01 -5.6035205591666692e-01 9.7378521951009739e-02  1.8883303236554259e+00 -6.0007103083254387e-01 1.0058268373224527e-01  3.0303720225725739e+00 -6.0224461989372435e-01 1.0255187015911345e-01  4.1728176797116614e+00 -6.0231320978396985e-01 1.0255040828657455e-01  5.3172349877790053e+00 -6.0231877061743144e-01 1.0254797951607324e-01  6.4624889610696314e+00 -6.0233867927620222e-01 1.0257656742062200e-01  7.6079056489463275e+00 -6.0235121269937608e-01 1.0258097092827702e-01  8.7533970496689815e+00 -6.0235784301232653e-01 1.0258279621293244e-01  9.8989218894032689e+00 -6.0236172870921123e-01 1.0258369939055441e-01  1.1044461809551857e+01 -6.0236385986466578e-01 1.0258408810915175e-01  1.2190009208156699e+01 -6.0236501577089929e-01 1.0258427901572556e-01  1.3335560448632517e+01 -6.0236564191900177e-01 1.0258437486815475e-01  1.4481113707313911e+01 -6.0236597964004579e-01 1.0258442443031091e-01  1.5626668037555444e+01 -6.0236616151791145e-01 1.0258445052013686e-01  1.6772222939835501e+01 -6.0236625933360854e-01 1.0258446434796373e-01  1.7917778148223636e+01 -6.0236631181508993e-01 1.0258447170352292e-01  1.9063333520105317e+01 -6.0236633978160259e-01 1.0258447560493635e-01  2.0208888978288119e+01 -6.0236635433814600e-01 1.0258447763039159e-01  2.1354444480008159e+01 -6.0236636127601428e-01 1.0258447859121796e-01  2.2500000000000000e+01 -6.0236636329977777e-01 1.0258447889241373e-01  0.0000000000000000e+00 0.0000000000000000e+00 0.0000000000000000e+00  7.6976372836151707e-01 5.5966494346016571e-01 3.2955792069133877e-02  1.8878055248920254e+00 6.0178741697508098e-01 3.2969229517827658e-02  3.0276047334458442e+00 6.0319382390786092e-01 3.3363763065601404e-02  4.1712431847670581e+00 6.0304289020431279e-01 3.3421943214946334e-02  5.3165041453437993e+00 6.0296801837999703e-01 3.3442353771226410e-02  6.4620788189694132e+00 6.0293402301921062e-01 3.3449543476199328e-02  7.6076847541206227e+00 6.0291763337155668e-01 3.3450840052426871e-02  8.7532786770415303e+00 6.0290944687412273e-01 3.3451107491091148e-02  9.8988582115597001e+00 6.0290521876150538e-01 3.3451131300190756e-02  1.1044427576745720e+01 6.0290299380511836e-01 3.3451090653779762e-02  1.2189990802152135e+01 6.0290181096068118e-01 3.3451052694932572e-02  1.3335550552865051e+01 6.0290117868052595e-01 3.3451027926801290e-02  1.4481108387492258e+01 6.0290083979917264e-01 3.3451013155231073e-02  1.5626665178460300e+01 6.0290065793407122e-01 3.3451004723213079e-02  1.6772221404805194e+01 6.0290056031124850e-01 3.3451000040985918e-02  1.7917777327001037e+01 6.0290050798781192e-01 3.3450997482711978e-02  1.9063333086205034e+01 6.0290048012473196e-01 3.3450996104760350e-02  2.0208888759213689e+01 6.0290046563315525e-01 3.3450995383288898e-02  2.1354444388649984e+01 6.0290045875836784e-01 3.3450995038718290e-02  2.2500000000000000e+01 6.0290045673078685e-01 3.3450994927452030e-02  0.0000000000000000e+00 0.0000000000000000e+00 0.0000000000000000e+00  7.5655013048970154e-01 3.6763522784482972e-01 3.4307991557570187e-02  1.8817292962815333e+00 4.0157423640828455e-01 3.3651882506546292e-02  3.0261752108536273e+00 4.0241178129650784e-01 3.3783837489840457e-02  4.1709014239638966e+00 4.0216160281732966e-01 3.3811764638303377e-02  5.3164482808400200e+00 4.0206838826214664e-01 3.3811339117861994e-02  6.4620786932922307e+00 4.0203169984964016e-01 3.3812492720977159e-02  7.6076921324731854e+00 4.0201638907211484e-01 3.3812641527258235e-02  8.7532848666261014e+00 4.0200951909695054e-01 3.3812516689724251e-02  9.8988621712809106e+00 4.0200617439637309e-01 3.3812410247449638e-02  1.1044429872019650e+01 4.0200447197473260e-01 3.3812341628444008e-02  1.2189992081212436e+01 4.0200358382727175e-01 3.3812300830296897e-02  1.3335551253187939e+01 4.0200311383638471e-01 3.3812277520403118e-02  1.4481108767486786e+01 4.0200286323451556e-01 3.3812264575738944e-02  1.5626665383635622e+01 4.0200272910072987e-01 3.3812257494525898e-02  1.6772221515221030e+01 4.0200265719855649e-01 3.3812253649759080e-02  1.7917777386141911e+01 4.0200261868811960e-01 3.3812251575028311e-02  1.9063333117468787e+01 4.0200259818793732e-01 3.3812250466068762e-02  2.0208888774998947e+01 4.0200258752807772e-01 3.3812249888154934e-02  2.1354444395227059e+01 4.0200258246884324e-01 3.3812249616044988e-02  2.2500000000000000e+01 4.0200258098721348e-01 3.3812249536748516e-02  0.0000000000000000e+00 0.0000000000000000e+00 0.0000000000000000e+00  7.4584899004281358e-01 1.8202942845899406e-01 3.5105512325419051e-02  1.8712524768501184e+00 2.0104201239391534e-01 3.4356846331392993e-02  3.0236584836366793e+00 2.0144543576297058e-01 3.4237240231099995e-02  4.1703009228046692e+00 2.0123005588100101e-01 3.4190291604014593e-02  5.3163575076138461e+00 2.0115547081610829e-01 3.4179136967357270e-02  6.4620902412456793e+00 2.0112664011903778e-01 3.4175515968562102e-02  7.6077144151606761e+00 2.0111499290560456e-01 3.4174260321932728e-02  8.7533015886423566e+00 2.0110985154591379e-01 3.4173821339964612e-02  9.8988724459990500e+00 2.0110735768041674e-01 3.4173644160416079e-02  1.1044435739355265e+01 2.0110609794677514e-01 3.4173569945536719e-02  1.2189995330665413e+01 2.0110544337239825e-01 3.4173536689636380e-02  1.3335553026726140e+01 2.0110509755112557e-01 3.4173520606885978e-02  1.4481109728199710e+01 2.0110491331242850e-01 3.4173512559988295e-02  1.5626665901936006e+01 2.0110481474670561e-01 3.4173508432761131e-02  1.6772221794034120e+01 2.0110476192385773e-01 3.4173506275567186e-02  1.7917777535450099e+01 2.0110473363530110e-01 3.4173505137843507e-02  1.9063333196392438e+01 2.0110471857704929e-01 3.4173504538294139e-02  2.0208888814851207e+01 2.0110471074701677e-01 3.4173504229260382e-02  2.1354444411828457e+01 2.0110470702878644e-01 3.4173504087372020e-02  2.2500000000000000e+01 2.0110470593610377e-01 3.4173504044248439e-02  0.0000000000000000e+00 0.0000000000000000e+00 0.0000000000000000e+00  7.4241888136528777e-01 1.2229884413395642e-03 3.5479873671210881e-02  1.8664614728428381e+00 3.4956373906050610e-04 3.4824177429498858e-02  3.0229021902651256e+00 3.0882955482742526e-04 3.4632990801811946e-02  4.1702331327629505e+00 2.5022213417788444e-04 3.4552330080252741e-02  5.3164173337969611e+00 2.3276926802410014e-04 3.4541486436206602e-02  6.4621572386439059e+00 2.2098109528855545e-04 3.4536932675744751e-02  7.6077589508664127e+00 2.1439102889421680e-04 3.4535360575811615e-02  8.7533280732129093e+00 2.1092563576062691e-04 3.4534946360033944e-02  9.8988873530185852e+00 2.0903135523914733e-04 3.4534813871944119e-02  1.1044443933779474e+01 2.0801293012241809e-04 3.4534774058228218e-02  1.2189999787979213e+01 2.0746514888263869e-04 3.4534762426729593e-02  1.3335555437440920e+01 2.0717035577545872e-04 3.4534759194718725e-02  1.4481111028000726e+01 2.0701181820080011e-04 3.4534758434733352e-02  1.5626666601548477e+01 2.0692658705405916e-04 3.4534758330683091e-02  1.6772222169943046e+01 2.0688079310014445e-04 3.4534758370761316e-02  1.7917777736636108e+01 2.0685623580843517e-04 3.4534758423511100e-02  1.9063333302711087e+01 2.0684315413284669e-04 3.4534758461942844e-02  2.0208888868534231e+01 2.0683634820891009e-04 3.4534758486397692e-02  2.1354444434217367e+01 2.0683311110816411e-04 3.4534758502227779e-02  2.2500000000000000e+01 2.0683215691542570e-04 3.4534758504277716e-02  0.0000000000000000e+00 0.0000000000000000e+00 0.0000000000000000e+00  7.4743531182066969e-01 -1.7960106153046709e-01 3.5639538974919859e-02  1.8712459793140128e+00 -2.0032311994462335e-01 3.5147915889006093e-02  3.0250040132321510e+00 -2.0082943041109541e-01 3.4925789343488868e-02  4.1709869030830573e+00 -2.0070502038304314e-01 3.4895775862340252e-02  5.3167085476259377e+00 -2.0068041206831422e-01 3.4898315202404905e-02  6.4622903505123315e+00 -2.0068036516112403e-01 3.4896400109732537e-02  7.6078211885457581e+00 -2.0068379362236888e-01 3.4895896819484920e-02  8.7533594753213038e+00 -2.0068672365581947e-01 3.4895907241411096e-02  9.8989036192221054e+00 -2.0068861198480054e-01 3.4895934254183331e-02  1.1044452504492384e+01 -2.0068970579472495e-01 3.4895963879397043e-02  1.2190004352345593e+01 -2.0069031650195901e-01 3.4895984414441604e-02  1.3335557878701445e+01 -2.0069065121787028e-01 3.4895997010158802e-02  1.4481112336852293e+01 -2.0069083289945316e-01 3.4896004277541463e-02  1.5626667304035134e+01 -2.0069093103943497e-01 3.4896008331213528e-02  1.6772222546845352e+01 -2.0069098389926360e-01 3.4896010560259129e-02  1.7917777938204285e+01 -2.0069101228201472e-01 3.4896011772709221e-02  1.9063333409194712e+01 -2.0069102741211353e-01 3.4896012424204051e-02  2.0208888922297032e+01 -2.0069103528817481e-01 3.4896012765862940e-02  2.1354444456649588e+01 -2.0069103903819832e-01 3.4896012931161326e-02  2.2500000000000000e+01 -2.0069104014667349e-01 3.4896012976658689e-02  0.0000000000000000e+00 0.0000000000000000e+00 0.0000000000000000e+00  7.6508555070404827e-01 -3.6634303400433771e-01 3.5883413533329904e-02  1.8823892198111090e+00 -4.0061098296208092e-01 3.5112799696614821e-02  3.0285526151906397e+00 -4.0170130068315291e-01 3.5154753158754007e-02  4.1721442972433103e+00 -4.0158455311428415e-01 3.5247277756953174e-02  5.3170771103274301e+00 -4.0157150735417663e-01 3.5251334780752985e-02  6.4624290274693283e+00 -4.0157306136290161e-01 3.5254804605740930e-02  7.6078794312003097e+00 -4.0157860817904661e-01 3.5256338052418276e-02  8.7533860361433309e+00 -4.0158294216046292e-01 3.5256820249154712e-02  9.8989165864036632e+00 -4.0158557243558651e-01 3.5257055080735539e-02  1.1044459128113690e+01 -4.0158708380546049e-01 3.5257160620643796e-02  1.2190007817753342e+01 -4.0158792224923151e-01 3.5257212322605092e-02  1.3335559714703454e+01 -4.0158838017000226e-01 3.5257238783502357e-02  1.4481113316527308e+01 -4.0158862835849629e-01 3.5257252463191703e-02  1.5626667828559063e+01 -4.0158876232188201e-01 3.5257259668138058e-02  1.6772222827908209e+01 -4.0158883444910726e-01 3.5257263495511310e-02  1.7917778088421301e+01 -4.0158887316965447e-01 3.5257265532770782e-02  1.9063333488528272e+01 -4.0158889380860929e-01 3.5257266613320425e-02  2.0208888962350830e+01 -4.0158890455222385e-01 3.5257267174124869e-02  2.1354444473367987e+01 -4.0158890966877059e-01 3.5257267442929834e-02  2.2500000000000000e+01 -4.0158891118066409e-01 3.5257267523466120e-02  0.0000000000000000e+00 0.0000000000000000e+00 0.0000000000000000e+00  7.8841563027211525e-01 -5.5934935391207297e-01 3.3428392174078343e-02  1.8888117758168443e+00 -5.9963995228507616e-01 3.4614289661729448e-02  3.0305213257246870e+00 -6.0250470034309012e-01 3.5669252700001562e-02  4.1727461292720758e+00 -6.0241623033029301e-01 3.5585259406796868e-02  5.3172348439913621e+00 -6.0243152756273521e-01 3.5600193423044629e-02  6.4624913439226788e+00 -6.0245969928868459e-01 3.5615854810933170e-02  7.6079050531093353e+00 -6.0247120839076151e-01 3.5616770991790524e-02  8.7533969985075490e+00 -6.0247815092950263e-01 3.5617834575692404e-02  9.8989218821239220e+00 -6.0248210935503010