<?xml version="1.0"?>
<VTKFile type="UnstructuredGrid"  version="0.1"  >
<UnstructuredGrid>
<Piece  NumberOfPoints="882" NumberOfCells="3600">
<Points>
<DataArray  type="Float64"  NumberOfComponents="3"  format="ascii">0 0 0  0.5 0 0  1 0 0  1.5 0 0  2 0 0  2.5 0 0  3 0 0  3.5 0 0  4 0 0  4.5 0 0  5 0 0  5.5 0 0  6 0 0  6.5 0 0  7 0 0  7.5 0 0  8 0 0  8.5 0 0  9 0 0  9.5 0 0  10 0 0  0 0.5 0  0.5 0.5 0  1 0.5 0  1.5 0.5 0  2 0.5 0  2.5 0.5 0  3 0.5 0  3.5 0.5 0  4 0.5 0  4.5 0.5 0  5 0.5 0  5.5 0.5 0  6 0.5 0  6.5 0.5 0  7 0.5 0  7.5 0.5 0  8 0.5 0  8.5 0.5 0  9 0.5 0  9.5 0.5 0  10 0.5 0  0 1 0  0.5 1 0  1 1 0  1.5 1 0  2 1 0  2.5 1 0  3 1 0  3.5 1 0  4 1 0  4.5 1 0  5 1 0  5.5 1 0  6 1 0  6.5 1 0  7 1 0  7.5 1 0  8 1 0  8.5 1 0  9 1 0  9.5 1 0  10 1 0  0 1.5 0  0.5 1.5 0  1 1.5 0  1.5 1.5 0  2 1.5 0  2.5 1.5 0  3 1.5 0  3.5 1.5 0  4 1.5 0  4.5 1.5 0  5 1.5 0  5.5 1.5 0  6 1.5 0  6.5 1.5 0  7 1.5 0  7.5 1.5 0  8 1.5 0  8.5 1.5 0  9 1.5 0  9.5 1.5 0  10 1.5 0  0 2 0  0.5 2 0  1 2 0  1.5 2 0  2 2 0  2.5 2 0  3 2 0  3.5 2 0  4 2 0  4.5 2 0  5 2 0  5.5 2 0  6 2 0  6.5 2 0  7 2 0  7.5 2 0  8 2 0  8.5 2 0  9 2 0  9.5 2 0  10 2 0  0 2.5 0  0.5 2.5 0  1 2.5 0  1.5 2.5 0  2 2.5 0  2.5 2.5 0  3 2.5 0  3.5 2.5 0  4 2.5 0  4.5 2.5 0  5 2.5 0  5.5 2.5 0  6 2.5 0  6.5 2.5 0  7 2.5 0  7.5 2.5 0  8 2.5 0  8.5 2.5 0  9 2.5 0  9.5 2.5 0  10 2.5 0  0 3 0  0.5 3 0  1 3 0  1.5 3 0  2 3 0  2.5 3 0  3 3 0  3.5 3 0  4 3 0  4.5 3 0  5 3 0  5.5 3 0  6 3 0  6.5 3 0  7 3 0  7.5 3 0  8 3 0  8.5 3 0  9 3 0  9.5 3 0  10 3 0  0 0 0.1  0.5 0 0.1  1 0 0.1  1.5 0 0.1  2 0 0.1  2.5 0 0.1  3 0 0.1  3.5 0 0.1  4 0 0.1  4.5 0 0.1  5 0 0.1  5.5 0 0.1  6 0 0.1  6.5 0 0.1  7 0 0.1  7.5 0 0.1  8 0 0.1  8.5 0 0.1  9 0 0.1  9.5 0 0.1  10 0 0.1  0 0.5 0.1  0.5 0.5 0.1  1 0.5 0.1  1.5 0.5 0.1  2 0.5 0.1  2.5 0.5 0.1  3 0.5 0.1  3.5 0.5 0.1  4 0.5 0.1  4.5 0.5 0.1  5 0.5 0.1  5.5 0.5 0.1  6 0.5 0.1  6.5 0.5 0.1  7 0.5 0.1  7.5 0.5 0.1  8 0.5 0.1  8.5 0.5 0.1  9 0.5 0.1  9.5 0.5 0.1  10 0.5 0.1  0 1 0.1  0.5 1 0.1  1 1 0.1  1.5 1 0.1  2 1 0.1  2.5 1 0.1  3 1 0.1  3.5 1 0.1  4 1 0.1  4.5 1 0.1  5 1 0.1  5.5 1 0.1  6 1 0.1  6.5 1 0.1  7 1 0.1  7.5 1 0.1  8 1 0.1  8.5 1 0.1  9 1 0.1  9.5 1 0.1  10 1 0.1  0 1.5 0.1  0.5 1.5 0.1  1 1.5 0.1  1.5 1.5 0.1  2 1.5 0.1  2.5 1.5 0.1  3 1.5 0.1  3.5 1.5 0.1  4 1.5 0.1  4.5 1.5 0.1  5 1.5 0.1  5.5 1.5 0.1  6 1.5 0.1  6.5 1.5 0.1  7 1.5 0.1  7.5 1.5 0.1  8 1.5 0.1  8.5 1.5 0.1  9 1.5 0.1  9.5 1.5 0.1  10 1.5 0.1  0 2 0.1  0.5 2 0.1  1 2 0.1  1.5 2 0.1  2 2 0.1  2.5 2 0.1  3 2 0.1  3.5 2 0.1  4 2 0.1  4.5 2 0.1  5 2 0.1  5.5 2 0.1  6 2 0.1  6.5 2 0.1  7 2 0.1  7.5 2 0.1  8 2 0.1  8.5 2 0.1  9 2 0.1  9.5 2 0.1  10 2 0.1  0 2.5 0.1  0.5 2.5 0.1  1 2.5 0.1  1.5 2.5 0.1  2 2.5 0.1  2.5 2.5 0.1  3 2.5 0.1  3.5 2.5 0.1  4 2.5 0.1  4.5 2.5 0.1  5 2.5 0.1  5.5 2.5 0.1  6 2.5 0.1  6.5 2.5 0.1  7 2.5 0.1  7.5 2.5 0.1  8 2.5 0.1  8.5 2.5 0.1  9 2.5 0.1  9.5 2.5 0.1  10 2.5 0.1  0 3 0.1  0.5 3 0.1  1 3 0.1  1.5 3 0.1  2 3 0.1  2.5 3 0.1  3 3 0.1  3.5 3 0.1  4 3 0.1  4.5 3 0.1  5 3 0.1  5.5 3 0.1  6 3 0.1  6.5 3 0.1  7 3 0.1  7.5 3 0.1  8 3 0.1  8.5 3 0.1  9 3 0.1  9.5 3 0.1  10 3 0.1  0 0 0.2  0.5 0 0.2  1 0 0.2  1.5 0 0.2  2 0 0.2  2.5 0 0.2  3 0 0.2  3.5 0 0.2  4 0 0.2  4.5 0 0.2  5 0 0.2  5.5 0 0.2  6 0 0.2  6.5 0 0.2  7 0 0.2  7.5 0 0.2  8 0 0.2  8.5 0 0.2  9 0 0.2  9.5 0 0.2  10 0 0.2  0 0.5 0.2  0.5 0.5 0.2  1 0.5 0.2  1.5 0.5 0.2  2 0.5 0.2  2.5 0.5 0.2  3 0.5 0.2  3.5 0.5 0.2  4 0.5 0.2  4.5 0.5 0.2  5 0.5 0.2  5.5 0.5 0.2  6 0.5 0.2  6.5 0.5 0.2  7 0.5 0.2  7.5 0.5 0.2  8 0.5 0.2  8.5 0.5 0.2  9 0.5 0.2  9.5 0.5 0.2  10 0.5 0.2  0 1 0.2  0.5 1 0.2  1 1 0.2  1.5 1 0.2  2 1 0.2  2.5 1 0.2  3 1 0.2  3.5 1 0.2  4 1 0.2  4.5 1 0.2  5 1 0.2  5.5 1 0.2  6 1 0.2  6.5 1 0.2  7 1 0.2  7.5 1 0.2  8 1 0.2  8.5 1 0.2  9 1 0.2  9.5 1 0.2  10 1 0.2  0 1.5 0.2  0.5 1.5 0.2  1 1.5 0.2  1.5 1.5 0.2  2 1.5 0.2  2.5 1.5 0.2  3 1.5 0.2  3.5 1.5 0.2  4 1.5 0.2  4.5 1.5 0.2  5 1.5 0.2  5.5 1.5 0.2  6 1.5 0.2  6.5 1.5 0.2  7 1.5 0.2  7.5 1.5 0.2  8 1.5 0.2  8.5 1.5 0.2  9 1.5 0.2  9.5 1.5 0.2  10 1.5 0.2  0 2 0.2  0.5 2 0.2  1 2 0.2  1.5 2 0.2  2 2 0.2  2.5 2 0.2  3 2 0.2  3.5 2 0.2  4 2 0.2  4.5 2 0.2  5 2 0.2  5.5 2 0.2  6 2 0.2  6.5 2 0.2  7 2 0.2  7.5 2 0.2  8 2 0.2  8.5 2 0.2  9 2 0.2  9.5 2 0.2  10 2 0.2  0 2.5 0.2  0.5 2.5 0.2  1 2.5 0.2  1.5 2.5 0.2  2 2.5 0.2  2.5 2.5 0.2  3 2.5 0.2  3.5 2.5 0.2  4 2.5 0.2  4.5 2.5 0.2  5 2.5 0.2  5.5 2.5 0.2  6 2.5 0.2  6.5 2.5 0.2  7 2.5 0.2  7.5 2.5 0.2  8 2.5 0.2  8.5 2.5 0.2  9 2.5 0.2  9.5 2.5 0.2  10 2.5 0.2  0 3 0.2  0.5 3 0.2  1 3 0.2  1.5 3 0.2  2 3 0.2  2.5 3 0.2  3 3 0.2  3.5 3 0.2  4 3 0.2  4.5 3 0.2  5 3 0.2  5.5 3 0.2  6 3 0.2  6.5 3 0.2  7 3 0.2  7.5 3 0.2  8 3 0.2  8.5 3 0.2  9 3 0.2  9.5 3 0.2  10 3 0.2  0 0 0.3  0.5 0 0.3  1 0 0.3  1.5 0 0.3  2 0 0.3  2.5 0 0.3  3 0 0.3  3.5 0 0.3  4 0 0.3  4.5 0 0.3  5 0 0.3  5.5 0 0.3  6 0 0.3  6.5 0 0.3  7 0 0.3  7.5 0 0.3  8 0 0.3  8.5 0 0.3  9 0 0.3  9.5 0 0.3  10 0 0.3  0 0.5 0.3  0.5 0.5 0.3  1 0.5 0.3  1.5 0.5 0.3  2 0.5 0.3  2.5 0.5 0.3  3 0.5 0.3  3.5 0.5 0.3  4 0.5 0.3  4.5 0.5 0.3  5 0.5 0.3  5.5 0.5 0.3  6 0.5 0.3  6.5 0.5 0.3  7 0.5 0.3  7.5 0.5 0.3  8 0.5 0.3  8.5 0.5 0.3  9 0.5 0.3  9.5 0.5 0.3  10 0.5 0.3  0 1 0.3  0.5 1 0.3  1 1 0.3  1.5 1 0.3  2 1 0.3  2.5 1 0.3  3 1 0.3  3.5 1 0.3  4 1 0.3  4.5 1 0.3  5 1 0.3  5.5 1 0.3  6 1 0.3  6.5 1 0.3  7 1 0.3  7.5 1 0.3  8 1 0.3  8.5 1 0.3  9 1 0.3  9.5 1 0.3  10 1 0.3  0 1.5 0.3  0.5 1.5 0.3  1 1.5 0.3  1.5 1.5 0.3  2 1.5 0.3  2.5 1.5 0.3  3 1.5 0.3  3.5 1.5 0.3  4 1.5 0.3  4.5 1.5 0.3  5 1.5 0.3  5.5 1.5 0.3  6 1.5 0.3  6.5 1.5 0.3  7 1.5 0.3  7.5 1.5 0.3  8 1.5 0.3  8.5 1.5 0.3  9 1.5 0.3  9.5 1.5 0.3  10 1.5 0.3  0 2 0.3  0.5 2 0.3  1 2 0.3  1.5 2 0.3  2 2 0.3  2.5 2 0.3  3 2 0.3  3.5 2 0.3  4 2 0.3  4.5 2 0.3  5 2 0.3  5.5 2 0.3  6 2 0.3  6.5 2 0.3  7 2 0.3  7.5 2 0.3  8 2 0.3  8.5 2 0.3  9 2 0.3  9.5 2 0.3  10 2 0.3  0 2.5 0.3  0.5 2.5 0.3  1 2.5 0.3  1.5 2.5 0.3  2 2.5 0.3  2.5 2.5 0.3  3 2.5 0.3  3.5 2.5 0.3  4 2.5 0.3  4.5 2.5 0.3  5 2.5 0.3  5.5 2.5 0.3  6 2.5 0.3  6.5 2.5 0.3  7 2.5 0.3  7.5 2.5 0.3  8 2.5 0.3  8.5 2.5 0.3  9 2.5 0.3  9.5 2.5 0.3  10 2.5 0.3  0 3 0.3  0.5 3 0.3  1 3 0.3  1.5 3 0.3  2 3 0.3  2.5 3 0.3  3 3 0.3  3.5 3 0.3  4 3 0.3  4.5 3 0.3  5 3 0.3  5.5 3 0.3  6 3 0.3  6.5 3 0.3  7 3 0.3  7.5 3 0.3  8 3 0.3  8.5 3 0.3  9 3 0.3  9.5 3 0.3  10 3 0.3  0 0 0.4  0.5 0 0.4  1 0 0.4  1.5 0 0.4  2 0 0.4  2.5 0 0.4  3 0 0.4  3.5 0 0.4  4 0 0.4  4.5 0 0.4  5 0 0.4  5.5 0 0.4  6 0 0.4  6.5 0 0.4  7 0 0.4  7.5 0 0.4  8 0 0.4  8.5 0 0.4  9 0 0.4  9.5 0 0.4  10 0 0.4  0 0.5 0.4  0.5 0.5 0.4  1 0.5 0.4  1.5 0.5 0.4  2 0.5 0.4  2.5 0.5 0.4  3 0.5 0.4  3.5 0.5 0.4  4 0.5 0.4  4.5 0.5 0.4  5 0.5 0.4  5.5 0.5 0.4  6 0.5 0.4  6.5 0.5 0.4  7 0.5 0.4  7.5 0.5 0.4  8 0.5 0.4  8.5 0.5 0.4  9 0.5 0.4  9.5 0.5 0.4  10 0.5 0.4  0 1 0.4  0.5 1 0.4  1 1 0.4  1.5 1 0.4  2 1 0.4  2.5 1 0.4  3 1 0.4  3.5 1 0.4  4 1 0.4  4.5 1 0.4  5 1 0.4  5.5 1 0.4  6 1 0.4  6.5 1 0.4  7 1 0.4  7.5 1 0.4  8 1 0.4  8.5 1 0.4  9 1 0.4  9.5 1 0.4  10 1 0.4  0 1.5 0.4  0.5 1.5 0.4  1 1.5 0.4  1.5 1.5 0.4  2 1.5 0.4  2.5 1.5 0.4  3 1.5 0.4  3.5 1.5 0.4  4 1.5 0.4  4.5 1.5 0.4  5 1.5 0.4  5.5 1.5 0.4  6 1.5 0.4  6.5 1.5 0.4  7 1.5 0.4  7.5 1.5 0.4  8 1.5 0.4  8.5 1.5 0.4  9 1.5 0.4  9.5 1.5 0.4  10 1.5 0.4  0 2 0.4  0.5 2 0.4  1 2 0.4  1.5 2 0.4  2 2 0.4  2.5 2 0.4  3 2 0.4  3.5 2 0.4  4 2 0.4  4.5 2 0.4  5 2 0.4  5.5 2 0.4  6 2 0.4  6.5 2 0.4  7 2 0.4  7.5 2 0.4  8 2 0.4  8.5 2 0.4  9 2 0.4  9.5 2 0.4  10 2 0.4  0 2.5 0.4  0.5 2.5 0.4  1 2.5 0.4  1.5 2.5 0.4  2 2.5 0.4  2.5 2.5 0.4  3 2.5 0.4  3.5 2.5 0.4  4 2.5 0.4  4.5 2.5 0.4  5 2.5 0.4  5.5 2.5 0.4  6 2.5 0.4  6.5 2.5 0.4  7 2.5 0.4  7.5 2.5 0.4  8 2.5 0.4  8.5 2.5 0.4  9 2.5 0.4  9.5 2.5 0.4  10 2.5 0.4  0 3 0.4  0.5 3 0.4  1 3 0.4  1.5 3 0.4  2 3 0.4  2.5 3 0.4  3 3 0.4  3.5 3 0.4  4 3 0.4  4.5 3 0.4  5 3 0.4  5.5 3 0.4  6 3 0.4  6.5 3 0.4  7 3 0.4  7.5 3 0.4  8 3 0.4  8.5 3 0.4  9 3 0.4  9.5 3 0.4  10 3 0.4  0 0 0.5  0.5 0 0.5  1 0 0.5  1.5 0 0.5  2 0 0.5  2.5 0 0.5  3 0 0.5  3.5 0 0.5  4 0 0.5  4.5 0 0.5  5 0 0.5  5.5 0 0.5  6 0 0.5  6.5 0 0.5  7 0 0.5  7.5 0 0.5  8 0 0.5  8.5 0 0.5  9 0 0.5  9.5 0 0.5  10 0 0.5  0 0.5 0.5  0.5 0.5 0.5  1 0.5 0.5  1.5 0.5 0.5  2 0.5 0.5  2.5 0.5 0.5  3 0.5 0.5  3.5 0.5 0.5  4 0.5 0.5  4.5 0.5 0.5  5 0.5 0.5  5.5 0.5 0.5  6 0.5 0.5  6.5 0.5 0.5  7 0.5 0.5  7.5 0.5 0.5  8 0.5 0.5  8.5 0.5 0.5  9 0.5 0.5  9.5 0.5 0.5  10 0.5 0.5  0 1 0.5  0.5 1 0.5  1 1 0.5  1.5 1 0.5  2 1 0.5  2.5 1 0.5  3 1 0.5  3.5 1 0.5  4 1 0.5  4.5 1 0.5  5 1 0.5  5.5 1 0.5  6 1 0.5  6.5 1 0.5  7 1 0.5  7.5 1 0.5  8 1 0.5  8.5 1 0.5  9 1 0.5  9.5 1 0.5  10 1 0.5  0 1.5 0.5  0.5 1.5 0.5  1 1.5 0.5  1.5 1.5 0.5  2 1.5 0.5  2.5 1.5 0.5  3 1.5 0.5  3.5 1.5 0.5  4 1.5 0.5  4.5 1.5 0.5  5 1.5 0.5  5.5 1.5 0.5  6 1.5 0.5  6.5 1.5 0.5  7 1.5 0.5  7.5 1.5 0.5  8 1.5 0.5  8.5 1.5 0.5  9 1.5 0.5  9.5 1.5 0.5  10 1.5 0.5  0 2 0.5  0.5 2 0.5  1 2 0.5  1.5 2 0.5  2 2 0.5  2.5 2 0.5  3 2 0.5  3.5 2 0.5  4 2 0.5  4.5 2 0.5  5 2 0.5  5.5 2 0.5  6 2 0.5  6.5 2 0.5  7 2 0.5  7.5 2 0.5  8 2 0.5  8.5 2 0.5  9 2 0.5  9.5 2 0.5  10 2 0.5  0 2.5 0.5  0.5 2.5 0.5  1 2.5 0.5  1.5 2.5 0.5  2 2.5 0.5  2.5 2.5 0.5  3 2.5 0.5  3.5 2.5 0.5  4 2.5 0.5  4.5 2.5 0.5  5 2.5 0.5  5.5 2.5 0.5  6 2.5 0.5  6.5 2.5 0.5  7 2.5 0.5  7.5 2.5 0.5  8 2.5 0.5  8.5 2.5 0.5  9 2.5 0.5  9.5 2.5 0.5  10 2.5 0.5  0 3 0.5  0.5 3 0.5  1 3 0.5  1.5 3 0.5  2 3 0.5  2.5 3 0.5  3 3 0.5  3.5 3 0.5  4 3 0.5  4.5 3 0.5  5 3 0.5  5.5 3 0.5  6 3 0.5  6.5 3 0.5  7 3 0.5  7.5 3 0.5  8 3 0.5  8.5 3 0.5  9 3 0.5  9.5 3 0.5  10 3 0.5  </DataArray>
</Points>
<Cells>
[...]
<PointData  Vectors="f_7-0"> 
<DataArray  type="Float64"  Name="f_7-0"  NumberOfComponents="3" format="ascii">0.0000000000000000e+00 0.0000000000000000e+00 0.0000000000000000e+00  1.7299001093725255e-01 1.4133833807211957e-01 2.8958817155127398e-02  3.3144703358157440e-01 2.6298969798508337e-01 2.7085053804295420e-02  5.0157455468100620e-01 3.5323231141441047e-01 3.0366038816914114e-02  7.3061288610114838e-01 3.9194317298842329e-01 3.3197233141592619e-02  1.0006476603731613e+00 3.9175151139454312e-01 3.3371857445890864e-02  1.2791115998361384e+00 3.8520828092093107e-01 3.2702519290082520e-02  1.5537619081937684e+00 3.8395853994503892e-01 3.2539788345910668e-02  1.8260110710562822e+00 3.8505072084494024e-01 3.2591893704902314e-02  2.0982461810276840e+00 3.8587148879031191e-01 3.2623394763308063e-02  2.3709209110148848e+00 3.8613189026977024e-01 3.2625704100536591e-02  2.6438054585303354e+00 3.8616546826165993e-01 3.2622120779718176e-02  2.9167216330713330e+00 3.8617235012430112e-01 3.2621001769261901e-02  3.1896266901018939e+00 3.8619064240556200e-01 3.2621409229773586e-02  3.4625285029300237e+00 3.8620882220163255e-01 3.2621850314117948e-02  3.7354347604592180e+00 3.8621966124170365e-01 3.2621969235465606e-02  4.0083454855246519e+00 3.8622461198076979e-01 3.2621918518137900e-02  4.2812583947591651e+00 3.8622681681421073e-01 3.2621853299879690e-02  4.5541720519333566e+00 3.8622798040665451e-01 3.2621818364834632e-02  4.8270859700984312e+00 3.8622861852981877e-01 3.2621806076540937e-02  5.1000000000000014e+00 3.8622882529656560e-01 3.2621804571833189e-02  0.0000000000000000e+00 0.0000000000000000e+00 0.0000000000000000e+00  8.7820531234034771e-02 5.2265474296516914e-02 3.1205445060681496e-02  2.6047805667407481e-01 1.8903029551853512e-01 3.1260375357261401e-02  4.6919765635872224e-01 2.6227524278498388e-01 3.3030041458285600e-02  7.2778383146821291e-01 2.7968838138271518e-01 3.2986797108182475e-02  1.0048463765200908e+00 2.7271583922398446e-01 3.2250416848279256e-02  1.2805232802746918e+00 2.6818017975751823e-01 3.2538027883008344e-02  1.5532486068448594e+00 2.6859215473262815e-01 3.2660922595196852e-02  1.8254712411076339e+00 2.6981411310639958e-01 3.2624119793576239e-02  2.0980492731128382e+00 2.7038568499020743e-01 3.2600863499123799e-02  2.3708917716827602e+00 2.7050703785318092e-01 3.2594100297000564e-02  2.6438043866335548e+00 2.7051422135649728e-01 3.2594465875508266e-02  2.9167134156354200e+00 2.7052718760339844e-01 3.2595655052594139e-02  3.1896163404165736e+00 2.7054857947428024e-01 3.2596051079806905e-02  3.4625217296084370e+00 2.7056469732511218e-01 3.2595998291421173e-02  3.7354315822848343e+00 2.7057291285316959e-01 3.2595893293573500e-02  4.0083441191630067e+00 2.7057648036488452e-01 3.2595847874588892e-02  4.2812576984017330e+00 2.7057819976126601e-01 3.2595836041854592e-02  4.5541716445321878e+00 2.7057919644018913e-01 3.2595829920602254e-02  4.8270857741093600e+00 2.7057975080989977e-01 3.2595824366307084e-02  5.1000000000000014e+00 2.7057993035299199e-01 3.2595821665111727e-02  0.0000000000000000e+00 0.0000000000000000e+00 0.0000000000000000e+00  3.6670536541744715e-02 9.2284477060851026e-03 2.4177241087358532e-02  2.0098098322453126e-01 1.0556466554006062e-01 3.4313492447548319e-02  4.4897450462276212e-01 1.5531902184775659e-01 3.3511187846743472e-02  7.2885123710965460e-01 1.5959424905393349e-01 3.1144276574081309e-02  1.0082291888249646e+00 1.5412666096858435e-01 3.1715863864672018e-02  1.2810565402155349e+00 1.5267724378017489e-01 3.2636762385459241e-02  1.5526671450745599e+00 1.5352203333795503e-01 3.2702037797418884e-02  1.8250452997849256e+00 1.5440761728368332e-01 3.2615338121972849e-02  2.0979154126240234e+00 1.5476927080327402e-01 3.2571053212074617e-02  2.3708739109789159e+00 1.5484661327475041e-01 3.2564482751555768e-02  2.6437997394028558e+00 1.5486392914026173e-01 3.2568368245243347e-02  2.9167031894656472e+00 1.5488478725142973e-01 3.2570470183910460e-02  3.1896066230304903e+00 1.5490534941815418e-01 3.2570473629040579e-02  3.4625160319563060e+00 1.5491842888311663e-01 3.2570023075633545e-02  3.7354289816048722e+00 1.5492485112968232e-01 3.2569814288560046e-02  4.0083429418321161e+00 1.5492782584524778e-01 3.2569803098531476e-02  4.2812570594774559e+00 1.5492938716747978e-01 3.2569830987588137e-02  4.5541712701098076e+00 1.5493029625256174e-01 3.2569841666775082e-02  4.8270855974356293e+00 1.5493078201950417e-01 3.2569839856041408e-02  5.1000000000000014e+00 1.5493093467600386e-01 3.2569837842222955e-02  0.0000000000000000e+00 0.0000000000000000e+00 0.0000000000000000e+00  2.7624549350468017e-02 8.6786727686573792e-03 1.8137001092367291e-02  1.6267801318993810e-01 1.0004276166711679e-02 3.9436776187467631e-02  4.4047167421456607e-01 3.3761124648921288e-02 2.9974425195877282e-02  7.3064580753679764e-01 3.5333440099657998e-02 3.0432198061918273e-02  1.0089409057978913e+00 3.6773685293148901e-02 3.2113616791968447e-02  1.2808398516713793e+00 3.7973261412968091e-02 3.2657061264702955e-02  1.5522855767427581e+00 3.8546902187276688e-02 3.2665844787375629e-02  1.8248068435579121e+00 3.8869905249863029e-02 3.2585545445711010e-02  2.0978246740824842e+00 3.9062276796368374e-02 3.2541309329110361e-02  2.3708457511043166e+00 3.9161206370724712e-02 3.2537912913802584e-02  2.6437850054409688e+00 3.9212819924293381e-02 3.2542742102810704e-02  2.9166913122808165e+00 3.9242730323575767e-02 3.2544718475714066e-02  3.1895984338577597e+00 3.9260310268568958e-02 3.2544465808957299e-02  3.4625114771766730e+00 3.9270233300854038e-02 3.2543940197479103e-02  3.7354267003211787e+00 3.9275701126004821e-02 3.2543767091445602e-02  4.0083417701244812e+00 3.9278711272050584e-02 3.2543792538660118e-02  4.2812564115493714e+00 3.9280372737966016e-02 3.2543837109381545e-02  4.5541709142408724e+00 3.9281272363939676e-02 3.2543854066341846e-02  4.8270854389559243e+00 3.9281714725817214e-02 3.2543854930687073e-02  5.1000000000000014e+00 3.9281848019512663e-02 3.2543854122789956e-02  0.0000000000000000e+00 0.0000000000000000e+00 0.0000000000000000e+00  4.0267992543581183e-02 5.5756073537278699e-04 2.6045234160413593e-02  1.7835426201032106e-01 -6.7118422999645821e-02 3.7435680424016522e-02  4.3896643136720426e-01 -9.8293882454808648e-02 2.9229723046917764e-02  7.2876013127330352e-01 -8.8284388631281130e-02 3.1410040364978485e-02  1.0069917422308416e+00 -8.0252130443211861e-02 3.2346239434410444e-02  1.2800804404746455e+00 -7.6925750438917001e-02 3.2590281317003041e-02  1.5521819793616942e+00 -7.6533849057602910e-02 3.2602696097867284e-02  1.8247691736325440e+00 -7.6710287332623917e-02 3.2546526267285020e-02  2.0977617218486744e+00 -7.6672581455302591e-02 3.2514494130125665e-02  2.3707951761506556e+00 -7.6539015188205786e-02 3.2512500055413791e-02  2.6437566569809166e+00 -7.6444986044181804e-02 3.2516441190708116e-02  2.9166778295222762e+00 -7.6403071582287235e-02 3.2518172107049326e-02  3.1895919347823467e+00 -7.6387126183038181e-02 3.2518102808799312e-02  3.4625078495154202e+00 -7.6379374870395561e-02 3.2517820679566517e-02  3.7354244880543570e+00 -7.6374219525663006e-02 3.2517759444502310e-02  4.0083404654016306e+00 -7.6370821941811620e-02 3.2517806439331685e-02  4.2812556994247535e+00 -7.6368878144317642e-02 3.2517850700648242e-02  4.5541705565498933e+00 -7.6367894072977685e-02 3.2517868406026239e-02  4.8270852912596167e+00 -7.6367449223617628e-02 3.2517871744422062e-02  5.1000000000000014e+00 -7.6367321998890944e-02 3.2517871804210390e-02  0.0000000000000000e+00 0.0000000000000000e+00 0.0000000000000000e+00  7.5123764457464604e-02 -3.1874632468747763e-02 3.3175658617952977e-02  2.4172757126357305e-01 -1.4591702209983459e-01 2.9657590336812333e-02  4.4713529439281025e-01 -2.1673010698397424e-01 3.2464627950999678e-02  7.2268923690918851e-01 -2.1119946355238933e-01 3.1936636330635704e-02  1.0030654130904968e+00 -1.9814438275252721e-01 3.2492055751904649e-02  1.2788618630933624e+00 -1.9274282638913551e-01 3.2505238775777316e-02  1.5522094477790664e+00 -1.9190105394401410e-01 3.2520164458403347e-02  1.8248843786483167e+00 -1.9225682059913776e-01 3.2501537233926833e-02  2.0977295309628357e+00 -1.9237358079948672e-01 3.2488838204919143e-02  2.3707253055423645e+00 -1.9224437468795866e-01 3.2486862447891104e-02  2.6437143990950238e+00 -1.9211635770876284e-01 3.2489384679441402e-02  2.9166615105154445e+00 -1.9205699501454118e-01 3.2491062031317700e-02  3.1895861821209892e+00 -1.9203750989117105e-01 3.2491582954005421e-02  3.4625047237183688e+00 -1.9202989134140649e-01 3.2491722489017848e-02  3.7354222044927012e+00 -1.9202463553495405e-01 3.2491788676860284e-02  4.0083389676172869e+00 -1.9202075963046372e-01 3.2491839955685810e-02  4.2812548798865109e+00 -1.9201841241562909e-01 3.2491872207950509e-02  4.5541701675311463e+00 -1.9201722738434204e-01 3.2491886306628602e-02  4.8270851401828132e+00 -1.9201671188965225e-01 3.2491890566852019e-02  5.1000000000000014e+00 -1.9201657141309578e-01 3.2491891152993106e-02  0.0000000000000000e+00 0.0000000000000000e+00 0.0000000000000000e+00  1.5287096194280386e-01 -1.0845982331846513e-01 3.0237041309623180e-02  3.1368197061363862e-01 -2.2614996277141949e-01 2.5128004947803751e-02  4.7695694932229216e-01 -3.0679174700948214e-01 3.1708651274846220e-02  7.1570639788424184e-01 -3.3186596939225460e-01 3.3551282780183954e-02  9.9785581160019188e-01 -3.1770976507753562e-01 3.2183456279770907e-02  1.2770782424428821e+00 -3.0990479050824560e-01 3.2416151222798069e-02  1.5520983185357347e+00 -3.0769842561257083e-01 3.2448119608285107e-02  1.8250610111746741e+00 -3.0776347575609952e-01 3.2460514401981791e-02  2.0977395244853345e+00 -3.0799974496130395e-01 3.2458347147119294e-02  2.3706518755348975e+00 -3.0794303299434145e-01 3.2458716580378917e-02  2.6436608049822827e+00 -3.0780519466764567e-01 3.2461811812475420e-02  2.9166399300755472e+00 -3.0772259712602351e-01 3.2464100781791197e-02  3.1895793183082364e+00 -3.0769169821625519e-01 3.2465272941534028e-02  3.4625015271251369e+00 -3.0768116996431821e-01 3.2465715858808503e-02  3.7354198001014263e+00 -3.0767540025329893e-01 3.2465846430210756e-02  4.0083372770875654e+00 -3.0767109766378076e-01 3.2465886975071551e-02  4.2812539184324381e+00 -3.0766827085270565e-01 3.2465903008578337e-02  4.5541697104472991e+00 -3.0766675417494938e-01 3.2465909778513651e-02  4.8270849660145814e+00 -3.0766608285351060e-01 3.2465911828749340e-02  5.1000000000000014e+00 -3.0766589991361321e-01 3.2465912088896050e-02  0.0000000000000000e+00 0.0000000000000000e+00 0.0000000000000000e+00  1.7333097202464071e-01 1.4115123849806172e-01 1.7986649114340357e-02  3.3122174649201008e-01 2.6240131568883374e-01 1.5734243511455942e-02  5.0194233438126834e-01 3.5254205534355088e-01 1.7296308142447894e-02  7.3081818327345849e-01 3.9184209330416420e-01 1.9532972682738764e-02  1.0005551454712200e+00 3.9202846029572092e-01 1.9771492624337594e-02  1.2790535523600415e+00 3.8528728442098675e-01 1.9125447031108276e-02  1.5537635166930310e+00 3.8393714349024294e-01 1.8920099495340192e-02  1.8260187667544221e+00 3.8503996842488297e-01 1.8961380807845193e-02  2.0982494218786458e+00 3.8587432803367566e-01 1.8996532078826591e-02  2.3709214160258236e+00 3.8613844108503997e-01 1.9002022394679224e-02  2.6438052606696023e+00 3.8617175716104468e-01 1.8999442145394223e-02  2.9167215093537067e+00 3.8617814823393121e-01 1.8998342272498362e-02  3.1896266934468676e+00 3.8619635779574973e-01 1.8998670052386691e-02  3.4625285347347763e+00 3.8621461426127301e-01 1.8999124855368317e-02  3.7354347763201421e+00 3.8622550817064910e-01 1.8999291022376654e-02  4.0083454887645615e+00 3.8623046689082025e-01 1.8999272246988764e-02  4.2812583952054473e+00 3.8623266317866234e-01 1.8999220065239405e-02  4.5541720528091911e+00 3.8623382059847450e-01 1.8999189504235819e-02  4.8270859709876879e+00 3.8623445713470095e-01 1.8999178775146782e-02  5.1000000000000014e+00 3.8623466482812979e-01 1.8999177625985832e-02  0.0000000000000000e+00 0.0000000000000000e+00 0.0000000000000000e+00  8.8603525581406398e-02 5.4523122873323941e-02 1.8697122196342286e-02  2.6061347013855080e-01 1.8835160870179024e-01 1.8359532896917167e-02  4.6945063564272788e-01 2.6187669799153607e-01 1.9293448896365042e-02  7.2776892888337530e-01 2.7982033718603233e-01 1.9337669478790891e-02  1.0048639502819749e+00 2.7279460253878990e-01 1.8790308152349527e-02  1.2805411092463845e+00 2.6818331777184373e-01 1.8953046951888229e-02  1.5532432997482435e+00 2.6859267289808686e-01 1.9020779092811441e-02  1.8254689201470136e+00 2.6981626770913064e-01 1.8990325303810729e-02  2.0980503999971836e+00 2.7039010533210955e-01 1.8975550840776054e-02  2.3708929157969649e+00 2.7051236205997320e-01 1.8971743061058387e-02  2.6438047666300326e+00 2.7051981175609185e-01 1.8972166793164665e-02  2.9167134186497341e+00 2.7053289578034323e-01 1.8972972597952543e-02  3.1896162990700057e+00 2.7055436363941304e-01 1.8973263078174905e-02  3.4625217234936776e+00 2.7057052420086752e-01 1.8973272553604949e-02  3.7354315936374425e+00 2.7057875463918230e-01 1.8973232133398351e-02  4.0083441294315243e+00 2.7058232305636493e-01 1.8973212929301323e-02  4.2812577036761672e+00 2.7058404025334287e-01 1.8973206881173158e-02  4.5541716468370268e+00 2.7058503553839042e-01 1.8973202224093464e-02  4.8270857751618808e+00 2.7058558962953139e-01 1.8973197952358248e-02  5.1000000000000014e+00 2.7058576933911632e-01 1.8973196043368865e-02  0.0000000000000000e+00 0.0000000000000000e+00 0.0000000000000000e+00  3.5021337650830875e-02 9.9719739166320258e-03 1.4157341876334769e-02  2.0282178585015656e-01 1.0662640657421708e-01 1.9989316485478470e-02  4.4910328749982542e-01 1.5551674640756660e-01 1.9612638134381747e-02  7.2897929319365273e-01 1.5962930444888784e-01 1.8032957973736229e-02  1.0083141859939582e+00 1.5403977010172160e-01 1.8348882539459065e-02  1.2810443058833449e+00 1.5268241662574519e-01 1.8992740335207460e-02  1.5526558701669202e+00 1.5353813820225276e-01 1.9038380200897861e-02  1.8250455618492605e+00 1.5441492502071097e-01 1.8980777654430875e-02  2.0979180735248808e+00 1.5477355100335449e-01 1.8949596713152068e-02  2.3708752497421890e+00 1.5485134587170257e-01 1.8944064889002549e-02  2.6437999585573251e+00 1.5486942713544480e-01 1.8946345609360048e-02  2.9167031007092730e+00 1.5489059427067878e-01 1.8947645046093673e-02  3.1896065697098956e+00 1.5491120270435907e-01 1.8947625136576600e-02  3.4625160362004808e+00 1.5492426876218321e-01 1.8947324350509560e-02  3.7354289989992830e+00 1.5493068436978716e-01 1.8947188278159308e-02  4.0083429523071485e+00 1.5493366142218351e-01 1.8947184804510634e-02  4.2812570635363159e+00 1.5493522547750879e-01 1.8947206581692747e-02  4.5541712717581486e+00 1.5493613529358011e-01 1.8947215501282623e-02  4.8270855983889716e+00 1.5493662099449668e-01 1.8947215052740309e-02  5.1000000000000014e+00 1.5493677354570015e-01 1.8947213901241773e-02  0.0000000000000000e+00 0.0000000000000000e+00 0.0000000000000000e+00  2.6560460738450260e-02 8.1175408155132536e-03 1.0637423533218485e-02  1.6253715891503806e-01 9.8692055582374691e-03 2.3046883398554003e-02  4.4096498505554232e-01 3.4183452703113536e-02 1.7262258624916163e-02  7.3095815238449591e-01 3.5056127891895189e-02 1.7513098011367630e-02  1.0089361102997862e+00 3.6692740017612309e-02 1.8643715361237642e-02  1.2808052463723523e+00 3.7983565497832099e-02 1.8996031547457933e-02  1.5522779929376407e+00 3.8566907783912009e-02 1.9001110303234713e-02  1.8248115349095919e+00 3.8878498054121788e-02 1.8952519581876874e-02  2.0978283511024891e+00 3.9066794038021234e-02 1.8921871319106009e-02  2.3708466452238826e+00 3.9166080676898501e-02 1.8918364126834862e-02  2.6437848606205021e+00 3.9218482094497471e-02 1.8920834724361783e-02  2.9166911339970185e+00 3.9248650845896370e-02 1.8921866814850596e-02  3.1895983946212199e+00 3.9266209346281222e-02 1.8921641056959291e-02  3.4625114961409458e+00 3.9276079370809847e-02 1.8921283562238086e-02  3.7354267171792825e+00 3.9281530365349204e-02 1.8921168060600822e-02  4.0083417755343946e+00 3.9284543896527142e-02 1.8921186092761794e-02  4.2812564124425529e+00 3.9286209971092091e-02 1.8921217612078989e-02  4.5541709148037715e+00 3.9287111080660624e-02 1.8921230679182752e-02  4.8270854396073259e+00 3.9287553530088719e-02 1.8921232373186575e-02  5.1000000000000014e+00 3.9287686654122946e-02 1.8921232138533202e-02  0.0000000000000000e+00 0.0000000000000000e+00 0.0000000000000000e+00  3.9048440792095566e-02 -7.4663137141769910e-04 1.5157013436521413e-02  1.7826695309549317e-01 -6.6434819861269076e-02 2.1952076713678558e-02  4.4011181902927998e-01 -9.8802636370091776e-02 1.6625609995144151e-02  7.2891106095542224e-01 -8.8446915079026522e-02 1.8279658845882472e-02  1.0069465501244617e+00 -8.0300181611985114e-02 1.8814260297424987e-02  1.2800452175255008e+00 -7.6908519796708916e-02 1.8952710358328063e-02  1.5521773219635278e+00 -7.6518294335113521e-02 1.8954327390177259e-02  1.8247755420529406e+00 -7.6702197702129632e-02 1.8915556578115285e-02  2.0977654273734592e+00 -7.6667185345603225e-02 1.8894316646184951e-02  2.3707957038635374e+00 -7.6533485922610001e-02 1.8892647693250691e-02  2.6437562909902357e+00 -7.6439069143625846e-02 1.8894601477054261e-02  2.9166775985314901e+00 -7.6397086181458435e-02 1.8895480694995970e-02  3.1895918998957025e+00 -7.6381221574185393e-02 1.8895381104857469e-02  3.4625078705979675e+00 -7.6373531835849495e-02 1.8895201529933386e-02  3.7354245001849011e+00 -7.6368391459268256e-02 1.8895171316285608e-02  4.0083404661648290e+00 -7.6364990113476902e-02 1.8895206245434108e-02  4.2812556979645109e+00 -7.6363041943496177e-02 1.8895236615168176e-02  4.5541705562257864e+00 -7.6362056166924097e-02 1.8895248939272188e-02  4.8270852915317572e+00 -7.6361610852173203e-02 1.8895251610346529e-02  5.1000000000000014e+00 -7.6361483667277630e-02 1.8895251819727791e-02  0.0000000000000000e+00 0.0000000000000000e+00 0.0000000000000000e+00  7.4821615520848678e-02 -3.2326106128367442e-02 1.9399209786784277e-02  2.4243528297257141e-01 -1.4616594128601451e-01 1.7335350979985530e-02  4.4758753331106671e-01 -2.1695734248398083e-01 1.8970036523225382e-02  7.2293145941475456e-01 -2.1117411345095252e-01 1.8668064249448509e-02  1.0030429231605300e+00 -1.9811855380511947e-01 1.8920438135899123e-02  1.2788283209025280e+00 -1.9272837033807638e-01 1.8904325720014374e-02  1.5522064223786500e+00 -1.9189257291485851e-01 1.8893088922789410e-02  1.8248888003798294e+00 -1.9225029829615431e-01 1.8873819890276110e-02  2.0977325534857214e+00 -1.9236695659480668e-01 1.8866587002482893e-02  2.3707257891030853e+00 -1.9223790344014838e-01 1.8865870505790232e-02  2.6437140337489096e+00 -1.9211017687600501e-01 1.8867560693993597e-02  2.9166612671758476e+00 -1.9205102909355373e-01 1.8868641800421755e-02  3.1895861296783830e+00 -1.9203165203850153e-01 1.8869001327255969e-02  3.4625047310155965e+00 -1.9202406439997025e-01 1.8869132582678364e-02  3.7354222097503365e+00 -1.9201880876184141e-01 1.8869200576384242e-02  4.0083389657862964e+00 -1.9201492806258244e-01 1.8869241971143598e-02  4.2812548773249208e+00 -1.9201257754903892e-01 1.8869263166006497e-02  4.5541701665216614e+00 -1.9201139069166195e-01 1.8869270927120659e-02  4.8270851400279415e+00 -1.9201087414797638e-01 1.8869272811644244e-02  5.1000000000000014e+00 -1.9201073335643737e-01 1.8869273023608111e-02  0.0000000000000000e+00 0.0000000000000000e+00 0.0000000000000000e+00  1.5186982615640421e-01 -1.0915690186508169e-01 1.8827365812253555e-02  3.1470482101307717e-01 -2.2659401452758160e-01 1.4998254792555080e-02  4.7708254418389784e-01 -3.0656872195520535e-01 1.8847403084331329e-02  7.1580512234844285e-01 -3.3200337175857780e-01 1.9822123678115689e-02  9.9784335299795002e-01 -3.1760127999562432e-01 1.8694058038277051e-02  1.2770596367728613e+00 -3.0989295742099876e-01 1.8841968680772755e-02  1.5520952115987769e+00 -3.0769770510649413e-01 1.8831520536567010e-02  1.8250644097871642e+00 -3.0775842325480940e-01 1.8834963013190355e-02  2.0977423123976831e+00 -3.0799196584240141e