<?xml version="1.0"?>
<VTKFile type="UnstructuredGrid"  version="0.1"  >
<UnstructuredGrid>
<Piece  NumberOfPoints="2976" NumberOfCells="13500">
<Points>
<DataArray  type="Float64"  NumberOfComponents="3"  format="ascii">0 0 0  0.3333333333333333 0 0  0.6666666666666666 0 0  1 0 0  1.333333333333333 0 0  1.666666666666667 0 0  2 0 0  2.333333333333333 0 0  2.666666666666667 0 0  3 0 0  3.333333333333333 0 0  3.666666666666667 0 0  4 0 0  4.333333333333333 0 0  4.666666666666667 0 0  5 0 0  5.333333333333333 0 0  5.666666666666667 0 0  6 0 0  6.333333333333333 0 0  6.666666666666667 0 0  7 0 0  7.333333333333333 0 0  7.666666666666667 0 0  8 0 0  8.333333333333334 0 0  8.666666666666666 0 0  9 0 0  9.333333333333334 0 0  9.666666666666666 0 0  10 0 0  0 0.2 0  0.3333333333333333 0.2 0  0.6666666666666666 0.2 0  1 0.2 0  1.333333333333333 0.2 0  1.666666666666667 0.2 0  2 0.2 0  2.333333333333333 0.2 0  2.666666666666667 0.2 0  3 0.2 0  3.333333333333333 0.2 0  3.666666666666667 0.2 0  4 0.2 0  4.333333333333333 0.2 0  4.666666666666667 0.2 0  5 0.2 0  5.333333333333333 0.2 0  5.666666666666667 0.2 0  6 0.2 0  6.333333333333333 0.2 0  6.666666666666667 0.2 0  7 0.2 0  7.333333333333333 0.2 0  7.666666666666667 0.2 0  8 0.2 0  8.333333333333334 0.2 0  8.666666666666666 0.2 0  9 0.2 0  9.333333333333334 0.2 0  9.666666666666666 0.2 0  10 0.2 0  0 0.4 0  0.3333333333333333 0.4 0  0.6666666666666666 0.4 0  1 0.4 0  1.333333333333333 0.4 0  1.666666666666667 0.4 0  2 0.4 0  2.333333333333333 0.4 0  2.666666666666667 0.4 0  3 0.4 0  3.333333333333333 0.4 0  3.666666666666667 0.4 0  4 0.4 0  4.333333333333333 0.4 0  4.666666666666667 0.4 0  5 0.4 0  5.333333333333333 0.4 0  5.666666666666667 0.4 0  6 0.4 0  6.333333333333333 0.4 0  6.666666666666667 0.4 0  7 0.4 0  7.333333333333333 0.4 0  7.666666666666667 0.4 0  8 0.4 0  8.333333333333334 0.4 0  8.666666666666666 0.4 0  9 0.4 0  9.333333333333334 0.4 0  9.666666666666666 0.4 0  10 0.4 0  0 0.6 0  0.3333333333333333 0.6 0  0.6666666666666666 0.6 0  1 0.6 0  1.333333333333333 0.6 0  1.666666666666667 0.6 0  2 0.6 0  2.333333333333333 0.6 0  2.666666666666667 0.6 0  3 0.6 0  3.333333333333333 0.6 0  3.666666666666667 0.6 0  4 0.6 0  4.333333333333333 0.6 0  4.666666666666667 0.6 0  5 0.6 0  5.333333333333333 0.6 0  5.666666666666667 0.6 0  6 0.6 0  6.333333333333333 0.6 0  6.666666666666667 0.6 0  7 0.6 0  7.333333333333333 0.6 0  7.666666666666667 0.6 0  8 0.6 0  8.333333333333334 0.6 0  8.666666666666666 0.6 0  9 0.6 0  9.333333333333334 0.6 0  9.666666666666666 0.6 0  10 0.6 0  0 0.8 0  0.3333333333333333 0.8 0  0.6666666666666666 0.8 0  1 0.8 0  1.333333333333333 0.8 0  1.666666666666667 0.8 0  2 0.8 0  2.333333333333333 0.8 0  2.666666666666667 0.8 0  3 0.8 0  3.333333333333333 0.8 0  3.666666666666667 0.8 0  4 0.8 0  4.333333333333333 0.8 0  4.666666666666667 0.8 0  5 0.8 0  5.333333333333333 0.8 0  5.666666666666667 0.8 0  6 0.8 0  6.333333333333333 0.8 0  6.666666666666667 0.8 0  7 0.8 0  7.333333333333333 0.8 0  7.666666666666667 0.8 0  8 0.8 0  8.333333333333334 0.8 0  8.666666666666666 0.8 0  9 0.8 0  9.333333333333334 0.8 0  9.666666666666666 0.8 0  10 0.8 0  0 1 0  0.3333333333333333 1 0  0.6666666666666666 1 0  1 1 0  1.333333333333333 1 0  1.666666666666667 1 0  2 1 0  2.333333333333333 1 0  2.666666666666667 1 0  3 1 0  3.333333333333333 1 0  3.666666666666667 1 0  4 1 0  4.333333333333333 1 0  4.666666666666667 1 0  5 1 0  5.333333333333333 1 0  5.666666666666667 1 0  6 1 0  6.333333333333333 1 0  6.666666666666667 1 0  7 1 0  7.333333333333333 1 0  7.666666666666667 1 0  8 1 0  8.333333333333334 1 0  8.666666666666666 1 0  9 1 0  9.333333333333334 1 0  9.666666666666666 1 0  10 1 0  0 1.2 0  0.3333333333333333 1.2 0  0.6666666666666666 1.2 0  1 1.2 0  1.333333333333333 1.2 0  1.666666666666667 1.2 0  2 1.2 0  2.333333333333333 1.2 0  2.666666666666667 1.2 0  3 1.2 0  3.333333333333333 1.2 0  3.666666666666667 1.2 0  4 1.2 0  4.333333333333333 1.2 0  4.666666666666667 1.2 0  5 1.2 0  5.333333333333333 1.2 0  5.666666666666667 1.2 0  6 1.2 0  6.333333333333333 1.2 0  6.666666666666667 1.2 0  7 1.2 0  7.333333333333333 1.2 0  7.666666666666667 1.2 0  8 1.2 0  8.333333333333334 1.2 0  8.666666666666666 1.2 0  9 1.2 0  9.333333333333334 1.2 0  9.666666666666666 1.2 0  10 1.2 0  0 1.4 0  0.3333333333333333 1.4 0  0.6666666666666666 1.4 0  1 1.4 0  1.333333333333333 1.4 0  1.666666666666667 1.4 0  2 1.4 0  2.333333333333333 1.4 0  2.666666666666667 1.4 0  3 1.4 0  3.333333333333333 1.4 0  3.666666666666667 1.4 0  4 1.4 0  4.333333333333333 1.4 0  4.666666666666667 1.4 0  5 1.4 0  5.333333333333333 1.4 0  5.666666666666667 1.4 0  6 1.4 0  6.333333333333333 1.4 0  6.666666666666667 1.4 0  7 1.4 0  7.333333333333333 1.4 0  7.666666666666667 1.4 0  8 1.4 0  8.333333333333334 1.4 0  8.666666666666666 1.4 0  9 1.4 0  9.333333333333334 1.4 0  9.666666666666666 1.4 0  10 1.4 0  0 1.6 0  0.3333333333333333 1.6 0  0.6666666666666666 1.6 0  1 1.6 0  1.333333333333333 1.6 0  1.666666666666667 1.6 0  2 1.6 0  2.333333333333333 1.6 0  2.666666666666667 1.6 0  3 1.6 0  3.333333333333333 1.6 0  3.666666666666667 1.6 0  4 1.6 0  4.333333333333333 1.6 0  4.666666666666667 1.6 0  5 1.6 0  5.333333333333333 1.6 0  5.666666666666667 1.6 0  6 1.6 0  6.333333333333333 1.6 0  6.666666666666667 1.6 0  7 1.6 0  7.333333333333333 1.6 0  7.666666666666667 1.6 0  8 1.6 0  8.333333333333334 1.6 0  8.666666666666666 1.6 0  9 1.6 0  9.333333333333334 1.6 0  9.666666666666666 1.6 0  10 1.6 0  0 1.8 0  0.3333333333333333 1.8 0  0.6666666666666666 1.8 0  1 1.8 0  1.333333333333333 1.8 0  1.666666666666667 1.8 0  2 1.8 0  2.333333333333333 1.8 0  2.666666666666667 1.8 0  3 1.8 0  3.333333333333333 1.8 0  3.666666666666667 1.8 0  4 1.8 0  4.333333333333333 1.8 0  4.666666666666667 1.8 0  5 1.8 0  5.333333333333333 1.8 0  5.666666666666667 1.8 0  6 1.8 0  6.333333333333333 1.8 0  6.666666666666667 1.8 0  7 1.8 0  7.333333333333333 1.8 0  7.666666666666667 1.8 0  8 1.8 0  8.333333333333334 1.8 0  8.666666666666666 1.8 0  9 1.8 0  9.333333333333334 1.8 0  9.666666666666666 1.8 0  10 1.8 0  0 2 0  0.3333333333333333 2 0  0.6666666666666666 2 0  1 2 0  1.333333333333333 2 0  1.666666666666667 2 0  2 2 0  2.333333333333333 2 0  2.666666666666667 2 0  3 2 0  3.333333333333333 2 0  3.666666666666667 2 0  4 2 0  4.333333333333333 2 0  4.666666666666667 2 0  5 2 0  5.333333333333333 2 0  5.666666666666667 2 0  6 2 0  6.333333333333333 2 0  6.666666666666667 2 0  7 2 0  7.333333333333333 2 0  7.666666666666667 2 0  8 2 0  8.333333333333334 2 0  8.666666666666666 2 0  9 2 0  9.333333333333334 2 0  9.666666666666666 2 0  10 2 0  0 2.2 0  0.3333333333333333 2.2 0  0.6666666666666666 2.2 0  1 2.2 0  1.333333333333333 2.2 0  1.666666666666667 2.2 0  2 2.2 0  2.333333333333333 2.2 0  2.666666666666667 2.2 0  3 2.2 0  3.333333333333333 2.2 0  3.666666666666667 2.2 0  4 2.2 0  4.333333333333333 2.2 0  4.666666666666667 2.2 0  5 2.2 0  5.333333333333333 2.2 0  5.666666666666667 2.2 0  6 2.2 0  6.333333333333333 2.2 0  6.666666666666667 2.2 0  7 2.2 0  7.333333333333333 2.2 0  7.666666666666667 2.2 0  8 2.2 0  8.333333333333334 2.2 0  8.666666666666666 2.2 0  9 2.2 0  9.333333333333334 2.2 0  9.666666666666666 2.2 0  10 2.2 0  0 2.4 0  0.3333333333333333 2.4 0  0.6666666666666666 2.4 0  1 2.4 0  1.333333333333333 2.4 0  1.666666666666667 2.4 0  2 2.4 0  2.333333333333333 2.4 0  2.666666666666667 2.4 0  3 2.4 0  3.333333333333333 2.4 0  3.666666666666667 2.4 0  4 2.4 0  4.333333333333333 2.4 0  4.666666666666667 2.4 0  5 2.4 0  5.333333333333333 2.4 0  5.666666666666667 2.4 0  6 2.4 0  6.333333333333333 2.4 0  6.666666666666667 2.4 0  7 2.4 0  7.333333333333333 2.4 0  7.666666666666667 2.4 0  8 2.4 0  8.333333333333334 2.4 0  8.666666666666666 2.4 0  9 2.4 0  9.333333333333334 2.4 0  9.666666666666666 2.4 0  10 2.4 0  0 2.6 0  0.3333333333333333 2.6 0  0.6666666666666666 2.6 0  1 2.6 0  1.333333333333333 2.6 0  1.666666666666667 2.6 0  2 2.6 0  2.333333333333333 2.6 0  2.666666666666667 2.6 0  3 2.6 0  3.333333333333333 2.6 0  3.666666666666667 2.6 0  4 2.6 0  4.333333333333333 2.6 0  4.666666666666667 2.6 0  5 2.6 0  5.333333333333333 2.6 0  5.666666666666667 2.6 0  6 2.6 0  6.333333333333333 2.6 0  6.666666666666667 2.6 0  7 2.6 0  7.333333333333333 2.6 0  7.666666666666667 2.6 0  8 2.6 0  8.333333333333334 2.6 0  8.666666666666666 2.6 0  9 2.6 0  9.333333333333334 2.6 0  9.666666666666666 2.6 0  10 2.6 0  0 2.8 0  0.3333333333333333 2.8 0  0.6666666666666666 2.8 0  1 2.8 0  1.333333333333333 2.8 0  1.666666666666667 2.8 0  2 2.8 0  2.333333333333333 2.8 0  2.666666666666667 2.8 0  3 2.8 0  3.333333333333333 2.8 0  3.666666666666667 2.8 0  4 2.8 0  4.333333333333333 2.8 0  4.666666666666667 2.8 0  5 2.8 0  5.333333333333333 2.8 0  5.666666666666667 2.8 0  6 2.8 0  6.333333333333333 2.8 0  6.666666666666667 2.8 0  7 2.8 0  7.333333333333333 2.8 0  7.666666666666667 2.8 0  8 2.8 0  8.333333333333334 2.8 0  8.666666666666666 2.8 0  9 2.8 0  9.333333333333334 2.8 0  9.666666666666666 2.8 0  10 2.8 0  0 3 0  0.3333333333333333 3 0  0.6666666666666666 3 0  1 3 0  1.333333333333333 3 0  1.666666666666667 3 0  2 3 0  2.333333333333333 3 0  2.666666666666667 3 0  3 3 0  3.333333333333333 3 0  3.666666666666667 3 0  4 3 0  4.333333333333333 3 0  4.666666666666667 3 0  5 3 0  5.333333333333333 3 0  5.666666666666667 3 0  6 3 0  6.333333333333333 3 0  6.666666666666667 3 0  7 3 0  7.333333333333333 3 0  7.666666666666667 3 0  8 3 0  8.333333333333334 3 0  8.666666666666666 3 0  9 3 0  9.333333333333334 3 0  9.666666666666666 3 0  10 3 0  0 0 0.1  0.3333333333333333 0 0.1  0.6666666666666666 0 0.1  1 0 0.1  1.333333333333333 0 0.1  1.666666666666667 0 0.1  2 0 0.1  2.333333333333333 0 0.1  2.666666666666667 0 0.1  3 0 0.1  3.333333333333333 0 0.1  3.666666666666667 0 0.1  4 0 0.1  4.333333333333333 0 0.1  4.666666666666667 0 0.1  5 0 0.1  5.333333333333333 0 0.1  5.666666666666667 0 0.1  6 0 0.1  6.333333333333333 0 0.1  6.666
[...]
<PointData  Vectors="f_7-0"> 
<DataArray  type="Float64"  Name="f_7-0"  NumberOfComponents="3" format="ascii">0.0000000000000000e+00 0.0000000000000000e+00 0.0000000000000000e+00  6.9825357010394370e-02 8.3809367547045183e-02 -6.6146947099655854e-03  1.3583194221891493e-01 1.5478981464868832e-01 1.7302659211065156e-04  1.9830273380053715e-01 2.1730648615395212e-01 5.2751151386109618e-04  2.5948577424457747e-01 2.7662780276792065e-01 2.3086475668008394e-04  3.1967709407540096e-01 3.3353846276184584e-01 -6.0504719095490966e-05  3.7874695876473008e-01 3.8837627416375853e-01 -1.1265045871686279e-03  4.4177199860739830e-01 4.3623384395961834e-01 -3.5421252582887941e-03  5.1723026825882490e-01 4.6844818893888890e-01 -8.6434567269178079e-03  6.0666556296603147e-01 4.8144357849213509e-01 -1.5292661455917825e-02  7.0500210717166367e-01 4.8080183581284142e-01 -2.0287517483045123e-02  8.0685811656835171e-01 4.7496168740298034e-01 -2.2295660403914255e-02  9.0923094248074277e-01 4.6900853322395375e-01 -2.2297123488393553e-02  1.0110437259880221e+00 4.6459120301830292e-01 -2.1581940297455821e-02  1.1120369024618817e+00 4.6192264476081674e-01 -2.0782632732473487e-02  1.2122220348100818e+00 4.6078337929964253e-01 -2.0101012819641734e-02  1.3117454714393602e+00 4.6077668160795321e-01 -1.9604930416909586e-02  1.4108350956745326e+00 4.6143067804400928e-01 -1.9313928562589251e-02  1.5097292408009990e+00 4.6231449165892008e-01 -1.9203497920811032e-02  1.6086081706335971e+00 4.6313376164621700e-01 -1.9215681284129506e-02  1.7075678945810189e+00 4.6375161272887477e-01 -1.9286214893913765e-02  1.8066357919213354e+00 4.6414715354997726e-01 -1.9367240325919414e-02  1.9058003096232390e+00 4.6435925052621407e-01 -1.9433526725710255e-02  2.0050346194395319e+00 4.6444552992282434e-01 -1.9477019596281356e-02  2.1043102204494022e+00 4.6446018650219145e-01 -1.9499066375385819e-02  2.2036035254381194e+00 4.6444427279597345e-01 -1.9504963394543110e-02  2.3028984013914062e+00 4.6442316573669051e-01 -1.9500958276777416e-02  2.4021862188332661e+00 4.6440834885467797e-01 -1.9492653599364439e-02  2.5014644031187729e+00 4.6440163527619038e-01 -1.9484213915638416e-02  2.6007344208367398e+00 4.6440011209948068e-01 -1.9478365659015680e-02  2.6999999999999997e+00 4.6440028497145497e-01 -1.9476584757441271e-02  0.0000000000000000e+00 0.0000000000000000e+00 0.0000000000000000e+00  3.6799174557899397e-02 3.3770187853938732e-02 -3.7934211147160612e-03  1.0842221133235415e-01 1.1562380339162621e-01 -1.0832391893588061e-03  1.7287082635233211e-01 1.8154060607662606e-01 -6.7339878450664397e-04  2.3491881474905643e-01 2.4181273992665617e-01 -2.1211648716187780e-04  2.9556323781179772e-01 2.9989396014736103e-01 -7.1277621967829447e-04  3.5682605168685194e-01 3.5413356104085186e-01 -1.9547577682901009e-03  4.2676375653585213e-01 3.9639040470455905e-01 -5.6611104059877369e-03  5.1088380886326645e-01 4.1922950011939475e-01 -1.2075041135396911e-02  6.0616509018362208e-01 4.2435489338629806e-01 -1.8354895839005618e-02  7.0682892080035553e-01 4.1995207654087247e-01 -2.1655963340208004e-02  8.0892646919251077e-01 4.1332620416508642e-01 -2.2199174874455038e-02  9.1083188650610025e-01 4.0777200753778925e-01 -2.1666248946784997e-02  1.0120630825268548e+00 4.0406343253334548e-01 -2.0969052304798036e-02  1.1125255315564502e+00 4.0212094763612066e-01 -2.0320380107774656e-02  1.2122958414516203e+00 4.0159403595422249e-01 -1.9791913594138070e-02  1.3115576061048413e+00 4.0200789709919066e-01 -1.9437272500236951e-02  1.4105386767879167e+00 4.0287148439213455e-01 -1.9267347431305627e-02  1.5094379097447486e+00 4.0379598556465884e-01 -1.9242108949554668e-02  1.6083803308089415e+00 4.0455863205446257e-01 -1.9297361463108922e-02  1.7074173667918664e+00 4.0508578143765062e-01 -1.9377677080961674e-02  1.8065518750167409e+00 4.0539502853035070e-01 -1.9450623548980618e-02  1.9057636275710810e+00 4.0554196393172165e-01 -1.9503417619029063e-02  2.0050259192396118e+00 4.0558768424731234e-01 -1.9534557534615745e-02  2.1043143219730203e+00 4.0558313579953625e-01 -1.9547736585914462e-02  2.2036105778790840e+00 4.0556329025131638e-01 -1.9548559097843761e-02  2.3029035533603595e+00 4.0554700421403772e-01 -1.9542680407688598e-02  2.4021883444295749e+00 4.0554030726580548e-01 -1.9534659713130686e-02  2.5014644524762848e+00 4.0554127924562167e-01 -1.9527501541252542e-02  2.6007339222197943e+00 4.0554486104516024e-01 -1.9522830107537404e-02  2.6999999999999997e+00 4.0554659595646259e-01 -1.9521190525297979e-02  0.0000000000000000e+00 0.0000000000000000e+00 0.0000000000000000e+00  1.5972833205976464e-02 6.7245529708130263e-03 8.5697795360429856e-03  7.9874538213329196e-02 7.4807072682488665e-02 -6.7613267820615698e-03  1.4679532400088938e-01 1.4421063194892025e-01 -3.9716324321157780e-04  2.1006354103600797e-01 2.0649337663509917e-01 -9.4462737687412725e-04  2.7154189654328942e-01 2.6522427420604272e-01 -1.1142110276382026e-03  3.3699400074582614e-01 3.1665607075218710e-01 -3.3102116503357626e-03  4.1547519754382745e-01 3.5095564136557078e-01 -9.0450700510677617e-03  5.0736641947063732e-01 3.6492839999499888e-01 -1.6431773128226194e-02  6.0694600277221455e-01 3.6460809757820117e-01 -2.1452362554023191e-02  7.0894739362966408e-01 3.5853659220634154e-01 -2.2607063906366284e-02  8.1091388344572202e-01 3.5202388734266865e-01 -2.1864499375409380e-02  9.1225627602402748e-01 3.4705708263169888e-01 -2.1033764558053319e-02  1.0128883327345777e+00 3.4402685329608168e-01 -2.0412104340399237e-02  1.1128397336853357e+00 3.4271321425932072e-01 -1.9903563781697609e-02  1.2122416781923280e+00 3.4266790119098062e-01 -1.9520440130861631e-02  1.3112997811473734e+00 3.4336573878955062e-01 -1.9307113302556949e-02  1.4102227507516618e+00 3.4432979826177396e-01 -1.9255219854153533e-02  1.5091582731155559e+00 3.4523229532634964e-01 -1.9305700319848414e-02  1.6081765353926871e+00 3.4591775360378418e-01 -1.9392800605772056e-02  1.7072911492993716e+00 3.4635928927050780e-01 -1.9474766412141360e-02  1.8064869940247816e+00 3.4659783583157050e-01 -1.9535483852149406e-02  1.9057392534228432e+00 3.4669662508343646e-01 -1.9573162153999912e-02  2.0050234450227395e+00 3.4671593800879102e-01 -1.9591460210529713e-02  2.1043201409161449e+00 3.4670189498163245e-01 -1.9595781312975492e-02  2.2036166323253075e+00 3.4668335245361853e-01 -1.9591808785035317e-02  2.3029065494444878e+00 3.4667355557234669e-01 -1.9584443193383306e-02  2.4021882477057734e+00 3.4667443423300259e-01 -1.9577067731026240e-02  2.5014628409060569e+00 3.4668167613793532e-01 -1.9571428451973988e-02  2.6007326075506683e+00 3.4668915381943749e-01 -1.9568037855773039e-02  2.6999999999999997e+00 3.4669218878408486e-01 -1.9566878417296693e-02  0.0000000000000000e+00 0.0000000000000000e+00 0.0000000000000000e+00  1.3628586797941997e-02 2.6366458774151180e-03 1.0702032752568647e-02  5.0871872416785528e-02 3.1776251635070286e-02 2.6371431594518274e-03  1.2019617717323453e-01 1.0604545468101417e-01 -4.1611357204429213e-03  1.8479933640686624e-01 1.7040256820630328e-01 -1.2381477419560710e-03  2.4812359751168003e-01 2.2904295732332136e-01 -1.8180115003135651e-03  3.2050976045841423e-01 2.7471252341039082e-01 -5.9352130442176729e-03  4.0788852176252355e-01 2.9963857721641685e-01 -1.3575405052194421e-02  5.0601820539007680e-01 3.0624314574455447e-01 -2.0792453883232264e-02  6.0840509714330093e-01 3.0299364957596542e-01 -2.3688620422666565e-02  7.1101852539772015e-01 2.9687853685348259e-01 -2.2948021148452277e-02  8.1270920429448956e-01 2.9109248099793700e-01 -2.1475592053053574e-02  9.1348885338782215e-01 2.8685943117063278e-01 -2.0500873229799661e-02  1.0135358696855532e+00 2.8447334261702589e-01 -1.9921891783108301e-02  1.1130087506867390e+00 2.8367971563883204e-01 -1.9530227762354350e-02  1.2120941817140665e+00 2.8397550931169563e-01 -1.9290209418615329e-02  1.3110039736999601e+00 2.8482111947825522e-01 -1.9216093920915792e-02  1.4099093858289127e+00 2.8578609351142098e-01 -1.9271279085300772e-02  1.5089006572629471e+00 2.8661519583205375e-01 -1.9382506557153407e-02  1.6079984255333810e+00 2.8721048188591441e-01 -1.9490248351332017e-02  1.7071864411332667e+00 2.8757489725873042e-01 -1.9568842081534712e-02  1.8064369789753252e+00 2.8775924831989069e-01 -1.9616400049281661e-02  1.9057232794736942e+00 2.8782664901918237e-01 -1.9639593948483910e-02  2.0050242474147586e+00 2.8783292269185640e-01 -1.9646019118158387e-02  2.1043258656852437e+00 2.8781813674283646e-01 -1.9642449960660242e-02  2.2036208903880325e+00 2.8780525066770823e-01 -1.9634530347262476e-02  2.3029073092311427e+00 2.8780296618947404e-01 -1.9626297210710106e-02  2.4021862218126433e+00 2.8781049937513592e-01 -1.9619902174833049e-02  2.5014599202969889e+00 2.8782243342979535e-01 -1.9615863334117526e-02  2.6007306256855394e+00 2.8783257505907306e-01 -1.9613782089399411e-02  2.6999999999999997e+00 2.8783648284943364e-01 -1.9613140756432775e-02  0.0000000000000000e+00 0.0000000000000000e+00 0.0000000000000000e+00  1.6200356986675175e-02 4.1908399288385183e-03 8.7232150832372117e-03  3.5280358805246680e-02 1.1062091678278402e-02 1.0608615048434097e-02  9.2010477500199722e-02 6.4443719540596647e-02 -1.9496035130963387e-03  1.5912845131136294e-01 1.3344886781986973e-01 -1.7863935599136227e-03  2.2672501383593302e-01 1.9006028556917304e-01 -3.6708920073973608e-03  3.0813591250791345e-01 2.2708693158790771e-01 -1.0065415629993177e-02  4.0348933811700932e-01 2.4278349138165062e-01 -1.8802640381181270e-02  5.0605156353039804e-01 2.4431407321529905e-01 -2.4363843614686291e-02  6.0996077438095997e-01 2.4031153047980836e-01 -2.4798898200314300e-02  7.1278952299661280e-01 2.3515364679715325e-01 -2.2913146982444101e-02  8.1421491555655301e-01 2.3048856605928270e-01 -2.1190211158633374e-02  9.1450423002963543e-01 2.2713389215900356e-01 -2.0107495753456703e-02  1.0140205583411406e+00 2.2537101663723774e-01 -1.9509533167957362e-02  1.1130661735817817e+00 2.2498385145676189e-01 -1.9205613741709190e-02  1.2118930126344563e+00 2.2547604622216075e-01 -1.9106035231921829e-02  1.3107044036488065e+00 2.2634124691752852e-01 -1.9164973763336556e-02  1.4096202227092072e+00 2.2722349364691319e-01 -1.9310557073094446e-02  1.5086742080308417e+00 2.2794129975539890e-01 -1.9465464779401247e-02  1.6078467828483582e+00 2.2844019371653218e-01 -1.9584278938082646e-02  1.7070999261686555e+00 2.2873779863645460e-01 -1.9657044389787385e-02  1.8063973018184005e+00 2.2888408649392775e-01 -1.9692304371820357e-02  1.9057115471543762e+00 2.2893575693263923e-01 -1.9702565849380647e-02  2.0050252466964253e+00 2.2894106477063861e-01 -1.9698524566895192e-02  2.1043296640958276e+00 2.2893306718708945e-01 -1.9688224634351291e-02  2.2036226001287296e+00 2.2892925173958426e-01 -1.9677223838172084e-02  2.3029058202445669e+00 2.2893494644639803e-01 -1.9668627826677852e-02  2.4021826173260394e+00 2.2894800637418777e-01 -1.9663357954093557e-02  2.5014560748212658e+00 2.2896308245585739e-01 -1.9660845443143251e-02  2.6007282196299184e+00 2.2897470160144670e-01 -1.9659971425234766e-02  2.6999999999999997e+00 2.2897902569976347e-01 -1.9659807512992872e-02  0.0000000000000000e+00 0.0000000000000000e+00 0.0000000000000000e+00  1.5791014750539425e-02 3.3947593141293994e-03 9.3104925407993481e-03  3.2671751150176474e-02 5.8912730195667690e-03 1.0751163450740446e-02  6.8574179065618565e-02 3.0788358774973029e-02 5.9419965654579762e-03  1.3362072291629479e-01 9.5240833430686622e-02 -3.4921852352551319e-03  2.0899465186549304e-01 1.4634772055666787e-01 -6.7559720775541132e-03  2.9983223863850195e-01 1.7327015178810692e-01 -1.5679945574883482e-02  4.0148373471221410e-01 1.8130962155515523e-01 -2.3844753917985951e-02  5.0668145252886032e-01 1.8042524366868512e-01 -2.6536508351563969e-02  6.1123825999440529e-01 1.7712528841422967e-01 -2.5018495759633726e-02  7.1412626665550261e-01 1.7342224292778191e-01 -2.2787168523463432e-02  8.1535265067493656e-01 1.7013117857214027e-01 -2.1041294166745186e-02  9.1526684368264855e-01 1.6779640060877798e-01 -1.9855764958394997e-02  1.0143495176245614e+00 1.6665995540201187e-01 -1.9194186879949969e-02  1.1130450269160082e+00 1.6657444798710649e-01 -1.8945634906657956e-02  1.2116773270896302e+00 1.6712465546968822e-01 -1.8973894001737365e-02  1.3104316705031889e+00 1.6789780710561827e-01 -1.9149974029255837e-02  1.4093725118672638e+00 1.6863295014969770e-01 -1.9364707236206043e-02  1.5084853782327072e+00 1.6921401460100030e-01 -1.9547266712142578e-02  1.6077215719579439e+00 1.6961470109468285e-01 -1.9670635086898303e-02  1.7070284288718014e+00 1.6985556460411616e-01 -1.9737496445908328e-02  1.8063638286402448e+00 1.6997808688477933e-01 -1.9762649617819348e-02  1.9057002868360862e+00 1.7002766162040345e-01 -1.9762249933651110e-02  2.0050236953821727e+00 1.7004229692971767e-01 -1.9749531948520058e-02  2.1043299593482856e+00 1.7004724585647729e-01 -1.9733789380542904e-02  2.2036211688645047e+00 1.7005505054027362e-01 -1.9720494470519503e-02  2.3029021302443584e+00 1.7006882612611052e-01 -1.9711838058460034e-02  2.4021777689572392e+00 1.7008629909346978e-01 -1.9707620955649822e-02  2.5014516617389253e+00 1.7010315063603826e-01 -1.9706397622304590e-02  2.6007256192846708e+00 1.7011520255385437e-01 -1.9706512497933128e-02  2.6999999999999997e+00 1.7011955158667671e-01 -1.9706718984849939e-02  0.0000000000000000e+00 0.0000000000000000e+00 0.0000000000000000e+00  1.5065889284226580e-02 2.0704369848768981e-03 9.1293602667499741e-03  3.4307766125454039e-02 5.4842626197872217e-03 9.6599068764507100e-03  5.5442695771270804e-02 1.3691036974473795e-02 1.0926728268326203e-02  1.1064837704476806e-01 5.4849344987597491e-02 -2.2049190428304310e-04  1.9590553143274436e-01 9.6695483472561253e-02 -1.1704213094047363e-02  2.9502338243351789e-01 1.1355639847472815e-01 -2.1958798091419471e-02  4.0090621456873365e-01 1.1664399434660022e-01 -2.7615646336493233e-02  5.0728661246168139e-01 1.1561771734911523e-01 -2.7265175898817277e-02  6.1206691303197347e-01 1.1372404794701363e-01 -2.4852623177075428e-02  7.1496430219799634e-01 1.1169584040161519e-01 -2.2711626894295806e-02  8.1606570031441794e-01 1.0993470406003755e-01 -2.0991722158378929e-02  9.1573661681642482e-01 1.0873652193380108e-01 -1.9727333168653657e-02  1.0145213069023844e+00 1.0824831401153265e-01 -1.8996568726797121e-02  1.1129750031723369e+00 1.0838171466065176e-01 -1.8777412772226651e-02  1.2114823775088841e+00 1.0887444298384033e-01 -1.8902809761552966e-02  1.3102105456451505e+00 1.0946977212850693e-01 -1.9165448019938216e-02  1.4091786957420722e+00 1.1001356246778654e-01 -1.9425189608674145e-02  1.5083383367159269e+00 1.1044240130239111e-01 -1.9622454691872473e-02  1.6076224093598563e+00 1.1074519297142249e-01 -1.9746825485669441e-02  1.7069692879510878e+00 1.1093758940646808e-01 -1.9809088258155052e-02  1.8063331162518454e+00 1.1104766174445369e-01 -1.9826971853695387e-02  1.9056863341747554e+00 1.1110593763861330e-01 -1.9818706297592505e-02  2.0050173081257761e+00 1.1113797425684846e-01 -1.9799506052128199e-02  2.1043254810069025e+00 1.1116055383355125e-01 -1.9779769387869645e-02  2.2036161555475893e+00 1.1118178923129922e-01 -1.9764891124977230e-02  2.3028963094435420e+00 1.1120360226466573e-01 -1.9756276728875144e-02  2.4021719607596013e+00 1.1122458934562474e-01 -1.9752850681865330e-02  2.5014469801839416e+00 1.1124216598780173e-01 -1.9752540680435408e-02  2.6007230117488618e+00 1.1125385664954351e-01 -1.9753330066299740e-02  2.6999999999999997e+00 1.1125794186982847e-01 -1.9753777811584054e-02  0.0000000000000000e+00 0.0000000000000000e+00 0.0000000000000000e+00  1.5036774149602552e-02 9.3584048103034724e-04 8.8227130770254635e-03  3.3345974525770053e-02 3.6002790830032584e-03 9.6142116865934480e-03  5.0826740572844233e-02 9.6543212796184937e-03 1.1468268842399026e-02  9.7315545369105680e-02 1.9343042166267262e-02 4.4019221352720826e-03  1.8749479105925304e-01 4.0606967293642708e-02 -1.5986804233230824e-02  2.9280486526672239e-01 4.9131712584079328e-02 -2.7330590013280101e-02  4.0080253498770191e-01 5.0379424775767394e-02 -2.9497009668558036e-02  5.0753400832564721e-01 5.0457380396414724e-02 -2.7118669523981696e-02  6.1238865910322449e-01 5.0238337367028131e-02 -2.4687340542631084e-02  7.1527745110071961e-01 4.9979766426093641e-02 -2.2694104990842342e-02  8.1632039815323965e-01 4.9823878881949189e-02 -2.0999570523380161e-02  9.1587987548273975e-01 4.9833772310441400e-02 -1.9698567406800292e-02  1.0145302824583009e+00 5.0013719456900835e-02 -1.8933080293480231e-02  1.1128780321683485e+00 5.0315698885346677e-02 -1.8728027617679232e-02  1.2113344365106042e+00 5.0678228161858269e-02 -1.8900631916590947e-02  1.3100580092495082e+00 5.1043867467031941e-02 -1.9204698992248553e-02  1.4090465607515670e+00 5.1371091261544280e-02 -1.9484497959403616e-02  1.5082354760609569e+00 5.1639474445954993e-02 -1.9687363553811694e-02  1.6075488692703508e+00 5.1845163942092237e-02 -1.9811512996220793e-02  1.7069205753117582e+00 5.1994622544048262e-02 -1.9871118155692584e-02  1.8063026376417972e+00 5.2099782668536765e-02 -1.9884833220725394e-02  1.9056673302717555e+00 5.2174046622351186e-02 -1.9871904446248614e-02  2.0050043860911675e+00 5.2228946537052998e-02 -1.9848804689283746e-02  2.1043153052712431e+00 5.2272291291801998e-02 -1.9826676723574188e-02  2.2036072509354572e+00 5.2308158383363237e-02 -1.9810850581830269e-02  2.3028884118882997e+00 5.2338016441399265e-02 -1.9802205154368986e-02  2.4021653926982784e+00 5.2361988989206784e-02 -1.9799153038907162e-02  2.5014422375157719e+00 5.2379666778048485e-02 -1.9799275118686736e-02  2.6007205222753154e+00 5.2390529752418223e-02 -1.9800367207170884e-02  2.6999999999999997e+00 5.2394186652365581e-02 -1.9800916649928405e-02  0.0000000000000000e+00 0.0000000000000000e+00 0.0000000000000000e+00  1.5310206962126031e-02 -2.5738586544301733e-04 8.4282654123458266e-03  3.0463852355760272e-02 3.4441332451968271e-03 9.8689194528407981e-03  5.1293812382149952e-02 6.1297055928607284e-03 1.1231405411130121e-02  9.7905419464397805e-02 -9.7777400366542925e-03 6.1309456025797470e-03  1.8453355767031171e-01 -1.9239204095430763e-02 -1.5906470774184084e-02  2.9210826775640802e-01 -1.7749789335399446e-02 -3.0351617289338537e-02  4.0053961907691032e-01 -1.6387708980520950e-02 -2.9592983920324271e-02  5.0731803467391412e-01 -1.4815805432469600e-02 -2.6815118254133564e-02  6.1218193516171571e-01 -1.3263011370885374e-02 -2.4629470631587980e-02  7.1506091250077419e-01 -1.1724727796303475e-02 -2.2704347835799409e-02  8.1610303214891466e-01 -1.0263502015746686e-02 -2.1040267872264751e-02  9.1568058094776705e-01 -9.0331588684156392e-03 -1.9756550515786817e-02  1.0143733780651876e+00 -8.1869923048390001e-03 -1.9013003655753515e-02  1.1127641663376464e+00 -7.7282635166995772e-03 -1.8811869171243258e-02  1.2112458858254043e+00 -7.5110327302843763e-03 -1.8971146048315082e-02  1.3099820595014371e+00 -7.3878432907558272e-03 -1.9263478584146142e-02  1.4089797733880918e+00 -7.2846372686266496e-03 -1.9538600183648364e-02  1.5081779185997661e+00 -7.1794898903310275e-03 -1.9740380732419752e-02  1.6075006871421218e+00 -7.0705428827413106e-03 -1.9864199794681733e-02  1.7068812096048869e+00 -6.9617132530698823e-03 -1.9923222898794633e-02  1.8062709304192421e+00 -6.8581728548451860e-03 -1.9935934614990842e-02  1.9056418774018873e+00 -6.7646159200285150e-03 -1.9921804511155401e-02  2.0049839137237400e+00 -6.6842991865830471e-03 -1.9897659918725809e-02  2.1042988758890631e+00 -6.6186540406726396e-03 -1.9874842633800040e-02  2.2035942526980130e+00 -6.5674597285939520e-03 -1.9858638840895386e-02  2.3028784402274067e+00 -6.5293613812718665e-03 -1.9849775700094632e-02  2.4021581524052547e+00 -6.5024532793407841e-03 -1.9846575920338134e-02  2.5014375262991893e+00 -6.4847992257359597e-03 -1.9846591426670168e-02  2.6007182054568250e+00 -6.4748611645635556e-03 -1.9847593814979560e-02  2.6999999999999997e+00 -6.4716626540166260e-03 -1.9848103202243225e-02  0.0000000000000000e+00 0.0000000000000000e+00 0.0000000000000000e+00  1.496660002596