<?xml version="1.0"?>
<VTKFile type="UnstructuredGrid"  version="0.1"  >
<UnstructuredGrid>
<Piece  NumberOfPoints="2976" NumberOfCells="13500">
<Points>
<DataArray  type="Float64"  NumberOfComponents="3"  format="ascii">0 0 0  0.3333333333333333 0 0  0.6666666666666666 0 0  1 0 0  1.333333333333333 0 0  1.666666666666667 0 0  2 0 0  2.333333333333333 0 0  2.666666666666667 0 0  3 0 0  3.333333333333333 0 0  3.666666666666667 0 0  4 0 0  4.333333333333333 0 0  4.666666666666667 0 0  5 0 0  5.333333333333333 0 0  5.666666666666667 0 0  6 0 0  6.333333333333333 0 0  6.666666666666667 0 0  7 0 0  7.333333333333333 0 0  7.666666666666667 0 0  8 0 0  8.333333333333334 0 0  8.666666666666666 0 0  9 0 0  9.333333333333334 0 0  9.666666666666666 0 0  10 0 0  0 0.2 0  0.3333333333333333 0.2 0  0.6666666666666666 0.2 0  1 0.2 0  1.333333333333333 0.2 0  1.666666666666667 0.2 0  2 0.2 0  2.333333333333333 0.2 0  2.666666666666667 0.2 0  3 0.2 0  3.333333333333333 0.2 0  3.666666666666667 0.2 0  4 0.2 0  4.333333333333333 0.2 0  4.666666666666667 0.2 0  5 0.2 0  5.333333333333333 0.2 0  5.666666666666667 0.2 0  6 0.2 0  6.333333333333333 0.2 0  6.666666666666667 0.2 0  7 0.2 0  7.333333333333333 0.2 0  7.666666666666667 0.2 0  8 0.2 0  8.333333333333334 0.2 0  8.666666666666666 0.2 0  9 0.2 0  9.333333333333334 0.2 0  9.666666666666666 0.2 0  10 0.2 0  0 0.4 0  0.3333333333333333 0.4 0  0.6666666666666666 0.4 0  1 0.4 0  1.333333333333333 0.4 0  1.666666666666667 0.4 0  2 0.4 0  2.333333333333333 0.4 0  2.666666666666667 0.4 0  3 0.4 0  3.333333333333333 0.4 0  3.666666666666667 0.4 0  4 0.4 0  4.333333333333333 0.4 0  4.666666666666667 0.4 0  5 0.4 0  5.333333333333333 0.4 0  5.666666666666667 0.4 0  6 0.4 0  6.333333333333333 0.4 0  6.666666666666667 0.4 0  7 0.4 0  7.333333333333333 0.4 0  7.666666666666667 0.4 0  8 0.4 0  8.333333333333334 0.4 0  8.666666666666666 0.4 0  9 0.4 0  9.333333333333334 0.4 0  9.666666666666666 0.4 0  10 0.4 0  0 0.6 0  0.3333333333333333 0.6 0  0.6666666666666666 0.6 0  1 0.6 0  1.333333333333333 0.6 0  1.666666666666667 0.6 0  2 0.6 0  2.333333333333333 0.6 0  2.666666666666667 0.6 0  3 0.6 0  3.333333333333333 0.6 0  3.666666666666667 0.6 0  4 0.6 0  4.333333333333333 0.6 0  4.666666666666667 0.6 0  5 0.6 0  5.333333333333333 0.6 0  5.666666666666667 0.6 0  6 0.6 0  6.333333333333333 0.6 0  6.666666666666667 0.6 0  7 0.6 0  7.333333333333333 0.6 0  7.666666666666667 0.6 0  8 0.6 0  8.333333333333334 0.6 0  8.666666666666666 0.6 0  9 0.6 0  9.333333333333334 0.6 0  9.666666666666666 0.6 0  10 0.6 0  0 0.8 0  0.3333333333333333 0.8 0  0.6666666666666666 0.8 0  1 0.8 0  1.333333333333333 0.8 0  1.666666666666667 0.8 0  2 0.8 0  2.333333333333333 0.8 0  2.666666666666667 0.8 0  3 0.8 0  3.333333333333333 0.8 0  3.666666666666667 0.8 0  4 0.8 0  4.333333333333333 0.8 0  4.666666666666667 0.8 0  5 0.8 0  5.333333333333333 0.8 0  5.666666666666667 0.8 0  6 0.8 0  6.333333333333333 0.8 0  6.666666666666667 0.8 0  7 0.8 0  7.333333333333333 0.8 0  7.666666666666667 0.8 0  8 0.8 0  8.333333333333334 0.8 0  8.666666666666666 0.8 0  9 0.8 0  9.333333333333334 0.8 0  9.666666666666666 0.8 0  10 0.8 0  0 1 0  0.3333333333333333 1 0  0.6666666666666666 1 0  1 1 0  1.333333333333333 1 0  1.666666666666667 1 0  2 1 0  2.333333333333333 1 0  2.666666666666667 1 0  3 1 0  3.333333333333333 1 0  3.666666666666667 1 0  4 1 0  4.333333333333333 1 0  4.666666666666667 1 0  5 1 0  5.333333333333333 1 0  5.666666666666667 1 0  6 1 0  6.333333333333333 1 0  6.666666666666667 1 0  7 1 0  7.333333333333333 1 0  7.666666666666667 1 0  8 1 0  8.333333333333334 1 0  8.666666666666666 1 0  9 1 0  9.333333333333334 1 0  9.666666666666666 1 0  10 1 0  0 1.2 0  0.3333333333333333 1.2 0  0.6666666666666666 1.2 0  1 1.2 0  1.333333333333333 1.2 0  1.666666666666667 1.2 0  2 1.2 0  2.333333333333333 1.2 0  2.666666666666667 1.2 0  3 1.2 0  3.333333333333333 1.2 0  3.666666666666667 1.2 0  4 1.2 0  4.333333333333333 1.2 0  4.666666666666667 1.2 0  5 1.2 0  5.333333333333333 1.2 0  5.666666666666667 1.2 0  6 1.2 0  6.333333333333333 1.2 0  6.666666666666667 1.2 0  7 1.2 0  7.333333333333333 1.2 0  7.666666666666667 1.2 0  8 1.2 0  8.333333333333334 1.2 0  8.666666666666666 1.2 0  9 1.2 0  9.333333333333334 1.2 0  9.666666666666666 1.2 0  10 1.2 0  0 1.4 0  0.3333333333333333 1.4 0  0.6666666666666666 1.4 0  1 1.4 0  1.333333333333333 1.4 0  1.666666666666667 1.4 0  2 1.4 0  2.333333333333333 1.4 0  2.666666666666667 1.4 0  3 1.4 0  3.333333333333333 1.4 0  3.666666666666667 1.4 0  4 1.4 0  4.333333333333333 1.4 0  4.666666666666667 1.4 0  5 1.4 0  5.333333333333333 1.4 0  5.666666666666667 1.4 0  6 1.4 0  6.333333333333333 1.4 0  6.666666666666667 1.4 0  7 1.4 0  7.333333333333333 1.4 0  7.666666666666667 1.4 0  8 1.4 0  8.333333333333334 1.4 0  8.666666666666666 1.4 0  9 1.4 0  9.333333333333334 1.4 0  9.666666666666666 1.4 0  10 1.4 0  0 1.6 0  0.3333333333333333 1.6 0  0.6666666666666666 1.6 0  1 1.6 0  1.333333333333333 1.6 0  1.666666666666667 1.6 0  2 1.6 0  2.333333333333333 1.6 0  2.666666666666667 1.6 0  3 1.6 0  3.333333333333333 1.6 0  3.666666666666667 1.6 0  4 1.6 0  4.333333333333333 1.6 0  4.666666666666667 1.6 0  5 1.6 0  5.333333333333333 1.6 0  5.666666666666667 1.6 0  6 1.6 0  6.333333333333333 1.6 0  6.666666666666667 1.6 0  7 1.6 0  7.333333333333333 1.6 0  7.666666666666667 1.6 0  8 1.6 0  8.333333333333334 1.6 0  8.666666666666666 1.6 0  9 1.6 0  9.333333333333334 1.6 0  9.666666666666666 1.6 0  10 1.6 0  0 1.8 0  0.3333333333333333 1.8 0  0.6666666666666666 1.8 0  1 1.8 0  1.333333333333333 1.8 0  1.666666666666667 1.8 0  2 1.8 0  2.333333333333333 1.8 0  2.666666666666667 1.8 0  3 1.8 0  3.333333333333333 1.8 0  3.666666666666667 1.8 0  4 1.8 0  4.333333333333333 1.8 0  4.666666666666667 1.8 0  5 1.8 0  5.333333333333333 1.8 0  5.666666666666667 1.8 0  6 1.8 0  6.333333333333333 1.8 0  6.666666666666667 1.8 0  7 1.8 0  7.333333333333333 1.8 0  7.666666666666667 1.8 0  8 1.8 0  8.333333333333334 1.8 0  8.666666666666666 1.8 0  9 1.8 0  9.333333333333334 1.8 0  9.666666666666666 1.8 0  10 1.8 0  0 2 0  0.3333333333333333 2 0  0.6666666666666666 2 0  1 2 0  1.333333333333333 2 0  1.666666666666667 2 0  2 2 0  2.333333333333333 2 0  2.666666666666667 2 0  3 2 0  3.333333333333333 2 0  3.666666666666667 2 0  4 2 0  4.333333333333333 2 0  4.666666666666667 2 0  5 2 0  5.333333333333333 2 0  5.666666666666667 2 0  6 2 0  6.333333333333333 2 0  6.666666666666667 2 0  7 2 0  7.333333333333333 2 0  7.666666666666667 2 0  8 2 0  8.333333333333334 2 0  8.666666666666666 2 0  9 2 0  9.333333333333334 2 0  9.666666666666666 2 0  10 2 0  0 2.2 0  0.3333333333333333 2.2 0  0.6666666666666666 2.2 0  1 2.2 0  1.333333333333333 2.2 0  1.666666666666667 2.2 0  2 2.2 0  2.333333333333333 2.2 0  2.666666666666667 2.2 0  3 2.2 0  3.333333333333333 2.2 0  3.666666666666667 2.2 0  4 2.2 0  4.333333333333333 2.2 0  4.666666666666667 2.2 0  5 2.2 0  5.333333333333333 2.2 0  5.666666666666667 2.2 0  6 2.2 0  6.333333333333333 2.2 0  6.666666666666667 2.2 0  7 2.2 0  7.333333333333333 2.2 0  7.666666666666667 2.2 0  8 2.2 0  8.333333333333334 2.2 0  8.666666666666666 2.2 0  9 2.2 0  9.333333333333334 2.2 0  9.666666666666666 2.2 0  10 2.2 0  0 2.4 0  0.3333333333333333 2.4 0  0.6666666666666666 2.4 0  1 2.4 0  1.333333333333333 2.4 0  1.666666666666667 2.4 0  2 2.4 0  2.333333333333333 2.4 0  2.666666666666667 2.4 0  3 2.4 0  3.333333333333333 2.4 0  3.666666666666667 2.4 0  4 2.4 0  4.333333333333333 2.4 0  4.666666666666667 2.4 0  5 2.4 0  5.333333333333333 2.4 0  5.666666666666667 2.4 0  6 2.4 0  6.333333333333333 2.4 0  6.666666666666667 2.4 0  7 2.4 0  7.333333333333333 2.4 0  7.666666666666667 2.4 0  8 2.4 0  8.333333333333334 2.4 0  8.666666666666666 2.4 0  9 2.4 0  9.333333333333334 2.4 0  9.666666666666666 2.4 0  10 2.4 0  0 2.6 0  0.3333333333333333 2.6 0  0.6666666666666666 2.6 0  1 2.6 0  1.333333333333333 2.6 0  1.666666666666667 2.6 0  2 2.6 0  2.333333333333333 2.6 0  2.666666666666667 2.6 0  3 2.6 0  3.333333333333333 2.6 0  3.666666666666667 2.6 0  4 2.6 0  4.333333333333333 2.6 0  4.666666666666667 2.6 0  5 2.6 0  5.333333333333333 2.6 0  5.666666666666667 2.6 0  6 2.6 0  6.333333333333333 2.6 0  6.666666666666667 2.6 0  7 2.6 0  7.333333333333333 2.6 0  7.666666666666667 2.6 0  8 2.6 0  8.333333333333334 2.6 0  8.666666666666666 2.6 0  9 2.6 0  9.333333333333334 2.6 0  9.666666666666666 2.6 0  10 2.6 0  0 2.8 0  0.3333333333333333 2.8 0  0.6666666666666666 2.8 0  1 2.8 0  1.333333333333333 2.8 0  1.666666666666667 2.8 0  2 2.8 0  2.333333333333333 2.8 0  2.666666666666667 2.8 0  3 2.8 0  3.333333333333333 2.8 0  3.666666666666667 2.8 0  4 2.8 0  4.333333333333333 2.8 0  4.666666666666667 2.8 0  5 2.8 0  5.333333333333333 2.8 0  5.666666666666667 2.8 0  6 2.8 0  6.333333333333333 2.8 0  6.666666666666667 2.8 0  7 2.8 0  7.333333333333333 2.8 0  7.666666666666667 2.8 0  8 2.8 0  8.333333333333334 2.8 0  8.666666666666666 2.8 0  9 2.8 0  9.333333333333334 2.8 0  9.666666666666666 2.8 0  10 2.8 0  0 3 0  0.3333333333333333 3 0  0.6666666666666666 3 0  1 3 0  1.333333333333333 3 0  1.666666666666667 3 0  2 3 0  2.333333333333333 3 0  2.666666666666667 3 0  3 3 0  3.333333333333333 3 0  3.666666666666667 3 0  4 3 0  4.333333333333333 3 0  4.666666666666667 3 0  5 3 0  5.333333333333333 3 0  5.666666666666667 3 0  6 3 0  6.333333333333333 3 0  6.666666666666667 3 0  7 3 0  7.333333333333333 3 0  7.666666666666667 3 0  8 3 0  8.333333333333334 3 0  8.666666666666666 3 0  9 3 0  9.333333333333334 3 0  9.666666666666666 3 0  10 3 0  0 0 0.1  0.3333333333333333 0 0.1  0.6666666666666666 0 0.1  1 0 0.1  1.333333333333333 0 0.1  1.666666666666667 0 0.1  2 0 0.1  2.333333333333333 0 0.1  2.666666666666667 0 0.1  3 0 0.1  3.333333333333333 0 0.1  3.666666666666667 0 0.1  4 0 0.1  4.333333333333333 0 0.1  4.666666666666667 0 0.1  5 0 0.1  5.333333333333333 0 0.1  5.666666666666667 0 0.1  6 0 0.1  6.333333333333333 0 0.1  6.666
[...]
<PointData  Vectors="f_7-0"> 
<DataArray  type="Float64"  Name="f_7-0"  NumberOfComponents="3" format="ascii">0.0000000000000000e+00 0.0000000000000000e+00 0.0000000000000000e+00  5.9126977421904280e-02 6.3547953035695784e-02 -2.2147722551165501e-04  1.1253963396138633e-01 1.1580589561351948e-01 3.2246723168507488e-03  1.6219376993570594e-01 1.6078887891796095e-01 3.2251316926172071e-03  2.1061792635635199e-01 2.0265548243799392e-01 2.9923214085900048e-03  2.5857402910195171e-01 2.4187513805633304e-01 2.7041246764367265e-03  3.0652290825785511e-01 2.7829887684446147e-01 2.0634950639138250e-03  3.5764003419511570e-01 3.0882311229152759e-01 1.0282535827646497e-03  4.1712132989749195e-01 3.2856079612675931e-01 -9.1294658854300143e-04  4.8646946992304302e-01 3.3584706534210035e-01 -3.4630966115055495e-03  5.6261530187947462e-01 3.3437565260458918e-01 -5.4560696697380489e-03  6.4159890692843791e-01 3.2964232595121051e-01 -6.2890052836898540e-03  7.2092755930965779e-01 3.2511917494095638e-01 -6.2789479075056956e-03  7.9964331531347788e-01 3.2194395142218946e-01 -5.9427372101358150e-03  8.7755024064031195e-01 3.2017529998634092e-01 -5.5681706689098658e-03  9.5471020693431008e-01 3.1956102863512020e-01 -5.2580378432915886e-03  1.0312880492398209e+00 3.1975507592631602e-01 -5.0425623995164646e-03  1.1075018917637038e+00 3.2038727533025263e-01 -4.9236574064951844e-03  1.1835660034754989e+00 3.2113887158467175e-01 -4.8845494906122828e-03  1.2596365767462763e+00 3.2180278950427582e-01 -4.8972585738034273e-03  1.3357931263180314e+00 3.2229107850367178e-01 -4.9334254965988809e-03  1.4120544718348857e+00 3.2259996518971851e-01 -4.9724987868549628e-03  1.4884059543539299e+00 3.2276664474146582e-01 -5.0037456313368400e-03  1.5648207819692888e+00 3.2283875818086888e-01 -5.0239180094932600e-03  1.6412720416870070e+00 3.2285858729399391e-01 -5.0339562861551950e-03  1.7177382065926448e+00 3.2285678893297115e-01 -5.0365457189606696e-03  1.7942049765389338e+00 3.2285139343840102e-01 -5.0346972280982316e-03  1.8706649646009703e+00 3.2284979265717950e-01 -5.0309992671511558e-03  1.9471161667224486e+00 3.2285228081926176e-01 -5.0272944586755566e-03  2.0235600540987844e+00 3.2285590807693798e-01 -5.0247648503896547e-03  2.0999999999999996e+00 3.2285765031955638e-01 -5.0240324897507923e-03  0.0000000000000000e+00 0.0000000000000000e+00 0.0000000000000000e+00  3.1683699920644785e-02 2.7320830350704949e-02 1.9446869092030041e-03  9.0635850466977891e-02 8.7591360729166956e-02 2.7118795984544886e-03  1.4229291181567622e-01 1.3511553965729411e-01 2.6618320773122497e-03  1.9190947529720986e-01 1.7767117211738506e-01 2.7979056619214467e-03  2.4091328738209303e-01 2.1738405819569531e-01 2.4186968738747492e-03  2.9106550624701721e-01 2.5308641642173568e-01 1.7996558749964915e-03  3.4715779452798051e-01 2.7999511623243606e-01 2.9743581199202806e-04  4.1278900203927177e-01 2.9388915796187176e-01 -2.2409952033403762e-03  4.8650855778093788e-01 2.9610702869356342e-01 -4.7373664364995056e-03  5.6443455006502863e-01 2.9210291493820340e-01 -6.0527460925624927e-03  6.4351550737361041e-01 2.8686541926263265e-01 -6.2510096699520297e-03  7.2233821872284198e-01 2.8271263365192134e-01 -6.0012107026403494e-03  8.0047944929043879e-01 2.8011638217436213e-01 -5.6758667927257278e-03  8.7789671464357566e-01 2.7890190383294650e-01 -5.3738327238975151e-03  9.5469553347458869e-01 2.7873229004220229e-01 -5.1341445663050629e-03  1.0310596290023604e+00 2.7921871771258017e-01 -4.9801070539427540e-03  1.1071972726620516e+00 2.7998670304254064e-01 -4.9115402400547693e-03  1.1832824111685376e+00 2.8075311290372801e-01 -4.9065590655011362e-03  1.2594206701722424e+00 2.8136469339853637e-01 -4.9353523907766234e-03  1.3356524334884632e+00 2.8177968196524678e-01 -4.9736191852683123e-03  1.4119759401706315e+00 2.8202178851959292e-01 -5.0074810169655620e-03  1.4883701766463466e+00 2.8213946586061434e-01 -5.0315746109691880e-03  1.5648096234120261e+00 2.8218189000975608e-01 -5.0454703089043073e-03  1.6412717977044431e+00 2.8218817430936710e-01 -5.0510754828168762e-03  1.7177403646264244e+00 2.8218403574745604e-01 -5.0511275160381904e-03  1.7942056434290390e+00 2.8218251587778781e-01 -5.0482891628739982e-03  1.8706635538860457e+00 2.8218698923062635e-01 -5.0446223084976089e-03  1.9471138465583484e+00 2.8219509501690221e-01 -5.0414295705252235e-03  2.0235583914414432e+00 2.8220242326089889e-01 -5.0393772821533704e-03  2.0999999999999996e+00 2.8220528117437754e-01 -5.0386498676022210e-03  0.0000000000000000e+00 0.0000000000000000e+00 0.0000000000000000e+00  1.4799015835494457e-02 6.9618572286810386e-03 8.8012522953147907e-03  6.7480775296583695e-02 5.7750463058000724e-02 6.2182429315239414e-05  1.2197421073914236e-01 1.0824328634113758e-01 2.9009762496375680e-03  1.7309850626642212e-01 1.5207636149679951e-01 2.4549299907950712e-03  2.2344721911014429e-01 1.9196114873132000e-01 2.2936827043310761e-03  2.7690971593807356e-01 2.2565659057712664e-01 1.3852531251672940e-03  3.3897600319277499e-01 2.4756489761071021e-01 -9.7547029147499874e-04  4.1039390286434996e-01 2.5588908327053700e-01 -4.0472501466972729e-03  4.8751264720222609e-01 2.5459242359587514e-01 -6.0975893856328274e-03  5.6648627084807801e-01 2.4948344034778649e-01 -6.4979654745337886e-03  6.4534764479455931e-01 2.4439136596045946e-01 -6.1152789555374227e-03  7.2358081724921974e-01 2.4073191099145255e-01 -5.7163754405034064e-03  8.0114288156675550e-01 2.3866409749048706e-01 -5.4200298691456658e-03  8.7809639275509677e-01 2.3791351150799350e-01 -5.1831150407652864e-03  9.5457804171954763e-01 2.3808466608404699e-01 -5.0112310555759740e-03  1.0307783671022941e+00 2.3876187161295001e-01 -4.9214232273015234e-03  1.1068813776835071e+00 2.3958748066069896e-01 -4.9054969102839095e-03  1.1830123640892778e+00 2.4032570820631527e-01 -4.9339362584655926e-03  1.2592273828942644e+00 2.4087285020907268e-01 -4.9764831523070865e-03  1.3355335290751602e+00 2.4122075796923043e-01 -5.0148628226678324e-03  1.4119140094918341e+00 2.4140926439969437e-01 -5.0424834034222361e-03  1.4883448939724480e+00 2.4149138960121638e-01 -5.0590229116109090e-03  1.5648036448325822e+00 2.4151486599291069e-01 -5.0664997547023001e-03  1.6412729035398936e+00 2.4151471209151698e-01 -5.0676538703997654e-03  1.7177416287166805e+00 2.4151187978724609e-01 -5.0652484845613386e-03  1.7942044986085268e+00 2.4151522502862466e-01 -5.0615607446102768e-03  1.8706603122966423e+00 2.4152517180875435e-01 -5.0580790277801463e-03  1.9471101711559271e+00 2.4153771509550881e-01 -5.0555093302569916e-03  2.0235560578166640e+00 2.4154777014707204e-01 -5.0539971603306595e-03  2.0999999999999996e+00 2.4155154688311817e-01 -5.0534811571467308e-03  0.0000000000000000e+00 0.0000000000000000e+00 0.0000000000000000e+00  1.2779020725658986e-02 3.6432588707026657e-03 9.2209027366496315e-03  4.4378743119878321e-02 2.6890331104836667e-02 5.7360700544762519e-03  1.0118602705725700e-01 8.0484848300639289e-02 1.3036852789816012e-03  1.5408724246206665e-01 1.2572627829313440e-01 2.4036700888319905e-03  2.0643063743726336e-01 1.6533273039364818e-01 2.1266916289690969e-03  2.6479537242136530e-01 1.9532681351894274e-01 4.4371272095076916e-04  3.3329372927475887e-01 2.1131093382923399e-01 -2.8312829613469244e-03  4.0958190395193783e-01 2.1492329166730112e-01 -5.9477615464324828e-03  4.8902153997390180e-01 2.1175693616665914e-01 -7.1178361112875727e-03  5.6847224367956384e-01 2.0672212406360482e-01 -6.6844135820513075e-03  6.4698982473324373e-01 2.0224509308146360e-01 -5.9587028635850496e-03  7.2464625614546763e-01 1.9916674888781255e-01 -5.4795265509643672e-03  8.0165386961307727e-01 1.9757665070977362e-01 -5.1948702601381479e-03  8.7817709662944266e-01 1.9719510877760987e-01 -5.0088036036795283e-03  9.5438767150162940e-01 1.9759827962789037e-01 -4.9020927691756557e-03  1.0304710706115525e+00 1.9836570631839284e-01 -4.8759140343050912e-03  1.1065725394249528e+00 1.9917731589653215e-01 -4.9089213746409078e-03  1.1827642691413411e+00 1.9985176425768544e-01 -4.9652909149075488e-03  1.2590576983549495e+00 2.0032724421115886e-01 -5.0174438723630194e-03  1.3354336092313908e+00 2.0061638834807274e-01 -5.0542154350844710e-03  1.4118647961626827e+00 2.0076492738426457e-01 -5.0754685317890005e-03  1.4883265707892128e+00 2.0082467233677861e-01 -5.0848785374295827e-03  1.5648002308426154e+00 2.0083936989580695e-01 -5.0864238677369982e-03  1.6412737781628921e+00 2.0083923715451613e-01 -5.0835644272112773e-03  1.7177413148161698e+00 2.0084078650033899e-01 -5.0790626870694739e-03  1.7942014845503078e+00 2.0084958299246761e-01 -5.0747807155029599e-03  1.8706555050783902e+00 2.0086417817207733e-01 -5.0716189760169486e-03  1.9471054562418679e+00 2.0087989052193242e-01 -5.0697015670293308e-03  2.0235531995292169e+00 2.0089169512488725e-01 -5.0687469724768506e-03  2.0999999999999996e+00 2.0089604203578112e-01 -5.0684679766081946e-03  0.0000000000000000e+00 0.0000000000000000e+00 0.0000000000000000e+00  1.4079090015967270e-02 4.0947555826817321e-03 7.8267156437759645e-03  3.2212669650004438e-02 1.1052194673388617e-02 9.8355864857363230e-03  7.9354583772394557e-02 5.0555748642446337e-02 2.7841723962776796e-03  1.3485646170046101e-01 9.8567729286132028e-02 2.3868415390550998e-03  1.9062679827963205e-01 1.3676541717009799e-01 1.5531174661394902e-03  2.5536698474699820e-01 1.6131222615803875e-01 -1.2052434424489704e-03  3.2993427683704207e-01 1.7136465283928579e-01 -5.1082904112143487e-03  4.0982345731683761e-01 1.7169077675521474e-01 -7.5662900625325406e-03  4.9057035587638470e-01 1.6813403366131441e-01 -7.6603493163742249e-03  5.7015477850356877e-01 1.6394647741720322e-01 -6.7079558240646809e-03  6.4835313617322976e-01 1.6038487405768290e-01 -5.8490946492631823e-03  7.2551780470280669e-01 1.5797326214568599e-01 -5.3064899979836560e-03  8.0202902485985172e-01 1.5682807141598282e-01 -5.0048190262084371e-03  8.7816919602263532e-01 1.5672191269511956e-01 -4.8545316200871071e-03  9.5415843177265558e-01 1.5724623043377869e-01 -4.8107336392499275e-03  1.0301666306912174e+00 1.5800894136932883e-01 -4.8457040094547913e-03  1.1062889541127565e+00 1.5874592942056431e-01 -4.9209797810828891e-03  1.1825456438467741e+00 1.5933024455216430e-01 -4.9983129841251689e-03  1.2589119139843250e+00 1.5973126031330587e-01 -5.0562095570645125e-03  1.3353494701508393e+00 1.5997082850981481e-01 -5.0905266556759837e-03  1.4118241429664742e+00 1.6009242359623124e-01 -5.1059558070764774e-03  1.4883114687146777e+00 1.6014197830365404e-01 -5.1090292314602366e-03  1.5647966491576133e+00 1.6015706595802229e-01 -5.1053268156409657e-03  1.6412728109712065e+00 1.6016253666510546e-01 -5.0989934139044589e-03  1.7177387673768871e+00 1.6017089852742328e-01 -5.0927835321741581e-03  1.7941965933434318e+00 1.6018537019211251e-01 -5.0881282217753732e-03  1.8706494407328949e+00 1.6020367277955136e-01 -5.0853487729080864e-03  1.9471000423751943e+00 1.6022132737433492e-01 -5.0840542919056994e-03  2.0235500342886001e+00 1.6023395018309108e-01 -5.0836196727845799e-03  2.0999999999999996e+00 1.6023850857630348e-01 -5.0835495503809523e-03  0.0000000000000000e+00 0.0000000000000000e+00 0.0000000000000000e+00  1.3590230792880048e-02 3.0872400548126646e-03 8.0035511204325071e-03  2.9974539319094801e-02 6.4422509772682568e-03 9.5633313426744630e-03  6.1285979428622489e-02 2.5632586128648306e-02 7.4311368322088180e-03  1.1571800989700130e-01 7.0342900764195818e-02 2.0439870095409966e-03  1.7708569070762203e-01 1.0509123343220828e-01 4.7808936033722009e-04  2.4883127461698934e-01 1.2318688464560323e-01 -3.6296122596107265e-03  3.2841022384472768e-01 1.2825462358345141e-01 -7.4048097402437041e-03  4.1053080683912824e-01 1.2702846214122962e-01 -8.5933209697630422e-03  4.9183217201030638e-01 1.2414700123618964e-01 -7.8046290434362429e-03  5.7140369667940993e-01 1.2120090445152561e-01 -6.6828186746778232e-03  6.4937088579261260e-01 1.1873298878627621e-01 -5.7980439564427411e-03  7.2616701536740247e-01 1.1707930801968540e-01 -5.1962309597803633e-03  8.0227541168010574e-01 1.1637258164254755e-01 -4.8579106866380858e-03  8.7810173512275058e-01 1.1645832106246061e-01 -4.7287604828377848e-03  9.5392422945410349e-01 1.1699813231904074e-01 -4.7418726254717068e-03  1.0298913999896924e+00 1.1767274563821388e-01 -4.8308890134390195e-03  1.1060454314402355e+00 1.1828813860817562e-01 -4.9390732165758245e-03  1.1823618966804816e+00 1.1876481208285516e-01 -5.0302713608333001e-03  1.2587897768627976e+00 1.1909143607968989e-01 -5.0910295381179785e-03  1.3352781573721877e+00 1.1929002904161091e-01 -5.1229096514769003e-03  1.4117883110187188e+00 1.1939604399490539e-01 -5.1335773115492537e-03  1.4882962118308234e+00 1.1944595388202459e-01 -5.1314272584646742e-03  1.5647904508920683e+00 1.1946925144698205e-01 -5.1233634371938832e-03  1.6412685985942272e+00 1.1948491838204879e-01 -5.1141911688510622e-03  1.7177334561732647e+00 1.1950192939560496e-01 -5.1066590399202680e-03  1.7941898618481553e+00 1.1952207339616593e-01 -5.1017847009813370e-03  1.8706424122510581e+00 1.1954318439458447e-01 -5.0993674647696902e-03  1.9470942455447371e+00 1.1956171106849335e-01 -5.0986001731063834e-03  2.0235467667705800e+00 1.1957434213335086e-01 -5.0985918768704560e-03  2.0999999999999996e+00 1.1957880862437319e-01 -5.0986811818482620e-03  0.0000000000000000e+00 0.0000000000000000e+00 0.0000000000000000e+00  1.3080281944718703e-02 1.8699213338215185e-03 7.8724435033444354e-03  3.0420408990329020e-02 4.9274518143022682e-03 8.8171284989690419e-03  5.1478420612888688e-02 1.2097636632144040e-02 1.0082626427142036e-02  9.8420747566869138e-02 4.0959960987040217e-02 4.3803019046693061e-03  1.6670001807478607e-01 6.9457377255770322e-02 -1.6515886449275743e-03  2.4493064366438660e-01 8.1041880777289105e-02 -6.5005075778713914e-03  3.2802314884171435e-01 8.2873926637983111e-02 -9.1831411008629366e-03  4.1119410012214713e-01 8.1674332725421656e-02 -8.9687253003499015e-03  4.9263949264161871e-01 8.0035678946819677e-02 -7.7582127313806891e-03  5.7216576941941311e-01 7.8483045687861547e-02 -6.6686277046629720e-03  6.4999649292146899e-01 7.7208804441113402e-02 -5.7868409937785331e-03  7.2655830759745021e-01 7.6396635639841878e-02 -5.1389751630728474e-03  8.0239083491644947e-01 7.6141351628882720e-02 -4.7629372180958912e-03  8.7800022518258769e-01 7.6354219874239626e-02 -4.6445734860689949e-03  9.5371593367678575e-01 7.6821380638420728e-02 -4.7012631655153781e-03  1.0296671217618485e+00 7.7343117640822259e-02 -4.8302662823275135e-03  1.1058527643092513e+00 7.7804476971589889e-02 -4.9600176884499643e-03  1.1822164955450183e+00 7.8163158384926962e-02 -5.0589026961096462e-03  1.2586908050957819e+00 7.8416705763229247e-02 -5.1207405544144756e-03  1.3352172493654755e+00 7.8581235372289823e-02 -5.1507265488177547e-03  1.4117542181990275e+00 7.8680572077374181e-02 -5.1579689211350768e-03  1.4882779712286351e+00 7.8739156435316482e-02 -5.1519680238944288e-03  1.5647795881302946e+00 7.8776809672725434e-02 -5.1406497541098004e-03  1.6412599959454099e+00 7.8806194661953807e-02 -5.1293850449234688e-03  1.7177249752597461e+00 7.8833182276044370e-02 -5.1209143322840942e-03  1.7941813422775343e+00 7.8858925435301555e-02 -5.1159067311848383e-03  1.8706346662412801e+00 7.8882133550208927e-02 -5.1137579393043860e-03  1.9470883282620040e+00 7.8900718341193138e-02 -5.1133608051857323e-03  2.0235435609581351e+00 7.8912748447273223e-02 -5.1136404790870461e-03  2.0999999999999996e+00 7.8916902428619970e-02 -5.1138311966999125e-03  0.0000000000000000e+00 0.0000000000000000e+00 0.0000000000000000e+00  1.2976845086686018e-02 7.7555439449510197e-04 7.6637494247334490e-03  2.9593647395940548e-02 2.7689493770137697e-03 8.6963995900394553e-03  4.8268091334838545e-02 7.0759306149373079e-03 1.0275173884599347e-02  8.8108961578849926e-02 1.4777363147069672e-02 7.4525483495773634e-03  1.5986210110385576e-01 2.9603495024634184e-02 -3.7499374931794973e-03  2.4305493859872668e-01 3.5599741906564127e-02 -9.0683946190988473e-03  3.2802940459044150e-01 3.6271837644332700e-02 -1.0091802538588135e-02  4.1149691736845090e-01 3.6087401165385162e-02 -8.9181944979307981e-03  4.9293698093155019e-01 3.5901739750380461e-02 -7.6929865595018005e-03  5.7242881532467738e-01 3.5781273486081545e-02 -6.6689791481112301e-03  6.5020175343070485e-01 3.5746805424444063e-02 -5.7939350517119542e-03  7.2666000239595696e-01 3.5831805779929046e-02 -5.1230461547015918e-03  8.0236888910294824e-01 3.6042721961753087e-02 -4.7274783489997399e-03  8.7788336198783612e-01 3.6343482831492219e-02 -4.6150760679781362e-03  9.5355683359692089e-01 3.6682118971754440e-02 -4.6936937307828202e-03  1.0295089528974515e+00 3.7011437493890534e-02 -4.8417458227435458e-03  1.1057177188740646e+00 3.7300343812333388e-02 -4.9808641233111883e-03  1.1821113784091377e+00 3.7535810009774892e-02 -5.0826663774352597e-03  1.2586145356703526e+00 3.7717611704181739e-02 -5.1446912248475146e-03  1.3351650191422184e+00 3.7852659738195946e-02 -5.1735526418814392e-03  1.4117196168851514e+00 3.7951221649628095e-02 -5.1788201465096531e-03  1.4882546377834034e+00 3.8024089871590658e-02 -5.1705439194056528e-03  1.5647625296073300e+00 3.8080270894024250e-02 -5.1572809703106489e-03  1.6412461598322921e+00 3.8125754867657659e-02 -5.1447689158593832e-03  1.7177130322413312e+00 3.8163622284924016e-02 -5.1357342638647645e-03  1.7941710716322012e+00 3.8194960866210825e-02 -5.1306158161804512e-03  1.8706263742608156e+00 3.8219858106396283e-02 -5.1285780235501809e-03  1.9470824706326524e+00 3.8238025834629381e-02 -5.1283456955709380e-03  2.0235405255585359e+00 3.8249103249259293e-02 -5.1287476481524565e-03  2.0999999999999996e+00 3.8252820948180430e-02 -5.1289778731410862e-03  0.0000000000000000e+00 0.0000000000000000e+00 0.0000000000000000e+00  1.3083927396481503e-02 -3.1753710691177512e-04 7.4323815460364158e-03  2.7967997703404971e-02 1.5507208395038774e-03 8.8050496163732117e-03  4.8230889831848728e-02 2.6688727969755828e-03 1.0139630504165038e-02  8.8027170076381930e-02 -7.0986558355618824e-03 8.3767191868691446e-03  1.5739440950405051e-01 -1.2652298063587338e-02 -3.5869607449559204e-03  2.4243763506074911e-01 -1.1683854492825232e-02 -1.0601907933450809e-02  3.2787207020249531e-01 -1.0732580289569129e-02 -1.0115343043768271e-02  4.1131748208855312e-01 -9.5249626012323101e-03 -8.7641877189117267e-03  4.9271827856492978e-01 -8.2190896562025998e-03 -7.6605671649230631e-03  5.7219636559904619e-01 -6.9132522822573633e-03 -6.6697194870859447e-03  6.4997466358558853e-01 -5.7022201798669122e-03 -5.8068794995116049e-03  7.2645599203596978e-01 -4.7083899869851545e-03 -5.1423216118493551e-03  8.0220577137419480e-01 -4.0309071713569289e-03 -4.7565161259280368e-03  8.7775989049358039e-01 -3.6518221420273776e-03 -4.6474731572880542e-03  9.5345809391905723e-01 -3.4541457311241656e-03 -4.7212346781639811e-03  1.0294240627643692e+00 -3.3270439161486032e-03 -4.8637033938447490e-03  1.1056434127152990e+00 -3.2157915534147177e-03 -4.9999995028889429e-03  1.1820473983533815e+00 -3.1050994187776584e-03 -5.1009028875579248e-03  1.2585606759241958e+00 -2.9943860910700030e-03 -5.1626273246255707e-03  1.3351204976475386e+00 -2.8868587900887106e-03 -5.1911629508704241e-03  1.4116832063309162e+00 -2.7864710626908451e-03 -5.1959377576317857e-03  1.4882249594328221e+00 -2.6967606248700440e-03 -5.1870895633564324e-03  1.5647383550210281e+00 -2.6200828660977288e-03 -5.1733273832216004e-03  1.6412265772195866e+00 -2.5573106795635189e-03 -5.1604727505705295e-03  1.7176974329692838e+00 -2.5080166262885116e-03 -5.1512332404526117e-03  1.7941590427776914e+00 -2.4709190892476160e-03 -5.1459839716931329e-03  1.8706176081691690e+00 -2.4443558445984095e-03 -5.1438542321553989e-03  1.9470767504814854e+00 -2.4266872826555659e-03 -5.1435550353304436e-03  2.0235377064438209e+00 -2.4166266722921701e-03 -5.1439034992019602e-03  2.0999999999999996e+00 -2.4133649089730174e-03 -5.1441098087198741e-03  0.0000000000000000e+00 0.0000000000000000e+00 0.0000000000000000e+00  1.2946088850647177e-02 -1.0207977158603