<?xml version="1.0"?>
<VTKFile type="UnstructuredGrid"  version="0.1"  >
<UnstructuredGrid>
<Piece  NumberOfPoints="588" NumberOfCells="2160">
<Points>
<DataArray  type="Float64"  NumberOfComponents="3"  format="ascii">0 0 0  0.5 0 0  1 0 0  1.5 0 0  2 0 0  2.5 0 0  3 0 0  3.5 0 0  4 0 0  4.5 0 0  5 0 0  5.5 0 0  6 0 0  6.5 0 0  7 0 0  7.5 0 0  8 0 0  8.5 0 0  9 0 0  9.5 0 0  10 0 0  0 0.5 0  0.5 0.5 0  1 0.5 0  1.5 0.5 0  2 0.5 0  2.5 0.5 0  3 0.5 0  3.5 0.5 0  4 0.5 0  4.5 0.5 0  5 0.5 0  5.5 0.5 0  6 0.5 0  6.5 0.5 0  7 0.5 0  7.5 0.5 0  8 0.5 0  8.5 0.5 0  9 0.5 0  9.5 0.5 0  10 0.5 0  0 1 0  0.5 1 0  1 1 0  1.5 1 0  2 1 0  2.5 1 0  3 1 0  3.5 1 0  4 1 0  4.5 1 0  5 1 0  5.5 1 0  6 1 0  6.5 1 0  7 1 0  7.5 1 0  8 1 0  8.5 1 0  9 1 0  9.5 1 0  10 1 0  0 1.5 0  0.5 1.5 0  1 1.5 0  1.5 1.5 0  2 1.5 0  2.5 1.5 0  3 1.5 0  3.5 1.5 0  4 1.5 0  4.5 1.5 0  5 1.5 0  5.5 1.5 0  6 1.5 0  6.5 1.5 0  7 1.5 0  7.5 1.5 0  8 1.5 0  8.5 1.5 0  9 1.5 0  9.5 1.5 0  10 1.5 0  0 2 0  0.5 2 0  1 2 0  1.5 2 0  2 2 0  2.5 2 0  3 2 0  3.5 2 0  4 2 0  4.5 2 0  5 2 0  5.5 2 0  6 2 0  6.5 2 0  7 2 0  7.5 2 0  8 2 0  8.5 2 0  9 2 0  9.5 2 0  10 2 0  0 2.5 0  0.5 2.5 0  1 2.5 0  1.5 2.5 0  2 2.5 0  2.5 2.5 0  3 2.5 0  3.5 2.5 0  4 2.5 0  4.5 2.5 0  5 2.5 0  5.5 2.5 0  6 2.5 0  6.5 2.5 0  7 2.5 0  7.5 2.5 0  8 2.5 0  8.5 2.5 0  9 2.5 0  9.5 2.5 0  10 2.5 0  0 3 0  0.5 3 0  1 3 0  1.5 3 0  2 3 0  2.5 3 0  3 3 0  3.5 3 0  4 3 0  4.5 3 0  5 3 0  5.5 3 0  6 3 0  6.5 3 0  7 3 0  7.5 3 0  8 3 0  8.5 3 0  9 3 0  9.5 3 0  10 3 0  0 0 0.1666666666666667  0.5 0 0.1666666666666667  1 0 0.1666666666666667  1.5 0 0.1666666666666667  2 0 0.1666666666666667  2.5 0 0.1666666666666667  3 0 0.1666666666666667  3.5 0 0.1666666666666667  4 0 0.1666666666666667  4.5 0 0.1666666666666667  5 0 0.1666666666666667  5.5 0 0.1666666666666667  6 0 0.1666666666666667  6.5 0 0.1666666666666667  7 0 0.1666666666666667  7.5 0 0.1666666666666667  8 0 0.1666666666666667  8.5 0 0.1666666666666667  9 0 0.1666666666666667  9.5 0 0.1666666666666667  10 0 0.1666666666666667  0 0.5 0.1666666666666667  0.5 0.5 0.1666666666666667  1 0.5 0.1666666666666667  1.5 0.5 0.1666666666666667  2 0.5 0.1666666666666667  2.5 0.5 0.1666666666666667  3 0.5 0.1666666666666667  3.5 0.5 0.1666666666666667  4 0.5 0.1666666666666667  4.5 0.5 0.1666666666666667  5 0.5 0.1666666666666667  5.5 0.5 0.1666666666666667  6 0.5 0.1666666666666667  6.5 0.5 0.1666666666666667  7 0.5 0.1666666666666667  7.5 0.5 0.1666666666666667  8 0.5 0.1666666666666667  8.5 0.5 0.1666666666666667  9 0.5 0.1666666666666667  9.5 0.5 0.1666666666666667  10 0.5 0.1666666666666667  0 1 0.1666666666666667  0.5 1 0.1666666666666667  1 1 0.1666666666666667  1.5 1 0.1666666666666667  2 1 0.1666666666666667  2.5 1 0.1666666666666667  3 1 0.1666666666666667  3.5 1 0.1666666666666667  4 1 0.1666666666666667  4.5 1 0.1666666666666667  5 1 0.1666666666666667  5.5 1 0.1666666666666667  6 1 0.1666666666666667  6.5 1 0.1666666666666667  7 1 0.1666666666666667  7.5 1 0.1666666666666667  8 1 0.1666666666666667  8.5 1 0.1666666666666667  9 1 0.1666666666666667  9.5 1 0.1666666666666667  10 1 0.1666666666666667  0 1.5 0.1666666666666667  0.5 1.5 0.1666666666666667  1 1.5 0.1666666666666667  1.5 1.5 0.1666666666666667  2 1.5 0.1666666666666667  2.5 1.5 0.1666666666666667  3 1.5 0.1666666666666667  3.5 1.5 0.1666666666666667  4 1.5 0.1666666666666667  4.5 1.5 0.1666666666666667  5 1.5 0.1666666666666667  5.5 1.5 0.1666666666666667  6 1.5 0.1666666666666667  6.5 1.5 0.1666666666666667  7 1.5 0.1666666666666667  7.5 1.5 0.1666666666666667  8 1.5 0.1666666666666667  8.5 1.5 0.1666666666666667  9 1.5 0.1666666666666667  9.5 1.5 0.1666666666666667  10 1.5 0.1666666666666667  0 2 0.1666666666666667  0.5 2 0.1666666666666667  1 2 0.1666666666666667  1.5 2 0.1666666666666667  2 2 0.1666666666666667  2.5 2 0.1666666666666667  3 2 0.1666666666666667  3.5 2 0.1666666666666667  4 2 0.1666666666666667  4.5 2 0.1666666666666667  5 2 0.1666666666666667  5.5 2 0.1666666666666667  6 2 0.1666666666666667  6.5 2 0.1666666666666667  7 2 0.1666666666666667  7.5 2 0.1666666666666667  8 2 0.1666666666666667  8.5 2 0.1666666666666667  9 2 0.1666666666666667  9.5 2 0.1666666666666667  10 2 0.1666666666666667  0 2.5 0.1666666666666667  0.5 2.5 0.1666666666666667  1 2.5 0.1666666666666667  1.5 2.5 0.1666666666666667  2 2.5 0.1666666666666667  2.5 2.5 0.1666666666666667  3 2.5 0.1666666666666667  3.5 2.5 0.1666666666666667  4 2.5 0.1666666666666667  4.5 2.5 0.1666666666666667  5 2.5 0.1666666666666667  5.5 2.5 0.1666666666666667  6 2.5 0.1666666666666667  6.5 2.5 0.1666666666666667  7 2.5 0.1666666666666667  7.5 2.5 0.1666666666666667  8 2.5 0.1666666666666667  8.5 2.5 0.1666666666666667  9 2.5 0.1666666666666667  9.5 2.5 0.1666666666666667  10 2.5 0.1666666666666667  0 3 0.1666666666666667  0.5 3 0.1666666666666667  1 3 0.1666666666666667  1.5 3 0.1666666666666667  2 3 0.1666666666666667  2.5 3 0.1666666666666667  3 3 0.1666666666666667  3.5 3 0.1666666666666667  4 3 0.1666666666666667  4.5 3 0.1666666666666667  5 3 0.1666666666666667  5.5 3 0.1666666666666667  6 3 0.1666666666666667  6.5 3 0.1666666666666667  7 3 0.1666666666666667  7.5 3 0.1666666666666667  8 3 0.1666666666666667  8.5 3 0.1666666666666667  9 3 0.1666666666666667  9.5 3 0.1666666666666667  10 3 0.1666666666666667  0 0 0.3333333333333333  0.5 0 0.3333333333333333  1 0 0.3333333333333333  1.5 0 0.3333333333333333  2 0 0.3333333333333333  2.5 0 0.3333333333333333  3 0 0.3333333333333333  3.5 0 0.3333333333333333  4 0 0.3333333333333333  4.5 0 0.3333333333333333  5 0 0.3333333333333333  5.5 0 0.3333333333333333  6 0 0.3333333333333333  6.5 0 0.3333333333333333  7 0 0.3333333333333333  7.5 0 0.3333333333333333  8 0 0.3333333333333333  8.5 0 0.3333333333333333  9 0 0.3333333333333333  9.5 0 0.3333333333333333  10 0 0.3333333333333333  0 0.5 0.3333333333333333  0.5 0.5 0.3333333333333333  1 0.5 0.3333333333333333  1.5 0.5 0.3333333333333333  2 0.5 0.3333333333333333  2.5 0.5 0.3333333333333333  3 0.5 0.3333333333333333  3.5 0.5 0.3333333333333333  4 0.5 0.3333333333333333  4.5 0.5 0.3333333333333333  5 0.5 0.3333333333333333  5.5 0.5 0.3333333333333333  6 0.5 0.3333333333333333  6.5 0.5 0.3333333333333333  7 0.5 0.3333333333333333  7.5 0.5 0.3333333333333333  8 0.5 0.3333333333333333  8.5 0.5 0.3333333333333333  9 0.5 0.3333333333333333  9.5 0.5 0.3333333333333333  10 0.5 0.3333333333333333  0 1 0.3333333333333333  0.5 1 0.3333333333333333  1 1 0.3333333333333333  1.5 1 0.3333333333333333  2 1 0.3333333333333333  2.5 1 0.3333333333333333  3 1 0.3333333333333333  3.5 1 0.3333333333333333  4 1 0.3333333333333333  4.5 1 0.3333333333333333  5 1 0.3333333333333333  5.5 1 0.3333333333333333  6 1 0.3333333333333333  6.5 1 0.3333333333333333  7 1 0.3333333333333333  7.5 1 0.3333333333333333  8 1 0.3333333333333333  8.5 1 0.3333333333333333  9 1 0.3333333333333333  9.5 1 0.3333333333333333  10 1 0.3333333333333333  0 1.5 0.3333333333333333  0.5 1.5 0.3333333333333333  1 1.5 0.3333333333333333  1.5 1.5 0.3333333333333333  2 1.5 0.3333333333333333  2.5 1.5 0.3333333333333333  3 1.5 0.3333333333333333  3.5 1.5 0.3333333333333333  4 1.5 0.3333333333333333  4.5 1.5 0.3333333333333333  5 1.5 0.3333333333333333  5.5 1.5 0.3333333333333333  6 1.5 0.3333333333333333  6.5 1.5 0.3333333333333333  7 1.5 0.3333333333333333  7.5 1.5 0.3333333333333333  8 1.5 0.3333333333333333  8.5 1.5 0.3333333333333333  9 1.5 0.3333333333333333  9.5 1.5 0.3333333333333333  10 1.5 0.3333333333333333  0 2 0.3333333333333333  0.5 2 0.3333333333333333  1 2 0.3333333333333333  1.5 2 0.3333333333333333  2 2 0.3333333333333333  2.5 2 0.3333333333333333  3 2 0.3333333333333333  3.5 2 0.3333333333333333  4 2 0.3333333333333333  4.5 2 0.3333333333333333  5 2 0.3333333333333333  5.5 2 0.3333333333333333  6 2 0.3333333333333333  6.5 2 0.3333333333333333  7 2 0.3333333333333333  7.5 2 0.3333333333333333  8 2 0.3333333333333333  8.5 2 0.3333333333333333  9 2 0.3333333333333333  9.5 2 0.3333333333333333  10 2 0.3333333333333333  0 2.5 0.3333333333333333  0.5 2.5 0.3333333333333333  1 2.5 0.3333333333333333  1.5 2.5 0.3333333333333333  2 2.5 0.3333333333333333  2.5 2.5 0.3333333333333333  3 2.5 0.3333333333333333  3.5 2.5 0.3333333333333333  4 2.5 0.3333333333333333  4.5 2.5 0.3333333333333333  5 2.5 0.3333333333333333  5.5 2.5 0.3333333333333333  6 2.5 0.3333333333333333  6.5 2.5 0.3333333333333333  7 2.5 0.3333333333333333  7.5 2.5 0.3333333333333333  8 2.5 0.3333333333333333  8.5 2.5 0.3333333333333333  9 2.5 0.3333333333333333  9.5 2.5 0.3333333333333333  10 2.5 0.3333333333333333  0 3 0.3333333333333333  0.5 3 0.3333333333333333  1 3 0.3333333333333333  1.5 3 0.3333333333333333  2 3 0.3333333333333333  2.5 3 0.3333333333333333  3 3 0.3333333333333333  3.5 3 0.3333333333333333  4 3 0.3333333333333333  4.5 3 0.3333333333333333  5 3 0.3333333333333333  5.5 3 0.3333333333333333  6 3 0.3333333333333333  6.5 3 0.3333333333333333  7 3 0.3333333333333333  7.5 3 0.3333333333333333  8 3 0.3333333333333333  8.5 3 0.3333333333333333  9 3 0.3333333333333333  9.5 3 0.3333333333333333  10 3 0.3333333333333333  0 0 0.5  0.5 0 0.5  1 0 0.5  1.5 0 0.5  2 0 0.5  2.5 0 0.5  3 0 0.5  3.5 0 0.5  4 0 0.5  4.5 0 0.5  5 0 0.5  5.5 0 0.5  6 0 0.5  6.5 0 0.5  7 0 0.5  7.5 0 0.5  8 0 0.5  8.5 0 0.5  9 0 0.5  9.5 0 0.5  10 0 0.5  0 0.5 0.5  0.5 0.5 0.5  1 0.5 0.5  1.5 0.5 0.5  2 0.5 0.5  2.5 0.5 0.5  3 0.5 0.5  3.5 0.5 0.5  4 0.5 0.5  4.5 0.5 0.5  5 0.5 0.5  5.5 0.5 0.5  6 0.5 0.5  6.5 0.5 0.5  7 0.5 0.5  7.5 0.5 0.5  8 0.5 0.5  8.5 0.5 0.5  9 0.5 0.5  9.5 0.5 0.5  10 0.5 0.5  0 1 0.5  0.5 1 0.5  1 1 0.5  1.5 1 0.5  2 1 0.5  2.5 1 0.5  3 1 0.5  3.5 1 0.5  4 1 0.5  4.5 1 0.5  5 1 0.5  5.5 1 0.5  6 1 0.5  6.5 1 0.5  7 1 0.5  7.5 1 0.5  8 1 0.5  8.5 1 0.5  9 1 0.5  9.5 1 0.5  10 1 0.5  0 1.5 0.5  0.5 1.5 0.5  1 1.5 0.5  1.5 1.5 0.5  2 1.5 0.5  2.5 1.5 0.5  3 1.5 0.5  3.5 1.5 0.5  4 1.5 0.5  4.5 1.5 0.5  5 1.5 0.5  5.5 1.5 0.5  6 1.5 0.5  6.5 1.5 0.5  7 1.5 0.5  7.5 1.5 0.5  8 1.5 0.5  8.
[...]
<PointData  Vectors="f_7-0"> 
<DataArray  type="Float64"  Name="f_7-0"  NumberOfComponents="3" format="ascii">0.0000000000000000e+00 0.0000000000000000e+00 0.0000000000000000e+00  6.3080918458317781e-01 5.0245612581190990e-01 9.1831762876853906e-02  1.5490475591212760e+00 5.5375152446497988e-01 9.3171072766147292e-02  2.4824634731361064e+00 5.5680806810826877e-01 9.3773403112107856e-02  3.4220081394226045e+00 5.5677872568915154e-01 9.3882608325000005e-02  4.3638722791083699e+00 5.5667997452287543e-01 9.3923026696545120e-02  5.3062134939821908e+00 5.5663736039057266e-01 9.3931463399527695e-02  6.2486377355167049e+00 5.5661857380874546e-01 9.3932178919833728e-02  7.1910698570641225e+00 5.5660949365833468e-01 9.3931943417381078e-02  8.1334953628090929e+00 5.5660490368043813e-01 9.3931601137005313e-02  9.0759138401851658e+00 5.5660250561734248e-01 9.3931337945072482e-02  1.0018327535037994e+01 5.5660122168720971e-01 9.3931175633051853e-02  1.0960738363114070e+01 5.5660052574886010e-01 9.3931082413181280e-02  1.1903147550181965e+01 5.5660014650198086e-01 9.3931029994661824e-02  1.2845555817697495e+01 5.5659993925746210e-01 9.3931000879995022e-02  1.3787963575717461e+01 5.5659982589232015e-01 9.3930984837953202e-02  1.4730371053307602e+01 5.5659976396735333e-01 9.3930976046323625e-02  1.5672778377574030e+01 5.5659973037882537e-01 9.3930971270543034e-02  1.6615185619256238e+01 5.5659971261292474e-01 9.3930968742297324e-02  1.7557592818532129e+01 5.5659970407032622e-01 9.3930967528743220e-02  1.8500000000000011e+01 5.5659970154211524e-01 9.3930967150183883e-02  0.0000000000000000e+00 0.0000000000000000e+00 0.0000000000000000e+00  6.1255388131585853e-01 3.2604332277509041e-01 9.5258444768105674e-02  1.5410212228831011e+00 3.6963799187190605e-01 9.4069630604535090e-02  2.4803555126631140e+00 3.7161844696442381e-01 9.4176304667516281e-02  3.4214934782753956e+00 3.7138325521171472e-01 9.4191188838299231e-02  4.3637695370503140e+00 3.7124244206819101e-01 9.4195098852804790e-02  5.3061980641073578e+00 3.7118996349033528e-01 9.4197851394227330e-02  6.2486397941830489e+00 3.7117024916994862e-01 9.4197858484856262e-02  7.1910741669345963e+00 3.7116200320731929e-01 9.4197309011355063e-02  8.1334986289524185e+00 3.7115819400767669e-01 9.4196916574875458e-02  9.0759158723193725e+00 3.7115630910001990e-01 9.4196682659595438e-02  1.0018328715944872e+01 3.7115533231209086e-01 9.4196546392884148e-02  1.0960739029639866e+01 3.7115481226363661e-01 9.4196469114849884e-02  1.1903147920958901e+01 3.7115453144964755e-01 9.4196426176959502e-02  1.2845556022389829e+01 3.7115437871048029e-01 9.4196402499155979e-02  1.3787963688182971e+01 3.7115429536311828e-01 9.4196389483404336e-02  1.4730371114741295e+01 3.7115424989157136e-01 9.4196382356511552e-02  1.5672778410645201e+01 3.7115422524229874e-01 9.4196378487563195e-02  1.6615185636214004e+01 3.7115421220948802e-01 9.4196376440506505e-02  1.7557592825675741e+01 3.7115420593933091e-01 9.4196375463312762e-02  1.8500000000000011e+01 3.7115420409352246e-01 9.4196375176629904e-02  0.0000000000000000e+00 0.0000000000000000e+00 0.0000000000000000e+00  6.0054881093946533e-01 1.6044993525238274e-01 9.7942694114493994e-02  1.5290612679544591e+00 1.8504971233157941e-01 9.4904860020638956e-02  2.4767223642973204e+00 1.8613142865109342e-01 9.4603464302077070e-02  3.4205631937909646e+00 1.8588917179487174e-01 9.4496124933395584e-02  4.3635762607925086e+00 1.8577674146913953e-01 9.4472747480943503e-02  5.3061726639410409e+00 1.8573584507623839e-01 9.4465939855854650e-02  6.2486487531691344e+00 1.8572072804558590e-01 9.4463458109973045e-02  7.1910858841353420e+00 1.8571448379222025e-01 9.4462522279101957e-02  8.1335069118331536e+00 1.8571164082999739e-01 9.4462141221656581e-02  9.0759209171849484e+00 1.8571024899209165e-01 9.4461967875248298e-02  1.0018331624069514e+01 1.8570953188003245e-01 9.4461880661289591e-02  1.0960740664515511e+01 1.8570915140363031e-01 9.4461835084034079e-02  1.1903148828516400e+01 1.8570894632711235e-01 9.4461810836667590e-02  1.2845556522911595e+01 1.8570883488571732e-01 9.4461797735331421e-02  1.3787963963055281e+01 1.8570877410405667e-01 9.4461790602990106e-02  1.4730371264853384e+01 1.8570874095204043e-01 9.4461786717457932e-02  1.5672778491447067e+01 1.8570872298293711e-01 9.4461784614373628e-02  1.6615185677652001e+01 1.8570871348247389e-01 9.4461783504721147e-02  1.7557592843126031e+01 1.8570870890926208e-01 9.4461782985997195e-02  1.8500000000000011e+01 1.8570870755381547e-01 9.4461782830950178e-02  0.0000000000000000e+00 0.0000000000000000e+00 0.0000000000000000e+00  5.9701974142487524e-01 1.1677726580162327e-03 9.8740134259788684e-02  1.5237668537476461e+00 4.4385251765008014e-04 9.5328428176489746e-02  2.4753827551903598e+00 3.4527983394352262e-04 9.4919904162844862e-02  3.4203106006579298e+00 2.9971139468595778e-04 9.4771198821783711e-02  4.3635640686506134e+00 2.8805023071424120e-04 9.4739515540931338e-02  5.3062081999661288e+00 2.7720702792724924e-04 9.4730890320836342e-02  6.2486809225970408e+00 2.7089241176990079e-04 9.4728106099053327e-02  7.1911071329828458e+00 2.6745103517974647e-04 9.4727414788447969e-02  8.1335194992053008e+00 2.6554135971310658e-04 9.4727244874614785e-02  9.0759280839466108e+00 2.6448882028339276e-04 9.4727200134722564e-02  1.0018335631507101e+01 2.6391008520395946e-04 9.4727189616809107e-02  1.0960742883478765e+01 2.6359247133749355e-04 9.4727188355315281e-02  1.1903150051008126e+01 2.6341821862791234e-04 9.4727188841580170e-02  1.2845557194612965e+01 2.6332265139507170e-04 9.4727189393787700e-02  1.3787964331245860e+01 2.6327028487204448e-04 9.4727189776817558e-02  1.4730371465738441e+01 2.6324165521667594e-04 9.4727190010137755e-02  1.5672778599531854e+01 2.6322611810531034e-04 9.4727190144457893e-02  1.6615185733073723e+01 2.6321789715388769e-04 9.4727190220396065e-02  1.7557592866487962e+01 2.6321393333176782e-04 9.4727190272345482e-02  1.8500000000000011e+01 2.6321275299801911e-04 9.4727190283884669e-02  0.0000000000000000e+00 0.0000000000000000e+00 0.0000000000000000e+00  6.0231195049476993e-01 -1.5779200400943980e-01 9.8122762848655828e-02  1.5289124986531726e+00 -1.8424128152026054e-01 9.5430009991641043e-02  2.4776526099224130e+00 -1.8544303659603459e-01 9.5062900511253212e-02  3.4211318751080073e+00 -1.8525418257617124e-01 9.4996258729275959e-02  4.3638609152952208e+00 -1.8518997920856664e-01 9.4992303574644055e-02  5.3063337374634472e+00 -1.8517705812797358e-01 9.4992040640162437e-02  6.2487380552646457e+00 -1.8517636139482913e-01 9.4991694217378631e-02  7.1911352974805407e+00 -1.8517818220860358e-01 9.4992035546884249e-02  8.1335340141167389e+00 -1.8517980560034805e-01 9.4992276623685770e-02  9.0759357952865702e+00 -1.8518086168597961e-01 9.4992413877778223e-02  1.0018339793324458e+01 -1.8518148736236606e-01 9.4992495131441826e-02  1.0960745146024184e+01 -1.8518184353089467e-01 9.4992541520705479e-02  1.1903151286112870e+01 -1.8518204252926862e-01 9.4992567224217533e-02  1.2845557870114860e+01 -1.8518215263562321e-01 9.4992581379478108e-02  1.3787964700643446e+01 -1.8518221323946288e-01 9.4992589164992328e-02  1.4730371667040703e+01 -1.8518224644934556e-01 9.4992593429648317e-02  1.5672778707778697e+01 -1.8518226449347633e-01 9.4992595746856964e-02  1.6615185788568088e+01 -1.8518227404835441e-01 9.4992596976203381e-02  1.7557592889888053e+01 -1.8518227865862757e-01 9.4992597580573115e-02  1.8500000000000011e+01 -1.8518228003460499e-01 9.4992597754296651e-02  0.0000000000000000e+00 0.0000000000000000e+00 0.0000000000000000e+00  6.2070672389433146e-01 -3.2520511953046316e-01 9.6978742251860497e-02  1.5412410032376038e+00 -3.6865122393912098e-01 9.4904313040036103e-02  2.4819106715799033e+00 -3.7078126748966400e-01 9.5053322673794585e-02  3.4225005245606313e+00 -3.7068797263407133e-01 9.5220651021864083e-02  4.3642860376873278e+00 -3.7063271149145299e-01 9.5243334253838560e-02  5.3064829651167793e+00 -3.7061771241246033e-01 9.5251731769534359e-02  6.2487969037675120e+00 -3.7061886533051608e-01 9.5255283069959923e-02  7.1911608227626340e+00 -3.7062195209120952e-01 9.5256741677680556e-02  8.1335461150459167e+00 -3.7062431502083176e-01 9.5257367356143541e-02  9.0759419214339623e+00 -3.7062580629302844e-01 9.5257667690040113e-02  1.0018343009014535e+01 -3.7062667700422736e-01 9.5257825375980668e-02  1.0960746868445367e+01 -3.7062716986379912e-01 9.5257908709232383e-02  1.1903152219273156e+01 -3.7062744428000227e-01 9.5257953376980134e-02  1.2845558378490006e+01 -3.7062759586664823e-01 9.5257977669607613e-02  1.3787964978088311e+01 -3.7062767924486412e-01 9.5257990928923758e-02  1.4730371818080007e+01 -3.7062772491633827e-01 9.5257998159647139e-02  1.5672778788958871e+01 -3.7062774972567786e-01 9.5258002079345497e-02  1.6615185830179993e+01 -3.7062776286144927e-01 9.5258004153238166e-02  1.7557592907438451e+01 -3.7062776920088275e-01 9.5258005163656262e-02  1.8500000000000011e+01 -3.7062777108951134e-01 9.5258005460512010e-02  0.0000000000000000e+00 0.0000000000000000e+00 0.0000000000000000e+00  6.4966614132149869e-01 -5.0052645876211144e-01 8.9435450938204999e-02  1.5486635208069361e+00 -5.5186227022461398e-01 9.3636992505457151e-02  2.4843997906106972e+00 -5.5587074946922332e-01 9.5462178062332315e-02  3.4232369067146515e+00 -5.5603749826566995e-01 9.5480503372483080e-02  4.3644765004489985e+00 -5.5603405233453917e-01 9.5492521140737821e-02  5.3065513674885354e+00 -5.5604805421118830e-01 9.5515443198013417e-02  6.2488237875354464e+00 -5.5605816698724175e-01 9.5520089891196938e-02  7.1911718497376569e+00 -5.5606442677732337e-01 9.5521843368204476e-02  8.1335512417345281e+00 -5.5606830486625991e-01 9.5522628450434258e-02  9.0759444819403559e+00 -5.5607051506695548e-01 9.5523008287074926e-02  1.0018344341598633e+01 -5.5607175146471743e-01 9.5523199897701833e-02  1.0960747578608560e+01 -5.5607243673192941e-01 9.5523298600241904e-02  1.1903152602997125e+01 -5.5607281443402290e-01 9.5523351735449694e-02  1.2845558587291483e+01 -5.5607302207123188e-01 9.5523380608281874e-02  1.3787965091965916e+01 -5.5607313597998187e-01 9.5523396318959397e-02  1.4730371880051711e+01 -5.5607319829309898e-01 9.5523404882869520e-02  1.5672778822262249e+01 -5.5607323212116300e-01 9.5523409526897057e-02  1.6615185847249396e+01 -5.5607325002678942e-01 9.5523411984359083e-02  1.7557592914630522e+01 -5.5607325867268442e-01 9.5523413168632554e-02  1.8500000000000011e+01 -5.5607326121270828e-01 9.5523413538112001e-02  0.0000000000000000e+00 0.0000000000000000e+00 0.0000000000000000e+00  6.3165924736563051e-01 5.0018127280365765e-01 3.1448895980934269e-02  1.5491354827655417e+00 5.5353648497984131e-01 3.1891619697577193e-02  2.4824659143739396e+00 5.5671607933830736e-01 3.2081756497728951e-02  3.4220091684645246e+00 5.5667935976021377e-01 3.2090943084293694e-02  4.3638717941416836e+00 5.5658965677894978e-01 3.2111892386203572e-02  5.3062137116076862e+00 5.5654880087462910e-01 3.2116276727526934e-02  6.2486378459938372e+00 5.5653006964877938e-01 3.2116232265971559e-02  7.1910698763011140e+00 5.5652102959844318e-01 3.2116128589162220e-02  8.1334953715052105e+00 5.5651645223692781e-01 3.2116025119730371e-02  9.0759138458674489e+00 5.5651404883204858e-01 3.2115932717246651e-02  1.0018327537916887e+01 5.5651275956559554e-01 3.2115874593315059e-02  1.0960738364570854e+01 5.5651206048567936e-01 3.2115841727350179e-02  1.1903147550967626e+01 5.5651167940189639e-01 3.2115823323956509e-02  1.2845555818125629e+01 5.5651147110426791e-01 3.2115813101936515e-02  1.3787963575949227e+01 5.5651135715406874e-01 3.2115807477872765e-02  1.4730371053431815e+01 5.5651129490828455e-01 3.2115804400499111e-02  1.5672778377638140e+01 5.5651126114529237e-01 3.2115802730263293e-02  1.6615185619283217e+01 5.5651124328795398e-01 3.2115801846870844e-02  1.7557592818534456e+01 5.5651123470017938e-01 3.2115801421640180e-02  1.8500000000000011e+01 5.5651123214515597e-01 3.2115801281324477e-02  0.0000000000000000e+00 0.0000000000000000e+00 0.0000000000000000e+00  6.1400737113159953e-01 3.2537969782598375e-01 3.3090986804204865e-02  1.5414753592265442e+00 3.6932897778918056e-01 3.2278238832734986e-02  2.4803028664860105e+00 3.7149179969120616e-01 3.2366412748006029e-02  3.4214903718320588e+00 3.7128095313948856e-01 3.2384784145865188e-02  4.3637718325393520e+00 3.7115140403094737e-01 3.2381336838674196e-02  5.3061984738314907e+00 3.7110114479503492e-01 3.2381783956080934e-02  6.2486398439318185e+00 3.7108172005342388e-01 3.2381764932377113e-02  7.1910741853992137e+00 3.7107355320608898e-01 3.2381544285208799e-02  8.1334986419086110e+00 3.7106975515042295e-01 3.2381397622531873e-02  9.0759158781269171e+00 3.7106786090537908e-01 3.2381315148766854e-02  1.0018328718475232e+01 3.7106687550867790e-01 3.2381268103014622e-02  1.0960739030944826e+01 3.7106635006646138e-01 3.2381241565150681e-02  1.1903147921663322e+01 3.7106606606716636e-01 3.2381226883286242e-02  1.2845556022767694e+01 3.7106591151097729e-01 3.2381218813045676e-02  1.3787963688386467e+01 3.7106582715215686e-01 3.2381214384053114e-02  1.4730371114850678e+01 3.7106578112411509e-01 3.2381211961040948e-02  1.5672778410702145e+01 3.7106575617204335e-01 3.2381210646414277e-02  1.6615185636239548e+01 3.7106574297885969e-01 3.2381209951372503e-02  1.7557592825680338e+01 3.7106573663098485e-01 3.2381209620216109e-02  1.8500000000000011e+01 3.7106573475560267e-01 3.2381209522307913e-02  0.0000000000000000e+00 0.0000000000000000e+00 0.0000000000000000e+00  6.0232617809637512e-01 1.6004495281489106e-01 3.3857678019536229e-02  1.5295036882935922e+00 1.8481513492262233e-01 3.2811176597026426e-02  2.4766859053568377e+00 1.8600524250742087e-01 3.2693059495373128e-02  3.4205606520808072e+00 1.8579487848393092e-01 3.2661197288837387e-02  4.3635806827716097e+00 1.8568709042619258e-01 3.2651094968457854e-02  5.3061726174553474e+00 1.8564710229792183e-01 3.2647990957995289e-02  6.2486487380548130e+00 1.8563228408623253e-01 3.2647184855254460e-02  7.1910859125985311e+00 1.8562609126845361e-01 3.2646872113152502e-02  8.1335069211027058e+00 1.8562322703593792e-01 3.2646736660489173e-02  9.0759209184017902e+00 1.8562181332076516e-01 3.2646678198363886e-02  1.0018331624296584e+01 1.8562108203199199e-01 3.2646649700849878e-02  1.0960740664638273e+01 1.8562069300869127e-01 3.2646634756201602e-02  1.1903148828549801e+01 1.8562048301218270e-01 3.2646626804432394e-02  1.2845556522915404e+01 1.8562036881870989e-01 3.2646622517100793e-02  1.3787963963054706e+01 1.8562030651575442e-01 3.2646620182545452e-02  1.4730371264852122e+01 1.8562027252823513e-01 3.2646618909541104e-02  1.5672778491445337e+01 1.8562025410487995e-01 3.2646618220064760e-02  1.6615185677649144e+01 1.8562024436403196e-01 3.2646617856661932e-02  1.7557592843121608e+01 1.8562023967520369e-01 3.2646617686932562e-02  1.8500000000000011e+01 1.8562023828564708e-01 3.2646617635217597e-02  0.0000000000000000e+00 0.0000000000000000e+00 0.0000000000000000e+00  5.9888490698671648e-01 1.1140979468821806e-03 3.4137548202905738e-02  1.5240852806907688e+00 3.0883236898102167e-04 3.3162358569994846e-02  2.4754160475072373e+00 2.6427199241367463e-04 3.2985318184798849e-02  3.4202972443335860e+00 2.1782090805863731e-04 3.2922644640349406e-02  4.3635676759005229e+00 2.0065627943999223e-04 3.2916159869512018e-02  5.3062076664669080e+00 1.8916528946908792e-04 3.2913122867377069e-02  6.2486808694580356e+00 1.8271534418952924e-04 3.2912273567556716e-02  7.1911071506755579e+00 1.7913429162142431e-04 3.2912083782456789e-02  8.1335194927383760e+00 1.7714890240337950e-04 3.2912035605362870e-02  9.0759280789978636e+00 1.7606095059489243e-04 3.2912025375240773e-02  1.0018335629314395e+01 1.7546345876789552e-04 3.2912023873969493e-02  1.0960742882302371e+01 1.7513548057003213e-04 3.2912024278640414e-02  1.1903150050327318e+01 1.7495557577471322e-04 3.2912024832165057e-02  1.2845557194236260e+01 1.7485693133834150e-04 3.2912025206813300e-02  1.3787964331040646e+01 1.7480288141400144e-04 3.2912025428618048e-02  1.4730371465626597e+01 1.7477333173482868e-04 3.2912025554298140e-02  1.5672778599471698e+01 1.7475729578477904e-04 3.2912025623796123e-02  1.6615185733042953e+01 1.7474881120690792e-04 3.2912025662224474e-02  1.7557592866475503e+01 1.7474472159494781e-04 3.2912025684525871e-02  1.8500000000000011e+01 1.7474350703602345e-04 3.2912025689318322e-02  0.0000000000000000e+00 0.0000000000000000e+00 0.0000000000000000e+00  6.0415724216212996e-01 -1.5771509430069014e-01 3.4203454521058670e-02  1.5292039821927874e+00 -1.8422256579226029e-01 3.3403797241266499e-02  2.4776987772295791e+00 -1.8547775314128084e-01 3.3194619064860917e-02  3.4211077349058510e+00 -1.8533340955870950e-01 3.3170809124969967e-02  4.3638637918258940e+00 -1.8527559597976226e-01 3.3177221220655258e-02  5.3063330434820495e+00 -1.8526422226908373e-01 3.3177041732046622e-02  6.2487379276438775e+00 -1.8526439087925486e-01 3.3177041561209104e-02  7.1911352915151330e+00 -1.8526647848916777e-01 3.3177226223157275e-02  8.1335339904046720e+00 -1.8526819600703598e-01 3.3177318691051123e-02  9.0759357862480314e+00 -1.8526929172304588e-01 3.3177369757145483e-02  1.0018339789267838e+01 -1.8526993639512160e-01 3.3177398455130937e-02  1.0960745143767529e+01 -1.8527030217733767e-01 3.3177414551670927e-02  1.1903151284879073e+01 -1.8527050614286267e-01 3.3177423380394193e-02  1.2845557869451278e+01 -1.8527061890622645e-01 3.3177428206858907e-02  1.3787964700283693e+01 -1.8527068095134072e-01 3.3177430852160586e-02  1.4730371666845379e+01 -1.8527071494414304e-01 3.3177432298082135e-02  1.5672778707674759e+01 -1.8527073341156472e-01 3.3177433082492783e-02  1.6615185788516829e+01 -1.8527074318967490e-01 3.3177433498502724e-02  1.7557592889870122e+01 -1.8527074790675843e-01 3.3177433701406550e-02  1.8500000000000011e+01 -1.8527074931053120e-01 3.3177433759425196e-02  0.0000000000000000e+00 0.0000000000000000e+00 0.0000000000000000e+00  6.2285989801331720e-01 -3.2437416434712402e-01 3.4377353998954786e-02  1.5414072476705123e+00 -3.6847829146212618e-01 3.3318255538354033e-02  2.4819722625573046e+00 -3.7085130505581743e-01 3.3354799715538112e-02  3.4224771437668209e+00 -3.7076986042501281e-01 3.3430432511384923e-02  4.3642853545313756e+00 -3.7071737703898638e-01 3.3437817773616346e-02  5.3064827896537299e+00 -3.7070545030569052e-01 3.3440750933905576e-02  6.2487967858891542e+00 -3.7070706192968583e-01 3.3441949194442322e-02  7.1911607844597460e+00 -3.7071030882738243e-01 3.3442428750177791e-02  8.1335460877664545e+00 -3.7071273573737484e-01 3.3442634137719099e-02  9.0759419121530662e+00 -3.7071425193274726e-01 3.3442731689941288e-02  1.0018343004350335e+01 -3.7071513456352945e-01 3.3442783271710033e-02  1.0960746865778036e+01 -3.7071563302106048e-01 3.3442810413576954e-02  1.1903152217852400e+01 -3.7071591032893925e-01 3.3442824941880472e-02  1.2845558377731900e+01 -3.7071606347049463e-01 3.3442832859034863e-02  1.3787964977675033e+01 -3.7071614768678424e-01 3.3442837182056269e-02  1.4730371817855671e+01 -3.7071619381298981e-01 3.3442839539641861e-02  1.5672778788840358e+01 -3.7071621886859968e-01 3.3442840817963490e-02  1.6615185830123224e+01 -3.7071623213449156e-01 3.3442841494258517e-02  1.7557592907420375e+01 -3.7071623853534386e-01 3.3442841823276913e-02  1.8500000000000011e+01 -3.7071624043931362e-01 3.3442841922355901e-02  0.0000000000000000e+00 0.0000000000000000e+00 0.0000000000000000e+00  6.4839365284281913e-01 -4.9925943360885522e-01 3.1235620613441227e-02  1.5492856167735791e+00 -5.5154989754015304e-01 3.3044282184254092e-02  2.4844555874226923e+00 -5.5606474985020871e-01 3.3766613029534029e-02  3.4231804415272005e+00 -5.5611174722809409e-01 3.3688122638962002e-02  4.3644769733018638e+00 -5.5611813420417822e-01 3.3698586146814147e-02  5.3065525210981610e+00 -5.5613683993485596e-01 3.3706660868442172e-02  6.2488234209970823e+00 -5.5614642684822291e-01 3.3707181767366444e-02  7.1911717900596894e+00 -5.5615284461472525e-01 3.3707790612589925e-02  8.1335512195792816e+00 -5.5615674265477744