<?xml version="1.0"?>
<VTKFile type="UnstructuredGrid"  version="0.1"  >
<UnstructuredGrid>
<Piece  NumberOfPoints="882" NumberOfCells="3600">
<Points>
<DataArray  type="Float64"  NumberOfComponents="3"  format="ascii">0 0 0  0.5 0 0  1 0 0  1.5 0 0  2 0 0  2.5 0 0  3 0 0  3.5 0 0  4 0 0  4.5 0 0  5 0 0  5.5 0 0  6 0 0  6.5 0 0  7 0 0  7.5 0 0  8 0 0  8.5 0 0  9 0 0  9.5 0 0  10 0 0  0 0.5 0  0.5 0.5 0  1 0.5 0  1.5 0.5 0  2 0.5 0  2.5 0.5 0  3 0.5 0  3.5 0.5 0  4 0.5 0  4.5 0.5 0  5 0.5 0  5.5 0.5 0  6 0.5 0  6.5 0.5 0  7 0.5 0  7.5 0.5 0  8 0.5 0  8.5 0.5 0  9 0.5 0  9.5 0.5 0  10 0.5 0  0 1 0  0.5 1 0  1 1 0  1.5 1 0  2 1 0  2.5 1 0  3 1 0  3.5 1 0  4 1 0  4.5 1 0  5 1 0  5.5 1 0  6 1 0  6.5 1 0  7 1 0  7.5 1 0  8 1 0  8.5 1 0  9 1 0  9.5 1 0  10 1 0  0 1.5 0  0.5 1.5 0  1 1.5 0  1.5 1.5 0  2 1.5 0  2.5 1.5 0  3 1.5 0  3.5 1.5 0  4 1.5 0  4.5 1.5 0  5 1.5 0  5.5 1.5 0  6 1.5 0  6.5 1.5 0  7 1.5 0  7.5 1.5 0  8 1.5 0  8.5 1.5 0  9 1.5 0  9.5 1.5 0  10 1.5 0  0 2 0  0.5 2 0  1 2 0  1.5 2 0  2 2 0  2.5 2 0  3 2 0  3.5 2 0  4 2 0  4.5 2 0  5 2 0  5.5 2 0  6 2 0  6.5 2 0  7 2 0  7.5 2 0  8 2 0  8.5 2 0  9 2 0  9.5 2 0  10 2 0  0 2.5 0  0.5 2.5 0  1 2.5 0  1.5 2.5 0  2 2.5 0  2.5 2.5 0  3 2.5 0  3.5 2.5 0  4 2.5 0  4.5 2.5 0  5 2.5 0  5.5 2.5 0  6 2.5 0  6.5 2.5 0  7 2.5 0  7.5 2.5 0  8 2.5 0  8.5 2.5 0  9 2.5 0  9.5 2.5 0  10 2.5 0  0 3 0  0.5 3 0  1 3 0  1.5 3 0  2 3 0  2.5 3 0  3 3 0  3.5 3 0  4 3 0  4.5 3 0  5 3 0  5.5 3 0  6 3 0  6.5 3 0  7 3 0  7.5 3 0  8 3 0  8.5 3 0  9 3 0  9.5 3 0  10 3 0  0 0 0.1  0.5 0 0.1  1 0 0.1  1.5 0 0.1  2 0 0.1  2.5 0 0.1  3 0 0.1  3.5 0 0.1  4 0 0.1  4.5 0 0.1  5 0 0.1  5.5 0 0.1  6 0 0.1  6.5 0 0.1  7 0 0.1  7.5 0 0.1  8 0 0.1  8.5 0 0.1  9 0 0.1  9.5 0 0.1  10 0 0.1  0 0.5 0.1  0.5 0.5 0.1  1 0.5 0.1  1.5 0.5 0.1  2 0.5 0.1  2.5 0.5 0.1  3 0.5 0.1  3.5 0.5 0.1  4 0.5 0.1  4.5 0.5 0.1  5 0.5 0.1  5.5 0.5 0.1  6 0.5 0.1  6.5 0.5 0.1  7 0.5 0.1  7.5 0.5 0.1  8 0.5 0.1  8.5 0.5 0.1  9 0.5 0.1  9.5 0.5 0.1  10 0.5 0.1  0 1 0.1  0.5 1 0.1  1 1 0.1  1.5 1 0.1  2 1 0.1  2.5 1 0.1  3 1 0.1  3.5 1 0.1  4 1 0.1  4.5 1 0.1  5 1 0.1  5.5 1 0.1  6 1 0.1  6.5 1 0.1  7 1 0.1  7.5 1 0.1  8 1 0.1  8.5 1 0.1  9 1 0.1  9.5 1 0.1  10 1 0.1  0 1.5 0.1  0.5 1.5 0.1  1 1.5 0.1  1.5 1.5 0.1  2 1.5 0.1  2.5 1.5 0.1  3 1.5 0.1  3.5 1.5 0.1  4 1.5 0.1  4.5 1.5 0.1  5 1.5 0.1  5.5 1.5 0.1  6 1.5 0.1  6.5 1.5 0.1  7 1.5 0.1  7.5 1.5 0.1  8 1.5 0.1  8.5 1.5 0.1  9 1.5 0.1  9.5 1.5 0.1  10 1.5 0.1  0 2 0.1  0.5 2 0.1  1 2 0.1  1.5 2 0.1  2 2 0.1  2.5 2 0.1  3 2 0.1  3.5 2 0.1  4 2 0.1  4.5 2 0.1  5 2 0.1  5.5 2 0.1  6 2 0.1  6.5 2 0.1  7 2 0.1  7.5 2 0.1  8 2 0.1  8.5 2 0.1  9 2 0.1  9.5 2 0.1  10 2 0.1  0 2.5 0.1  0.5 2.5 0.1  1 2.5 0.1  1.5 2.5 0.1  2 2.5 0.1  2.5 2.5 0.1  3 2.5 0.1  3.5 2.5 0.1  4 2.5 0.1  4.5 2.5 0.1  5 2.5 0.1  5.5 2.5 0.1  6 2.5 0.1  6.5 2.5 0.1  7 2.5 0.1  7.5 2.5 0.1  8 2.5 0.1  8.5 2.5 0.1  9 2.5 0.1  9.5 2.5 0.1  10 2.5 0.1  0 3 0.1  0.5 3 0.1  1 3 0.1  1.5 3 0.1  2 3 0.1  2.5 3 0.1  3 3 0.1  3.5 3 0.1  4 3 0.1  4.5 3 0.1  5 3 0.1  5.5 3 0.1  6 3 0.1  6.5 3 0.1  7 3 0.1  7.5 3 0.1  8 3 0.1  8.5 3 0.1  9 3 0.1  9.5 3 0.1  10 3 0.1  0 0 0.2  0.5 0 0.2  1 0 0.2  1.5 0 0.2  2 0 0.2  2.5 0 0.2  3 0 0.2  3.5 0 0.2  4 0 0.2  4.5 0 0.2  5 0 0.2  5.5 0 0.2  6 0 0.2  6.5 0 0.2  7 0 0.2  7.5 0 0.2  8 0 0.2  8.5 0 0.2  9 0 0.2  9.5 0 0.2  10 0 0.2  0 0.5 0.2  0.5 0.5 0.2  1 0.5 0.2  1.5 0.5 0.2  2 0.5 0.2  2.5 0.5 0.2  3 0.5 0.2  3.5 0.5 0.2  4 0.5 0.2  4.5 0.5 0.2  5 0.5 0.2  5.5 0.5 0.2  6 0.5 0.2  6.5 0.5 0.2  7 0.5 0.2  7.5 0.5 0.2  8 0.5 0.2  8.5 0.5 0.2  9 0.5 0.2  9.5 0.5 0.2  10 0.5 0.2  0 1 0.2  0.5 1 0.2  1 1 0.2  1.5 1 0.2  2 1 0.2  2.5 1 0.2  3 1 0.2  3.5 1 0.2  4 1 0.2  4.5 1 0.2  5 1 0.2  5.5 1 0.2  6 1 0.2  6.5 1 0.2  7 1 0.2  7.5 1 0.2  8 1 0.2  8.5 1 0.2  9 1 0.2  9.5 1 0.2  10 1 0.2  0 1.5 0.2  0.5 1.5 0.2  1 1.5 0.2  1.5 1.5 0.2  2 1.5 0.2  2.5 1.5 0.2  3 1.5 0.2  3.5 1.5 0.2  4 1.5 0.2  4.5 1.5 0.2  5 1.5 0.2  5.5 1.5 0.2  6 1.5 0.2  6.5 1.5 0.2  7 1.5 0.2  7.5 1.5 0.2  8 1.5 0.2  8.5 1.5 0.2  9 1.5 0.2  9.5 1.5 0.2  10 1.5 0.2  0 2 0.2  0.5 2 0.2  1 2 0.2  1.5 2 0.2  2 2 0.2  2.5 2 0.2  3 2 0.2  3.5 2 0.2  4 2 0.2  4.5 2 0.2  5 2 0.2  5.5 2 0.2  6 2 0.2  6.5 2 0.2  7 2 0.2  7.5 2 0.2  8 2 0.2  8.5 2 0.2  9 2 0.2  9.5 2 0.2  10 2 0.2  0 2.5 0.2  0.5 2.5 0.2  1 2.5 0.2  1.5 2.5 0.2  2 2.5 0.2  2.5 2.5 0.2  3 2.5 0.2  3.5 2.5 0.2  4 2.5 0.2  4.5 2.5 0.2  5 2.5 0.2  5.5 2.5 0.2  6 2.5 0.2  6.5 2.5 0.2  7 2.5 0.2  7.5 2.5 0.2  8 2.5 0.2  8.5 2.5 0.2  9 2.5 0.2  9.5 2.5 0.2  10 2.5 0.2  0 3 0.2  0.5 3 0.2  1 3 0.2  1.5 3 0.2  2 3 0.2  2.5 3 0.2  3 3 0.2  3.5 3 0.2  4 3 0.2  4.5 3 0.2  5 3 0.2  5.5 3 0.2  6 3 0.2  6.5 3 0.2  7 3 0.2  7.5 3 0.2  8 3 0.2  8.5 3 0.2  9 3 0.2  9.5 3 0.2  10 3 0.2  0 0 0.3  0.5 0 0.3  1 0 0.3  1.5 0 0.3  2 0 0.3  2.5 0 0.3  3 0 0.3  3.5 0 0.3  4 0 0.3  4.5 0 0.3  5 0 0.3  5.5 0 0.3  6 0 0.3  6.5 0 0.3  7 0 0.3  7.5 0 0.3  8 0 0.3  8.5 0 0.3  9 0 0.3  9.5 0 0.3  10 0 0.3  0 0.5 0.3  0.5 0.5 0.3  1 0.5 0.3  1.5 0.5 0.3  2 0.5 0.3  2.5 0.5 0.3  3 0.5 0.3  3.5 0.5 0.3  4 0.5 0.3  4.5 0.5 0.3  5 0.5 0.3  5.5 0.5 0.3  6 0.5 0.3  6.5 0.5 0.3  7 0.5 0.3  7.5 0.5 0.3  8 0.5 0.3  8.5 0.5 0.3  9 0.5 0.3  9.5 0.5 0.3  10 0.5 0.3  0 1 0.3  0.5 1 0.3  1 1 0.3  1.5 1 0.3  2 1 0.3  2.5 1 0.3  3 1 0.3  3.5 1 0.3  4 1 0.3  4.5 1 0.3  5 1 0.3  5.5 1 0.3  6 1 0.3  6.5 1 0.3  7 1 0.3  7.5 1 0.3  8 1 0.3  8.5 1 0.3  9 1 0.3  9.5 1 0.3  10 1 0.3  0 1.5 0.3  0.5 1.5 0.3  1 1.5 0.3  1.5 1.5 0.3  2 1.5 0.3  2.5 1.5 0.3  3 1.5 0.3  3.5 1.5 0.3  4 1.5 0.3  4.5 1.5 0.3  5 1.5 0.3  5.5 1.5 0.3  6 1.5 0.3  6.5 1.5 0.3  7 1.5 0.3  7.5 1.5 0.3  8 1.5 0.3  8.5 1.5 0.3  9 1.5 0.3  9.5 1.5 0.3  10 1.5 0.3  0 2 0.3  0.5 2 0.3  1 2 0.3  1.5 2 0.3  2 2 0.3  2.5 2 0.3  3 2 0.3  3.5 2 0.3  4 2 0.3  4.5 2 0.3  5 2 0.3  5.5 2 0.3  6 2 0.3  6.5 2 0.3  7 2 0.3  7.5 2 0.3  8 2 0.3  8.5 2 0.3  9 2 0.3  9.5 2 0.3  10 2 0.3  0 2.5 0.3  0.5 2.5 0.3  1 2.5 0.3  1.5 2.5 0.3  2 2.5 0.3  2.5 2.5 0.3  3 2.5 0.3  3.5 2.5 0.3  4 2.5 0.3  4.5 2.5 0.3  5 2.5 0.3  5.5 2.5 0.3  6 2.5 0.3  6.5 2.5 0.3  7 2.5 0.3  7.5 2.5 0.3  8 2.5 0.3  8.5 2.5 0.3  9 2.5 0.3  9.5 2.5 0.3  10 2.5 0.3  0 3 0.3  0.5 3 0.3  1 3 0.3  1.5 3 0.3  2 3 0.3  2.5 3 0.3  3 3 0.3  3.5 3 0.3  4 3 0.3  4.5 3 0.3  5 3 0.3  5.5 3 0.3  6 3 0.3  6.5 3 0.3  7 3 0.3  7.5 3 0.3  8 3 0.3  8.5 3 0.3  9 3 0.3  9.5 3 0.3  10 3 0.3  0 0 0.4  0.5 0 0.4  1 0 0.4  1.5 0 0.4  2 0 0.4  2.5 0 0.4  3 0 0.4  3.5 0 0.4  4 0 0.4  4.5 0 0.4  5 0 0.4  5.5 0 0.4  6 0 0.4  6.5 0 0.4  7 0 0.4  7.5 0 0.4  8 0 0.4  8.5 0 0.4  9 0 0.4  9.5 0 0.4  10 0 0.4  0 0.5 0.4  0.5 0.5 0.4  1 0.5 0.4  1.5 0.5 0.4  2 0.5 0.4  2.5 0.5 0.4  3 0.5 0.4  3.5 0.5 0.4  4 0.5 0.4  4.5 0.5 0.4  5 0.5 0.4  5.5 0.5 0.4  6 0.5 0.4  6.5 0.5 0.4  7 0.5 0.4  7.5 0.5 0.4  8 0.5 0.4  8.5 0.5 0.4  9 0.5 0.4  9.5 0.5 0.4  10 0.5 0.4  0 1 0.4  0.5 1 0.4  1 1 0.4  1.5 1 0.4  2 1 0.4  2.5 1 0.4  3 1 0.4  3.5 1 0.4  4 1 0.4  4.5 1 0.4  5 1 0.4  5.5 1 0.4  6 1 0.4  6.5 1 0.4  7 1 0.4  7.5 1 0.4  8 1 0.4  8.5 1 0.4  9 1 0.4  9.5 1 0.4  10 1 0.4  0 1.5 0.4  0.5 1.5 0.4  1 1.5 0.4  1.5 1.5 0.4  2 1.5 0.4  2.5 1.5 0.4  3 1.5 0.4  3.5 1.5 0.4  4 1.5 0.4  4.5 1.5 0.4  5 1.5 0.4  5.5 1.5 0.4  6 1.5 0.4  6.5 1.5 0.4  7 1.5 0.4  7.5 1.5 0.4  8 1.5 0.4  8.5 1.5 0.4  9 1.5 0.4  9.5 1.5 0.4  10 1.5 0.4  0 2 0.4  0.5 2 0.4  1 2 0.4  1.5 2 0.4  2 2 0.4  2.5 2 0.4  3 2 0.4  3.5 2 0.4  4 2 0.4  4.5 2 0.4  5 2 0.4  5.5 2 0.4  6 2 0.4  6.5 2 0.4  7 2 0.4  7.5 2 0.4  8 2 0.4  8.5 2 0.4  9 2 0.4  9.5 2 0.4  10 2 0.4  0 2.5 0.4  0.5 2.5 0.4  1 2.5 0.4  1.5 2.5 0.4  2 2.5 0.4  2.5 2.5 0.4  3 2.5 0.4  3.5 2.5 0.4  4 2.5 0.4  4.5 2.5 0.4  5 2.5 0.4  5.5 2.5 0.4  6 2.5 0.4  6.5 2.5 0.4  7 2.5 0.4  7.5 2.5 0.4  8 2.5 0.4  8.5 2.5 0.4  9 2.5 0.4  9.5 2.5 0.4  10 2.5 0.4  0 3 0.4  0.5 3 0.4  1 3 0.4  1.5 3 0.4  2 3 0.4  2.5 3 0.4  3 3 0.4  3.5 3 0.4  4 3 0.4  4.5 3 0.4  5 3 0.4  5.5 3 0.4  6 3 0.4  6.5 3 0.4  7 3 0.4  7.5 3 0.4  8 3 0.4  8.5 3 0.4  9 3 0.4  9.5 3 0.4  10 3 0.4  0 0 0.5  0.5 0 0.5  1 0 0.5  1.5 0 0.5  2 0 0.5  2.5 0 0.5  3 0 0.5  3.5 0 0.5  4 0 0.5  4.5 0 0.5  5 0 0.5  5.5 0 0.5  6 0 0.5  6.5 0 0.5  7 0 0.5  7.5 0 0.5  8 0 0.5  8.5 0 0.5  9 0 0.5  9.5 0 0.5  10 0 0.5  0 0.5 0.5  0.5 0.5 0.5  1 0.5 0.5  1.5 0.5 0.5  2 0.5 0.5  2.5 0.5 0.5  3 0.5 0.5  3.5 0.5 0.5  4 0.5 0.5  4.5 0.5 0.5  5 0.5 0.5  5.5 0.5 0.5  6 0.5 0.5  6.5 0.5 0.5  7 0.5 0.5  7.5 0.5 0.5  8 0.5 0.5  8.5 0.5 0.5  9 0.5 0.5  9.5 0.5 0.5  10 0.5 0.5  0 1 0.5  0.5 1 0.5  1 1 0.5  1.5 1 0.5  2 1 0.5  2.5 1 0.5  3 1 0.5  3.5 1 0.5  4 1 0.5  4.5 1 0.5  5 1 0.5  5.5 1 0.5  6 1 0.5  6.5 1 0.5  7 1 0.5  7.5 1 0.5  8 1 0.5  8.5 1 0.5  9 1 0.5  9.5 1 0.5  10 1 0.5  0 1.5 0.5  0.5 1.5 0.5  1 1.5 0.5  1.5 1.5 0.5  2 1.5 0.5  2.5 1.5 0.5  3 1.5 0.5  3.5 1.5 0.5  4 1.5 0.5  4.5 1.5 0.5  5 1.5 0.5  5.5 1.5 0.5  6 1.5 0.5  6.5 1.5 0.5  7 1.5 0.5  7.5 1.5 0.5  8 1.5 0.5  8.5 1.5 0.5  9 1.5 0.5  9.5 1.5 0.5  10 1.5 0.5  0 2 0.5  0.5 2 0.5  1 2 0.5  1.5 2 0.5  2 2 0.5  2.5 2 0.5  3 2 0.5  3.5 2 0.5  4 2 0.5  4.5 2 0.5  5 2 0.5  5.5 2 0.5  6 2 0.5  6.5 2 0.5  7 2 0.5  7.5 2 0.5  8 2 0.5  8.5 2 0.5  9 2 0.5  9.5 2 0.5  10 2 0.5  0 2.5 0.5  0.5 2.5 0.5  1 2.5 0.5  1.5 2.5 0.5  2 2.5 0.5  2.5 2.5 0.5  3 2.5 0.5  3.5 2.5 0.5  4 2.5 0.5  4.5 2.5 0.5  5 2.5 0.5  5.5 2.5 0.5  6 2.5 0.5  6.5 2.5 0.5  7 2.5 0.5  7.5 2.5 0.5  8 2.5 0.5  8.5 2.5 0.5  9 2.5 0.5  9.5 2.5 0.5  10 2.5 0.5  0 3 0.5  0.5 3 0.5  1 3 0.5  1.5 3 0.5  2 3 0.5  2.5 3 0.5  3 3 0.5  3.5 3 0.5  4 3 0.5  4.5 3 0.5  5 3 0.5  5.5 3 0.5  6 3 0.5  6.5 3 0.5  7 3 0.5  7.5 3 0.5  8 3 0.5  8.5 3 0.5  9 3 0.5  9.5 3 0.5  10 3 0.5  </DataArray>
</Points>
<Cells>
[...]
<PointData  Vectors="f_7-0"> 
<DataArray  type="Float64"  Name="f_7-0"  NumberOfComponents="3" format="ascii">0.0000000000000000e+00 0.0000000000000000e+00 0.0000000000000000e+00  6.9101623245397564e-02 5.4231752987921496e-02 1.4956201171167617e-02  1.3456600049478062e-01 8.3806458605639400e-02 1.3853765734756921e-02  1.9714673950692144e-01 9.9383084709465178e-02 1.4358767999755224e-02  2.6558192403596648e-01 1.0424140109115135e-01 1.5373290948772636e-02  3.3920706811734391e-01 1.0451139058384588e-01 1.5952286692747696e-02  4.1527353356407609e-01 1.0425917275684410e-01 1.6185287749472681e-02  4.9225575299033997e-01 1.0416141451903956e-01 1.6265593197310236e-02  5.6957955990913900e-01 1.0421656259402227e-01 1.6292104092112632e-02  6.4701694375591812e-01 1.0435153682270766e-01 1.6299156580643973e-02  7.2449565814304495e-01 1.0450775648839633e-01 1.6301063796274700e-02  8.0199459904336834e-01 1.0465401333442689e-01 1.6302384425028630e-02  8.7950931694965506e-01 1.0477838418469805e-01 1.6304028877834734e-02  9.5703860701848287e-01 1.0487903129094292e-01 1.6305883774660732e-02  1.0345810942344320e+00 1.0495819339209678e-01 1.6307693266203162e-02  1.1121348523889965e+00 1.0501916777952787e-01 1.6309285222022036e-02  1.1896977119156571e+00 1.0506505228138648e-01 1.6310583365420007e-02  1.2672675386082435e+00 1.0509834446409837e-01 1.6311570534826007e-02  1.3448423611667288e+00 1.0512089096808278e-01 1.6312257122442258e-02  1.4224204042650843e+00 1.0513393339834901e-01 1.6312655944360550e-02  1.5000000000000000e+00 1.0513822007719946e-01 1.6312792774172118e-02  0.0000000000000000e+00 0.0000000000000000e+00 0.0000000000000000e+00  4.4451558027980460e-02 2.4604289165689130e-02 1.5952079473774767e-02  1.1522924778657412e-01 5.6514089569775890e-02 1.6068563053880727e-02  1.8629889372498873e-01 7.0527403107834175e-02 1.5767478133129939e-02  2.6128093228182148e-01 7.3502858704337370e-02 1.6014205981472573e-02  3.3779446667519147e-01 7.2928930163307329e-02 1.6142615583366212e-02  4.1474698114906611e-01 7.2385827927192031e-02 1.6231629029439792e-02  4.9200106442371960e-01 7.2163025791674038e-02 1.6290691859165950e-02  5.6939415213417310e-01 7.2173090922612732e-02 1.6319652740760388e-02  6.4685467144887754e-01 7.2291216391609625e-02 1.6333130445253880e-02  7.2435101527851542e-01 7.2438962280500022e-02 1.6339861752883232e-02  8.0187009614170979e-01 7.2578885162444623e-02 1.6343638705507701e-02  8.7940606178001024e-01 7.2697633700834804e-02 1.6346163504058219e-02  9.5695547598807773e-01 7.2793282858102160e-02 1.6348081783213529e-02  1.0345157539968652e+00 7.2868197333414153e-02 1.6349618510434174e-02  1.1120846976029117e+00 7.2925727134597829e-02 1.6350850654252725e-02  1.1896603868133862e+00 7.2968939510490494e-02 1.6351812998255142e-02  1.2672411469338047e+00 7.3000261602039693e-02 1.6352530272972510e-02  1.3448255156075450e+00 7.3021462312170674e-02 1.6353023651155704e-02  1.4224121935530587e+00 7.3033731481774500e-02 1.6353311379575779e-02  1.5000000000000000e+00 7.3037747949924819e-02 1.6353400296872603e-02  0.0000000000000000e+00 0.0000000000000000e+00 0.0000000000000000e+00  3.0703290820118023e-02 6.9813014995183846e-03 1.5377039571746640e-02  9.7754112010734348e-02 2.9178365902000680e-02 1.8386861892559298e-02  1.7528000497766871e-01 3.8956415786314681e-02 1.6995800378168082e-02  2.5573382771133918e-01 4.0442542104299935e-02 1.6555052432085434e-02  3.3504832346302643e-01 4.0294317166436062e-02 1.6356765311477176e-02  4.1349961754369974e-01 4.0028147375556614e-02 1.6334128047652510e-02  4.9139223877978616e-01 3.9969038987708323e-02 1.6345373052926330e-02  5.6904355270606544e-01 4.0055470115081565e-02 1.6361580290664705e-02  6.4661087449618482e-01 4.0202459146306151e-02 1.6373968158427309e-02  7.2416029636074686e-01 4.0356814589125808e-02 1.6381784591601275e-02  8.0171476140747799e-01 4.0494753441479368e-02 1.6386383776819013e-02  8.7927953587231822e-01 4.0609194378283343e-02 1.6389108712233702e-02  9.5685388402842808e-01 4.0700612568205542e-02 1.6390806724066741e-02  1.0344357129271913e+00 4.0772062724530919e-02 1.6391938463622434e-02  1.1120230589199473e+00 4.0826949853272357e-02 1.6392735071051510e-02  1.1896143934368046e+00 4.0868218695468014e-02 1.6393309685291384e-02  1.2672085682240517e+00 4.0898160677868951e-02 1.6393718978142992e-02  1.3448046953984716e+00 4.0918442106306997e-02 1.6393993764450655e-02  1.4224020510217439e+00 4.0930182725380661e-02 1.6394149438175454e-02  1.5000000000000000e+00 4.0934029310451939e-02 1.6394198873989900e-02  0.0000000000000000e+00 0.0000000000000000e+00 0.0000000000000000e+00  2.8660008713492655e-02 1.3490551604710985e-03 1.3749704146155700e-02  8.7903399154934822e-02 3.3707381145208345e-03 2.0013292888844344e-02  1.6922652506316335e-01 5.4790205809726921e-03 1.7922566559106734e-02  2.5229097729729510e-01 6.2346750738960562e-03 1.6853189101701464e-02  3.3328670206036159e-01 6.7395628252825985e-03 1.6507697867333807e-02  4.1252212013822737e-01 7.1891877067441082e-03 1.6415330627244460e-02  4.9080244968761289e-01 7.5524224996588608e-03 1.6402459749807575e-02  5.6864623937163128e-01 7.8415596060285343e-03 1.6411565338221773e-02  6.4631757341810747e-01 8.0707707536298683e-03 1.6421437946089117e-02  7.2393223115331484e-01 8.2524109874603929e-03 1.6428055142003697e-02  8.0153383138656120e-01 8.3960976577926918e-03 1.6431724017246036e-02  8.7913568988509061e-01 8.5094446560551491e-03 1.6433554353524553e-02  9.5674029062591892e-01 8.5984543507193929e-03 1.6434408796330457e-02  1.0343470899374700e+00 8.6678396587303308e-03 1.6434793837935991e-02  1.1119551614110716e+00 8.7212758010464693e-03 1.6434967632680816e-02  1.1895638506014430e+00 8.7615939437027772e-03 1.6435049287771907e-02  1.2671728005946707e+00 8.7909306821873142e-03 1.6435089723605967e-02  1.3447818453045597e+00 8.8108409343078797e-03 1.6435109680326465e-02  1.4223909190208559e+00 8.8223800811130012e-03 1.6435116888891373e-02  1.5000000000000000e+00 8.8261601932967063e-03 1.6435117195493950e-02  0.0000000000000000e+00 0.0000000000000000e+00 0.0000000000000000e+00  3.0191088389288356e-02 -4.6982889840737991e-03 1.5266186118832722e-02  9.2682575067037323e-02 -2.0432277286813714e-02 1.9127610459883097e-02  1.7199995894270151e-01 -2.8094826062077378e-02 1.7353234245675159e-02  2.5350123317689977e-01 -2.8318402966250881e-02 1.6664670178586694e-02  3.3352993699516736e-01 -2.6918461777839190e-02 1.6485653188026184e-02  4.1229966486446396e-01 -2.5708689515073463e-02 1.6448461389538743e-02  4.9044227613147312e-01 -2.4907726254039097e-02 1.6455916063432038e-02  5.6828997432663220e-01 -2.4407425365286894e-02 1.6468062908934253e-02  6.4601349330406510e-01 -2.4088904504956477e-02 1.6475645321994067e-02  7.2368735713153876e-01 -2.3874337298114088e-02 1.6479051732679075e-02  8.0134117329196741e-01 -2.3720419098084585e-02 1.6479904978207453e-02  8.7898546247774378e-01 -2.3604624271320544e-02 1.6479585831125822e-02  9.5662372145693109e-01 -2.3515243700162981e-02 1.6478866710363547e-02  1.0342572527808851e+00 -2.3445758261935186e-02 1.6478109641170417e-02  1.1118868379294038e+00 -2.3392106978345484e-02 1.6477453067393635e-02  1.1895131892795423e+00 -2.3351483035940292e-02 1.6476933184391376e-02  1.2671370159108279e+00 -2.3321837632663392e-02 1.6476547074782886e-02  1.3447590017507953e+00 -2.3301678630839102e-02 1.6476283069031563e-02  1.4223797937309024e+00 -2.3289983572025136e-02 1.6476127513677975e-02  1.5000000000000000e+00 -2.3286152080320102e-02 1.6476074214128212e-02  0.0000000000000000e+00 0.0000000000000000e+00 0.0000000000000000e+00  3.9572211721081559e-02 -1.6925378305871704e-02 1.7074407779367685e-02  1.0969366861576849e-01 -4.7965039469646871e-02 1.6524196832308484e-02  1.8135184422328729e-01 -6.0720707249206037e-02 1.5846728577294647e-02  2.5774660115618947e-01 -6.1595907776302257e-02 1.6175469404012984e-02  3.3494805390900373e-01 -5.9747256511398054e-02 1.6368199531109535e-02  4.1246853537414557e-01 -5.8222169903217103e-02 1.6469792360044335e-02  4.9018861499158067e-01 -5.7230209121839494e-02 1.6518065678017734e-02  5.6795515712600908e-01 -5.6626880524991791e-02 1.6534531526608040e-02  6.4571379573756205e-01 -5.6258543032094342e-02 1.6536859511076873e-02  7.2344763127556810e-01 -5.6020835484558044e-02 1.6534047486763279e-02  8.0115640979184743e-01 -5.5855891798273945e-02 1.6530130529162371e-02  8.7884424202506461e-01 -5.5734191547165121e-02 1.6526571411052300e-02  9.5651574187791022e-01 -5.5641048947438682e-02 1.6523728066768568e-02  1.0341747942128949e+00 -5.5568809974742187e-02 1.6521569097956441e-02  1.1118244370293020e+00 -5.5513018069185578e-02 1.6519964984742945e-02  1.1894670284463014e+00 -5.5470730531962227e-02 1.6518792269254023e-02  1.2671044409220555e+00 -5.5439840904524647e-02 1.6517958057225800e-02  1.3447382134306063e+00 -5.5418820365557959e-02 1.6517400677536927e-02  1.4223696714320737e+00 -5.5406618248212094e-02 1.6517073472903113e-02  1.5000000000000000e+00 -5.5402618846707614e-02 1.6516965412266785e-02  0.0000000000000000e+00 0.0000000000000000e+00 0.0000000000000000e+00  6.4818201487775798e-02 -4.4442172156246559e-02 1.4559246963229125e-02  1.2903699464229326e-01 -7.6044824975388170e-02 1.3628316114578206e-02  1.9116332806845085e-01 -8.9796113409064016e-02 1.4273480402324739e-02  2.6054453747215695e-01 -9.2750154943194135e-02 1.5814274109640265e-02  3.3520893285877174e-01 -9.1603485746991037e-02 1.6332742580003730e-02  4.1211842399854004e-01 -9.0332994492993590e-02 1.6545419236213620e-02  4.8974910900546292e-01 -8.9418287301722341e-02 1.6607601608533400e-02  5.6758804867441937e-01 -8.8822354456886576e-02 1.6613781467038739e-02  6.4543733692074701e-01 -8.8440127538508773e-02 1.6602946500702667e-02  7.2324456693980066e-01 -8.8186428784179288e-02 1.6590462822587155e-02  8.0100607832824677e-01 -8.8008410212326679e-02 1.6580444215512042e-02  8.7873108376656628e-01 -8.7877010256613680e-02 1.6573231429777378e-02  9.5642946684708319e-01 -8.7776832711319086e-02 1.6568200965210694e-02  1.0341087754661811e+00 -8.7699462581173199e-02 1.6564681050987403e-02  1.1117743226952552e+00 -8.7639893671471153e-02 1.6562186311863493e-02  1.1894298602498237e+00 -8.7594830264158513e-02 1.6560408058955079e-02  1.2670781654354915e+00 -8.7561947345996469e-02 1.6559159365552727e-02  1.3447214281308251e+00 -8.7539581691947324e-02 1.6558328674663603e-02  1.4223614986865030e+00 -8.7526598337946002e-02 1.6557849280351970e-02  1.5000000000000000e+00 -8.7522360620014589e-02 1.6557694367542050e-02  0.0000000000000000e+00 0.0000000000000000e+00 0.0000000000000000e+00  6.9928264356565850e-02 5.3844675212175591e-02 9.5775303325559454e-03  1.3450545482907209e-01 8.3541082445145326e-02 8.5663260453473274e-03  1.9704733462571511e-01 9.9178790496765465e-02 8.7806867571550810e-03  2.6549595572471080e-01 1.0415996191441514e-01 9.3657073168805886e-03  3.3916416628549950e-01 1.0449249639619972e-01 9.7013678307745141e-03  4.1525584843349173e-01 1.0425534718657242e-01 9.8304405285315043e-03  4.9224999480042342e-01 1.0415734462667510e-01 9.8733031323740995e-03  5.6957769008832781e-01 1.0421127723337953e-01 9.8859433520423860e-03  6.4701641487877115e-01 1.0434480146388776e-01 9.8881208398395280e-03  7.2449545350963085e-01 1.0450011994461658e-01 9.8879962209781069e-03  8.0199441269524807e-01 1.0464594143298525e-01 9.8879908303111334e-03  8.7950910432919471e-01 1.0477015233283458e-01 9.8884769558963172e-03  9.5703838816483933e-01 1.0487077576745781e-01 9.8892771346663511e-03  1.0345808925753532e+00 1.0494996975871751e-01 9.8901681080028735e-03  1.1121346816087851e+00 1.0501099150859093e-01 9.8910026705782833e-03  1.1896975771676892e+00 1.0505692128998867e-01 9.8917074443012863e-03  1.2672674401833903e+00 1.0509025001533982e-01 9.8922549482363953e-03  1.3448422979183103e+00 1.0511282181902000e-01 9.8926408722535310e-03  1.4224203727023168e+00 1.0512587986810344e-01 9.8928670407240765e-03  1.5000000000000000e+00 1.0513017501663788e-01 9.8929480982633614e-03  0.0000000000000000e+00 0.0000000000000000e+00 0.0000000000000000e+00  4.5259946834903524e-02 2.4893505621167017e-02 9.8662024151952490e-03  1.1522850264522592e-01 5.6124788756852270e-02 9.8473663625201751e-03  1.8629793507958103e-01 7.0309330337879186e-02 9.5791753155333430e-03  2.6125507684424559e-01 7.3397712361557385e-02 9.7513180905289300e-03  3.3777456040205184e-01 7.2890249302956359e-02 9.8122709568505186e-03  4.1473748626578766e-01 7.2371304430772249e-02 9.8638727508440580e-03  4.9199613329144015e-01 7.2155840699418369e-02 9.8982345001701316e-03  5.6939176878459796e-01 7.2166600595033562e-02 9.9144138555789883e-03  6.4685356336506528e-01 7.2284085190222933e-02 9.9217939395858084e-03  7.2435044099383306e-01 7.2431199287239664e-02 9.9254242492676070e-03  8.0186973528197969e-01 7.2570752575325581e-02 9.9274269830902009e-03  8.7940579520208140e-01 7.2689349994917676e-02 9.9287829920469400e-03  9.5695526165997025e-01 7.2784975357070930e-02 9.9298367723826605e-03  1.0345155791827190e+00 7.2859923927666034e-02 9.9306996882828954e-03  1.1120845578653493e+00 7.2917506211576777e-02 9.9314031135065012e-03  1.1896602793685900e+00 7.2960770224342913e-02 9.9319589143116536e-03  1.2672410692004401e+00 7.2992134970899555e-02 9.9323764747353063e-03  1.3448254650970601e+00 7.3013366807770916e-02 9.9326652530453419e-03  1.4224121690480984e+00 7.3025653995777359e-02 9.9328342637940662e-03  1.5000000000000000e+00 7.3029680778860309e-02 9.9328864164704225e-03  0.0000000000000000e+00 0.0000000000000000e+00 0.0000000000000000e+00  3.0570236521634105e-02 7.0144662547364971e-03 9.4461535894336448e-03  9.7758306061860964e-02 2.9042537933719793e-02 1.1204638175248168e-02  1.7537584294666420e-01 3.8770092934934816e-02 1.0290123036989323e-02  2.5578061624324433e-01 4.0361079653261543e-02 1.0064038512958701e-02  3.3506088174976995e-01 4.0256343076269741e-02 9.9418353108368714e-03  4.1350088740889634e-01 4.0010234099450301e-02 9.9341966404200739e-03  4.9139020564407437e-01 3.9957972506017396e-02 9.9415650599939780e-03  5.6904164526426915e-01 4.0046456119652532e-02 9.9518971561437797e-03  6.4660958854609119e-01 4.0193918613057225e-02 9.9598634854081349e-03  7.2415951368862519e-01 4.0348300404870127e-02 9.9648892967993830e-03  8.0171430033368130e-01 4.0486220285774456e-02 9.9678664427175628e-03  8.7927925748987368e-01 4.0600688791603029e-02 9.9696466794156873e-03  9.5685370503681288e-01 4.0692172051035383e-02 9.9707590805880649e-03  1.0344355904771807e+00 4.0763701986935408e-02 9.9714982774266048e-03  1.1120229715787833e+00 4.0818666823712470e-02 9.9720145059815600e-03  1.1896143306337468e+00 4.0860002403828893e-02 9.9723834142061325e-03  1.2672085244380438e+00 4.0889996682748175e-02 9.9726440109707288e-03  1.3448046677418386e+00 4.0910315072076354e-02 9.9728178516469198e-03  1.4224020373961634e+00 4.0922077968362794e-02 9.9729162676549313e-03  1.5000000000000000e+00 4.0925932798562367e-02 9.9729480646963044e-03  0.0000000000000000e+00 0.0000000000000000e+00 0.0000000000000000e+00  2.8482303613944552e-02 1.3836143984076975e-03 8.4446085573820235e-03  8.7701240560689842e-02 3.4020892212801965e-03 1.2200056478150489e-02  1.6942528691414377e-01 5.4361646288641260e-03 1.0869824715471510e-02  2.5238979805485129e-01 6.1993572425981238e-03 1.0262579986273683e-02  3.3331029472264695e-01 6.7241901789556165e-03 1.0046592328174625e-02  4.1252804372029200e-01 7.1771434256239029e-03 9.9947511899372184e-03  4.9080185534747756e-01 7.5412963378694705e-03 9.9885259540399562e-03  5.6864487194307922e-01 7.8311750552012335e-03 9.9959226932428927e-03  6.4631645367297741e-01 8.0609765530586276e-03 1.0002979677462153e-02  7.2393155635686401e-01 8.2430321034136621e-03 1.0007668291225054e-02  8.0153347844322831e-01 8.3870397800848429e-03 1.0010324387138702e-02  8.7913551990020833e-01 8.5006366986931110e-03 1.0011705705444532e-02  9.5674021292188027e-01 8.5898415164300419e-03 1.0012394365212392e-02  1.0343470552852421e+00 8.6593789494916352e-03 1.0012734938749308e-02  1.1119551457341612e+00 8.7129323542163781e-03 1.0012907427610138e-02  1.1895638432003635e+00 8.7533390690604125e-03 1.0012998815730215e-02  1.2671727969291564e+00 8.7827403199530040e-03 1.0013049175019465e-02  1.3447818435537231e+00 8.8026943967695649e-03 1.0013076695964530e-02  1.4223909182636636e+00 8.8142590231008126e-03 1.0013089653875238e-02  1.5000000000000000e+00 8.8180472123296320e-03 1.0013092222571535e-02  0.0000000000000000e+00 0.0000000000000000e+00 0.0000000000000000e+00  3.0140260490907435e-02 -4.7588386980392458e-03 9.3327691773070348e-03  9.2476572443915328e-02 -2.0246609398952470e-02 1.1705558926855611e-02  1.7220194683191206e-01 -2.7952588882178785e-02 1.0552525458844084e-02  2.5357231273630987e-01 -2.8266521559756716e-02 1.0173275598261731e-02  3.3353959374430103e-01 -2.6907245030861698e-02 1.0053092673291495e-02  4.1230091307249622e-01 -2.5714761369794645e-02 1.0032509095971665e-02  4.9044049250725458e-01 -2.4918671244844912e-02 1.0038316454003294e-02  5.6828866650666099e-01 -2.4418939984124078e-02 1.0046699434848396e-02  6.4601275165193317e-01 -2.4099830847505724e-02 1.0051875402913853e-02  7.2368709351029503e-01 -2.3884494878513858e-02 1.0054363961279636e-02  8.0134115052002863e-01 -2.3729939959500970e-02 1.0055148115550907e-02  8.7898553848576255e-01 -2.3613688153879896e-02 1.0055124432621009e-02  9.5662382266951007e-01 -2.3523991918252132e-02 1.0054795842865841e-02  1.0342573477492256e+00 -2.3454289005816118e-02 1.0054404871646676e-02  1.1118869161746037e+00 -2.3400486169416302e-02 1.0054050106161215e-02  1.1895132492081748e+00 -2.3359755809487983e-02 1.0053762516489132e-02  1.2671370587198065e+00 -2.3330036541887852e-02 1.0053545967526433e-02  1.3447590293543461e+00 -2.3309828763635115e-02 1.0053396585285540e-02  1.4223798071521609e+00 -2.3298105401961467e-02 1.0053308421025206e-02  1.5000000000000000e+00 -2.3294266175728266e-02 1.0053277260055202e-02  0.0000000000000000e+00 0.0000000000000000e+00 0.0000000000000000e+00  3.9895734550548761e-02 -1.6757862297169173e-02 1.0504108240191415e-02  1.0977586804521119e-01 -4.7731435021079703e-02 1.0161875212537837e-02  1.8141095568635540e-01 -6.0478623632965814e-02 9.6793427064437859e-03  2.5774588484975702e-01 -6.1505306973118332e-02 9.9136893172680346e-03  3.3492776650314637e-01 -5.9735909209408425e-02 1.0013458379116290e-02  4.1245977217522600e-01 -5.8230551356475306e-02 1.0068886070239761e-02  4.9018485846918042e-01 -5.7243636086540005e-02 1.0096850804789238e-02  5.6795418163654710e-01 -5.6640117180624172e-02 1.0105465566661540e-02  6.4571391767332875e-01 -5.6270415978494491e-02 1.0106290919851931e-02  7.2344811918553109e-01 -5.6031437929001615e-02 1.0104259316996593e-02  8.0115691937095068e-01 -5.5865595939575463e-02 1.0101692163802651e-02  8.7884467133432376e-01 -5.5743313479848199e-02 1.0099419388049679e-02  9.5651607477486145e-01 -5.5649801312359790e-02 1.0097626082592185e-02  1.0341750436244586e+00 -5.5577324199343969e-02 1.0096275775380944e-02  1.1118246205428532e+00 -5.5521374208201232e-02 1.0095279240362198e-02  1.1894671607410290e+00 -5.5478979197803459e-02 1.0094554895673749e-02  1.2671045324102743e+00 -5.5448016464116456e-02 1.0094042169708035e-02  1.3447382713014362e+00 -5.5426948363182224e-02 1.0093700846912619e-02  1.4223696989970362e+00 -5.5414719651442387e-02 1.0093502082022029e-02  1.5000000000000000e+00 -5.5410715583687736e-02 1.0093435528559977e-02  0.0000000000000000e+00 0.0000000000000000e+00 0.0000000000000000e+00  6.6493982103664098e-02 -4.5086987439224062e-02 9.5275414984901819e-03  1.2911545264227578e-01 -7.5756604521891369e-02 8.4757670886358299e-03  1.9109843622612682e-01 -8.9442909868825610e-02 8.7912750648064565e-03  2.6047894625424489e-01 -9.2683810588640281e-02 9.7712774335465633e-03  3.3515438809003745e-01 -9.1581151221812637e-02 1.0012546623997642e-02  4.1210244887321273e-01 -9.0342895438369084e-02 1.0142543636316677e-02  4.8974405037956703e-01 -8.9433597310301566e-02 1.0172647323968807e-02  5.6758785513216914e-01 -8.8836995310747124e-02 1.0172691193788724e-02  6.4543845018033197e-01 -8.8452751898204007