<?xml version="1.0"?>
<VTKFile type="UnstructuredGrid"  version="0.1"  >
<UnstructuredGrid>
<Piece  NumberOfPoints="2976" NumberOfCells="13500">
<Points>
<DataArray  type="Float64"  NumberOfComponents="3"  format="ascii">0 0 0  0.3333333333333333 0 0  0.6666666666666666 0 0  1 0 0  1.333333333333333 0 0  1.666666666666667 0 0  2 0 0  2.333333333333333 0 0  2.666666666666667 0 0  3 0 0  3.333333333333333 0 0  3.666666666666667 0 0  4 0 0  4.333333333333333 0 0  4.666666666666667 0 0  5 0 0  5.333333333333333 0 0  5.666666666666667 0 0  6 0 0  6.333333333333333 0 0  6.666666666666667 0 0  7 0 0  7.333333333333333 0 0  7.666666666666667 0 0  8 0 0  8.333333333333334 0 0  8.666666666666666 0 0  9 0 0  9.333333333333334 0 0  9.666666666666666 0 0  10 0 0  0 0.2 0  0.3333333333333333 0.2 0  0.6666666666666666 0.2 0  1 0.2 0  1.333333333333333 0.2 0  1.666666666666667 0.2 0  2 0.2 0  2.333333333333333 0.2 0  2.666666666666667 0.2 0  3 0.2 0  3.333333333333333 0.2 0  3.666666666666667 0.2 0  4 0.2 0  4.333333333333333 0.2 0  4.666666666666667 0.2 0  5 0.2 0  5.333333333333333 0.2 0  5.666666666666667 0.2 0  6 0.2 0  6.333333333333333 0.2 0  6.666666666666667 0.2 0  7 0.2 0  7.333333333333333 0.2 0  7.666666666666667 0.2 0  8 0.2 0  8.333333333333334 0.2 0  8.666666666666666 0.2 0  9 0.2 0  9.333333333333334 0.2 0  9.666666666666666 0.2 0  10 0.2 0  0 0.4 0  0.3333333333333333 0.4 0  0.6666666666666666 0.4 0  1 0.4 0  1.333333333333333 0.4 0  1.666666666666667 0.4 0  2 0.4 0  2.333333333333333 0.4 0  2.666666666666667 0.4 0  3 0.4 0  3.333333333333333 0.4 0  3.666666666666667 0.4 0  4 0.4 0  4.333333333333333 0.4 0  4.666666666666667 0.4 0  5 0.4 0  5.333333333333333 0.4 0  5.666666666666667 0.4 0  6 0.4 0  6.333333333333333 0.4 0  6.666666666666667 0.4 0  7 0.4 0  7.333333333333333 0.4 0  7.666666666666667 0.4 0  8 0.4 0  8.333333333333334 0.4 0  8.666666666666666 0.4 0  9 0.4 0  9.333333333333334 0.4 0  9.666666666666666 0.4 0  10 0.4 0  0 0.6 0  0.3333333333333333 0.6 0  0.6666666666666666 0.6 0  1 0.6 0  1.333333333333333 0.6 0  1.666666666666667 0.6 0  2 0.6 0  2.333333333333333 0.6 0  2.666666666666667 0.6 0  3 0.6 0  3.333333333333333 0.6 0  3.666666666666667 0.6 0  4 0.6 0  4.333333333333333 0.6 0  4.666666666666667 0.6 0  5 0.6 0  5.333333333333333 0.6 0  5.666666666666667 0.6 0  6 0.6 0  6.333333333333333 0.6 0  6.666666666666667 0.6 0  7 0.6 0  7.333333333333333 0.6 0  7.666666666666667 0.6 0  8 0.6 0  8.333333333333334 0.6 0  8.666666666666666 0.6 0  9 0.6 0  9.333333333333334 0.6 0  9.666666666666666 0.6 0  10 0.6 0  0 0.8 0  0.3333333333333333 0.8 0  0.6666666666666666 0.8 0  1 0.8 0  1.333333333333333 0.8 0  1.666666666666667 0.8 0  2 0.8 0  2.333333333333333 0.8 0  2.666666666666667 0.8 0  3 0.8 0  3.333333333333333 0.8 0  3.666666666666667 0.8 0  4 0.8 0  4.333333333333333 0.8 0  4.666666666666667 0.8 0  5 0.8 0  5.333333333333333 0.8 0  5.666666666666667 0.8 0  6 0.8 0  6.333333333333333 0.8 0  6.666666666666667 0.8 0  7 0.8 0  7.333333333333333 0.8 0  7.666666666666667 0.8 0  8 0.8 0  8.333333333333334 0.8 0  8.666666666666666 0.8 0  9 0.8 0  9.333333333333334 0.8 0  9.666666666666666 0.8 0  10 0.8 0  0 1 0  0.3333333333333333 1 0  0.6666666666666666 1 0  1 1 0  1.333333333333333 1 0  1.666666666666667 1 0  2 1 0  2.333333333333333 1 0  2.666666666666667 1 0  3 1 0  3.333333333333333 1 0  3.666666666666667 1 0  4 1 0  4.333333333333333 1 0  4.666666666666667 1 0  5 1 0  5.333333333333333 1 0  5.666666666666667 1 0  6 1 0  6.333333333333333 1 0  6.666666666666667 1 0  7 1 0  7.333333333333333 1 0  7.666666666666667 1 0  8 1 0  8.333333333333334 1 0  8.666666666666666 1 0  9 1 0  9.333333333333334 1 0  9.666666666666666 1 0  10 1 0  0 1.2 0  0.3333333333333333 1.2 0  0.6666666666666666 1.2 0  1 1.2 0  1.333333333333333 1.2 0  1.666666666666667 1.2 0  2 1.2 0  2.333333333333333 1.2 0  2.666666666666667 1.2 0  3 1.2 0  3.333333333333333 1.2 0  3.666666666666667 1.2 0  4 1.2 0  4.333333333333333 1.2 0  4.666666666666667 1.2 0  5 1.2 0  5.333333333333333 1.2 0  5.666666666666667 1.2 0  6 1.2 0  6.333333333333333 1.2 0  6.666666666666667 1.2 0  7 1.2 0  7.333333333333333 1.2 0  7.666666666666667 1.2 0  8 1.2 0  8.333333333333334 1.2 0  8.666666666666666 1.2 0  9 1.2 0  9.333333333333334 1.2 0  9.666666666666666 1.2 0  10 1.2 0  0 1.4 0  0.3333333333333333 1.4 0  0.6666666666666666 1.4 0  1 1.4 0  1.333333333333333 1.4 0  1.666666666666667 1.4 0  2 1.4 0  2.333333333333333 1.4 0  2.666666666666667 1.4 0  3 1.4 0  3.333333333333333 1.4 0  3.666666666666667 1.4 0  4 1.4 0  4.333333333333333 1.4 0  4.666666666666667 1.4 0  5 1.4 0  5.333333333333333 1.4 0  5.666666666666667 1.4 0  6 1.4 0  6.333333333333333 1.4 0  6.666666666666667 1.4 0  7 1.4 0  7.333333333333333 1.4 0  7.666666666666667 1.4 0  8 1.4 0  8.333333333333334 1.4 0  8.666666666666666 1.4 0  9 1.4 0  9.333333333333334 1.4 0  9.666666666666666 1.4 0  10 1.4 0  0 1.6 0  0.3333333333333333 1.6 0  0.6666666666666666 1.6 0  1 1.6 0  1.333333333333333 1.6 0  1.666666666666667 1.6 0  2 1.6 0  2.333333333333333 1.6 0  2.666666666666667 1.6 0  3 1.6 0  3.333333333333333 1.6 0  3.666666666666667 1.6 0  4 1.6 0  4.333333333333333 1.6 0  4.666666666666667 1.6 0  5 1.6 0  5.333333333333333 1.6 0  5.666666666666667 1.6 0  6 1.6 0  6.333333333333333 1.6 0  6.666666666666667 1.6 0  7 1.6 0  7.333333333333333 1.6 0  7.666666666666667 1.6 0  8 1.6 0  8.333333333333334 1.6 0  8.666666666666666 1.6 0  9 1.6 0  9.333333333333334 1.6 0  9.666666666666666 1.6 0  10 1.6 0  0 1.8 0  0.3333333333333333 1.8 0  0.6666666666666666 1.8 0  1 1.8 0  1.333333333333333 1.8 0  1.666666666666667 1.8 0  2 1.8 0  2.333333333333333 1.8 0  2.666666666666667 1.8 0  3 1.8 0  3.333333333333333 1.8 0  3.666666666666667 1.8 0  4 1.8 0  4.333333333333333 1.8 0  4.666666666666667 1.8 0  5 1.8 0  5.333333333333333 1.8 0  5.666666666666667 1.8 0  6 1.8 0  6.333333333333333 1.8 0  6.666666666666667 1.8 0  7 1.8 0  7.333333333333333 1.8 0  7.666666666666667 1.8 0  8 1.8 0  8.333333333333334 1.8 0  8.666666666666666 1.8 0  9 1.8 0  9.333333333333334 1.8 0  9.666666666666666 1.8 0  10 1.8 0  0 2 0  0.3333333333333333 2 0  0.6666666666666666 2 0  1 2 0  1.333333333333333 2 0  1.666666666666667 2 0  2 2 0  2.333333333333333 2 0  2.666666666666667 2 0  3 2 0  3.333333333333333 2 0  3.666666666666667 2 0  4 2 0  4.333333333333333 2 0  4.666666666666667 2 0  5 2 0  5.333333333333333 2 0  5.666666666666667 2 0  6 2 0  6.333333333333333 2 0  6.666666666666667 2 0  7 2 0  7.333333333333333 2 0  7.666666666666667 2 0  8 2 0  8.333333333333334 2 0  8.666666666666666 2 0  9 2 0  9.333333333333334 2 0  9.666666666666666 2 0  10 2 0  0 2.2 0  0.3333333333333333 2.2 0  0.6666666666666666 2.2 0  1 2.2 0  1.333333333333333 2.2 0  1.666666666666667 2.2 0  2 2.2 0  2.333333333333333 2.2 0  2.666666666666667 2.2 0  3 2.2 0  3.333333333333333 2.2 0  3.666666666666667 2.2 0  4 2.2 0  4.333333333333333 2.2 0  4.666666666666667 2.2 0  5 2.2 0  5.333333333333333 2.2 0  5.666666666666667 2.2 0  6 2.2 0  6.333333333333333 2.2 0  6.666666666666667 2.2 0  7 2.2 0  7.333333333333333 2.2 0  7.666666666666667 2.2 0  8 2.2 0  8.333333333333334 2.2 0  8.666666666666666 2.2 0  9 2.2 0  9.333333333333334 2.2 0  9.666666666666666 2.2 0  10 2.2 0  0 2.4 0  0.3333333333333333 2.4 0  0.6666666666666666 2.4 0  1 2.4 0  1.333333333333333 2.4 0  1.666666666666667 2.4 0  2 2.4 0  2.333333333333333 2.4 0  2.666666666666667 2.4 0  3 2.4 0  3.333333333333333 2.4 0  3.666666666666667 2.4 0  4 2.4 0  4.333333333333333 2.4 0  4.666666666666667 2.4 0  5 2.4 0  5.333333333333333 2.4 0  5.666666666666667 2.4 0  6 2.4 0  6.333333333333333 2.4 0  6.666666666666667 2.4 0  7 2.4 0  7.333333333333333 2.4 0  7.666666666666667 2.4 0  8 2.4 0  8.333333333333334 2.4 0  8.666666666666666 2.4 0  9 2.4 0  9.333333333333334 2.4 0  9.666666666666666 2.4 0  10 2.4 0  0 2.6 0  0.3333333333333333 2.6 0  0.6666666666666666 2.6 0  1 2.6 0  1.333333333333333 2.6 0  1.666666666666667 2.6 0  2 2.6 0  2.333333333333333 2.6 0  2.666666666666667 2.6 0  3 2.6 0  3.333333333333333 2.6 0  3.666666666666667 2.6 0  4 2.6 0  4.333333333333333 2.6 0  4.666666666666667 2.6 0  5 2.6 0  5.333333333333333 2.6 0  5.666666666666667 2.6 0  6 2.6 0  6.333333333333333 2.6 0  6.666666666666667 2.6 0  7 2.6 0  7.333333333333333 2.6 0  7.666666666666667 2.6 0  8 2.6 0  8.333333333333334 2.6 0  8.666666666666666 2.6 0  9 2.6 0  9.333333333333334 2.6 0  9.666666666666666 2.6 0  10 2.6 0  0 2.8 0  0.3333333333333333 2.8 0  0.6666666666666666 2.8 0  1 2.8 0  1.333333333333333 2.8 0  1.666666666666667 2.8 0  2 2.8 0  2.333333333333333 2.8 0  2.666666666666667 2.8 0  3 2.8 0  3.333333333333333 2.8 0  3.666666666666667 2.8 0  4 2.8 0  4.333333333333333 2.8 0  4.666666666666667 2.8 0  5 2.8 0  5.333333333333333 2.8 0  5.666666666666667 2.8 0  6 2.8 0  6.333333333333333 2.8 0  6.666666666666667 2.8 0  7 2.8 0  7.333333333333333 2.8 0  7.666666666666667 2.8 0  8 2.8 0  8.333333333333334 2.8 0  8.666666666666666 2.8 0  9 2.8 0  9.333333333333334 2.8 0  9.666666666666666 2.8 0  10 2.8 0  0 3 0  0.3333333333333333 3 0  0.6666666666666666 3 0  1 3 0  1.333333333333333 3 0  1.666666666666667 3 0  2 3 0  2.333333333333333 3 0  2.666666666666667 3 0  3 3 0  3.333333333333333 3 0  3.666666666666667 3 0  4 3 0  4.333333333333333 3 0  4.666666666666667 3 0  5 3 0  5.333333333333333 3 0  5.666666666666667 3 0  6 3 0  6.333333333333333 3 0  6.666666666666667 3 0  7 3 0  7.333333333333333 3 0  7.666666666666667 3 0  8 3 0  8.333333333333334 3 0  8.666666666666666 3 0  9 3 0  9.333333333333334 3 0  9.666666666666666 3 0  10 3 0  0 0 0.1  0.3333333333333333 0 0.1  0.6666666666666666 0 0.1  1 0 0.1  1.333333333333333 0 0.1  1.666666666666667 0 0.1  2 0 0.1  2.333333333333333 0 0.1  2.666666666666667 0 0.1  3 0 0.1  3.333333333333333 0 0.1  3.666666666666667 0 0.1  4 0 0.1  4.333333333333333 0 0.1  4.666666666666667 0 0.1  5 0 0.1  5.333333333333333 0 0.1  5.666666666666667 0 0.1  6 0 0.1  6.333333333333333 0 0.1  6.666
[...]
<PointData  Vectors="f_7-0"> 
<DataArray  type="Float64"  Name="f_7-0"  NumberOfComponents="3" format="ascii">0.0000000000000000e+00 0.0000000000000000e+00 0.0000000000000000e+00  7.4606053472785636e-02 9.5614706992643239e-02 -1.1211395119799983e-02  1.4640291965261765e-01 1.7704206060884597e-01 -2.2634573855508573e-03  2.1503185910113293e-01 2.4945394089420700e-01 -1.6523922081971263e-03  2.8245237491585612e-01 3.1862342939108562e-01 -1.9993374524551995e-03  3.4862936780154286e-01 3.8552828515580040e-01 -2.2036387652599565e-03  4.1308940960647572e-01 4.5086104339501093e-01 -3.4689816710779999e-03  4.8204977772702712e-01 5.0872456697915247e-01 -6.9201760550862803e-03  5.6581756455714793e-01 5.4812165360297693e-01 -1.4625228344093326e-02  6.6559693033481593e-01 5.6439517415516394e-01 -2.4514197214575786e-02  7.7505090443617819e-01 5.6450578712684307e-01 -3.1657791724155906e-02  8.8817919346222163e-01 5.5853422519964691e-01 -3.4462682522805252e-02  1.0018933429911061e+00 5.5223125585797506e-01 -3.4507096795618294e-02  1.1151461199971062e+00 5.4740716703091186e-01 -3.3591181731533033e-02  1.2276581768801584e+00 5.4437195091011503e-01 -3.2547772938099399e-02  1.3394025512843664e+00 5.4296701719804519e-01 -3.1638753740226733e-02  1.4504986093790690e+00 5.4280468228363110e-01 -3.0962470601664800e-02  1.5611581563766868e+00 5.4339068907349608e-01 -3.0555402939918059e-02  1.6716100855633158e+00 5.4426230321094105e-01 -3.0391409477617860e-02  1.7820307772507906e+00 5.4509695975846773e-01 -3.0395275577361630e-02  1.8925171379175676e+00 5.4573809240087023e-01 -3.0480977795876760e-02  2.0031002527271253e+00 5.4615353500673314e-01 -3.0583783053245703e-02  2.1137727926958489e+00 5.4637752596790312e-01 -3.0669166193325686e-02  2.2245112952166419e+00 5.4646752118429309e-01 -3.0725608038672515e-02  2.3352894799594894e+00 5.4647980502644944e-01 -3.0754265911126500e-02  2.4460850679756247e+00 5.4645807813815817e-01 -3.0761750228658704e-02  2.5568825990514790e+00 5.4642998966854806e-01 -3.0756132246973357e-02  2.6676736821287612e+00 5.4640862151734437e-01 -3.0744789544051257e-02  2.7784557108448231e+00 5.4639676439968676e-01 -3.0733284030986324e-02  2.8892299906316792e+00 5.4639202533141618e-01 -3.0725249571384894e-02  2.9999999999999996e+00 5.4639105738942895e-01 -3.0722714694028302e-02  0.0000000000000000e+00 0.0000000000000000e+00 0.0000000000000000e+00  3.9101030539106331e-02 3.7525812470951048e-02 -7.9096926267185896e-03  1.1642594381262000e-01 1.3174134963075837e-01 -4.0161239299783017e-03  1.8698464746895807e-01 2.0793093297398141e-01 -3.2629519671916003e-03  2.5507418466930160e-01 2.7814873367770881e-01 -2.5821702211141473e-03  3.2135881278132888e-01 3.4657751153335631e-01 -3.1055372856365719e-03  3.8795910333076467e-01 4.1135384661995478e-01 -4.7485281940521937e-03  4.6491276578796664e-01 4.6235552529842466e-01 -1.0167840497781119e-02  5.5858608828007206e-01 4.9025641903861011e-01 -1.9666107618720719e-02  6.6476995550451212e-01 4.9719394795375094e-01 -2.8815391775993477e-02  7.7670270074045766e-01 4.9301012698189467e-01 -3.3541633058558534e-02  8.9013308872744412e-01 4.8612279634623728e-01 -3.4357269268672476e-02  1.0034493431430107e+00 4.8016778154931911e-01 -3.3676005523535169e-02  1.1161750351830046e+00 4.7604644045377797e-01 -3.2758879319020669e-02  1.2281835866970239e+00 4.7377334478260907e-01 -3.1897431012630553e-02  1.3395218070359929e+00 4.7303347195176665e-01 -3.1188384558542972e-02  1.4503541614500011e+00 4.7333976060813304e-01 -3.0705479740921870e-02  1.5608970209686603e+00 4.7416952773415094e-01 -3.0467463620332581e-02  1.6713435572925217e+00 4.7510164724665793e-01 -3.0424679759195536e-02  1.7818180587080170e+00 4.7588859095794017e-01 -3.0492868396405772e-02  1.8923746407633124e+00 4.7644099197660139e-01 -3.0597563098909236e-02  2.0030201265637144e+00 4.7676849760745110e-01 -3.0694370075864501e-02  2.1137378531801860e+00 4.7692453411056290e-01 -3.0765310614744457e-02  2.2245036417246009e+00 4.7697151594094095e-01 -3.0807810432435388e-02  2.3352946247890380e+00 4.7696307090256679e-01 -3.0826450202978181e-02  2.4460934044102358e+00 4.7693681671306576e-01 -3.0828480839212226e-02  2.5568892271026282e+00 4.7691361583493619e-01 -3.0821321701228931e-02  2.6676772595822289e+00 4.7690078021595139e-01 -3.0811034239570274e-02  2.7784569175312908e+00 4.7689709251958357e-01 -3.0801677959411133e-02  2.8892301204933055e+00 4.7689780878127214e-01 -3.0795515572713827e-02  2.9999999999999996e+00 4.7689862987336612e-01 -3.0793338598253908e-02  0.0000000000000000e+00 0.0000000000000000e+00 0.0000000000000000e+00  1.6432837191881225e-02 6.6853822729570382e-03 8.0437979503721023e-03  8.5515303457148500e-02 8.4830117018413406e-02 -1.1608494781362663e-02  1.5819986012877577e-01 1.6465393819498850e-01 -2.9342076602374687e-03  2.2731808141533727e-01 2.3725106299343229e-01 -3.5298000598896376e-03  2.9412621841003400e-01 3.0655507795747405e-01 -3.6900887837373209e-03  3.6539447207615344e-01 3.6803072089354222e-01 -6.8603144141339651e-03  4.5226362615440252e-01 4.0925034220189255e-01 -1.5232251158055739e-02  5.5453800558233091e-01 4.2639220596393768e-01 -2.5914732757864281e-02  6.6529685288445550e-01 4.2691928780584631e-01 -3.3115771523755673e-02  7.7864749386129395e-01 4.2083799099218150e-01 -3.4859969227386635e-02  8.9201946097949381e-01 4.1401429958128605e-01 -3.3940729860581317e-02  1.0048479591284198e+00 4.0862540451649149e-01 -3.2854176987895146e-02  1.1170217604329129e+00 4.0520313993280371e-01 -3.2024821550122096e-02  1.2285392113592897e+00 4.0360503692059652e-01 -3.1341091053308560e-02  1.3395131472055892e+00 4.0339541941590779e-01 -3.0822569054188894e-02  1.4501371644592471e+00 4.0402413327462616e-01 -3.0528278727174625e-02  1.5606125550997842e+00 4.0497888793763348e-01 -3.0449197757914884e-02  1.6710848011048720e+00 4.0590150829081639e-01 -3.0509538680509166e-02  1.7816261411351144e+00 4.0661554681900586e-01 -3.0622767342473795e-02  1.8922541832399760e+00 4.0708191543359834e-01 -3.0732329844255824e-02  2.0029576422661299e+00 4.0733633640527772e-01 -3.0815195422103436e-02  2.1137144569752602e+00 4.0744169762913468e-01 -3.0867848889503328e-02  2.2245018499763645e+00 4.0746049054726902e-01 -3.0894620533696394e-02  2.3353013567311729e+00 4.0744170927203432e-01 -3.0902466765844450e-02  2.4461007308173439e+00 4.0741667851307872e-01 -3.0898827133736997e-02  2.5568937290795581e+00 4.0740035728642493e-01 -3.0890178981076797e-02  2.6676786456694734e+00 4.0739568116213210e-01 -3.0881069321843223e-02  2.7784564828622900e+00 4.0739882016333867e-01 -3.0873932309367760e-02  2.8892294490584889e+00 4.0740382127171554e-01 -3.0869581054611732e-02  2.9999999999999996e+00 4.0740604053486418e-01 -3.0868127926290241e-02  0.0000000000000000e+00 0.0000000000000000e+00 0.0000000000000000e+00  1.3955873151373701e-02 2.1953647351754496e-03 1.1509903966209309e-02  5.3816249815482151e-02 3.4637625856538408e-02 8.2479572794802157e-05  1.2894142249415069e-01 1.2066554760095211e-01 -8.1906216204783618e-03  1.9908272206530139e-01 1.9559261271536799e-01 -3.9492068234673822e-03  2.6759271744159330e-01 2.6487784415771248e-01 -4.7972974717002586e-03  3.4693707042882332e-01 3.1931373782779648e-01 -1.0819156782401430e-02  4.4387278461937912e-01 3.4912447737365726e-01 -2.1819482637238541e-02  5.5287512497880953e-01 3.5745892694077458e-01 -3.2044863715140329e-02  6.6655039528795157e-01 3.5455143644428527e-01 -3.6216861292019321e-02  7.8055620938126347e-01 3.4835408147642793e-01 -3.5366680284000487e-02  8.9373382889846553e-01 3.4224489418171472e-01 -3.3452591154016276e-02  1.0060687456024471e+00 3.3760595860432757e-01 -3.2159391294892488e-02  1.1176960896893686e+00 3.3487421926484373e-01 -3.1381291591674187e-02  1.2287505594548629e+00 3.3384871051256926e-01 -3.0851228883960590e-02  1.3394093718704922e+00 3.3402265090517141e-01 -3.0521865287944320e-02  1.4498786153061034e+00 3.3482724411374265e-01 -3.0412301361476015e-02  1.5603264809813593e+00 3.3579813225400612e-01 -3.0476114316059066e-02  1.6708443992329527e+00 3.3665325689814563e-01 -3.0618452112174160e-02  1.7814573025076477e+00 3.3727732576171532e-01 -3.0760699763234152e-02  1.8921536634109282e+00 3.3766408974141837e-01 -3.0867329595145671e-02  2.0029091865883895e+00 3.3786134079044500e-01 -3.0934033533018407e-02  2.1136990665113760e+00 3.3793305826826636e-01 -3.0968520254746983e-02  2.2245031885877267e+00 3.3793761961313429e-01 -3.0980373047343201e-02  2.3353079725665058e+00 3.3791781540505389e-01 -3.0978386673469235e-02  2.4461062802896465e+00 3.3789876169637600e-01 -3.0969967792673758e-02  2.5568960064797639e+00 3.3789057420235591e-01 -3.0960479999740297e-02  2.6676780914518456e+00 3.3789324014884042e-01 -3.0952874344661870e-02  2.7784547157173245e+00 3.3790166017392376e-01 -3.0947988165989662e-02  2.8892280948921565e+00 3.3790970986796393e-01 -3.0945449798575986e-02  2.9999999999999996e+00 3.3791293176445142e-01 -3.0944653703930302e-02  0.0000000000000000e+00 0.0000000000000000e+00 0.0000000000000000e+00  1.7246568433990462e-02 4.3456517692951006e-03 9.1715916479433515e-03  3.6585265099087230e-02 1.1230635782251542e-02 1.0765103772850162e-02  9.7828902756959490e-02 7.2353162303710791e-02 -5.5000608016659517e-03  1.7039328676376755e-01 1.5307683511139192e-01 -4.8658464540511709e-03  2.4357884214196537e-01 2.1995531704800636e-01 -7.6243038475902183e-03  3.3332530810461020e-01 2.6378398243346585e-01 -1.6877015410085607e-02  4.3901919277218382e-01 2.8249104138852177e-01 -2.9217566349168906e-02  5.5270778676358001e-01 2.8484166539375672e-01 -3.6992772675606203e-02  6.6792905035719063e-01 2.8101160622513899e-01 -3.7771601555461075e-02  7.8219545770671639e-01 2.7574498253964547e-01 -3.5359774355694124e-02  8.9518096017650028e-01 2.7077366917505080e-01 -3.3094042645570025e-02  1.0070798633028948e+00 2.6706993720309946e-01 -3.1647436753277969e-02  1.1182074763463730e+00 2.6502733146105234e-01 -3.0842418187699953e-02  1.2288479777597325e+00 2.6446310914129162e-01 -3.0429190374767226e-02  1.3392484558723450e+00 2.6486924059148254e-01 -3.0285966802565595e-02  1.4496119670782903e+00 2.6571207197402508e-01 -3.0352792469428836e-02  1.5600603715670311e+00 2.6660736614907243e-01 -3.0537217944266105e-02  1.6706319920348718e+00 2.6735155842966885e-01 -3.0738743014927405e-02  1.7813130905024412e+00 2.6787618682892494e-01 -3.0896904683319768e-02  1.8920705039890664e+00 2.6819220236737035e-01 -3.0996776989900332e-02  2.0028707953235063e+00 2.6834819108536628e-01 -3.1047965977661487e-02  2.1136878991481627e+00 2.6840233373900946e-01 -3.1066006407163765e-02  2.2245048037251549e+00 2.6840532600067862e-01 -3.1064583067171588e-02  2.3353127552951749e+00 2.6839254547569658e-01 -3.1054139725558004e-02  2.4461093383927577e+00 2.6838323793599073e-01 -3.1041964931775114e-02  2.5568960372211125e+00 2.6838385001575588e-01 -3.1032214511200487e-02  2.6676759179169376e+00 2.6839281433506124e-01 -3.1026244414618011e-02  2.7784519708325988e+00 2.6840498502141630e-01 -3.1023474973774810e-02  2.8892262857262705e+00 2.6841489487900588e-01 -3.1022581565262410e-02  2.9999999999999996e+00 2.6841865987047303e-01 -3.1022436780177343e-02  0.0000000000000000e+00 0.0000000000000000e+00 0.0000000000000000e+00  1.6897147234853437e-02 3.6698334456791836e-03 1.0082239477501812e-02  3.3844703660487668e-02 5.7346569618153672e-03 1.1366869694496771e-02  7.1901816886316333e-02 3.3729340317048322e-02 4.3310295000386096e-03  1.4193053528071331e-01 1.0926821804348458e-01 -7.5973753314661444e-03  2.2405144989923609e-01 1.6942629818596375e-01 -1.2181509186245493e-02  3.2432363090350042e-01 2.0095189588629278e-01 -2.4823107778070858e-02  4.3677420146917323e-01 2.1051569969358350e-01 -3.6187236210737543e-02  5.5318102384940082e-01 2.1005577274284193e-01 -3.9989487881508974e-02  6.6906277146577176e-01 2.0689780630136459e-01 -3.8118176175658700e-02  7.8344408279315170e-01 2.0307555539278249e-01 -3.5219236539350988e-02  8.9628124197300640e-01 1.9953105571549098e-01 -3.2910088031222896e-02  1.0078418445029371e+00 1.9693615498140415e-01 -3.1324986829649785e-02  1.1185598265673404e+00 1.9559857682243326e-01 -3.0435112509379216e-02  1.2288616393427221e+00 1.9539047432430345e-01 -3.0095051498451496e-02  1.3390675759896347e+00 1.9588441986801960e-01 -3.0120884249789426e-02  1.4493669388149473e+00 1.9664630630246491e-01 -3.0343078357434293e-02  1.5598314713011510e+00 1.9739510659123038e-01 -3.0620232437533364e-02  1.6704545221356892e+00 1.9799838002701797e-01 -3.0859750372343824e-02  1.7811940980631478e+00 1.9841922531978229e-01 -3.1024894702200146e-02  1.8920020907912936e+00 1.9867363249080686e-01 -3.1117514561131883e-02  2.0028387651295358e+00 1.9880269724604216e-01 -3.1155788738758201e-02  2.1136774827028986e+00 1.9885335397034545e-01 -3.1160195964103903e-02  2.2245041263161287e+00 1.9886559600065981e-01 -3.1147729107699817e-02  2.3353142094520427e+00 1.9886643442965143e-01 -3.1130423859936709e-02  2.4461093251175705e+00 1.9886972108099471e-01 -3.1115448511357592e-02  2.5568938440026971e+00 1.9887940111471639e-01 -3.1105774501180017e-02  2.6676724223205679e+00 1.9889361830755839e-01 -3.1101305984668957e-02  2.7784485730941593e+00 1.9890818469883667e-01 -3.1100314503215636e-02  2.8892242286638115e+00 1.9891890094155276e-01 -3.1100769694014079e-02  2.9999999999999996e+00 1.9892281539769613e-01 -3.1101126443257101e-02  0.0000000000000000e+00 0.0000000000000000e+00 0.0000000000000000e+00  1.6030867000643198e-02 2.2626317683776612e-03 9.8393625110281737e-03  3.6295822308527535e-02 5.9123031380193163e-03 9.9893803137604993e-03  5.7300280223988961e-02 1.4524545760481358e-02 1.1011859977631175e-02  1.1629416716502358e-01 6.2524774333402700e-02 -3.8959190378491317e-03  2.0990499311900027e-01 1.1186189272811094e-01 -1.8861735820308343e-02  3.1919384102118670e-01 1.3127215416831947e-01 -3.3353334856604876e-02  4.3607133325993080e-01 1.3494509117507347e-01 -4.1317350829804415e-02  5.5364777221374184e-01 1.3426862199101350e-01 -4.1034400917685142e-02  6.6979615495941625e-01 1.3249507080362710e-01 -3.7943901809529341e-02  7.8423637275598379e-01 1.3037088290553442e-01 -3.5135756783436708e-02  8.9697589111490628e-01 1.2844464427173052e-01 -3.2855492135477164e-02  1.0083138981867399e+00 1.2709260458400456e-01 -3.1169159822281460e-02  1.1187504105049542e+00 1.2648915618220297e-01 -3.0187964365697536e-02  1.2288189614573868e+00 1.2655331163082956e-01 -2.9885133591839409e-02  1.3388999247895235e+00 1.2701494255406784e-01 -3.0038445672108324e-02  1.4491674344636885e+00 1.2760506434728949e-01 -3.0375632048621499e-02  1.5596523541983069e+00 1.2815844509622379e-01 -3.0713788348909130e-02  1.6703166719735141e+00 1.2860183626403759e-01 -3.0974045614048935e-02  1.7811004466157294e+00 1.2891736911897722e-01 -3.1141146630667645e-02  1.8919461658285563e+00 1.2911791626754132e-01 -3.1227946952417249e-02  2.0028099695185602e+00 1.2923154310255489e-01 -3.1256851039024203e-02  2.1136648870964891e+00 1.2928991338351739e-01 -3.1251163959922050e-02  2.2244990151436754e+00 1.2931988841558653e-01 -3.1230423709735868e-02  2.3353111254713319e+00 1.2933936288912595e-01 -3.1208062806489342e-02  2.4461058014911652e+00 1.2935728528814089e-01 -3.1191144561248475e-02  2.5568894700933611e+00 1.2937612190702166e-01 -3.1181627604642007e-02  2.6676678561322387e+00 1.2939474770427728e-01 -3.1178277921714268e-02  2.7784447948512874e+00 1.2941066598602771e-01 -3.1178546044248804e-02  2.8892220958771198e+00 1.2942138587913135e-01 -3.1179924695215751e-02  2.9999999999999996e+00 1.2942515375736668e-01 -3.1180614138825467e-02  0.0000000000000000e+00 0.0000000000000000e+00 0.0000000000000000e+00  1.6081511472378598e-02 1.0637234709732007e-03 9.4687030513412370e-03  3.5362485667992036e-02 4.0413471433215472e-03 1.0052259265176279e-02  5.1895998122588868e-02 1.1161022987998001e-02 1.1944764213081664e-02  1.0161424842054290e-01 2.1808298814875365e-02 1.4973245477304636e-03  2.0091608289686202e-01 4.6552070941545606e-02 -2.4270775892668753e-02  3.1690082851178103e-01 5.6190015417842236e-02 -4.0402388815398996e-02  4.3588035141862003e-01 5.7683255384459016e-02 -4.3879170422827067e-02  5.5379638533815245e-01 5.8060707478312462e-02 -4.0920265888795201e-02  6.7007494213049978e-01 5.7941787499751846e-02 -3.7759492377996889e-02  7.8453763069824956e-01 5.7654844337533873e-02 -3.5124844788151310e-02  8.9722974967330127e-01 5.7446161253022571e-02 -3.2878913591152123e-02  1.0084637996723418e+00 5.7414885169071450e-02 -3.1148484621898578e-02  1.1187734607420021e+00 5.7568115877583786e-02 -3.0122168695390732e-02  1.2287402584116458e+00 5.7853318741221467e-02 -2.9835424101244096e-02  1.3387700413851829e+00 5.8207339962781282e-02 -3.0049499442527827e-02  1.4490296952990944e+00 5.8571278679103889e-02 -3.0441978256020481e-02  1.5595309743289298e+00 5.8901346545301998e-02 -3.0807982756612461e-02  1.6702212632061941e+00 5.9174411168288185e-02 -3.1076559943796347e-02  1.7810320571166296e+00 5.9384272012348222e-02 -3.1243699844040188e-02  1.8919010526826059e+00 5.9536226624903633e-02 -3.1327078658692761e-02  2.0027820903795055e+00 5.9642119585318669e-02 -3.1350575876875779e-02  2.1136479222401743e+00 5.9715766984170214e-02 -3.1338880467614821e-02  2.2244878787728277e+00 5.9769197919213132e-02 -3.1313140660503065e-02  2.3353026219613970e+00 5.9810655752144261e-02 -3.1287731911980442e-02  2.4460984552035936e+00 5.9844569168586222e-02 -3.1269633133922337e-02  2.5568829460464264e+00 5.9872662588145782e-02 -3.1260127852360042e-02  2.6676623943084175e+00 5.9895208852471730e-02 -3.1257312188293446e-02  2.7784408246776291e+00 5.9911861043549015e-02 -3.1258183055776725e-02  2.8892200027734960e+00 5.9922111158251537e-02 -3.1259985000191504e-02  2.9999999999999996e+00 5.9925563462884961e-02 -3.1260819475236512e-02  0.0000000000000000e+00 0.0000000000000000e+00 0.0000000000000000e+00  1.6524248126802400e-02 -2.6992052705045644e-04 9.0044587058794590e-03  3.1683074669440425e-02 4.5320833479854071e-03 1.0382077745154848e-02  5.2691730849125880e-02 8.1802328946533401e-03 1.1712237809298942e-02  1.0266524813872563e-01 -1.1335674237678232e-02 3.6307289228238405e-03  1.9783226777879007e-01 -2.3338000629736459e-02 -2.4325074129807729e-02  3.1621578347279883e-01 -2.1604023925992113e-02 -4.4138182639995596e-02  4.3556668224809586e-01 -2.0061562757665279e-02 -4.4082737701919075e-02  5.5354770543293597e-01 -1.8322866027733475e-02 -4.0583807229580299e-02  6.6987004795123328e-01 -1.6666845012893814e-02 -3.7707612591241467e-02  7.8433571274858660e-01 -1.5057496262791877e-02 -3.5153277854707378e-02  8.9702807205774415e-01 -1.3526250696636658e-02 -3.2949704169392705e-02  1.0082769603466333e+00 -1.2223294606854347e-02 -3.1245155083245019e-02  1.1186262586808422e+00 -1.1316832826028734e-02 -3.0248482803061170e-02  1.2286348221532044e+00 -1.0822820651708054e-02 -2.9964869534800351e-02  1.3386893816641310e+00 -1.0591555206666327e-02 -3.0159880391399805e-02  1.4489612888221752e+00 -1.0466860906844948e-02 -3.0537060167441347e-02  1.5594710856143634e+00 -1.0368170623359313e-02 -3.0897508622760611e-02  1.6701696560450496e+00 -1.0268909032131729e-02 -3.1164978073413039e-02  1.7809888458065886e+00 -1.0164785837145715e-02 -3.1331773825643769e-02  1.8918657976190283e+00 -1.0059219793633127e-02 -3.1414398655742588e-02  2.0027537800436210e+00 -9.9577029268063302e-03 -3.1436572698374486e-02  2.1136252915999862e+00 -9.8653670140521118e-03 -3.1423296065745149e-02  2.2244697688099024e+00 -9.7858269336554594e-03 -3.1396182529750530e-02  2.3352881691805503e+00 -9.7207630538479663e-03 -3.1369865639109325e-02  2.4460870821927756e+00 -9.6700911318343061e-03 -3.1351269040592197e-02  2.5568742612149826e+00 -9.6324964895549009e-03 -3.1341483043112295e-02  2.6676561109786485e+00 -9.6060537654593173e-03 -3.1338482893160616e-02  2.7784367463095521e+00 -9.5887840334971785e-03 -3.1339223143678124e-02  2.8892180001264727e+00 -9.5791017691946017e-03 -3.1340918573148892e-02  2.9999999999999996e+00 -9.5759964486315970e-03 -3.1341706471439315e-02  0.0000000000000000e+00 0.0000000000000000e+00 0.0000000000000000e+00  1.605334573