<?xml version="1.0"?>
<VTKFile type="UnstructuredGrid"  version="0.1"  >
<UnstructuredGrid>
<Piece  NumberOfPoints="588" NumberOfCells="2160">
<Points>
<DataArray  type="Float64"  NumberOfComponents="3"  format="ascii">0 0 0  0.5 0 0  1 0 0  1.5 0 0  2 0 0  2.5 0 0  3 0 0  3.5 0 0  4 0 0  4.5 0 0  5 0 0  5.5 0 0  6 0 0  6.5 0 0  7 0 0  7.5 0 0  8 0 0  8.5 0 0  9 0 0  9.5 0 0  10 0 0  0 0.5 0  0.5 0.5 0  1 0.5 0  1.5 0.5 0  2 0.5 0  2.5 0.5 0  3 0.5 0  3.5 0.5 0  4 0.5 0  4.5 0.5 0  5 0.5 0  5.5 0.5 0  6 0.5 0  6.5 0.5 0  7 0.5 0  7.5 0.5 0  8 0.5 0  8.5 0.5 0  9 0.5 0  9.5 0.5 0  10 0.5 0  0 1 0  0.5 1 0  1 1 0  1.5 1 0  2 1 0  2.5 1 0  3 1 0  3.5 1 0  4 1 0  4.5 1 0  5 1 0  5.5 1 0  6 1 0  6.5 1 0  7 1 0  7.5 1 0  8 1 0  8.5 1 0  9 1 0  9.5 1 0  10 1 0  0 1.5 0  0.5 1.5 0  1 1.5 0  1.5 1.5 0  2 1.5 0  2.5 1.5 0  3 1.5 0  3.5 1.5 0  4 1.5 0  4.5 1.5 0  5 1.5 0  5.5 1.5 0  6 1.5 0  6.5 1.5 0  7 1.5 0  7.5 1.5 0  8 1.5 0  8.5 1.5 0  9 1.5 0  9.5 1.5 0  10 1.5 0  0 2 0  0.5 2 0  1 2 0  1.5 2 0  2 2 0  2.5 2 0  3 2 0  3.5 2 0  4 2 0  4.5 2 0  5 2 0  5.5 2 0  6 2 0  6.5 2 0  7 2 0  7.5 2 0  8 2 0  8.5 2 0  9 2 0  9.5 2 0  10 2 0  0 2.5 0  0.5 2.5 0  1 2.5 0  1.5 2.5 0  2 2.5 0  2.5 2.5 0  3 2.5 0  3.5 2.5 0  4 2.5 0  4.5 2.5 0  5 2.5 0  5.5 2.5 0  6 2.5 0  6.5 2.5 0  7 2.5 0  7.5 2.5 0  8 2.5 0  8.5 2.5 0  9 2.5 0  9.5 2.5 0  10 2.5 0  0 3 0  0.5 3 0  1 3 0  1.5 3 0  2 3 0  2.5 3 0  3 3 0  3.5 3 0  4 3 0  4.5 3 0  5 3 0  5.5 3 0  6 3 0  6.5 3 0  7 3 0  7.5 3 0  8 3 0  8.5 3 0  9 3 0  9.5 3 0  10 3 0  0 0 0.1666666666666667  0.5 0 0.1666666666666667  1 0 0.1666666666666667  1.5 0 0.1666666666666667  2 0 0.1666666666666667  2.5 0 0.1666666666666667  3 0 0.1666666666666667  3.5 0 0.1666666666666667  4 0 0.1666666666666667  4.5 0 0.1666666666666667  5 0 0.1666666666666667  5.5 0 0.1666666666666667  6 0 0.1666666666666667  6.5 0 0.1666666666666667  7 0 0.1666666666666667  7.5 0 0.1666666666666667  8 0 0.1666666666666667  8.5 0 0.1666666666666667  9 0 0.1666666666666667  9.5 0 0.1666666666666667  10 0 0.1666666666666667  0 0.5 0.1666666666666667  0.5 0.5 0.1666666666666667  1 0.5 0.1666666666666667  1.5 0.5 0.1666666666666667  2 0.5 0.1666666666666667  2.5 0.5 0.1666666666666667  3 0.5 0.1666666666666667  3.5 0.5 0.1666666666666667  4 0.5 0.1666666666666667  4.5 0.5 0.1666666666666667  5 0.5 0.1666666666666667  5.5 0.5 0.1666666666666667  6 0.5 0.1666666666666667  6.5 0.5 0.1666666666666667  7 0.5 0.1666666666666667  7.5 0.5 0.1666666666666667  8 0.5 0.1666666666666667  8.5 0.5 0.1666666666666667  9 0.5 0.1666666666666667  9.5 0.5 0.1666666666666667  10 0.5 0.1666666666666667  0 1 0.1666666666666667  0.5 1 0.1666666666666667  1 1 0.1666666666666667  1.5 1 0.1666666666666667  2 1 0.1666666666666667  2.5 1 0.1666666666666667  3 1 0.1666666666666667  3.5 1 0.1666666666666667  4 1 0.1666666666666667  4.5 1 0.1666666666666667  5 1 0.1666666666666667  5.5 1 0.1666666666666667  6 1 0.1666666666666667  6.5 1 0.1666666666666667  7 1 0.1666666666666667  7.5 1 0.1666666666666667  8 1 0.1666666666666667  8.5 1 0.1666666666666667  9 1 0.1666666666666667  9.5 1 0.1666666666666667  10 1 0.1666666666666667  0 1.5 0.1666666666666667  0.5 1.5 0.1666666666666667  1 1.5 0.1666666666666667  1.5 1.5 0.1666666666666667  2 1.5 0.1666666666666667  2.5 1.5 0.1666666666666667  3 1.5 0.1666666666666667  3.5 1.5 0.1666666666666667  4 1.5 0.1666666666666667  4.5 1.5 0.1666666666666667  5 1.5 0.1666666666666667  5.5 1.5 0.1666666666666667  6 1.5 0.1666666666666667  6.5 1.5 0.1666666666666667  7 1.5 0.1666666666666667  7.5 1.5 0.1666666666666667  8 1.5 0.1666666666666667  8.5 1.5 0.1666666666666667  9 1.5 0.1666666666666667  9.5 1.5 0.1666666666666667  10 1.5 0.1666666666666667  0 2 0.1666666666666667  0.5 2 0.1666666666666667  1 2 0.1666666666666667  1.5 2 0.1666666666666667  2 2 0.1666666666666667  2.5 2 0.1666666666666667  3 2 0.1666666666666667  3.5 2 0.1666666666666667  4 2 0.1666666666666667  4.5 2 0.1666666666666667  5 2 0.1666666666666667  5.5 2 0.1666666666666667  6 2 0.1666666666666667  6.5 2 0.1666666666666667  7 2 0.1666666666666667  7.5 2 0.1666666666666667  8 2 0.1666666666666667  8.5 2 0.1666666666666667  9 2 0.1666666666666667  9.5 2 0.1666666666666667  10 2 0.1666666666666667  0 2.5 0.1666666666666667  0.5 2.5 0.1666666666666667  1 2.5 0.1666666666666667  1.5 2.5 0.1666666666666667  2 2.5 0.1666666666666667  2.5 2.5 0.1666666666666667  3 2.5 0.1666666666666667  3.5 2.5 0.1666666666666667  4 2.5 0.1666666666666667  4.5 2.5 0.1666666666666667  5 2.5 0.1666666666666667  5.5 2.5 0.1666666666666667  6 2.5 0.1666666666666667  6.5 2.5 0.1666666666666667  7 2.5 0.1666666666666667  7.5 2.5 0.1666666666666667  8 2.5 0.1666666666666667  8.5 2.5 0.1666666666666667  9 2.5 0.1666666666666667  9.5 2.5 0.1666666666666667  10 2.5 0.1666666666666667  0 3 0.1666666666666667  0.5 3 0.1666666666666667  1 3 0.1666666666666667  1.5 3 0.1666666666666667  2 3 0.1666666666666667  2.5 3 0.1666666666666667  3 3 0.1666666666666667  3.5 3 0.1666666666666667  4 3 0.1666666666666667  4.5 3 0.1666666666666667  5 3 0.1666666666666667  5.5 3 0.1666666666666667  6 3 0.1666666666666667  6.5 3 0.1666666666666667  7 3 0.1666666666666667  7.5 3 0.1666666666666667  8 3 0.1666666666666667  8.5 3 0.1666666666666667  9 3 0.1666666666666667  9.5 3 0.1666666666666667  10 3 0.1666666666666667  0 0 0.3333333333333333  0.5 0 0.3333333333333333  1 0 0.3333333333333333  1.5 0 0.3333333333333333  2 0 0.3333333333333333  2.5 0 0.3333333333333333  3 0 0.3333333333333333  3.5 0 0.3333333333333333  4 0 0.3333333333333333  4.5 0 0.3333333333333333  5 0 0.3333333333333333  5.5 0 0.3333333333333333  6 0 0.3333333333333333  6.5 0 0.3333333333333333  7 0 0.3333333333333333  7.5 0 0.3333333333333333  8 0 0.3333333333333333  8.5 0 0.3333333333333333  9 0 0.3333333333333333  9.5 0 0.3333333333333333  10 0 0.3333333333333333  0 0.5 0.3333333333333333  0.5 0.5 0.3333333333333333  1 0.5 0.3333333333333333  1.5 0.5 0.3333333333333333  2 0.5 0.3333333333333333  2.5 0.5 0.3333333333333333  3 0.5 0.3333333333333333  3.5 0.5 0.3333333333333333  4 0.5 0.3333333333333333  4.5 0.5 0.3333333333333333  5 0.5 0.3333333333333333  5.5 0.5 0.3333333333333333  6 0.5 0.3333333333333333  6.5 0.5 0.3333333333333333  7 0.5 0.3333333333333333  7.5 0.5 0.3333333333333333  8 0.5 0.3333333333333333  8.5 0.5 0.3333333333333333  9 0.5 0.3333333333333333  9.5 0.5 0.3333333333333333  10 0.5 0.3333333333333333  0 1 0.3333333333333333  0.5 1 0.3333333333333333  1 1 0.3333333333333333  1.5 1 0.3333333333333333  2 1 0.3333333333333333  2.5 1 0.3333333333333333  3 1 0.3333333333333333  3.5 1 0.3333333333333333  4 1 0.3333333333333333  4.5 1 0.3333333333333333  5 1 0.3333333333333333  5.5 1 0.3333333333333333  6 1 0.3333333333333333  6.5 1 0.3333333333333333  7 1 0.3333333333333333  7.5 1 0.3333333333333333  8 1 0.3333333333333333  8.5 1 0.3333333333333333  9 1 0.3333333333333333  9.5 1 0.3333333333333333  10 1 0.3333333333333333  0 1.5 0.3333333333333333  0.5 1.5 0.3333333333333333  1 1.5 0.3333333333333333  1.5 1.5 0.3333333333333333  2 1.5 0.3333333333333333  2.5 1.5 0.3333333333333333  3 1.5 0.3333333333333333  3.5 1.5 0.3333333333333333  4 1.5 0.3333333333333333  4.5 1.5 0.3333333333333333  5 1.5 0.3333333333333333  5.5 1.5 0.3333333333333333  6 1.5 0.3333333333333333  6.5 1.5 0.3333333333333333  7 1.5 0.3333333333333333  7.5 1.5 0.3333333333333333  8 1.5 0.3333333333333333  8.5 1.5 0.3333333333333333  9 1.5 0.3333333333333333  9.5 1.5 0.3333333333333333  10 1.5 0.3333333333333333  0 2 0.3333333333333333  0.5 2 0.3333333333333333  1 2 0.3333333333333333  1.5 2 0.3333333333333333  2 2 0.3333333333333333  2.5 2 0.3333333333333333  3 2 0.3333333333333333  3.5 2 0.3333333333333333  4 2 0.3333333333333333  4.5 2 0.3333333333333333  5 2 0.3333333333333333  5.5 2 0.3333333333333333  6 2 0.3333333333333333  6.5 2 0.3333333333333333  7 2 0.3333333333333333  7.5 2 0.3333333333333333  8 2 0.3333333333333333  8.5 2 0.3333333333333333  9 2 0.3333333333333333  9.5 2 0.3333333333333333  10 2 0.3333333333333333  0 2.5 0.3333333333333333  0.5 2.5 0.3333333333333333  1 2.5 0.3333333333333333  1.5 2.5 0.3333333333333333  2 2.5 0.3333333333333333  2.5 2.5 0.3333333333333333  3 2.5 0.3333333333333333  3.5 2.5 0.3333333333333333  4 2.5 0.3333333333333333  4.5 2.5 0.3333333333333333  5 2.5 0.3333333333333333  5.5 2.5 0.3333333333333333  6 2.5 0.3333333333333333  6.5 2.5 0.3333333333333333  7 2.5 0.3333333333333333  7.5 2.5 0.3333333333333333  8 2.5 0.3333333333333333  8.5 2.5 0.3333333333333333  9 2.5 0.3333333333333333  9.5 2.5 0.3333333333333333  10 2.5 0.3333333333333333  0 3 0.3333333333333333  0.5 3 0.3333333333333333  1 3 0.3333333333333333  1.5 3 0.3333333333333333  2 3 0.3333333333333333  2.5 3 0.3333333333333333  3 3 0.3333333333333333  3.5 3 0.3333333333333333  4 3 0.3333333333333333  4.5 3 0.3333333333333333  5 3 0.3333333333333333  5.5 3 0.3333333333333333  6 3 0.3333333333333333  6.5 3 0.3333333333333333  7 3 0.3333333333333333  7.5 3 0.3333333333333333  8 3 0.3333333333333333  8.5 3 0.3333333333333333  9 3 0.3333333333333333  9.5 3 0.3333333333333333  10 3 0.3333333333333333  0 0 0.5  0.5 0 0.5  1 0 0.5  1.5 0 0.5  2 0 0.5  2.5 0 0.5  3 0 0.5  3.5 0 0.5  4 0 0.5  4.5 0 0.5  5 0 0.5  5.5 0 0.5  6 0 0.5  6.5 0 0.5  7 0 0.5  7.5 0 0.5  8 0 0.5  8.5 0 0.5  9 0 0.5  9.5 0 0.5  10 0 0.5  0 0.5 0.5  0.5 0.5 0.5  1 0.5 0.5  1.5 0.5 0.5  2 0.5 0.5  2.5 0.5 0.5  3 0.5 0.5  3.5 0.5 0.5  4 0.5 0.5  4.5 0.5 0.5  5 0.5 0.5  5.5 0.5 0.5  6 0.5 0.5  6.5 0.5 0.5  7 0.5 0.5  7.5 0.5 0.5  8 0.5 0.5  8.5 0.5 0.5  9 0.5 0.5  9.5 0.5 0.5  10 0.5 0.5  0 1 0.5  0.5 1 0.5  1 1 0.5  1.5 1 0.5  2 1 0.5  2.5 1 0.5  3 1 0.5  3.5 1 0.5  4 1 0.5  4.5 1 0.5  5 1 0.5  5.5 1 0.5  6 1 0.5  6.5 1 0.5  7 1 0.5  7.5 1 0.5  8 1 0.5  8.5 1 0.5  9 1 0.5  9.5 1 0.5  10 1 0.5  0 1.5 0.5  0.5 1.5 0.5  1 1.5 0.5  1.5 1.5 0.5  2 1.5 0.5  2.5 1.5 0.5  3 1.5 0.5  3.5 1.5 0.5  4 1.5 0.5  4.5 1.5 0.5  5 1.5 0.5  5.5 1.5 0.5  6 1.5 0.5  6.5 1.5 0.5  7 1.5 0.5  7.5 1.5 0.5  8 1.5 0.5  8.
[...]
<PointData  Vectors="f_7-0"> 
<DataArray  type="Float64"  Name="f_7-0"  NumberOfComponents="3" format="ascii">0.0000000000000000e+00 0.0000000000000000e+00 0.0000000000000000e+00  7.8606043016547855e-01 5.6811109700013129e-01 9.9635285997583076e-02  1.9302532898768261e+00 6.0737660008903027e-01 1.0029674585772513e-01  3.0959243861705676e+00 6.0845115127784188e-01 1.0094897843013236e-01  4.2650461728247553e+00 6.0828786376625443e-01 1.0106573319879793e-01  5.4357198646115465e+00 6.0820784831725760e-01 1.0109577086789162e-01  6.6066877351481548e+00 6.0817211172087715e-01 1.0110448135449962e-01  7.7776819421509131e+00 6.0815549065403607e-01 1.0110567405413683e-01  8.9486620360372946e+00 6.0814726347807968e-01 1.0110555918583355e-01  1.0119626831977831e+01 6.0814303559297012e-01 1.0110528817424676e-01  1.1290581100342383e+01 6.0814082527103885e-01 1.0110506779513262e-01  1.2461529076338987e+01 6.0813965596627140e-01 1.0110492773094276e-01  1.3632473508424990e+01 6.0813903298251004e-01 1.0110484661728557e-01  1.4803415993027306e+01 6.0813870003772463e-01 1.0110480122508381e-01  1.5974357419877038e+01 6.0813852182421424e-01 1.0110477628130492e-01  1.7145298275868747e+01 6.0813842638727234e-01 1.0110476273105859e-01  1.8316238825034041e+01 6.0813837534780446e-01 1.0110475542665115e-01  1.9487179210115883e+01 6.0813834822445800e-01 1.0110475152743953e-01  2.0658119508594389e+01 6.0813833414287877e-01 1.0110474949731531e-01  2.1829059763366089e+01 6.0813832747373997e-01 1.0110474853538937e-01  2.3000000000000000e+01 6.0813832551835811e-01 1.0110474823931671e-01  0.0000000000000000e+00 0.0000000000000000e+00 0.0000000000000000e+00  7.7327236283994283e-01 3.7281804400847135e-01 1.0212990700072716e-01  1.9240952338818347e+00 4.0544912119546156e-01 1.0122742343260842e-01  3.0945677113143821e+00 4.0598095238494541e-01 1.0144300621097645e-01  4.2647306965435803e+00 4.0570292009111308e-01 1.0147686298819399e-01  5.4356666326409018e+00 4.0560551782737375e-01 1.0147945680714340e-01  6.6066889218910161e+00 4.0556758373649487e-01 1.0148087416562800e-01  7.7776898969980950e+00 4.0555210672207287e-01 1.0148054323529243e-01  8.9486684262092719e+00 4.0554522738855781e-01 1.0147998728449148e-01  1.0119630863523097e+01 4.0554189859120382e-01 1.0147960926674283e-01  1.1290583424085172e+01 4.0554021701692761e-01 1.0147938507833246e-01  1.2461530366539268e+01 4.0553934458956464e-01 1.0147925789081778e-01  1.3632474212744903e+01 4.0553888463875554e-01 1.0147918739608534e-01  1.4803416374228132e+01 4.0553864016907476e-01 1.0147914893722393e-01  1.5974357625237763e+01 4.0553850968197991e-01 1.0147912812752487e-01  1.7145298386147203e+01 4.0553843990670096e-01 1.0147911691483824e-01  1.8316238883979807e+01 4.0553840261985913e-01 1.0147911089756724e-01  1.9487179241216452e+01 4.0553838281249455e-01 1.0147910769439775e-01  2.0658119524269701e+01 4.0553837253205749e-01 1.0147910602967911e-01  2.1829059769887280e+01 4.0553836766087897e-01 1.0147910524640330e-01  2.3000000000000000e+01 4.0553836624041056e-01 1.0147910501888058e-01  0.0000000000000000e+00 0.0000000000000000e+00 0.0000000000000000e+00  7.6242062440193759e-01 1.8481234286592280e-01 1.0446661436120369e-01  1.9138596506897556e+00 2.0306782241085145e-01 1.0213174723126635e-01  3.0921206823715353e+00 2.0330416337804114e-01 1.0196731660483672e-01  4.2641747542310782e+00 2.0306444850388702e-01 1.0188604517129965e-01  5.4355839750766135e+00 2.0298932785521240e-01 1.0186389715354206e-01  6.6067044446030136e+00 2.0296019571600393e-01 1.0185754144193886e-01  7.7777136661476804e+00 2.0294852042423836e-01 1.0185511625736196e-01  8.9486856869010847e+00 2.0294342435081250e-01 1.0185420223455874e-01  1.0119641358786614e+01 2.0294097794533258e-01 1.0185381340822604e-01  1.1290589385592545e+01 2.0293975136711956e-01 1.0185363729449842e-01  1.2461533655807621e+01 2.0293911711089899e-01 1.0185355192560577e-01  1.3632476002737695e+01 2.0293878334668361e-01 1.0185350856768764e-01  1.4803417341459259e+01 2.0293860611262135e-01 1.0185348611027660e-01  1.5974358145877819e+01 2.0293851155310094e-01 1.0185347430948451e-01  1.7145298665617418e+01 2.0293846100029644e-01 1.0185346805260687e-01  1.8316239033332643e+01 2.0293843398831449e-01 1.0185346472614666e-01  1.9487179320012277e+01 2.0293841963945816e-01 1.0185346296563771e-01  2.0658119563990496e+01 2.0293841219207087e-01 1.0185346205493989e-01  2.1829059786411808e+01 2.0293840866076235e-01 1.0185346163601827e-01  2.3000000000000000e+01 2.0293840762338197e-01 1.0185346151120636e-01  0.0000000000000000e+00 0.0000000000000000e+00 0.0000000000000000e+00  7.5895712409229821e-01 1.2952309503875023e-03 1.0528951174141699e-01  1.9092663714297700e+00 5.1819553905461252e-04 1.0264385770940392e-01  3.0913517146050422e+00 4.3264608280288647e-04 1.0238588820109595e-01  4.2641435676934565e+00 3.7664812294468139e-04 1.0227022727652646e-01  5.4356515354627488e+00 3.6342519461451814e-04 1.0223885032557899e-01  6.6067750271260017e+00 3.5204794728378508e-04 1.0223129593634372e-01  7.7777597009938395e+00 3.4567840817029295e-04 1.0222878859674679e-01  8.9487127643088105e+00 3.4236737316780552e-04 1.0222808409950268e-01  1.0119656536064724e+01 3.4055348730534175e-04 1.0222788826710834e-01  1.1290597700400291e+01 3.3957779267845329e-04 1.0222783491676901e-01  1.2461538165483480e+01 3.3905361979128169e-04 1.0222782057159528e-01  1.3632478435852024e+01 3.3877204084872196e-04 1.0222781737955391e-01  1.4803418650419658e+01 3.3862089839672743e-04 1.0222781704092765e-01  1.5974358848904263e+01 3.3853979645799142e-04 1.0222781725183323e-01  1.7145299042569818e+01 3.3849630709646678e-04 1.0222781748315193e-01  1.8316239234668938e+01 3.3847303218774140e-04 1.0222781764438221e-01  1.9487179426208012e+01 3.3846065741784337e-04 1.0222781774266700e-01  2.0658119617521958e+01 3.3845423044055739e-04 1.0222781779977133e-01  2.1829059808708184e+01 3.3845117680493970e-04 1.0222781784024278e-01  2.3000000000000000e+01 3.3845027468422677e-04 1.0222781784745318e-01  0.0000000000000000e+00 0.0000000000000000e+00 0.0000000000000000e+00  7.6397239628548086e-01 -1.8204518472986442e-01 1.0488019904806115e-01  1.9140233567734342e+00 -2.0204462006642096e-01 1.0287687784124372e-01  3.0934267174433203e+00 -2.0244681241405421e-01 1.0264899296573977e-01  4.2649041006644239e+00 -2.0227942221808565e-01 1.0261168580390413e-01  5.4359427606275545e+00 -2.0225249521416558e-01 1.0260240771118229e-01  6.6069093538553894e+00 -2.0225192463427644e-01 1.0260183415213828e-01  7.7778227730915894e+00 -2.0225464021142386e-01 1.0260148749275409e-01  8.9487445590401542e+00 -2.0225737711503419e-01 1.0260169039447548e-01  1.0119673022025021e+01 -2.0225917647328406e-01 1.0260188940221437e-01  1.1290606374266096e+01 -2.0226022370930227e-01 1.0260201171791465e-01  1.2461542776985461e+01 -2.0226081071582402e-01 1.0260208413902776e-01  1.3632480898009662e+01 -2.0226113250149527e-01 1.0260212530932761e-01  1.4803419967917817e+01 -2.0226130705757212e-01 1.0260214801808426e-01  1.5974359554613686e+01 -2.0226140123622055e-01 1.0260216037450448e-01  1.7145299420438935e+01 -2.0226145188012562e-01 1.0260216705870068e-01  1.8316239436353548e+01 -2.0226147902514788e-01 1.0260217065532652e-01  1.9487179532552631e+01 -2.0226149346974187e-01 1.0260217257433692e-01  2.0658119671125608e+01 -2.0226150097675261e-01 1.0260217357505212e-01  2.1829059831045416e+01 -2.0226150454718297e-01 1.0260217406055779e-01  2.3000000000000000e+01 -2.0226150560470449e-01 1.0260217419721387e-01  0.0000000000000000e+00 0.0000000000000000e+00 0.0000000000000000e+00  7.8114769771962622e-01 -3.7154644163218875e-01 1.0399081033350863e-01  1.9251521850249811e+00 -4.0427573816543877e-01 1.0259660908013057e-01  3.0969029165234985e+00 -4.0498617568738038e-01 1.0277502603902482e-01  4.2660333579555640e+00 -4.0485767904973430e-01 1.0295306108859056e-01  5.4363111432826230e+00 -4.0484801977107615e-01 1.0296306078860186e-01  6.6070467877747721e+00 -4.0484613433517852e-01 1.0297049287169491e-01  7.7778810279958650e+00 -4.0485145170038722e-01 1.0297406321807655e-01  8.9487713164039633e+00 -4.0485566345094220e-01 1.0297532385271944e-01  1.0119686101686096e+01 -4.0485820261375755e-01 1.0297592930482011e-01  1.1290613057568102e+01 -4.0485967795177918e-01 1.0297622057319081e-01  1.2461546271735786e+01 -4.0486049647836292e-01 1.0297636826495203e-01  1.3632482747161538e+01 -4.0486094333210204e-01 1.0297644523787608e-01  1.4803420952940666e+01 -4.0486118533766380e-01 1.0297648570680597e-01  1.5974360081012012e+01 -4.0486131576816070e-01 1.0297650718952935e-01  1.7145299701958088e+01 -4.0486138587458059e-01 1.0297651864738415e-01  1.8316239586521405e+01 -4.0486142344290349e-01 1.0297652475964160e-01  1.9487179611712104e+01 -4.0486144343129454e-01 1.0297652800354971e-01  2.0658119711025179e+01 -4.0486145381874544e-01 1.0297652968722926e-01  2.1829059847678391e+01 -4.0486145876051438e-01 1.0297653049477602e-01  2.3000000000000000e+01 -4.0486146022091335e-01 1.0297653073033855e-01  0.0000000000000000e+00 0.0000000000000000e+00 0.0000000000000000e+00  8.0862806115290264e-01 -5.6702043810612990e-01 9.8250961060171935e-02  1.9310289790571107e+00 -6.0532695083115917e-01 1.0132598806440396e-01  3.0987898588334128e+00 -6.0734335586012456e-01 1.0331935290166382e-01  4.2666633399059508e+00 -6.0740665128233440e-01 1.0331768828796541e-01  5.4364653240555452e+00 -6.0741329035481384e-01 1.0331402706961716e-01  6.6071064984799719e+00 -6.0743360180308459e-01 1.0334312038341889e-01  7.7779069690286917e+00 -6.0744630033276092e-01 1.0334741690445563e-01  8.9487823133860598e+00 -6.0745294275451367e-01 1.0334921897190535e-01  1.0119691410319987e+01 -6.0745681976892540e-01 1.0335011975931835e-01  1.1290615745814701e+01 -6.0745893888135172e-01 1.0335050265307381e-01  1.2461547665387133e+01 -6.0746008474041824e-01 1.0335069083798934e-01  1.3632483482014928e+01 -6.0746070399172170e-01 1.0335078534505243e-01  1.4803421343618263e+01 -6.0746103722236977e-01 1.0335083411401026e-01  1.5974360289580099e+01 -6.0746121628614747e-01 1.0335085974982443e-01  1.7145299813445611e+01 -6.0746131238411938e-01 1.0335087331888775e-01  1.8316239645975354e+01 -6.0746136383728211e-01 1.0335088052527254e-01  1.9487179643049245e+01 -6.0746139120156550e-01 1.0335088434117946e-01  2.0658119726819955e+01 -6.0746140541916083e-01 1.0335088631912435e-01  2.1829059854257583e+01 -6.0746141218610006e-01 1.0335088725607297e-01  2.3000000000000000e+01 -6.0746141415853017e-01 1.0335088755003918e-01  0.0000000000000000e+00 0.0000000000000000e+00 0.0000000000000000e+00  7.8737900241416936e-01 5.6634511698191392e-01 3.3103596057185707e-02  1.9303564444103491e+00 6.0704641361669642e-01 3.3049584942879087e-02  3.0959193373413600e+00 6.0831090682961897e-01 3.3478914648730256e-02  4.2650483515712700e+00 6.0815337536695568e-01 3.3542556864037038e-02  5.4357195474999171e+00 6.0808018098114303e-01 3.3562450623006085e-02  6.6066877300728599e+00 6.0804674400813596e-01 3.3569895723893420e-02  7.7776819768433967e+00 6.0803054445089977e-01 3.3571274084731810e-02  8.9486620377024977e+00 6.0802243938343137e-01 3.3571542581607224e-02  1.0119626831164716e+01 6.0801824904636781e-01 3.3571565003768844e-02  1.1290581100714993e+01 6.0801604493428685e-01 3.3571524068511376e-02  1.2461529076649793e+01 6.0801487469030524e-01 3.3571485938300179e-02  1.3632473508592980e+01 6.0801425017671940e-01 3.3571461153577155e-02  1.4803415993128612e+01 6.0801391607261857e-01 3.3571446447590587e-02  1.5974357419937260e+01 6.0801373711965923e-01 3.3571438089288093e-02  1.7145298275902128e+01 6.0801364125126101e-01 3.3571433464650600e-02  1.8316238825051101e+01 6.0801358997048016e-01 3.3571430945844881e-02  1.9487179210122800e+01 6.0801356271542417e-01 3.3571429592939676e-02  2.0658119508592595e+01 6.0801354856514456e-01 3.3571428886240040e-02  2.1829059763356835e+01 6.0801354186199763e-01 3.3571428549246871e-02  2.3000000000000000e+01 6.0801353988689810e-01 3.3571428440796282e-02  0.0000000000000000e+00 0.0000000000000000e+00 0.0000000000000000e+00  7.7465635487663276e-01 3.7237966547561346e-01 3.4414090369681856e-02  1.9244359336148156e+00 4.0508321371947958e-01 3.3779434592042593e-02  3.0945682725969892e+00 4.0581845262009947e-01 3.3915579495565423e-02  4.2647244874168351e+00 4.0556741488740650e-01 3.3944933934760911e-02  5.4356679155798977e+00 4.0547769552911278e-01 3.3944832319485925e-02  6.6066891490160735e+00 4.0544215911277370e-01 3.3946027052141149e-02  7.7776899279377156e+00 4.0542718503461905e-01 3.3946173799975742e-02  8.9486684298209891e+00 4.0542042920855947e-01 3.3946051137445275e-02  1.0119630866119614e+01 4.0541712812761860e-01 3.3945945496839866e-02  1.1290583425270379e+01 4.0541544588530004e-01 3.3945876873369384e-02  1.2461530366914978e+01 4.0541456847451651e-01 3.3945836189537157e-02  1.3632474212906594e+01 4.0541410465748995e-01 3.3945813027137631e-02  1.4803416374316120e+01 4.0541385772967437e-01 3.3945800197945852e-02  1.5974357625284732e+01 4.0541372579914170e-01 3.3945793197952621e-02  1.7145298386171657e+01 4.0541365521300038e-01 3.3945789407073185e-02  1.8316238883992003e+01 4.0541361748111188e-01 3.3945787366370203e-02  1.9487179241221224e+01 4.0541359743378202e-01 3.3945786278021431e-02  2.0658119524268518e+01 4.0541358702773511e-01 3.3945785711950900e-02  2.1829059769880470e+01 4.0541358209615236e-01 3.3945785445810797e-02  2.3000000000000000e+01 4.0541358065327088e-01 3.3945785368393259e-02  0.0000000000000000e+00 0.0000000000000000e+00 0.0000000000000000e+00  7.6406065389736921e-01 1.8450579694258770e-01 3.5217479459850827e-02  1.9141416281334420e+00 2.0280710408332456e-01 3.4510461348465415e-02  3.0921726560154634e+00 2.0314865558609890e-01 3.4385655845486147e-02  4.2641576074966681e+00 2.0293438725331317e-01 3.4336963329397729e-02  5.4355870405336821e+00 2.0286301435444762e-01 3.4325833146253454e-02  6.6067046014645108e+00 2.0283514034387132e-01 3.4322175954883377e-02  7.7777136374937310e+00 2.0282374665212538e-01 3.4320893856409691e-02  8.9486856896937859e+00 2.0281869758494886e-01 3.4320456526737673e-02  1.0119641358984339e+01 2.0281623876329538e-01 3.4320280743666096e-02  1.1290589384080599e+01 2.0281499468009800e-01 3.4320207126485022e-02  1.2461533654600000e+01 2.0281434827004974e-01 3.4320174311828960e-02  1.3632476002071433e+01 2.0281400710239014e-01 3.4320158478196527e-02  1.4803417341090807e+01 2.0281382561674557e-01 3.4320150560441708e-02  1.5974358145673072e+01 2.0281372869505532e-01 3.4320146502674641e-02  1.7145298665505980e+01 2.0281367685175061e-01 3.4320144383918887e-02  1.8316239033272399e+01 2.0281364914176014e-01 3.4320143267710157e-02  1.9487179319979536e+01 2.0281363441965547e-01 3.4320142680224618e-02  2.0658119563972001e+01 2.0281362677786957e-01 3.4320142377796882e-02  2.1829059786400553e+01 2.0281362315426724e-01 3.4320142239112048e-02  2.3000000000000000e+01 2.0281362209035977e-01 3.4320142196937499e-02  0.0000000000000000e+00 0.0000000000000000e+00 0.0000000000000000e+00  7.6062798943089338e-01 1.2350162460423959e-03 3.5605760412029119e-02  1.9094384631365082e+00 3.5860731786693827e-04 3.4994000361516543e-02  3.0914732713367181e+00 3.1671168586700838e-04 3.4795846599323034e-02  4.2641104499994107e+00 2.5698605299094969e-04 3.4712566082821146e-02  5.4356546075935661e+00 2.3957525344980691e-04 3.4701359528716925e-02  6.6067751436206841e+00 2.2777192206415703e-04 3.4696703329017996e-02  7.7777595468337717e+00 2.2117200962154545e-04 3.4695100284816177e-02  8.9487127587728601e+00 2.1772361298997260e-04 3.4694685115085909e-02  1.0119656528696241e+01 2.1584096683450194e-04 3.4694552936329906e-02  1.1290597694858350e+01 2.1483071322877273e-04 3.4694513805017868e-02  1.2461538162690907e+01 2.1428854182578433e-04 3.4694502608643228e-02  1.3632478434420550e+01 2.1399737726880878e-04 3.4694499559178922e-02  1.4803418649641031e+01 2.1384111533951278e-04 3.4694498871353674e-02  1.5974358848483762e+01 2.1375728137350440e-04 3.4694498794483920e-02  1.7145299042344920e+01 2.1371233081827226e-04 3.4694498843610991e-02  1.8316239234548952e+01 2.1368827470546675e-04 3.4694498898817872e-02  1.9487179426144724e+01 2.1367548503637692e-04 3.4694498937606434e-02  2.0658119617490051e+01 2.1366884286269468e-04 3.4694498961878428e-02  2.1829059808694986e+01 2.1366568810790351e-04 3.4694498977475265e-02  2.3000000000000000e+01 2.1366475893473655e-04 3.4694498979340176e-02  0.0000000000000000e+00 0.0000000000000000e+00 0.0000000000000000e+00  7.6559154651742634e-01 -1.8206539810836733e-01 3.5778404258049637e-02  1.9141855618288275e+00 -2.0206612066093088e-01 3.5327916621001654e-02  3.0935578615103312e+00 -2.0251686220420043e-01 3.5100301970268900e-02  4.2648598375371671e+00 -2.0239599812269393e-01 3.5069208911978560e-02  5.4359462051583787e+00 -2.0237443671267039e-01 3.5071322028518176e-02  6.6069094547412037e+00 -2.0237531837870121e-01 3.5069266678608386e-02  7.7778224610383599e+00 -2.0237899455662950e-01 3.5068747302518577e-02  8.9487445597888851e+00 -2.0238198377722161e-01 3.5068751727753769e-02  1.0119673004936910e+01 -2.0238388066008514e-01 3.5068777273002505e-02  1.1290606365786150e+01 -2.0238497120428628e-01 3.5068806936502543e-02  1.2461542773351452e+01 -2.0238557728559961e-01 3.5068827448378519e-02  1.3632480896099105e+01 -2.0238590837807754e-01 3.5068839979079780e-02  1.4803419966902098e+01 -2.0238608761257626e-01 3.5068847192564666e-02  1.5974359554076457e+01 -2.0238618420076274e-01 3.5068851203633337e-02  1.7145299420154025e+01 -2.0238623610937642e-01 3.5068853402118037e-02  1.8316239436202441e+01 -2.0238626392253165e-01 3.5068854594542349e-02  1.9487179532474002e+01 -2.0238627871941400e-01 3.5068855233652205e-02  2.0658119671087928e+01 -2.0238628640817916e-01 3.5068855568082855e-02  2.1829059831033010e+01 -2.0238629006394870e-01 3.5068855729657365e-02  2.3000000000000000e+01 -2.0238629114379175e-01 3.5068855773915761e-02  0.0000000000000000e+00 0.0000000000000000e+00 0.0000000000000000e+00  7.8308129385166425e-01 -3.7105212978790847e-01 3.6034585326969341e-02  1.9252093779740185e+00 -4.0410268336312649e-01 3.5296124613642656e-02  3.0970324218536316e+00 -4.0509410886237229e-01 3.5339154344826228e-02  4.2659973749218558e+00 -4.0497674754337759e-01 3.5433577014541570e-02  5.4363103997081446e+00 -4.0496741076376869e-01 3.5437222284489943e-02  6.6070473535886958e+00 -4.0497005497225130e-01 3.5440743598371911e-02  7.7778807787936772e+00 -4.0497588472624957e-01 3.5442296996166578e-02  8.9487712875820407e+00 -4.0498029329496477e-01 3.5442768711746675e-02  1.0119686084652972e+01 -4.0498293171184840e-01 3.5443002694990379e-02  1.1290613049716898e+01 -4.0498443795676076e-01 3.5443107327875867e-02  1.2461546268223611e+01 -4.0498527007089036e-01 3.5443158288583188e-02  1.3632482745340846e+01 -4.0498572309579867e-01 3.5443184383411708e-02  1.4803420951988906e+01 -4.0498596799394643e-01 3.5443197857287188e-02  1.5974360080516512e+01 -4.0498609987175688e-01 3.5443204941018200e-02  1.7145299701696956e+01 -4.0498617071973714e-01 3.5443208698315985e-02  1.8316239586383652e+01 -4.0498620867359586e-01 3.5443210695127389e-02  1.9487179611641555e+01 -4.0498622886361402e-01 3.5443211752455149e-02  2.0658119710993564e+01 -4.0498623935467976e-01 3.5443212300328868e-02  2.1829059847670905e+01 -4.0498624434405134e-01 3.5443212562588138e-02  2.3000000000000000e+01 -4.0498624581734427e-01 3.5443212641151023e-02  0.0000000000000000e+00 0.0000000000000000e+00 0.0000000000000000e+00  8.0622203922833335e-01 -5.6605772308521507e-01 3.3663420305439180e-02  1.9314925030722683e+00 -6.0488142355617791e-01 3.4767685515510967e-02  3.0989497504935470e+00 -6.0761047172246019e-01 3.5866740645759169e-02  4.2665901732602967e+00 -6.0751377731437450e-01 3.5783301311463879e-02  5.4364650821686791e+00 -6.0753015808404665e-01 3.5798598517327723e-02  6.6071090247334894e+00 -6.0755905102861563e-01 3.5814937979232429e-02  7.7779063485610438e+00 -6.0757065401645249e-01 3.5815808218653579e-02  8.9487822645509585e+00 -6.0757761793346732e-01 3.5816884273014674e-02  1.0119691405390478e+01 -6.0758156962840015