<?xml version="1.0"?>
<VTKFile type="UnstructuredGrid"  version="0.1"  >
<UnstructuredGrid>
<Piece  NumberOfPoints="588" NumberOfCells="2160">
<Points>
<DataArray  type="Float64"  NumberOfComponents="3"  format="ascii">0 0 0  0.5 0 0  1 0 0  1.5 0 0  2 0 0  2.5 0 0  3 0 0  3.5 0 0  4 0 0  4.5 0 0  5 0 0  5.5 0 0  6 0 0  6.5 0 0  7 0 0  7.5 0 0  8 0 0  8.5 0 0  9 0 0  9.5 0 0  10 0 0  0 0.5 0  0.5 0.5 0  1 0.5 0  1.5 0.5 0  2 0.5 0  2.5 0.5 0  3 0.5 0  3.5 0.5 0  4 0.5 0  4.5 0.5 0  5 0.5 0  5.5 0.5 0  6 0.5 0  6.5 0.5 0  7 0.5 0  7.5 0.5 0  8 0.5 0  8.5 0.5 0  9 0.5 0  9.5 0.5 0  10 0.5 0  0 1 0  0.5 1 0  1 1 0  1.5 1 0  2 1 0  2.5 1 0  3 1 0  3.5 1 0  4 1 0  4.5 1 0  5 1 0  5.5 1 0  6 1 0  6.5 1 0  7 1 0  7.5 1 0  8 1 0  8.5 1 0  9 1 0  9.5 1 0  10 1 0  0 1.5 0  0.5 1.5 0  1 1.5 0  1.5 1.5 0  2 1.5 0  2.5 1.5 0  3 1.5 0  3.5 1.5 0  4 1.5 0  4.5 1.5 0  5 1.5 0  5.5 1.5 0  6 1.5 0  6.5 1.5 0  7 1.5 0  7.5 1.5 0  8 1.5 0  8.5 1.5 0  9 1.5 0  9.5 1.5 0  10 1.5 0  0 2 0  0.5 2 0  1 2 0  1.5 2 0  2 2 0  2.5 2 0  3 2 0  3.5 2 0  4 2 0  4.5 2 0  5 2 0  5.5 2 0  6 2 0  6.5 2 0  7 2 0  7.5 2 0  8 2 0  8.5 2 0  9 2 0  9.5 2 0  10 2 0  0 2.5 0  0.5 2.5 0  1 2.5 0  1.5 2.5 0  2 2.5 0  2.5 2.5 0  3 2.5 0  3.5 2.5 0  4 2.5 0  4.5 2.5 0  5 2.5 0  5.5 2.5 0  6 2.5 0  6.5 2.5 0  7 2.5 0  7.5 2.5 0  8 2.5 0  8.5 2.5 0  9 2.5 0  9.5 2.5 0  10 2.5 0  0 3 0  0.5 3 0  1 3 0  1.5 3 0  2 3 0  2.5 3 0  3 3 0  3.5 3 0  4 3 0  4.5 3 0  5 3 0  5.5 3 0  6 3 0  6.5 3 0  7 3 0  7.5 3 0  8 3 0  8.5 3 0  9 3 0  9.5 3 0  10 3 0  0 0 0.1666666666666667  0.5 0 0.1666666666666667  1 0 0.1666666666666667  1.5 0 0.1666666666666667  2 0 0.1666666666666667  2.5 0 0.1666666666666667  3 0 0.1666666666666667  3.5 0 0.1666666666666667  4 0 0.1666666666666667  4.5 0 0.1666666666666667  5 0 0.1666666666666667  5.5 0 0.1666666666666667  6 0 0.1666666666666667  6.5 0 0.1666666666666667  7 0 0.1666666666666667  7.5 0 0.1666666666666667  8 0 0.1666666666666667  8.5 0 0.1666666666666667  9 0 0.1666666666666667  9.5 0 0.1666666666666667  10 0 0.1666666666666667  0 0.5 0.1666666666666667  0.5 0.5 0.1666666666666667  1 0.5 0.1666666666666667  1.5 0.5 0.1666666666666667  2 0.5 0.1666666666666667  2.5 0.5 0.1666666666666667  3 0.5 0.1666666666666667  3.5 0.5 0.1666666666666667  4 0.5 0.1666666666666667  4.5 0.5 0.1666666666666667  5 0.5 0.1666666666666667  5.5 0.5 0.1666666666666667  6 0.5 0.1666666666666667  6.5 0.5 0.1666666666666667  7 0.5 0.1666666666666667  7.5 0.5 0.1666666666666667  8 0.5 0.1666666666666667  8.5 0.5 0.1666666666666667  9 0.5 0.1666666666666667  9.5 0.5 0.1666666666666667  10 0.5 0.1666666666666667  0 1 0.1666666666666667  0.5 1 0.1666666666666667  1 1 0.1666666666666667  1.5 1 0.1666666666666667  2 1 0.1666666666666667  2.5 1 0.1666666666666667  3 1 0.1666666666666667  3.5 1 0.1666666666666667  4 1 0.1666666666666667  4.5 1 0.1666666666666667  5 1 0.1666666666666667  5.5 1 0.1666666666666667  6 1 0.1666666666666667  6.5 1 0.1666666666666667  7 1 0.1666666666666667  7.5 1 0.1666666666666667  8 1 0.1666666666666667  8.5 1 0.1666666666666667  9 1 0.1666666666666667  9.5 1 0.1666666666666667  10 1 0.1666666666666667  0 1.5 0.1666666666666667  0.5 1.5 0.1666666666666667  1 1.5 0.1666666666666667  1.5 1.5 0.1666666666666667  2 1.5 0.1666666666666667  2.5 1.5 0.1666666666666667  3 1.5 0.1666666666666667  3.5 1.5 0.1666666666666667  4 1.5 0.1666666666666667  4.5 1.5 0.1666666666666667  5 1.5 0.1666666666666667  5.5 1.5 0.1666666666666667  6 1.5 0.1666666666666667  6.5 1.5 0.1666666666666667  7 1.5 0.1666666666666667  7.5 1.5 0.1666666666666667  8 1.5 0.1666666666666667  8.5 1.5 0.1666666666666667  9 1.5 0.1666666666666667  9.5 1.5 0.1666666666666667  10 1.5 0.1666666666666667  0 2 0.1666666666666667  0.5 2 0.1666666666666667  1 2 0.1666666666666667  1.5 2 0.1666666666666667  2 2 0.1666666666666667  2.5 2 0.1666666666666667  3 2 0.1666666666666667  3.5 2 0.1666666666666667  4 2 0.1666666666666667  4.5 2 0.1666666666666667  5 2 0.1666666666666667  5.5 2 0.1666666666666667  6 2 0.1666666666666667  6.5 2 0.1666666666666667  7 2 0.1666666666666667  7.5 2 0.1666666666666667  8 2 0.1666666666666667  8.5 2 0.1666666666666667  9 2 0.1666666666666667  9.5 2 0.1666666666666667  10 2 0.1666666666666667  0 2.5 0.1666666666666667  0.5 2.5 0.1666666666666667  1 2.5 0.1666666666666667  1.5 2.5 0.1666666666666667  2 2.5 0.1666666666666667  2.5 2.5 0.1666666666666667  3 2.5 0.1666666666666667  3.5 2.5 0.1666666666666667  4 2.5 0.1666666666666667  4.5 2.5 0.1666666666666667  5 2.5 0.1666666666666667  5.5 2.5 0.1666666666666667  6 2.5 0.1666666666666667  6.5 2.5 0.1666666666666667  7 2.5 0.1666666666666667  7.5 2.5 0.1666666666666667  8 2.5 0.1666666666666667  8.5 2.5 0.1666666666666667  9 2.5 0.1666666666666667  9.5 2.5 0.1666666666666667  10 2.5 0.1666666666666667  0 3 0.1666666666666667  0.5 3 0.1666666666666667  1 3 0.1666666666666667  1.5 3 0.1666666666666667  2 3 0.1666666666666667  2.5 3 0.1666666666666667  3 3 0.1666666666666667  3.5 3 0.1666666666666667  4 3 0.1666666666666667  4.5 3 0.1666666666666667  5 3 0.1666666666666667  5.5 3 0.1666666666666667  6 3 0.1666666666666667  6.5 3 0.1666666666666667  7 3 0.1666666666666667  7.5 3 0.1666666666666667  8 3 0.1666666666666667  8.5 3 0.1666666666666667  9 3 0.1666666666666667  9.5 3 0.1666666666666667  10 3 0.1666666666666667  0 0 0.3333333333333333  0.5 0 0.3333333333333333  1 0 0.3333333333333333  1.5 0 0.3333333333333333  2 0 0.3333333333333333  2.5 0 0.3333333333333333  3 0 0.3333333333333333  3.5 0 0.3333333333333333  4 0 0.3333333333333333  4.5 0 0.3333333333333333  5 0 0.3333333333333333  5.5 0 0.3333333333333333  6 0 0.3333333333333333  6.5 0 0.3333333333333333  7 0 0.3333333333333333  7.5 0 0.3333333333333333  8 0 0.3333333333333333  8.5 0 0.3333333333333333  9 0 0.3333333333333333  9.5 0 0.3333333333333333  10 0 0.3333333333333333  0 0.5 0.3333333333333333  0.5 0.5 0.3333333333333333  1 0.5 0.3333333333333333  1.5 0.5 0.3333333333333333  2 0.5 0.3333333333333333  2.5 0.5 0.3333333333333333  3 0.5 0.3333333333333333  3.5 0.5 0.3333333333333333  4 0.5 0.3333333333333333  4.5 0.5 0.3333333333333333  5 0.5 0.3333333333333333  5.5 0.5 0.3333333333333333  6 0.5 0.3333333333333333  6.5 0.5 0.3333333333333333  7 0.5 0.3333333333333333  7.5 0.5 0.3333333333333333  8 0.5 0.3333333333333333  8.5 0.5 0.3333333333333333  9 0.5 0.3333333333333333  9.5 0.5 0.3333333333333333  10 0.5 0.3333333333333333  0 1 0.3333333333333333  0.5 1 0.3333333333333333  1 1 0.3333333333333333  1.5 1 0.3333333333333333  2 1 0.3333333333333333  2.5 1 0.3333333333333333  3 1 0.3333333333333333  3.5 1 0.3333333333333333  4 1 0.3333333333333333  4.5 1 0.3333333333333333  5 1 0.3333333333333333  5.5 1 0.3333333333333333  6 1 0.3333333333333333  6.5 1 0.3333333333333333  7 1 0.3333333333333333  7.5 1 0.3333333333333333  8 1 0.3333333333333333  8.5 1 0.3333333333333333  9 1 0.3333333333333333  9.5 1 0.3333333333333333  10 1 0.3333333333333333  0 1.5 0.3333333333333333  0.5 1.5 0.3333333333333333  1 1.5 0.3333333333333333  1.5 1.5 0.3333333333333333  2 1.5 0.3333333333333333  2.5 1.5 0.3333333333333333  3 1.5 0.3333333333333333  3.5 1.5 0.3333333333333333  4 1.5 0.3333333333333333  4.5 1.5 0.3333333333333333  5 1.5 0.3333333333333333  5.5 1.5 0.3333333333333333  6 1.5 0.3333333333333333  6.5 1.5 0.3333333333333333  7 1.5 0.3333333333333333  7.5 1.5 0.3333333333333333  8 1.5 0.3333333333333333  8.5 1.5 0.3333333333333333  9 1.5 0.3333333333333333  9.5 1.5 0.3333333333333333  10 1.5 0.3333333333333333  0 2 0.3333333333333333  0.5 2 0.3333333333333333  1 2 0.3333333333333333  1.5 2 0.3333333333333333  2 2 0.3333333333333333  2.5 2 0.3333333333333333  3 2 0.3333333333333333  3.5 2 0.3333333333333333  4 2 0.3333333333333333  4.5 2 0.3333333333333333  5 2 0.3333333333333333  5.5 2 0.3333333333333333  6 2 0.3333333333333333  6.5 2 0.3333333333333333  7 2 0.3333333333333333  7.5 2 0.3333333333333333  8 2 0.3333333333333333  8.5 2 0.3333333333333333  9 2 0.3333333333333333  9.5 2 0.3333333333333333  10 2 0.3333333333333333  0 2.5 0.3333333333333333  0.5 2.5 0.3333333333333333  1 2.5 0.3333333333333333  1.5 2.5 0.3333333333333333  2 2.5 0.3333333333333333  2.5 2.5 0.3333333333333333  3 2.5 0.3333333333333333  3.5 2.5 0.3333333333333333  4 2.5 0.3333333333333333  4.5 2.5 0.3333333333333333  5 2.5 0.3333333333333333  5.5 2.5 0.3333333333333333  6 2.5 0.3333333333333333  6.5 2.5 0.3333333333333333  7 2.5 0.3333333333333333  7.5 2.5 0.3333333333333333  8 2.5 0.3333333333333333  8.5 2.5 0.3333333333333333  9 2.5 0.3333333333333333  9.5 2.5 0.3333333333333333  10 2.5 0.3333333333333333  0 3 0.3333333333333333  0.5 3 0.3333333333333333  1 3 0.3333333333333333  1.5 3 0.3333333333333333  2 3 0.3333333333333333  2.5 3 0.3333333333333333  3 3 0.3333333333333333  3.5 3 0.3333333333333333  4 3 0.3333333333333333  4.5 3 0.3333333333333333  5 3 0.3333333333333333  5.5 3 0.3333333333333333  6 3 0.3333333333333333  6.5 3 0.3333333333333333  7 3 0.3333333333333333  7.5 3 0.3333333333333333  8 3 0.3333333333333333  8.5 3 0.3333333333333333  9 3 0.3333333333333333  9.5 3 0.3333333333333333  10 3 0.3333333333333333  0 0 0.5  0.5 0 0.5  1 0 0.5  1.5 0 0.5  2 0 0.5  2.5 0 0.5  3 0 0.5  3.5 0 0.5  4 0 0.5  4.5 0 0.5  5 0 0.5  5.5 0 0.5  6 0 0.5  6.5 0 0.5  7 0 0.5  7.5 0 0.5  8 0 0.5  8.5 0 0.5  9 0 0.5  9.5 0 0.5  10 0 0.5  0 0.5 0.5  0.5 0.5 0.5  1 0.5 0.5  1.5 0.5 0.5  2 0.5 0.5  2.5 0.5 0.5  3 0.5 0.5  3.5 0.5 0.5  4 0.5 0.5  4.5 0.5 0.5  5 0.5 0.5  5.5 0.5 0.5  6 0.5 0.5  6.5 0.5 0.5  7 0.5 0.5  7.5 0.5 0.5  8 0.5 0.5  8.5 0.5 0.5  9 0.5 0.5  9.5 0.5 0.5  10 0.5 0.5  0 1 0.5  0.5 1 0.5  1 1 0.5  1.5 1 0.5  2 1 0.5  2.5 1 0.5  3 1 0.5  3.5 1 0.5  4 1 0.5  4.5 1 0.5  5 1 0.5  5.5 1 0.5  6 1 0.5  6.5 1 0.5  7 1 0.5  7.5 1 0.5  8 1 0.5  8.5 1 0.5  9 1 0.5  9.5 1 0.5  10 1 0.5  0 1.5 0.5  0.5 1.5 0.5  1 1.5 0.5  1.5 1.5 0.5  2 1.5 0.5  2.5 1.5 0.5  3 1.5 0.5  3.5 1.5 0.5  4 1.5 0.5  4.5 1.5 0.5  5 1.5 0.5  5.5 1.5 0.5  6 1.5 0.5  6.5 1.5 0.5  7 1.5 0.5  7.5 1.5 0.5  8 1.5 0.5  8.
[...]
<PointData  Vectors="f_7-0"> 
<DataArray  type="Float64"  Name="f_7-0"  NumberOfComponents="3" format="ascii">0.0000000000000000e+00 0.0000000000000000e+00 0.0000000000000000e+00  8.2137030806213962e-01 5.8089164239342150e-01 1.0108018789423562e-01  2.0154604818495239e+00 6.1749507402615855e-01 1.0155846797559864e-01  3.2326379627141253e+00 6.1830453840896038e-01 1.0225316089621854e-01  4.4527271171779548e+00 6.1812828588360325e-01 1.0237306927816189e-01  5.6742143204482414e+00 6.1805216636337013e-01 1.0240058346289473e-01  6.8959643180741912e+00 6.1801731820838013e-01 1.0240937014725843e-01  8.1177307119097666e+00 6.1800099911879436e-01 1.0241054555958021e-01  9.3394788198397176e+00 6.1799293075385564e-01 1.0241038037119764e-01  1.0561209934295492e+01 6.1798877811174935e-01 1.0241009558482927e-01  1.1782929831215247e+01 6.1798660874991640e-01 1.0240987295020025e-01  1.3004643135396922e+01 6.1798546412545796e-01 1.0240973304290996e-01  1.4226352760240584e+01 6.1798485621282384e-01 1.0240965274327435e-01  1.5448060376329650e+01 6.1798453243297058e-01 1.0240960816007348e-01  1.6669766907123726e+01 6.1798435975411814e-01 1.0240958381652489e-01  1.7891472854870131e+01 6.1798426762663161e-01 1.0240957066414016e-01  1.9113178490554528e+01 6.1798421854166430e-01 1.0240956360887549e-01  2.0334883960015638e+01 6.1798419255208104e-01 1.0240955985925829e-01  2.1556589342064822e+01 6.1798417910422554e-01 1.0240955791445808e-01  2.2778294680137559e+01 6.1798417275279660e-01 1.0240955699552476e-01  2.3999999999999993e+01 6.1798417089373581e-01 1.0240955671360565e-01  0.0000000000000000e+00 0.0000000000000000e+00 0.0000000000000000e+00  8.0963898361011066e-01 3.8192153245595556e-01 1.0336973843134012e-01  2.0096208142410226e+00 4.1219446631925510e-01 1.0253893669374313e-01  3.2314171668809961e+00 4.1254401506400251e-01 1.0277086575316256e-01  4.4524461379133129e+00 4.1226461554869009e-01 1.0280920147560159e-01  5.6741691913302486e+00 4.1217440329835919e-01 1.0281162729787410e-01  6.8959684223672735e+00 4.1213848965759847e-01 1.0281277594712632e-01  8.1177397526372328e+00 4.1212359801133402e-01 1.0281236261101545e-01  9.3394855998094286e+00 4.1211693638193164e-01 1.0281179641098605e-01  1.0561214112179247e+01 4.1211369202253262e-01 1.0281141659547946e-01  1.1782932212249827e+01 4.1211204946474395e-01 1.0281119233885881e-01  1.3004644447732980e+01 4.1211119782781985e-01 1.0281106624437567e-01  1.4226353472588288e+01 4.1211074973700940e-01 1.0281099684854532e-01  1.5448060760030035e+01 4.1211051224889461e-01 1.0281095918429922e-01  1.6669767112935315e+01 4.1211038590996807e-01 1.0281093890103767e-01  1.7891472964938497e+01 4.1211031859382147e-01 1.0281092802160437e-01  1.9113178549158533e+01 4.1211028275263051e-01 1.0281092220800665e-01  2.0334883990823702e+01 4.1211026378174487e-01 1.0281091912548031e-01  2.1556589357544208e+01 4.1211025396815654e-01 1.0281091752908104e-01  2.2778294686562528e+01 4.1211024933106882e-01 1.0281091678003008e-01  2.3999999999999993e+01 4.1211024798119167e-01 1.0281091656289294e-01  0.0000000000000000e+00 0.0000000000000000e+00 0.0000000000000000e+00  7.9900068190449292e-01 1.8957042008284303e-01 1.0563405201827011e-01  1.9997538728221591e+00 2.0645953497375591e-01 1.0347867387646398e-01  3.2291944830709554e+00 2.0659045581533525e-01 1.0332185071875849e-01  4.4519557602846715e+00 2.0635386664159419e-01 1.0324441486336111e-01  5.6741051099654047e+00 2.0628480038967106e-01 1.0322253706173187e-01  6.8959912865827846e+00 2.0625733633300641e-01 1.0321625286371169e-01  8.1177662545578624e+00 2.0624612874258169e-01 1.0321387891145425e-01  9.3395038986763605e+00 2.0624120955684105e-01 1.0321299833591448e-01  1.0561225029983781e+01 2.0623882951380856e-01 1.0321261918823334e-01  1.1782938351612039e+01 2.0623763284755373e-01 1.0321244706255397e-01  1.3004647811697037e+01 2.0623701417708737e-01 1.0321236396088219e-01  1.4226355293270444e+01 2.0623668919521915e-01 1.0321232177352357e-01  1.5448061739259170e+01 2.0623651710207280e-01 1.0321229993782781e-01  1.6669767637779429e+01 2.0623642558661104e-01 1.0321228848863548e-01  1.7891473245520025e+01 2.0623637683461363e-01 1.0321228243483989e-01  1.9113178698522702e+01 2.0623635087991277e-01 1.0321227922592342e-01  2.0334884069340244e+01 2.0623633714228673e-01 1.0321227753289912e-01  2.1556589397000828e+01 2.0623633003583033e-01 1.0321227665972306e-01  2.2778294702940677e+01 2.0623632667541847e-01 1.0321227625911392e-01  2.3999999999999993e+01 2.0623632568985192e-01 1.0321227613976695e-01  0.0000000000000000e+00 0.0000000000000000e+00 0.0000000000000000e+00  7.9554068549470558e-01 1.3204208456951822e-03 1.0646604741150467e-01  1.9953355171673113e+00 5.4460359081861046e-04 1.0401758884363430e-01  3.2285352710638469e+00 4.5838739317831070e-04 1.0376804382102334e-01  4.4519647624269449e+00 4.0072807447351838e-04 1.0365565282894450e-01  5.6741873255489601e+00 3.8733017259301580e-04 1.0362423990952829e-01  6.8960686381026752e+00 3.7590311295730976e-04 1.0361693050103875e-01  8.1178149730878406e+00 3.6953808049840144e-04 1.0361455026924252e-01  9.3395321136319858e+00 3.6625811153897565e-04 1.0361388229779858e-01  1.0561240718867730e+01 3.6446509228221118e-04 1.0361369790791913e-01  1.1782946893779247e+01 3.6350481012555692e-04 1.0361364978389045e-01  1.3004652420813398e+01 3.6299108371526840e-04 1.0361363738668468e-01  1.4226357768852342e+01 3.6271618673701074e-04 1.0361363481536610e-01  1.5448063065479102e+01 3.6256921580147123e-04 1.0361363468127772e-01  1.6669768347187649e+01 3.6249066318686456e-04 1.0361363495776933e-01  1.7891473624391157e+01 3.6244870514600601e-04 1.0361363520652504e-01  1.9113178900109702e+01 3.6242633618178586e-04 1.0361363537034303e-01  2.0334884175286554e+01 3.6241448717836154e-04 1.0361363546752840e-01  2.1556589450241045e+01 3.6240835404452161e-04 1.0361363552309553e-01  2.2778294725067237e+01 3.6240544783499570e-04 1.0361363556212461e-01  2.3999999999999993e+01 3.6240459053431804e-04 1.0361363556871840e-01  0.0000000000000000e+00 0.0000000000000000e+00 0.0000000000000000e+00  8.0044900338194913e-01 -1.8677703450656485e-01 1.0610690629657243e-01  2.0000175272176248e+00 -2.0537323593544723e-01 1.0427739986695417e-01  3.2305803463156146e+00 -2.0568262737949902e-01 1.0405963310008434e-01  4.4527179825095695e+00 -2.0552148884592583e-01 1.0402555413949996e-01  5.6744796535682314e+00 -2.0550031551545636e-01 1.0401515317288011e-01  6.8962054619205873e+00 -2.0550140399351591e-01 1.0401458952544333e-01  8.1178794384501654e+00 -2.0550455200741197e-01 1.0401431303763412e-01  9.3395647002192348e+00 -2.0550740329843908e-01 1.0401451065182764e-01  1.0561257620239376e+01 -2.0550921855205051e-01 1.0401471128447241e-01  1.1782955765527767e+01 -2.0551025956193791e-01 1.0401483466084614e-01  1.3004657123496077e+01 -2.0551083815729948e-01 1.0401490668349324e-01  1.4226360271243145e+01 -2.0551115330396721e-01 1.0401494729269938e-01  1.5448064399614431e+01 -2.0551132336551065e-01 1.0401496957808840e-01  1.6669769059109754e+01 -2.0551141470107342e-01 1.0401498164023772e-01  1.7891474004136239e+01 -2.0551146360711775e-01 1.0401498813183332e-01  1.9113179102035328e+01 -2.0551148971460034e-01 1.0401499160886518e-01  2.0334884281380074e+01 -2.0551150355415199e-01 1.0401499345635452e-01  2.1556589503553489e+01 -2.0551151072207527e-01 1.0401499441621918e-01  2.2778294747235112e+01 -2.0551151412226912e-01 1.0401499488064239e-01  2.3999999999999993e+01 -2.0551151512793178e-01 1.0401499501080648e-01  0.0000000000000000e+00 0.0000000000000000e+00 0.0000000000000000e+00  8.1729854191788698e-01 -3.8055411991324767e-01 1.0528974728848510e-01  2.0109131065655594e+00 -4.1096840162499776e-01 1.0403353416517157e-01  3.2339224251588834e+00 -4.1150147115912128e-01 1.0421552774383043e-01  4.4538095952196297e+00 -4.1137218249516883e-01 1.0439531959132606e-01  5.6748405876516701e+00 -4.1136966780832884e-01 1.0440309871855778e-01  6.8963416742831516e+00 -4.1136949403007789e-01 1.0441042324781545e-01  8.1179379148716997e+00 -4.1137532668952825e-01 1.0441397086952060e-01  9.3395918107276241e+00 -4.1137967250322510e-01 1.0441517317871898e-01  1.0561270927959281e+01 -4.1138222227919730e-01 1.0441576702265631e-01  1.1782962569503198e+01 -4.1138368791191554e-01 1.0441605264114791e-01  1.3004660676808472e+01 -4.1138449456019588e-01 1.0441619665013667e-01  1.4226362146675418e+01 -4.1138493220341565e-01 1.0441627170656356e-01  1.5448065395437494e+01 -4.1138516805657921e-01 1.0441631109535475e-01  1.6669769589395113e+01 -4.1138529460043488e-01 1.0441633193580456e-01  1.7891474286689995e+01 -4.1138536232999862e-01 1.0441634301446960e-01  1.9113179252199306e+01 -4.1138539847873523e-01 1.0441634890466435e-01  2.0334884360258865e+01 -4.1138541763875708e-01 1.0441635201999437e-01  2.1556589543189965e+01 -4.1138542756165558e-01 1.0441635363171350e-01  2.2778294763723128e+01 -4.1138543227006880e-01 1.0441635440265264e-01  2.3999999999999993e+01 -4.1138543365944213e-01 1.0441635462730821e-01  0.0000000000000000e+00 0.0000000000000000e+00 0.0000000000000000e+00  8.4461963019260611e-01 -5.7986185051959405e-01 9.9925637970886480e-02  2.0165476451471620e+00 -6.1540518093658692e-01 1.0274205094136886e-01  3.2357061343730318e+00 -6.1714653055277702e-01 1.0478752511387684e-01  4.4544240981699117e+00 -6.1720165862320087e-01 1.0478631221051445e-01  5.6749894574055872e+00 -6.1721035579786210e-01 1.0478033323143672e-01  6.8964001283270013e+00 -6.1723134764449505e-01 1.0481029182184852e-01  8.1179638146831170e+00 -6.1724432322649858e-01 1.0481433857864775e-01  9.3396028479081128e+00 -6.1725097909464977e-01 1.0481608231245589e-01  1.0561276288353797e+01 -6.1725483598141884e-01 1.0481697240705758e-01  1.1782965288592891e+01 -6.1725693067072662e-01 1.0481734188153681e-01  1.3004662084711315e+01 -6.1725805680837775e-01 1.0481752416230319e-01  1.4226362887468531e+01 -6.1725866271432639e-01 1.0481761587241792e-01  1.5448065788075029e+01 -6.1725898733444273e-01 1.0481766305485446e-01  1.6669769798275418e+01 -6.1725916104052980e-01 1.0481768780508054e-01  1.7891474397937976e+01 -6.1725925388815794e-01 1.0481770087719224e-01  1.9113179311308272e+01 -6.1725930340587210e-01 1.0481770779992430e-01  2.0334884391304829e+01 -6.1725932964195762e-01 1.0481771145436364e-01  2.1556589558790293e+01 -6.1725934322706766e-01 1.0481771334304142e-01  2.2778294770207737e+01 -6.1725934967598362e-01 1.0481771423527625e-01  2.3999999999999993e+01 -6.1725935155306189e-01 1.0481771451571210e-01  0.0000000000000000e+00 0.0000000000000000e+00 0.0000000000000000e+00  8.2280831322672920e-01 5.7923958238739304e-01 3.3374938107264378e-02  2.0155651606095075e+00 6.1713017325356045e-01 3.3179111305524887e-02  3.2326305969786606e+00 6.1815359608337761e-01 3.3683121698852896e-02  4.4527295581360198e+00 6.1798543325989053e-01 3.3756832633614946e-02  5.6742140702139245e+00 6.1791537203884517e-01 3.3775398881254214e-02  6.8959642751809591e+00 6.1788292383197807e-01 3.3783296967034283e-02  8.1177307360846527e+00 6.1786706272010083e-01 3.3784791049358484e-02  9.3394788206406929e+00 6.1785910977994130e-01 3.3785041567981636e-02  1.0561209932633977e+01 6.1785499163219404e-01 3.3785055407046925e-02  1.1782929830937059e+01 6.1785282782038953e-01 3.3785012027578651e-02  1.3004643135367234e+01 6.1785168194747453e-01 3.3784972935482611e-02  1.4226352760226431e+01 6.1785107238239345e-01 3.3784947934883895e-02  1.5448060376328717e+01 6.1785074741784607e-01 3.3784933306753806e-02  1.6669766907127361e+01 6.1785057400290422e-01 3.3784925077658332e-02  1.7891472854872703e+01 6.1785048145220078e-01 3.3784920560238553e-02  1.9113178490554958e+01 6.1785043213304391e-01 3.3784918115975407e-02  2.0334883960013766e+01 6.1785040601669361e-01 3.3784916810423102e-02  2.1556589342058661e+01 6.1785039250312679e-01 3.3784916131571557e-02  2.2778294680126582e+01 6.1785038611926080e-01 3.3784915808813459e-02  2.3999999999999993e+01 6.1785038424161953e-01 3.3784915705653375e-02  0.0000000000000000e+00 0.0000000000000000e+00 0.0000000000000000e+00  8.1102789208469817e-01 3.8153198748156614e-01 3.4599599264026434e-02  2.0099333092650271e+00 4.1180853632793168e-01 3.4008626035912037e-02  3.2314293696044882e+00 4.1237264561414733e-01 3.4152514570332915e-02  4.4524392974594793e+00 4.1212088343052689e-01 3.4184806344151879e-02  5.6741702609382720e+00 4.1203754506608220e-01 3.4185286251211928e-02  6.8959686132225002e+00 4.1200406837094655e-01 3.4186532355820136e-02  8.1177397824386315e+00 4.1198969056793477e-01 3.4186663380684212e-02  9.3394856019358752e+00 4.1198314204748820e-01 3.4186540928034255e-02  1.0561214113201311e+01 4.1197992182314913e-01 3.4186435393506277e-02  1.1782932212711573e+01 4.1197827767326267e-01 3.4186366263054289e-02  1.3004644447773984e+01 4.1197742070937748e-01 3.4186325657509051e-02  1.4226353472566560e+01 4.1197696865951222e-01 3.4186302741815534e-02  1.5448060760016908e+01 4.1197672871397034e-01 3.4186290125169466e-02  1.6669767112927865e+01 4.1197660095242389e-01 3.4186283278855686e-02  1.7891472964933712e+01 4.1197653284483282e-01 3.4186279590602296e-02  1.9113178549155048e+01 4.1197649657256108e-01 3.4186277614614173e-02  2.0334883990820178e+01 4.1197647737068505e-01 3.4186276565311750e-02  2.1556589357538844e+01 4.1197646743678512e-01 3.4186276021583424e-02  2.2778294686553952e+01 4.1197646274201222e-01 3.4186275766667266e-02  2.3999999999999993e+01 4.1197646137089800e-01 3.4186275692775672e-02  0.0000000000000000e+00 0.0000000000000000e+00 0.0000000000000000e+00  8.0062389323546290e-01 1.8928633767305117e-01 3.5415957526131130e-02  1.9999997802098595e+00 2.0618984633148055e-01 3.4794380791416578e-02  3.2292659118606282e+00 2.0642670744698882e-01 3.4656237476896327e-02  4.4519356550296578e+00 2.0621495192252559e-01 3.4604374535466720e-02  5.6741078517641128e+00 2.0614947648608167e-01 3.4593399598527877e-02  6.8959914949384826e+00 2.0612331562913158e-01 3.4589685401676798e-02  8.1177662242058943e+00 2.0611236616257522e-01 3.4588367060102876e-02  9.3395038962454660e+00 2.0610748418612818e-01 3.4587940824340968e-02  1.0561225028340056e+01 2.0610508992684307e-01 3.4587770011606157e-02  1.1782938349573987e+01 2.0610387510384609e-01 3.4587698277599971e-02  1.3004647810218463e+01 2.0610324410230818e-01 3.4587666575283123e-02  1.4226355292456123e+01 2.0610291173626824e-01 3.4587651300368998e-02  1.5448061738817124e+01 2.0610273544791069e-01 3.4587643652121948e-02  1.6669767637537571e+01 2.0610264161894995e-01 3.4587639733024589e-02  1.7891473245389363e+01 2.0610259161093958e-01 3.4587637688913327e-02  1.9113178698452497e+01 2.0610256498059473e-01 3.4587636613776014e-02  2.0334884069302397e+01 2.0610255088339005e-01 3.4587636049089654e-02  2.1556589396979824e+01 2.0610254359039948e-01 3.4587635759070576e-02  2.2778294702928342e+01 2.0610254014168702e-01 3.4587635626385685e-02  2.3999999999999993e+01 2.0610253913088647e-01 3.4587635585978119e-02  0.0000000000000000e+00 0.0000000000000000e+00 0.0000000000000000e+00  7.9718229610551106e-01 1.2579029693690611e-03 3.5833482686428567e-02  1.9954773936295065e+00 3.7865458208606367e-04 3.5311368374774457e-02  3.2286756027782619e+00 3.3346630280036528e-04 3.5096246314786958e-02  4.4519277425693069e+00 2.7176624509212747e-04 3.5007786032859207e-02  5.6741902304719138e+00 2.5446821565158274e-04 3.4996018200927237e-02  6.8960689068512533e+00 2.4264191577238564e-04 3.4991212096938097e-02  8.1178147968664796e+00 2.3602467902832726e-04 3.4989578242876067e-02  9.3395321025061531e+00 2.3261034202959576e-04 3.4989172703605430e-02  1.0561240711245965e+01 2.3075044998013825e-04 3.4989044833615736e-02  1.1782946888084929e+01 2.2975592416654196e-04 3.4989008295817872e-02  1.3004652417878694e+01 2.2922447163909289e-04 3.4988998345386581e-02  1.4226357767361618e+01 2.2894019535389719e-04 3.4988995763378931e-02  1.5448063064678518e+01 2.2878822845004868e-04 3.4988995245423871e-02  1.6669768346757650e+01 2.2870701827306042e-04 3.4988995228176396e-02  1.7891473624162106e+01 2.2866364440813142e-04 3.4988995295920332e-02  1.9113178899988029e+01 2.2864052135128626e-04 3.4988995355802403e-02  2.0334884175222630e+01 2.2862827328423531e-04 3.4988995395107150e-02  2.1556589450208911e+01 2.2862193385307010e-04 3.4988995418921837e-02  2.2778294725053900e+01 2.2861893096949256e-04 3.4988995434027906e-02  2.3999999999999993e+01 2.2861804788202385e-04 3.4988995435527900e-02  0.0000000000000000e+00 0.0000000000000000e+00 0.0000000000000000e+00  8.0202914899290101e-01 -1.8682291654006317e-01 3.6033059540288508e-02  2.0001540017712487e+00 -2.0540172651858637e-01 3.5665688966737046e-02  3.2307289507178250e+00 -2.0576127494016172e-01 3.5425031232733564e-02  4.4526698700862051e+00 -2.0564735352437413e-01 3.5391717056134274e-02  5.6744831504379718e+00 -2.0563129897401738e-01 3.5393066001754035e-02  6.8962057417338558e+00 -2.0563382373444322e-01 3.5390780845947045e-02  8.1178790864313068e+00 -2.0563792803434597e-01 3.5390252312691634e-02  9.3395647017614394e+00 -2.0564101719241226e-01 3.5390251108684219e-02  1.0561257604717754e+01 -2.0564292640309745e-01 3.5390276120829733e-02  1.1782955757154754e+01 -2.0564400952818035e-01 3.5390306659833920e-02  1.3004657119934658e+01 -2.0564460644409310e-01 3.5390327346431820e-02  1.4226360269395949e+01 -2.0564493055460120e-01 3.5390339812054347e-02  1.5448064398637644e+01 -2.0564510513360185e-01 3.5390346937594380e-02  1.6669769058594120e+01 -2.0564519879258189e-01 3.5390350870004153e-02  1.7891474003863760e+01 -2.0564524891611560e-01 3.5390353010256559e-02  1.9113179101891433e+01 -2.0564527566552104e-01 3.5390354164333448e-02  2.0334884281305495e+01 -2.0564528984268898e-01 3.5390354779785228e-02  2.1556589503517955e+01 -2.0564529718432845e-01 3.5390355100467091e-02  2.2778294747223566e+01 -2.0564530066586403e-01 3.5390355254985989e-02  2.3999999999999993e+01 -2.0564530169284800e-01 3.5390355296910189e-02  0.0000000000000000e+00 0.0000000000000000e+00 0.0000000000000000e+00  8.1918782802304690e-01 -3.8013547968792899e-01 3.6315993786728056e-02  2.0109488262757527e+00 -4.1079217721967248e-01 3.5639263834882896e-02  3.2340651897802415e+00 -4.1161815728183132e-01 3.5684805315599789e-02  4.4537712639968641e+00 -4.1150049780300901e-01 3.5782824684941518e-02  5.6748397997555555e+00 -4.1149789683853089e-01 3.5785642803033084e-02  6.8963424008159588e+00 -4.1150246469044477e-01 3.5789253493102184e-02  8.1179376388872502e+00 -4.1150877366132388e-01 3.5790833809611691e-02  9.3395917848453465e+00 -4.1151330724312546e-01 3.5791280165064727e-02  1.0561270913787412e+01 -4.1151595567770710e-01 3.5791510977290247e-02  1.1782962562074495e+01 -4.1151745031547077e-01 3.5791613269543138e-02  1.3004660673574778e+01 -4.1151826976839795e-01 3.5791662592938096e-02  1.4226362145040447e+01 -4.1151871328665829e-01 3.5791687920263000e-02  1.5448065394579022e+01 -4.1151895188302712e-01 3.5791700979200251e-02  1.6669769588948057e+01 -4.1151907980092506e-01 3.5791707824737166e-02  1.7891474286455630e+01 -4.1151914823574393e-01 3.5791711446609337e-02  1.9113179252076200e+01 -4.1151918475105703e-01 3.5791713366097197e-02  2.0334884360196174e+01 -4.1151920410255799e-01 3.5791714379356722e-02  2.1556589543162367e+01 -4.1151921412369252e-01 3.5791714902823894e-02  2.2778294763717309e+01 -4.1151921887708504e-01 3.5791715152768903e-02  2.3999999999999993e+01 -4.1151922027885729e-01 3.5791715227631700e-02  0.0000000000000000e+00 0.0000000000000000e+00 0.0000000000000000e+00  8.4202089907439071e-01 -5.7898188177781640e-01 3.4110625787952910e-02  2.0169751998146541e+00 -6.1493113239682640e-01 3.5050713652146702e-02  3.2358865930463256e+00 -6.1742730338305074e-01 3.6239194880118182e-02  4.4543478691921576e+00 -6.1731738169644357e-01 3.6157266543343808e-02  5.6749890122037918e+00 -6.1733579615239587e-01 3.6173062986234281e-02  6.8964029334429968e+00 -6.1736592905766241e-01 3.6190587950412210e-02  8.1179631471993208e+00 -6.1737766557631080e-01 3.6191321549771283e-02  9.3396028041090400e+00 -6.1738465725294034e-01 3.6192404071498992e-02  1.0561276288157769e+01 -6.1738859093826171