<?xml version="1.0"?>
<VTKFile type="UnstructuredGrid"  version="0.1"  >
<UnstructuredGrid>
<Piece  NumberOfPoints="882" NumberOfCells="3600">
<Points>
<DataArray  type="Float64"  NumberOfComponents="3"  format="ascii">0 0 0  0.5 0 0  1 0 0  1.5 0 0  2 0 0  2.5 0 0  3 0 0  3.5 0 0  4 0 0  4.5 0 0  5 0 0  5.5 0 0  6 0 0  6.5 0 0  7 0 0  7.5 0 0  8 0 0  8.5 0 0  9 0 0  9.5 0 0  10 0 0  0 0.5 0  0.5 0.5 0  1 0.5 0  1.5 0.5 0  2 0.5 0  2.5 0.5 0  3 0.5 0  3.5 0.5 0  4 0.5 0  4.5 0.5 0  5 0.5 0  5.5 0.5 0  6 0.5 0  6.5 0.5 0  7 0.5 0  7.5 0.5 0  8 0.5 0  8.5 0.5 0  9 0.5 0  9.5 0.5 0  10 0.5 0  0 1 0  0.5 1 0  1 1 0  1.5 1 0  2 1 0  2.5 1 0  3 1 0  3.5 1 0  4 1 0  4.5 1 0  5 1 0  5.5 1 0  6 1 0  6.5 1 0  7 1 0  7.5 1 0  8 1 0  8.5 1 0  9 1 0  9.5 1 0  10 1 0  0 1.5 0  0.5 1.5 0  1 1.5 0  1.5 1.5 0  2 1.5 0  2.5 1.5 0  3 1.5 0  3.5 1.5 0  4 1.5 0  4.5 1.5 0  5 1.5 0  5.5 1.5 0  6 1.5 0  6.5 1.5 0  7 1.5 0  7.5 1.5 0  8 1.5 0  8.5 1.5 0  9 1.5 0  9.5 1.5 0  10 1.5 0  0 2 0  0.5 2 0  1 2 0  1.5 2 0  2 2 0  2.5 2 0  3 2 0  3.5 2 0  4 2 0  4.5 2 0  5 2 0  5.5 2 0  6 2 0  6.5 2 0  7 2 0  7.5 2 0  8 2 0  8.5 2 0  9 2 0  9.5 2 0  10 2 0  0 2.5 0  0.5 2.5 0  1 2.5 0  1.5 2.5 0  2 2.5 0  2.5 2.5 0  3 2.5 0  3.5 2.5 0  4 2.5 0  4.5 2.5 0  5 2.5 0  5.5 2.5 0  6 2.5 0  6.5 2.5 0  7 2.5 0  7.5 2.5 0  8 2.5 0  8.5 2.5 0  9 2.5 0  9.5 2.5 0  10 2.5 0  0 3 0  0.5 3 0  1 3 0  1.5 3 0  2 3 0  2.5 3 0  3 3 0  3.5 3 0  4 3 0  4.5 3 0  5 3 0  5.5 3 0  6 3 0  6.5 3 0  7 3 0  7.5 3 0  8 3 0  8.5 3 0  9 3 0  9.5 3 0  10 3 0  0 0 0.1  0.5 0 0.1  1 0 0.1  1.5 0 0.1  2 0 0.1  2.5 0 0.1  3 0 0.1  3.5 0 0.1  4 0 0.1  4.5 0 0.1  5 0 0.1  5.5 0 0.1  6 0 0.1  6.5 0 0.1  7 0 0.1  7.5 0 0.1  8 0 0.1  8.5 0 0.1  9 0 0.1  9.5 0 0.1  10 0 0.1  0 0.5 0.1  0.5 0.5 0.1  1 0.5 0.1  1.5 0.5 0.1  2 0.5 0.1  2.5 0.5 0.1  3 0.5 0.1  3.5 0.5 0.1  4 0.5 0.1  4.5 0.5 0.1  5 0.5 0.1  5.5 0.5 0.1  6 0.5 0.1  6.5 0.5 0.1  7 0.5 0.1  7.5 0.5 0.1  8 0.5 0.1  8.5 0.5 0.1  9 0.5 0.1  9.5 0.5 0.1  10 0.5 0.1  0 1 0.1  0.5 1 0.1  1 1 0.1  1.5 1 0.1  2 1 0.1  2.5 1 0.1  3 1 0.1  3.5 1 0.1  4 1 0.1  4.5 1 0.1  5 1 0.1  5.5 1 0.1  6 1 0.1  6.5 1 0.1  7 1 0.1  7.5 1 0.1  8 1 0.1  8.5 1 0.1  9 1 0.1  9.5 1 0.1  10 1 0.1  0 1.5 0.1  0.5 1.5 0.1  1 1.5 0.1  1.5 1.5 0.1  2 1.5 0.1  2.5 1.5 0.1  3 1.5 0.1  3.5 1.5 0.1  4 1.5 0.1  4.5 1.5 0.1  5 1.5 0.1  5.5 1.5 0.1  6 1.5 0.1  6.5 1.5 0.1  7 1.5 0.1  7.5 1.5 0.1  8 1.5 0.1  8.5 1.5 0.1  9 1.5 0.1  9.5 1.5 0.1  10 1.5 0.1  0 2 0.1  0.5 2 0.1  1 2 0.1  1.5 2 0.1  2 2 0.1  2.5 2 0.1  3 2 0.1  3.5 2 0.1  4 2 0.1  4.5 2 0.1  5 2 0.1  5.5 2 0.1  6 2 0.1  6.5 2 0.1  7 2 0.1  7.5 2 0.1  8 2 0.1  8.5 2 0.1  9 2 0.1  9.5 2 0.1  10 2 0.1  0 2.5 0.1  0.5 2.5 0.1  1 2.5 0.1  1.5 2.5 0.1  2 2.5 0.1  2.5 2.5 0.1  3 2.5 0.1  3.5 2.5 0.1  4 2.5 0.1  4.5 2.5 0.1  5 2.5 0.1  5.5 2.5 0.1  6 2.5 0.1  6.5 2.5 0.1  7 2.5 0.1  7.5 2.5 0.1  8 2.5 0.1  8.5 2.5 0.1  9 2.5 0.1  9.5 2.5 0.1  10 2.5 0.1  0 3 0.1  0.5 3 0.1  1 3 0.1  1.5 3 0.1  2 3 0.1  2.5 3 0.1  3 3 0.1  3.5 3 0.1  4 3 0.1  4.5 3 0.1  5 3 0.1  5.5 3 0.1  6 3 0.1  6.5 3 0.1  7 3 0.1  7.5 3 0.1  8 3 0.1  8.5 3 0.1  9 3 0.1  9.5 3 0.1  10 3 0.1  0 0 0.2  0.5 0 0.2  1 0 0.2  1.5 0 0.2  2 0 0.2  2.5 0 0.2  3 0 0.2  3.5 0 0.2  4 0 0.2  4.5 0 0.2  5 0 0.2  5.5 0 0.2  6 0 0.2  6.5 0 0.2  7 0 0.2  7.5 0 0.2  8 0 0.2  8.5 0 0.2  9 0 0.2  9.5 0 0.2  10 0 0.2  0 0.5 0.2  0.5 0.5 0.2  1 0.5 0.2  1.5 0.5 0.2  2 0.5 0.2  2.5 0.5 0.2  3 0.5 0.2  3.5 0.5 0.2  4 0.5 0.2  4.5 0.5 0.2  5 0.5 0.2  5.5 0.5 0.2  6 0.5 0.2  6.5 0.5 0.2  7 0.5 0.2  7.5 0.5 0.2  8 0.5 0.2  8.5 0.5 0.2  9 0.5 0.2  9.5 0.5 0.2  10 0.5 0.2  0 1 0.2  0.5 1 0.2  1 1 0.2  1.5 1 0.2  2 1 0.2  2.5 1 0.2  3 1 0.2  3.5 1 0.2  4 1 0.2  4.5 1 0.2  5 1 0.2  5.5 1 0.2  6 1 0.2  6.5 1 0.2  7 1 0.2  7.5 1 0.2  8 1 0.2  8.5 1 0.2  9 1 0.2  9.5 1 0.2  10 1 0.2  0 1.5 0.2  0.5 1.5 0.2  1 1.5 0.2  1.5 1.5 0.2  2 1.5 0.2  2.5 1.5 0.2  3 1.5 0.2  3.5 1.5 0.2  4 1.5 0.2  4.5 1.5 0.2  5 1.5 0.2  5.5 1.5 0.2  6 1.5 0.2  6.5 1.5 0.2  7 1.5 0.2  7.5 1.5 0.2  8 1.5 0.2  8.5 1.5 0.2  9 1.5 0.2  9.5 1.5 0.2  10 1.5 0.2  0 2 0.2  0.5 2 0.2  1 2 0.2  1.5 2 0.2  2 2 0.2  2.5 2 0.2  3 2 0.2  3.5 2 0.2  4 2 0.2  4.5 2 0.2  5 2 0.2  5.5 2 0.2  6 2 0.2  6.5 2 0.2  7 2 0.2  7.5 2 0.2  8 2 0.2  8.5 2 0.2  9 2 0.2  9.5 2 0.2  10 2 0.2  0 2.5 0.2  0.5 2.5 0.2  1 2.5 0.2  1.5 2.5 0.2  2 2.5 0.2  2.5 2.5 0.2  3 2.5 0.2  3.5 2.5 0.2  4 2.5 0.2  4.5 2.5 0.2  5 2.5 0.2  5.5 2.5 0.2  6 2.5 0.2  6.5 2.5 0.2  7 2.5 0.2  7.5 2.5 0.2  8 2.5 0.2  8.5 2.5 0.2  9 2.5 0.2  9.5 2.5 0.2  10 2.5 0.2  0 3 0.2  0.5 3 0.2  1 3 0.2  1.5 3 0.2  2 3 0.2  2.5 3 0.2  3 3 0.2  3.5 3 0.2  4 3 0.2  4.5 3 0.2  5 3 0.2  5.5 3 0.2  6 3 0.2  6.5 3 0.2  7 3 0.2  7.5 3 0.2  8 3 0.2  8.5 3 0.2  9 3 0.2  9.5 3 0.2  10 3 0.2  0 0 0.3  0.5 0 0.3  1 0 0.3  1.5 0 0.3  2 0 0.3  2.5 0 0.3  3 0 0.3  3.5 0 0.3  4 0 0.3  4.5 0 0.3  5 0 0.3  5.5 0 0.3  6 0 0.3  6.5 0 0.3  7 0 0.3  7.5 0 0.3  8 0 0.3  8.5 0 0.3  9 0 0.3  9.5 0 0.3  10 0 0.3  0 0.5 0.3  0.5 0.5 0.3  1 0.5 0.3  1.5 0.5 0.3  2 0.5 0.3  2.5 0.5 0.3  3 0.5 0.3  3.5 0.5 0.3  4 0.5 0.3  4.5 0.5 0.3  5 0.5 0.3  5.5 0.5 0.3  6 0.5 0.3  6.5 0.5 0.3  7 0.5 0.3  7.5 0.5 0.3  8 0.5 0.3  8.5 0.5 0.3  9 0.5 0.3  9.5 0.5 0.3  10 0.5 0.3  0 1 0.3  0.5 1 0.3  1 1 0.3  1.5 1 0.3  2 1 0.3  2.5 1 0.3  3 1 0.3  3.5 1 0.3  4 1 0.3  4.5 1 0.3  5 1 0.3  5.5 1 0.3  6 1 0.3  6.5 1 0.3  7 1 0.3  7.5 1 0.3  8 1 0.3  8.5 1 0.3  9 1 0.3  9.5 1 0.3  10 1 0.3  0 1.5 0.3  0.5 1.5 0.3  1 1.5 0.3  1.5 1.5 0.3  2 1.5 0.3  2.5 1.5 0.3  3 1.5 0.3  3.5 1.5 0.3  4 1.5 0.3  4.5 1.5 0.3  5 1.5 0.3  5.5 1.5 0.3  6 1.5 0.3  6.5 1.5 0.3  7 1.5 0.3  7.5 1.5 0.3  8 1.5 0.3  8.5 1.5 0.3  9 1.5 0.3  9.5 1.5 0.3  10 1.5 0.3  0 2 0.3  0.5 2 0.3  1 2 0.3  1.5 2 0.3  2 2 0.3  2.5 2 0.3  3 2 0.3  3.5 2 0.3  4 2 0.3  4.5 2 0.3  5 2 0.3  5.5 2 0.3  6 2 0.3  6.5 2 0.3  7 2 0.3  7.5 2 0.3  8 2 0.3  8.5 2 0.3  9 2 0.3  9.5 2 0.3  10 2 0.3  0 2.5 0.3  0.5 2.5 0.3  1 2.5 0.3  1.5 2.5 0.3  2 2.5 0.3  2.5 2.5 0.3  3 2.5 0.3  3.5 2.5 0.3  4 2.5 0.3  4.5 2.5 0.3  5 2.5 0.3  5.5 2.5 0.3  6 2.5 0.3  6.5 2.5 0.3  7 2.5 0.3  7.5 2.5 0.3  8 2.5 0.3  8.5 2.5 0.3  9 2.5 0.3  9.5 2.5 0.3  10 2.5 0.3  0 3 0.3  0.5 3 0.3  1 3 0.3  1.5 3 0.3  2 3 0.3  2.5 3 0.3  3 3 0.3  3.5 3 0.3  4 3 0.3  4.5 3 0.3  5 3 0.3  5.5 3 0.3  6 3 0.3  6.5 3 0.3  7 3 0.3  7.5 3 0.3  8 3 0.3  8.5 3 0.3  9 3 0.3  9.5 3 0.3  10 3 0.3  0 0 0.4  0.5 0 0.4  1 0 0.4  1.5 0 0.4  2 0 0.4  2.5 0 0.4  3 0 0.4  3.5 0 0.4  4 0 0.4  4.5 0 0.4  5 0 0.4  5.5 0 0.4  6 0 0.4  6.5 0 0.4  7 0 0.4  7.5 0 0.4  8 0 0.4  8.5 0 0.4  9 0 0.4  9.5 0 0.4  10 0 0.4  0 0.5 0.4  0.5 0.5 0.4  1 0.5 0.4  1.5 0.5 0.4  2 0.5 0.4  2.5 0.5 0.4  3 0.5 0.4  3.5 0.5 0.4  4 0.5 0.4  4.5 0.5 0.4  5 0.5 0.4  5.5 0.5 0.4  6 0.5 0.4  6.5 0.5 0.4  7 0.5 0.4  7.5 0.5 0.4  8 0.5 0.4  8.5 0.5 0.4  9 0.5 0.4  9.5 0.5 0.4  10 0.5 0.4  0 1 0.4  0.5 1 0.4  1 1 0.4  1.5 1 0.4  2 1 0.4  2.5 1 0.4  3 1 0.4  3.5 1 0.4  4 1 0.4  4.5 1 0.4  5 1 0.4  5.5 1 0.4  6 1 0.4  6.5 1 0.4  7 1 0.4  7.5 1 0.4  8 1 0.4  8.5 1 0.4  9 1 0.4  9.5 1 0.4  10 1 0.4  0 1.5 0.4  0.5 1.5 0.4  1 1.5 0.4  1.5 1.5 0.4  2 1.5 0.4  2.5 1.5 0.4  3 1.5 0.4  3.5 1.5 0.4  4 1.5 0.4  4.5 1.5 0.4  5 1.5 0.4  5.5 1.5 0.4  6 1.5 0.4  6.5 1.5 0.4  7 1.5 0.4  7.5 1.5 0.4  8 1.5 0.4  8.5 1.5 0.4  9 1.5 0.4  9.5 1.5 0.4  10 1.5 0.4  0 2 0.4  0.5 2 0.4  1 2 0.4  1.5 2 0.4  2 2 0.4  2.5 2 0.4  3 2 0.4  3.5 2 0.4  4 2 0.4  4.5 2 0.4  5 2 0.4  5.5 2 0.4  6 2 0.4  6.5 2 0.4  7 2 0.4  7.5 2 0.4  8 2 0.4  8.5 2 0.4  9 2 0.4  9.5 2 0.4  10 2 0.4  0 2.5 0.4  0.5 2.5 0.4  1 2.5 0.4  1.5 2.5 0.4  2 2.5 0.4  2.5 2.5 0.4  3 2.5 0.4  3.5 2.5 0.4  4 2.5 0.4  4.5 2.5 0.4  5 2.5 0.4  5.5 2.5 0.4  6 2.5 0.4  6.5 2.5 0.4  7 2.5 0.4  7.5 2.5 0.4  8 2.5 0.4  8.5 2.5 0.4  9 2.5 0.4  9.5 2.5 0.4  10 2.5 0.4  0 3 0.4  0.5 3 0.4  1 3 0.4  1.5 3 0.4  2 3 0.4  2.5 3 0.4  3 3 0.4  3.5 3 0.4  4 3 0.4  4.5 3 0.4  5 3 0.4  5.5 3 0.4  6 3 0.4  6.5 3 0.4  7 3 0.4  7.5 3 0.4  8 3 0.4  8.5 3 0.4  9 3 0.4  9.5 3 0.4  10 3 0.4  0 0 0.5  0.5 0 0.5  1 0 0.5  1.5 0 0.5  2 0 0.5  2.5 0 0.5  3 0 0.5  3.5 0 0.5  4 0 0.5  4.5 0 0.5  5 0 0.5  5.5 0 0.5  6 0 0.5  6.5 0 0.5  7 0 0.5  7.5 0 0.5  8 0 0.5  8.5 0 0.5  9 0 0.5  9.5 0 0.5  10 0 0.5  0 0.5 0.5  0.5 0.5 0.5  1 0.5 0.5  1.5 0.5 0.5  2 0.5 0.5  2.5 0.5 0.5  3 0.5 0.5  3.5 0.5 0.5  4 0.5 0.5  4.5 0.5 0.5  5 0.5 0.5  5.5 0.5 0.5  6 0.5 0.5  6.5 0.5 0.5  7 0.5 0.5  7.5 0.5 0.5  8 0.5 0.5  8.5 0.5 0.5  9 0.5 0.5  9.5 0.5 0.5  10 0.5 0.5  0 1 0.5  0.5 1 0.5  1 1 0.5  1.5 1 0.5  2 1 0.5  2.5 1 0.5  3 1 0.5  3.5 1 0.5  4 1 0.5  4.5 1 0.5  5 1 0.5  5.5 1 0.5  6 1 0.5  6.5 1 0.5  7 1 0.5  7.5 1 0.5  8 1 0.5  8.5 1 0.5  9 1 0.5  9.5 1 0.5  10 1 0.5  0 1.5 0.5  0.5 1.5 0.5  1 1.5 0.5  1.5 1.5 0.5  2 1.5 0.5  2.5 1.5 0.5  3 1.5 0.5  3.5 1.5 0.5  4 1.5 0.5  4.5 1.5 0.5  5 1.5 0.5  5.5 1.5 0.5  6 1.5 0.5  6.5 1.5 0.5  7 1.5 0.5  7.5 1.5 0.5  8 1.5 0.5  8.5 1.5 0.5  9 1.5 0.5  9.5 1.5 0.5  10 1.5 0.5  0 2 0.5  0.5 2 0.5  1 2 0.5  1.5 2 0.5  2 2 0.5  2.5 2 0.5  3 2 0.5  3.5 2 0.5  4 2 0.5  4.5 2 0.5  5 2 0.5  5.5 2 0.5  6 2 0.5  6.5 2 0.5  7 2 0.5  7.5 2 0.5  8 2 0.5  8.5 2 0.5  9 2 0.5  9.5 2 0.5  10 2 0.5  0 2.5 0.5  0.5 2.5 0.5  1 2.5 0.5  1.5 2.5 0.5  2 2.5 0.5  2.5 2.5 0.5  3 2.5 0.5  3.5 2.5 0.5  4 2.5 0.5  4.5 2.5 0.5  5 2.5 0.5  5.5 2.5 0.5  6 2.5 0.5  6.5 2.5 0.5  7 2.5 0.5  7.5 2.5 0.5  8 2.5 0.5  8.5 2.5 0.5  9 2.5 0.5  9.5 2.5 0.5  10 2.5 0.5  0 3 0.5  0.5 3 0.5  1 3 0.5  1.5 3 0.5  2 3 0.5  2.5 3 0.5  3 3 0.5  3.5 3 0.5  4 3 0.5  4.5 3 0.5  5 3 0.5  5.5 3 0.5  6 3 0.5  6.5 3 0.5  7 3 0.5  7.5 3 0.5  8 3 0.5  8.5 3 0.5  9 3 0.5  9.5 3 0.5  10 3 0.5  </DataArray>
</Points>
<Cells>
[...]
<PointData  Vectors="f_7-0"> 
<DataArray  type="Float64"  Name="f_7-0"  NumberOfComponents="3" format="ascii">0.0000000000000000e+00 0.0000000000000000e+00 0.0000000000000000e+00  1.2741543498446742e-01 9.7604502907706447e-02 2.4495926501955399e-02  2.4591733150839787e-01 1.6898010586819373e-01 2.2430707333762644e-02  3.6529981084016727e-01 2.1546411194313686e-01 2.4467744602422965e-02  5.1270600266267796e-01 2.3253334453308186e-01 2.8389963642351076e-02  6.8324416583323022e-01 2.3210782836944177e-01 2.9639155135834469e-02  8.5995577337267648e-01 2.2930717164399789e-01 2.9488109666253391e-02  1.0354629133324704e+00 2.2861822585458452e-01 2.9260829349902189e-02  1.2096628362577000e+00 2.2901821304538642e-01 2.9189970899818639e-02  1.3835554573563920e+00 2.2948234119258473e-01 2.9193936664257698e-02  1.5575622041331134e+00 2.2974580473939396e-01 2.9209427854113373e-02  1.7317070847686800e+00 2.2986317990302932e-01 2.9218018273092346e-02  1.9059229385256435e+00 2.2991688758981962e-01 2.9220835198035512e-02  2.0801648470352445e+00 2.2994787228196900e-01 2.9221538703096024e-02  2.2544163408206490e+00 2.2996880255893057e-01 2.9221876068526716e-02  2.4286733750653995e+00 2.2998283957921214e-01 2.9222210115111464e-02  2.6029346492565368e+00 2.2999165790988990e-01 2.9222494621620004e-02  2.7771989537652222e+00 2.2999688625945761e-01 2.9222686474229074e-02  2.9514651411902282e+00 2.2999983575458463e-01 2.9222796298949191e-02  3.1257323511288062e+00 2.3000133201571071e-01 2.9222850238743523e-02  3.2999999999999998e+00 2.3000178922465517e-01 2.9222865672002947e-02  0.0000000000000000e+00 0.0000000000000000e+00 0.0000000000000000e+00  7.1122372647821980e-02 3.7632184273373587e-02 2.5838252316163095e-02  2.0117748113102413e-01 1.1870684890315443e-01 2.5852283850314420e-02  3.4366322118078940e-01 1.5812833917882338e-01 2.7661495883299195e-02  5.0994309062218235e-01 1.6572249709519221e-01 2.9369044841992736e-02  6.8545596463708591e-01 1.6186405819978669e-01 2.9379398943051433e-02  8.6098591580593586e-01 1.5947513217507744e-01 2.9297392881828910e-02  1.0353598372134505e+00 1.5940728733563464e-01 2.9276609511104383e-02  1.2093216571223966e+00 1.5998162704360364e-01 2.9278121311156660e-02  1.3833268224157895e+00 1.6040825234292391e-01 2.9285980361449096e-02  1.5574554688567046e+00 1.6061103293180087e-01 2.9291698053888173e-02  1.7316609840137849e+00 1.6069522915373491e-01 2.9294419264768046e-02  1.9058988520872036e+00 1.6073650368092163e-01 2.9295593484035834e-02  2.0801490526810347e+00 1.6076311793609593e-01 2.9296210027213481e-02  2.2544055125852895e+00 1.6078169401095899e-01 2.9296625967783294e-02  2.4286663783272147e+00 1.6079392777136142e-01 2.9296918230531481e-02  2.6029304144224623e+00 1.6080142310326367e-01 2.9297109559603990e-02  2.7771965084698476e+00 1.6080580655569829e-01 2.9297225783353288e-02  2.9514638127352391e+00 1.6080827731998926e-01 2.9297292076593585e-02  3.1257317661866275e+00 1.6080953756547270e-01 2.9297325347527638e-02  3.2999999999999998e+00 1.6080992710994330e-01 2.9297335564743517e-02  0.0000000000000000e+00 0.0000000000000000e+00 0.0000000000000000e+00  3.8843221258122118e-02 7.7137151368360116e-03 2.1005035199751908e-02  1.6082417186656944e-01 6.4643867277331166e-02 3.0858118022855565e-02  3.2675685135143134e-01 9.2134971531784043e-02 3.0224666029102232e-02  5.0845792923821687e-01 9.3792701118765170e-02 2.9527241720085886e-02  6.8710504416802831e-01 9.1081564632060769e-02 2.9009822145464482e-02  8.6163755219817606e-01 9.0143134590771945e-02 2.9194527217631813e-02  1.0351872113435887e+00 9.0450581198262797e-02 2.9333369409737516e-02  1.2090057839328485e+00 9.0962219151443507e-02 2.9373505811451893e-02  1.3831224354327130e+00 9.1287919270132412e-02 2.9374851110344553e-02  1.5573576649818923e+00 9.1441917955411678e-02 2.9370813735542015e-02  1.7316161557762892e+00 9.1512123991859512e-02 2.9369534092920480e-02  1.9058743953343362e+00 9.1550668267607854e-02 2.9370066516260940e-02  2.0801331313422255e+00 9.1575958681022682e-02 2.9370853470062588e-02  2.2543948423092166e+00 9.1592947062990773e-02 2.9371348150405215e-02  2.4286595762713397e+00 9.1603776309743215e-02 2.9371579259885441e-02  2.6029263067208008e+00 9.1610333592201318e-02 2.9371682428917741e-02  2.7771941272864358e+00 9.1614182542307507e-02 2.9371737137274256e-02  2.9514625128314731e+00 9.1616370489135859e-02 2.9371770750349149e-02  3.1257311913688874e+00 9.1617493272166506e-02 2.9371789322932679e-02  3.2999999999999998e+00 9.1617840064178349e-02 2.9371795688663577e-02  0.0000000000000000e+00 0.0000000000000000e+00 0.0000000000000000e+00  3.3665891295303681e-02 4.3975927794293991e-03 1.6729850530378530e-02  1.3390025598581443e-01 6.9695271761814667e-03 3.4682948683941443e-02  3.1900108210580858e-01 1.8195410004872278e-02 3.0877281739928174e-02  5.0796156159412909e-01 1.8870060456922823e-02 2.9317804213902711e-02  6.8721948654953446e-01 2.0127228308059218e-02 2.8988244549287029e-02  8.6150319908457296e-01 2.1098795719942387e-02 2.9259050406032171e-02  1.0349026102031651e+00 2.1631663903102092e-02 2.9414754319369855e-02  1.2087595659930188e+00 2.1937024296361064e-02 2.9460061248759654e-02  1.3829686792832574e+00 2.2126579933736009e-02 2.9456324281324227e-02  1.5572743225179280e+00 2.2243734117460820e-02 2.9448190578691233e-02  1.7315709397127794e+00 2.2315267630029178e-02 2.9445180530553696e-02  1.9058477521648436e+00 2.2359043245785162e-02 2.9445200509471130e-02  2.0801163982611941e+00 2.2385871968562305e-02 2.9445800446934092e-02  2.2543842496369044e+00 2.2402278311564144e-02 2.9446142298200785e-02  2.4286530156356130e+00 2.2412282242863440e-02 2.9446241913698174e-02  2.6029223474604746e+00 2.2418354552586263e-02 2.9446252191770095e-02  2.7771918050746960e+00 2.2421994595846012e-02 2.9446250187066342e-02  2.9514612317657214e+00 2.2424098729368472e-02 2.9446252189662368e-02  3.1257306224841508e+00 2.2425184226489262e-02 2.9446255014912121e-02  3.2999999999999998e+00 2.2425518793803598e-02 2.9446256877617070e-02  0.0000000000000000e+00 0.0000000000000000e+00 0.0000000000000000e+00  3.9300533108906362e-02 -2.3098102182159612e-03 2.1655618978655002e-02  1.4507572131836710e-01 -4.1146844298405406e-02 3.2280555613369365e-02  3.2020437863232493e-01 -6.0358620382609106e-02 3.0603214063937647e-02  5.0672116891465957e-01 -5.5999019413088616e-02 2.9246231256815119e-02  6.8548768257498260e-01 -5.0785417870616308e-02 2.9319898145880017e-02  8.6047663782280281e-01 -4.8053316958888592e-02 2.9448886613410066e-02  1.0345059357519306e+00 -4.7276432691452375e-02 2.9517730752939311e-02  1.2086013263815265e+00 -4.7135843326706187e-02 2.9537333649261938e-02  1.3828740194349305e+00 -4.7061823277496438e-02 2.9531786378805498e-02  1.5572056167066839e+00 -4.6970971572636883e-02 2.9525105759720151e-02  1.7315233599216118e+00 -4.6891588036903763e-02 2.9522043649124405e-02  1.9058175982088397e+00 -4.6838658371670755e-02 2.9521294106122521e-02  2.0800983328306679e+00 -4.6807963048937966e-02 2.9521169418979941e-02  2.2543735669862661e+00 -4.6790708912163186e-02 2.9521072220688584e-02  2.4286466201667243e+00 -4.6780640390023893e-02 2.9520950508571845e-02  2.6029184800458194e+00 -4.6774507584573688e-02 2.9520848976871083e-02  2.7771894994393489e+00 -4.6770749926870123e-02 2.9520783992322351e-02  2.9514599433552768e+00 -4.6768541758717856e-02 2.9520748351220330e-02  3.1257300476798693e+00 -4.6767396722650886e-02 2.9520730903758910e-02  3.2999999999999998e+00 -4.6767044911551044e-02 2.9520725725532840e-02  0.0000000000000000e+00 0.0000000000000000e+00 0.0000000000000000e+00  6.0893614955097604e-02 -2.3571564780617529e-02 2.6856096430036672e-02  1.8577270638739066e-01 -9.4164369091614103e-02 2.6674519286526307e-02  3.3061370173423149e-01 -1.3183911712690677e-01 2.7832059833815658e-02  5.0441578788772423e-01 -1.2925728393681710e-01 2.9690615177452539e-02  6.8224282375800671e-01 -1.2158957811605384e-01 2.9800248092588424e-02  8.5881238416821237e-01 -1.1766844301481012e-01 2.9727307735629149e-02  1.0340056824119501e+00 -1.1647544636474706e-01 2.9646535841031805e-02  1.2084964803784524e+00 -1.1629559699276534e-01 2.9612653634511949e-02  1.3828227874873269e+00 -1.1626398840646883e-01 2.9604105603749903e-02  1.5571480175826800e+00 -1.1618935776923552e-01 2.9601613050246660e-02  1.7314734717766562e+00 -1.1610438623164548e-01 2.9599825649236609e-02  1.9057842222717138e+00 -1.1604255489545835e-01 2.9598184110917022e-02  2.0800788726357795e+00 -1.1600624884533502e-01 2.9596942128127017e-02  2.2543625909631970e+00 -1.1598633000814679e-01 2.9596169102694626e-02  2.4286402241931504e+00 -1.1597502956999199e-01 2.9595732036417667e-02  2.6029146107464602e+00 -1.1596821870959065e-01 2.9595487077370041e-02  2.7771871643921280e+00 -1.1596402654828933e-01 2.9595345551707980e-02  2.9514586253130588e+00 -1.1596154302775499e-01 2.9595263473842819e-02  3.1257294571371133e+00 -1.1596024830741559e-01 2.9595220252895262e-02  3.2999999999999998e+00 -1.1595985153056877e-01 2.9595205989632948e-02  0.0000000000000000e+00 0.0000000000000000e+00 0.0000000000000000e+00  1.1227255513562509e-01 -7.3137347231681832e-02 2.5336078199640042e-02  2.3336647745709091e-01 -1.4911993458238892e-01 2.1518472675613066e-02  3.4928033298153838e-01 -1.8979585448415959e-01 2.4470438407474201e-02  5.0169607354130474e-01 -1.9893307482863698e-01 2.9930628681468976e-02  6.7831099852513266e-01 -1.9259522048026431e-01 3.0194997526186294e-02  8.5691419051174955e-01 -1.8793554343011551e-01 3.0039695964572628e-02  1.0334279411642455e+00 -1.8603928803067263e-01 2.9803206938724017e-02  1.2083954558112746e+00 -1.8555913947763453e-01 2.9702863187482623e-02  1.3827864791994224e+00 -1.8547239481602831e-01 2.9677781486365320e-02  1.5570951856384585e+00 -1.8540415411127142e-01 2.9677245920217921e-02  1.7314226167331508e+00 -1.8532078341677322e-01 2.9677368595659143e-02  1.9057491627346184e+00 -1.8525257184480404e-01 2.9675286699346298e-02  2.0800584660629196e+00 -1.8520922728090511e-01 2.9672981034436906e-02  2.2543512442967280e+00 -1.8518466002247946e-01 2.9671438379240741e-02  2.4286336889955282e+00 -1.8517085168632291e-01 2.9670601048976040e-02  2.6029106662481798e+00 -1.8516273076904619e-01 2.9670168744717153e-02  2.7771847753632617e+00 -1.8515780446397584e-01 2.9669932368185679e-02  2.9514572708425288e+00 -1.8515488891226878e-01 2.9669796115974534e-02  3.1257288479375740e+00 -1.8515336105579963e-01 2.9669723144304331e-02  3.2999999999999998e+00 -1.8515288915062025e-01 2.9669698101769813e-02  0.0000000000000000e+00 0.0000000000000000e+00 0.0000000000000000e+00  1.2844075902890659e-01 9.7125421780120749e-02 1.5312637749839441e-02  2.4574036897240328e-01 1.6845999950498902e-01 1.3362253575456388e-02  3.6510076662257440e-01 2.1488876081611183e-01 1.4366154183808436e-02  5.1260938288527269e-01 2.3238625920758377e-01 1.6777518048898758e-02  6.8323628246902612e-01 2.3216280379948812e-01 1.7558736044343892e-02  8.5996641915739369e-01 2.2933859231261194e-01 1.7443570483967601e-02  1.0354677581149598e+00 2.2861219099081270e-01 1.7291147340897792e-02  1.2096630945381290e+00 2.2900035428746093e-01 1.7243281240897714e-02  1.3835546671383971e+00 2.2946417480067424e-01 1.7244033297025958e-02  1.5575616554568614e+00 2.2972938543174398e-01 1.7252742140390867e-02  1.7317068612857824e+00 2.2984772117805624e-01 1.7257511335245702e-02  1.9059228637167880e+00 2.2990166294949255e-01 1.7258911803770895e-02  2.0801648117863638e+00 2.2993263905702493e-01 1.7259148400702910e-02  2.2544163137184543e+00 2.2995354721154496e-01 1.7259248040311339e-02  2.4286733537485765e+00 2.2996758812160423e-01 1.7259395954168647e-02  2.6029346347486837e+00 2.2997642055153364e-01 1.7259539943409105e-02  2.7771989451123886e+00 2.2998166049789798e-01 1.7259640874194657e-02  2.9514651366825730e+00 2.2998461656934563e-01 1.7259699116895937e-02  3.1257323494871363e+00 2.2998611581807848e-01 1.7259727653601363e-02  3.2999999999999998e+00 2.2998657473691586e-01 1.7259736252933554e-02  0.0000000000000000e+00 0.0000000000000000e+00 0.0000000000000000e+00  7.1649442809777003e-02 3.8718411741614334e-02 1.5594418417738660e-02  2.0108572726548626e-01 1.1803731848501829e-01 1.5411421866502068e-02  3.4357404350225834e-01 1.5765559427431861e-01 1.6334630153122347e-02  5.0989895016266151e-01 1.6557113143942620e-01 1.7410116724302357e-02  6.8546928745863289e-01 1.6186845126496674e-01 1.7392016758756356e-02  8.6099254524063218e-01 1.5949429817333075e-01 1.7340506573235940e-02  1.0353599299622960e+00 1.5940462273562864e-01 1.7325499914649982e-02  1.2093206607374114e+00 1.5996642403943731e-01 1.7324167102193602e-02  1.3833262102581405e+00 1.6039080238895517e-01 1.7328067165900300e-02  1.5574552333425782e+00 1.6059453500317705e-01 1.7331192695354183e-02  1.7316609098692661e+00 1.6067960087016478e-01 1.7332663650382708e-02  1.9058988164684763e+00 1.6072119720355607e-01 1.7333270639559792e-02  2.0801490230810900e+00 1.6074786386731518e-01 1.7333579595936070e-02  2.2544054885174409e+00 1.6076643676188707e-01 1.7333793934007004e-02  2.4286663617113966e+00 1.6077867570762297e-01 1.7333950376206109e-02  2.6029304042664103e+00 1.6078618386272819e-01 1.7334055274136385e-02  2.7771965026975742e+00 1.6079057888116130e-01 1.7334119809575135e-02  2.9514638097584518e+00 1.6079305694752674e-01 1.7334156846153474e-02  3.1257317651052405e+00 1.6079432099202717e-01 1.7334175524698250e-02  3.2999999999999998e+00 1.6079471161122369e-01 1.7334181340856621e-02  0.0000000000000000e+00 0.0000000000000000e+00 0.0000000000000000e+00  3.7553759013288744e-02 8.1018221791498216e-03 1.2562841559439928e-02  1.6124904957015165e-01 6.4731950534975685e-02 1.8314147178449716e-02  3.2686032775694140e-01 9.1851310383535917e-02 1.7891730217995633e-02  5.0857817949534367e-01 9.3691392793331052e-02 1.7512672636364662e-02  6.8712788872696762e-01 9.1078688270957053e-02 1.7169605005765663e-02  8.6162384140508352e-01 9.0148653223857386e-02 1.7299462857616583e-02  1.0351783862635713e+00 9.0442437025383904e-02 1.7383898478459923e-02  1.2090038437868171e+00 9.0946275168110921e-02 1.7408752792083374e-02  1.3831227994754112e+00 9.1270889338509020e-02 1.7410008319029835e-02  1.5573581159336201e+00 9.1425702712947046e-02 1.7407744220179724e-02  1.7316163039194918e+00 9.1496555645539157e-02 1.7407090148814797e-02  1.9058743866692558e+00 9.1535341373903872e-02 1.7407486957282489e-02  2.0801330972646919e+00 9.1560683140945412e-02 1.7408004331649803e-02  2.2543948232381870e+00 9.1577682524376328e-02 1.7408325719693855e-02  2.4286595701119702e+00 9.1588524559617399e-02 1.7408477190514398e-02  2.6029263053530927e+00 9.1595096184030375e-02 1.7408545893085197e-02  2.7771941267886722e+00 9.1598956203105722e-02 1.7408582475009725e-02  2.9514625124542513e+00 9.1601150932861641e-02 1.7408604703738284e-02  3.1257311912268255e+00 9.1602277267938625e-02 1.7408616944871468e-02  3.2999999999999998e+00 9.1602625126369727e-02 1.7408621036935627e-02  0.0000000000000000e+00 0.0000000000000000e+00 0.0000000000000000e+00  3.2629726514963736e-02 4.2835380748330902e-03 1.0018814761630183e-02  1.3348481035381013e-01 6.9422631557803814e-03 2.0647803737686751e-02  3.1937431777181996e-01 1.8079809802812798e-02 1.8295201631974820e-02  5.0810736691161595e-01 1.8811371640232614e-02 1.7396247639179036e-02  6.8721995892447596e-01 2.0096722174579102e-02 1.7190754282650829e-02  8.6147970593394307e-01 2.1079881526626234e-02 1.7368267392535067e-02  1.0348917139901466e+00 2.1615949838305951e-02 1.7459267279408434e-02  1.2087583580627110e+00 2.1920968772748788e-02 1.7489221666667967e-02  1.3829698672394952e+00 2.2110361521606576e-02 1.7488020116501021e-02  1.5572751327202961e+00 2.2227770453845296e-02 1.7483649323926643e-02  1.7315711748180431e+00 2.2299620272186228e-02 1.7482105105744918e-02  1.9058477561884746e+00 2.2343595574756656e-02 1.7482253472118341e-02  2.0801163740527482e+00 2.2370527853482838e-02 1.7482691708594483e-02  2.2543842444121474e+00 2.2386987663817973e-02 1.7482941821661782e-02  2.4286530213932251e+00 2.2397022250691637e-02 1.7483026913294075e-02  2.6029223537550155e+00 2.2403113782723586e-02 1.7483047039007219e-02  2.7771918087784799e+00 2.2406766013387432e-02 1.7483053405499615e-02  2.9514612334356007e+00 2.2408877518062521e-02 1.7483058607076121e-02  3.1257306230182977e+00 2.2409967064586121e-02 1.7483062316083084e-02  3.2999999999999998e+00 2.2410302910635015e-02 1.7483063971638315e-02  0.0000000000000000e+00 0.0000000000000000e+00 0.0000000000000000e+00  3.8429185204400078e-02 -2.9053967698553312e-03 1.2869634736124244e-02  1.4458682435430534e-01 -4.0753958209536124e-02 1.9292047195171320e-02  3.2069067534908496e-01 -6.0164084066746962e-02 1.8139300581290482e-02  5.0679248373831176e-01 -5.6048099060460078e-02 1.7409602749137953e-02  6.8547510833903880e-01 -5.0841361558535365e-02 1.7434618526755995e-02  8.6046047125843639e-01 -4.8093193444480868e-02 1.7512833797250462e-02  1.0345001198827979e+00 -4.7299851825233934e-02 1.7552874626992055e-02  1.2086016005028748e+00 -4.7152491816163378e-02 1.7566526122332737e-02  1.3828753691618194e+00 -4.7077448801424067e-02 1.7563549093446002e-02  1.5572063946468606e+00 -4.6986725623075216e-02 1.7559874400074487e-02  1.7315236148916495e+00 -4.6907331989732078e-02 1.7558157448790964e-02  1.9058176552037380e+00 -4.6854240495776571e-02 1.7557769707557645e-02  2.0800983551252057e+00 -4.6823386982542591e-02 1.7557730964584902e-02  2.2543735901523685e+00 -4.6806033805632426e-02 1.7557694686989516e-02  2.4286466407219884e+00 -4.6795913823586853e-02 1.7557634789920298e-02  2.6029184939972887e+00 -4.6789754818785903e-02 1.7557581227154655e-02  2.7771895073688224e+00 -4.6785982626836038e-02 1.7557546191483524e-02  2.9514599473084231e+00 -4.6783765844270325e-02 1.7557526876078998e-02  3.1257300490984781e+00 -4.6782615966107804e-02 1.7557517490051092e-02  3.2999999999999998e+00 -4.6782262532260685e-02 1.7557514624485085e-02  0.0000000000000000e+00 0.0000000000000000e+00 0.0000000000000000e+00  6.0587161714545104e-02 -2.3810625968010476e-02 1.6003087416071947e-02  1.8598944362168143e-01 -9.3936428937937702e-02 1.5984160558522271e-02  3.3057192595498974e-01 -1.3141382110879510e-01 1.6585329653388159e-02  5.0441752089437908e-01 -1.2921158305857505e-01 1.7739494386126313e-02  6.8223681900299005e-01 -1.2165364769557531e-01 1.7769463555369753e-02  8.5881413035637943e-01 -1.1772010966784896e-01 1.7715832737745262e-02  1.0340095105747393e+00 -1.1650567729744124e-01 1.7665539723781629e-02  1.2084986105054305e+00 -1.1631433253969033e-01 1.7643630366375593e-02  1.3828237695106220e+00 -1.1627957501076863e-01 1.7638034050598307e-02  1.5571484735577565e+00 -1.1620489988949889e-01 1.7636275798076251e-02  1.7314737081602116e+00 -1.1612011818406331e-01 1.7635005003655297e-02  1.9057843711557556e+00 -1.1605820947525254e-01 1.7633899446555756e-02  2.0800789714564458e+00 -1.1602173534347972e-01 1.7633086649177118e-02  2.2543626536463210e+00 -1.1600168886637971e-01 1.7632588747826364e-02  2.4286402618243592e+00 -1.1599031842469829e-01 1.7632309195004321e-02  2.6029146326274630e+00 -1.1598347333138206e-01 1.7632152940437060e-02  2.7771871768391674e+00 -1.1597926364351120e-01 1.7632062901270892e-02  2.9514586319391496e+00 -1.1597677022649241e-01 1.7632010886393528e-02  3.1257294597654708e+00 -1.1597547001951453e-01 1.7631983646875876e-02  3.2999999999999998e+00 -1.1597507119843431e-01 1.7631974644777375e-02  0.0000000000000000e+00 0.0000000000000000e+00 0.0000000000000000e+00  1.1238204710567141e-01 -7.3869857285806945e-02 1.5814914404179554e-02  2.3382143625593430e-01 -1.4889870902488858e-01 1.2966817330855565e-02  3.4898844391213946e-01 -1.8908154144168282e-01 1.4668080158197627e-02  5.0158895673441117e-01 -1.9892721590498902e-01 1.8017012531500738e-02  6.7830205450485448e-01 -1.9263378620579757e-01 1.8015602449328750e-02  8.5692491991720754e-01 -1.8799365457605557e-01 1.7944780333663129e-02  1.0334374715524852e+00 -1.8607276833700670e-01 1.7791287688618099e-02  1.2083992150733844e+00 -1.8557962354920057e-01 1.7730412312271543e-02  1.3827875117195667e+00 -1.8548815983160105